Protein in INSANE! Membrane UpperLeaflet>POPC=1.0 LowerLeaflet>POPC=1.0
10365
    1AU     AUC    1   5.121   4.935   5.949
    1AU     AUC    2   5.333   4.722   5.745
    1AU     AUC    3   5.531   4.983   5.946
    1AU     AUC    4   4.780   4.920   5.910
    1AU     AUC    5   4.941   5.177   6.106
    1AU     AUC    6   4.940   5.119   5.815
    1AU     AUC    7   5.203   4.915   5.685
    1AU     AUC    8   4.920   4.906   6.194
    1AU     AUC    9   5.303   4.778   6.078
    1AU     AUC   10   5.273   5.073   6.235
    1AU     AUC   11   5.229   5.198   6.105
    1AU     AUC   12   4.966   4.626   5.908
    1AU     AUC   13   4.969   4.805   5.684
    1AU     AUC   14   5.523   4.520   5.549
    1AU     AUC   15   5.711   4.836   5.685
    1AU     AUC   16   5.826   5.122   5.899
    1AU     AUC   17   4.426   4.900   5.827
    1AU     AUC   18   4.588   5.239   6.059
    1AU     AUC   19   4.782   5.467   6.275
    1AU     AUC   20   4.783   5.352   5.701
    1AU     AUC   21   5.010   5.256   5.496
    1AU     AUC   22   5.412   5.179   5.344
    1AU     AUC   23   4.691   4.927   6.400
    1AU     AUC   24   5.080   4.697   6.348
    1AU     AUC   25   5.430   4.601   6.196
    1AU     AUC   26   5.430   5.336   6.499
    1AU     AUC   27   5.398   5.356   6.337
    1AU     AUC   28   5.369   5.523   6.106
    1AU     AUC   29   4.847   4.356   5.884
    1AU     AUC   30   4.810   4.482   5.611
    1AU     AUC   31   4.832   4.691   5.395
    1AU     AUC   32   5.689   5.153   6.228
    1AU     AUC   33   5.657   5.400   5.983
    1AU     AUC   34   5.180   4.375   5.697
    1AU     AUC   35   5.183   4.552   5.436
    1AU     AUC   36   5.043   5.379   6.450
    1AU     AUC   37   5.075   5.461   6.294
    1AU     AUC   38   4.574   4.617   5.875
    1AU     AUC   39   4.601   4.748   5.682
    1AU     AUC   40   5.518   4.850   5.466
    1AU     AUC   41   5.711   5.175   5.589
    1AU     AUC   42   4.570   5.137   5.807
    1AU     AUC   43   4.795   5.460   6.021
    1AU     AUC   44   5.493   4.524   5.867
    1AU     AUC   45   5.676   4.839   6.073
    1AU     AUC   46   4.566   4.873   6.125
    1AU     AUC   47   4.692   5.211   6.360
    1AU     AUC   48   5.051   5.544   5.898
    1AU     AUC   49   5.364   5.639   5.660
    1AU     AUC   50   5.034   5.076   6.515
    1AU     AUC   51   5.488   4.907   6.370
    1AU     AUC   52   4.793   5.042   5.481
    1AU     AUC   53   5.100   4.915   5.406
    1AU     AUC   54   4.774   4.584   6.173
    1AU     AUC   55   5.132   4.436   6.026
    1AU    AUSL   56   5.985   5.378   6.151
    1AU    AUSL   57   5.908   5.125   6.580
    1AU     AUL   58   6.062   5.492   6.481
    1AU       S   59   6.188   5.008   6.640
    1AU     LIG   60   6.321   5.463   6.908
    1AU     LIG   61   6.179   5.540   7.432
    1AU     LIG   62   5.832   5.285   7.706
    1AU       S   63   6.250   5.614   5.761
    1AU     LIG   64   6.363   6.035   5.439
    1AU     LIG   65   6.149   6.272   5.034
    1AU     LIG   66   5.766   6.217   4.727
    1AU    AUSL   67   5.602   5.317   6.409
    1AU    AUSL   68   5.380   5.031   6.736
    1AU     AUL   69   5.594   4.903   6.833
    1AU       S   70   6.237   5.438   5.791
    1AU     LIG   71   6.364   5.611   5.162
    1AU     LIG   72   6.334   5.407   4.657
    1AU     LIG   73   5.985   5.266   4.254
    1AU       S   74   4.877   4.844   7.191
    1AU     LIG   75   4.686   4.571   7.514
    1AU     LIG   76   4.299   4.335   7.790
    1AU     LIG   77   4.016   4.628   8.017
    1AU    AUSL   78   5.652   5.649   6.138
    1AU    AUSL   79   5.775   5.455   5.778
    1AU     AUL   80   5.950   5.750   6.090
    1AU       S   81   5.967   5.845   5.636
    1AU     LIG   82   5.535   5.908   5.074
    1AU     LIG   83   5.288   5.810   4.580
    1AU     LIG   84   4.866   5.689   4.316
    1AU       S   85   5.329   6.063   5.461
    1AU     LIG   86   4.888   6.348   5.281
    1AU     LIG   87   4.743   6.489   4.967
    1AU     LIG   88   4.987   6.740   4.702
    1AU    AUSL   89   5.281   4.211   5.263
    1AU    AUSL   90   5.137   4.611   5.314
    1AU     AUL   91   5.053   4.074   5.112
    1AU       S   92   5.472   4.369   4.886
    1AU     LIG   93   6.125   4.769   4.948
    1AU     LIG   94   6.349   5.152   5.270
    1AU     LIG   95   6.687   5.589   5.502
    1AU       S   96   5.620   4.321   6.460
    1AU     LIG   97   4.610   4.658   6.821
    1AU     LIG   98   4.055   4.894   6.729
    1AU     LIG   99   3.727   5.238   6.910
    1AU    AUSL  100   4.946   4.207   5.534
    1AU    AUSL  101   5.443   4.239   5.651
    1AU     AUL  102   5.299   3.952   5.473
    1AU       S  103   5.505   3.746   5.885
    1AU     LIG  104   5.750   3.428   6.313
    1AU     LIG  105   6.141   3.718   6.524
    1AU     LIG  106   6.320   4.175   6.588
    1AU       S  107   5.166   4.405   4.850
    1AU     LIG  108   5.479   3.901   4.919
    1AU     LIG  109   5.771   3.673   5.240
    1AU     LIG  110   5.826   3.291   5.532
    1AU    AUSL  111   4.794   4.429   5.179
    1AU    AUSL  112   4.604   4.209   5.777
    1AU     AUL  113   4.654   4.077   5.383
    1AU       S  114   4.315   4.038   6.260
    1AU     LIG  115   4.672   4.234   6.924
    1AU     LIG  116   4.357   4.963   7.113
    1AU     LIG  117   4.153   5.421   7.170
    1AU       S  118   5.331   4.538   4.697
    1AU     LIG  119   5.913   5.165   4.739
    1AU     LIG  120   5.967   5.772   4.958
    1AU     LIG  121   5.803   6.191   5.368
    1AU    AUSL  122   5.011   5.546   6.373
    1AU    AUSL  123   5.286   5.830   6.246
    1AU     AUL  124   5.543   5.738   6.544
    1AU       S  125   4.824   4.963   7.081
    1AU     LIG  126   5.033   4.391   7.212
    1AU     LIG  127   5.227   4.012   7.053
    1AU     LIG  128   5.026   3.665   6.849
    1AU       S  129   5.433   5.971   6.929
    1AU     LIG  130   5.701   5.514   7.266
    1AU     LIG  131   5.728   4.906   7.397
    1AU     LIG  132   5.638   4.403   7.204
    1AU    AUSL  133   5.167   5.678   6.717
    1AU    AUSL  134   4.665   5.776   6.354
    1AU     AUL  135   4.923   5.913   6.499
    1AU       S  136   4.506   5.964   6.718
    1AU     LIG  137   4.557   6.270   6.381
    1AU     LIG  138   4.243   6.446   6.117
    1AU     LIG  139   4.077   6.368   5.739
    1AU       S  140   4.811   4.993   7.162
    1AU     LIG  141   4.431   4.228   7.324
    1AU     LIG  142   4.009   3.848   7.142
    1AU     LIG  143   3.781   3.960   6.622
    1AU    AUSL  144   4.240   4.502   5.803
    1AU    AUSL  145   4.505   4.447   6.112
    1AU     AUL  146   4.329   4.162   5.803
    1AU       S  147   4.035   4.155   6.169
    1AU     LIG  148   4.169   3.675   6.547
    1AU     LIG  149   4.462   3.661   7.016
    1AU     LIG  150   4.800   3.856   7.284
    1AU       S  151   3.975   4.616   6.266
    1AU     LIG  152   3.839   4.270   6.987
    1AU     LIG  153   3.965   4.524   7.483
    1AU     LIG  154   4.335   4.872   7.666
    1AU    AUSL  155   4.479   4.489   5.462
    1AU    AUSL  156   4.181   4.885   5.947
    1AU     AUL  157   4.058   4.499   5.600
    1AU       S  158   3.916   5.685   5.609
    1AU     LIG  159   3.585   5.874   6.372
    1AU     LIG  160   3.726   5.799   6.879
    1AU     LIG  161   3.705   5.584   7.322
    1AU       S  162   4.166   4.196   6.245
    1AU     LIG  163   4.209   4.537   7.060
    1AU     LIG  164   3.967   5.022   7.392
    1AU     LIG  165   4.212   5.384   7.658
    1AU    AUSL  166   5.714   5.176   5.178
    1AU    AUSL  167   5.574   4.499   5.314
    1AU     AUL  168   5.673   4.779   4.963
    1AU       S  169   6.001   4.196   6.110
    1AU     LIG  170   6.485   4.424   6.164
    1AU     LIG  171   6.724   4.497   5.740
    1AU     LIG  172   7.002   4.643   5.442
    1AU       S  173   5.532   5.434   4.935
    1AU     LIG  174   5.390   5.359   4.397
    1AU     LIG  175   5.306   5.636   4.063
    1AU     LIG  176   5.133   6.066   4.073
    1AU    AUSL  177   5.858   4.790   5.363
    1AU    AUSL  178   5.969   4.827   5.780
    1AU     AUL  179   6.137   4.612   5.399
    1AU       S  180   5.471   5.177   4.815
    1AU     LIG  181   5.674   4.845   4.470
    1AU     LIG  182   5.914   4.468   4.619
    1AU     LIG  183   5.940   4.275   5.059
    1AU       S  184   6.294   4.940   5.719
    1AU     LIG  185   6.569   4.727   5.224
    1AU     LIG  186   6.566   4.745   4.732
    1AU     LIG  187   6.230   4.865   4.434
    1AU    AUSL  188   5.941   5.173   5.534
    1AU    AUSL  189   5.580   5.538   5.399
    1AU     AUL  190   5.929   5.477   5.346
    1AU       S  191   5.153   6.013   5.479
    1AU     LIG  192   4.632   5.854   5.128
    1AU     LIG  193   4.209   5.755   4.579
    1AU     LIG  194   3.697   5.670   4.499
    1AU       S  195   5.168   5.631   5.250
    1AU     LIG  196   3.829   5.627   6.040
    1AU     LIG  197   3.383   5.438   6.468
    1AU     LIG  198   3.042   5.184   6.643
    1AU    AUSL  199   4.265   5.103   6.305
    1AU    AUSL  200   4.723   5.542   6.691
    1AU     AUL  201   4.245   5.308   6.720
    1AU       S  202   5.180   5.694   7.154
    1AU     LIG  203   5.253   5.120   7.653
    1AU     LIG  204   4.922   4.878   7.814
    1AU     LIG  205   4.598   4.635   8.027
    1AU       S  206   3.942   5.609   6.485
    1AU     LIG  207   3.781   5.187   6.409
    1AU     LIG  208   3.393   4.863   6.436
    1AU     LIG  209   3.180   4.443   6.589
    1AU    AUSL  210   4.468   5.219   5.955
    1AU    AUSL  211   4.512   5.246   5.554
    1AU     AUL  212   4.145   5.045   6.117
    1AU       S  213   4.159   5.898   5.970
    1AU     LIG  214   3.847   6.060   5.371
    1AU     LIG  215   3.832   5.543   4.961
    1AU     LIG  216   3.956   5.248   4.615
    1AU       S  217   4.108   5.583   5.387
    1AU     LIG  218   3.540   5.617   5.321
    1AU     LIG  219   3.324   5.720   4.937
    1AU     LIG  220   3.308   6.144   4.786
    1AU    AUSL  221   4.552   5.632   5.965
    1AU    AUSL  222   4.137   5.258   5.738
    1AU     AUL  223   4.430   5.639   5.719
    1AU       S  224   3.806   5.233   5.490
    1AU     LIG  225   4.136   5.886   5.042
    1AU     LIG  226   4.524   6.106   4.717
    1AU     LIG  227   4.954   6.249   4.531
    1AU       S  228   4.297   5.931   6.106
    1AU     LIG  229   4.618   6.182   5.862
    1AU     LIG  230   4.943   6.515   5.749
    1AU     LIG  231   5.170   6.750   5.370
    1AU    AUSL  232   5.713   4.583   6.050
    1AU    AUSL  233   5.975   4.960   6.172
    1AU     AUL  234   6.081   4.628   6.014
    1AU       S  235   6.391   4.946   5.943
    1AU     LIG  236   6.840   4.946   6.037
    1AU     LIG  237   7.173   4.911   6.309
    1AU     LIG  238   7.184   4.518   6.595
    1AU       S  239   6.243   4.833   6.401
    1AU     LIG  240   6.691   4.879   6.510
    1AU     LIG  241   6.922   5.321   6.440
    1AU     LIG  242   6.929   5.765   6.573
    1AU    AUSL  243   5.827   4.442   5.665
    1AU    AUSL  244   5.527   4.193   6.056
    1AU     AUL  245   5.734   4.153   5.765
    1AU       S  246   6.414   4.826   5.687
    1AU     LIG  247   6.756   5.108   5.588
    1AU     LIG  248   6.794   5.438   5.950
    1AU     LIG  249   7.073   5.766   6.086
    1AU       S  250   5.357   3.648   6.130
    1AU     LIG  251   4.626   3.880   6.609
    1AU     LIG  252   4.138   4.447   6.633
    1AU     LIG  253   3.760   4.731   7.069
    1AU    AUSL  254   4.225   5.470   6.176
    1AU    AUSL  255   4.231   4.893   5.553
    1AU     AUL  256   4.097   5.364   5.826
    1AU       S  257   3.818   4.613   6.002
    1AU     LIG  258   3.313   4.667   5.988
    1AU     LIG  259   2.954   4.969   5.785
    1AU     LIG  260   2.706   5.309   5.554
    1AU       S  261   3.652   5.316   5.753
    1AU     LIG  262   3.509   5.926   5.708
    1AU     LIG  263   3.593   6.392   5.649
    1AU     LIG  264   3.739   6.697   5.396
    1AU    AUSL  265   4.577   5.356   6.351
    1AU    AUSL  266   4.635   5.123   6.687
    1AU     AUL  267   4.383   5.587   6.421
    1AU       S  268   4.372   5.746   6.876
    1AU     LIG  269   4.071   6.084   6.507
    1AU     LIG  270   3.761   6.155   6.060
    1AU     LIG  271   3.348   5.648   6.038
    1AU       S  272   3.753   5.064   5.864
    1AU     LIG  273   3.573   4.505   5.613
    1AU     LIG  274   3.805   4.062   5.749
    1AU     LIG  275   3.918   3.690   6.084
    1AU    AUSL  276   5.241   5.545   5.905
    1AU    AUSL  277   4.923   5.809   5.956
    1AU     AUL  278   5.177   6.003   5.979
    1AU       S  279   5.304   6.108   6.655
    1AU     LIG  280   5.869   5.745   6.889
    1AU     LIG  281   6.069   5.152   7.166
    1AU     LIG  282   6.021   4.692   7.023
    1AU       S  283   5.215   4.275   6.642
    1AU     LIG  284   5.689   3.878   6.384
    1AU     LIG  285   5.991   3.756   5.881
    1AU     LIG  286   6.270   3.732   5.457
    1AU    AUSL  287   4.915   5.479   5.594
    1AU    AUSL  288   5.134   5.174   5.193
    1AU     AUL  289   5.099   5.284   5.025
    1AU       S  290   5.000   4.214   6.573
    1AU     LIG  291   4.501   3.626   6.177
    1AU     LIG  292   4.251   3.679   5.702
    1AU     LIG  293   4.021   3.724   5.271
    1AU       S  294   4.767   5.229   4.723
    1AU     LIG  295   4.367   4.948   4.686
    1AU     LIG  296   4.324   4.628   5.017
    1AU     LIG  297   4.189   4.205   5.187
    1AU    AUSL  298   5.294   5.293   5.575
    1AU    AUSL  299   5.524   5.799   5.761
    1AU     AUL  300   5.352   5.274   5.737
    1AU       S  301   4.936   5.929   5.497
    1AU     LIG  302   4.398   5.499   4.930
    1AU     LIG  303   4.048   5.086   5.072
    1AU     LIG  304   3.790   4.790   5.272
    1AU       S  305   5.059   4.256   6.602
    1AU     LIG  306   4.261   4.069   6.808
    1AU     LIG  307   3.669   4.505   6.639
    1AU     LIG  308   3.318   4.843   6.911
    1AU    AUSL  309   5.472   5.400   6.817
    1AU    AUSL  310   5.737   4.753   6.453
    1AU     AUL  311   5.820   5.262   6.799
    1AU       S  312   5.385   5.191   7.187
    1AU     LIG  313   4.922   5.367   7.411
    1AU     LIG  314   4.611   5.556   7.314
    1AU     LIG  315   4.414   5.957   7.344
    1AU       S  316   6.120   4.700   6.535
    1AU     LIG  317   6.440   5.252   6.304
    1AU     LIG  318   6.479   5.728   6.222
    1AU     LIG  319   6.300   6.151   6.099
    1AU    AUSL  320   4.976   4.873   6.664
    1AU    AUSL  321   5.055   5.280   6.707
    1AU     AUL  322   5.031   5.303   6.918
    1AU       S  323   5.300   5.039   7.192
    1AU     LIG  324   5.332   5.567   7.578
    1AU     LIG  325   4.984   5.871   7.631
    1AU     LIG  326   5.063   6.324   7.725
    1AU       S  327   4.771   5.875   6.973
    1AU     LIG  328   5.044   6.164   7.210
    1AU     LIG  329   5.444   6.047   7.450
    1AU     LIG  330   5.762   5.793   7.708
    1AU    AUSL  331   5.326   4.672   6.518
    1AU    AUSL  332   4.819   4.565   6.423
    1AU     AUL  333   5.068   4.661   6.804
    1AU       S  334   4.969   3.803   6.359
    1AU     LIG  335   5.096   3.345   6.461
    1AU     LIG  336   5.502   3.130   6.646
    1AU     LIG  337   6.012   3.261   6.731
    1AU       S  338   5.331   4.773   7.164
    1AU     LIG  339   5.308   4.623   7.567
    1AU     LIG  340   5.038   4.348   7.802
    1AU     LIG  341   4.712   4.057   7.747
    1AU    AUSL  342   4.869   4.866   5.062
    1AU    AUSL  343   5.434   4.911   5.328
    1AU     AUL  344   5.220   4.837   5.003
    1AU       S  345   4.838   5.002   4.758
    1AU     LIG  346   4.716   4.554   4.685
    1AU     LIG  347   4.668   4.097   4.801
    1AU     LIG  348   4.995   3.723   4.765
    1AU       S  349   5.917   4.290   6.282
    1AU     LIG  350   5.868   4.079   6.796
    1AU     LIG  351   5.723   3.633   6.933
    1AU     LIG  352   5.687   3.168   7.111
    1AU    AUSL  353   4.733   5.361   5.228
    1AU    AUSL  354   4.625   4.880   5.393
    1AU     AUL  355   4.516   5.087   5.138
    1AU       S  356   4.821   5.523   4.775
    1AU     LIG  357   5.042   5.991   4.948
    1AU     LIG  358   5.281   6.356   4.958
    1AU     LIG  359   5.648   6.574   5.089
    1AU       S  360   4.202   5.466   5.326
    1AU     LIG  361   4.340   6.036   5.465
    1AU     LIG  362   4.469   6.523   5.486
    1AU     LIG  363   4.495   6.822   5.843
    1AU    AUSL  364   4.832   4.205   6.166
    1AU    AUSL  365   4.434   4.737   6.407
    1AU     AUL  366   4.561   4.348   6.475
    1AU       S  367   3.840   4.734   6.260
    1AU     LIG  368   3.338   5.151   6.056
    1AU     LIG  369   3.143   5.567   5.613
    1AU     LIG  370   3.284   6.064   5.310
    1AU       S  371   4.788   3.991   6.188
    1AU     LIG  372   4.768   3.741   5.737
    1AU     LIG  373   4.560   3.598   5.276
    1AU     LIG  374   4.504   3.586   4.799
    1AU    AUSL  375   5.204   4.396   6.216
    1AU    AUSL  376   5.128   4.080   5.895
    1AU     AUL  377   5.289   4.081   6.222
    1AU       S  378   4.928   3.774   6.232
    1AU     LIG  379   5.014   3.324   5.953
    1AU     LIG  380   5.382   3.005   5.732
    1AU     LIG  381   5.666   2.763   5.393
    1AU       S  382   5.250   3.753   5.887
    1AU     LIG  383   5.284   3.460   5.528
    1AU     LIG  384   5.335   3.439   5.083
    1AU     LIG  385   5.669   3.401   4.754
    2POPC   NC3  386   3.516   1.398   8.148
    2POPC   PO4  387   3.112   0.801   8.207
    2POPC   GL1  388   3.203   0.939   7.760
    2POPC   GL2  389   3.563   1.021   7.774
    2POPC   C1A  390   3.103   0.899   7.275
    2POPC   D2A  391   3.067   0.836   6.797
    2POPC   C3A  392   3.298   0.970   6.425
    2POPC   C4A  393   3.292   0.904   5.966
    2POPC   C1B  394   3.460   1.241   7.390
    2POPC   C2B  395   3.384   1.254   6.920
    2POPC   C3B  396   3.639   1.304   6.532
    2POPC   C4B  397   3.712   1.201   6.087
    3POPC   NC3  398   7.275   0.303   8.148
    3POPC   PO4  399   7.835   9.898   8.006
    3POPC   GL1  400   7.580   0.182   7.738
    3POPC   GL2  401   7.431   0.535   7.716
    3POPC   C1A  402   7.436   0.174   7.326
    3POPC   D2A  403   7.550   0.421   6.970
    3POPC   C3A  404   7.334   0.369   6.583
    3POPC   C4A  405   7.358   0.081   6.215
    3POPC   C1B  406   7.221   0.643   7.336
    3POPC   C2B  407   7.222   0.785   6.935
    3POPC   C3B  408   7.120   0.853   6.509
    3POPC   C4B  409   7.265   0.743   6.101
    4POPC   NC3  410   1.089   1.436   8.169
    4POPC   PO4  411   0.702   0.821   8.091
    4POPC   GL1  412   0.860   1.117   7.793
    4POPC   GL2  413   1.200   1.044   7.844
    4POPC   C1A  414   1.104   1.276   7.398
    4POPC   D2A  415   1.352   1.363   7.003
    4POPC   C3A  416   1.199   1.309   6.573
    4POPC   C4A  417   1.033   1.469   6.160
    4POPC   C1B  418   1.310   0.809   7.491
    4POPC   C2B  419   1.245   0.836   7.061
    4POPC   C3B  420   1.448   0.780   6.680
    4POPC   C4B  421   1.364   0.932   6.289
    5POPC   NC3  422   0.669   5.137   8.063
    5POPC   PO4  423   0.090   4.667   7.928
    5POPC   GL1  424   0.472   4.812   7.630
    5POPC   GL2  425   0.615   5.156   7.574
    5POPC   C1A  426   0.590   4.909   7.145
    5POPC   D2A  427   0.431   5.024   6.716
    5POPC   C3A  428   0.695   4.975   6.326
    5POPC   C4A  429   0.834   4.842   5.906
    5POPC   C1B  430   0.429   5.411   7.267
    5POPC   C2B  431   0.136   5.387   6.945
    5POPC   C3B  432   0.020   5.352   6.540
    5POPC   C4B  433   0.195   5.075   6.234
    6POPC   NC3  434   6.269   7.567   8.592
    6POPC   PO4  435   5.742   7.726   8.143
    6POPC   GL1  436   5.635   8.021   7.771
    6POPC   GL2  437   5.600   8.389   7.814
    6POPC   C1A  438   5.717   8.113   7.299
    6POPC   D2A  439   5.535   8.029   6.856
    6POPC   C3A  440   5.851   7.902   6.540
    6POPC   C4A  441   6.296   7.765   6.491
    6POPC   C1B  442   5.398   8.512   7.414
    6POPC   C2B  443   5.601   8.497   6.986
    6POPC   C3B  444   5.668   8.387   6.503
    6POPC   C4B  445   5.713   8.461   6.012
    7POPC   NC3  446   0.319   8.145   8.245
    7POPC   PO4  447   0.852   7.697   8.190
    7POPC   GL1  448   0.487   7.865   7.860
    7POPC   GL2  449   0.380   8.265   7.758
    7POPC   C1A  450   0.244   7.884   7.458
    7POPC   D2A  451   0.403   7.855   7.032
    7POPC   C3A  452   0.139   7.916   6.648
    7POPC   C4A  453   0.183   7.731   6.221
    7POPC   C1B  454   0.447   8.331   7.280
    7POPC   C2B  455   0.451   8.309   6.799
    7POPC   C3B  456   0.545   8.149   6.387
    7POPC   C4B  457   0.832   8.293   6.027
    8POPC   NC3  458   8.601   6.417   8.155
    8POPC   PO4  459   9.249   6.306   8.362
    8POPC   GL1  460   9.097   6.436   7.929
    8POPC   GL2  461   8.964   6.760   7.813
    8POPC   C1A  462   8.928   6.371   7.481
    8POPC   D2A  463   8.664   6.578   7.151
    8POPC   C3A  464   8.732   6.591   6.703
    8POPC   C4A  465   9.001   6.467   6.332
    8POPC   C1B  466   8.975   6.933   7.341
    8POPC   C2B  467   9.097   6.937   6.861
    8POPC   C3B  468   8.914   6.977   6.427
    8POPC   C4B  469   8.692   6.821   6.059
    9POPC   NC3  470   2.555   6.267   8.092
    9POPC   PO4  471   2.693   6.908   8.112
    9POPC   GL1  472   2.544   6.654   7.749
    9POPC   GL2  473   2.804   6.411   7.666
    9POPC   C1A  474   2.414   6.736   7.329
    9POPC   D2A  475   2.519   6.651   6.909
    9POPC   C3A  476   2.414   6.832   6.534
    9POPC   C4A  477   2.558   6.832   6.139
    9POPC   C1B  478   2.919   6.656   7.263
    9POPC   C2B  479   3.034   6.790   6.819
    9POPC   C3B  480   2.960   6.640   6.395
    9POPC   C4B  481   2.778   6.409   6.017
   10POPC   NC3  482   7.516   9.563   8.017
   10POPC   PO4  483   6.968   9.905   8.198
   10POPC   GL1  484   7.151   9.847   7.764
   10POPC   GL2  485   7.185   9.475   7.648
   10POPC   C1A  486   7.054   9.829   7.313
   10POPC   D2A  487   7.227   9.935   6.906
   10POPC   C3A  488   6.970   9.978   6.553
   10POPC   C4A  489   6.826   9.970   6.123
   10POPC   C1B  490   7.506   9.601   7.324
   10POPC   C2B  491   7.521   9.478   6.886
   10POPC   C3B  492   7.452   9.596   6.444
   10POPC   C4B  493   7.676   9.697   6.021
   11POPC   NC3  494   8.095   4.819   8.064
   11POPC   PO4  495   8.039   4.155   8.363
   11POPC   GL1  496   8.182   4.294   7.917
   11POPC   GL2  497   8.497   4.386   7.826
   11POPC   C1A  498   8.260   4.109   7.463
   11POPC   D2A  499   8.213   3.969   6.997
   11POPC   C3A  500   8.092   4.292   6.662
   11POPC   C4A  501   7.999   4.295   6.166
   11POPC   C1B  502   8.631   4.484   7.397
   11POPC   C2B  503   8.541   4.386   6.958
   11POPC   C3B  504   8.485   4.654   6.586
   11POPC   C4B  505   8.389   4.610   6.151
   12POPC   NC3  506   3.337   2.043   8.237
   12POPC   PO4  507   3.789   2.545   8.147
   12POPC   GL1  508   3.601   2.182   7.834
   12POPC   GL2  509   3.566   1.803   7.739
   12POPC   C1A  510   3.539   2.192   7.373
   12POPC   D2A  511   3.375   2.375   6.956
   12POPC   C3A  512   3.385   2.206   6.500
   12POPC   C4A  513   3.200   2.016   6.077
   12POPC   C1B  514   3.753   1.657   7.294
   12POPC   C2B  515   3.931   1.609   6.822
   12POPC   C3B  516   3.721   1.789   6.438
   12POPC   C4B  517   3.283   1.701   6.485
   13POPC   NC3  518   9.250   5.946   8.082
   13POPC   PO4  519   9.487   5.349   8.198
   13POPC   GL1  520   9.293   5.497   7.842
   13POPC   GL2  521   9.523   5.716   7.678
   13POPC   C1A  522   9.031   5.528   7.474
   13POPC   D2A  523   9.063   5.353   7.053
   13POPC   C3A  524   9.127   5.606   6.676
   13POPC   C4A  525   9.133   5.871   6.301
   13POPC   C1B  526   9.374   5.834   7.264
   13POPC   C2B  527   8.967   5.908   7.085
   13POPC   C3B  528   8.866   6.093   6.690
   13POPC   C4B  529   8.603   6.103   6.321
   14POPC   NC3  530   2.006   4.411   8.359
   14POPC   PO4  531   1.434   4.254   8.037
   14POPC   GL1  532   1.684   4.323   7.721
   14POPC   GL2  533   1.946   4.553   7.843
   14POPC   C1A  534   1.696   4.294   7.277
   14POPC   D2A  535   1.638   4.085   6.864
   14POPC   C3A  536   1.801   4.335   6.515
   14POPC   C4A  537   1.855   4.217   6.072
   14POPC   C1B  538   2.132   4.172   7.579
   14POPC   C2B  539   2.094   3.967   7.134
   14POPC   C3B  540   2.120   3.942   6.658
   14POPC   C4B  541   2.298   4.264   6.349
   15POPC   NC3  542   4.320   9.069   8.193
   15POPC   PO4  543   3.868   8.548   8.262
   15POPC   GL1  544   3.890   8.797   7.799
   15POPC   GL2  545   4.053   9.130   7.752
   15POPC   C1A  546   3.777   8.984   7.351
   15POPC   D2A  547   3.988   8.825   6.951
   15POPC   C3A  548   4.069   9.032   6.535
   15POPC   C4A  549   4.158   9.212   6.087
   15POPC   C1B  550   4.273   8.889   7.398
   15POPC   C2B  551   4.499   8.671   7.097
   15POPC   C3B  552   4.524   8.914   6.727
   15POPC   C4B  553   4.480   8.818   6.268
   16POPC   NC3  554   0.333   1.179   7.932
   16POPC   PO4  555   0.680   1.680   8.089
   16POPC   GL1  556   0.439   1.639   7.679
   16POPC   GL2  557   0.126   1.426   7.557
   16POPC   C1A  558   0.606   1.408   7.290
   16POPC   D2A  559   0.860   1.198   6.943
   16POPC   C3A  560   0.693   1.230   6.499
   16POPC   C4A  561   0.343   1.475   6.344
   16POPC   C1B  562   0.222   1.056   7.290
   16POPC   C2B  563   0.336   1.141   6.860
   16POPC   C3B  564   0.199   0.991   6.440
   16POPC   C4B  565   0.141   0.995   5.979
   17POPC   NC3  566   8.007   5.765   7.976
   17POPC   PO4  567   8.657   5.886   8.051
   17POPC   GL1  568   8.452   5.755   7.676
   17POPC   GL2  569   8.298   6.106   7.686
   17POPC   C1A  570   8.565   5.579   7.244
   17POPC   D2A  571   8.625   5.647   6.783
   17POPC   C3A  572   8.272   5.665   6.457
   17POPC   C4A  573   7.857   5.734   6.262
   17POPC   C1B  574   8.485   6.106   7.247
   17POPC   C2B  575   8.368   6.212   6.790
   17POPC   C3B  576   8.085   6.170   6.393
   17POPC   C4B  577   7.841   6.220   5.961
   18POPC   NC3  578   5.764   0.395   8.370
   18POPC   PO4  579   6.236   9.922   8.339
   18POPC   GL1  580   6.081   0.327   7.981
   18POPC   GL2  581   5.804   0.576   7.897
   18POPC   C1A  582   5.974   0.351   7.481
   18POPC   D2A  583   6.067   0.032   7.158
   18POPC   C3A  584   6.021   0.067   6.706
   18POPC   C4A  585   5.943   0.048   6.277
   18POPC   C1B  586   5.590   0.679   7.475
   18POPC   C2B  587   5.774   0.785   7.050
   18POPC   C3B  588   5.779   0.534   6.617
   18POPC   C4B  589   5.949   0.548   6.195
   19POPC   NC3  590   9.565   6.591   8.162
   19POPC   PO4  591   0.231   6.259   8.181
   19POPC   GL1  592   9.975   6.493   7.817
   19POPC   GL2  593   9.820   6.787   7.776
   19POPC   C1A  594   9.839   6.529   7.319
   19POPC   D2A  595   9.913   6.405   6.847
   19POPC   C3A  596   9.867   6.552   6.379
   19POPC   C4A  597   9.934   6.350   5.896
   19POPC   C1B  598   9.421   6.755   7.531
   19POPC   C2B  599   9.294   6.538   7.124
   19POPC   C3B  600   9.413   6.580   6.654
   19POPC   C4B  601   9.392   6.876   6.278
   20POPC   NC3  602   9.606   0.944   8.465
   20POPC   PO4  603   9.954   1.429   8.066
   20POPC   GL1  604   9.625   1.363   7.746
   20POPC   GL2  605   9.284   1.231   7.859
   20POPC   C1A  606   9.684   1.223   7.324
   20POPC   D2A  607   9.833   0.984   6.954
   20POPC   C3A  608   9.710   1.111   6.530
   20POPC   C4A  609   9.686   0.842   6.151
   20POPC   C1B  610   9.159   1.174   7.411
   20POPC   C2B  611   9.300   1.145   6.951
   20POPC   C3B  612   9.360   1.481   6.615
   20POPC   C4B  613   9.490   1.573   6.169
   21POPC   NC3  614   1.886   8.046   8.065
   21POPC   PO4  615   2.362   7.568   8.085
   21POPC   GL1  616   2.216   7.805   7.669
   21POPC   GL2  617   1.889   8.055   7.562
   21POPC   C1A  618   2.281   7.982   7.258
   21POPC   D2A  619   2.058   7.948   6.879
   21POPC   C3A  620   2.335   7.895   6.531
   21POPC   C4A  621   2.516   8.028   6.110
   21POPC   C1B  622   1.509   8.323   7.426
   21POPC   C2B  623   1.331   8.268   6.996
   21POPC   C3B  624   1.613   8.149   6.642
   21POPC   C4B  625   1.955   8.165   6.334
   22POPC   NC3  626   4.179   1.506   8.202
   22POPC   PO4  627   4.721   1.130   8.446
   22POPC   GL1  628   4.625   1.350   8.016
   22POPC   GL2  629   4.317   1.181   7.851
   22POPC   C1A  630   4.644   1.325   7.507
   22POPC   D2A  631   4.401   1.098   7.131
   22POPC   C3A  632   4.539   1.127   6.655
   22POPC   C4A  633   4.565   1.102   6.147
   22POPC   C1B  634   4.006   1.253   7.527
   22POPC   C2B  635   3.886   1.192   7.097
   22POPC   C3B  636   3.984   0.968   6.725
   22POPC   C4B  637   4.125   1.210   6.359
   23POPC   NC3  638   7.805   7.016   8.071
   23POPC   PO4  639   8.356   7.504   8.142
   23POPC   GL1  640   8.101   7.320   7.833
   23POPC   GL2  641   8.246   7.464   7.607
   23POPC   C1A  642   7.952   7.112   7.415
   23POPC   D2A  643   8.074   7.261   6.979
   23POPC   C3A  644   7.932   7.065   6.560
   23POPC   C4A  645   7.715   7.083   6.129
   23POPC   C1B  646   8.326   7.699   7.263
   23POPC   C2B  647   8.449   7.619   6.856
   23POPC   C3B  648   8.295   7.660   6.423
   23POPC   C4B  649   8.294   7.477   5.990
   24POPC   NC3  650   9.234   3.473   8.018
   24POPC   PO4  651   8.754   3.939   8.023
   24POPC   GL1  652   8.860   3.667   7.718
   24POPC   GL2  653   8.786   3.293   7.820
   24POPC   C1A  654   9.203   3.742   7.420
   24POPC   D2A  655   9.392   3.542   7.074
   24POPC   C3A  656   9.188   3.645   6.683
   24POPC   C4A  657   8.837   3.635   6.384
   24POPC   C1B  658   9.026   3.277   7.423
   24POPC   C2B  659   8.897   3.324   6.996
   24POPC   C3B  660   8.985   3.171   6.577
   24POPC   C4B  661   8.736   3.134   6.202
   25POPC   NC3  662   0.204   1.809   8.164
   25POPC   PO4  663   0.460   2.228   8.493
   25POPC   GL1  664   0.409   2.166   7.896
   25POPC   GL2  665   0.689   2.113   7.687
   25POPC   C1A  666   0.217   2.092   7.467
   25POPC   D2A  667   9.986   2.197   7.059
   25POPC   C3A  668   0.131   2.035   6.648
   25POPC   C4A  669   0.181   1.989   6.185
   25POPC   C1B  670   0.670   2.147   7.223
   25POPC   C2B  671   0.626   2.127   6.770
   25POPC   C3B  672   0.639   1.901   6.402
   25POPC   C4B  673   0.605   1.725   5.979
   26POPC   NC3  674   9.883   4.390   8.240
   26POPC   PO4  675   9.317   4.745   7.978
   26POPC   GL1  676   9.638   4.585   7.692
   26POPC   GL2  677   9.823   4.247   7.757
   26POPC   C1A  678   9.643   4.668   7.260
   26POPC   D2A  679   9.446   4.637   6.845
   26POPC   C3A  680   9.607   4.502   6.429
   26POPC   C4A  681   9.559   4.641   5.986
   26POPC   C1B  682   9.929   4.249   7.335
   26POPC   C2B  683   9.900   4.385   6.901
   26POPC   C3B  684   0.042   4.204   6.530
   26POPC   C4B  685   9.943   3.831   6.288
   27POPC   NC3  686   7.297   0.951   8.135
   27POPC   PO4  687   7.732   1.407   7.844
   27POPC   GL1  688   7.295   1.340   7.699
   27POPC   GL2  689   7.140   1.020   7.668
   27POPC   C1A  690   7.203   1.248   7.229
   27POPC   D2A  691   7.359   1.255   6.799
   27POPC   C3A  692   7.038   1.348   6.462
   27POPC   C4A  693   7.018   1.180   6.011
   27POPC   C1B  694   7.578   0.960   7.440
   27POPC   C2B  695   7.735   0.929   7.019
   27POPC   C3B  696   7.628   0.856   6.593
   27POPC   C4B  697   7.473   1.177   6.299
   28POPC   NC3  698   9.288   4.953   8.380
   28POPC   PO4  699   8.609   4.910   8.104
   28POPC   GL1  700   8.875   4.764   7.739
   28POPC   GL2  701   9.082   5.056   7.663
   28POPC   C1A  702   9.097   4.683   7.296
   28POPC   D2A  703   8.941   4.709   6.835
   28POPC   C3A  704   9.126   4.744   6.396
   28POPC   C4A  705   9.068   4.723   5.929
   28POPC   C1B  706   8.737   5.091   7.380
   28POPC   C2B  707   8.616   5.075   6.963
   28POPC   C3B  708   8.806   5.179   6.600
   28POPC   C4B  709   8.743   5.521   6.301
   29POPC   NC3  710   6.002   8.905   8.451
   29POPC   PO4  711   5.432   9.200   8.291
   29POPC   GL1  712   5.678   9.270   7.926
   29POPC   GL2  713   5.951   9.028   7.915
   29POPC   C1A  714   5.786   9.287   7.480
   29POPC   D2A  715   5.961   9.152   7.074
   29POPC   C3A  716   5.719   9.207   6.698
   29POPC   C4A  717   5.409   9.198   6.356
   29POPC   C1B  718   5.840   8.783   7.524
   29POPC   C2B  719   6.061   8.657   7.156
   29POPC   C3B  720   5.968   8.733   6.725
   29POPC   C4B  721   5.770   8.852   6.330
   30POPC   NC3  722   5.030   8.876   8.219
   30POPC   PO4  723   4.425   8.690   7.969
   30POPC   GL1  724   4.815   8.778   7.752
   30POPC   GL2  725   4.910   9.162   7.778
   30POPC   C1A  726   4.941   8.857   7.322
   30POPC   D2A  727   4.898   9.265   7.180
   30POPC   C3A  728   4.890   9.297   6.743
   30POPC   C4A  729   4.938   8.965   6.455
   30POPC   C1B  730   5.333   9.048   7.578
   30POPC   C2B  731   5.477   8.960   7.139
   30POPC   C3B  732   5.362   8.816   6.696
   30POPC   C4B  733   5.292   8.670   6.262
   31POPC   NC3  734   5.944   9.697   8.047
   31POPC   PO4  735   5.412   0.043   8.312
   31POPC   GL1  736   5.641   0.068   7.864
   31POPC   GL2  737   5.820   9.806   7.574
   31POPC   C1A  738   5.476   0.147   7.442
   31POPC   D2A  739   5.634   0.271   7.028
   31POPC   C3A  740   5.497   0.076   6.604
   31POPC   C4A  741   5.563   9.710   6.304
   31POPC   C1B  742   6.173   9.563   7.297
   31POPC   C2B  743   6.282   9.611   6.869
   31POPC   C3B  744   6.018   9.581   6.498
   31POPC   C4B  745   5.882   9.321   6.150
   32POPC   NC3  746   7.155   2.423   8.179
   32POPC   PO4  747   7.222   3.103   8.209
   32POPC   GL1  748   7.396   2.855   7.919
   32POPC   GL2  749   7.648   3.015   7.764
   32POPC   C1A  750   7.264   2.694   7.522
   32POPC   D2A  751   7.248   2.606   7.069
   32POPC   C3A  752   7.093   2.671   6.641
   32POPC   C4A  753   7.175   2.984   6.337
   32POPC   C1B  754   7.754   2.760   7.377
   32POPC   C2B  755   7.758   2.577   6.951
   32POPC   C3B  756   7.610   2.725   6.542
   32POPC   C4B  757   7.644   2.948   6.107
   33POPC   NC3  758   8.979   9.255   8.405
   33POPC   PO4  759   9.215   8.558   8.317
   33POPC   GL1  760   9.033   8.765   7.933
   33POPC   GL2  761   8.703   8.788   8.053
   33POPC   C1A  762   9.088   8.866   7.445
   33POPC   D2A  763   9.175   8.740   7.004
   33POPC   C3A  764   9.153   8.999   6.650
   33POPC   C4A  765   8.957   8.987   6.278
   33POPC   C1B  766   8.589   8.856   7.607
   33POPC   C2B  767   8.678   8.866   7.134
   33POPC   C3B  768   8.700   8.758   6.673
   33POPC   C4B  769   8.472   8.707   6.251
   34POPC   NC3  770   5.069   0.349   8.182
   34POPC   PO4  771   4.670   0.856   7.975
   34POPC   GL1  772   4.915   0.559   7.729
   34POPC   GL2  773   4.802   0.203   7.685
   34POPC   C1A  774   5.106   0.485   7.315
   34POPC   D2A  775   5.301   0.639   6.925
   34POPC   C3A  776   5.153   0.551   6.499
   34POPC   C4A  777   5.082   0.539   6.030
   34POPC   C1B  778   4.726   0.148   7.217
   34POPC   C2B  779   5.012   0.196   6.823
   34POPC   C3B  780   5.035   0.084   6.331
   34POPC   C4B  781   4.840   0.118   5.867
   35POPC   NC3  782   0.327   6.747   8.281
   35POPC   PO4  783   0.878   6.624   8.126
   35POPC   GL1  784   0.771   6.497   7.737
   35POPC   GL2  785   0.467   6.565   7.815
   35POPC   C1A  786   0.723   6.661   7.327
   35POPC   D2A  787   0.773   6.943   6.975
   35POPC   C3A  788   0.806   6.691   6.615
   35POPC   C4A  789   0.701   6.808   6.207
   35POPC   C1B  790   0.306   6.402   7.445
   35POPC   C2B  791   0.431   6.415   6.979
   35POPC   C3B  792   0.346   6.470   6.543
   35POPC   C4B  793   0.199   6.156   6.269
   36POPC   NC3  794   7.618   8.611   7.965
   36POPC   PO4  795   7.838   9.232   8.082
   36POPC   GL1  796   7.557   9.104   7.761
   36POPC   GL2  797   7.241   9.001   7.896
   36POPC   C1A  798   7.629   9.085   7.310
   36POPC   D2A  799   7.839   9.065   6.914
   36POPC   C3A  800   7.622   9.073   6.526
   36POPC   C4A  801   7.546   9.205   6.086
   36POPC   C1B  802   7.256   8.778   7.476
   36POPC   C2B  803   7.317   8.728   7.040
   36POPC   C3B  804   7.056   8.702   6.667
   36POPC   C4B  805   7.204   8.878   6.299
   37POPC   NC3  806   1.954   8.730   8.207
   37POPC   PO4  807   2.263   8.238   7.879
   37POPC   GL1  808   1.961   8.545   7.725
   37POPC   GL2  809   2.022   8.928   7.733
   37POPC   C1A  810   1.933   8.639   7.295
   37POPC   D2A  811   2.089   8.905   6.969
   37POPC   C3A  812   2.050   8.721   6.560
   37POPC   C4A  813   1.663   8.609   6.330
   37POPC   C1B  814   2.202   9.253   7.412
   37POPC   C2B  815   2.424   9.293   6.993
   37POPC   C3B  816   2.290   9.213   6.567
   37POPC   C4B  817   1.938   9.118   6.251
   38POPC   NC3  818   0.711   6.205   8.163
   38POPC   PO4  819   0.486   5.584   7.984
   38POPC   GL1  820   0.542   5.985   7.745
   38POPC   GL2  821   0.906   5.943   7.708
   38POPC   C1A  822   0.626   6.061   7.307
   38POPC   D2A  823   0.545   5.810   6.949
   38POPC   C3A  824   0.593   5.998   6.569
   38POPC   C4A  825   0.749   6.279   6.264
   38POPC   C1B  826   0.889   5.635   7.308
   38POPC   C2B  827   0.791   5.370   6.916
   38POPC   C3B  828   0.614   5.462   6.504
   38POPC   C4B  829   0.304   5.664   6.256
   39POPC   NC3  830   2.121   7.166   8.157
   39POPC   PO4  831   1.532   7.667   8.138
   39POPC   GL1  832   1.761   7.594   7.738
   39POPC   GL2  833   2.036   7.338   7.695
   39POPC   C1A  834   1.908   7.615   7.282
   39POPC   D2A  835   1.804   7.426   6.886
   39POPC   C3A  836   1.828   7.669   6.531
   39POPC   C4A  837   2.072   7.679   6.149
   39POPC   C1B  838   2.268   7.223   7.344
   39POPC   C2B  839   2.184   7.083   6.933
   39POPC   C3B  840   2.228   7.318   6.535
   39POPC   C4B  841   2.219   7.188   6.095
   40POPC   NC3  842   6.563   0.149   8.065
   40POPC   PO4  843   6.994   0.630   7.975
   40POPC   GL1  844   6.954   0.318   7.653
   40POPC   GL2  845   6.620   0.434   7.638
   40POPC   C1A  846   6.919   0.295   7.171
   40POPC   D2A  847   6.745   0.583   6.868
   40POPC   C3A  848   6.821   0.456   6.440
   40POPC   C4A  849   6.739   0.717   6.086
   40POPC   C1B  850   6.435   0.405   7.263
   40POPC   C2B  851   6.176   0.485   6.949
   40POPC   C3B  852   6.321   0.535   6.547
   40POPC   C4B  853   6.399   0.304   6.202
   41POPC   NC3  854   8.928   7.361   8.198
   41POPC   PO4  855   8.467   6.853   8.224
   41POPC   GL1  856   8.636   7.156   7.821
   41POPC   GL2  857   9.052   7.271   7.724
   41POPC   C1A  858   8.716   7.404   7.396
   41POPC   D2A  859   9.007   7.395   7.058
   41POPC   C3A  860   8.871   7.425   6.659
   41POPC   C4A  861   8.752   7.464   6.242
   41POPC   C1B  862   9.245   7.609   7.432
   41POPC   C2B  863   9.416   7.720   6.976
   41POPC   C3B  864   9.236   7.734   6.498
   41POPC   C4B  865   9.264   7.680   6.009
   42POPC   NC3  866   2.449   3.714   8.242
   42POPC   PO4  867   1.840   3.986   8.412
   42POPC   GL1  868   1.822   3.863   7.943
   42POPC   GL2  869   1.826   3.467   7.874
   42POPC   C1A  870   1.737   3.818   7.491
   42POPC   D2A  871   1.874   3.513   7.179
   42POPC   C3A  872   1.742   3.573   6.747
   42POPC   C4A  873   1.681   3.835   6.375
   42POPC   C1B  874   1.705   3.161   7.505
   42POPC   C2B  875   1.565   3.112   7.019
   42POPC   C3B  876   1.716   3.104   6.544
   42POPC   C4B  877   1.970   3.379   6.273
   43POPC   NC3  878   1.027   3.093   8.138
   43POPC   PO4  879   0.728   2.530   8.009
   43POPC   GL1  880   0.924   2.794   7.729
   43POPC   GL2  881   1.287   2.796   7.786
   43POPC   C1A  882   0.905   2.737   7.312
   43POPC   D2A  883   0.795   2.571   6.940
   43POPC   C3A  884   0.882   2.804   6.592
   43POPC   C4A  885   0.983   2.677   6.163
   43POPC   C1B  886   1.456   2.713   7.372
   43POPC   C2B  887   1.297   2.670   6.958
   43POPC   C3B  888   1.385   2.718   6.548
   43POPC   C4B  889   1.456   2.884   6.142
   44POPC   NC3  890   9.444   1.815   8.000
   44POPC   PO4  891   9.975   2.245   8.109
   44POPC   GL1  892   9.771   2.180   7.717
   44POPC   GL2  893   9.886   1.839   7.746
   44POPC   C1A  894   9.539   2.254   7.296
   44POPC   D2A  895   9.504   2.469   6.858
   44POPC   C3A  896   9.838   2.446   6.500
   44POPC   C4A  897   9.789   2.332   6.007
   44POPC   C1B  898   9.821   1.760   7.311
   44POPC   C2B  899   9.859   1.499   6.923
   44POPC   C3B  900   9.870   1.611   6.500
   44POPC   C4B  901   9.691   1.989   6.359
   45POPC   NC3  902   0.315   2.567   8.230
   45POPC   PO4  903   0.514   3.200   8.184
   45POPC   GL1  904   0.385   2.940   7.809
   45POPC   GL2  905   0.155   2.622   7.737
   45POPC   C1A  906   0.231   3.043   7.382
   45POPC   D2A  907   0.506   2.973   7.028
   45POPC   C3A  908   0.460   3.094   6.628
   45POPC   C4A  909   0.530   2.912   6.228
   45POPC   C1B  910   0.365   2.557   7.309
   45POPC   C2B  911   0.291   2.539   6.835
   45POPC   C3B  912   0.371   2.445   6.403
   45POPC   C4B  913   0.229   2.573   5.978
   46POPC   NC3  914   8.190   7.167   8.392
   46POPC   PO4  915   7.930   6.572   8.080
   46POPC   GL1  916   8.201   6.819   7.779
   46POPC   GL2  917   8.482   6.606   7.696
   46POPC   C1A  918   8.429   6.992   7.373
   46POPC   D2A  919   8.613   7.086   6.959
   46POPC   C3A  920   8.432   7.149   6.536
   46POPC   C4A  921   8.224   6.997   6.128
   46POPC   C1B  922   8.173   6.553   7.344
   46POPC   C2B  923   8.229   6.748   6.934
   46POPC   C3B  924   8.258   6.651   6.511
   46POPC   C4B  925   7.892   6.628   6.283
   47POPC   NC3  926   5.007   1.490   8.397
   47POPC   PO4  927   4.505   1.847   8.151
   47POPC   GL1  928   4.782   1.797   7.818
   47POPC   GL2  929   5.079   1.844   8.025
   47POPC   C1A  930   4.752   1.819   7.354
   47POPC   D2A  931   4.972   1.885   6.945
   47POPC   C3A  932   4.713   2.024   6.584
   47POPC   C4A  933   4.865   2.347   6.322
   47POPC   C1B  934   5.237   1.946   7.591
   47POPC   C2B  935   5.439   2.093   7.199
   47POPC   C3B  936   5.436   2.113   6.741
   47POPC   C4B  937   5.184   1.916   6.411
   48POPC   NC3  938   2.638   4.562   7.992
   48POPC   PO4  939   2.743   5.215   8.079
   48POPC   GL1  940   2.663   5.249   7.635
   48POPC   GL2  941   2.606   4.903   7.491
   48POPC   C1A  942   2.763   5.288   7.180
   48POPC   D2A  943   2.575   5.352   6.773
   48POPC   C3A  944   2.615   5.130   6.386
   48POPC   C4A  945   2.476   5.132   5.975
   48POPC   C1B  946   2.467   4.900   7.017
   48POPC   C2B  947   2.620   4.684   6.620
   48POPC   C3B  948   2.810   4.672   6.185
   48POPC   C4B  949   2.918   4.455   5.757
   49POPC   NC3  950   4.305   2.282   8.166
   49POPC   PO4  951   3.771   1.788   8.219
   49POPC   GL1  952   4.060   1.922   7.869
   49POPC   GL2  953   4.283   1.673   7.706
   49POPC   C1A  954   4.062   2.036   7.413
   49POPC   D2A  955   3.871   2.073   6.985
   49POPC   C3A  956   4.136   2.036   6.584
   49POPC   C4A  957   4.346   2.145   6.187
   49POPC   C1B  958   4.282   1.600   7.235
   49POPC   C2B  959   4.439   1.658   6.810
   49POPC   C3B  960   4.437   1.630   6.345
   49POPC   C4B  961   4.133   1.620   5.990
   50POPC   NC3  962   6.384   7.299   7.993
   50POPC   PO4  963   6.822   7.130   8.442
   50POPC   GL1  964   6.827   7.159   7.811
   50POPC   GL2  965   7.067   7.386   7.655
   50POPC   C1A  966   6.659   7.277   7.355
   50POPC   D2A  967   6.475   7.399   6.916
   50POPC   C3A  968   6.642   7.379   6.474
   50POPC   C4A  969   6.652   7.192   6.046
   50POPC   C1B  970   7.081   7.502   7.210
   50POPC   C2B  971   7.115   7.307   6.818
   50POPC   C3B  972   7.129   7.467   6.404
   50POPC   C4B  973   6.840   7.667   6.069
   51POPC   NC3  974   9.720   2.623   8.058
   51POPC   PO4  975   9.182   3.057   8.219
   51POPC   GL1  976   9.384   2.959   7.758
   51POPC   GL2  977   9.627   2.681   7.585
   51POPC   C1A  978   9.321   2.895   7.276
   51POPC   D2A  979   9.506   3.076   6.913
   51POPC   C3A  980   9.528   2.887   6.532
   51POPC   C4A  981   9.260   2.966   6.183
   51POPC   C1B  982   9.859   2.705   7.192
   51POPC   C2B  983   0.003   2.965   6.845
   51POPC   C3B  984   0.042   2.894   6.398
   51POPC   C4B  985   9.762   2.834   6.068
   52POPC   NC3  986   6.683   1.847   8.302
   52POPC   PO4  987   7.116   1.379   8.203
   52POPC   GL1  988   6.830   1.518   7.914
   52POPC   GL2  989   6.773   1.877   7.790
   52POPC   C1A  990   6.795   1.412   7.499
   52POPC   D2A  991   6.529   1.396   7.152
   52POPC   C3A  992   6.629   1.528   6.719
   52POPC   C4A  993   6.826   1.802   6.372
   52POPC   C1B  994   6.436   1.814   7.448
   52POPC   C2B  995   6.285   1.824   6.987
   52POPC   C3B  996   6.341   1.914   6.541
   52POPC   C4B  997   6.507   2.225   6.236
   53POPC   NC3  998   0.232   3.497   7.956
   53POPC   PO4  999   9.876   3.006   8.262
   53POPC   GL1 1000   9.882   3.088   7.813
   53POPC   GL2 1001   9.715   3.416   7.811
   53POPC   C1A 1002   9.747   3.195   7.365
   53POPC   D2A 1003   9.992   3.447   7.059
   53POPC   C3A 1004   9.764   3.499   6.667
   53POPC   C4A 1005   9.654   3.326   6.262
   53POPC   C1B 1006   9.728   3.735   7.447
   53POPC   C2B 1007   9.744   3.905   7.012
   53POPC   C3B 1008   9.576   4.001   6.611
   53POPC   C4B 1009   9.407   3.795   6.244
   54POPC   NC3 1010   6.993   8.771   8.454
   54POPC   PO4 1011   6.423   9.081   8.355
   54POPC   GL1 1012   6.489   9.016   7.918
   54POPC   GL2 1013   6.782   8.767   7.931
   54POPC   C1A 1014   6.322   9.088   7.467
   54POPC   D2A 1015   6.498   9.148   7.023
   54POPC   C3A 1016   6.260   9.138   6.651
   54POPC   C4A 1017   6.270   8.849   6.320
   54POPC   C1B 1018   6.860   9.073   7.567
   54POPC   C2B 1019   7.127   9.235   7.180
   54POPC   C3B 1020   7.109   9.205   6.701
   54POPC   C4B 1021   6.737   9.023   6.424
   55POPC   NC3 1022   9.640   0.332   7.810
   55POPC   PO4 1023   9.254   0.731   8.210
   55POPC   GL1 1024   9.537   0.815   7.782
   55POPC   GL2 1025   9.900   0.876   7.697
   55POPC   C1A 1026   9.452   0.761   7.311
   55POPC   D2A 1027   9.578   0.547   6.906
   55POPC   C3A 1028   9.376   0.731   6.553
   55POPC   C4A 1029   9.197   0.648   6.145
   55POPC   C1B 1030   9.930   0.592   7.300
   55POPC   C2B 1031   9.990   0.237   6.976
   55POPC   C3B 1032   9.945   0.372   6.549
   55POPC   C4B 1033   9.584   0.327   6.319
   56POPC   NC3 1034   0.100   5.815   8.068
   56POPC   PO4 1035   9.590   6.182   7.865
   56POPC   GL1 1036   9.965   6.025   7.600
   56POPC   GL2 1037   0.158   5.705   7.571
   56POPC   C1A 1038   0.118   6.021   7.158
   56POPC   D2A 1039   0.087   5.880   6.729
   56POPC   C3A 1040   9.735   6.042   6.518
   56POPC   C4A 1041   9.723   5.953   6.116
   56POPC   C1B 1042   9.834   5.606   7.277
   56POPC   C2B 1043   9.639   5.609   6.846
   56POPC   C3B 1044   9.566   5.553   6.393
   56POPC   C4B 1045   9.407   5.605   5.942
   57POPC   NC3 1046   8.153   9.564   8.137
   57POPC   PO4 1047   8.628   0.005   7.982
   57POPC   GL1 1048   8.267   9.825   7.684
   57POPC   GL2 1049   8.252   9.417   7.654
   57POPC   C1A 1050   7.920   9.956   7.355
   57POPC   D2A 1051   7.731   9.950   6.921
   57POPC   C3A 1052   7.850   9.937   6.463
   57POPC   C4A 1053   8.159   9.861   6.134
   57POPC   C1B 1054   8.009   9.455   7.247
   57POPC   C2B 1055   8.037   9.544   6.786
   57POPC   C3B 1056   7.953   9.439   6.357
   57POPC   C4B 1057   8.082   9.389   5.894
   58POPC   NC3 1058   3.775   7.530   8.127
   58POPC   PO4 1059   3.692   6.932   8.134
   58POPC   GL1 1060   3.814   7.205   7.696
   58POPC   GL2 1061   3.728   7.544   7.629
   58POPC   C1A 1062   3.874   7.386   7.195
   58POPC   D2A 1063   3.609   7.544   6.834
   58POPC   C3A 1064   3.294   7.244   6.656
   58POPC   C4A 1065   3.347   6.966   6.300
   58POPC   C1B 1066   3.413   7.638   7.309
   58POPC   C2B 1067   3.056   7.593   7.034
   58POPC   C3B 1068   3.184   7.736   6.634
   58POPC   C4B 1069   3.468   7.615   6.304
   59POPC   NC3 1070   8.833   2.207   7.858
   59POPC   PO4 1071   9.025   1.601   8.070
   59POPC   GL1 1072   9.132   1.662   7.618
   59POPC   GL2 1073   8.826   1.714   7.467
   59POPC   C1A 1074   9.340   1.631   7.195
   59POPC   D2A 1075   9.534   1.921   6.867
   59POPC   C3A 1076   9.218   1.989   6.525
   59POPC   C4A 1077   9.015   1.714   6.226
   59POPC   C1B 1078   9.042   2.071   7.249
   59POPC   C2B 1079   8.908   2.244   6.859
   59POPC   C3B 1080   8.695   1.936   6.610
   59POPC   C4B 1081   8.521   1.760   6.251
   60POPC   NC3 1082   6.709   1.121   8.248
   60POPC   PO4 1083   6.109   0.760   8.311
   60POPC   GL1 1084   6.298   0.790   7.875
   60POPC   GL2 1085   6.618   0.961   7.760
   60POPC   C1A 1086   6.205   0.828   7.414
   60POPC   D2A 1087   6.353   0.944   6.996
   60POPC   C3A 1088   6.073   0.955   6.640
   60POPC   C4A 1089   6.227   0.974   6.211
   60POPC   C1B 1090   6.766   0.901   7.318
   60POPC   C2B 1091   6.838   1.090   6.899
   60POPC   C3B 1092   6.623   1.019   6.530
   60POPC   C4B 1093   6.571   1.350   6.232
   61POPC   NC3 1094   1.055   4.061   7.895
   61POPC   PO4 1095   0.915   4.681   7.952
   61POPC   GL1 1096   0.854   4.454   7.590
   61POPC   GL2 1097   1.204   4.385   7.527
   61POPC   C1A 1098   0.853   4.446   7.105
   61POPC   D2A 1099   0.861   4.707   6.740
   61POPC   C3A 1100   0.898   4.501   6.335
   61POPC   C4A 1101   1.030   4.363   5.898
   61POPC   C1B 1102   1.222   4.102   7.176
   61POPC   C2B 1103   1.147   4.205   6.717
   61POPC   C3B 1104   1.354   4.248   6.301
   61POPC   C4B 1105   1.371   3.971   5.967
   62POPC   NC3 1106   7.630   3.303   8.204
   62POPC   PO4 1107   7.178   3.776   8.025
   62POPC   GL1 1108   7.430   3.499   7.767
   62POPC   GL2 1109   7.189   3.263   7.680
   62POPC   C1A 1110   7.609   3.297   7.379
   62POPC   D2A 1111   7.507   3.054   6.979
   62POPC   C3A 1112   7.600   3.234   6.536
   62POPC   C4A 1113   7.844   3.420   6.157
   62POPC   C1B 1114   7.151   3.457   7.266
   62POPC   C2B 1115   7.250   3.490   6.823
   62POPC   C3B 1116   7.023   3.473   6.423
   62POPC   C4B 1117   6.987   3.649   6.004
   63POPC   NC3 1118   1.919   2.867   8.212
   63POPC   PO4 1119   2.494   3.245   8.264
   63POPC   GL1 1120   2.293   3.054   7.843
   63POPC   GL2 1121   2.140   2.722   7.758
   63POPC   C1A 1122   2.172   3.047   7.354
   63POPC   D2A 1123   2.066   3.132   6.906
   63POPC   C3A 1124   2.232   2.956   6.516
   63POPC   C4A 1125   2.135   2.916   6.067
   63POPC   C1B 1126   1.979   2.572   7.334
   63POPC   C2B 1127   1.837   2.664   6.882
   63POPC   C3B 1128   1.871   2.610   6.418
   63POPC   C4B 1129   1.816   2.525   5.972
   64POPC   NC3 1130   8.081   7.827   7.942
   64POPC   PO4 1131   8.271   8.400   8.289
   64POPC   GL1 1132   8.397   8.430   7.827
   64POPC   GL2 1133   8.358   8.107   7.639
   64POPC   C1A 1134   8.382   8.473   7.326
   64POPC   D2A 1135   8.419   8.141   7.007
   64POPC   C3A 1136   8.429   8.328   6.631
   64POPC   C4A 1137   8.428   8.200   6.235
   64POPC   C1B 1138   8.004   8.095   7.302
   64POPC   C2B 1139   7.976   7.841   6.889
   64POPC   C3B 1140   7.859   7.974   6.461
   64POPC   C4B 1141   8.054   7.948   6.047
   65POPC   NC3 1142   4.236   9.797   8.194
   65POPC   PO4 1143   4.747   9.297   8.279
   65POPC   GL1 1144   4.471   9.453   7.893
   65POPC   GL2 1145   4.423   9.831   7.735
   65POPC   C1A 1146   4.459   9.368   7.459
   65POPC   D2A 1147   4.471   9.632   7.080
   65POPC   C3A 1148   4.389   9.425   6.659
   65POPC   C4A 1149   4.619   9.331   6.276
   65POPC   C1B 1150   4.066   9.703   7.489
   65POPC   C2B 1151   3.956   9.829   7.058
   65POPC   C3B 1152   4.135   9.889   6.609
   65POPC   C4B 1153   3.998   9.860   6.140
   66POPC   NC3 1154   2.063   1.218   8.111
   66POPC   PO4 1155   1.552   0.820   8.134
   66POPC   GL1 1156   1.746   0.957   7.764
   66POPC   GL2 1157   2.110   0.951   7.656
   66POPC   C1A 1158   1.658   1.166   7.389
   66POPC   D2A 1159   1.748   1.027   6.990
   66POPC   C3A 1160   1.718   1.204   6.569
   66POPC   C4A 1161   1.966   1.094   6.215
   66POPC   C1B 1162   2.167   1.204   7.277
   66POPC   C2B 1163   2.129   1.353   6.849
   66POPC   C3B 1164   2.028   1.621   6.480
   66POPC   C4B 1165   1.949   1.624   6.024
   67POPC   NC3 1166   7.384   4.193   8.011
   67POPC   PO4 1167   7.635   4.756   7.938
   67POPC   GL1 1168   7.764   4.386   7.644
   67POPC   GL2 1169   7.794   3.994   7.715
   67POPC   C1A 1170   7.823   4.223   7.211
   67POPC   D2A 1171   7.695   3.976   6.833
   67POPC   C3A 1172   7.606   4.202   6.465
   67POPC   C4A 1173   7.538   4.553   6.233
   67POPC   C1B 1174   7.518   3.829   7.360
   67POPC   C2B 1175   7.205   3.959   7.040
   67POPC   C3B 1176   7.178   3.956   6.591
   67POPC   C4B 1177   7.490   3.705   6.390
   68POPC   NC3 1178   2.088   5.384   8.142
   68POPC   PO4 1179   2.278   4.759   8.220
   68POPC   GL1 1180   2.228   5.016   7.822
   68POPC   GL2 1181   1.891   5.096   7.741
   68POPC   C1A 1182   2.224   5.214   7.366
   68POPC   D2A 1183   2.130   5.421   6.970
   68POPC   C3A 1184   2.128   5.096   6.619
   68POPC   C4A 1185   2.243   4.790   6.282
   68POPC   C1B 1186   1.700   4.993   7.332
   68POPC   C2B 1187   1.669   5.217   6.923
   68POPC   C3B 1188   1.609   5.091   6.490
   68POPC   C4B 1189   1.748   4.756   6.202
   69POPC   NC3 1190   7.953   2.758   8.046
   69POPC   PO4 1191   8.489   2.445   8.028
   69POPC   GL1 1192   8.389   2.733   7.719
   69POPC   GL2 1193   8.175   3.017   7.666
   69POPC   C1A 1194   8.264   2.654   7.293
   69POPC   D2A 1195   8.394   2.447   6.908
   69POPC   C3A 1196   8.124   2.558   6.569
   69POPC   C4A 1197   7.894   2.534   6.173
   69POPC   C1B 1198   8.084   3.145   7.257
   69POPC   C2B 1199   7.998   3.041   6.821
   69POPC   C3B 1200   8.095   3.040   6.392
   69POPC   C4B 1201   8.352   2.772   6.144
   70POPC   NC3 1202   1.143   7.320   8.206
   70POPC   PO4 1203   1.702   6.804   8.193
   70POPC   GL1 1204   1.597   7.119   7.785
   70POPC   GL2 1205   1.288   7.369   7.732
   70POPC   C1A 1206   1.514   7.288   7.307
   70POPC   D2A 1207   1.262   7.183   6.937
   70POPC   C3A 1208   1.433   7.271   6.532
   70POPC   C4A 1209   1.730   7.297   6.202
   70POPC   C1B 1210   1.014   7.494   7.344
   70POPC   C2B 1211   0.888   7.496   6.903
   70POPC   C3B 1212   0.887   7.220   6.507
   70POPC   C4B 1213   0.930   7.250   6.022
   71POPC   NC3 1214   0.652   9.664   8.217
   71POPC   PO4 1215   1.244   9.265   8.156
   71POPC   GL1 1216   1.291   9.411   7.731
   71POPC   GL2 1217   1.001   9.628   7.767
   71POPC   C1A 1218   1.246   9.331   7.268
   71POPC   D2A 1219   0.950   9.093   6.969
   71POPC   C3A 1220   0.951   9.234   6.512
   71POPC   C4A 1221   0.916   9.343   6.052
   71POPC   C1B 1222   1.274   9.845   7.461
   71POPC   C2B 1223   1.362   9.914   7.019
   71POPC   C3B 1224   1.135   9.872   6.630
   71POPC   C4B 1225   0.888   9.824   6.270
   72POPC   NC3 1226   6.737   6.807   8.141
   72POPC   PO4 1227   6.220   6.944   7.744
   72POPC   GL1 1228   6.591   6.797   7.531
   72POPC   GL2 1229   6.858   6.613   7.682
   72POPC   C1A 1230   6.599   6.829   7.084
   72POPC   D2A 1231   6.773   6.949   6.711
   72POPC   C3A 1232   6.564   6.780   6.342
   72POPC   C4A 1233   6.431   6.748   5.891
   72POPC   C1B 1234   6.931   6.468   7.236
   72POPC   C2B 1235   6.790   6.404   6.770
   72POPC   C3B 1236   6.803   6.194   6.312
   72POPC   C4B 1237   6.731   6.066   5.845
   73POPC   NC3 1238   7.564   6.317   7.945
   73POPC   PO4 1239   7.179   6.859   8.014
   73POPC   GL1 1240   7.274   6.899   7.627
   73POPC   GL2 1241   7.619   6.783   7.666
   73POPC   C1A 1242   7.073   6.962   7.222
   73POPC   D2A 1243   7.216   6.712   6.866
   73POPC   C3A 1244   7.060   6.645   6.420
   73POPC   C4A 1245   6.915   6.584   6.005
   73POPC   C1B 1246   7.645   6.724   7.238
   73POPC   C2B 1247   7.746   6.639   6.799
   73POPC   C3B 1248   7.500   6.422   6.518
   73POPC   C4B 1249   7.452   6.059   6.276
   74POPC   NC3 1250   6.197   2.681   8.083
   74POPC   PO4 1251   6.702   2.288   8.160
   74POPC   GL1 1252   6.802   2.540   7.792
   74POPC   GL2 1253   6.885   2.885   7.825
   74POPC   C1A 1254   6.536   2.613   7.431
   74POPC   D2A 1255   6.436   2.295   7.113
   74POPC   C3A 1256   6.355   2.410   6.682
   74POPC   C4A 1257   6.130   2.549   6.269
   74POPC   C1B 1258   6.886   2.972   7.329
   74POPC   C2B 1259   6.667   2.767   6.936
   74POPC   C3B 1260   6.543   2.835   6.469
   74POPC   C4B 1261   6.382   2.915   6.030
   75POPC   NC3 1262   3.570   0.543   8.162
   75POPC   PO4 1263   3.917   1.095   8.169
   75POPC   GL1 1264   4.014   0.765   7.809
   75POPC   GL2 1265   3.741   0.535   7.692
   75POPC   C1A 1266   3.999   0.758   7.330
   75POPC   D2A 1267   3.579   0.781   7.089
   75POPC   C3A 1268   3.543   0.591   6.679
   75POPC   C4A 1269   3.693   0.689   6.254
   75POPC   C1B 1270   3.355   0.477   7.467
   75POPC   C2B 1271   3.177   0.405   7.061
   75POPC   C3B 1272   3.158   0.238   6.648
   75POPC   C4B 1273   3.164   0.509   6.275
   76POPC   NC3 1274   2.487   2.044   8.243
   76POPC   PO4 1275   3.018   2.433   8.350
   76POPC   GL1 1276   3.066   2.338   7.881
   76POPC   GL2 1277   2.855   2.025   7.864
   76POPC   C1A 1278   3.005   2.194   7.406
   76POPC   D2A 1279   2.697   2.087   7.054
   76POPC   C3A 1280   2.859   2.082   6.639
   76POPC   C4A 1281   2.759   2.243   6.236
   76POPC   C1B 1282   2.676   1.807   7.489
   76POPC   C2B 1283   2.492   1.613   7.111
   76POPC   C3B 1284   2.533   1.624   6.638
   76POPC   C4B 1285   2.821   1.706   6.280
   77POPC   NC3 1286   1.398   4.697   7.919
   77POPC   PO4 1287   1.485   5.269   7.993
   77POPC   GL1 1288   1.121   5.107   7.763
   77POPC   GL2 1289   1.014   5.432   7.748
   77POPC   C1A 1290   1.063   4.855   7.347
   77POPC   D2A 1291   1.337   4.598   7.043
   77POPC   C3A 1292   1.349   4.672   6.585
   77POPC   C4A 1293   1.255   4.857   6.166
   77POPC   C1B 1294   1.281   5.306   7.335
   77POPC   C2B 1295   1.194   5.079   6.909
   77POPC   C3B 1296   1.108   5.244   6.494
   77POPC   C4B 1297   1.361   5.378   6.127
   78POPC   NC3 1298   8.044   0.898   8.208
   78POPC   PO4 1299   8.045   1.544   8.265
   78POPC   GL1 1300   8.213   1.240   7.872
   78POPC   GL2 1301   8.484   1.418   7.729
   78POPC   C1A 1302   8.107   1.058   7.405
   78POPC   D2A 1303   8.288   1.093   6.951
   78POPC   C3A 1304   8.156   0.873   6.546
   78POPC   C4A 1305   7.900   0.949   6.143
   78POPC   C1B 1306   8.272   1.535   7.333
   78POPC   C2B 1307   7.899   1.432   7.042
   78POPC   C3B 1308   7.887   1.318   6.589
   78POPC   C4B 1309   8.213   1.341   6.238
   79POPC   NC3 1310   1.930   0.566   8.066
   79POPC   PO4 1311   1.933   9.911   8.089
   79POPC   GL1 1312   1.648   0.052   7.751
   79POPC   GL2 1313   1.591   0.437   7.699
   79POPC   C1A 1314   1.750   0.123   7.311
   79POPC   D2A 1315   2.157   0.227   7.061
   79POPC   C3A 1316   2.206   0.218   6.599
   79POPC   C4A 1317   2.053   0.189   6.182
   79POPC   C1B 1318   1.855   0.648   7.342
   79POPC   C2B 1319   2.178   0.767   6.985
   79POPC   C3B 1320   2.065   0.730   6.555
   79POPC   C4B 1321   1.728   0.574   6.276
   80POPC   NC3 1322   5.159   9.589   8.356
   80POPC   PO4 1323   4.641   0.068   8.197
   80POPC   GL1 1324   4.868   9.762   7.971
   80POPC   GL2 1325   5.161   9.893   7.896
   80POPC   C1A 1326   4.863   9.687   7.503
   80POPC   D2A 1327   4.993   9.745   7.054
   80POPC   C3A 1328   4.738   9.795   6.662
   80POPC   C4A 1329   4.552   9.852   6.245
   80POPC   C1B 1330   5.351   9.570   7.642
   80POPC   C2B 1331   5.398   9.460   7.188
   80POPC   C3B 1332   5.332   9.557   6.728
   80POPC   C4B 1333   5.069   9.572   6.328
   81POPC   NC3 1334   1.032   8.839   8.146
   81POPC   PO4 1335   1.566   8.395   8.134
   81POPC   GL1 1336   1.526   8.839   7.883
   81POPC   GL2 1337   1.200   8.914   7.680
   81POPC   C1A 1338   1.620   9.026   7.446
   81POPC   D2A 1339   1.367   8.783   7.118
   81POPC   C3A 1340   1.275   8.796   6.650
   81POPC   C4A 1341   1.370   9.031   6.231
   81POPC   C1B 1342   1.011   8.582   7.434
   81POPC   C2B 1343   0.872   8.535   7.016
   81POPC   C3B 1344   0.739   8.735   6.645
   81POPC   C4B 1345   0.942   8.740   6.257
   82POPC   NC3 1346   9.516   8.911   8.226
   82POPC   PO4 1347   9.957   8.444   8.168
   82POPC   GL1 1348   9.824   8.669   7.819
   82POPC   GL2 1349   9.494   8.555   7.845
   82POPC   C1A 1350   9.997   8.825   7.397
   82POPC   D2A 1351   9.992   9.165   7.048
   82POPC   C3A 1352   9.838   8.996   6.629
   82POPC   C4A 1353   9.844   8.737   6.178
   82POPC   C1B 1354   9.521   8.595   7.395
   82POPC   C2B 1355   9.675   8.650   6.979
   82POPC   C3B 1356   9.484   8.648   6.529
   82POPC   C4B 1357   9.472   9.077   6.250
   83POPC   NC3 1358   2.514   5.611   7.975
   83POPC   PO4 1359   1.944   5.714   8.414
   83POPC   GL1 1360   1.820   5.714   7.863
   83POPC   GL2 1361   2.113   5.589   7.672
   83POPC   C1A 1362   1.876   5.972   7.451
   83POPC   D2A 1363   2.146   6.089   7.083
   83POPC   C3A 1364   2.123   5.926   6.669
   83POPC   C4A 1365   1.799   6.006   6.381
   83POPC   C1B 1366   1.779   5.499   7.358
   83POPC   C2B 1367   1.735   5.745   6.953
   83POPC   C3B 1368   1.848   5.533   6.539
   83POPC   C4B 1369   2.290   5.513   6.364
   84POPC   NC3 1370   7.549   5.205   7.935
   84POPC   PO4 1371   7.577   5.861   7.869
   84POPC   GL1 1372   7.813   5.454   7.559
   84POPC   GL2 1373   7.856   5.040   7.570
   84POPC   C1A 1374   7.762   5.231   7.093
   84POPC   D2A 1375   7.807   5.344   6.606
   84POPC   C3A 1376   7.417   5.471   6.344
   84POPC   C4A 1377   7.281   5.296   5.924
   84POPC   C1B 1378   7.667   4.729   7.269
   84POPC   C2B 1379   7.636   4.552   6.855
   84POPC   C3B 1380   7.560   4.905   6.615
   84POPC   C4B 1381   7.662   5.067   6.181
   85POPC   NC3 1382   1.279   6.653   8.326
   85POPC   PO4 1383   0.759   7.078   8.374
   85POPC   GL1 1384   0.887   7.044   7.856
   85POPC   GL2 1385   1.207   6.833   7.840
   85POPC   C1A 1386   1.099   6.990   7.393
   85POPC   D2A 1387   1.232   6.674   7.061
   85POPC   C3A 1388   1.309   6.763   6.607
   85POPC   C4A 1389   1.161   6.585   6.205
   85POPC   C1B 1390   1.493   6.616   7.542
   85POPC   C2B 1391   1.576   6.308   7.199
   85POPC   C3B 1392   1.625   6.340   6.764
   85POPC   C4B 1393   1.648   6.485   6.331
   86POPC   NC3 1394   0.302   8.728   8.040
   86POPC   PO4 1395   0.297   9.348   8.110
   86POPC   GL1 1396   0.712   9.197   7.906
   86POPC   GL2 1397   0.693   8.853   7.740
   86POPC   C1A 1398   0.784   9.269   7.455
   86POPC   D2A 1399   0.501   9.327   7.082
   86POPC   C3A 1400   0.441   9.168   6.669
   86POPC   C4A 1401   0.548   9.054   6.243
   86POPC   C1B 1402   0.543   8.842   7.293
   86POPC   C2B 1403   0.260   8.752   6.937
   86POPC   C3B 1404   0.254   8.722   6.484
   86POPC   C4B 1405   0.421   8.566   6.115
   87POPC   NC3 1406   0.465   7.425   8.291
   87POPC   PO4 1407   9.944   7.020   8.280
   87POPC   GL1 1408   0.161   7.140   7.897
   87POPC   GL2 1409   0.048   7.490   7.832
   87POPC   C1A 1410   0.224   6.903   7.468
   87POPC   D2A 1411   0.138   6.855   6.996
   87POPC   C3A 1412   0.370   7.001   6.601
   87POPC   C4A 1413   0.419   7.251   6.221
   87POPC   C1B 1414   0.320   7.394   7.455
   87POPC   C2B 1415   0.407   7.329   7.001
   87POPC   C3B 1416   0.500   7.568   6.605
   87POPC   C4B 1417   0.796   7.704   6.291
   88POPC   NC3 1418   8.216   0.276   7.978
   88POPC   PO4 1419   7.661   0.625   8.172
   88POPC   GL1 1420   7.916   0.679   7.768
   88POPC   GL2 1421   8.276   0.645   7.628
   88POPC   C1A 1422   7.849   0.519   7.368
   88POPC   D2A 1423   8.084   0.566   6.981
   88POPC   C3A 1424   7.913   0.413   6.615
   88POPC   C4A 1425   7.693   0.489   6.231
   88POPC   C1B 1426   8.313   0.288   7.345
   88POPC   C2B 1427   8.247   0.039   6.957
   88POPC   C3B 1428   8.350   0.112   6.530
   88POPC   C4B 1429   8.212   0.401   6.199
   89POPC   NC3 1430   5.054   1.025   8.134
   89POPC   PO4 1431   5.457   1.553   8.234
   89POPC   GL1 1432   5.386   1.503   7.779
   89POPC   GL2 1433   5.084   1.374   7.778
   89POPC   C1A 1434   5.182   1.515   7.310
   89POPC   D2A 1435   4.818   1.406   7.030
   89POPC   C3A 1436   4.898   1.509   6.591
   89POPC   C4A 1437   5.321   1.406   6.434
   89POPC   C1B 1438   5.094   1.012   7.485
   89POPC   C2B 1439   4.890   0.906   7.115
   89POPC   C3B 1440   5.046   1.038   6.724
   89POPC   C4B 1441   5.046   0.995   6.291
   90POPC   NC3 1442   5.325   7.920   8.189
   90POPC   PO4 1443   4.859   8.416   8.272
   90POPC   GL1 1444   4.765   8.264   7.850
   90POPC   GL2 1445   5.115   8.226   7.818
   90POPC   C1A 1446   4.858   8.361   7.408
   90POPC   D2A 1447   5.095   8.367   7.016
   90POPC   C3A 1448   4.830   8.500   6.680
   90POPC   C4A 1449   4.698   8.317   6.301
   90POPC   C1B 1450   5.243   8.000   7.450
   90POPC   C2B 1451   5.105   7.835   7.063
   90POPC   C3B 1452   4.947   7.974   6.693
   90POPC   C4B 1453   5.201   8.213   6.464
   91POPC   NC3 1454   9.683   7.429   8.311
   91POPC   PO4 1455   9.246   7.035   8.145
   91POPC   GL1 1456   9.564   7.213   7.867
   91POPC   GL2 1457   9.518   7.555   7.846
   91POPC   C1A 1458   9.767   7.195   7.454
   91POPC   D2A 1459   9.620   6.942   7.085
   91POPC   C3A 1460   9.657   7.065   6.663
   91POPC   C4A 1461   9.920   7.086   6.281
   91POPC   C1B 1462   9.746   7.728   7.462
   91POPC   C2B 1463   9.964   7.585   7.092
   91POPC   C3B 1464   0.007   7.431   6.659
   91POPC   C4B 1465   9.700   7.549   6.320
   92POPC   NC3 1466   7.911   1.823   7.919
   92POPC   PO4 1467   7.637   2.417   8.000
   92POPC   GL1 1468   7.995   2.389   7.666
   92POPC   GL2 1469   8.365   2.224   7.585
   92POPC   C1A 1470   8.005   2.221   7.237
   92POPC   D2A 1471   7.855   1.973   6.917
   92POPC   C3A 1472   7.749   2.199   6.549
   92POPC   C4A 1473   7.690   1.987   6.179
   92POPC   C1B 1474   8.492   1.998   7.172
   92POPC   C2B 1475   8.298   1.701   6.843
   92POPC   C3B 1476   8.066   1.788   6.470
   92POPC   C4B 1477   8.200   2.151   6.234
   93POPC   NC3 1478   1.236   8.036   8.158
   93POPC   PO4 1479   0.687   8.490   8.132
   93POPC   GL1 1480   0.895   8.204   7.769
   93POPC   GL2 1481   1.041   7.842   7.735
   93POPC   C1A 1482   0.933   8.076   7.297
   93POPC   D2A 1483   0.871   8.004   6.843
   93POPC   C3A 1484   1.018   8.302   6.562
   93POPC   C4A 1485   1.300   8.257   6.253
   93POPC   C1B 1486   1.400   7.813   7.421
   93POPC   C2B 1487   1.371   7.721   6.957
   93POPC   C3B 1488   1.291   7.777   6.492
   93POPC   C4B 1489   1.590   7.857   6.127
   94POPC   NC3 1490   0.795   2.122   8.201
   94POPC   PO4 1491   1.382   1.799   8.252
   94POPC   GL1 1492   1.131   1.902   7.869
   94POPC   GL2 1493   1.158   2.278   7.849
   94POPC   C1A 1494   1.001   1.791   7.411
   94POPC   D2A 1495   0.903   1.703   6.941
   94POPC   C3A 1496   1.141   1.824   6.541
   94POPC   C4A 1497   1.033   1.995   6.101
   94POPC   C1B 1498   1.139   2.296   7.397
   94POPC   C2B 1499   1.117   2.174   6.952
   94POPC   C3B 1500   1.064   2.320   6.526
   94POPC   C4B 1501   1.394   2.349   6.190
   95POPC   NC3 1502   8.313   3.846   8.136
   95POPC   PO4 1503   8.077   3.204   8.130
   95POPC   GL1 1504   7.973   3.485   7.794
   95POPC   GL2 1505   8.328   3.532   7.736
   95POPC   C1A 1506   7.999   3.649   7.356
   95POPC   D2A 1507   7.794   3.502   6.973
   95POPC   C3A 1508   7.997   3.543   6.633
   95POPC   C4A 1509   8.015   3.860   6.400
   95POPC   C1B 1510   8.524   3.544   7.353
   95POPC   C2B 1511   8.360   3.472   6.982
   95POPC   C3B 1512   8.477   3.341   6.606
   95POPC   C4B 1513   8.342   3.505   6.240
   96POPC   NC3 1514   8.208   8.862   8.190
   96POPC   PO4 1515   7.901   8.255   7.925
   96POPC   GL1 1516   7.962   8.571   7.598
   96POPC   GL2 1517   8.033   8.900   7.717
   96POPC   C1A 1518   7.813   8.588   7.183
   96POPC   D2A 1519   7.948   8.341   6.835
   96POPC   C3A 1520   7.968   8.517   6.427
   96POPC   C4A 1521   7.644   8.691   6.152
   96POPC   C1B 1522   8.175   8.952   7.305
   96POPC   C2B 1523   8.240   8.757   6.902
   96POPC   C3B 1524   8.235   9.037   6.561
   96POPC   C4B 1525   8.044   8.979   6.187
   97POPC   NC3 1526   3.403   8.264   8.226
   97POPC   PO4 1527   3.354   7.621   7.966
   97POPC   GL1 1528   3.672   7.981   7.874
   97POPC   GL2 1529   3.587   8.326   7.764
   97POPC   C1A 1530   3.879   7.993   7.464
   97POPC   D2A 1531   3.705   7.983   7.061
   97POPC   C3A 1532   3.866   7.999   6.643
   97POPC   C4A 1533   3.692   8.057   6.220
   97POPC   C1B 1534   3.380   8.129   7.439
   97POPC   C2B 1535   3.225   8.093   6.999
   97POPC   C3B 1536   3.362   8.220   6.588
   97POPC   C4B 1537   3.262   8.315   6.162
   98POPC   NC3 1538   2.295   9.635   8.083
   98POPC   PO4 1539   2.930   9.941   8.154
   98POPC   GL1 1540   2.948   9.579   7.831
   98POPC   GL2 1541   2.606   9.503   7.697
   98POPC   C1A 1542   3.070   9.619   7.384
   98POPC   D2A 1543   2.820   9.644   6.986
   98POPC   C3A 1544   2.803   9.804   6.550
   98POPC   C4A 1545   2.467   9.872   6.241
   98POPC   C1B 1546   2.747   9.214   7.385
   98POPC   C2B 1547   2.930   9.139   6.966
   98POPC   C3B 1548   2.834   9.304   6.564
   98POPC   C4B 1549   2.587   9.367   6.166
   99POPC   NC3 1550   3.257   9.602   8.254
   99POPC   PO4 1551   3.932   9.378   8.188
   99POPC   GL1 1552   3.784   9.747   7.934
   99POPC   GL2 1553   3.476   9.616   7.797
   99POPC   C1A 1554   3.631   0.010   7.540
   99POPC   D2A 1555   3.423   9.953   7.113
   99POPC   C3A 1556   3.643   0.067   6.711
   99POPC   C4A 1557   3.569   0.190   6.275
   99POPC   C1B 1558   3.593   9.506   7.369
   99POPC   C2B 1559   3.347   9.461   6.975
   99POPC   C3B 1560   3.289   9.677   6.592
   99POPC   C4B 1561   3.499   9.690   6.200
  100POPC   NC3 1562   8.895   4.409   8.118
  100POPC   PO4 1563   9.469   4.511   8.425
  100POPC   GL1 1564   9.341   4.240   7.938
  100POPC   GL2 1565   9.009   4.231   7.673
  100POPC   C1A 1566   9.427   4.206   7.421
  100POPC   D2A 1567   9.225   4.057   7.016
  100POPC   C3A 1568   9.142   4.267   6.614
  100POPC   C4A 1569   9.218   4.280   6.146
  100POPC   C1B 1570   8.772   4.004   7.330
  100POPC   C2B 1571   8.727   3.822   6.920
  100POPC   C3B 1572   8.504   3.972   6.561
  100POPC   C4B 1573   8.729   4.277   6.309
  101POPC   NC3 1574   7.568   1.516   8.257
  101POPC   PO4 1575   7.131   1.990   8.362
  101POPC   GL1 1576   7.269   1.847   7.923
  101POPC   GL2 1577   7.235   2.179   7.736
  101POPC   C1A 1578   7.201   1.763   7.425
  101POPC   D2A 1579   7.098   1.676   6.937
  101POPC   C3A 1580   7.412   1.702   6.548
  101POPC   C4A 1581   7.287   1.661   6.087
  101POPC   C1B 1582   7.486   2.232   7.337
  101POPC   C2B 1583   7.365   2.134   6.888
  101POPC   C3B 1584   7.234   2.175   6.441
  101POPC   C4B 1585   7.311   2.503   6.164
  102POPC   NC3 1586   1.137   0.620   8.139
  102POPC   PO4 1587   0.940   0.030   8.095
  102POPC   GL1 1588   1.093   0.266   7.745
  102POPC   GL2 1589   0.902   0.570   7.685
  102POPC   C1A 1590   1.218   0.339   7.306
  102POPC   D2A 1591   1.069   0.343   6.870
  102POPC   C3A 1592   1.321   0.333   6.491
  102POPC   C4A 1593   1.317   0.068   6.144
  102POPC   C1B 1594   0.804   0.861   7.355
  102POPC   C2B 1595   0.739   0.720   6.932
  102POPC   C3B 1596   0.953   0.786   6.588
  102POPC   C4B 1597   0.878   0.825   6.177
  103POPC   NC3 1598   1.791   2.059   8.259
  103POPC   PO4 1599   2.285   1.621   8.175
  103POPC   GL1 1600   2.293   1.926   7.793
  103POPC   GL2 1601   2.054   2.197   7.791
  103POPC   C1A 1602   2.240   2.068   7.334
  103POPC   D2A 1603   2.030   2.073   6.918
  103POPC   C3A 1604   2.320   2.087   6.580
  103POPC   C4A 1605   2.366   1.898   6.185
  103POPC   C1B 1606   1.648   2.262   7.581
  103POPC   C2B 1607   1.588   2.274   7.124
  103POPC   C3B 1608   1.585   2.238   6.661
  103POPC   C4B 1609   1.880   2.109   6.302
  104POPC   NC3 1610   7.768   8.037   8.315
  104POPC   PO4 1611   7.199   8.478   8.171
  104POPC   GL1 1612   7.334   8.145   7.842
  104POPC   GL2 1613   7.519   8.320   7.562
  104POPC   C1A 1614   7.366   7.863   7.444
  104POPC   D2A 1615   7.540   8.080   7.055
  104POPC   C3A 1616   7.347   7.917   6.627
  104POPC   C4A 1617   7.300   7.875   6.183
  104POPC   C1B 1618   7.108   8.293   7.367
  104POPC   C2B 1619   7.091   8.260   6.922
  104POPC   C3B 1620   7.462   8.405   6.641
  104POPC   C4B 1621   7.222   8.366   6.294
  105POPC   NC3 1622   3.025   7.286   8.080
  105POPC   PO4 1623   3.070   7.946   8.277
  105POPC   GL1 1624   2.886   7.702   7.803
  105POPC   GL2 1625   3.043   7.439   7.587
  105POPC   C1A 1626   2.592   7.601   7.417
  105POPC   D2A 1627   2.411   7.567   6.982
  105POPC   C3A 1628   2.705   7.587   6.627
  105POPC   C4A 1629   2.585   7.537   6.201
  105POPC   C1B 1630   2.797   7.159   7.290
  105POPC   C2B 1631   2.680   7.141   6.862
  105POPC   C3B 1632   2.837   7.136   6.431
  105POPC   C4B 1633   3.066   7.367   6.120
  106POPC   NC3 1634   3.142   5.426   8.014
  106POPC   PO4 1635   2.838   5.924   8.018
  106POPC   GL1 1636   2.639   5.913   7.609
  106POPC   GL2 1637   2.367   6.105   7.577
  106POPC   C1A 1638   2.476   5.717   7.226
  106POPC   D2A 1639   2.599   5.865   6.794
  106POPC   C3A 1640   2.844   5.641   6.452
  106POPC   C4A 1641   2.916   5.397   6.084
  106POPC   C1B 1642   2.617   6.240   7.220
  106POPC   C2B 1643   2.869   6.301   6.851
  106POPC   C3B 1644   2.601   6.313   6.508
  106POPC   C4B 1645   2.478   5.990   6.282
  107POPC   NC3 1646   0.505   4.519   8.093
  107POPC   PO4 1647   0.239   3.922   8.181
  107POPC   GL1 1648   0.527   4.076   7.832
  107POPC   GL2 1649   0.336   4.291   7.664
  107POPC   C1A 1650   0.691   4.039   7.367
  107POPC   D2A 1651   0.794   3.914   6.970
  107POPC   C3A 1652   0.626   4.124   6.629
  107POPC   C4A 1653   0.425   4.005   6.258
  107POPC   C1B 1654   0.379   4.451   7.273
  107POPC   C2B 1655   0.396   4.511   6.848
  107POPC   C3B 1656   0.370   4.590   6.430
  107POPC   C4B 1657   0.043   4.565   6.127
  108POPC   NC3 1658   7.136   7.306   8.167
  108POPC   PO4 1659   7.753   7.549   8.200
  108POPC   GL1 1660   7.658   7.611   7.777
  108POPC   GL2 1661   7.567   7.308   7.734
  108POPC   C1A 1662   7.808   7.613   7.335
  108POPC   D2A 1663   7.533   7.590   6.959
  108POPC   C3A 1664   7.647   7.495   6.510
  108POPC   C4A 1665   7.714   7.584   6.045
  108POPC   C1B 1666   7.482   7.230   7.320
  108POPC   C2B 1667   7.569   7.099   6.912
  108POPC   C3B 1668   7.405   7.010   6.505
  108POPC   C4B 1669   7.141   7.048   6.126
  109POPC   NC3 1670   6.577   9.607   8.316
  109POPC   PO4 1671   6.267   9.906   7.812
  109POPC   GL1 1672   6.626   9.900   7.613
  109POPC   GL2 1673   6.704   9.585   7.798
  109POPC   C1A 1674   6.569   9.930   7.168
  109POPC   D2A 1675   6.533   0.126   6.789
  109POPC   C3A 1676   6.436   9.867   6.446
  109POPC   C4A 1677   6.326   9.823   5.999
  109POPC   C1B 1678   6.689   9.481   7.339
  109POPC   C2B 1679   6.821   9.588   6.883
  109POPC   C3B 1680   6.803   9.519   6.408
  109POPC   C4B 1681   6.399   9.377   6.230
  110POPC   NC3 1682   3.867   2.986   8.024
  110POPC   PO4 1683   4.418   2.729   8.211
  110POPC   GL1 1684   4.262   2.658   7.791
  110POPC   GL2 1685   4.006   2.446   7.702
  110POPC   C1A 1686   4.424   2.397   7.417
  110POPC   D2A 1687   4.400   2.163   7.008
  110POPC   C3A 1688   4.414   2.456   6.616
  110POPC   C4A 1689   4.485   2.665   6.198
  110POPC   C1B 1690   3.934   2.513   7.237
  110POPC   C2B 1691   3.854   2.517   6.753
  110POPC   C3B 1692   3.988   2.558   6.307
  110POPC   C4B 1693   4.076   2.937   6.024
  111POPC   NC3 1694   1.553   9.641   8.116
  111POPC   PO4 1695   2.166   9.197   8.143
  111POPC   GL1 1696   1.901   9.442   7.788
  111POPC   GL2 1697   2.095   9.734   7.623
  111POPC   C1A 1698   1.710   9.573   7.349
  111POPC   D2A 1699   1.867   9.791   6.932
  111POPC   C3A 1700   1.663   9.924   6.506
  111POPC   C4A 1701   1.729   9.822   6.024
  111POPC   C1B 1702   2.349   9.756   7.225
  111POPC   C2B 1703   2.340   9.739   6.752
  111POPC   C3B 1704   2.060   9.629   6.387
  111POPC   C4B 1705   2.150   9.518   5.945
  112POPC   NC3 1706   9.502   8.176   8.275
  112POPC   PO4 1707   0.043   7.744   8.303
  112POPC   GL1 1708   9.933   8.002   7.904
  112POPC   GL2 1709   9.586   8.052   7.810
  112POPC   C1A 1710   9.913   8.267   7.493
  112POPC   D2A 1711   9.871   8.125   7.056
  112POPC   C3A 1712   9.944   8.378   6.658
  112POPC   C4A 1713   9.977   8.226   6.222
  112POPC   C1B 1714   9.324   8.122   7.464
  112POPC   C2B 1715   9.350   8.239   7.049
  112POPC   C3B 1716   9.500   8.140   6.649
  112POPC   C4B 1717   9.346   8.172   6.225
  113POPC   NC3 1718   0.030   9.688   7.972
  113POPC   PO4 1719   0.426   0.046   8.380
  113POPC   GL1 1720   0.461   9.940   7.845
  113POPC   GL2 1721   0.478   9.614   7.708
  113POPC   C1A 1722   0.759   9.966   7.456
  113POPC   D2A 1723   0.895   9.689   7.106
  113POPC   C3A 1724   0.664   9.646   6.706
  113POPC   C4A 1725   0.452   9.570   6.299
  113POPC   C1B 1726   0.182   9.594   7.357
  113POPC   C2B 1727   0.203   9.740   6.934
  113POPC   C3B 1728   0.031   9.486   6.617
  113POPC   C4B 1729   0.080   9.216   6.249
  114POPC   NC3 1730   3.662   8.977   8.203
  114POPC   PO4 1731   3.110   8.583   8.097
  114POPC   GL1 1732   3.362   8.773   7.782
  114POPC   GL2 1733   3.453   9.114   7.766
  114POPC   C1A 1734   3.428   8.624   7.359
  114POPC   D2A 1735   3.603   8.467   6.976
  114POPC   C3A 1736   3.660   8.674   6.566
  114POPC   C4A 1737   3.449   8.781   6.187
  114POPC   C1B 1738   3.266   9.113   7.366
  114POPC   C2B 1739   3.395   8.944   6.953
  114POPC   C3B 1740   3.356   9.144   6.547
  114POPC   C4B 1741   3.688   9.227   6.262
  115POPC   NC3 1742   3.406   2.679   8.351
  115POPC   PO4 1743   3.475   3.254   8.070
  115POPC   GL1 1744   3.257   2.862   7.866
  115POPC   GL2 1745   3.520   2.666   7.705
  115POPC   C1A 1746   3.063   2.689   7.444
  115POPC   D2A 1747   2.879   2.572   7.003
  115POPC   C3A 1748   3.030   2.569   6.547
  115POPC   C4A 1749   3.133   2.563   6.086
  115POPC   C1B 1750   3.510   2.805   7.250
  115POPC   C2B 1751   3.332   2.872   6.820
  115POPC   C3B 1752   3.504   2.721   6.405
  115POPC   C4B 1753   3.583   2.804   5.949
  116POPC   NC3 1754   3.223   3.636   8.074
  116POPC   PO4 1755   2.709   4.091   8.096
  116POPC   GL1 1756   2.778   3.699   7.818
  116POPC   GL2 1757   2.773   3.320   7.859
  116POPC   C1A 1758   2.891   3.486   7.394
  116POPC   D2A 1759   2.953   3.247   6.997
  116POPC   C3A 1760   2.917   3.473   6.558
  116POPC   C4A 1761   3.027   3.528   6.092
  116POPC   C1B 1762   2.408   3.459   7.560
  116POPC   C2B 1763   2.413   3.461   7.095
  116POPC   C3B 1764   2.392   3.430   6.621
  116POPC   C4B 1765   2.541   3.269   6.192
  117POPC   NC3 1766   5.700   1.966   8.166
  117POPC   PO4 1767   6.282   1.509   8.143
  117POPC   GL1 1768   5.907   1.588   7.862
  117POPC   GL2 1769   6.010   1.932   7.759
  117POPC   C1A 1770   5.695   1.677   7.424
  117POPC   D2A 1771   5.774   1.786   6.980
  117POPC   C3A 1772   5.700   1.697   6.562
  117POPC   C4A 1773   5.885   1.729   6.160
  117POPC   C1B 1774   6.001   2.086   7.332
  117POPC   C2B 1775   5.928   2.266   6.929
  117POPC   C3B 1776   5.909   2.164   6.511
  117POPC   C4B 1777   5.608   2.149   6.213
  118POPC   NC3 1778   2.704   2.814   8.306
  118POPC   PO4 1779   2.147   2.402   8.235
  118POPC   GL1 1780   2.526   2.432   7.906
  118POPC   GL2 1781   2.717   2.747   7.815
  118POPC   C1A 1782   2.549   2.479   7.417
  118POPC   D2A 1783   2.342   2.473   6.988
  118POPC   C3A 1784   2.528   2.546   6.586
  118POPC   C4A 1785   2.657   2.767   6.174
  118POPC   C1B 1786   2.664   3.006   7.434
  118POPC   C2B 1787   2.534   2.952   6.993
  118POPC   C3B 1788   2.742   3.002   6.608
  118POPC   C4B 1789   3.099   3.040   6.318
  119POPC   NC3 1790   2.741   1.094   8.078
  119POPC   PO4 1791   3.116   1.654   8.119
  119POPC   GL1 1792   2.912   1.436   7.745
  119POPC   GL2 1793   2.506   1.380   7.732
  119POPC   C1A 1794   2.958   1.407   7.292
  119POPC   D2A 1795   2.975   1.613   6.897
  119POPC   C3A 1796   2.943   1.303   6.570
  119POPC   C4A 1797   2.846   1.049   6.204
  119POPC   C1B 1798   2.620   1.042   7.423
  119POPC   C2B 1799   2.621   1.123   6.954
  119POPC   C3B 1800   2.438   1.121   6.525
  119POPC   C4B 1801   2.383   1.387   6.181
  120POPC   NC3 1802   1.520   5.632   8.250
  120POPC   PO4 1803   1.225   6.193   8.274
  120POPC   GL1 1804   1.230   6.316   7.863
  120POPC   GL2 1805   1.456   6.091   7.722
  120POPC   C1A 1806   1.099   6.296   7.397
  120POPC   D2A 1807   1.029   6.070   6.982
  120POPC   C3A 1808   1.175   6.211   6.557
  120POPC   C4A 1809   1.364   6.100   6.128
  120POPC   C1B 1810   1.367   5.831   7.344
  120POPC   C2B 1811   1.261   5.606   6.934
  120POPC   C3B 1812   1.348   5.716   6.523
  120POPC   C4B 1813   0.977   5.788   6.287
  121POPC   NC3 1814   4.533   7.316   8.280
  121POPC   PO4 1815   5.158   7.483   8.202
  121POPC   GL1 1816   4.895   7.758   7.909
  121POPC   GL2 1817   4.575   7.605   7.842
  121POPC   C1A 1818   4.756   7.848   7.438
  121POPC   D2A 1819   4.631   7.639   7.009
  121POPC   C3A 1820   4.677   7.565   6.538
  121POPC   C4A 1821   4.642   7.425   6.088
  121POPC   C1B 1822   4.269   7.649   7.481
  121POPC   C2B 1823   4.168   7.805   7.067
  121POPC   C3B 1824   4.112   7.536   6.695
  121POPC   C4B 1825   3.788   7.238   6.455
  122POPC   NC3 1826   1.671   6.304   8.164
  122POPC   PO4 1827   2.210   5.956   8.045
  122POPC   GL1 1828   2.077   6.399   7.866
  122POPC   GL2 1829   2.038   6.796   7.791
  122POPC   C1A 1830   2.007   6.450   7.434
  122POPC   D2A 1831   2.026   6.586   7.017
  122POPC   C3A 1832   2.110   6.424   6.629
  122POPC   C4A 1833   2.201   6.463   6.206
  122POPC   C1B 1834   1.860   6.931   7.366
  122POPC   C2B 1835   1.688   6.926   6.921
  122POPC   C3B 1836   1.891   6.903   6.496
  122POPC   C4B 1837   1.856   6.820   6.012
  123POPC   NC3 1838   4.402   8.305   8.210
  123POPC   PO4 1839   4.226   7.645   8.212
  123POPC   GL1 1840   4.221   7.984   7.855
  123POPC   GL2 1841   4.082   8.322   7.824
  123POPC   C1A 1842   4.368   8.174   7.432
  123POPC   D2A 1843   4.594   8.160   7.020
  123POPC   C3A 1844   4.408   7.990   6.644
  123POPC   C4A 1845   4.441   7.886   6.200
  123POPC   C1B 1846   3.945   8.484   7.400
  123POPC   C2B 1847   4.100   8.326   7.015
  123POPC   C3B 1848   4.267   8.483   6.652
  123POPC   C4B 1849   4.145   8.297   6.314
  124POPC   NC3 1850   0.607   0.349   8.066
  124POPC   PO4 1851   9.975   0.135   8.049
  124POPC   GL1 1852   0.173   0.353   7.711
  124POPC   GL2 1853   0.387   0.677   7.707
  124POPC   C1A 1854   0.281   0.091   7.361
  124POPC   D2A 1855   0.574   0.137   6.986
  124POPC   C3A 1856   0.391   0.068   6.579
  124POPC   C4A 1857   0.041   9.919   6.347
  124POPC   C1B 1858   0.419   0.559   7.281
  124POPC   C2B 1859   0.247   0.647   6.860
  124POPC   C3B 1860   0.466   0.565   6.463
  124POPC   C4B 1861   0.824   0.317   6.392
  125POPC   NC3 1862   5.941   1.182   8.217
  125POPC   PO4 1863   5.409   0.708   8.204
  125POPC   GL1 1864   5.527   1.024   7.855
  125POPC   GL2 1865   5.881   1.066   7.738
  125POPC   C1A 1866   5.566   1.181   7.377
  125POPC   D2A 1867   5.520   1.318   6.932
  125POPC   C3A 1868   5.542   0.983   6.617
  125POPC   C4A 1869   5.508   0.775   6.213
  125POPC   C1B 1870   6.081   1.333   7.414
  125POPC   C2B 1871   6.056   1.366   6.956
  125POPC   C3B 1872   6.140   1.435   6.512
  125POPC   C4B 1873   5.800   1.244   6.267
  126POPC   NC3 1874   4.305   0.793   8.247
  126POPC   PO4 1875   3.838   0.259   8.428
  126POPC   GL1 1876   4.064   0.246   7.995
  126POPC   GL2 1877   4.386   0.412   7.898
  126POPC   C1A 1878   4.096   0.221   7.518
  126POPC   D2A 1879   3.800   0.317   7.160
  126POPC   C3A 1880   4.023   0.430   6.785
  126POPC   C4A 1881   4.097   0.331   6.347
  126POPC   C1B 1882   4.473   0.568   7.447
  126POPC   C2B 1883   4.489   0.574   7.006
  126POPC   C3B 1884   4.518   0.270   6.674
  126POPC   C4B 1885   4.626   0.378   6.270
  127POPC   NC3 1886   9.726   4.959   8.037
  127POPC   PO4 1887   0.373   4.903   8.323
  127POPC   GL1 1888   0.185   5.166   7.888
  127POPC   GL2 1889   9.875   5.392   7.845
  127POPC   C1A 1890   0.052   5.124   7.433
  127POPC   D2A 1891   0.086   4.849   7.075
  127POPC   C3A 1892   9.921   4.855   6.650
  127POPC   C4A 1893   9.677   5.035   6.294
  127POPC   C1B 1894   9.555   5.236   7.482
  127POPC   C2B 1895   9.630   5.133   7.038
  127POPC   C3B 1896   9.355   5.127   6.682
  127POPC   C4B 1897   9.185   5.246   6.284
  128POPC   NC3 1898   9.704   9.943   8.370
  128POPC   PO4 1899   9.362   9.356   8.181
  128POPC   GL1 1900   9.575   9.493   7.845
  128POPC   GL2 1901   9.824   9.211   7.861
  128POPC   C1A 1902   9.678   9.731   7.448
  128POPC   D2A 1903   9.728   9.611   7.039
  128POPC   C3A 1904   9.668   9.903   6.703
  128POPC   C4A 1905   9.343   9.859   6.402
  128POPC   C1B 1906   9.571   9.106   7.487
  128POPC   C2B 1907   9.475   9.153   7.032
  128POPC   C3B 1908   9.478   9.410   6.640
  128POPC   C4B 1909   9.691   9.552   6.239
  129POPC   NC3 1910   2.642   8.016   8.082
  129POPC   PO4 1911   2.332   8.524   8.377
  129POPC   GL1 1912   2.664   8.501   7.842
  129POPC   GL2 1913   2.960   8.252   7.745
  129POPC   C1A 1914   2.612   8.368   7.335
  129POPC   D2A 1915   2.318   8.393   6.927
  129POPC   C3A 1916   2.425   8.395   6.463
  129POPC   C4A 1917   2.784   8.482   6.188
  129POPC   C1B 1918   2.911   7.973   7.378
  129POPC   C2B 1919   2.709   8.001   6.961
  129POPC   C3B 1920   2.842   8.111   6.552
  129POPC   C4B 1921   2.992   7.882   6.201
  130POPC   NC3 1922   9.030   9.695   7.957
  130POPC   PO4 1923   8.534   9.278   8.262
  130POPC   GL1 1924   8.754   9.269   7.861
  130POPC   GL2 1925   9.118   9.240   7.760
  130POPC   C1A 1926   8.744   9.310   7.407
  130POPC   D2A 1927   8.960   9.284   7.005
  130POPC   C3A 1928   8.701   9.275   6.628
  130POPC   C4A 1929   8.448   9.580   6.424
  130POPC   C1B 1930   9.246   9.486   7.372
  130POPC   C2B 1931   9.212   9.756   6.981
  130POPC   C3B 1932   8.903   9.760   6.624
  130POPC   C4B 1933   8.939   9.529   6.210
  131POPC   NC3 1934   8.773   2.790   8.151
  131POPC   PO4 1935   9.283   2.276   7.921
  131POPC   GL1 1936   9.115   2.520   7.574
  131POPC   GL2 1937   8.905   2.811   7.661
  131POPC   C1A 1938   8.789   2.551   7.253
  131POPC   D2A 1939   8.953   2.803   6.936
  131POPC   C3A 1940   9.069   2.634   6.551
  131POPC   C4A 1941   9.368   2.436   6.298
  131POPC   C1B 1942   8.603   3.029   7.373
  131POPC   C2B 1943   8.482   2.980   6.966
  131POPC   C3B 1944   8.579   2.819   6.585
  131POPC   C4B 1945   8.612   2.396   6.411
  132POPC   NC3 1946   2.713   8.750   8.263
  132POPC   PO4 1947   3.219   9.147   8.245
  132POPC   GL1 1948   2.929   9.033   7.854
  132POPC   GL2 1949   2.552   9.014   7.850
  132POPC   C1A 1950   2.935   8.745   7.462
  132POPC   D2A 1951   3.019   8.552   7.026
  132POPC   C3A 1952   3.111   8.684   6.582
  132POPC   C4A 1953   2.973   8.962   6.223
  132POPC   C1B 1954   2.424   8.805   7.481
  132POPC   C2B 1955   2.573   8.806   7.077
  132POPC   C3B 1956   2.623   8.830   6.640
  132POPC   C4B 1957   2.459   8.875   6.217
  133POPC   NC3 1958   2.870   0.405   8.127
  133POPC   PO4 1959   2.333   0.832   8.091
  133POPC   GL1 1960   2.485   0.583   7.794
  133POPC   GL2 1961   2.837   0.591   7.634
  133POPC   C1A 1962   2.389   0.557   7.391
  133POPC   D2A 1963   2.694   0.637   7.092
  133POPC   C3A 1964   2.585   0.656   6.676
  133POPC   C4A 1965   2.479   0.683   6.245
  133POPC   C1B 1966   2.778   0.201   7.336
  133POPC   C2B 1967   2.661   0.170   6.868
  133POPC   C3B 1968   2.727   0.269   6.380
  133POPC   C4B 1969   2.959   0.142   5.974
  134POPC   NC3 1970   5.797   3.085   8.304
  134POPC   PO4 1971   5.805   2.433   8.139
  134POPC   GL1 1972   5.792   2.721   7.803
  134POPC   GL2 1973   6.067   2.486   7.634
  134POPC   C1A 1974   5.977   2.939   7.456
  134POPC   D2A 1975   6.134   2.702   7.108
  134POPC   C3A 1976   6.008   2.768   6.710
  134POPC   C4A 1977   5.861   2.953   6.332
  134POPC   C1B 1978   5.712   2.507   7.350
  134POPC   C2B 1979   5.577   2.651   6.957
  134POPC   C3B 1980   5.581   2.564   6.522
  134POPC   C4B 1981   5.457   2.654   6.105
  135POPC   NC3 1982   8.681   5.381   8.028
  135POPC   PO4 1983   7.997   5.293   8.024
  135POPC   GL1 1984   8.312   5.207   7.719
  135POPC   GL2 1985   8.367   4.851   7.647
  135POPC   C1A 1986   8.238   5.176   7.282
  135POPC   D2A 1987   8.213   5.384   6.904
  135POPC   C3A 1988   8.301   5.146   6.538
  135POPC   C4A 1989   8.186   5.085   6.132
  135POPC   C1B 1990   8.163   4.652   7.297
  135POPC   C2B 1991   8.069   4.825   6.878
  135POPC   C3B 1992   7.982   4.732   6.425
  135POPC   C4B 1993   7.905   4.718   5.924
  136POPC   NC3 1994   6.821   8.229   8.046
  136POPC   PO4 1995   6.745   7.596   8.055
  136POPC   GL1 1996   6.854   7.865   7.660
  136POPC   GL2 1997   6.598   8.140   7.595
  136POPC   C1A 1998   6.784   7.909   7.192
  136POPC   D2A 1999   6.871   7.748   6.783
  136POPC   C3A 2000   6.850   8.018   6.439
  136POPC   C4A 2001   6.506   8.070   6.145
  136POPC   C1B 2002   6.241   8.051   7.290
  136POPC   C2B 2003   6.030   8.212   6.889
  136POPC   C3B 2004   6.177   8.321   6.464
  136POPC   C4B 2005   6.601   8.475   6.498
  137POPC   NC3 2006   8.868   0.421   8.103
  137POPC   PO4 2007   9.406   9.973   8.016
  137POPC   GL1 2008   9.151   0.220   7.689
  137POPC   GL2 2009   8.788   0.315   7.611
  137POPC   C1A 2010   9.261   0.280   7.239
  137POPC   D2A 2011   9.072   0.471   6.858
  137POPC   C3A 2012   9.049   0.274   6.456
  137POPC   C4A 2013   9.211   0.148   6.025
  137POPC   C1B 2014   8.770   0.178   7.177
  137POPC   C2B 2015   8.566   0.439   6.875
  137POPC   C3B 2016   8.614   0.573   6.462
  137POPC   C4B 2017   8.729   0.478   6.027
  138POPC   NC3 2018   5.554   7.306   8.075
  138POPC   PO4 2019   6.104   7.195   8.350
  138POPC   GL1 2020   5.956   7.385   7.807
  138POPC   GL2 2021   6.062   7.738   7.738
  138POPC   C1A 2022   6.160   7.464   7.344
  138POPC   D2A 2023   6.028   7.696   6.978
  138POPC   C3A 2024   5.957   7.407   6.629
  138POPC   C4A 2025   6.201   7.208   6.288
  138POPC   C1B 2026   5.683   7.627   7.429
  138POPC   C2B 2027   5.536   7.543   6.970
  138POPC   C3B 2028   5.371   7.673   6.526
  138POPC   C4B 2029   5.356   7.535   6.069
  139POPC   NC3 2030   0.407   3.564   8.450
  139POPC   PO4 2031   0.991   3.674   8.132
  139POPC   GL1 2032   0.820   3.418   7.807
  139POPC   GL2 2033   0.593   3.625   7.631
  139POPC   C1A 2034   0.711   3.197   7.438
  139POPC   D2A 2035   0.538   3.475   7.108
  139POPC   C3A 2036   0.774   3.478   6.720
  139POPC   C4A 2037   0.663   3.540   6.314
  139POPC   C1B 2038   0.238   3.831   7.392
  139POPC   C2B 2039   0.260   3.994   6.985
  139POPC   C3B 2040   0.287   3.690   6.655
  139POPC   C4B 2041   0.167   3.377   6.329
  140POPC   NC3 2042   8.735   8.291   8.302
  140POPC   PO4 2043   9.234   7.759   8.256
  140POPC   GL1 2044   9.066   7.877   7.850
  140POPC   GL2 2045   9.092   8.233   7.920
  140POPC   C1A 2046   8.820   7.920   7.419
  140POPC   D2A 2047   8.930   7.893   6.961
  140POPC   C3A 2048   8.739   7.922   6.552
  140POPC   C4A 2049   8.861   7.955   6.118
  140POPC   C1B 2050   8.868   8.413   7.568
  140POPC   C2B 2051   8.851   8.377   7.113
  140POPC   C3B 2052   9.013   8.349   6.671
  140POPC   C4B 2053   8.900   8.451   6.246
  141POPC   NC3 2054   6.889   3.403   8.098
  141POPC   PO4 2055   6.224   3.139   8.158
  141POPC   GL1 2056   6.404   3.041   7.713
  141POPC   GL2 2057   6.656   3.311   7.632
  141POPC   C1A 2058   6.399   3.117   7.217
  141POPC   D2A 2059   6.597   3.255   6.787
  141POPC   C3A 2060   6.393   3.314   6.361
  141POPC   C4A 2061   6.077   3.286   5.990
  141POPC   C1B 2062   6.659   3.557   7.223
  141POPC   C2B 2063   6.759   3.742   6.801
  141POPC   C3B 2064   6.673   3.868   6.360
  141POPC   C4B 2065   6.727   4.052   5.936
  142POPC   NC3 2066   1.451   3.764   8.277
  142POPC   PO4 2067   1.509   3.091   8.186
  142POPC   GL1 2068   1.332   3.318   7.811
  142POPC   GL2 2069   1.337   3.658   7.757
  142POPC   C1A 2070   1.210   3.160   7.408
  142POPC   D2A 2071   1.013   3.126   7.005
  142POPC   C3A 2072   1.219   3.208   6.620
  142POPC   C4A 2073   1.023   3.180   6.238
  142POPC   C1B 2074   1.064   3.641   7.366
  142POPC   C2B 2075   1.239   3.624   6.933
  142POPC   C3B 2076   1.176   3.723   6.482
  142POPC   C4B 2077   0.922   4.000   6.240
  143POPC   NC3 2078   8.712   1.277   8.168
  143POPC   PO4 2079   8.450   0.681   8.099
  143POPC   GL1 2080   8.695   0.911   7.774
  143POPC   GL2 2081   9.027   0.767   7.733
  143POPC   C1A 2082   8.636   1.121   7.356
  143POPC   D2A 2083   8.721   1.441   7.030
  143POPC   C3A 2084   8.596   1.353   6.591
  143POPC   C4A 2085   8.726   1.304   6.145
  143POPC   C1B 2086   8.921   0.698   7.294
  143POPC   C2B 2087   8.795   0.914   6.897
  143POPC   C3B 2088   8.930   0.969   6.474
  143POPC   C4B 2089   9.254   1.138   6.226
  144POPC   NC3 2090   2.031   3.840   3.738
  144POPC   PO4 2091   1.994   3.130   3.855
  144POPC   GL1 2092   2.008   3.487   4.127
  144POPC   GL2 2093   1.661   3.659   4.101
  144POPC   C1A 2094   2.207   3.466   4.547
  144POPC   D2A 2095   2.354   3.557   4.972
  144POPC   C3A 2096   2.300   3.312   5.348
  144POPC   C4A 2097   2.182   3.350   5.799
  144POPC   C1B 2098   1.723   3.645   4.557
  144POPC   C2B 2099   1.845   3.434   4.963
  144POPC   C3B 2100   1.827   3.474   5.428
  144POPC   C4B 2101   1.818   3.698   5.869
  145POPC   NC3 2102   2.542   2.072   3.993
  145POPC   PO4 2103   2.548   1.464   3.730
  145POPC   GL1 2104   2.427   1.570   4.163
  145POPC   GL2 2105   2.734   1.739   4.325
  145POPC   C1A 2106   2.350   1.710   4.617
  145POPC   D2A 2107   2.721   1.628   4.914
  145POPC   C3A 2108   2.685   1.637   5.379
  145POPC   C4A 2109   2.331   1.634   5.690
  145POPC   C1B 2110   2.984   1.981   4.644
  145POPC   C2B 2111   3.122   1.949   5.089
  145POPC   C3B 2112   2.951   2.105   5.466
  145POPC   C4B 2113   2.725   1.954   5.822
  146POPC   NC3 2114   7.350   7.040   3.823
  146POPC   PO4 2115   7.708   6.624   4.015
  146POPC   GL1 2116   7.430   6.730   4.352
  146POPC   GL2 2117   7.121   6.939   4.271
  146POPC   C1A 2118   7.464   6.668   4.828
  146POPC   D2A 2119   7.585   6.847   5.241
  146POPC   C3A 2120   7.514   6.550   5.585
  146POPC   C4A 2121   7.442   6.625   6.042
  146POPC   C1B 2122   6.994   6.862   4.705
  146POPC   C2B 2123   7.066   6.785   5.170
  146POPC   C3B 2124   7.013   6.466   5.518
  146POPC   C4B 2125   7.230   6.199   5.839
  147POPC   NC3 2126   5.663   9.218   3.986
  147POPC   PO4 2127   5.381   8.632   3.906
  147POPC   GL1 2128   5.675   8.783   4.278
  147POPC   GL2 2129   6.007   8.839   4.415
  147POPC   C1A 2130   5.679   8.970   4.741
  147POPC   D2A 2131   5.887   9.024   5.137
  147POPC   C3A 2132   5.708   8.791   5.476
  147POPC   C4A 2133   5.497   8.911   5.871
  147POPC   C1B 2134   6.128   8.618   4.743
  147POPC   C2B 2135   6.286   8.697   5.129
  147POPC   C3B 2136   6.259   8.788   5.532
  147POPC   C4B 2137   6.012   8.912   5.874
  148POPC   NC3 2138   0.983   5.094   3.785
  148POPC   PO4 2139   1.565   5.337   3.958
  148POPC   GL1 2140   1.142   5.289   4.229
  148POPC   GL2 2141   1.223   4.995   4.410
  148POPC   C1A 2142   0.917   5.269   4.698
  148POPC   D2A 2143   0.968   5.087   5.155
  148POPC   C3A 2144   1.065   5.191   5.621
  148POPC   C4A 2145   0.859   5.352   6.019
  148POPC   C1B 2146   1.384   5.100   4.849
  148POPC   C2B 2147   1.466   5.091   5.301
  148POPC   C3B 2148   1.581   5.082   5.765
  148POPC   C4B 2149   1.890   5.266   6.093
  149POPC   NC3 2150   6.499   8.123   3.883
  149POPC   PO4 2151   6.124   8.616   4.002
  149POPC   GL1 2152   6.336   8.326   4.359
  149POPC   GL2 2153   6.455   7.942   4.380
  149POPC   C1A 2154   6.504   8.231   4.808
  149POPC   D2A 2155   6.325   8.200   5.233
  149POPC   C3A 2156   6.473   8.231   5.641
  149POPC   C4A 2157   6.319   8.502   5.963
  149POPC   C1B 2158   6.822   7.861   4.724
  149POPC   C2B 2159   6.835   8.017   5.142
  149POPC   C3B 2160   6.854   7.891   5.578
  149POPC   C4B 2161   6.933   8.170   5.920
  150POPC   NC3 2162   9.019   2.432   3.926
  150POPC   PO4 2163   8.954   3.072   3.930
  150POPC   GL1 2164   8.989   3.003   4.347
  150POPC   GL2 2165   9.028   2.647   4.387
  150POPC   C1A 2166   8.769   3.170   4.688
  150POPC   D2A 2167   8.487   3.063   5.027
  150POPC   C3A 2168   8.767   2.997   5.357
  150POPC   C4A 2169   8.639   2.940   5.747
  150POPC   C1B 2170   9.059   2.757   4.837
  150POPC   C2B 2171   8.937   2.493   5.190
  150POPC   C3B 2172   8.909   2.493   5.635
  150POPC   C4B 2173   8.891   2.630   6.065
  151POPC   NC3 2174   8.043   2.215   3.943
  151POPC   PO4 2175   8.676   2.140   4.096
  151POPC   GL1 2176   8.492   1.892   4.382
  151POPC   GL2 2177   8.139   1.863   4.307
  151POPC   C1A 2178   8.418   1.723   4.774
  151POPC   D2A 2179   8.587   1.662   5.187
  151POPC   C3A 2180   8.257   1.742   5.486
  151POPC   C4A 2181   8.160   1.765   5.900
  151POPC   C1B 2182   8.122   2.161   4.651
  151POPC   C2B 2183   8.123   2.060   5.087
  151POPC   C3B 2184   8.120   2.235   5.448
  151POPC   C4B 2185   7.934   2.213   5.798
  152POPC   NC3 2186   8.859   4.156   3.975
  152POPC   PO4 2187   8.999   4.810   3.756
  152POPC   GL1 2188   9.016   4.589   4.212
  152POPC   GL2 2189   9.174   4.293   4.340
  152POPC   C1A 2190   9.158   4.648   4.682
  152POPC   D2A 2191   9.317   4.545   5.104
  152POPC   C3A 2192   8.988   4.559   5.441
  152POPC   C4A 2193   8.695   4.399   5.799
  152POPC   C1B 2194   8.912   4.099   4.669
  152POPC   C2B 2195   8.827   4.015   5.118
  152POPC   C3B 2196   8.960   4.039   5.544
  152POPC   C4B 2197   8.905   3.918   5.966
  153POPC   NC3 2198   7.329   7.779   4.183
  153POPC   PO4 2199   7.644   7.340   3.659
  153POPC   GL1 2200   7.552   7.236   4.228
  153POPC   GL2 2201   7.651   7.546   4.528
  153POPC   C1A 2202   7.425   7.140   4.656
  153POPC   D2A 2203   7.536   7.327   5.037
  153POPC   C3A 2204   7.235   7.233   5.345
  153POPC   C4A 2205   7.426   7.030   5.704
  153POPC   C1B 2206   7.318   7.733   4.808
  153POPC   C2B 2207   7.276   7.754   5.231
  153POPC   C3B 2208   7.544   7.571   5.539
  153POPC   C4B 2209   7.251   7.474   5.858
  154POPC   NC3 2210   1.117   3.520   3.870
  154POPC   PO4 2211   0.569   3.707   4.070
  154POPC   GL1 2212   0.824   3.682   4.407
  154POPC   GL2 2213   1.102   3.445   4.381
  154POPC   C1A 2214   0.893   3.649   4.851
  154POPC   D2A 2215   1.012   3.381   5.191
  154POPC   C3A 2216   0.863   3.561   5.530
  154POPC   C4A 2217   0.994   3.612   5.942
  154POPC   C1B 2218   1.335   3.429   4.795
  154POPC   C2B 2219   1.423   3.700   5.172
  154POPC   C3B 2220   1.382   3.593   5.627
  154POPC   C4B 2221   1.442   3.450   6.116
  155POPC   NC3 2222   0.222   4.947   4.154
  155POPC   PO4 2223   0.770   4.648   3.813
  155POPC   GL1 2224   0.818   4.703   4.260
  155POPC   GL2 2225   0.692   5.023   4.323
  155POPC   C1A 2226   0.826   4.787   4.728
  155POPC   D2A 2227   0.490   4.960   5.021
  155POPC   C3A 2228   0.558   5.052   5.463
  155POPC   C4A 2229   0.350   4.842   5.798
  155POPC   C1B 2230   0.402   5.284   4.639
  155POPC   C2B 2231   0.111   5.376   5.015
  155POPC   C3B 2232   0.214   5.477   5.445
  155POPC   C4B 2233   0.380   5.365   5.842
  156POPC   NC3 2234   9.070   8.179   3.792
  156POPC   PO4 2235   8.606   7.806   3.851
  156POPC   GL1 2236   8.744   7.955   4.220
  156POPC   GL2 2237   9.082   7.855   4.229
  156POPC   C1A 2238   8.527   8.093   4.617
  156POPC   D2A 2239   8.431   8.353   5.002
  156POPC   C3A 2240   8.743   8.341   5.366
  156POPC   C4A 2241   8.571   8.396   5.794
  156POPC   C1B 2242   9.064   8.134   4.591
  156POPC   C2B 2243   9.283   8.241   4.981
  156POPC   C3B 2244   9.267   8.389   5.396
  156POPC   C4B 2245   9.075   8.277   5.780
  157POPC   NC3 2246   7.611   2.644   3.885
  157POPC   PO4 2247   7.033   2.259   3.883
  157POPC   GL1 2248   7.229   2.409   4.255
  157POPC   GL2 2249   7.296   2.724   4.276
  157POPC   C1A 2250   7.235   2.444   4.698
  157POPC   D2A 2251   7.070   2.421   5.099
  157POPC   C3A 2252   7.204   2.687   5.431
  157POPC   C4A 2253   7.196   2.898   5.830
  157POPC   C1B 2254   7.686   2.620   4.545
  157POPC   C2B 2255   7.704   2.340   4.923
  157POPC   C3B 2256   7.627   2.328   5.374
  157POPC   C4B 2257   7.581   2.577   5.753
  158POPC   NC3 2258   5.023   0.539   4.078
  158POPC   PO4 2259   5.158   9.922   3.954
  158POPC   GL1 2260   5.230   0.162   4.402
  158POPC   GL2 2261   5.290   0.551   4.515
  158POPC   C1A 2262   5.090   0.251   4.857
  158POPC   D2A 2263   5.300   0.483   5.204
  158POPC   C3A 2264   5.297   0.262   5.603
  158POPC   C4A 2265   5.550   0.291   6.003
  158POPC   C1B 2266   4.962   0.766   4.746
  158POPC   C2B 2267   4.806   0.642   5.116
  158POPC   C3B 2268   4.882   0.560   5.529
  158POPC   C4B 2269   4.602   0.621   5.836
  159POPC   NC3 2270   1.350   6.733   3.996
  159POPC   PO4 2271   0.853   6.236   3.879
  159POPC   GL1 2272   0.972   6.420   4.248
  159POPC   GL2 2273   1.312   6.379   4.392
  159POPC   C1A 2274   0.831   6.683   4.591
  159POPC   D2A 2275   0.933   6.880   5.010
  159POPC   C3A 2276   1.131   6.637   5.357
  159POPC   C4A 2277   0.949   6.743   5.764
  159POPC   C1B 2278   1.325   6.737   4.693
  159POPC   C2B 2279   1.474   6.953   5.089
  159POPC   C3B 2280   1.648   6.864   5.520
  159POPC   C4B 2281   1.451   6.523   5.779
  160POPC   NC3 2282   0.547   5.814   3.776
  160POPC   PO4 2283   0.521   5.150   3.858
  160POPC   GL1 2284   0.619   5.489   4.160
  160POPC   GL2 2285   0.315   5.645   4.227
  160POPC   C1A 2286   0.690   5.697   4.596
  160POPC   D2A 2287   0.605   5.525   5.052
  160POPC   C3A 2288   0.747   5.573   5.492
  160POPC   C4A 2289   0.651   5.825   5.890
  160POPC   C1B 2290   0.186   5.752   4.655
  160POPC   C2B 2291   0.337   5.994   4.999
  160POPC   C3B 2292   0.428   5.971   5.437
  160POPC   C4B 2293   0.150   5.877   5.803
  161POPC   NC3 2294   0.527   7.550   3.851
  161POPC   PO4 2295   0.007   7.069   3.837
  161POPC   GL1 2296   0.200   7.305   4.163
  161POPC   GL2 2297   0.489   7.084   4.207
  161POPC   C1A 2298   0.278   7.520   4.561
  161POPC   D2A 2299   0.148   7.688   4.994
  161POPC   C3A 2300   0.328   7.552   5.416
  161POPC   C4A 2301   0.564   7.577   5.831
  161POPC   C1B 2302   0.655   7.178   4.630
  161POPC   C2B 2303   0.651   7.432   5.014
  161POPC   C3B 2304   0.739   7.263   5.449
  161POPC   C4B 2305   0.512   7.045   5.767
  162POPC   NC3 2306   4.008   3.639   3.874
  162POPC   PO4 2307   4.320   4.058   3.971
  162POPC   GL1 2308   4.300   3.632   4.290
  162POPC   GL2 2309   4.393   3.263   4.225
  162POPC   C1A 2310   4.082   3.358   4.643
  162POPC   D2A 2311   3.991   3.242   5.091
  162POPC   C3A 2312   3.574   3.378   5.272
  162POPC   C4A 2313   3.458   3.728   5.567
  162POPC   C1B 2314   4.529   3.089   4.610
  162POPC   C2B 2315   4.468   3.036   5.054
  162POPC   C3B 2316   4.233   2.917   5.443
  162POPC   C4B 2317   3.848   3.086   5.590
  163POPC   NC3 2318   8.134   7.072   3.832
  163POPC   PO4 2319   7.755   7.635   4.061
  163POPC   GL1 2320   8.118   7.386   4.260
  163POPC   GL2 2321   8.462   7.533   4.286
  163POPC   C1A 2322   8.341   7.136   4.614
  163POPC   D2A 2323   8.438   6.970   5.048
  163POPC   C3A 2324   8.093   6.953   5.346
  163POPC   C4A 2325   7.907   7.218   5.678
  163POPC   C1B 2326   8.278   7.637   4.683
  163POPC   C2B 2327   8.144   7.388   5.032
  163POPC   C3B 2328   8.323   7.428   5.439
  163POPC   C4B 2329   8.034   7.701   5.615
  164POPC   NC3 2330   8.159   7.808   3.968
  164POPC   PO4 2331   7.533   8.144   3.926
  164POPC   GL1 2332   7.741   8.076   4.304
  164POPC   GL2 2333   8.014   8.272   4.188
  164POPC   C1A 2334   7.994   8.067   4.693
  164POPC   D2A 2335   8.037   7.910   5.122
  164POPC   C3A 2336   8.290   8.108   5.441
  164POPC   C4A 2337   8.486   7.907   5.779
  164POPC   C1B 2338   7.821   8.527   4.530
  164POPC   C2B 2339   7.908   8.510   4.984
  164POPC   C3B 2340   8.037   8.564   5.435
  164POPC   C4B 2341   8.066   8.455   5.914
  165POPC   NC3 2342   6.380   0.513   3.889
  165POPC   PO4 2343   6.066   1.039   4.055
  165POPC   GL1 2344   6.347   0.806   4.316
  165POPC   GL2 2345   6.636   0.572   4.320
  165POPC   C1A 2346   6.492   0.856   4.728
  165POPC   D2A 2347   6.479   0.556   5.063
  165POPC   C3A 2348   6.238   0.665   5.410
  165POPC   C4A 2349   6.291   0.650   5.830
  165POPC   C1B 2350   6.608   0.280   4.650
  165POPC   C2B 2351   6.620   0.017   5.028
  165POPC   C3B 2352   6.689   0.206   5.371
  165POPC   C4B 2353   6.559   0.215   5.745
  166POPC   NC3 2354   3.160   8.731   3.964
  166POPC   PO4 2355   3.787   8.949   3.976
  166POPC   GL1 2356   3.456   8.895   4.349
  166POPC   GL2 2357   3.364   9.227   4.518
  166POPC   C1A 2358   3.300   8.825   4.812
  166POPC   D2A 2359   3.365   9.204   5.053
  166POPC   C3A 2360   3.397   9.296   5.507
  166POPC   C4A 2361   3.287   9.265   5.949
  166POPC   C1B 2362   3.780   9.120   4.674
  166POPC   C2B 2363   3.822   8.954   5.054
  166POPC   C3B 2364   3.648   8.833   5.420
  166POPC   C4B 2365   3.690   8.988   5.804
  167POPC   NC3 2366   7.159   9.288   3.822
  167POPC   PO4 2367   6.950   9.910   3.897
  167POPC   GL1 2368   7.089   9.626   4.262
  167POPC   GL2 2369   7.441   9.489   4.190
  167POPC   C1A 2370   7.109   9.388   4.698
  167POPC   D2A 2371   7.335   9.308   5.104
  167POPC   C3A 2372   7.163   9.432   5.530
  167POPC   C4A 2373   7.185   9.586   5.996
  167POPC   C1B 2374   7.494   9.701   4.567
  167POPC   C2B 2375   7.561   9.769   4.989
  167POPC   C3B 2376   7.572   9.719   5.416
  167POPC   C4B 2377   7.389   9.988   5.716
  168POPC   NC3 2378   9.028   7.519   3.841
  168POPC   PO4 2379   8.566   7.137   3.989
  168POPC   GL1 2380   8.765   7.082   4.349
  168POPC   GL2 2381   8.956   7.356   4.323
  168POPC   C1A 2382   8.831   7.180   4.799
  168POPC   D2A 2383   8.805   7.366   5.216
  168POPC   C3A 2384   8.846   7.054   5.568
  168POPC   C4A 2385   9.080   7.166   5.968
  168POPC   C1B 2386   8.829   7.667   4.650
  168POPC   C2B 2387   8.831   7.943   5.030
  168POPC   C3B 2388   8.945   7.868   5.473
  168POPC   C4B 2389   8.811   7.532   5.740
  169POPC   NC3 2390   3.882   8.038   3.991
  169POPC   PO4 2391   3.226   7.802   3.849
  169POPC   GL1 2392   3.402   8.048   4.204
  169POPC   GL2 2393   3.590   8.405   4.204
  169POPC   C1A 2394   3.343   8.158   4.634
  169POPC   D2A 2395   3.272   8.312   5.074
  169POPC   C3A 2396   3.414   8.169   5.492
  169POPC   C4A 2397   3.344   7.847   5.838
  169POPC   C1B 2398   3.691   8.535   4.647
  169POPC   C2B 2399   3.773   8.443   5.100
  169POPC   C3B 2400   3.890   8.391   5.528
  169POPC   C4B 2401   3.689   8.424   5.884
  170POPC   NC3 2402   7.256   0.932   3.945
  170POPC   PO4 2403   7.392   1.566   3.898
  170POPC   GL1 2404   7.327   1.270   4.300
  170POPC   GL2 2405   7.647   1.169   4.394
  170POPC   C1A 2406   7.378   0.986   4.767
  170POPC   D2A 2407   7.456   1.097   5.240
  170POPC   C3A 2408   7.169   0.856   5.545
  170POPC   C4A 2409   6.748   0.684   5.553
  170POPC   C1B 2410   7.406   1.478   4.739
  170POPC   C2B 2411   7.151   1.517   5.115
  170POPC   C3B 2412   7.276   1.473   5.572
  170POPC   C4B 2413   7.508   1.128   5.793
  171POPC   NC3 2414   2.236   6.264   3.905
  171POPC   PO4 2415   1.584   6.337   3.973
  171POPC   GL1 2416   1.895   6.127   4.261
  171POPC   GL2 2417   1.898   5.763   4.314
  171POPC   C1A 2418   2.090   6.119   4.675
  171POPC   D2A 2419   1.884   6.034   5.113
  171POPC   C3A 2420   2.009   5.920   5.550
  171POPC   C4A 2421   2.091   5.799   6.009
  171POPC   C1B 2422   1.611   5.946   4.657
  171POPC   C2B 2423   1.379   6.034   5.069
  171POPC   C3B 2424   1.501   6.054   5.538
  171POPC   C4B 2425   1.630   5.730   5.863
  172POPC   NC3 2426   0.702   4.119   3.864
  172POPC   PO4 2427   1.329   3.848   3.650
  172POPC   GL1 2428   1.208   3.939   4.133
  172POPC   GL2 2429   0.965   4.186   4.282
  172POPC   C1A 2430   1.261   3.908   4.605
  172POPC   D2A 2431   1.108   4.103   5.007
  172POPC   C3A 2432   1.081   4.026   5.475
  172POPC   C4A 2433   0.695   3.992   5.756
  172POPC   C1B 2434   1.171   4.432   4.612
  172POPC   C2B 2435   1.199   4.628   5.038
  172POPC   C3B 2436   1.227   4.664   5.500
  172POPC   C4B 2437   1.501   4.505   5.841
  173POPC   NC3 2438   2.162   7.334   3.839
  173POPC   PO4 2439   2.407   6.680   3.812
  173POPC   GL1 2440   2.178   6.582   4.290
  173POPC   GL2 2441   1.782   6.619   4.363
  173POPC   C1A 2442   2.065   6.789   4.729
  173POPC   D2A 2443   1.987   7.086   5.087
  173POPC   C3A 2444   2.272   7.041   5.441
  173POPC   C4A 2445   2.273   6.710   5.750
  173POPC   C1B 2446   1.706   6.428   4.767
  173POPC   C2B 2447   1.640   6.474   5.192
  173POPC   C3B 2448   1.912   6.418   5.530
  173POPC   C4B 2449   1.845   6.235   5.925
  174POPC   NC3 2450   7.188   4.593   4.006
  174POPC   PO4 2451   7.567   4.055   3.942
  174POPC   GL1 2452   7.533   4.071   4.380
  174POPC   GL2 2453   7.860   4.108   4.377
  174POPC   C1A 2454   7.503   4.236   4.829
  174POPC   D2A 2455   7.462   4.155   5.298
  174POPC   C3A 2456   7.145   4.193   5.651
  174POPC   C4A 2457   7.267   4.054   6.088
  174POPC   C1B 2458   8.009   4.293   4.714
  174POPC   C2B 2459   7.972   4.367   5.147
  174POPC   C3B 2460   7.715   4.583   5.441
  174POPC   C4B 2461   7.607   4.331   5.784
  175POPC   NC3 2462   4.157   7.340   4.117
  175POPC   PO4 2463   3.918   6.788   4.089
  175POPC   GL1 2464   3.908   6.963   4.510
  175POPC   GL2 2465   3.944   7.343   4.596
  175POPC   C1A 2466   3.837   6.975   4.966
  175POPC   D2A 2467   4.157   6.970   5.316
  175POPC   C3A 2468   4.025   7.027   5.741
  175POPC   C4A 2469   4.188   7.144   6.154
  175POPC   C1B 2470   3.843   7.490   5.020
  175POPC   C2B 2471   4.079   7.478   5.423
  175POPC   C3B 2472   4.195   7.553   5.840
  175POPC   C4B 2473   3.989   7.652   6.220
  176POPC   NC3 2474   8.692   4.952   4.076
  176POPC   PO4 2475   8.288   5.390   3.669
  176POPC   GL1 2476   8.237   5.195   4.086
  176POPC   GL2 2477   8.145   4.841   4.002
  176POPC   C1A 2478   8.343   5.238   4.563
  176POPC   D2A 2479   8.255   5.232   5.021
  176POPC   C3A 2480   8.332   5.280   5.472
  176POPC   C4A 2481   8.450   5.427   5.887
  176POPC   C1B 2482   8.142   4.774   4.468
  176POPC   C2B 2483   8.267   4.732   4.905
  176POPC   C3B 2484   8.168   4.803   5.326
  176POPC   C4B 2485   8.345   4.825   5.707
  177POPC   NC3 2486   0.324   4.753   3.700
  177POPC   PO4 2487   0.226   4.092   3.853
  177POPC   GL1 2488   0.404   4.409   4.165
  177POPC   GL2 2489   0.444   4.109   4.350
  177POPC   C1A 2490   0.403   4.518   4.659
  177POPC   D2A 2491   0.693   4.460   5.078
  177POPC   C3A 2492   0.691   4.522   5.534
  177POPC   C4A 2493   0.532   4.416   5.976
  177POPC   C1B 2494   0.702   4.098   4.710
  177POPC   C2B 2495   0.634   3.965   5.165
  177POPC   C3B 2496   0.321   4.191   5.428
  177POPC   C4B 2497   0.162   4.087   5.844
  178POPC   NC3 2498   8.672   9.760   4.078
  178POPC   PO4 2499   9.281   9.461   3.863
  178POPC   GL1 2500   9.109   9.616   4.261
  178POPC   GL2 2501   9.149   9.967   4.336
  178POPC   C1A 2502   9.006   9.550   4.679
  178POPC   D2A 2503   9.164   9.372   5.045
  178POPC   C3A 2504   8.996   9.496   5.466
  178POPC   C4A 2505   9.121   9.215   5.841
  178POPC   C1B 2506   8.879   0.037   4.731
  178POPC   C2B 2507   8.961   9.965   5.206
  178POPC   C3B 2508   8.891   9.982   5.689
  178POPC   C4B 2509   8.722   9.997   6.171
  179POPC   NC3 2510   3.469   7.414   3.694
  179POPC   PO4 2511   4.067   7.665   3.760
  179POPC   GL1 2512   3.676   7.595   4.108
  179POPC   GL2 2513   3.652   7.276   4.197
  179POPC   C1A 2514   3.516   7.642   4.569
  179POPC   D2A 2515   3.260   7.755   4.947
  179POPC   C3A 2516   3.442   7.664   5.350
  179POPC   C4A 2517   3.213   7.360   5.634
  179POPC   C1B 2518   3.443   7.133   4.609
  179POPC   C2B 2519   3.390   7.237   5.050
  179POPC   C3B 2520   3.656   7.208   5.425
  179POPC   C4B 2521   3.687   7.402   5.866
  180POPC   NC3 2522   9.918   2.615   3.820
  180POPC   PO4 2523   9.916   3.211   4.165
  180POPC   GL1 2524   9.744   3.050   4.466
  180POPC   GL2 2525   9.509   2.805   4.393
  180POPC   C1A 2526   9.732   2.898   4.847
  180POPC   D2A 2527   9.572   3.094   5.165
  180POPC   C3A 2528   9.727   2.929   5.541
  180POPC   C4A 2529   9.518   3.199   5.792
  180POPC   C1B 2530   9.465   2.472   4.675
  180POPC   C2B 2531   9.450   2.529   5.114
  180POPC   C3B 2532   9.256   2.801   5.434
  180POPC   C4B 2533   9.368   2.624   5.824
  181POPC   NC3 2534   1.018   1.244   4.041
  181POPC   PO4 2535   0.874   0.696   3.644
  181POPC   GL1 2536   1.196   0.778   4.105
  181POPC   GL2 2537   1.446   0.980   4.270
  181POPC   C1A 2538   1.080   0.939   4.610
  181POPC   D2A 2539   1.015   1.296   4.917
  181POPC   C3A 2540   1.111   1.193   5.362
  181POPC   C4A 2541   1.147   1.083   5.818
  181POPC   C1B 2542   1.502   1.249   4.688
  181POPC   C2B 2543   1.500   1.455   5.129
  181POPC   C3B 2544   1.559   1.328   5.582
  181POPC   C4B 2545   1.533   1.337   6.052
  182POPC   NC3 2546   2.208   1.659   3.462
  182POPC   PO4 2547   1.942   1.806   4.011
  182POPC   GL1 2548   1.802   2.068   4.376
  182POPC   GL2 2549   1.643   2.410   4.327
  182POPC   C1A 2550   1.920   1.977   4.822
  182POPC   D2A 2551   2.285   1.858   5.108
  182POPC   C3A 2552   2.378   2.100   5.464
  182POPC   C4A 2553   2.078   2.083   5.821
  182POPC   C1B 2554   1.836   2.519   4.739
  182POPC   C2B 2555   2.025   2.364   5.146
  182POPC   C3B 2556   1.846   2.017   5.379
  182POPC   C4B 2557   1.559   2.137   5.731
  183POPC   NC3 2558   7.751   1.259   3.898
  183POPC   PO4 2559   8.357   1.537   3.637
  183POPC   GL1 2560   8.207   1.402   4.106
  183POPC   GL2 2561   8.454   1.387   4.355
  183POPC   C1A 2562   8.033   1.413   4.601
  183POPC   D2A 2563   8.115   1.451   5.095
  183POPC   C3A 2564   7.921   1.356   5.563
  183POPC   C4A 2565   7.772   1.486   6.030
  183POPC   C1B 2566   8.482   1.196   4.801
  183POPC   C2B 2567   8.499   1.137   5.271
  183POPC   C3B 2568   8.415   1.195   5.730
  183POPC   C4B 2569   8.413   0.885   6.089
  184POPC   NC3 2570   8.259   8.968   3.880
  184POPC   PO4 2571   7.588   9.097   3.824
  184POPC   GL1 2572   7.891   9.239   4.126
  184POPC   GL2 2573   7.968   8.939   4.282
  184POPC   C1A 2574   8.015   9.347   4.584
  184POPC   D2A 2575   7.869   9.352   5.024
  184POPC   C3A 2576   8.061   9.171   5.410
  184POPC   C4A 2577   7.818   8.952   5.729
  184POPC   C1B 2578   8.204   8.852   4.640
  184POPC   C2B 2579   8.287   8.872   5.058
  184POPC   C3B 2580   8.491   8.768   5.422
  184POPC   C4B 2581   8.314   8.860   5.784
  185POPC   NC3 2582   8.128   9.509   3.710
  185POPC   PO4 2583   8.359   0.138   3.933
  185POPC   GL1 2584   8.219   9.841   4.256
  185POPC   GL2 2585   7.898   9.739   4.233
  185POPC   C1A 2586   8.438   9.692   4.669
  185POPC   D2A 2587   8.643   9.613   5.051
  185POPC   C3A 2588   8.505   9.780   5.429
  185POPC   C4A 2589   8.528   9.661   5.864
  185POPC   C1B 2590   7.965   9.856   4.696
  185POPC   C2B 2591   8.061   9.803   5.158
  185POPC   C3B 2592   8.023   9.834   5.624
  185POPC   C4B 2593   7.849   0.155   5.895
  186POPC   NC3 2594   5.009   2.126   3.899
  186POPC   PO4 2595   5.148   1.434   4.079
  186POPC   GL1 2596   5.125   1.716   4.409
  186POPC   GL2 2597   5.178   2.053   4.363
  186POPC   C1A 2598   4.949   1.819   4.817
  186POPC   D2A 2599   5.143   1.911   5.212
  186POPC   C3A 2600   4.919   1.927   5.622
  186POPC   C4A 2601   4.782   1.905   6.064
  186POPC   C1B 2602   5.011   2.318   4.712
  186POPC   C2B 2603   4.892   2.342   5.135
  186POPC   C3B 2604   5.166   2.360   5.517
  186POPC   C4B 2605   5.195   2.208   5.947
  187POPC   NC3 2606   3.380   2.876   3.815
  187POPC   PO4 2607   4.009   3.177   3.922
  187POPC   GL1 2608   3.824   3.081   4.311
  187POPC   GL2 2609   3.694   2.754   4.310
  187POPC   C1A 2610   3.611   3.091   4.753
  187POPC   D2A 2611   3.296   2.898   5.054
  187POPC   C3A 2612   3.358   2.945   5.502
  187POPC   C4A 2613   3.442   3.285   5.845
  187POPC   C1B 2614   3.592   2.561   4.733
  187POPC   C2B 2615   3.422   2.408   5.171
  187POPC   C3B 2616   3.364   2.428   5.649
  187POPC   C4B 2617   3.610   2.312   6.046
  188POPC   NC3 2618   2.846   8.062   3.786
  188POPC   PO4 2619   2.228   7.833   3.785
  188POPC   GL1 2620   2.460   8.095   4.179
  188POPC   GL2 2621   2.805   7.951   4.294
  188POPC   C1A 2622   2.427   8.110   4.664
  188POPC   D2A 2623   2.227   8.023   5.082
  188POPC   C3A 2624   2.480   8.066   5.464
  188POPC   C4A 2625   2.490   8.413   5.766
  188POPC   C1B 2626   2.875   8.332   4.553
  188POPC   C2B 2627   2.846   8.563   4.955
  188POPC   C3B 2628   2.856   8.430   5.395
  188POPC   C4B 2629   2.947   8.199   5.784
  189POPC   NC3 2630   9.382   5.040   3.875
  189POPC   PO4 2631   9.976   5.313   4.012
  189POPC   GL1 2632   9.710   5.004   4.276
  189POPC   GL2 2633   9.533   4.668   4.268
  189POPC   C1A 2634   9.552   4.987   4.697
  189POPC   D2A 2635   9.646   5.127   5.103
  189POPC   C3A 2636   9.502   4.887   5.474
  189POPC   C4A 2637   9.399   5.103   5.855
  189POPC   C1B 2638   9.668   4.496   4.690
  189POPC   C2B 2639   9.850   4.652   5.098
  189POPC   C3B 2640   0.033   4.961   5.396
  189POPC   C4B 2641   9.888   5.000   5.817
  190POPC   NC3 2642   8.731   1.257   3.705
  190POPC   PO4 2643   9.321   1.401   3.897
  190POPC   GL1 2644   8.933   1.333   4.181
  190POPC   GL2 2645   8.710   1.001   4.166
  190POPC   C1A 2646   8.873   1.481   4.633
  190POPC   D2A 2647   9.088   1.501   5.043
  190POPC   C3A 2648   8.934   1.364   5.434
  190POPC   C4A 2649   9.150   1.410   5.813
  190POPC   C1B 2650   8.905   0.967   4.546
  190POPC   C2B 2651   9.054   0.986   4.966
  190POPC   C3B 2652   8.953   0.863   5.384
  190POPC   C4B 2653   8.871   0.942   5.835
  191POPC   NC3 2654   0.749   2.761   4.061
  191POPC   PO4 2655   1.378   2.433   3.871
  191POPC   GL1 2656   1.266   2.762   4.180
  191POPC   GL2 2657   1.306   3.080   4.032
  191POPC   C1A 2658   1.111   2.966   4.597
  191POPC   D2A 2659   0.916   2.901   5.031
  191POPC   C3A 2660   1.109   2.743   5.392
  191POPC   C4A 2661   1.489   2.709   5.638
  191POPC   C1B 2662   1.563   3.150   4.423
  191POPC   C2B 2663   1.576   2.992   4.887
  191POPC   C3B 2664   1.452   3.141   5.329
  191POPC   C4B 2665   1.174   3.135   5.733
  192POPC   NC3 2666   1.900   9.754   3.795
  192POPC   PO4 2667   1.331   9.672   4.070
  192POPC   GL1 2668   1.750   9.623   4.262
  192POPC   GL2 2669   2.092   9.785   4.257
  192POPC   C1A 2670   1.869   9.517   4.669
  192POPC   D2A 2671   1.762   9.362   5.059
  192POPC   C3A 2672   1.875   9.533   5.484
  192POPC   C4A 2673   1.666   9.340   5.857
  192POPC   C1B 2674   2.264   9.818   4.647
  192POPC   C2B 2675   2.382   0.023   4.966
  192POPC   C3B 2676   2.243   0.146   5.351
  192POPC   C4B 2677   2.098   9.973   5.711
  193POPC   NC3 2678   7.967   6.249   4.025
  193POPC   PO4 2679   8.375   6.683   3.703
  193POPC   GL1 2680   8.283   6.737   4.195
  193POPC   GL2 2681   7.965   6.913   4.340
  193POPC   C1A 2682   8.311   6.620   4.668
  193POPC   D2A 2683   8.454   6.473   5.129
  193POPC   C3A 2684   8.460   6.642   5.586
  193POPC   C4A 2685   8.309   6.456   6.013
  193POPC   C1B 2686   7.908   6.936   4.806
  193POPC   C2B 2687   7.951   6.547   5.050
  193POPC   C3B 2688   8.010   6.418   5.479
  193POPC   C4B 2689   7.935   6.725   5.795
  194POPC   NC3 2690   7.837   5.393   3.803
  194POPC   PO4 2691   7.582   4.785   3.910
  194POPC   GL1 2692   7.663   4.600   4.350
  194POPC   GL2 2693   7.346   4.604   4.521
  194POPC   C1A 2694   7.758   4.711   4.815
  194POPC   D2A 2695   7.773   5.050   5.117
  194POPC   C3A 2696   7.838   5.091   5.585
  194POPC   C4A 2697   7.929   5.424   5.867
  194POPC   C1B 2698   7.288   4.768   4.990
  194POPC   C2B 2699   7.363   4.978   5.419
  194POPC   C3B 2700   7.319   4.775   5.829
  194POPC   C4B 2701   7.043   4.484   6.102
  195POPC   NC3 2702   3.542   1.901   3.970
  195POPC   PO4 2703   3.687   2.510   3.840
  195POPC   GL1 2704   3.770   2.247   4.263
  195POPC   GL2 2705   3.410   2.250   4.340
  195POPC   C1A 2706   3.917   1.841   4.559
  195POPC   D2A 2707   4.091   1.713   5.015
  195POPC   C3A 2708   3.861   1.623   5.472
  195POPC   C4A 2709   3.621   1.692   5.924
  195POPC   C1B 2710   3.490   2.047   4.727
  195POPC   C2B 2711   3.646   1.952   5.120
  195POPC   C3B 2712   3.460   1.956   5.513
  195POPC   C4B 2713   3.149   1.684   5.671
  196POPC   NC3 2714   4.698   1.385   4.007
  196POPC   PO4 2715   4.003   1.566   3.928
  196POPC   GL1 2716   3.966   1.349   4.323
  196POPC   GL2 2717   4.295   1.216   4.292
  196POPC   C1A 2718   4.050   1.256   4.765
  196POPC   D2A 2719   4.067   1.174   5.213
  196POPC   C3A 2720   4.349   1.479   5.404
  196POPC   C4A 2721   4.594   1.475   5.761
  196POPC   C1B 2722   4.495   1.005   4.644
  196POPC   C2B 2723   4.583   1.103   5.069
  196POPC   C3B 2724   4.520   1.006   5.491
  196POPC   C4B 2725   4.156   1.156   5.759
  197POPC   NC3 2726   7.405   7.731   3.717
  197POPC   PO4 2727   6.880   7.965   4.074
  197POPC   GL1 2728   7.080   8.179   4.391
  197POPC   GL2 2729   7.340   8.435   4.344
  197POPC   C1A 2730   7.020   8.356   4.776
  197POPC   D2A 2731   7.248   8.553   5.094
  197POPC   C3A 2732   7.138   8.299   5.443
  197POPC   C4A 2733   7.335   7.994   5.690
  197POPC   C1B 2734   7.496   8.210   4.750
  197POPC   C2B 2735   7.590   8.163   5.204
  197POPC   C3B 2736   7.799   8.144   5.609
  197POPC   C4B 2737   7.636   8.212   6.039
  198POPC   NC3 2738   9.017   3.420   3.635
  198POPC   PO4 2739   9.302   3.935   4.001
  198POPC   GL1 2740   9.169   3.758   4.355
  198POPC   GL2 2741   8.961   3.522   4.173
  198POPC   C1A 2742   9.097   3.643   4.823
  198POPC   D2A 2743   9.097   3.304   5.112
  198POPC   C3A 2744   9.040   3.416   5.554
  198POPC   C4A 2745   9.121   3.432   6.011
  198POPC   C1B 2746   8.692   3.650   4.512
  198POPC   C2B 2747   8.621   3.569   4.981
  198POPC   C3B 2748   8.527   3.472   5.405
  198POPC   C4B 2749   8.626   3.500   5.837
  199POPC   NC3 2750   1.858   9.090   3.743
  199POPC   PO4 2751   2.346   9.474   3.915
  199POPC   GL1 2752   2.139   9.271   4.256
  199POPC   GL2 2753   2.125   8.910   4.227
  199POPC   C1A 2754   2.278   9.228   4.684
  199POPC   D2A 2755   2.140   8.958   5.024
  199POPC   C3A 2756   1.961   9.035   5.422
  199POPC   C4A 2757   2.179   9.015   5.813
  199POPC   C1B 2758   1.846   8.965   4.597
  199POPC   C2B 2759   1.586   8.868   4.999
  199POPC   C3B 2760   1.534   8.724   5.450
  199POPC   C4B 2761   1.692   8.835   5.861
  200POPC   NC3 2762   7.917   0.384   4.118
  200POPC   PO4 2763   7.661   0.829   3.745
  200POPC   GL1 2764   8.053   0.874   4.078
  200POPC   GL2 2765   8.358   0.604   4.215
  200POPC   C1A 2766   8.115   0.919   4.538
  200POPC   D2A 2767   7.892   1.014   4.946
  200POPC   C3A 2768   7.936   0.715   5.326
  200POPC   C4A 2769   8.030   0.613   5.771
  200POPC   C1B 2770   8.323   0.222   4.580
  200POPC   C2B 2771   8.437   0.124   5.004
  200POPC   C3B 2772   8.225   0.247   5.389
  200POPC   C4B 2773   8.393   0.170   5.786
  201POPC   NC3 2774   8.933   9.281   3.610
  201POPC   PO4 2775   8.405   9.381   4.053
  201POPC   GL1 2776   8.693   9.299   4.339
  201POPC   GL2 2777   8.972   9.139   4.146
  201POPC   C1A 2778   8.604   9.190   4.763
  201POPC   D2A 2779   8.744   9.130   5.188
  201POPC   C3A 2780   8.570   9.245   5.597
  201POPC   C4A 2781   8.534   9.200   6.088
  201POPC   C1B 2782   9.096   9.048   4.603
  201POPC   C2B 2783   9.095   8.797   5.012
  201POPC   C3B 2784   9.074   8.855   5.470
  201POPC   C4B 2785   8.821   8.814   5.832
  202POPC   NC3 2786   7.436   3.626   3.967
  202POPC   PO4 2787   7.705   3.083   3.753
  202POPC   GL1 2788   7.493   3.170   4.195
  202POPC   GL2 2789   7.437   3.459   4.434
  202POPC   C1A 2790   7.369   3.020   4.676
  202POPC   D2A 2791   7.262   3.104   5.139
  202POPC   C3A 2792   7.488   3.227   5.554
  202POPC   C4A 2793   7.369   3.348   6.006
  202POPC   C1B 2794   7.371   3.688   4.822
  202POPC   C2B 2795   7.296   3.628   5.269
  202POPC   C3B 2796   7.421   3.754   5.686
  202POPC   C4B 2797   7.737   3.890   5.980
  203POPC   NC3 2798   5.576   0.042   3.527
  203POPC   PO4 2799   5.491   0.495   4.074
  203POPC   GL1 2800   5.866   0.591   4.311
  203POPC   GL2 2801   5.855   0.896   4.498
  203POPC   C1A 2802   6.133   0.487   4.664
  203POPC   D2A 2803   6.153   0.115   4.913
  203POPC   C3A 2804   6.184   0.148   5.370
  203POPC   C4A 2805   6.046   0.207   5.803
  203POPC   C1B 2806   5.676   0.653   4.811
  203POPC   C2B 2807   5.835   0.451   5.141
  203POPC   C3B 2808   5.738   0.514   5.549
  203POPC   C4B 2809   5.385   0.768   5.675
  204POPC   NC3 2810   4.430   7.925   3.681
  204POPC   PO4 2811   4.111   7.756   4.280
  204POPC   GL1 2812   3.845   8.019   4.497
  204POPC   GL2 2813   4.069   8.267   4.414
  204POPC   C1A 2814   3.715   7.980   4.918
  204POPC   D2A 2815   3.948   7.954   5.262
  204POPC   C3A 2816   3.815   7.871   5.652
  204POPC   C4A 2817   4.082   8.056   5.886
  204POPC   C1B 2818   4.489   8.298   4.623
  204POPC   C2B 2819   4.538   8.349   5.070
  204POPC   C3B 2820   4.384   8.250   5.492
  204POPC   C4B 2821   4.397   8.454   5.902
  205POPC   NC3 2822   5.739   8.328   3.979
  205POPC   PO4 2823   6.151   7.804   3.944
  205POPC   GL1 2824   5.930   7.970   4.354
  205POPC   GL2 2825   5.804   8.327   4.461
  205POPC   C1A 2826   6.033   8.115   4.818
  205POPC   D2A 2827   5.851   8.417   5.126
  205POPC   C3A 2828   5.969   8.349   5.572
  205POPC   C4A 2829   6.038   8.059   5.943
  205POPC   C1B 2830   5.534   8.080   4.773
  205POPC   C2B 2831   5.433   8.153   5.240
  205POPC   C3B 2832   5.565   8.054   5.681
  205POPC   C4B 2833   5.555   7.996   6.147
  206POPC   NC3 2834   9.633   9.200   3.991
  206POPC   PO4 2835   0.027   8.696   3.881
  206POPC   GL1 2836   9.997   8.982   4.251
  206POPC   GL2 2837   9.683   8.861   4.370
  206POPC   C1A 2838   9.996   9.122   4.686
  206POPC   D2A 2839   0.195   9.207   5.082
  206POPC   C3A 2840   0.014   9.337   5.479
  206POPC   C4A 2841   9.772   9.240   5.853
  206POPC   C1B 2842   9.565   8.866   4.802
  206POPC   C2B 2843   9.562   8.840   5.241
  206POPC   C3B 2844   9.562   8.810   5.680
  206POPC   C4B 2845   9.297   8.674   6.019
  207POPC   NC3 2846   2.890   1.339   4.032
  207POPC   PO4 2847   2.323   0.966   3.930
  207POPC   GL1 2848   2.674   0.962   4.292
  207POPC   GL2 2849   2.820   1.262   4.520
  207POPC   C1A 2850   2.625   0.876   4.774
  207POPC   D2A 2851   2.722   1.152   5.105
  207POPC   C3A 2852   2.472   1.161   5.453
  207POPC   C4A 2853   2.483   1.003   5.854
  207POPC   C1B 2854   3.163   1.205   4.836
  207POPC   C2B 2855   3.194   1.081   5.270
  207POPC   C3B 2856   2.975   1.163   5.654
  207POPC   C4B 2857   2.758   1.436   5.862
  208POPC   NC3 2858   6.379   9.020   4.127
  208POPC   PO4 2859   6.913   8.904   3.731
  208POPC   GL1 2860   6.785   8.762   4.266
  208POPC   GL2 2861   6.707   9.093   4.530
  208POPC   C1A 2862   6.647   8.689   4.758
  208POPC   D2A 2863   6.745   8.514   5.195
  208POPC   C3A 2864   6.766   8.643   5.633
  208POPC   C4A 2865   6.812   8.631   6.083
  208POPC   C1B 2866   6.324   9.100   4.796
  208POPC   C2B 2867   6.363   9.214   5.216
  208POPC   C3B 2868   6.652   9.135   5.519
  208POPC   C4B 2869   6.532   9.009   5.918
  209POPC   NC3 2870   2.948   5.750   3.966
  209POPC   PO4 2871   2.274   5.789   3.930
  209POPC   GL1 2872   2.402   5.894   4.296
  209POPC   GL2 2873   2.640   6.133   4.267
  209POPC   C1A 2874   2.395   5.719   4.698
  209POPC   D2A 2875   2.383   5.967   5.074
  209POPC   C3A 2876   2.467   5.761   5.460
  209POPC   C4A 2877   2.562   5.676   5.889
  209POPC   C1B 2878   2.798   6.039   4.711
  209POPC   C2B 2879   2.863   5.868   5.152
  209POPC   C3B 2880   2.863   6.019   5.613
  209POPC   C4B 2881   2.968   5.954   6.053
  210POPC   NC3 2882   1.203   7.478   3.869
  210POPC   PO4 2883   0.905   6.882   3.956
  210POPC   GL1 2884   1.028   7.170   4.266
  210POPC   GL2 2885   0.828   7.492   4.264
  210POPC   C1A 2886   1.166   7.226   4.702
  210POPC   D2A 2887   1.138   7.344   5.145
  210POPC   C3A 2888   1.217   7.120   5.539
  210POPC   C4A 2889   1.374   6.992   5.974
  210POPC   C1B 2890   0.941   7.690   4.665
  210POPC   C2B 2891   1.222   7.829   5.026
  210POPC   C3B 2892   1.274   7.713   5.470
  210POPC   C4B 2893   1.423   7.481   5.832
  211POPC   NC3 2894   2.035   7.753   4.210
  211POPC   PO4 2895   1.650   7.330   3.874
  211POPC   GL1 2896   1.771   7.117   4.222
  211POPC   GL2 2897   2.113   7.073   4.263
  211POPC   C1A 2898   1.667   7.111   4.638
  211POPC   D2A 2899   1.584   7.449   4.926
  211POPC   C3A 2900   1.645   7.369   5.363
  211POPC   C4A 2901   1.899   7.287   5.717
  211POPC   C1B 2902   2.132   7.286   4.631
  211POPC   C2B 2903   2.072   7.578   4.914
  211POPC   C3B 2904   2.142   7.561   5.339
  211POPC   C4B 2905   2.334   7.604   5.729
  212POPC   NC3 2906   9.483   1.833   3.944
  212POPC   PO4 2907   9.515   2.478   4.011
  212POPC   GL1 2908   9.709   2.146   4.316
  212POPC   GL2 2909   9.905   1.809   4.255
  212POPC   C1A 2910   9.719   2.047   4.780
  212POPC   D2A 2911   9.806   2.146   5.217
  212POPC   C3A 2912   9.485   2.187   5.552
  212POPC   C4A 2913   9.325   2.041   5.964
  212POPC   C1B 2914   9.739   1.561   4.634
  212POPC   C2B 2915   9.584   1.651   5.092
  212POPC   C3B 2916   9.543   1.660   5.536
  212POPC   C4B 2917   9.793   1.841   5.867
  213POPC   NC3 2918   2.017   5.386   3.963
  213POPC   PO4 2919   2.476   4.909   4.021
  213POPC   GL1 2920   2.128   5.059   4.344
  213POPC   GL2 2921   1.766   4.986   4.252
  213POPC   C1A 2922   1.815   5.339   4.626
  213POPC   D2A 2923   1.641   5.561   5.017
  213POPC   C3A 2924   1.789   5.470   5.441
  213POPC   C4A 2925   2.161   5.407   5.682
  213POPC   C1B 2926   1.610   4.725   4.589
  213POPC   C2B 2927   1.703   4.689   5.024
  213POPC   C3B 2928   1.779   4.689   5.463
  213POPC   C4B 2929   2.059   4.862   5.794
  214POPC   NC3 2930   1.344   8.455   4.030
  214POPC   PO4 2931   0.904   7.881   3.922
  214POPC   GL1 2932   1.069   8.097   4.317
  214POPC   GL2 2933   1.462   8.092   4.365
  214POPC   C1A 2934   0.966   8.190   4.776
  214POPC   D2A 2935   0.728   7.981   5.144
  214POPC   C3A 2936   0.872   8.049   5.570
  214POPC   C4A 2937   1.120   7.888   5.930
  214POPC   C1B 2938   1.429   8.411   4.708
  214POPC   C2B 2939   1.319   8.343   5.139
  214POPC   C3B 2940   1.417   8.200   5.555
  214POPC   C4B 2941   1.673   8.312   5.898
  215POPC   NC3 2942   5.106   8.643   3.518
  215POPC   PO4 2943   4.786   8.994   3.996
  215POPC   GL1 2944   4.884   8.850   4.387
  215POPC   GL2 2945   5.188   8.830   4.362
  215POPC   C1A 2946   4.843   8.677   4.778
  215POPC   D2A 2947   4.705   8.835   5.134
  215POPC   C3A 2948   4.693   8.671   5.534
  215POPC   C4A 2949   4.868   8.668   5.949
  215POPC   C1B 2950   5.184   9.068   4.759
  215POPC   C2B 2951   5.046   9.216   5.164
  215POPC   C3B 2952   5.061   9.043   5.577
  215POPC   C4B 2953   5.044   9.137   6.009
  216POPC   NC3 2954   2.852   6.614   3.744
  216POPC   PO4 2955   3.281   7.079   3.958
  216POPC   GL1 2956   3.043   6.898   4.343
  216POPC   GL2 2957   2.734   6.633   4.276
  216POPC   C1A 2958   2.963   7.024   4.810
  216POPC   D2A 2959   2.637   6.802   5.099
  216POPC   C3A 2960   2.736   6.778   5.549
  216POPC   C4A 2961   3.013   6.873   5.918
  216POPC   C1B 2962   2.477   6.452   4.664
  216POPC   C2B 2963   2.234   6.455   5.067
  216POPC   C3B 2964   2.433   6.332   5.438
  216POPC   C4B 2965   2.377   6.171   5.817
  217POPC   NC3 2966   2.854   3.824   3.355
  217POPC   PO4 2967   2.863   4.105   3.999
  217POPC   GL1 2968   2.750   4.310   4.435
  217POPC   GL2 2969   2.476   4.604   4.462
  217POPC   C1A 2970   2.912   4.281   4.913
  217POPC   D2A 2971   3.102   3.983   5.271
  217POPC   C3A 2972   2.991   3.921   5.721
  217POPC   C4A 2973   2.743   4.095   6.088
  217POPC   C1B 2974   2.417   4.323   4.818
  217POPC   C2B 2975   2.437   4.065   5.158
  217POPC   C3B 2976   2.553   4.142   5.589
  217POPC   C4B 2977   2.419   4.479   5.901
  218POPC   NC3 2978   3.058   7.490   4.147
  218POPC   PO4 2979   2.448   7.593   4.165
  218POPC   GL1 2980   2.639   7.392   4.415
  218POPC   GL2 2981   2.617   7.105   4.142
  218POPC   C1A 2982   2.771   7.653   4.766
  218POPC   D2A 2983   2.812   8.041   5.008
  218POPC   C3A 2984   2.981   7.896   5.383
  218POPC   C4A 2985   2.835   7.694   5.759
  218POPC   C1B 2986   2.516   6.959   4.594
  218POPC   C2B 2987   2.495   7.262   4.981
  218POPC   C3B 2988   2.720   7.320   5.380
  218POPC   C4B 2989   2.656   7.212   5.812
  219POPC   NC3 2990   2.537   4.450   3.988
  219POPC   PO4 2991   1.951   4.099   4.097
  219POPC   GL1 2992   2.180   4.173   4.395
  219POPC   GL2 2993   1.990   4.405   4.570
  219POPC   C1A 2994   2.083   3.939   4.776
  219POPC   D2A 2995   1.926   3.911   5.177
  219POPC   C3A 2996   2.207   3.784   5.524
  219POPC   C4A 2997   2.282   3.889   5.969
  219POPC   C1B 2998   1.629   4.220   4.811
  219POPC   C2B 2999   1.506   4.257   5.251
  219POPC   C3B 3000   1.666   4.087   5.578
  219POPC   C4B 3001   2.058   4.263   5.611
  220POPC   NC3 3002   5.603   9.959   4.088
  220POPC   PO4 3003   6.262   0.075   3.873
  220POPC   GL1 3004   6.072   0.117   4.311
  220POPC   GL2 3005   5.986   9.801   4.421
  220POPC   C1A 3006   5.713   0.166   4.674
  220POPC   D2A 3007   5.510   0.016   5.068
  220POPC   C3A 3008   5.709   9.970   5.473
  220POPC   C4A 3009   5.829   9.745   5.852
  220POPC   C1B 3010   5.892   9.673   4.849
  220POPC   C2B 3011   5.974   9.550   5.284
  220POPC   C3B 3012   5.732   9.303   5.578
  220POPC   C4B 3013   5.437   9.410   5.884
  221POPC   NC3 3014   9.752   4.049   3.885
  221POPC   PO4 3015   9.957   4.625   3.977
  221POPC   GL1 3016   9.938   4.275   4.297
  221POPC   GL2 3017   9.634   4.100   4.372
  221POPC   C1A 3018   0.056   4.115   4.705
  221POPC   D2A 3019   9.804   4.142   5.057
  221POPC   C3A 3020   9.825   4.035   5.470
  221POPC   C4A 3021   9.910   4.486   5.632
  221POPC   C1B 3022   9.411   4.041   4.754
  221POPC   C2B 3023   9.339   4.034   5.217
  221POPC   C3B 3024   9.411   4.300   5.616
  221POPC   C4B 3025   9.684   4.155   5.988
  222POPC   NC3 3026   9.397   3.188   4.098
  222POPC   PO4 3027   9.884   3.348   3.685
  222POPC   GL1 3028   9.662   3.619   4.147
  222POPC   GL2 3029   9.944   3.702   4.423
  222POPC   C1A 3030   9.535   3.528   4.622
  222POPC   D2A 3031   9.664   3.651   5.031
  222POPC   C3A 3032   9.507   3.560   5.408
  222POPC   C4A 3033   9.365   3.805   5.739
  222POPC   C1B 3034   0.005   3.382   4.775
  222POPC   C2B 3035   0.067   3.186   5.152
  222POPC   C3B 3036   9.974   3.368   5.518
  222POPC   C4B 3037   9.833   3.634   5.840
  223POPC   NC3 3038   1.230   0.152   4.059
  223POPC   PO4 3039   0.730   0.658   4.152
  223POPC   GL1 3040   1.095   0.429   4.471
  223POPC   GL2 3041   1.469   0.445   4.403
  223POPC   C1A 3042   1.382   0.271   4.865
  223POPC   D2A 3043   1.179   0.213   5.229
  223POPC   C3A 3044   1.263   0.150   5.641
  223POPC   C4A 3045   0.894   0.216   5.900
  223POPC   C1B 3046   1.519   0.730   4.717
  223POPC   C2B 3047   1.289   0.776   5.096
  223POPC   C3B 3048   1.281   0.662   5.538
  223POPC   C4B 3049   1.267   0.547   5.988
  224POPC   NC3 3050   8.102   3.036   3.509
  224POPC   PO4 3051   8.587   3.491   3.791
  224POPC   GL1 3052   8.291   3.532   4.216
  224POPC   GL2 3053   7.906   3.620   4.218
  224POPC   C1A 3054   8.280   3.368   4.650
  224POPC   D2A 3055   8.117   3.475   5.068
  224POPC   C3A 3056   8.097   3.189   5.427
  224POPC   C4A 3057   8.196   3.165   5.879
  224POPC   C1B 3058   7.855   3.672   4.649
  224POPC   C2B 3059   7.818   3.890   5.030
  224POPC   C3B 3060   7.893   3.923   5.478
  224POPC   C4B 3061   8.118   3.642   5.758
  225POPC   NC3 3062   6.554   9.673   3.969
  225POPC   PO4 3063   6.030   9.320   4.234
  225POPC   GL1 3064   6.407   9.489   4.427
  225POPC   GL2 3065   6.564   9.836   4.440
  225POPC   C1A 3066   6.620   9.518   4.827
  225POPC   D2A 3067   6.754   9.551   5.232
  225POPC   C3A 3068   6.428   9.703   5.491
  225POPC   C4A 3069   6.211   9.382   5.737
  225POPC   C1B 3070   6.985   9.883   4.714
  225POPC   C2B 3071   7.114   9.891   5.194
  225POPC   C3B 3072   6.914   9.851   5.628
  225POPC   C4B 3073   6.715   9.507   5.862
  226POPC   NC3 3074   9.896   5.795   3.962
  226POPC   PO4 3075   9.264   5.488   3.865
  226POPC   GL1 3076   9.526   5.487   4.229
  226POPC   GL2 3077   9.453   5.822   4.263
  226POPC   C1A 3078   9.704   5.496   4.680
  226POPC   D2A 3079   9.555   5.623   5.134
  226POPC   C3A 3080   9.707   5.413   5.543
  226POPC   C4A 3081   9.893   5.467   5.996
  226POPC   C1B 3082   9.469   5.950   4.691
  226POPC   C2B 3083   9.829   6.026   4.918
  226POPC   C3B 3084   9.937   5.903   5.315
  226POPC   C4B 3085   9.662   5.925   5.623
  227POPC   NC3 3086   8.952   5.830   4.037
  227POPC   PO4 3087   9.257   6.416   3.942
  227POPC   GL1 3088   9.123   6.204   4.383
  227POPC   GL2 3089   8.993   5.848   4.525
  227POPC   C1A 3090   9.053   6.210   4.849
  227POPC   D2A 3091   9.091   5.799   5.048
  227POPC   C3A 3092   9.172   5.833   5.486
  227POPC   C4A 3093   9.219   6.075   5.845
  227POPC   C1B 3094   8.736   5.533   4.750
  227POPC   C2B 3095   8.742   5.419   5.152
  227POPC   C3B 3096   8.705   5.638   5.510
  227POPC   C4B 3097   8.770   5.845   5.902
  228POPC   NC3 3098   8.485   3.107   4.033
  228POPC   PO4 3099   8.076   2.633   3.742
  228POPC   GL1 3100   8.031   2.774   4.170
  228POPC   GL2 3101   8.001   3.110   4.156
  228POPC   C1A 3102   8.186   2.793   4.628
  228POPC   D2A 3103   8.128   2.619   5.061
  228POPC   C3A 3104   8.458   2.597   5.381
  228POPC   C4A 3105   8.432   2.409   5.823
  228POPC   C1B 3106   7.840   3.159   4.548
  228POPC   C2B 3107   7.800   3.063   4.973
  228POPC   C3B 3108   7.740   2.825   5.339
  228POPC   C4B 3109   8.053   2.719   5.679
  229POPC   NC3 3110   5.964   2.862   3.972
  229POPC   PO4 3111   5.364   3.113   4.043
  229POPC   GL1 3112   5.658   2.952   4.372
  229POPC   GL2 3113   5.659   2.590   4.329
  229POPC   C1A 3114   5.994   2.982   4.723
  229POPC   D2A 3115   6.246   2.760   5.062
  229POPC   C3A 3116   6.183   2.840   5.505
  229POPC   C4A 3117   5.896   2.817   5.849
  229POPC   C1B 3118   5.846   2.488   4.728
  229POPC   C2B 3119   6.074   2.286   5.033
  229POPC   C3B 3120   6.029   2.329   5.472
  229POPC   C4B 3121   5.657   2.366   5.733
  230POPC   NC3 3122   1.274   6.046   3.828
  230POPC   PO4 3123   0.949   5.575   3.725
  230POPC   GL1 3124   1.022   5.797   4.176
  230POPC   GL2 3125   1.393   5.770   4.225
  230POPC   C1A 3126   1.089   5.997   4.616
  230POPC   D2A 3127   0.841   6.009   5.013
  230POPC   C3A 3128   0.986   6.031   5.420
  230POPC   C4A 3129   0.994   6.237   5.811
  230POPC   C1B 3130   1.322   5.546   4.608
  230POPC   C2B 3131   1.131   5.579   5.024
  230POPC   C3B 3132   1.288   5.600   5.419
  230POPC   C4B 3133   1.140   5.730   5.809
  231POPC   NC3 3134   4.941   8.527   4.013
  231POPC   PO4 3135   5.442   7.971   4.030
  231POPC   GL1 3136   5.318   8.319   4.320
  231POPC   GL2 3137   4.997   8.315   4.467
  231POPC   C1A 3138   5.375   8.556   4.742
  231POPC   D2A 3139   5.204   8.695   5.167
  231POPC   C3A 3140   5.282   8.530   5.598
  231POPC   C4A 3141   5.189   8.277   5.953
  231POPC   C1B 3142   5.023   8.224   4.929
  231POPC   C2B 3143   4.920   8.230   5.397
  231POPC   C3B 3144   4.749   8.075   5.818
  231POPC   C4B 3145   4.957   7.857   6.186
  232POPC   NC3 3146   7.150   1.879   3.641
  232POPC   PO4 3147   7.610   2.134   4.056
  232POPC   GL1 3148   7.581   2.058   4.464
  232POPC   GL2 3149   7.656   1.700   4.359
  232POPC   C1A 3150   7.322   1.972   4.864
  232POPC   D2A 3151   7.277   1.978   5.319
  232POPC   C3A 3152   6.960   2.233   5.560
  232POPC   C4A 3153   6.920   2.134   5.987
  232POPC   C1B 3154   7.799   1.789   4.815
  232POPC   C2B 3155   7.661   1.652   5.216
  232POPC   C3B 3156   7.669   1.812   5.635
  232POPC   C4B 3157   7.390   2.112   5.807
  233POPC   NC3 3158   0.498   0.932   3.857
  233POPC   PO4 3159   0.739   1.621   3.948
  233POPC   GL1 3160   0.536   1.288   4.236
  233POPC   GL2 3161   0.168   1.262   4.190
  233POPC   C1A 3162   0.572   1.046   4.662
  233POPC   D2A 3163   0.762   0.869   5.077
  233POPC   C3A 3164   0.702   0.944   5.556
  233POPC   C4A 3165   0.618   1.201   5.955
  233POPC   C1B 3166   0.237   1.423   4.636
  233POPC   C2B 3167   0.466   1.359   5.053
  233POPC   C3B 3168   0.426   1.386   5.505
  233POPC   C4B 3169   0.169   1.497   5.866
  234POPC   NC3 3170   3.009   3.673   3.864
  234POPC   PO4 3171   2.459   3.966   3.564
  234POPC   GL1 3172   2.429   3.847   4.067
  234POPC   GL2 3173   2.596   3.516   4.183
  234POPC   C1A 3174   2.537   3.860   4.550
  234POPC   D2A 3175   2.802   3.794   4.906
  234POPC   C3A 3176   2.691   3.665   5.337
  234POPC   C4A 3177   2.642   3.539   5.753
  234POPC   C1B 3178   2.750   3.378   4.623
  234POPC   C2B 3179   3.036   3.358   5.028
  234POPC   C3B 3180   3.083   3.389   5.494
  234POPC   C4B 3181   2.965   3.079   5.827
  235POPC   NC3 3182   0.303   3.203   3.896
  235POPC   PO4 3183   0.383   2.502   3.871
  235POPC   GL1 3184   0.224   2.806   4.210
  235POPC   GL2 3185   9.976   2.596   4.356
  235POPC   C1A 3186   0.221   2.939   4.679
  235POPC   D2A 3187   0.415   2.813   5.080
  235POPC   C3A 3188   0.217   2.784   5.501
  235POPC   C4A 3189   0.172   3.081   5.885
  235POPC   C1B 3190   0.016   2.461   4.805
  235POPC   C2B 3191   0.313   2.280   5.117
  235POPC   C3B 3192   0.657   2.453   5.385
  235POPC   C4B 3193   0.699   2.744   5.735
  236POPC   NC3 3194   1.890   1.315   4.019
  236POPC   PO4 3195   1.681   0.605   3.985
  236POPC   GL1 3196   1.926   0.828   4.317
  236POPC   GL2 3197   2.251   0.724   4.415
  236POPC   C1A 3198   1.960   0.949   4.768
  236POPC   D2A 3199   1.747   1.014   5.136
  236POPC   C3A 3200   1.799   0.766   5.485
  236POPC   C4A 3201   1.636   0.874   5.866
  236POPC   C1B 3202   2.311   1.203   4.538
  236POPC   C2B 3203   2.264   1.349   4.971
  236POPC   C3B 3204   2.020   1.426   5.336
  236POPC   C4B 3205   2.028   1.191   5.727
  237POPC   NC3 3206   2.715   9.782   3.903
  237POPC   PO4 3207   3.089   9.194   4.088
  237POPC   GL1 3208   2.875   9.388   4.474
  237POPC   GL2 3209   2.586   9.571   4.364
  237POPC   C1A 3210   2.662   9.543   4.876
  237POPC   D2A 3211   2.263   9.524   5.114
  237POPC   C3A 3212   2.408   9.356   5.506
  237POPC   C4A 3213   2.837   9.325   5.695
  237POPC   C1B 3214   2.828   9.906   4.559
  237POPC   C2B 3215   2.899   0.018   4.998
  237POPC   C3B 3216   2.663   9.794   5.340
  237POPC   C4B 3217   2.595   9.782   5.769
  238POPC   NC3 3218   7.871   4.402   3.924
  238POPC   PO4 3219   8.534   4.486   3.965
  238POPC   GL1 3220   8.292   4.352   4.244
  238POPC   GL2 3221   8.368   4.023   4.278
  238POPC   C1A 3222   8.500   4.381   4.630
  238POPC   D2A 3223   8.752   4.496   4.971
  238POPC   C3A 3224   8.494   4.418   5.335
  238POPC   C4A 3225   8.147   4.347   5.656
  238POPC   C1B 3226   8.308   3.895   4.730
  238POPC   C2B 3227   8.314   3.955   5.177
  238POPC   C3B 3228   8.474   3.958   5.596
  238POPC   C4B 3229   8.392   3.990   6.041
  239POPC   NC3 3230   9.612   6.712   3.919
  239POPC   PO4 3231   9.922   6.163   4.237
  239POPC   GL1 3232   9.707   6.527   4.405
  239POPC   GL2 3233   9.902   6.866   4.312
  239POPC   C1A 3234   9.515   6.460   4.822
  239POPC   D2A 3235   9.440   6.199   5.212
  239POPC   C3A 3236   9.514   6.425   5.613
  239POPC   C4A 3237   9.473   6.396   6.119
  239POPC   C1B 3238   9.755   6.931   4.728
  239POPC   C2B 3239   9.700   6.820   5.153
  239POPC   C3B 3240   9.834   7.005   5.532
  239POPC   C4B 3241   9.727   6.805   5.906
  240POPC   NC3 3242   5.600   0.959   4.073
  240POPC   PO4 3243   5.864   1.501   3.718
  240POPC   GL1 3244   5.837   1.455   4.199
  240POPC   GL2 3245   5.552   1.395   4.358
  240POPC   C1A 3246   5.948   1.355   4.667
  240POPC   D2A 3247   6.045   0.983   4.975
  240POPC   C3A 3248   5.837   0.997   5.395
  240POPC   C4A 3249   5.847   0.927   5.849
  240POPC   C1B 3250   5.459   1.565   4.781
  240POPC   C2B 3251   5.404   1.471   5.230
  240POPC   C3B 3252   5.620   1.404   5.635
  240POPC   C4B 3253   5.402   1.196   5.963
  241POPC   NC3 3254   2.144   0.538   3.942
  241POPC   PO4 3255   1.713   0.159   3.555
  241POPC   GL1 3256   1.732   0.118   4.088
  241POPC   GL2 3257   1.970   0.292   4.321
  241POPC   C1A 3258   1.693   9.995   4.572
  241POPC   D2A 3259   1.860   9.926   5.015
  241POPC   C3A 3260   1.714   0.244   5.335
  241POPC   C4A 3261   1.713   0.339   5.800
  241POPC   C1B 3262   1.929   0.411   4.762
  241POPC   C2B 3263   2.135   0.607   5.113
  241POPC   C3B 3264   2.322   0.637   5.524
  241POPC   C4B 3265   2.098   0.665   5.922
  242POPC   NC3 3266   6.467   3.258   3.475
  242POPC   PO4 3267   6.325   3.390   4.051
  242POPC   GL1 3268   6.608   3.192   4.393
  242POPC   GL2 3269   6.984   3.169   4.324
  242POPC   C1A 3270   6.499   3.143   4.832
  242POPC   D2A 3271   6.245   3.259   5.203
  242POPC   C3A 3272   6.437   3.275   5.628
  242POPC   C4A 3273   6.479   3.603   5.945
  242POPC   C1B 3274   6.974   3.338   4.762
  242POPC   C2B 3275   6.810   3.367   5.201
  242POPC   C3B 3276   6.965   3.309   5.619
  242POPC   C4B 3277   6.804   3.180   6.039
  243POPC   NC3 3278   3.490   0.400   3.777
  243POPC   PO4 3279   3.197   0.999   3.920
  243POPC   GL1 3280   3.465   0.717   4.218
  243POPC   GL2 3281   3.678   0.383   4.236
  243POPC   C1A 3282   3.482   0.539   4.677
  243POPC   D2A 3283   3.427   0.139   4.955
  243POPC   C3A 3284   3.256   0.204   5.392
  243POPC   C4A 3285   3.361   0.427   5.794
  243POPC   C1B 3286   3.888   0.254   4.634
  243POPC   C2B 3287   3.830   0.456   5.054
  243POPC   C3B 3288   3.782   0.288   5.458
  243POPC   C4B 3289   3.868   0.344   5.889
  244POPC   NC3 3290   8.694   1.718   3.935
  244POPC   PO4 3291   9.194   2.081   3.705
  244POPC   GL1 3292   9.194   2.114   4.249
  244POPC   GL2 3293   9.062   1.813   4.287
  244POPC   C1A 3294   8.988   2.229   4.692
  244POPC   D2A 3295   8.611   2.159   4.992
  244POPC   C3A 3296   8.629   2.102   5.470
  244POPC   C4A 3297   8.807   2.107   5.956
  244POPC   C1B 3298   9.281   1.814   4.683
  244POPC   C2B 3299   9.225   2.018   5.120
  244POPC   C3B 3300   9.062   1.858   5.539
  244POPC   C4B 3301   8.682   1.656   5.763
  245POPC   NC3 3302   0.344   9.871   3.999
  245POPC   PO4 3303   0.747   9.371   3.823
  245POPC   GL1 3304   0.646   9.474   4.253
  245POPC   GL2 3305   0.342   9.362   4.377
  245POPC   C1A 3306   0.673   9.522   4.734
  245POPC   D2A 3307   0.533   9.557   5.170
  245POPC   C3A 3308   0.802   9.372   5.495
  245POPC   C4A 3309   0.472   9.305   5.800
  245POPC   C1B 3310   0.164   9.604   4.735
  245POPC   C2B 3311   0.055   9.758   5.127
  245POPC   C3B 3312   0.247   9.795   5.532
  245POPC   C4B 3313   0.108   9.643   5.923
  246POPC   NC3 3314   7.299   8.717   3.879
  246POPC   PO4 3315   6.782   9.270   4.089
  246POPC   GL1 3316   7.160   9.082   4.290
  246POPC   GL2 3317   7.468   8.960   4.309
  246POPC   C1A 3318   7.140   8.866   4.692
  246POPC   D2A 3319   6.908   9.005   5.068
  246POPC   C3A 3320   7.145   8.927   5.448
  246POPC   C4A 3321   7.041   9.074   5.874
  246POPC   C1B 3322   7.655   8.973   4.742
  246POPC   C2B 3323   7.652   8.893   5.208
  246POPC   C3B 3324   7.541   8.585   5.528
  246POPC   C4B 3325   7.254   8.585   5.844
  247POPC   NC3 3326   5.713   7.604   3.984
  247POPC   PO4 3327   6.146   7.101   3.988
  247POPC   GL1 3328   6.082   7.448   4.322
  247POPC   GL2 3329   5.769   7.328   4.423
  247POPC   C1A 3330   5.948   7.631   4.781
  247POPC   D2A 3331   5.907   7.871   5.240
  247POPC   C3A 3332   5.901   7.644   5.662
  247POPC   C4A 3333   5.877   7.593   6.136
  247POPC   C1B 3334   6.103   7.145   4.734
  247POPC   C2B 3335   6.350   7.262   5.139
  247POPC   C3B 3336   6.305   7.222   5.605
  247POPC   C4B 3337   5.931   7.156   5.861
  248POPC   NC3 3338   2.752   0.893   3.785
  248POPC   PO4 3339   2.605   0.234   3.892
  248POPC   GL1 3340   2.947   0.533   4.124
  248POPC   GL2 3341   3.150   0.298   4.341
  248POPC   C1A 3342   3.073   0.789   4.538
  248POPC   D2A 3343   3.103   0.651   5.006
  248POPC   C3A 3344   2.845   0.745   5.411
  248POPC   C4A 3345   2.854   0.645   5.863
  248POPC   C1B 3346   2.761   0.400   4.630
  248POPC   C2B 3347   2.626   0.444   5.079
  248POPC   C3B 3348   2.719   0.267   5.512
  248POPC   C4B 3349   2.471   0.285   5.900
  249POPC   NC3 3350   8.823   6.747   3.884
  249POPC   PO4 3351   8.580   6.144   4.104
  249POPC   GL1 3352   8.745   6.544   4.352
  249POPC   GL2 3353   9.111   6.717   4.322
  249POPC   C1A 3354   8.810   6.664   4.790
  249POPC   D2A 3355   9.116   6.625   5.150
  249POPC   C3A 3356   8.989   6.359   5.481
  249POPC   C4A 3357   8.779   6.342   5.883
  249POPC   C1B 3358   9.253   6.894   4.711
  249POPC   C2B 3359   9.265   7.107   5.128
  249POPC   C3B 3360   9.337   6.923   5.544
  249POPC   C4B 3361   9.149   6.680   5.861
  250POPC   NC3 3362   4.819   9.515   3.914
  250POPC   PO4 3363   5.539   9.609   3.765
  250POPC   GL1 3364   5.337   9.530   4.227
  250POPC   GL2 3365   5.029   9.338   4.339
  250POPC   C1A 3366   5.374   9.619   4.689
  250POPC   D2A 3367   5.480   9.492   5.135
  250POPC   C3A 3368   5.247   9.703   5.487
  250POPC   C4A 3369   5.276   9.874   5.923
  250POPC   C1B 3370   4.764   9.354   4.730
  250POPC   C2B 3371   4.797   9.679   5.047
  250POPC   C3B 3372   4.701   9.764   5.476
  250POPC   C4B 3373   4.848   9.584   5.863
  251POPC   NC3 3374   7.192   1.907   4.159
  251POPC   PO4 3375   6.513   1.844   3.884
  251POPC   GL1 3376   6.609   1.767   4.301
  251POPC   GL2 3377   6.259   1.700   4.384
  251POPC   C1A 3378   6.869   1.712   4.698
  251POPC   D2A 3379   6.835   1.965   5.073
  251POPC   C3A 3380   6.846   1.749   5.456
  251POPC   C4A 3381   6.822   1.622   5.863
  251POPC   C1B 3382   6.406   1.911   4.784
  251POPC   C2B 3383   6.358   1.941   5.255
  251POPC   C3B 3384   6.481   2.005   5.688
  251POPC   C4B 3385   6.378   1.772   6.049
  252POPC   NC3 3386   1.577   1.993   3.748
  252POPC   PO4 3387   1.440   1.422   4.036
  252POPC   GL1 3388   1.389   1.732   4.357
  252POPC   GL2 3389   1.287   2.023   4.173
  252POPC   C1A 3390   1.240   1.778   4.811
  252POPC   D2A 3391   1.040   1.711   5.252
  252POPC   C3A 3392   1.238   1.725   5.705
  252POPC   C4A 3393   1.492   1.826   6.130
  252POPC   C1B 3394   1.178   2.241   4.550
  252POPC   C2B 3395   0.958   2.199   4.970
  252POPC   C3B 3396   1.170   2.213   5.370
  252POPC   C4B 3397   1.098   2.386   5.768
  253POPC   NC3 3398   0.131   3.646   3.973
  253POPC   PO4 3399   0.766   3.224   3.879
  253POPC   GL1 3400   0.633   3.200   4.299
  253POPC   GL2 3401   0.344   3.376   4.381
  253POPC   C1A 3402   0.657   3.217   4.736
  253POPC   D2A 3403   0.515   3.411   5.104
  253POPC   C3A 3404   0.514   3.188   5.469
  253POPC   C4A 3405   0.671   3.232   5.875
  253POPC   C1B 3406   0.381   3.705   4.704
  253POPC   C2B 3407   0.160   3.772   5.110
  253POPC   C3B 3408   0.348   3.695   5.509
  253POPC   C4B 3409   0.345   3.614   5.922
  254POPC   NC3 3410   3.917   9.734   3.542
  254POPC   PO4 3411   4.354   9.403   3.809
  254POPC   GL1 3412   4.463   9.341   4.252
  254POPC   GL2 3413   4.594   9.675   4.376
  254POPC   C1A 3414   4.221   9.432   4.649
  254POPC   D2A 3415   4.296   9.587   5.111
  254POPC   C3A 3416   4.044   9.341   5.443
  254POPC   C4A 3417   3.795   9.491   5.806
  254POPC   C1B 3418   4.292   9.930   4.683
  254POPC   C2B 3419   4.021   9.995   5.079
  254POPC   C3B 3420   4.080   9.868   5.533
  254POPC   C4B 3421   4.335   9.608   5.815
  255POPC   NC3 3422   2.627   9.142   4.105
  255POPC   PO4 3423   2.718   8.509   3.868
  255POPC   GL1 3424   2.613   8.661   4.277
  255POPC   GL2 3425   2.915   8.840   4.429
  255POPC   C1A 3426   2.396   8.646   4.675
  255POPC   D2A 3427   2.361   8.506   5.131
  255POPC   C3A 3428   2.481   8.821   5.425
  255POPC   C4A 3429   2.771   8.830   5.774
  255POPC   C1B 3430   2.730   9.032   4.797
  255POPC   C2B 3431   2.840   9.149   5.201
  255POPC   C3B 3432   3.127   8.869   5.382
  255POPC   C4B 3433   3.250   8.625   5.731
  256POPC   NC3 3434   0.338   9.102   3.884
  256POPC   PO4 3435   0.966   8.741   4.043
  256POPC   GL1 3436   0.661   8.945   4.252
  256POPC   GL2 3437   0.417   8.704   4.215
  256POPC   C1A 3438   0.500   8.980   4.664
  256POPC   D2A 3439   0.699   9.090   5.030
  256POPC   C3A 3440   0.540   8.942   5.407
  256POPC   C4A 3441   0.728   8.855   5.806
  256POPC   C1B 3442   0.106   8.620   4.578
  256POPC   C2B 3443   0.197   8.707   5.014
  256POPC   C3B 3444   0.042   8.818   5.421
  256POPC   C4B 3445   0.177   8.920   5.834
  257POPC   NC3 3446   6.319   1.359   3.839
  257POPC   PO4 3447   6.778   0.778   3.874
  257POPC   GL1 3448   6.831   1.054   4.230
  257POPC   GL2 3449   6.555   1.262   4.279
  257POPC   C1A 3450   6.933   1.198   4.657
  257POPC   D2A 3451   6.948   1.033   5.094
  257POPC   C3A 3452   6.827   1.230   5.485
  257POPC   C4A 3453   6.541   1.098   5.798
  257POPC   C1B 3454   6.460   1.373   4.702
  257POPC   C2B 3455   6.586   1.488   5.105
  257POPC   C3B 3456   6.390   1.517   5.542
  257POPC   C4B 3457   6.108   1.369   5.870
  258POPC   NC3 3458   5.188   1.416   3.627
  258POPC   PO4 3459   4.781   0.906   3.896
  258POPC   GL1 3460   5.083   0.989   4.286
  258POPC   GL2 3461   4.913   1.237   4.478
  258POPC   C1A 3462   5.376   1.046   4.666
  258POPC   D2A 3463   5.413   0.974   5.104
  258POPC   C3A 3464   5.057   1.025   5.358
  258POPC   C4A 3465   4.935   1.011   5.794
  258POPC   C1B 3466   5.013   1.311   4.902
  258POPC   C2B 3467   4.866   1.491   5.284
  258POPC   C3B 3468   5.102   1.471   5.653
  258POPC   C4B 3469   4.967   1.448   6.087
  259POPC   NC3 3470   6.451   7.455   3.960
  259POPC   PO4 3471   7.096   7.414   3.962
  259POPC   GL1 3472   7.067   7.420   4.408
  259POPC   GL2 3473   6.768   7.530   4.352
  259POPC   C1A 3474   6.979   7.354   4.849
  259POPC   D2A 3475   6.794   7.530   5.197
  259POPC   C3A 3476   6.801   7.379   5.595
  259POPC   C4A 3477   6.914   6.958   5.665
  259POPC   C1B 3478   6.470   7.500   4.670
  259POPC   C2B 3479   6.381   7.758   5.013
  259POPC   C3B 3480   6.379   7.732   5.477
  259POPC   C4B 3481   6.351   7.614   5.939
  260POPC   NC3 3482   6.027   1.855   3.949
  260POPC   PO4 3483   6.084   2.420   4.071
  260POPC   GL1 3484   5.942   2.111   4.403
  260POPC   GL2 3485   5.657   1.900   4.372
  260POPC   C1A 3486   5.913   1.851   4.810
  260POPC   D2A 3487   5.857   1.701   5.243
  260POPC   C3A 3488   5.987   1.843   5.655
  260POPC   C4A 3489   6.058   2.159   5.969
  260POPC   C1B 3490   5.477   2.095   4.779
  260POPC   C2B 3491   5.590   2.164   5.230
  260POPC   C3B 3492   5.472   1.907   5.602
  260POPC   C4B 3493   5.401   1.716   6.001
  261POPC   NC3 3494   0.697   8.313   3.990
  261POPC   PO4 3495   0.169   7.842   3.876
  261POPC   GL1 3496   0.443   7.897   4.230
  261POPC   GL2 3497   0.303   8.218   4.302
  261POPC   C1A 3498   0.486   7.960   4.694
  261POPC   D2A 3499   0.260   8.202   5.029
  261POPC   C3A 3500   0.184   8.037   5.450
  261POPC   C4A 3501   0.396   8.056   5.882
  261POPC   C1B 3502   0.571   8.464   4.648
  261POPC   C2B 3503   0.679   8.514   5.106
  261POPC   C3B 3504   0.497   8.450   5.541
  261POPC   C4B 3505   0.085   8.435   5.765
  262POPC   NC3 3506   9.925   8.247   3.906
  262POPC   PO4 3507   9.391   7.855   3.790
  262POPC   GL1 3508   9.586   7.977   4.194
  262POPC   GL2 3509   9.900   7.813   4.293
  262POPC   C1A 3510   9.496   7.863   4.653
  262POPC   D2A 3511   9.696   7.919   5.079
  262POPC   C3A 3512   9.493   7.920   5.497
  262POPC   C4A 3513   9.757   7.831   5.890
  262POPC   C1B 3514   9.942   8.110   4.633
  262POPC   C2B 3515   9.780   8.411   4.940
  262POPC   C3B 3516   9.773   8.367   5.375
  262POPC   C4B 3517   9.600   8.316   5.809
  263POPC   NC3 3518   9.648   0.638   4.069
  263POPC   PO4 3519   0.050   0.136   3.729
  263POPC   GL1 3520   9.924   0.211   4.200
  263POPC   GL2 3521   9.611   0.194   4.381
  263POPC   C1A 3522   0.015   0.165   4.691
  263POPC   D2A 3523   9.792   0.202   5.128
  263POPC   C3A 3524   9.981   0.258   5.567
  263POPC   C4A 3525   0.028   0.447   6.024
  263POPC   C1B 3526   9.695   0.549   4.703
  263POPC   C2B 3527   9.485   0.684   5.064
  263POPC   C3B 3528   9.696   0.690   5.444
  263POPC   C4B 3529   9.575   0.463   5.815
  264POPC   NC3 3530   4.266   8.959   3.917
  264POPC   PO4 3531   4.566   8.358   3.769
  264POPC   GL1 3532   4.450   8.611   4.225
  264POPC   GL2 3533   4.081   8.757   4.351
  264POPC   C1A 3534   4.458   8.963   4.599
  264POPC   D2A 3535   4.304   9.105   5.013
  264POPC   C3A 3536   4.563   9.247   5.392
  264POPC   C4A 3537   4.582   9.105   5.814
  264POPC   C1B 3538   4.159   8.632   4.818
  264POPC   C2B 3539   4.216   8.692   5.279
  264POPC   C3B 3540   4.157   8.844   5.690
  264POPC   C4B 3541   3.989   8.738   6.130
  265POPC   NC3 3542   8.442   5.777   3.868
  265POPC   PO4 3543   7.795   5.825   3.938
  265POPC   GL1 3544   8.124   5.677   4.275
  265POPC   GL2 3545   8.484   5.741   4.380
  265POPC   C1A 3546   8.178   5.682   4.767
  265POPC   D2A 3547   8.288   5.731   5.220
  265POPC   C3A 3548   7.962   5.849   5.564
  265POPC   C4A 3549   7.558   5.783   5.841
  265POPC   C1B 3550   8.575   6.024   4.768
  265POPC   C2B 3551   8.690   6.045   5.212
  265POPC   C3B 3552   8.431   6.101   5.592
  265POPC   C4B 3553   8.262   5.903   5.980
  266POPC   NC3 3554   8.733   0.427   3.762
  266POPC   PO4 3555   9.342   0.322   3.961
  266POPC   GL1 3556   9.027   0.502   4.208
  266POPC   GL2 3557   8.743   0.268   4.262
  266POPC   C1A 3558   9.199   0.529   4.614
  266POPC   D2A 3559   9.343   0.198   4.892
  266POPC   C3A 3560   9.338   0.276   5.363
  266POPC   C4A 3561   9.097   0.485   5.673
  266POPC   C1B 3562   8.705   0.521   4.644
  266POPC   C2B 3563   8.919   0.464   5.041
  266POPC   C3B 3564   8.709   0.372   5.395
  266POPC   C4B 3565   8.494   0.682   5.605
  267POPC   NC3 3566   6.538   2.332   3.910
  267POPC   PO4 3567   6.272   2.853   3.623
  267POPC   GL1 3568   6.451   2.815   4.088
  267POPC   GL2 3569   6.782   2.695   4.222
  267POPC   C1A 3570   6.400   2.699   4.564
  267POPC   D2A 3571   6.587   2.401   4.890
  267POPC   C3A 3572   6.528   2.427   5.349
  267POPC   C4A 3573   6.404   2.482   5.795
  267POPC   C1B 3574   6.883   2.814   4.692
  267POPC   C2B 3575   6.773   2.850   5.157
  267POPC   C3B 3576   6.725   2.839   5.624
  267POPC   C4B 3577   6.817   2.645   6.065
  268POPC   NC3 3578   1.102   9.223   4.080
  268POPC   PO4 3579   1.583   9.441   3.639
  268POPC   GL1 3580   1.592   9.170   4.153
  268POPC   GL2 3581   1.407   8.869   4.315
  268POPC   C1A 3582   1.442   9.252   4.632
  268POPC   D2A 3583   1.191   9.283   4.999
  268POPC   C3A 3584   1.394   9.234   5.394
  268POPC   C4A 3585   1.212   9.066   5.741
  268POPC   C1B 3586   1.116   8.840   4.709
  268POPC   C2B 3587   1.095   8.813   5.176
  268POPC   C3B 3588   1.022   8.556   5.518
  268POPC   C4B 3589   1.243   8.584   5.884
  269POPC   NC3 3590   1.738   2.737   3.911
  269POPC   PO4 3591   2.374   2.447   3.788
  269POPC   GL1 3592   2.288   2.473   4.268
  269POPC   GL2 3593   2.166   2.787   4.204
  269POPC   C1A 3594   2.349   2.532   4.775
  269POPC   D2A 3595   2.463   2.624   5.252
  269POPC   C3A 3596   2.225   2.543   5.662
  269POPC   C4A 3597   2.288   2.420   6.135
  269POPC   C1B 3598   2.028   2.980   4.598
  269POPC   C2B 3599   2.081   2.932   5.052
  269POPC   C3B 3600   1.958   2.953   5.501
  269POPC   C4B 3601   1.712   3.158   5.811
  270POPC   NC3 3602   0.534   6.586   3.937
  270POPC   PO4 3603   0.175   6.086   3.722
  270POPC   GL1 3604   0.422   6.152   4.166
  270POPC   GL2 3605   0.281   6.498   4.365
  270POPC   C1A 3606   0.604   6.201   4.597
  270POPC   D2A 3607   0.563   6.476   4.987
  270POPC   C3A 3608   0.651   6.431   5.437
  270POPC   C4A 3609   0.467   6.308   5.845
  270POPC   C1B 3610   0.070   6.475   4.794
  270POPC   C2B 3611   0.073   6.403   5.250
  270POPC   C3B 3612   0.201   6.665   5.604
  270POPC   C4B 3613   0.228   6.734   6.070
  271POPC   NC3 3614   9.800   7.495   3.873
  271POPC   PO4 3615   9.277   7.066   3.903
  271POPC   GL1 3616   9.432   7.149   4.303
  271POPC   GL2 3617   9.454   7.491   4.239
  271POPC   C1A 3618   9.286   7.400   4.708
  271POPC   D2A 3619   9.250   7.646   5.099
  271POPC   C3A 3620   9.283   7.441   5.527
  271POPC   C4A 3621   9.566   7.289   5.880
  271POPC   C1B 3622   9.773   7.423   4.582
  271POPC   C2B 3623   9.708   7.380   5.043
  271POPC   C3B 3624   9.814   7.519   5.468
  271POPC   C4B 3625   0.070   7.375   5.850
  272POPC   NC3 3626   7.006   0.364   3.929
  272POPC   PO4 3627   7.546   0.644   4.222
  272POPC   GL1 3628   7.145   0.655   4.353
  272POPC   GL2 3629   7.078   0.290   4.422
  272POPC   C1A 3630   6.959   0.674   4.729
  272POPC   D2A 3631   7.008   0.347   4.989
  272POPC   C3A 3632   7.174   0.355   5.409
  272POPC   C4A 3633   7.045   0.352   5.852
  272POPC   C1B 3634   7.439   0.199   4.705
  272POPC   C2B 3635   7.806   0.241   4.993
  272POPC   C3B 3636   7.716   0.237   5.414
  272POPC   C4B 3637   7.533   0.524   5.729
  273POPC   NC3 3638   9.614   9.966   3.869
  273POPC   PO4 3639   0.027   9.448   4.006
  273POPC   GL1 3640   9.904   9.718   4.326
  273POPC   GL2 3641   9.598   9.657   4.274
  273POPC   C1A 3642   9.671   9.810   4.759
  273POPC   D2A 3643   9.463   9.781   5.174
  273POPC   C3A 3644   9.730   9.802   5.537
  273POPC   C4A 3645   9.728   9.994   5.953
  273POPC   C1B 3646   9.523   9.354   4.619
  273POPC   C2B 3647   9.683   9.324   5.055
  273POPC   C3B 3648   9.477   9.343   5.468
  273POPC   C4B 3649   9.342   9.663   5.839
  274POPC   NC3 3650   0.598   2.075   3.938
  274POPC   PO4 3651   0.579   2.499   4.399
  274POPC   GL1 3652   0.698   2.039   4.449
  274POPC   GL2 3653   0.437   1.793   4.332
  274POPC   C1A 3654   0.698   1.762   4.818
  274POPC   D2A 3655   0.537   1.834   5.255
  274POPC   C3A 3656   0.769   2.012   5.609
  274POPC   C4A 3657   0.638   2.275   5.988
  274POPC   C1B 3658   0.217   1.952   4.679
  274POPC   C2B 3659   0.078   1.720   5.023
  274POPC   C3B 3660   0.057   1.756   5.439
  274POPC   C4B 3661   0.247   2.094   5.683
  275POPC   NC3 3662   9.527   1.033   3.707
  275POPC   PO4 3663   8.927   0.851   3.748
  275POPC   GL1 3664   9.261   0.958   4.152
  275POPC   GL2 3665   9.643   1.135   4.190
  275POPC   C1A 3666   9.331   1.228   4.568
  275POPC   D2A 3667   9.566   1.173   4.948
  275POPC   C3A 3668   9.401   1.167   5.362
  275POPC   C4A 3669   9.358   0.930   5.742
  275POPC   C1B 3670   9.891   1.030   4.568
  275POPC   C2B 3671   0.058   1.035   5.010
  275POPC   C3B 3672   9.922   1.242   5.412
  275POPC   C4B 3673   9.714   1.270   5.830
  276POPC   NC3 3674   3.662   1.170   3.947
  276POPC   PO4 3675   3.164   1.694   4.087
  276POPC   GL1 3676   3.475   1.544   4.360
  276POPC   GL2 3677   3.320   1.236   4.345
  276POPC   C1A 3678   3.597   1.510   4.815
  276POPC   D2A 3679   3.401   1.526   5.235
  276POPC   C3A 3680   3.475   1.290   5.646
  276POPC   C4A 3681   3.232   1.388   6.085
  276POPC   C1B 3682   3.611   1.038   4.588
  276POPC   C2B 3683   3.628   0.940   5.004
  276POPC   C3B 3684   3.521   0.719   5.382
  276POPC   C4B 3685   3.735   0.818   5.750
  277POPC   NC3 3686   2.384   2.904   3.726
  277POPC   PO4 3687   3.010   3.191   3.872
  277POPC   GL1 3688   2.685   3.001   4.111
  277POPC   GL2 3689   2.740   2.647   4.081
  277POPC   C1A 3690   2.538   2.931   4.522
  277POPC   D2A 3691   2.784   2.891   4.910
  277POPC   C3A 3692   2.736   3.061   5.331
  277POPC   C4A 3693   2.495   2.967   5.700
  277POPC   C1B 3694   2.794   2.464   4.509
  277POPC   C2B 3695   2.886   2.395   4.970
  277POPC   C3B 3696   2.965   2.606   5.370
  277POPC   C4B 3697   2.734   2.486   5.753
  278POPC   NC3 3698   0.506   0.414   3.817
  278POPC   PO4 3699   9.969   0.903   3.841
  278POPC   GL1 3700   0.194   0.662   4.210
  278POPC   GL2 3701   0.402   0.306   4.306
  278POPC   C1A 3702   0.228   0.647   4.679
  278POPC   D2A 3703   0.197   0.504   5.129
  278POPC   C3A 3704   0.228   0.721   5.543
  278POPC   C4A 3705   0.497   0.625   5.926
  278POPC   C1B 3706   0.483   0.012   4.663
  278POPC   C2B 3707   0.507   0.065   5.133
  278POPC   C3B 3708   0.489   0.238   5.584
  278POPC   C4B 3709   0.415   0.124   6.059
  279POPC   NC3 3710   4.093   2.734   3.915
  279POPC   PO4 3711   4.582   2.289   3.932
  279POPC   GL1 3712   4.504   2.630   4.243
  279POPC   GL2 3713   4.217   2.759   4.387
  279POPC   C1A 3714   4.550   2.582   4.722
  279POPC   D2A 3715   4.307   2.545   5.099
  279POPC   C3A 3716   4.501   2.407   5.450
  279POPC   C4A 3717   4.707   2.359   5.833
  279POPC   C1B 3718   4.055   2.839   4.768
  279POPC   C2B 3719   3.807   2.770   5.154
  279POPC   C3B 3720   3.846   2.561   5.542
  279POPC   C4B 3721   4.176   2.477   5.828
  280POPC   NC3 3722   4.270   1.958   3.855
  280POPC   PO4 3723   4.858   1.728   3.724
  280POPC   GL1 3724   4.677   1.845   4.181
  280POPC   GL2 3725   4.672   2.146   4.396
  280POPC   C1A 3726   4.442   1.748   4.578
  280POPC   D2A 3727   4.483   2.079   4.898
  280POPC   C3A 3728   4.561   1.925   5.271
  280POPC   C4A 3729   4.409   1.951   5.698
  280POPC   C1B 3730   4.226   2.251   4.494
  280POPC   C2B 3731   3.977   2.246   4.874
  280POPC   C3B 3732   4.073   2.136   5.325
  280POPC   C4B 3733   3.918   2.056   5.742
  281POPC   NC3 3734   3.558   9.337   4.064
  281POPC   PO4 3735   3.542   9.935   3.713
  281POPC   GL1 3736   3.534   9.869   4.184
  281POPC   GL2 3737   3.234   9.701   4.292
  281POPC   C1A 3738   3.739   9.723   4.605
  281POPC   D2A 3739   3.780   9.519   5.020
  281POPC   C3A 3740   3.598   9.771   5.361
  281POPC   C4A 3741   3.567   9.953   5.778
  281POPC   C1B 3742   3.239   9.657   4.771
  281POPC   C2B 3743   3.120   9.617   5.215
  281POPC   C3B 3744   3.117   9.749   5.655
  281POPC   C4B 3745   2.997   9.654   6.104
  282POPC   NC3 3746   8.645   5.026   3.530
  282POPC   PO4 3747   8.705   5.428   4.054
  282POPC   GL1 3748   9.035   5.379   4.334
  282POPC   GL2 3749   9.148   5.056   4.361
  282POPC   C1A 3750   9.208   5.357   4.767
  282POPC   D2A 3751   9.145   5.059   5.106
  282POPC   C3A 3752   9.178   5.323   5.454
  282POPC   C4A 3753   8.972   5.394   5.857
  282POPC   C1B 3754   8.790   5.008   4.734
  282POPC   C2B 3755   8.650   4.929   5.196
  282POPC   C3B 3756   8.787   5.014   5.609
  282POPC   C4B 3757   8.702   5.024   6.102
  283POPC   NC3 3758   3.496   6.637   4.062
  283POPC   PO4 3759   3.028   6.205   3.929
  283POPC   GL1 3760   3.156   6.371   4.357
  283POPC   GL2 3761   3.424   6.602   4.554
  283POPC   C1A 3762   2.963   6.522   4.762
  283POPC   D2A 3763   2.895   6.384   5.211
  283POPC   C3A 3764   3.112   6.452   5.631
  283POPC   C4A 3765   3.314   6.458   6.067
  283POPC   C1B 3766   3.362   6.714   5.008
  283POPC   C2B 3767   3.243   6.889   5.414
  283POPC   C3B 3768   3.500   6.907   5.806
  283POPC   C4B 3769   3.797   6.726   6.100
  284POPC   NC3 3770   1.134   9.581   3.654
  284POPC   PO4 3771   0.791   0.071   3.933
  284POPC   GL1 3772   0.895   9.914   4.360
  284POPC   GL2 3773   1.104   9.610   4.503
  284POPC   C1A 3774   0.964   9.999   4.792
  284POPC   D2A 3775   0.986   9.736   5.125
  284POPC   C3A 3776   0.854   9.884   5.485
  284POPC   C4A 3777   0.665   9.756   5.832
  284POPC   C1B 3778   1.408   9.719   4.862
  284POPC   C2B 3779   1.443   9.760   5.336
  284POPC   C3B 3780   1.249   9.644   5.769
  284POPC   C4B 3781   1.342   9.556   6.240
  285POPC   NC3 3782   4.400   0.798   3.656
  285POPC   PO4 3783   3.800   0.743   3.797
  285POPC   GL1 3784   3.995   0.800   4.218
  285POPC   GL2 3785   4.375   0.706   4.229
  285POPC   C1A 3786   4.040   0.748   4.686
  285POPC   D2A 3787   4.294   0.676   5.095
  285POPC   C3A 3788   4.162   0.640   5.556
  285POPC   C4A 3789   4.164   0.743   6.046
  285POPC   C1B 3790   4.514   0.481   4.646
  285POPC   C2B 3791   4.554   0.202   5.029
  285POPC   C3B 3792   4.472   0.235   5.468
  285POPC   C4B 3793   4.335   0.165   5.891
  286POPC   NC3 3794   2.289   8.293   3.745
  286POPC   PO4 3795   1.735   8.683   3.927
  286POPC   GL1 3796   1.795   8.513   4.357
  286POPC   GL2 3797   1.995   8.224   4.423
  286POPC   C1A 3798   1.924   8.511   4.827
  286POPC   D2A 3799   1.837   8.355   5.237
  286POPC   C3A 3800   2.033   8.548   5.587
  286POPC   C4A 3801   2.099   8.564   6.054
  286POPC   C1B 3802   1.771   8.016   4.795
  286POPC   C2B 3803   1.706   7.860   5.214
  286POPC   C3B 3804   1.794   7.817   5.644
  286POPC   C4B 3805   2.105   8.074   5.827
  287W        W 3806   8.790   1.895   0.262
  288W        W 3807   4.506   0.982  10.756
  289W        W 3808   8.967   1.380   2.264
  290W        W 3809   0.027   7.985   1.661
  291W        W 3810   8.846   3.403   9.165
  292W        W 3811   7.163   7.388   9.530
  293W        W 3812   0.713   0.150   0.941
  294W        W 3813   3.495   7.668  11.150
  295W        W 3814   1.667   8.381   1.949
  296W        W 3815   8.641   1.629   3.220
  297W        W 3816   6.921   2.032  11.725
  298W        W 3817   2.155   0.765   8.979
  299W        W 3818   8.010   3.982   3.637
  300W        W 3819   4.629   3.660   8.960
  301W        W 3820   1.234   1.015   9.546
  302W        W 3821   5.756   6.370   2.473
  303W        W 3822   6.740   9.069  11.829
  304W        W 3823   8.659   2.625   2.476
  305W        W 3824   6.197   8.246   9.227
  306W        W 3825   4.586   6.758   9.536
  307W        W 3826   4.162   6.770   3.598
  308W        W 3827   5.138   4.658   0.984
  309W        W 3828   0.435   8.547   2.577
  310W        W 3829   7.295   6.000   1.892
  311W        W 3830   8.076   6.338  10.493
  312W        W 3831   4.504   1.853   0.429
  313W        W 3832   6.146   2.702  10.936
  314W        W 3833   2.776   3.323   3.453
  315W        W 3834   6.464   3.007  11.855
  316W        W 3835   7.052   6.900   2.765
  317W        W 3836   8.284   2.027   3.537
  318W        W 3837   5.469   0.541   1.683
  319W        W 3838   4.905   5.240  10.485
  320W        W 3839   2.786   4.736   9.499
  321W        W 3840   5.455   2.263  11.404
  322W        W 3841   2.273   9.315  10.378
  323W        W 3842   9.267   8.902   3.742
  324W        W 3843   3.681   0.553   3.315
  325W        W 3844   6.377   8.401   1.239
  326W        W 3845   8.764   4.506  11.073
  327W        W 3846   4.596   4.188  11.820
  328W        W 3847   9.571   0.669   9.572
  329W        W 3848   5.234   6.587  11.844
  330W        W 3849   8.783   2.091   3.387
  331W        W 3850   6.968   9.257   9.999
  332W        W 3851   3.333   4.635   0.905
  333W        W 3852   9.267   5.171   9.583
  334W        W 3853   5.807   7.962   3.612
  335W        W 3854   2.639   6.934   3.374
  336W        W 3855   2.655   6.675   9.588
  337W        W 3856   5.242   1.259   2.301
  338W        W 3857   1.421   2.102  10.605
  339W        W 3858   4.586   5.129   9.475
  340W        W 3859   0.474   5.927   1.656
  341W        W 3860   8.342   8.548   8.778
  342W        W 3861   6.891   2.799   0.116
  343W        W 3862   3.564   9.096   0.308
  344W        W 3863   4.076   1.810   9.413
  345W        W 3864   1.588   5.149   3.470
  346W        W 3865   0.358   3.440   2.249
  347W        W 3866   9.449   6.275   0.274
  348W        W 3867   3.099   4.728   8.652
  349W        W 3868   3.388   4.273   2.813
  350W        W 3869   2.943   0.356  11.498
  351W        W 3870   5.378   9.900   9.681
  352W        W 3871   8.031   2.394   0.485
  353W        W 3872   4.652   7.766   8.541
  354W        W 3873   4.723   0.902   0.706
  355W        W 3874   9.905   3.304  10.474
  356W        W 3875   9.311   0.586  10.027
  357W        W 3876   5.062   3.297   9.579
  358W        W 3877   7.243   3.668   9.685
  359W        W 3878   0.883   7.479   0.182
  360W        W 3879   3.059   4.142   1.728
  361W        W 3880   8.993   7.378   9.981
  362W        W 3881   0.346   0.885   8.870
  363W        W 3882   3.550   2.395  10.899
  364W        W 3883   4.693   5.151   3.000
  365W        W 3884   9.403   8.557   1.298
  366W        W 3885   1.419   3.562  11.547
  367W        W 3886   4.913   7.074   9.164
  368W        W 3887   0.117   1.084   8.436
  369W        W 3888   4.755   7.826   1.812
  370W        W 3889   9.502   9.655  11.209
  371W        W 3890   5.992   3.258   2.407
  372W        W 3891   5.514   1.762  10.796
  373W        W 3892   5.494   9.839   1.446
  374W        W 3893   2.250   3.971  11.455
  375W        W 3894   4.527   5.074   0.067
  376W        W 3895   2.708   2.202   9.295
  377W        W 3896   2.588   1.056   2.414
  378W        W 3897   5.961   8.202   1.019
  379W        W 3898   2.202   7.940  11.569
  380W        W 3899   4.609   6.132   0.310
  381W        W 3900   8.423   0.198   0.217
  382W        W 3901   3.689   3.416   2.662
  383W        W 3902   2.357   8.093   1.293
  384W        W 3903   3.965   6.359   1.316
  385W        W 3904   7.110   4.680  11.064
  386W        W 3905   9.649   2.373   9.686
  387W        W 3906   4.266   0.027   8.652
  388W        W 3907   6.886   1.532   2.725
  389W        W 3908   4.881   2.671   8.490
  390W        W 3909   3.541   8.103   9.736
  391W        W 3910   9.342   7.587   1.283
  392W        W 3911   1.172   7.311   1.497
  393W        W 3912   4.017   2.840   8.529
  394W        W 3913   2.447   1.536  11.323
  395W        W 3914   8.765   4.826   0.487
  396W        W 3915   2.551   2.421   8.591
  397W        W 3916   0.583   9.576  11.540
  398W        W 3917   7.921   9.890  11.408
  399W        W 3918   1.887   2.998   9.918
  400W        W 3919   5.248   2.677  11.200
  401W        W 3920   0.386   8.661  11.148
  402W        W 3921   4.902   5.501   9.005
  403W        W 3922   2.771   8.102   2.976
  404W        W 3923   0.374   3.247   1.099
  405W        W 3924   3.844   4.626  11.115
  406W        W 3925   1.670   0.497  10.595
  407W        W 3926   6.734   4.695   8.777
  408W        W 3927   4.824   2.440   1.090
  409W        W 3928   7.935   5.132   2.481
  410W        W 3929   4.111   6.143   0.186
  411W        W 3930   8.473   2.092   9.258
  412W        W 3931   6.017   7.424   3.599
  413W        W 3932   5.598   7.326  10.220
  414W        W 3933   2.747   6.661   9.007
  415W        W 3934   8.031   2.385  11.947
  416W        W 3935   3.146   3.148   9.567
  417W        W 3936   5.088   4.509   0.381
  418W        W 3937   8.790   1.646   1.234
  419W        W 3938   0.314   4.556   3.180
  420W        W 3939   1.889   5.359   2.687
  421W        W 3940   2.910   2.562   0.689
  422W        W 3941   3.667   3.949   9.049
  423W        W 3942   0.332   5.636   9.462
  424W        W 3943   4.251   2.805   2.601
  425W        W 3944   1.801   2.547   0.191
  426W        W 3945   5.502   0.128   9.188
  427W        W 3946   1.889   4.256   8.862
  428W        W 3947   2.977   7.755   3.358
  429W        W 3948   3.223   8.572   9.011
  430W        W 3949   6.369   5.026   8.611
  431W        W 3950   9.392   2.869   3.677
  432W        W 3951   9.801   7.775   0.660
  433W        W 3952   3.031   2.242   2.049
  434W        W 3953   0.472   7.487  11.860
  435W        W 3954   8.378   0.678   9.004
  436W        W 3955   4.947   3.573   0.280
  437W        W 3956   8.828   8.999  11.165
  438W        W 3957   4.251   9.963   3.187
  439W        W 3958   6.332   7.573   2.632
  440W        W 3959   3.571   3.633   1.179
  441W        W 3960   2.101   7.421   1.954
  442W        W 3961   6.188   1.467   1.839
  443W        W 3962   8.180   7.355   9.722
  444W        W 3963   9.701   2.944   0.930
  445W        W 3964   2.885   0.931   2.796
  446W        W 3965   8.066   5.584  11.448
  447W        W 3966   7.168   6.758   0.821
  448W        W 3967   9.203   7.396  11.498
  449W        W 3968   7.948   1.660   0.837
  450W        W 3969   6.881   9.552   0.196
  451W        W 3970   0.731   6.601  12.000
  452W        W 3971   4.241   2.054   0.913
  453W        W 3972   8.467   1.233   2.932
  454W        W 3973   2.229   8.108   2.273
  455W        W 3974   1.795   4.922   8.225
  456W        W 3975   9.817   3.626   3.063
  457W        W 3976   6.490   8.355  10.752
  458W        W 3977   4.002   6.178   0.836
  459W        W 3978   4.051   5.140   1.537
  460W        W 3979   8.505   4.641  10.096
  461W        W 3980   8.355   3.608   9.131
  462W        W 3981   3.314   1.998   0.886
  463W        W 3982   5.472   7.472  11.622
  464W        W 3983   0.846   4.498   9.225
  465W        W 3984   6.933   1.267  11.852
  466W        W 3985   0.546   4.422   0.903
  467W        W 3986   9.553   1.868   9.525
  468W        W 3987   8.911   7.057  10.415
  469W        W 3988   9.964   1.212   8.926
  470W        W 3989   5.218   3.504  11.868
  471W        W 3990   9.051   9.120   8.970
  472W        W 3991   3.209   7.394  11.488
  473W        W 3992   1.340   1.384  11.454
  474W        W 3993   1.742   5.959   3.258
  475W        W 3994   4.438   4.578   2.771
  476W        W 3995   9.407   7.701   9.927
  477W        W 3996   9.842   6.054   8.898
  478W        W 3997   6.617   2.139  10.382
  479W        W 3998   7.111   7.963  11.260
  480W        W 3999   7.554   2.558  11.840
  481W        W 4000   6.707   4.327   3.705
  482W        W 4001   7.242   5.610   2.556
  483W        W 4002   4.129   5.703   1.010
  484W        W 4003   0.528   2.710  10.754
  485W        W 4004   6.126   3.195   0.718
  486W        W 4005   8.595   1.083   0.062
  487W        W 4006   6.565   6.880   2.019
  488W        W 4007   6.671   9.739   0.939
  489W        W 4008   8.552   0.599  10.518
  490W        W 4009   0.740   8.425   8.917
  491W        W 4010   1.616   1.444   1.747
  492W        W 4011   5.394   6.621  11.303
  493W        W 4012   5.247   3.018   1.654
  494W        W 4013   6.689   0.051   9.957
  495W        W 4014   3.986   7.979   0.213
  496W        W 4015   4.140   1.664  11.647
  497W        W 4016   7.283   0.328   9.200
  498W        W 4017   7.003   4.083   9.341
  499W        W 4018   3.891   1.792   1.427
  500W        W 4019   2.281   4.647   8.737
  501W        W 4020   2.889   4.180  10.573
  502W        W 4021   5.488   5.196  11.777
  503W        W 4022   2.873   1.109   0.020
  504W        W 4023   9.519   5.107   9.136
  505W        W 4024   4.879   4.204  10.526
  506W        W 4025   4.140   1.520  10.760
  507W        W 4026   2.660   3.942   0.951
  508W        W 4027   3.767   8.812  11.926
  509W        W 4028   6.259   6.265   9.800
  510W        W 4029   9.771   4.558   3.095
  511W        W 4030   4.755   4.909   2.552
  512W        W 4031   2.979   0.788   0.435
  513W        W 4032   4.933   3.647   3.526
  514W        W 4033   8.326   3.943   1.853
  515W        W 4034   1.588   4.975   2.984
  516W        W 4035   2.950   1.392   2.277
  517W        W 4036   9.132   0.838   1.559
  518W        W 4037   2.461   5.289   0.717
  519W        W 4038   3.187   7.529   9.007
  520W        W 4039   3.346   2.083  11.908
  521W        W 4040   8.891   6.380   1.569
  522W        W 4041   0.428   5.429   1.645
  523W        W 4042   8.455   9.811  11.131
  524W        W 4043   3.208   0.976  10.879
  525W        W 4044   6.920   2.495   3.045
  526W        W 4045   4.515   5.607  10.553
  527W        W 4046   3.839   5.367   8.916
  528W        W 4047   1.375   1.558   3.514
  529W        W 4048   0.308   9.699   0.002
  530W        W 4049   5.085   2.971  10.225
  531W        W 4050   5.854   2.508   3.592
  532W        W 4051   9.545   9.802   8.844
  533W        W 4052   9.209   3.776   9.319
  534W        W 4053   7.342   7.242  11.930
  535W        W 4054   2.499   7.430   3.439
  536W        W 4055   1.227   6.438  11.413
  537W        W 4056   0.552   0.278   9.911
  538W        W 4057   1.295   5.392  11.651
  539W        W 4058   5.600   8.638   0.167
  540W        W 4059   4.083   3.745   8.433
  541W        W 4060   1.408   3.474   1.505
  542W        W 4061   1.535   8.305   3.567
  543W        W 4062   2.562   5.406   4.073
  544W        W 4063   2.694   2.688  10.785
  545W        W 4064   8.445   2.654   1.642
  546W        W 4065   6.159   6.405   1.347
  547W        W 4066   6.715   5.735   1.333
  548W        W 4067   4.981   9.591   1.719
  549W        W 4068   8.060   0.180  11.846
  550W        W 4069   7.961   9.675   1.004
  551W        W 4070   1.461   3.500  11.021
  552W        W 4071   1.656   3.255   1.898
  553W        W 4072   7.615   2.312   1.281
  554W        W 4073   7.079   5.560   2.077
  555W        W 4074   9.678   5.331   1.951
  556W        W 4075   1.678   2.720  11.721
  557W        W 4076   8.522   1.492  10.019
  558W        W 4077   3.676   8.851   2.138
  559W        W 4078   5.060   8.015   0.147
  560W        W 4079   7.621   4.652   1.282
  561W        W 4080   2.413   7.010   2.058
  562W        W 4081   7.044   0.632   0.820
  563W        W 4082   5.934   9.974  10.425
  564W        W 4083   8.139   5.100   9.089
  565W        W 4084   5.855   7.612   9.861
  566W        W 4085   0.944   9.518   1.876
  567W        W 4086   1.943   3.082   2.869
  568W        W 4087   9.508   3.406   9.724
  569W        W 4088   6.593   8.862   1.198
  570W        W 4089   7.789   6.200   2.008
  571W        W 4090   5.050   6.942   1.495
  572W        W 4091   0.478   0.780   9.857
  573W        W 4092   4.484   3.028   3.729
  574W        W 4093   1.364   6.047   2.536
  575W        W 4094   7.006   4.474   1.759
  576W        W 4095   9.581   2.981  11.053
  577W        W 4096   1.127   4.635   9.640
  578W        W 4097   0.337   9.595  11.072
  579W        W 4098   6.587   4.321   9.095
  580W        W 4099   4.317   1.137   2.474
  581W        W 4100   9.485   2.946   1.452
  582W        W 4101   9.739   9.379   1.289
  583W        W 4102   9.612   6.101  11.056
  584W        W 4103   0.260   0.494  11.740
  585W        W 4104   6.949   5.110  11.253
  586W        W 4105   4.979   2.377   2.084
  587W        W 4106   1.361   6.455   1.434
  588W        W 4107   5.756   0.193   9.959
  589W        W 4108   6.021   0.865   2.811
  590W        W 4109   5.093   3.218  11.469
  591W        W 4110   8.207   7.205  11.523
  592W        W 4111   1.670   4.535   2.693
  593W        W 4112   3.719   6.388   2.230
  594W        W 4113   2.266   2.424  11.071
  595W        W 4114   9.017   4.707   0.926
  596W        W 4115   6.565   5.207   4.193
  597W        W 4116   1.166   5.335   8.472
  598W        W 4117   3.621   7.276  10.387
  599W        W 4118   2.833   0.921   1.730
  600W        W 4119   8.412   2.144   2.525
  601W        W 4120   2.231   8.810   0.700
  602W        W 4121   9.922   6.192   1.924
  603W        W 4122   5.745   5.887   1.291
  604W        W 4123   7.077   3.793   3.248
  605W        W 4124   4.622   3.299   3.308
  606W        W 4125   4.268   2.728   1.889
  607W        W 4126   9.998   4.658  10.469
  608W        W 4127   3.245   5.556   0.818
  609W        W 4128   4.178   0.534   8.671
  610W        W 4129   0.464   4.181   2.866
  611W        W 4130   0.847   4.288  11.732
  612W        W 4131   1.668   2.238  11.452
  613W        W 4132   1.192   8.028  11.227
  614W        W 4133   3.948   0.340  10.930
  615W        W 4134   5.704   7.847   2.805
  616W        W 4135   0.195   0.066   2.163
  617W        W 4136   1.276   1.152   2.015
  618W        W 4137   2.153   3.719  10.430
  619W        W 4138   8.425   2.905   2.099
  620W        W 4139   5.532   5.729   3.199
  621W        W 4140   8.274   8.464  10.609
  622W        W 4141   6.420   2.527   3.260
  623W        W 4142   9.917   5.738   1.010
  624W        W 4143   6.733   1.853  11.031
  625W        W 4144   5.381   2.076   2.064
  626W        W 4145   5.913   5.985  10.037
  627W        W 4146   7.601   8.279   9.383
  628W        W 4147   2.200   6.037   9.223
  629W        W 4148   7.283   0.737  11.805
  630W        W 4149   4.924   4.016   1.972
  631W        W 4150   3.847   5.542   0.134
  632W        W 4151   7.968   5.029   2.971
  633W        W 4152   7.152   0.003  10.991
  634W        W 4153   6.161   6.997   3.152
  635W        W 4154   5.019   7.476  10.309
  636W        W 4155   0.770   7.395   0.679
  637W        W 4156   9.437   9.988  10.799
  638W        W 4157   7.978   1.132  10.158
  639W        W 4158   5.225   6.873   3.747
  640W        W 4159   4.724   3.864   9.903
  641W        W 4160   5.217   5.468   0.735
  642W        W 4161   7.447   1.212  11.034
  643W        W 4162   2.091   7.979   0.451
  644W        W 4163   9.861   1.484  10.530
  645W        W 4164   5.270   1.000   1.870
  646W        W 4165   2.924   8.302  10.947
  647W        W 4166   6.137   8.537  10.411
  648W        W 4167   0.039   9.416   9.540
  649W        W 4168   9.343   6.076   0.739
  650W        W 4169   6.984   0.909   1.255
  651W        W 4170   4.648   4.575   1.205
  652W        W 4171   8.358   2.019   3.033
  653W        W 4172   9.474   8.478   9.731
  654W        W 4173   1.772   3.662   0.223
  655W        W 4174   7.210   3.516  11.993
  656W        W 4175   6.966   0.470   0.339
  657W        W 4176   4.249   3.479  11.957
  658W        W 4177   9.330   3.564   0.299
  659W        W 4178   8.750   6.655   9.161
  660W        W 4179   3.675   5.419   1.291
  661W        W 4180   3.006   9.397   3.158
  662W        W 4181   9.702   1.861   9.012
  663W        W 4182   2.329   7.654  11.046
  664W        W 4183   7.059   5.183   3.991
  665W        W 4184   5.537   9.445   1.128
  666W        W 4185   9.220   3.263   1.798
  667W        W 4186   4.557   6.144   3.135
  668W        W 4187   0.349   7.086   9.756
  669W        W 4188   2.007   6.367   1.741
  670W        W 4189   2.052   0.418  10.965
  671W        W 4190   2.712   0.405   1.165
  672W        W 4191   3.897   2.950  11.279
  673W        W 4192   5.642   9.114   9.246
  674W        W 4193   5.517   7.223   0.460
  675W        W 4194   8.054   6.654  11.852
  676W        W 4195   6.068   7.575  10.346
  677W        W 4196   7.639   6.116   0.254
  678W        W 4197   3.000   1.291   3.550
  679W        W 4198   6.649   1.493   0.903
  680W        W 4199   3.587   3.341   3.701
  681W        W 4200   9.463   5.320   1.437
  682W        W 4201   3.593   0.766   1.241
  683W        W 4202   5.051   2.448   1.559
  684W        W 4203   5.680   7.154   3.140
  685W        W 4204   9.902   0.855  11.754
  686W        W 4205   5.219   7.502   0.082
  687W        W 4206   6.584   5.630   9.316
  688W        W 4207   2.347   9.086   0.257
  689W        W 4208   2.177   5.520  11.671
  690W        W 4209   8.793   9.056   2.786
  691W        W 4210   6.780   4.502  10.102
  692W        W 4211   4.057   9.162   2.805
  693W        W 4212   8.386   8.502   3.271
  694W        W 4213   2.305   7.607   2.376
  695W        W 4214   6.390   2.216  10.949
  696W        W 4215   4.244   1.403  10.258
  697W        W 4216   6.408   1.586   2.889
  698W        W 4217   4.604   0.739   1.181
  699W        W 4218   4.162   9.803   1.420
  700W        W 4219   5.440   7.045  11.926
  701W        W 4220   5.150   2.789  10.703
  702W        W 4221   0.074   9.569  11.525
  703W        W 4222   7.972   5.079   0.014
  704W        W 4223   4.295   5.099   2.643
  705W        W 4224   4.481   6.667   3.174
  706W        W 4225   3.884   3.933  10.383
  707W        W 4226   3.914   4.652   4.009
  708W        W 4227   0.900   9.877   9.747
  709W        W 4228   9.433   1.335   0.310
  710W        W 4229   9.777   3.846   0.641
  711W        W 4230   2.746   0.047  10.503
  712W        W 4231   3.221   4.933   8.176
  713W        W 4232   9.964   6.985   9.002
  714W        W 4233   2.266   8.517   8.991
  715W        W 4234   8.731   8.057   3.428
  716W        W 4235   4.273   3.855  11.612
  717W        W 4236   9.355   7.012  10.669
  718W        W 4237   5.710   6.528   1.125
  719W        W 4238   3.396   5.403   0.351
  720W        W 4239   5.610   7.822  10.380
  721W        W 4240   8.976   7.420   2.454
  722W        W 4241   8.464   4.853   3.075
  723W        W 4242   9.809   1.491   3.076
  724W        W 4243   2.847   1.468  11.655
  725W        W 4244   7.697   3.135   3.180
  726W        W 4245   5.103   5.474   3.092
  727W        W 4246   4.457   0.068   2.439
  728W        W 4247   9.440   0.199   9.716
  729W        W 4248   9.748   2.389  10.883
  730W        W 4249   7.641   5.291  11.667
  731W        W 4250   3.132   6.920   1.201
  732W        W 4251   8.863   6.246   0.819
  733W        W 4252   5.087   2.035   1.208
  734W        W 4253   4.287   5.797   3.435
  735W        W 4254   6.685   1.196   3.102
  736W        W 4255   3.829   4.609   0.044
  737W        W 4256   8.371   3.835   2.359
  738W        W 4257   8.148   5.888   1.156
  739W        W 4258   4.475   2.615   1.422
  740W        W 4259   7.188   7.261   0.753
  741W        W 4260   3.845   3.619   9.892
  742W        W 4261   8.957   4.611   0.051
  743W        W 4262   3.621   7.829  10.286
  744W        W 4263   4.036   8.261   1.518
  745W        W 4264   9.049   8.324   2.128
  746W        W 4265   7.534   8.947  10.503
  747W        W 4266   9.076   4.204   0.882
  748W        W 4267   0.370   2.865   3.531
  749W        W 4268   4.809   2.784  11.429
  750W        W 4269   1.767   0.736   2.223
  751W        W 4270   7.816   1.226  10.655
  752W        W 4271   2.820   3.422   2.965
  753W        W 4272   4.084   0.840  11.043
  754W        W 4273   2.794   8.044   1.627
  755W        W 4274   3.661   4.464   9.360
  756W        W 4275   7.502   4.412   3.072
  757W        W 4276   7.907   4.659   0.329
  758W        W 4277   9.797   7.675   2.014
  759W        W 4278   8.372   4.563  11.468
  760W        W 4279   1.475   0.560   9.412
  761W        W 4280   5.205   2.598   2.573
  762W        W 4281   8.704   6.119  11.967
  763W        W 4282   0.047   5.591   9.012
  764W        W 4283   8.969   7.042   9.428
  765W        W 4284   3.273   9.221   1.399
  766W        W 4285   0.412   6.618   9.934
  767W        W 4286   4.592   5.792   2.215
  768W        W 4287   7.873   1.853   1.334
  769W        W 4288   3.212   3.558  11.962
  770W        W 4289   7.113   6.420   8.268
  771W        W 4290   2.377   2.126  10.117
  772W        W 4291   7.019   6.388   8.764
  773W        W 4292   5.050   9.860   9.214
  774W        W 4293   2.354   1.910  10.949
  775W        W 4294   8.801   6.241  10.567
  776W        W 4295   7.329   3.181   2.701
  777W        W 4296   5.159   3.947  10.166
  778W        W 4297   2.625   7.996  11.274
  779W        W 4298   5.886   2.255  11.031
  780W        W 4299   9.165   9.309  11.505
  781W        W 4300   7.144   6.567   3.933
  782W        W 4301   8.461   7.917  11.034
  783W        W 4302   9.848   1.295  10.049
  784W        W 4303   1.721   3.746   0.720
  785W        W 4304   1.024   8.973   3.585
  786W        W 4305   2.007   3.389   3.395
  787W        W 4306   9.524   8.136   2.015
  788W        W 4307   9.379   4.854  11.790
  789W        W 4308   3.119   3.678   0.901
  790W        W 4309   2.349   3.714   1.834
  791W        W 4310   8.328   8.798   0.200
  792W        W 4311   5.139   8.741  10.931
  793W        W 4312   6.214   9.889   0.266
  794W        W 4313   5.916   1.620   8.474
  795W        W 4314   2.761   4.412   2.141
  796W        W 4315   2.791   2.089   0.935
  797W        W 4316   0.352   6.210   3.250
  798W        W 4317   6.637   9.264   2.337
  799W        W 4318   9.607   7.526  11.779
  800W        W 4319   4.252   8.791   8.908
  801W        W 4320   2.905   0.460   9.313
  802W        W 4321   8.716   6.410  11.220
  803W        W 4322   2.663   3.736  10.671
  804W        W 4323   5.402   0.855  11.076
  805W        W 4324   5.581   1.667   2.322
  806W        W 4325   5.184   8.844  10.440
  807W        W 4326   1.393   0.289   8.952
  808W        W 4327   6.022   8.060   3.144
  809W        W 4328   6.975   2.523   9.821
  810W        W 4329   3.485   4.969   3.837
  811W        W 4330   3.724   1.317   8.630
  812W        W 4331   9.897   6.837   9.987
  813W        W 4332   3.892   8.010   9.017
  814W        W 4333   6.821   2.791  10.223
  815W        W 4334   1.798   5.659   9.568
  816W        W 4335   8.922   0.779   9.021
  817W        W 4336   0.479   1.654   9.868
  818W        W 4337   3.310   8.479  10.645
  819W        W 4338   4.754   7.528   2.307
  820W        W 4339   3.837   9.783  11.796
  821W        W 4340   2.699   3.618   0.093
  822W        W 4341   5.077   6.342   0.266
  823W        W 4342   3.514   0.604   2.194
  824W        W 4343   5.212   5.684   1.211
  825W        W 4344   8.240   4.328   2.328
  826W        W 4345   6.698   8.514   1.826
  827W        W 4346   3.505   9.343   8.606
  828W        W 4347   7.261   1.969   1.444
  829W        W 4348   3.747   9.016   1.625
  830W        W 4349   8.954   9.937  10.943
  831W        W 4350   3.212   8.199   3.233
  832W        W 4351   0.019   1.775   2.686
  833W        W 4352   6.821   5.973   8.993
  834W        W 4353   0.329   0.016  11.605
  835W        W 4354   4.990   1.955   1.727
  836W        W 4355   6.595   8.771  10.447
  837W        W 4356   1.175   0.382  10.727
  838W        W 4357   6.426   2.761  10.528
  839W        W 4358   2.736   9.217  10.623
  840W        W 4359   6.252   3.678   0.856
  841W        W 4360   0.454   1.368  11.266
  842W        W 4361   4.562   9.227   2.748
  843W        W 4362   6.418   9.296   2.785
  844W        W 4363   5.849   4.635  10.439
  845W        W 4364   9.648   1.761   0.107
  846W        W 4365   6.110   9.058  11.165
  847W        W 4366   2.200   3.862   9.038
  848W        W 4367   7.642   2.574  11.333
  849W        W 4368   2.712   6.929   2.818
  850W        W 4369   1.340   3.820   9.295
  851W        W 4370   0.862   2.866  11.525
  852W        W 4371   2.135   0.974   0.843
  853W        W 4372   6.270   5.926   1.659
  854W        W 4373   0.630   2.808   9.555
  855W        W 4374   4.245   2.827   9.618
  856W        W 4375   9.641   0.547   3.578
  857W        W 4376   7.957   7.389   0.384
  858W        W 4377   9.444   8.617  10.245
  859W        W 4378   5.302   5.473   0.180
  860W        W 4379   2.712   3.360   9.724
  861W        W 4380   8.613   3.413   3.288
  862W        W 4381   8.295   1.970   1.717
  863W        W 4382   4.048   8.499   3.870
  864W        W 4383   8.293   3.220  11.448
  865W        W 4384   9.559   3.059   0.276
  866W        W 4385   3.944   2.411  11.256
  867W        W 4386   8.053   5.987   9.561
  868W        W 4387   3.440   4.458   3.904
  869W        W 4388   7.409   4.801   0.403
  870W        W 4389   5.220   2.263   0.182
  871W        W 4390   4.093   7.976   9.511
  872W        W 4391   7.772   1.597  10.301
  873W        W 4392   0.968   9.226   9.552
  874W        W 4393   4.984   5.983   8.349
  875W        W 4394   9.459   1.606   9.962
  876W        W 4395   6.573   2.407   0.929
  877W        W 4396   7.105   6.599   1.304
  878W        W 4397   7.565   3.724   1.974
  879W        W 4398   9.094   9.777  10.430
  880W        W 4399   9.941   4.769   0.881
  881W        W 4400   2.133   9.657   2.074
  882W        W 4401   0.366   4.531   1.754
  883W        W 4402   7.266   2.151   3.216
  884W        W 4403   2.182   3.016  11.442
  885W        W 4404   7.757   3.691   9.611
  886W        W 4405   1.334   9.417   2.612
  887W        W 4406   6.402   6.122   4.087
  888W        W 4407   8.645   5.078  10.376
  889W        W 4408   9.049   4.314  10.639
  890W        W 4409   4.488   7.707  11.397
  891W        W 4410   6.431   1.135   2.654
  892W        W 4411   7.938   0.197   1.004
  893W        W 4412   8.409   3.642  10.211
  894W        W 4413   8.984   4.724  10.274
  895W        W 4414   3.208   6.678  10.866
  896W        W 4415   6.505   7.284   3.472
  897W        W 4416   9.287   2.580  10.836
  898W        W 4417   9.960   9.819   9.236
  899W        W 4418   0.673   4.632  10.873
  900W        W 4419   4.225   4.329  10.639
  901W        W 4420   4.730   2.296   9.022
  902W        W 4421   0.299   3.946   2.224
  903W        W 4422   7.097   2.788  10.669
  904W        W 4423   1.788   6.154   1.269
  905W        W 4424   0.150   5.381   8.345
  906W        W 4425   2.467   3.160   0.193
  907W        W 4426   4.833   6.680   1.947
  908W        W 4427   1.463   8.573   2.843
  909W        W 4428   5.145   0.947   3.318
  910W        W 4429   0.762   7.961   0.018
  911W        W 4430   9.246   7.620   2.872
  912W        W 4431   6.614   7.148   2.957
  913W        W 4432   5.074   4.020  11.950
  914W        W 4433   2.958   7.404   2.885
  915W        W 4434   6.861   2.986   2.824
  916W        W 4435   7.547   1.238   0.482
  917W        W 4436   7.702   9.977   0.370
  918W        W 4437   3.213   7.839   2.860
  919W        W 4438   4.174   6.810   1.428
  920W        W 4439   6.020   3.323   9.200
  921W        W 4440   2.558   8.730   2.380
  922W        W 4441   0.944   7.602  11.674
  923W        W 4442   5.189   8.851   9.152
  924W        W 4443   1.009   5.714  10.889
  925W        W 4444   4.397   4.093   1.953
  926W        W 4445   5.988   4.976   9.389
  927W        W 4446   3.812   9.848   1.026
  928W        W 4447   5.609   0.586   0.756
  929W        W 4448   0.600   7.426  10.905
  930W        W 4449   6.671   9.967   0.489
  931W        W 4450   6.681   0.210   3.574
  932W        W 4451   6.233   4.163   8.287
  933W        W 4452   6.482   4.585   0.484
  934W        W 4453   0.536   3.513  11.787
  935W        W 4454   2.598   0.709   0.777
  936W        W 4455   1.978   2.656   9.561
  937W        W 4456   0.178   0.585  10.744
  938W        W 4457   3.356   2.150   3.539
  939W        W 4458   5.717   2.086  10.433
  940W        W 4459   9.994   2.162  11.468
  941W        W 4460   9.675   1.460   8.582
  942W        W 4461   3.243   3.658  11.080
  943W        W 4462   1.334   3.841   1.904
  944W        W 4463   4.772   2.840   0.787
  945W        W 4464   5.015   9.831   1.245
  946W        W 4465   3.981   3.426  10.434
  947W        W 4466   2.587   3.343  11.606
  948W        W 4467   0.096   6.509   8.877
  949W        W 4468   3.323   1.395  10.045
  950W        W 4469   5.300   6.465   0.802
  951W        W 4470   9.396   2.620  11.360
  952W        W 4471   9.611   7.048   3.499
  953W        W 4472   1.697   2.209   2.483
  954W        W 4473   3.353   3.062   2.396
  955W        W 4474   5.811   1.855   2.755
  956W        W 4475   0.337   0.978   3.364
  957W        W 4476   4.767   5.522   2.642
  958W        W 4477   4.352   7.686   1.093
  959W        W 4478   6.145   7.214  11.429
  960W        W 4479   8.659   2.395   9.646
  961W        W 4480   1.406   9.314   9.804
  962W        W 4481   4.914   9.326  10.469
  963W        W 4482   5.779   0.937   1.706
  964W        W 4483   6.610   3.802   3.479
  965W        W 4484   2.755   0.860  10.631
  966W        W 4485   1.865   6.955   0.870
  967W        W 4486   3.162   7.065   2.568
  968W        W 4487   9.839   4.331   1.297
  969W        W 4488   8.496   4.688   1.381
  970W        W 4489   2.277   1.357  10.878
  971W        W 4490   5.840   5.036   1.333
  972W        W 4491   7.545   6.302   1.567
  973W        W 4492   0.600   5.806   3.075
  974W        W 4493   2.876   0.648  11.085
  975W        W 4494   4.121   1.376   1.631
  976W        W 4495   7.411   6.220   9.552
  977W        W 4496   9.005   6.298   2.616
  978W        W 4497   0.510   7.656   3.167
  979W        W 4498   9.789   0.353   2.200
  980W        W 4499   1.949   9.896  11.980
  981W        W 4500   2.156   5.035   1.824
  982W        W 4501   9.097   7.194   3.436
  983W        W 4502   5.778   6.759   2.818
  984W        W 4503   1.702   2.303   1.467
  985W        W 4504   1.652   5.187   1.075
  986W        W 4505   7.427   2.993  11.532
  987W        W 4506   9.410   5.736   1.123
  988W        W 4507   0.788   7.878   8.835
  989W        W 4508   1.772   5.240  11.768
  990W        W 4509   3.268   8.250   0.433
  991W        W 4510   3.028   7.803  11.014
  992W        W 4511   9.568   5.041  10.419
  993W        W 4512   1.858   8.207   2.944
  994W        W 4513   6.075   1.522   2.353
  995W        W 4514   3.372   3.825  11.545
  996W        W 4515   8.842   3.323  10.493
  997W        W 4516   2.862   2.903   3.078
  998W        W 4517   3.100   9.475   2.358
  999W        W 4518   2.777   1.238  11.000
 1000W        W 4519   1.302   3.306   9.317
 1001W        W 4520   6.995   7.975   0.189
 1002W        W 4521   2.395   8.958  11.345
 1003W        W 4522   3.091   6.580   9.866
 1004W        W 4523   6.705   1.242   1.736
 1005W        W 4524   6.941   4.241   2.237
 1006W        W 4525   9.889   8.263   0.825
 1007W        W 4526   5.073   3.710   8.688
 1008W        W 4527   2.111   1.779   0.375
 1009W        W 4528   4.246   8.352   9.167
 1010W        W 4529   7.885   1.749   3.790
 1011W        W 4530   0.607   0.737   1.165
 1012W        W 4531   6.037   8.518   8.819
 1013W        W 4532   3.128   8.560   2.581
 1014W        W 4533   3.010   1.837   0.507
 1015W        W 4534   9.335   7.913   0.012
 1016W        W 4535   9.928   8.425  11.535
 1017W        W 4536   5.627   8.038   1.810
 1018W        W 4537   1.264   4.039  11.487
 1019W        W 4538   9.114   5.228  10.265
 1020W        W 4539   1.222   0.251   2.601
 1021W        W 4540   2.397   6.689   1.680
 1022W        W 4541   4.113   1.847  11.177
 1023W        W 4542   4.011   8.024   3.407
 1024W        W 4543   8.416   1.209   0.524
 1025W        W 4544   9.825   4.594  11.773
 1026W        W 4545   5.668   0.762  11.903
 1027W        W 4546   3.963   4.850   8.815
 1028W        W 4547   6.494   4.716   2.901
 1029W        W 4548   6.262   5.287   3.780
 1030W        W 4549   8.965   6.475   9.602
 1031W        W 4550   9.062   8.576  10.960
 1032W        W 4551   2.754   2.693   0.215
 1033W        W 4552   9.391   4.715   2.778
 1034W        W 4553   8.639   6.076   1.246
 1035W        W 4554   3.035   6.873  11.418
 1036W        W 4555   7.958   2.769   2.933
 1037W        W 4556   2.155   4.524   1.337
 1038W        W 4557   5.547   3.176   0.054
 1039W        W 4558   5.564   2.249   0.562
 1040W        W 4559   9.827   5.258   0.947
 1041W        W 4560   1.069   5.583   3.208
 1042W        W 4561   6.056   3.529  11.380
 1043W        W 4562   2.205   2.863   9.147
 1044W        W 4563   5.474   4.361  10.761
 1045W        W 4564   4.579   8.291   8.693
 1046W        W 4565   0.758   8.576   1.795
 1047W        W 4566   8.727   9.966   2.046
 1048W        W 4567   1.245   9.976   0.809
 1049W        W 4568   3.569   2.039  11.282
 1050W        W 4569   5.575   5.225   3.097
 1051W        W 4570   4.152   8.661  11.130
 1052W        W 4571   6.790   9.383   1.878
 1053W        W 4572   3.447   2.569   0.617
 1054W        W 4573   0.224   4.338  11.569
 1055W        W 4574   5.169   7.955   2.074
 1056W        W 4575   7.544   7.597   2.292
 1057W        W 4576   7.887   0.618   0.732
 1058W        W 4577   4.224   4.272   2.410
 1059W        W 4578   4.239   3.686   1.669
 1060W        W 4579   4.115   9.927  10.598
 1061W        W 4580   7.869   3.001  10.237
 1062W        W 4581   3.178   9.040   9.782
 1063W        W 4582   6.954   6.937   3.277
 1064W        W 4583   8.280   6.391  10.962
 1065W        W 4584   9.339   4.070   0.477
 1066W        W 4585   5.284   4.426  10.309
 1067W        W 4586   7.086   9.542   0.664
 1068W        W 4587   3.814   9.282   2.377
 1069W        W 4588   3.576   1.807   8.685
 1070W        W 4589   9.851   3.910  11.098
 1071W        W 4590   4.905   5.356  11.859
 1072W        W 4591   6.980   8.612  10.800
 1073W        W 4592   9.691   3.906   0.134
 1074W        W 4593   4.200   2.680  10.893
 1075W        W 4594   1.215   6.668  10.605
 1076W        W 4595   0.974   3.267   0.443
 1077W        W 4596   1.707   8.475  11.801
 1078W        W 4597   1.308   9.692   9.502
 1079W        W 4598   5.615   8.957   0.944
 1080W        W 4599   0.175   7.272  11.175
 1081W        W 4600   0.210   5.923  11.721
 1082W        W 4601   7.564   4.693   1.794
 1083W        W 4602   9.777   5.627  11.787
 1084W        W 4603   4.491   2.223  11.642
 1085W        W 4604   8.284   4.649  10.996
 1086W        W 4605   3.499   5.977   2.894
 1087W        W 4606   4.064   6.833   9.674
 1088W        W 4607   5.162   0.574  11.461
 1089W        W 4608   1.054   1.526   1.720
 1090W        W 4609   5.301   1.197   9.247
 1091W        W 4610   6.770   8.334  11.180
 1092W        W 4611   1.908   2.246   9.913
 1093W        W 4612   8.893   5.721  10.460
 1094W        W 4613   7.121   3.533   0.865
 1095W        W 4614   9.464   8.395  10.706
 1096W        W 4615   8.040   4.986  11.487
 1097W        W 4616   5.589   0.697  10.077
 1098W        W 4617   2.393   3.641   3.195
 1099W        W 4618   7.649   3.893  10.806
 1100W        W 4619   6.231   4.559   9.513
 1101W        W 4620   9.316   9.513   0.882
 1102W        W 4621   4.718   8.624  10.423
 1103W        W 4622   7.009   8.082   2.733
 1104W        W 4623   9.781   7.354   1.046
 1105W        W 4624   6.948   5.316   0.239
 1106W        W 4625   0.655   6.560   2.097
 1107W        W 4626   3.767   2.437   2.765
 1108W        W 4627   7.523   1.524   1.502
 1109W        W 4628   2.005   9.557   3.343
 1110W        W 4629   3.647   8.500   1.745
 1111W        W 4630   3.771   4.208  10.830
 1112W        W 4631   3.552   8.919   2.658
 1113W        W 4632   6.499   6.614   3.146
 1114W        W 4633   8.892   6.477  11.693
 1115W        W 4634   0.400   8.503   9.319
 1116W        W 4635   3.185   9.886   2.689
 1117W        W 4636   0.520   0.500   3.332
 1118W        W 4637   1.125   8.847   0.330
 1119W        W 4638   8.495   5.441  10.715
 1120W        W 4639   6.036   5.557   3.243
 1121W        W 4640   3.776   9.492   9.003
 1122W        W 4641   0.808   8.777  11.463
 1123W        W 4642   4.198   0.615  10.558
 1124W        W 4643   2.046   6.491  11.409
 1125W        W 4644   1.050   4.948  10.546
 1126W        W 4645   6.455   8.136  11.524
 1127W        W 4646   3.753   5.933  10.725
 1128W        W 4647   9.797   4.072  11.653
 1129W        W 4648   0.600   7.611   2.685
 1130W        W 4649   3.188   7.328   0.883
 1131W        W 4650   0.085   5.437   2.878
 1132W        W 4651   1.470   2.948   0.179
 1133W        W 4652   3.706   5.974   0.468
 1134W        W 4653   8.547   8.927   9.054
 1135W        W 4654   9.749   6.429   9.253
 1136W        W 4655   9.093   5.755   2.814
 1137W        W 4656   8.482   2.750  11.473
 1138W        W 4657   6.815   4.990  10.237
 1139W        W 4658   1.640   3.495  10.547
 1140W        W 4659   8.636   3.948   0.929
 1141W        W 4660   7.396   9.458  11.736
 1142W        W 4661   0.366   2.595   9.973
 1143W        W 4662   5.478   6.994   1.099
 1144W        W 4663   8.913   1.204   3.247
 1145W        W 4664   9.953   0.097   8.795
 1146W        W 4665   4.897   3.427   1.533
 1147W        W 4666   4.842   3.017   4.112
 1148W        W 4667   3.016   6.292   2.235
 1149W        W 4668   7.962   3.967   1.410
 1150W        W 4669   3.157   3.314   1.982
 1151W        W 4670   0.613   9.768   2.209
 1152W        W 4671   1.348   9.307   2.132
 1153W        W 4672   1.171   4.554  10.843
 1154W        W 4673   1.741   9.122   3.259
 1155W        W 4674   4.758   3.729  10.399
 1156W        W 4675   2.134   7.098  10.422
 1157W        W 4676   6.290   6.515   2.289
 1158W        W 4677   1.111   7.117  10.370
 1159W        W 4678   6.882   9.525  11.682
 1160W        W 4679   8.577   7.642   9.860
 1161W        W 4680   2.746   7.911   2.125
 1162W        W 4681   6.207   3.196   1.371
 1163W        W 4682   3.024   9.308   1.879
 1164W        W 4683   4.908   2.184  10.801
 1165W        W 4684   8.946   6.672   1.124
 1166W        W 4685   1.203   6.200  10.957
 1167W        W 4686   6.514   2.691   9.592
 1168W        W 4687   1.811   5.265   9.221
 1169W        W 4688   3.206   5.192   2.369
 1170W        W 4689   6.846   7.222  11.851
 1171W        W 4690   7.405   9.865  11.415
 1172W        W 4691   0.547   6.198  10.209
 1173W        W 4692   6.133   0.041   2.574
 1174W        W 4693   9.228   3.668   0.824
 1175W        W 4694   7.540   7.648   0.198
 1176W        W 4695   3.024   2.845   1.424
 1177W        W 4696   0.879   2.572   0.834
 1178W        W 4697   3.855   6.648   8.790
 1179W        W 4698   5.557   4.569   0.555
 1180W        W 4699   3.853   4.014   0.804
 1181W        W 4700   4.605   8.200   0.352
 1182W        W 4701   9.838   9.121   0.296
 1183W        W 4702   1.946   8.714   2.988
 1184W        W 4703   8.809   3.911   3.144
 1185W        W 4704   7.695   1.470   2.895
 1186W        W 4705   4.676   4.008  11.349
 1187W        W 4706   4.884   2.199   2.552
 1188W        W 4707   3.634   3.448   2.157
 1189W        W 4708   3.238   3.134   3.385
 1190W        W 4709   9.798   1.467   3.653
 1191W        W 4710   0.424   9.420   9.146
 1192W        W 4711   2.604   0.566   2.567
 1193W        W 4712   3.115   7.585  11.950
 1194W        W 4713   2.573   6.197   1.662
 1195W        W 4714   7.220   8.952   9.655
 1196W        W 4715   5.658   8.348  10.360
 1197W        W 4716   6.910   4.648  11.531
 1198W        W 4717   8.495   3.474   0.182
 1199W        W 4718   4.587   8.273   2.717
 1200W        W 4719   3.724   8.272  11.891
 1201W        W 4720   7.106   8.694  11.830
 1202W        W 4721   7.747   9.152   8.766
 1203W        W 4722   2.099   6.536  10.059
 1204W        W 4723   3.743   8.128   0.642
 1205W        W 4724   1.627   4.621   1.272
 1206W        W 4725   1.874   1.659   8.587
 1207W        W 4726   5.212   3.188   2.467
 1208W        W 4727   3.574   6.421   7.965
 1209W        W 4728   5.146   7.988  10.180
 1210W        W 4729   9.610   3.366   0.674
 1211W        W 4730   8.146   5.400   1.826
 1212W        W 4731   1.273   0.780  10.388
 1213W        W 4732   8.728   6.332   3.530
 1214W        W 4733   8.799   3.812   9.946
 1215W        W 4734   9.460   7.995   0.977
 1216W        W 4735   6.465   6.101   0.016
 1217W        W 4736   4.114   4.911  11.450
 1218W        W 4737   0.389   6.232   2.697
 1219W        W 4738   3.593   4.021   0.286
 1220W        W 4739   0.804   2.558   9.150
 1221W        W 4740   8.645   7.423  11.920
 1222W        W 4741   8.393   1.394   1.001
 1223W        W 4742   6.008   0.051  11.278
 1224W        W 4743   2.696   9.673  10.836
 1225W        W 4744   9.120   4.251   9.086
 1226W        W 4745   9.256   7.397   8.635
 1227W        W 4746   6.319   1.672   0.308
 1228W        W 4747   6.634   1.652  10.051
 1229W        W 4748   1.043   4.177   0.206
 1230W        W 4749   2.694   0.416   1.681
 1231W        W 4750   1.849   1.281  11.902
 1232W        W 4751   8.585   7.085   2.526
 1233W        W 4752   1.435   1.811   1.465
 1234W        W 4753   8.532   4.963   1.795
 1235W        W 4754   0.475   2.944   2.238
 1236W        W 4755   9.847   7.999  11.293
 1237W        W 4756   3.508   6.298   0.859
 1238W        W 4757   4.978   0.266  11.860
 1239W        W 4758   7.871   4.491  11.381
 1240W        W 4759   4.088   6.993   0.499
 1241W        W 4760   9.035   2.424  10.424
 1242W        W 4761   6.497   9.767   2.355
 1243W        W 4762   7.490   1.924   0.963
 1244W        W 4763   0.122   2.439  10.481
 1245W        W 4764   2.153   2.482   2.553
 1246W        W 4765   5.818   6.488   9.995
 1247W        W 4766   7.322   8.811   1.388
 1248W        W 4767   2.727   1.652  10.703
 1249W        W 4768   0.735   2.579  10.324
 1250W        W 4769   9.045   1.722  10.882
 1251W        W 4770   4.938   7.027   2.342
 1252W        W 4771   5.722   6.502  11.678
 1253W        W 4772   9.073   5.531   0.317
 1254W        W 4773   6.985   7.699   1.638
 1255W        W 4774   4.701   6.825   8.395
 1256W        W 4775   5.504   3.247   9.088
 1257W        W 4776   8.851   4.955   9.365
 1258W        W 4777   7.414   0.278   1.915
 1259W        W 4778   5.625   8.879  11.087
 1260W        W 4779   3.005   6.063   2.706
 1261W        W 4780   1.675   6.751   0.006
 1262W        W 4781   7.571   3.580   2.486
 1263W        W 4782   2.100   7.655   3.199
 1264W        W 4783   9.226   6.702   3.537
 1265W        W 4784   3.186   8.972   2.267
 1266W        W 4785   8.654   8.401   0.250
 1267W        W 4786   2.607   0.890   1.265
 1268W        W 4787   4.794   8.763   2.671
 1269W        W 4788   4.023   8.024  10.954
 1270W        W 4789   2.671   6.244   9.307
 1271W        W 4790   5.495   6.053   9.140
 1272W        W 4791   0.432   9.004   9.461
 1273W        W 4792   9.137   0.914   9.465
 1274W        W 4793   7.680   6.256   3.611
 1275W        W 4794   3.828   3.934   2.089
 1276W        W 4795   0.392   5.133   2.589
 1277W        W 4796   8.977   8.497  10.440
 1278W        W 4797   9.836   0.430  11.484
 1279W        W 4798   2.749   1.324   8.884
 1280W        W 4799   2.680   8.829   9.044
 1281W        W 4800   8.667   9.455  11.408
 1282W        W 4801   8.718   0.299   9.194
 1283W        W 4802   5.599   3.171   0.554
 1284W        W 4803   8.048   7.083  10.963
 1285W        W 4804   6.170   4.545  10.870
 1286W        W 4805   9.727   8.161  10.194
 1287W        W 4806   3.060   9.056   2.760
 1288W        W 4807   1.466   1.754  11.100
 1289W        W 4808   0.419   3.387  11.290
 1290W        W 4809   9.727   1.230   0.897
 1291W        W 4810   6.894   0.413   1.275
 1292W        W 4811   2.030   5.172   3.146
 1293W        W 4812   2.152   2.283   0.453
 1294W        W 4813   4.323   9.459   8.564
 1295W        W 4814   0.237   1.494   3.361
 1296W        W 4815   1.809   5.195   9.775
 1297W        W 4816   9.999   5.134  10.682
 1298W        W 4817   6.975   2.038   1.022
 1299W        W 4818   2.255   6.543   9.151
 1300W        W 4819   3.903   4.264   2.882
 1301W        W 4820   3.823   2.078   9.040
 1302W        W 4821   0.616   7.177  10.439
 1303W        W 4822   7.501   7.118   0.372
 1304W        W 4823   8.119   3.322   9.918
 1305W        W 4824   0.232   2.926  10.368
 1306W        W 4825   5.223   0.726   2.426
 1307W        W 4826   8.955   0.176   0.925
 1308W        W 4827   3.786   8.554   8.998
 1309W        W 4828   7.144   3.966   1.769
 1310W        W 4829   2.818   1.773   1.939
 1311W        W 4830   8.381   7.121   2.990
 1312W        W 4831   7.332   9.887  10.535
 1313W        W 4832   3.801   0.613   2.659
 1314W        W 4833   9.404   0.622  11.693
 1315W        W 4834   3.148   4.913  11.623
 1316W        W 4835   4.758   3.113   8.177
 1317W        W 4836   3.187   4.132   3.618
 1318W        W 4837   6.987   3.698  10.121
 1319W        W 4838   6.479   9.041   9.947
 1320W        W 4839   9.944   6.509  10.934
 1321W        W 4840   5.084   2.669   9.803
 1322W        W 4841   7.935   8.570   3.564
 1323W        W 4842   6.909   3.335   2.405
 1324W        W 4843   3.895   7.163   3.730
 1325W        W 4844   1.796   9.601  10.529
 1326W        W 4845   6.684   1.690   1.388
 1327W        W 4846   2.179   7.419   8.856
 1328W        W 4847   4.968   9.011   0.410
 1329W        W 4848   9.832   0.385   0.576
 1330W        W 4849   8.881   7.669  11.203
 1331W        W 4850   5.623   9.818  11.503
 1332W        W 4851   5.055   3.019  11.946
 1333W        W 4852   7.603   0.664   3.232
 1334W        W 4853   3.994   3.217   1.845
 1335W        W 4854   7.392   3.028   0.040
 1336W        W 4855   0.732   0.577   9.015
 1337W        W 4856   2.576   1.339   9.377
 1338W        W 4857   9.271   1.424   9.538
 1339W        W 4858   0.809   1.775  11.751
 1340W        W 4859   7.015   9.759   9.700
 1341W        W 4860   0.280   9.923   9.627
 1342W        W 4861   6.161   8.066   9.709
 1343W        W 4862   3.191   9.054  10.769
 1344W        W 4863   1.577   0.763   1.347
 1345W        W 4864   8.502   3.553   2.791
 1346W        W 4865   1.398   7.054   9.114
 1347W        W 4866   0.655   7.466   2.190
 1348W        W 4867   8.491   3.623  11.218
 1349W        W 4868   3.499   5.503  11.696
 1350W        W 4869   2.348   3.152  10.096
 1351W        W 4870   0.822   6.376   1.471
 1352W        W 4871   3.438   5.717   9.774
 1353W        W 4872   8.947   1.340   2.768
 1354W        W 4873   2.594   8.493  11.309
 1355W        W 4874   1.812   9.345   2.412
 1356W        W 4875   4.495   2.372  10.101
 1357W        W 4876   7.839   3.194   2.667
 1358W        W 4877   2.228   3.789  10.951
 1359W        W 4878   1.416   9.316  11.848
 1360W        W 4879   7.354   7.993  11.827
 1361W        W 4880   4.716   1.376   0.213
 1362W        W 4881   7.529   8.388   1.606
 1363W        W 4882   4.095   2.916  10.443
 1364W        W 4883   5.612   4.172   1.521
 1365W        W 4884   3.678   0.421   0.763
 1366W        W 4885   1.751   0.030  10.816
 1367W        W 4886   9.071   6.954   8.860
 1368W        W 4887   1.005   4.058   9.006
 1369W        W 4888   9.412   0.407   0.876
 1370W        W 4889   6.587   8.004   2.476
 1371W        W 4890   2.131   0.369  10.458
 1372W        W 4891   5.204   8.995  11.402
 1373W        W 4892   2.929   3.785   8.459
 1374W        W 4893   1.867   5.437  10.795
 1375W        W 4894   2.254   3.519   1.367
 1376W        W 4895   4.350   4.002   0.628
 1377W        W 4896   4.055   6.007   3.030
 1378W        W 4897   9.098   4.996  11.217
 1379W        W 4898   1.956   6.972   9.081
 1380W        W 4899   6.627   5.574   2.366
 1381W        W 4900   8.552   3.779  11.701
 1382W        W 4901   7.042   1.913  10.598
 1383W        W 4902   5.800   2.652  11.344
 1384W        W 4903   7.453   8.229   2.940
 1385W        W 4904   6.316   6.177  10.308
 1386W        W 4905   6.507   5.772  11.070
 1387W        W 4906   3.089   2.169  11.433
 1388W        W 4907   4.313   7.628   3.234
 1389W        W 4908   7.684   4.585   0.780
 1390W        W 4909   6.671   4.089   1.621
 1391W        W 4910   4.022   2.276   1.809
 1392W        W 4911   4.760   9.593   2.434
 1393W        W 4912   0.979   1.219  10.400
 1394W        W 4913   4.438   7.449   1.902
 1395W        W 4914   4.946   8.017   3.875
 1396W        W 4915   9.402   9.692  11.756
 1397W        W 4916   4.698   2.317   0.625
 1398W        W 4917   5.347   3.467   1.847
 1399W        W 4918   1.222   0.958   0.473
 1400W        W 4919   8.304   5.630   2.445
 1401W        W 4920   9.999   0.246   1.707
 1402W        W 4921   3.641   6.897   2.559
 1403W        W 4922   1.370   4.587   0.310
 1404W        W 4923   2.977   4.689  10.545
 1405W        W 4924   8.726   7.236  11.449
 1406W        W 4925   0.719   2.118  11.089
 1407W        W 4926   1.072   2.961   3.097
 1408W        W 4927   1.048   8.391   9.333
 1409W        W 4928   1.864   7.088   2.258
 1410W        W 4929   4.570   4.123   9.203
 1411W        W 4930   5.918   7.192   0.873
 1412W        W 4931   9.257   5.212   2.803
 1413W        W 4932   4.220   6.358   9.539
 1414W        W 4933   2.475   1.690   1.131
 1415W        W 4934   4.279   3.745   9.620
 1416W        W 4935   5.948   9.476   2.987
 1417W        W 4936   8.472   6.583   1.325
 1418W        W 4937   1.368   7.148   9.927
 1419W        W 4938   3.121   9.494  10.016
 1420W        W 4939   4.201   0.383   9.163
 1421W        W 4940   3.262   1.146   1.355
 1422W        W 4941   3.108   6.513   9.353
 1423W        W 4942   8.911   4.641   9.770
 1424W        W 4943   2.178   0.112   0.416
 1425W        W 4944   3.257   1.769   2.723
 1426W        W 4945   0.450   4.001  11.890
 1427W        W 4946   5.482   5.784  10.297
 1428W        W 4947   8.852   7.919   0.209
 1429W        W 4948   2.579   9.932   1.222
 1430W        W 4949   5.349   3.884   3.240
 1431W        W 4950   3.488   0.905   0.745
 1432W        W 4951   0.163   3.299   3.265
 1433W        W 4952   5.522   1.215  10.686
 1434W        W 4953   7.764   7.480   1.254
 1435W        W 4954   4.702   3.913   1.537
 1436W        W 4955   3.965   8.136  10.012
 1437W        W 4956   8.627   5.365   0.634
 1438W        W 4957   5.043   4.660  10.718
 1439W        W 4958   9.757   8.645   2.828
 1440W        W 4959   9.014   5.488  11.359
 1441W        W 4960   0.005   3.100  11.977
 1442W        W 4961   2.278   1.238   1.466
 1443W        W 4962   6.939   6.852  10.208
 1444W        W 4963   7.663   8.874   1.772
 1445W        W 4964   2.050   1.274   0.398
 1446W        W 4965   1.537   2.737   3.068
 1447W        W 4966   5.833   0.455   8.922
 1448W        W 4967   7.884   0.802   1.200
 1449W        W 4968   1.849   5.700   0.394
 1450W        W 4969   1.752   9.861   8.801
 1451W        W 4970   2.234   2.112   1.351
 1452W        W 4971   4.905   2.763   8.993
 1453W        W 4972   2.222   1.695   9.906
 1454W        W 4973   9.301   3.104   2.829
 1455W        W 4974   2.661   9.478   9.777
 1456W        W 4975   6.966   5.992   2.309
 1457W        W 4976   6.423   6.771  11.015
 1458W        W 4977   8.341   2.877  10.076
 1459W        W 4978   0.152   9.127   1.128
 1460W        W 4979   8.180   9.312   9.140
 1461W        W 4980   3.637   1.604   2.426
 1462W        W 4981   3.683   9.060   9.812
 1463W        W 4982   1.960   8.614   3.479
 1464W        W 4983   3.962   9.131   3.512
 1465W        W 4984   6.105   5.963   2.515
 1466W        W 4985   7.473   6.048   2.375
 1467W        W 4986   5.670   6.969   9.837
 1468W        W 4987   1.767   1.762  10.148
 1469W        W 4988   9.762   9.878   2.000
 1470W        W 4989   7.829   1.608  11.872
 1471W        W 4990   8.585   5.580   1.107
 1472W        W 4991   4.921   2.664   0.302
 1473W        W 4992   2.592   1.971   8.841
 1474W        W 4993   6.241   5.953   0.466
 1475W        W 4994   8.429   3.101   9.094
 1476W        W 4995   6.080   5.473   0.270
 1477W        W 4996   9.328   3.765   3.163
 1478W        W 4997   3.016   1.050   0.916
 1479W        W 4998   8.582   8.384   1.899
 1480W        W 4999   8.534   0.066   9.668
 1481W        W 5000   9.434   1.385  11.305
 1482W        W 5001   6.820   0.246   9.497
 1483W        W 5002   7.128   4.845   3.572
 1484W        W 5003   1.472   1.504   1.059
 1485W        W 5004   8.490   0.321  11.633
 1486W        W 5005   2.303   6.043  10.083
 1487W        W 5006   5.805   7.283  10.683
 1488W        W 5007   2.722   8.869   0.571
 1489W        W 5008   6.676   4.118   0.354
 1490W        W 5009   3.751   4.722   1.658
 1491W        W 5010   6.950   3.420   3.625
 1492W        W 5011   3.184   4.152   9.658
 1493W        W 5012   0.889   9.319   2.353
 1494W        W 5013   7.383   6.508   2.049
 1495W        W 5014   9.280   3.162   9.330
 1496W        W 5015   7.170   6.135   3.641
 1497W        W 5016   2.199   4.979  11.535
 1498W        W 5017   6.496   4.851  11.255
 1499W        W 5018   9.432   8.966   0.585
 1500W        W 5019   5.076   6.770   8.739
 1501W        W 5020   1.257   2.880   0.667
 1502W        W 5021   7.119   2.487   1.327
 1503W        W 5022   1.014   7.299   3.005
 1504W        W 5023   8.119   3.804   0.952
 1505W        W 5024   7.605   0.758  10.839
 1506W        W 5025   8.569   9.855   3.009
 1507W        W 5026   7.693   4.684   2.293
 1508W        W 5027   9.395   0.465  10.641
 1509W        W 5028   9.964   3.109   2.116
 1510W        W 5029   8.528   2.322  10.519
 1511W        W 5030   3.066   5.087   3.259
 1512W        W 5031   4.874   6.072   1.422
 1513W        W 5032   4.004   3.906   1.277
 1514W        W 5033   3.550   3.748   8.508
 1515W        W 5034   3.682   0.001   1.509
 1516W        W 5035   8.471   7.023  10.122
 1517W        W 5036   5.105   5.249   1.810
 1518W        W 5037   3.329   0.871   1.783
 1519W        W 5038   9.511   2.418   1.711
 1520W        W 5039   8.254   6.680   9.054
 1521W        W 5040   8.818   3.083   2.675
 1522W        W 5041   1.685   6.323   2.849
 1523W        W 5042   4.940   0.656  10.982
 1524W        W 5043   8.938   7.096   0.791
 1525W        W 5044   4.004   4.335   0.456
 1526W        W 5045   1.563   6.924   3.560
 1527W        W 5046   9.193   6.071   1.848
 1528W        W 5047   1.306   6.660   0.339
 1529W        W 5048   7.474   0.898   0.836
 1530W        W 5049   9.808   3.127   2.932
 1531W        W 5050   4.057   3.251  10.904
 1532W        W 5051   5.410   2.282   9.984
 1533W        W 5052   8.104   8.424   9.440
 1534W        W 5053   7.677   2.341   2.214
 1535W        W 5054   7.552   1.078   8.563
 1536W        W 5055   6.122   6.746   9.667
 1537W        W 5056   7.428   8.539   9.884
 1538W        W 5057   9.265   4.493  11.099
 1539W        W 5058   3.327   7.968   0.886
 1540W        W 5059   4.239   2.541   3.048
 1541W        W 5060   0.222   1.782  10.298
 1542W        W 5061   9.208   3.143   0.840
 1543W        W 5062   3.493   1.208  10.499
 1544W        W 5063   5.938   2.756  10.322
 1545W        W 5064   4.293   4.390   8.533
 1546W        W 5065   7.402   9.573   0.236
 1547W        W 5066   5.007   6.580  10.611
 1548W        W 5067   7.865   6.370   3.130
 1549W        W 5068   1.710   5.788   9.075
 1550W        W 5069   6.412   1.359  11.499
 1551W        W 5070   0.017   5.873   0.170
 1552W        W 5071   1.843   9.179   9.564
 1553W        W 5072   5.344   8.492  11.321
 1554W        W 5073   1.864   4.701  11.247
 1555W        W 5074   4.722   1.405   0.716
 1556W        W 5075   9.498   7.530   3.409
 1557W        W 5076   5.469   2.141   1.566
 1558W        W 5077   6.926   5.565   8.511
 1559W        W 5078   9.587   6.477   8.737
 1560W        W 5079   1.342   8.441   0.122
 1561W        W 5080   6.506   7.811   9.416
 1562W        W 5081   8.501   6.998   1.040
 1563W        W 5082   9.586   4.092   2.863
 1564W        W 5083   5.032   6.369  11.067
 1565W        W 5084   5.848   1.884   1.300
 1566W        W 5085   4.626   3.573   8.462
 1567W        W 5086   8.091   9.448  11.205
 1568W        W 5087   3.983   3.257   9.536
 1569W        W 5088   9.895   1.290  11.456
 1570W        W 5089   0.221   1.038   1.004
 1571W        W 5090   6.366   3.720   0.355
 1572W        W 5091   2.637   1.941  11.575
 1573W        W 5092   7.736   2.082  11.650
 1574W        W 5093   5.191   7.145   9.958
 1575W        W 5094   3.782   1.724   0.922
 1576W        W 5095   4.147   3.191  10.007
 1577W        W 5096   0.321   3.762  10.937
 1578W        W 5097   8.513   6.599   0.084
 1579W        W 5098   1.237   1.580  11.942
 1580W        W 5099   9.491   3.124   2.358
 1581W        W 5100   2.837   0.140  11.031
 1582W        W 5101   7.560   1.163  11.969
 1583W        W 5102   2.899   4.375   0.850
 1584W        W 5103   0.888   0.105   8.916
 1585W        W 5104   7.044   5.454   1.588
 1586W        W 5105   8.785   6.801   3.326
 1587W        W 5106   8.055   0.063  10.936
 1588W        W 5107   7.235   4.669  10.221
 1589W        W 5108   4.751   3.695   9.436
 1590W        W 5109   6.714   5.196   8.962
 1591W        W 5110   5.426   7.557   1.824
 1592W        W 5111   5.767   6.233  10.449
 1593W        W 5112   7.827   6.607  10.870
 1594W        W 5113   7.453   1.882   1.977
 1595W        W 5114   9.147   3.037   9.869
 1596W        W 5115   1.103   5.713   2.209
 1597W        W 5116   2.116   2.601   1.392
 1598W        W 5117   8.794   4.301   0.478
 1599W        W 5118   8.097   2.765   8.873
 1600W        W 5119   3.581   3.622   0.660
 1601W        W 5120   3.370   0.362  11.065
 1602W        W 5121   9.661   8.573   8.586
 1603W        W 5122   0.211   0.005   0.822
 1604W        W 5123   7.036   9.046  10.479
 1605W        W 5124   4.862   3.969   3.153
 1606W        W 5125   7.147   5.941  11.517
 1607W        W 5126   3.267   0.763  11.408
 1608W        W 5127   5.193   0.061  11.347
 1609W        W 5128   3.811   8.385  10.470
 1610W        W 5129   1.792   3.116   9.390
 1611W        W 5130   9.867   8.032  10.689
 1612W        W 5131   7.413   7.508   9.983
 1613W        W 5132   4.873   5.344   1.369
 1614W        W 5133   7.493   5.592  10.237
 1615W        W 5134   4.955   7.523  11.625
 1616W        W 5135   5.161   0.724  11.960
 1617W        W 5136   9.036   3.140   8.722
 1618W        W 5137   3.067   7.884  11.515
 1619W        W 5138   4.015   2.176  10.798
 1620W        W 5139   9.348   9.966   0.647
 1621W        W 5140   9.476   6.501   2.749
 1622W        W 5141   2.272   0.134   1.908
 1623W        W 5142   8.715   1.840  11.733
 1624W        W 5143   3.766   3.672   8.042
 1625W        W 5144   8.481   0.345   0.779
 1626W        W 5145   6.626   3.252  10.461
 1627W        W 5146   7.810   6.080  10.861
 1628W        W 5147   3.220   2.886   0.302
 1629W        W 5148   2.782   6.421  11.039
 1630W        W 5149   3.639   0.970   3.015
 1631W        W 5150   7.734   8.487  11.309
 1632W        W 5151   3.647   8.866  10.658
 1633W        W 5152   9.834   9.979  11.755
 1634W        W 5153   4.577   3.270  10.280
 1635W        W 5154   1.051   9.663   0.452
 1636W        W 5155   6.685   7.614   3.144
 1637W        W 5156   1.061   2.830  10.698
 1638W        W 5157   5.443   2.729   0.289
 1639W        W 5158   3.321   8.274  10.168
 1640W        W 5159   3.545   4.246  11.286
 1641W        W 5160   0.671   4.924   0.853
 1642W        W 5161   3.523   5.900   9.221
 1643W        W 5162   4.087   0.085   1.829
 1644W        W 5163   1.822   5.854   2.725
 1645W        W 5164   0.420   9.303   8.621
 1646W        W 5165   4.213   2.190   2.668
 1647W        W 5166   3.773   6.384  10.447
 1648W        W 5167   3.734   6.114  10.009
 1649W        W 5168   2.066   1.483   0.886
 1650W        W 5169   9.642   1.038   1.389
 1651W        W 5170   4.658   7.251   3.174
 1652W        W 5171   2.692   8.948   9.629
 1653W        W 5172   6.794   9.940   1.387
 1654W        W 5173   5.131   5.005   3.317
 1655W        W 5174   3.365   1.069   0.273
 1656W        W 5175   4.351   9.121  11.235
 1657W        W 5176   3.764   9.213   1.104
 1658W        W 5177   0.497   4.215   9.519
 1659W        W 5178   1.960   2.770   2.168
 1660W        W 5179   2.292   8.950   8.677
 1661W        W 5180   1.301   7.642   9.943
 1662W        W 5181   9.988   8.072   2.248
 1663W        W 5182   8.160   5.341   0.884
 1664W        W 5183   0.956   0.893   9.989
 1665W        W 5184   1.360   4.929  11.933
 1666W        W 5185   4.165   8.503   0.645
 1667W        W 5186   5.199   5.895   0.439
 1668W        W 5187   2.612   6.442  10.056
 1669W        W 5188   0.852   7.217   9.534
 1670W        W 5189   7.840   6.736   2.124
 1671W        W 5190   0.022   2.112   9.403
 1672W        W 5191   1.675   0.028   9.305
 1673W        W 5192   8.862   0.890   2.553
 1674W        W 5193   4.552   5.152   1.746
 1675W        W 5194   7.517   9.402   0.952
 1676W        W 5195   5.628   3.818  11.826
 1677W        W 5196   6.480   6.049   2.194
 1678W        W 5197   7.438   0.310   0.079
 1679W        W 5198   6.288   0.491   9.204
 1680W        W 5199   0.608   9.057   9.953
 1681W        W 5200   7.922   0.205   2.539
 1682W        W 5201   2.857   5.581   3.228
 1683W        W 5202   7.297   1.801   2.856
 1684W        W 5203   6.047   4.516   3.048
 1685W        W 5204   0.917   2.482   9.866
 1686W        W 5205   2.886   9.581   1.454
 1687W        W 5206   5.157   4.968   0.093
 1688W        W 5207   9.637   0.088   3.365
 1689W        W 5208   5.613   2.522   9.591
 1690W        W 5209   7.413   8.869  11.057
 1691W        W 5210   6.327   4.515   4.048
 1692W        W 5211   6.915   8.212  11.718
 1693W        W 5212   6.132   7.643  10.846
 1694W        W 5213   6.431   6.982   8.760
 1695W        W 5214   3.511   7.598   0.575
 1696W        W 5215   8.020   9.564   1.647
 1697W        W 5216   7.243   6.142  10.052
 1698W        W 5217   0.924   3.996   2.939
 1699W        W 5218   4.553   6.638   2.369
 1700W        W 5219   6.663   0.576  10.495
 1701W        W 5220   8.592   9.070   9.865
 1702W        W 5221   4.298   8.664   2.841
 1703W        W 5222   7.882   8.881   0.463
 1704W        W 5223   3.434   9.130   3.134
 1705W        W 5224   9.730   6.682  10.484
 1706W        W 5225   8.658   3.160  11.815
 1707W        W 5226   2.084   1.477   1.904
 1708W        W 5227   7.222   7.101  11.468
 1709W        W 5228   0.079   7.027   3.294
 1710W        W 5229   3.017   6.389   8.654
 1711W        W 5230   0.677   7.927  10.940
 1712W        W 5231   1.216   3.063  11.158
 1713W        W 5232   1.625   1.224   8.733
 1714W        W 5233   9.778   7.473   8.947
 1715W        W 5234   5.951   9.506  11.768
 1716W        W 5235   4.080   7.161  10.647
 1717W        W 5236   3.360   0.444  10.079
 1718W        W 5237   0.828   8.499   1.275
 1719W        W 5238   8.120   0.116   9.972
 1720W        W 5239   9.539   9.255   3.461
 1721W        W 5240   4.851   8.315  11.366
 1722W        W 5241   2.685   8.300  10.362
 1723W        W 5242   5.988   9.268   1.267
 1724W        W 5243   8.148   7.429   2.628
 1725W        W 5244   0.884   4.066   1.230
 1726W        W 5245   2.090   0.749   1.295
 1727W        W 5246   9.849   8.381   3.252
 1728W        W 5247   5.159   8.057   9.621
 1729W        W 5248   8.355   1.748   0.545
 1730W        W 5249   0.475   5.656   0.319
 1731W        W 5250   0.288   7.964   0.727
 1732W        W 5251   6.262   5.917   1.158
 1733W        W 5252   8.687   8.843  10.696
 1734W        W 5253   4.407   9.664   0.532
 1735W        W 5254   5.345   7.487  10.692
 1736W        W 5255   6.547   0.265   2.129
 1737W        W 5256   3.963   5.111  10.967
 1738W        W 5257   1.749   2.637   9.084
 1739W        W 5258   7.649   0.318  10.083
 1740W        W 5259   1.599   8.037  10.481
 1741W        W 5260   4.637   6.130   4.165
 1742W        W 5261   2.144   2.528  11.571
 1743W        W 5262   0.111   7.513   3.455
 1744W        W 5263   1.431   5.364   0.164
 1745W        W 5264   7.115   7.871   3.217
 1746W        W 5265   2.272   7.411  11.560
 1747W        W 5266   5.688   9.627   8.458
 1748W        W 5267   8.690   3.245  10.018
 1749W        W 5268   4.357   7.819   9.963
 1750W        W 5269   4.598   9.529   1.365
 1751W        W 5270   3.007   1.865   9.948
 1752W        W 5271   6.345   5.077   1.472
 1753W        W 5272   4.466   5.127  10.754
 1754W        W 5273   3.392   6.782   0.783
 1755W        W 5274   9.596   1.822  11.531
 1756W        W 5275   4.909   5.485   8.496
 1757W        W 5276   3.142   5.977   1.074
 1758W        W 5277   5.150   0.133   1.668
 1759W        W 5278   1.363   0.205   2.092
 1760W        W 5279   9.077   6.810   2.534
 1761W        W 5280   7.187   0.858   2.194
 1762W        W 5281   7.709   4.582   9.525
 1763W        W 5282   3.806   4.443  10.360
 1764W        W 5283   8.459   2.647   0.534
 1765W        W 5284   1.241   3.369   2.166
 1766W        W 5285   2.797   8.841   1.941
 1767W        W 5286   1.405   9.401  10.853
 1768W        W 5287   3.266   3.201   2.880
 1769W        W 5288   2.842   5.568   8.859
 1770W        W 5289   8.430   4.492   8.347
 1771W        W 5290   1.345   6.121   2.034
 1772W        W 5291   1.970   0.498   9.449
 1773W        W 5292   1.897   9.114  10.649
 1774W        W 5293   9.982   6.521   1.393
 1775W        W 5294   9.087   6.449   3.105
 1776W        W 5295   8.795   3.134  11.319
 1777W        W 5296   5.762   3.997   3.546
 1778W        W 5297   7.233   9.071   8.790
 1779W        W 5298   0.452   5.703   2.601
 1780W        W 5299   7.662   9.841   1.881
 1781W        W 5300   0.671   5.169   2.007
 1782W        W 5301   6.404   9.779   2.916
 1783W        W 5302   7.080   1.419   1.233
 1784W        W 5303   6.842   0.093  10.574
 1785W        W 5304   1.159   3.307  10.638
 1786W        W 5305   5.466   8.902   1.857
 1787W        W 5306   1.361   3.957   1.396
 1788W        W 5307   5.085   1.749   2.373
 1789W        W 5308   7.829   9.779   3.289
 1790W        W 5309   3.256   0.919   9.877
 1791W        W 5310   6.158   0.181   0.678
 1792W        W 5311   9.870   2.769   1.751
 1793W        W 5312   5.968   6.505   3.237
 1794W        W 5313   6.393   9.061   0.194
 1795W        W 5314   4.151   8.012   8.569
 1796W        W 5315   3.120   6.021   9.514
 1797W        W 5316   7.988   1.438   0.346
 1798W        W 5317   7.509   9.839   9.499
 1799W        W 5318   1.718   7.442   0.798
 1800W        W 5319   6.139   3.681  11.870
 1801W        W 5320   5.886   0.630   3.781
 1802W        W 5321   4.634   1.371   9.928
 1803W        W 5322   2.919   1.726  11.193
 1804W        W 5323   8.092   6.929   2.516
 1805W        W 5324   2.926   5.568   9.696
 1806W        W 5325   2.800   3.058   0.555
 1807W        W 5326   4.014   1.787   9.944
 1808W        W 5327   2.709   9.334   8.231
 1809W        W 5328   5.319   6.301   8.737
 1810W        W 5329   8.045   8.887  10.417
 1811W        W 5330   1.320   4.051  10.976
 1812W        W 5331   5.090   4.363   3.379
 1813W        W 5332   8.231   4.458   3.563
 1814W        W 5333   5.708   6.336   8.331
 1815W        W 5334   8.658   0.817  11.642
 1816W        W 5335   1.221   6.493   2.792
 1817W        W 5336   3.583   5.275  10.505
 1818W        W 5337   6.648   8.120   0.533
 1819W        W 5338   6.585   6.539   8.549
 1820W        W 5339   4.454   9.258  10.749
 1821W        W 5340   9.980   8.985   8.617
 1822W        W 5341   8.844   7.415   1.772
 1823W        W 5342   8.429   4.754   9.595
 1824W        W 5343   8.799   5.778  10.959
 1825W        W 5344   3.722   5.547   2.761
 1826W        W 5345   1.222   2.184  11.128
 1827W        W 5346   6.498   2.050   9.176
 1828W        W 5347   1.017   1.659   1.210
 1829W        W 5348   1.474   4.969  11.442
 1830W        W 5349   2.809   3.098   2.562
 1831W        W 5350   0.008   3.864   1.123
 1832W        W 5351   3.424   0.251   1.162
 1833W        W 5352   3.792   1.256   1.254
 1834W        W 5353   9.151   3.641   8.816
 1835W        W 5354   3.723   7.045   1.415
 1836W        W 5355   0.455   1.795   9.387
 1837W        W 5356   4.550   8.721   0.359
 1838W        W 5357   4.434   6.869  10.025
 1839W        W 5358   3.686   0.753  11.860
 1840W        W 5359   0.166   8.042   0.246
 1841W        W 5360   3.996   0.345   2.257
 1842W        W 5361   7.600   9.801   2.808
 1843W        W 5362   5.006   6.063   0.897
 1844W        W 5363   4.803   8.334  10.860
 1845W        W 5364   6.076   1.370  10.779
 1846W        W 5365   5.982   2.256   3.146
 1847W        W 5366   5.907   4.071   8.678
 1848W        W 5367   0.687   3.591  10.622
 1849W        W 5368   4.726   6.910   2.792
 1850W        W 5369   7.575   4.906   9.907
 1851W        W 5370   4.989   6.239  10.208
 1852W        W 5371   7.320   1.151  10.542
 1853W        W 5372   9.795   7.162   1.949
 1854W        W 5373   2.529   5.983  11.680
 1855W        W 5374   6.340   7.836   3.470
 1856W        W 5375   8.654   3.488   8.692
 1857W        W 5376   2.613   4.041   0.433
 1858W        W 5377   8.245   1.460  10.460
 1859W        W 5378   8.883   5.473   9.480
 1860W        W 5379   1.218   3.739   0.466
 1861W        W 5380   8.400   5.211   2.720
 1862W        W 5381   2.762   4.023   8.881
 1863W        W 5382   0.572   0.220   0.051
 1864W        W 5383   6.892   2.829   8.901
 1865W        W 5384   1.309   5.482   9.084
 1866W        W 5385   3.709   4.292   2.420
 1867W        W 5386   0.001   1.968  10.723
 1868W        W 5387   6.057   6.579   8.643
 1869W        W 5388   5.722   8.507   0.665
 1870W        W 5389   9.718   3.297   1.712
 1871W        W 5390   3.991   9.569   1.904
 1872W        W 5391   9.311   5.694  11.000
 1873W        W 5392   2.565   8.489   0.959
 1874W        W 5393   2.412   0.355   9.248
 1875W        W 5394   8.538   6.087   2.495
 1876W        W 5395   6.856   2.055   2.763
 1877W        W 5396   0.662   3.532   0.751
 1878W        W 5397   9.006   5.333  10.787
 1879W        W 5398   5.821   5.129  10.247
 1880W        W 5399   8.898   0.187   0.411
 1881W        W 5400   2.672   3.415   1.082
 1882W        W 5401   1.929   2.592  10.718
 1883W        W 5402   7.457   1.228  10.039
 1884W        W 5403   9.501   3.663   3.633
 1885W        W 5404   6.829   5.610   2.866
 1886W        W 5405   3.321   9.017   0.895
 1887W        W 5406   7.304   5.486  11.322
 1888W        W 5407   3.844   2.528   9.472
 1889W        W 5408   9.888   9.311  11.061
 1890W        W 5409   0.049   3.635  11.860
 1891W        W 5410   6.341   9.690   1.370
 1892W        W 5411   4.688   1.458  10.526
 1893W        W 5412   5.581   4.729   2.880
 1894W        W 5413   1.841   7.867   2.520
 1895W        W 5414   2.389   4.645   2.407
 1896W        W 5415   0.810   6.522  10.920
 1897W        W 5416   9.930   5.224  11.166
 1898W        W 5417   2.220   9.660   9.992
 1899W        W 5418   3.758   2.629   1.029
 1900W        W 5419   2.362   7.024   0.690
 1901W        W 5420   8.531   6.215   0.429
 1902W        W 5421   3.903   6.688   0.919
 1903W        W 5422   0.488   4.100   9.024
 1904W        W 5423   4.191   8.839  10.646
 1905W        W 5424   3.214   0.720   3.189
 1906W        W 5425   0.343   2.088   1.318
 1907W        W 5426   9.466   9.360  10.761
 1908W        W 5427   8.050   1.988   2.194
 1909W        W 5428   6.439   9.305   1.027
 1910W        W 5429   8.508   6.806  11.607
 1911W        W 5430   2.368   8.425   0.420
 1912W        W 5431   6.779   9.804   9.232
 1913W        W 5432   7.511   2.043  10.401
 1914W        W 5433   2.563   6.996  11.323
 1915W        W 5434   4.617   4.774   9.850
 1916W        W 5435   4.597   1.300   2.961
 1917W        W 5436   0.244   0.406   9.096
 1918W        W 5437   9.420   5.846  11.478
 1919W        W 5438   1.346   9.200   1.639
 1920W        W 5439   3.538   9.279  10.277
 1921W        W 5440   4.758   9.491   0.884
 1922W        W 5441   8.581   8.178  11.497
 1923W        W 5442   0.136   3.704   9.835
 1924W        W 5443   8.529   8.561   9.737
 1925W        W 5444   8.812   5.617  11.815
 1926W        W 5445   8.879   2.619   2.013
 1927W        W 5446   4.094   7.573   9.196
 1928W        W 5447   8.499   8.008  10.509
 1929W        W 5448   7.895   5.907   1.600
 1930W        W 5449   3.228   4.183   9.141
 1931W        W 5450   8.095   6.700   8.557
 1932W        W 5451   2.670   5.254   1.178
 1933W        W 5452   5.393   9.774   1.947
 1934W        W 5453   8.024   0.672   2.300
 1935W        W 5454   0.240   5.884   8.581
 1936W        W 5455   4.627   8.486   1.446
 1937W        W 5456   8.578   8.425   9.236
 1938W        W 5457   1.628   6.773   8.726
 1939W        W 5458   2.356   3.240   0.712
 1940W        W 5459   6.678   4.511  11.994
 1941W        W 5460   0.746   2.539   2.467
 1942W        W 5461   5.048   0.842   8.970
 1943W        W 5462   4.706   2.793   3.252
 1944W        W 5463   8.026   7.652   3.062
 1945W        W 5464   8.442   4.185   1.338
 1946W        W 5465   9.985   6.838   0.511
 1947W        W 5466   1.273   6.336   9.580
 1948W        W 5467   6.393   1.004   0.843
 1949W        W 5468   1.558   7.486   2.306
 1950W        W 5469   4.180   3.586   2.177
 1951W        W 5470   1.229   8.501   9.960
 1952W        W 5471   4.748   1.998   9.453
 1953W        W 5472   5.678   9.695  10.065
 1954W        W 5473   1.908   3.940   9.830
 1955W        W 5474   9.096   6.174  10.970
 1956W        W 5475   6.004   4.432   0.345
 1957W        W 5476   8.898   7.814   1.430
 1958W        W 5477   7.352   0.738   9.891
 1959W        W 5478   0.038   9.615   0.456
 1960W        W 5479   5.164   6.548   2.311
 1961W        W 5480   7.178   1.080   1.728
 1962W        W 5481   1.204   7.066   8.643
 1963W        W 5482   4.709   7.973   1.324
 1964W        W 5483   0.716   3.887  11.399
 1965W        W 5484   0.459   2.404  11.447
 1966W        W 5485   5.842   9.373  10.795
 1967W        W 5486   5.554   1.859   0.894
 1968W        W 5487   7.348   7.725   2.749
 1969W        W 5488   4.387   3.118   2.180
 1970W        W 5489   8.895   9.233   0.954
 1971W        W 5490   0.971   5.763   2.736
 1972W        W 5491   1.610   5.001   2.481
 1973W        W 5492   4.993   2.523   4.238
 1974W        W 5493   4.647   6.977   1.190
 1975W        W 5494   2.066   3.501  11.406
 1976W        W 5495   8.318   3.821   3.195
 1977W        W 5496   6.402   8.900   3.614
 1978W        W 5497   1.412   8.064   2.740
 1979W        W 5498   3.460   4.097   8.152
 1980W        W 5499   6.254   5.787   3.700
 1981W        W 5500   8.398   4.524   0.256
 1982W        W 5501   0.049   9.833  10.220
 1983W        W 5502   5.257   3.526   0.755
 1984W        W 5503   5.603   7.846   2.302
 1985W        W 5504   5.761   7.414   0.047
 1986W        W 5505   2.702   8.603   2.885
 1987W        W 5506   2.941   1.796   3.654
 1988W        W 5507   4.469   2.340  10.609
 1989W        W 5508   5.177   9.547   2.914
 1990W        W 5509   6.873   8.957   1.611
 1991W        W 5510   8.454   7.146  10.646
 1992W        W 5511   0.118   4.067   1.725
 1993W        W 5512   9.820   0.991   3.286
 1994W        W 5513   5.090   9.179   2.582
 1995W        W 5514   1.175   8.484  10.475
 1996W        W 5515   9.592   2.377   3.505
 1997W        W 5516   0.886   0.616   0.275
 1998W        W 5517   1.581   9.048   1.217
 1999W        W 5518   5.515   7.277   3.611
 2000W        W 5519   7.469   1.049   1.321
 2001W        W 5520   6.188   0.765   0.034
 2002W        W 5521   7.752   0.328  10.583
 2003W        W 5522   0.501   1.597   1.287
 2004W        W 5523   5.515   5.092  11.284
 2005W        W 5524   2.359   4.362   0.798
 2006W        W 5525   7.655   7.613  10.428
 2007W        W 5526   4.821   9.952   0.633
 2008W        W 5527   7.283   2.098   9.084
 2009W        W 5528   7.267   5.693   3.958
 2010W        W 5529   1.209   2.238   1.326
 2011W        W 5530   4.296   5.286   3.295
 2012W        W 5531   3.343   5.916   7.968
 2013W        W 5532   1.032   7.012   3.482
 2014W        W 5533   0.454   3.599   3.591
 2015W        W 5534   8.915   7.788  11.694
 2016W        W 5535   5.464   4.210  11.535
 2017W        W 5536   2.615   7.932  10.731
 2018W        W 5537   5.603   1.075   3.577
 2019W        W 5538   4.290   4.695   1.756
 2020W        W 5539   4.983   6.884   3.278
 2021W        W 5540   9.435   7.978  11.002
 2022W        W 5541   9.346   9.002  11.137
 2023W        W 5542   6.015   8.818   0.412
 2024W        W 5543   0.403   7.600   0.389
 2025W        W 5544   8.220   2.887   9.590
 2026W        W 5545   6.162   7.935   0.591
 2027W        W 5546   2.743   7.476  11.294
 2028W        W 5547   0.287   2.560   1.964
 2029W        W 5548   6.911   6.280  11.811
 2030W        W 5549   6.835   7.333   9.085
 2031W        W 5550   2.706   9.741   8.997
 2032W        W 5551   6.663   3.639   8.508
 2033W        W 5552   1.778   8.725   9.288
 2034W        W 5553   5.641   3.817   9.920
 2035W        W 5554   5.932   7.600   1.779
 2036W        W 5555   6.269   4.066   3.795
 2037W        W 5556   6.658   7.357   9.559
 2038W        W 5557   2.279   2.778   0.475
 2039W        W 5558   8.002   2.250   9.087
 2040W        W 5559   9.120   8.235   1.643
 2041W        W 5560   0.769   5.171  11.502
 2042W        W 5561   5.021   0.535   2.980
 2043W        W 5562   6.097   7.421   0.429
 2044W        W 5563   6.327   0.849  11.543
 2045W        W 5564   3.017   6.446   0.897
 2046W        W 5565   9.967   2.158   2.132
 2047W        W 5566   8.702   3.823   9.450
 2048W        W 5567   0.834   7.098  11.825
 2049W        W 5568   2.567   3.580   2.361
 2050W        W 5569   0.889   6.985   9.050
 2051W        W 5570   1.334   7.448   9.463
 2052W        W 5571   2.976   7.022   9.287
 2053W        W 5572   2.791   3.854   9.784
 2054W        W 5573   7.188   3.165   3.198
 2055W        W 5574   5.179   7.082  11.461
 2056W        W 5575   7.197   8.703   0.691
 2057W        W 5576   6.622   3.865   2.956
 2058W        W 5577   0.003   9.538   8.816
 2059W        W 5578   0.218   7.254   2.843
 2060W        W 5579   9.683   7.674   2.531
 2061W        W 5580   2.839   3.707   1.930
 2062W        W 5581   9.248   1.801   0.469
 2063W        W 5582   9.344   2.085  10.657
 2064W        W 5583   0.156   6.586   2.149
 2065W        W 5584   3.243   4.188   8.624
 2066W        W 5585   2.883   5.971  11.305
 2067W        W 5586   8.209   5.405   0.338
 2068W        W 5587   4.584   8.534   2.273
 2069W        W 5588   4.181   7.197  11.413
 2070W        W 5589   9.659   9.126   2.979
 2071W        W 5590   5.037   8.350   1.158
 2072W        W 5591   5.298   5.255   8.803
 2073W        W 5592   1.624   8.204   1.026
 2074W        W 5593   2.554   8.975   1.059
 2075W        W 5594   9.329   5.512   2.400
 2076W        W 5595   1.834   1.314   3.510
 2077W        W 5596   0.902   6.796   3.038
 2078W        W 5597   7.085   0.858   3.109
 2079W        W 5598   0.261   2.800   3.040
 2080W        W 5599   7.981   2.160   0.931
 2081W        W 5600   1.552   7.628   1.282
 2082W        W 5601   9.198   0.393   1.337
 2083W        W 5602   6.268   3.557   3.127
 2084W        W 5603   5.172   4.455   1.967
 2085W        W 5604   5.531   3.117   3.132
 2086W        W 5605   4.897   7.401   0.958
 2087W        W 5606   6.420   9.782   3.463
 2088W        W 5607   5.195   7.343   3.220
 2089W        W 5608   3.356   2.992  11.204
 2090W        W 5609   1.299   5.819   8.685
 2091W        W 5610   0.824   1.137   0.797
 2092W        W 5611   5.447   1.380  11.153
 2093W        W 5612   9.273   7.087   1.190
 2094W        W 5613   3.631   3.409   0.203
 2095W        W 5614   2.645   4.362   1.287
 2096W        W 5615   7.750   8.515   2.614
 2097W        W 5616   9.014   2.240  11.536
 2098W        W 5617   0.684   2.407   3.482
 2099W        W 5618   6.435   7.648   1.723
 2100W        W 5619   8.323   1.216   8.556
 2101W        W 5620   0.695   4.135   1.759
 2102W        W 5621   7.434   4.919  11.389
 2103W        W 5622   9.040   1.343  10.119
 2104W        W 5623   3.221   2.478   1.081
 2105W        W 5624   6.024   8.128  10.708
 2106W        W 5625   0.383   1.319   9.201
 2107W        W 5626   2.865   6.428  10.536
 2108W        W 5627   7.136   7.366   3.474
 2109W        W 5628   7.478   1.798   9.947
 2110W        W 5629   4.924   8.378   1.887
 2111W        W 5630   7.929   8.865   2.245
 2112W        W 5631   3.993   3.064   9.050
 2113W        W 5632   9.592   4.848  11.330
 2114W        W 5633   1.819   2.148  10.963
 2115W        W 5634   0.527   1.218  10.108
 2116W        W 5635   0.067   9.368   3.191
 2117W        W 5636   4.106   4.141   0.005
 2118W        W 5637   7.330   2.697   0.417
 2119W        W 5638   9.410   6.954  10.163
 2120W        W 5639   2.135   6.179   3.007
 2121W        W 5640   5.497   7.266   8.575
 2122W        W 5641   7.209   2.112   0.546
 2123W        W 5642   8.251   3.092   0.415
 2124W        W 5643   3.533   4.053   1.509
 2125W        W 5644   9.963   2.236   1.619
 2126W        W 5645   0.708   2.833   1.726
 2127W        W 5646   5.138   3.815  11.489
 2128W        W 5647   2.491   2.773   2.297
 2129W        W 5648   5.077   8.202   0.646
 2130W        W 5649   2.780   1.360   1.401
 2131W        W 5650   6.368   7.504   0.841
 2132W        W 5651   5.719   5.625  11.934
 2133W        W 5652   8.895   2.221  10.878
 2134W        W 5653   1.677   6.571   9.772
 2135W        W 5654   6.417   3.727  10.474
 2136W        W 5655   0.822   5.369   2.447
 2137W        W 5656   0.836   1.249  11.757
 2138W        W 5657   0.303   5.043   3.087
 2139W        W 5658   9.041   5.691   9.051
 2140W        W 5659   5.626   9.848  10.982
 2141W        W 5660   5.228   4.969   0.582
 2142W        W 5661   4.273   7.822   1.587
 2143W        W 5662   2.052   4.858   2.745
 2144W        W 5663   1.764   6.988   2.750
 2145W        W 5664   8.123   8.703   0.875
 2146W        W 5665   8.250   9.083   8.664
 2147W        W 5666   1.864   5.209  11.236
 2148W        W 5667   5.461   8.443   2.112
 2149W        W 5668   3.492   2.315   8.696
 2150W        W 5669   4.784   8.514   9.089
 2151W        W 5670   1.884   9.598  11.065
 2152W        W 5671   8.913   7.180   2.922
 2153W        W 5672   2.786   3.034  10.402
 2154W        W 5673   6.631   4.309   3.191
 2155W        W 5674   8.968   4.777   3.097
 2156W        W 5675   5.895   6.053   3.968
 2157W        W 5676   8.846   7.900   1.925
 2158W        W 5677   0.782   6.091   0.832
 2159W        W 5678   1.272   2.553  10.329
 2160W        W 5679   7.264   9.862   8.975
 2161W        W 5680   0.252   9.273   1.594
 2162W        W 5681   1.542   8.900  10.919
 2163W        W 5682   3.254   5.670   1.465
 2164W        W 5683   3.340   0.387   9.035
 2165W        W 5684   3.382   9.735   3.141
 2166W        W 5685   7.276   1.560   8.693
 2167W        W 5686   2.371   4.877   9.218
 2168W        W 5687   8.552   4.810   8.970
 2169W        W 5688   0.237   8.842   0.167
 2170W        W 5689   9.828   4.123   9.801
 2171W        W 5690   5.919   1.874   0.546
 2172W        W 5691   3.573   0.176   2.479
 2173W        W 5692   4.169   0.226   0.810
 2174W        W 5693   9.386   9.049   1.085
 2175W        W 5694   3.617   9.577   9.861
 2176W        W 5695   1.049   4.738  11.562
 2177W        W 5696   8.001   6.371   1.273
 2178W        W 5697   1.345   4.235  10.503
 2179W        W 5698   9.367   2.683   0.557
 2180W        W 5699   3.880   1.232   0.757
 2181W        W 5700   2.362   5.397   1.553
 2182W        W 5701   0.608   8.131   2.933
 2183W        W 5702   4.158   1.968   8.541
 2184W        W 5703   9.562   0.569   3.074
 2185W        W 5704   0.893   6.394   9.908
 2186W        W 5705   6.151   9.979  11.770
 2187W        W 5706   6.249   6.673  10.181
 2188W        W 5707   9.251   7.104   0.375
 2189W        W 5708   2.234   9.603   0.336
 2190W        W 5709   6.577   3.332   1.691
 2191W        W 5710   8.278   4.910   0.600
 2192W        W 5711   4.524   7.651   9.475
 2193W        W 5712   7.961   1.385   9.234
 2194W        W 5713   7.091   2.637  11.665
 2195W        W 5714   3.399   6.587   3.106
 2196W        W 5715   7.026   5.156   2.720
 2197W        W 5716   7.128   2.635  11.163
 2198W        W 5717   9.836   9.411   8.352
 2199W        W 5718   8.917   4.543   8.662
 2200W        W 5719   6.256   8.262   1.796
 2201W        W 5720   3.516   7.443   2.669
 2202W        W 5721   6.465   3.174   2.213
 2203W        W 5722   6.557   4.979   0.174
 2204W        W 5723   5.980   5.603  10.413
 2205W        W 5724   9.952   0.822   9.878
 2206W        W 5725   2.168   0.628   0.481
 2207W        W 5726   2.595   8.242  11.759
 2208W        W 5727   1.212   6.839   9.556
 2209W        W 5728   2.728   9.093   1.508
 2210W        W 5729   7.548   4.266  10.472
 2211W        W 5730   8.297   1.013   1.390
 2212W        W 5731   6.288   7.409  11.902
 2213W        W 5732   0.949   2.174   0.048
 2214W        W 5733   2.763   5.137   3.667
 2215W        W 5734   5.118   8.500  10.056
 2216W        W 5735   0.282   7.388   8.844
 2217W        W 5736   7.431   2.304   9.962
 2218W        W 5737   9.217   3.766   1.753
 2219W        W 5738   0.078   1.741   1.638
 2220W        W 5739   2.499   7.951   3.378
 2221W        W 5740   9.900   2.148   1.022
 2222W        W 5741   5.544   8.783  10.086
 2223W        W 5742   5.304   4.270   2.901
 2224W        W 5743   1.136   6.925  11.281
 2225W        W 5744   3.752   5.014   0.381
 2226W        W 5745   3.588   3.082  10.346
 2227W        W 5746   8.376   0.902   9.931
 2228W        W 5747   7.616   6.055   1.131
 2229W        W 5748   2.580   6.486  11.501
 2230W        W 5749   8.954   7.945   9.732
 2231W        W 5750   7.153   9.723   1.716
 2232W        W 5751   4.633   9.728  10.758
 2233W        W 5752   4.859   9.878   9.689
 2234W        W 5753   5.465   6.720   3.294
 2235W        W 5754   9.400   7.404   2.177
 2236W        W 5755   0.013   3.015   0.523
 2237W        W 5756   4.566   6.471  10.916
 2238W        W 5757   5.306   6.152  10.638
 2239W        W 5758   3.053   2.210   3.957
 2240W        W 5759   4.478   5.050   1.258
 2241W        W 5760   1.041   5.643   0.892
 2242W        W 5761   9.443   7.047  11.835
 2243W        W 5762   2.238   0.787  11.541
 2244W        W 5763   6.805   7.712   3.642
 2245W        W 5764   4.357   8.224  11.295
 2246W        W 5765   1.623   3.900  10.236
 2247W        W 5766   3.580   9.410  10.777
 2248W        W 5767   0.964   0.882  10.786
 2249W        W 5768   5.877   9.829   9.559
 2250W        W 5769   9.568   8.905   8.956
 2251W        W 5770   7.597   6.720   9.517
 2252W        W 5771   5.530   8.461   1.123
 2253W        W 5772   7.487   2.788   1.092
 2254W        W 5773   7.389   1.907  11.991
 2255W        W 5774   8.873   3.783   0.475
 2256W        W 5775   3.913   5.174   4.116
 2257W        W 5776   0.542   9.481   9.661
 2258W        W 5777   7.368   9.348  10.792
 2259W        W 5778   7.985   3.585   1.741
 2260W        W 5779   8.053   8.223  11.001
 2261W        W 5780   7.842   9.358  10.368
 2262W        W 5781   2.798   0.990  11.459
 2263W        W 5782   0.428   8.870   8.938
 2264W        W 5783   3.610   3.094   0.621
 2265W        W 5784   1.713   5.156   2.025
 2266W        W 5785   6.701   7.139   0.742
 2267W        W 5786   9.826   8.925   2.000
 2268W        W 5787   0.815   9.738   9.277
 2269W        W 5788   2.041   4.244  11.064
 2270W        W 5789   9.463   0.146  10.250
 2271W        W 5790   4.841   4.849   2.041
 2272W        W 5791   5.972   3.197   3.407
 2273W        W 5792   1.068   3.543   8.923
 2274W        W 5793   8.244   8.033   8.643
 2275W        W 5794   2.206   9.152  11.767
 2276W        W 5795   1.176   8.829   2.043
 2277W        W 5796   1.060   8.921   3.051
 2278W        W 5797   9.792   9.272   0.794
 2279W        W 5798   8.626   1.651  11.225
 2280W        W 5799   8.687   5.219   0.157
 2281W        W 5800   5.790   1.560  10.414
 2282W        W 5801   1.043   8.997  10.537
 2283W        W 5802   7.147   4.642   9.722
 2284W        W 5803   1.375   5.329   9.560
 2285W        W 5804   1.018   1.815  10.771
 2286W        W 5805   4.573   4.849   3.398
 2287W        W 5806   2.644   3.871   2.803
 2288W        W 5807   2.312   6.835  11.754
 2289W        W 5808   8.283   8.381   1.349
 2290W        W 5809   4.253   7.697   2.312
 2291W        W 5810   2.843   2.336  11.872
 2292W        W 5811   0.927   3.141   0.944
 2293W        W 5812   6.044   2.326   8.986
 2294W        W 5813   9.295   5.470  11.853
 2295W        W 5814   1.755   0.778  11.759
 2296W        W 5815   0.974   9.288   0.115
 2297W        W 5816   8.987   2.592   3.445
 2298W        W 5817   6.311   1.259   8.596
 2299W        W 5818   5.790   5.559   3.701
 2300W        W 5819   3.566   4.578   8.374
 2301W        W 5820   8.017   9.188   0.855
 2302W        W 5821   2.346   4.433   0.255
 2303W        W 5822   9.099   8.339   2.613
 2304W        W 5823   4.140   6.266  11.145
 2305W        W 5824   5.587   7.961  11.404
 2306W        W 5825   2.692   7.310  10.244
 2307W        W 5826   6.804   0.552   9.938
 2308W        W 5827   7.749   7.860   9.094
 2309W        W 5828   2.489   8.513   9.479
 2310W        W 5829   0.912   6.019   3.431
 2311W        W 5830   7.939   3.782  10.083
 2312W        W 5831   6.802   8.314  10.344
 2313W        W 5832   3.276   7.032  10.058
 2314W        W 5833   0.185   8.976   0.650
 2315W        W 5834   8.280   3.774   9.713
 2316W        W 5835   8.532   4.341   3.166
 2317W        W 5836   8.492   6.651  10.560
 2318W        W 5837   5.346   7.626   9.870
 2319W        W 5838   8.891   8.012   2.928
 2320W        W 5839   4.181   2.494  11.996
 2321W        W 5840   7.847   9.167  10.845
 2322W        W 5841   1.335   4.016   0.901
 2323W        W 5842   3.318   5.887   3.616
 2324W        W 5843   6.059   8.605  10.918
 2325W        W 5844   6.487   2.937   1.029
 2326W        W 5845   8.934   6.725   8.406
 2327W        W 5846   6.656   3.655  11.060
 2328W        W 5847   9.768   3.939   2.387
 2329W        W 5848   8.439   3.151  10.941
 2330W        W 5849   1.388   6.988   2.130
 2331W        W 5850   3.139   3.819   2.910
 2332W        W 5851   2.418   6.202  10.696
 2333W        W 5852   0.270   7.499   0.926
 2334W        W 5853   7.880   6.945   9.889
 2335W        W 5854   9.901   8.572   9.978
 2336W        W 5855   3.204   6.110  10.036
 2337W        W 5856   6.018   8.968  10.159
 2338W        W 5857   3.860   3.867  11.338
 2339W        W 5858   7.397   4.989   9.441
 2340W        W 5859   0.343   0.223   1.317
 2341W        W 5860   3.304   0.280   8.523
 2342W        W 5861   5.268   5.781   8.746
 2343W        W 5862   7.498   1.285   9.060
 2344W        W 5863   5.702   5.577   8.919
 2345W        W 5864   9.413   7.175   2.632
 2346W        W 5865   9.894   3.429   2.495
 2347W        W 5866   7.118   6.928   1.705
 2348W        W 5867   3.697   1.251  10.952
 2349W        W 5868   7.935   6.147  11.844
 2350W        W 5869   4.400   5.314  11.230
 2351W        W 5870   6.955   6.916   9.448
 2352W        W 5871   8.471   7.495   8.817
 2353W        W 5872   4.427   2.267  11.136
 2354W        W 5873   9.517   8.750   0.122
 2355W        W 5874   4.606   9.015   1.387
 2356W        W 5875   2.848   5.245   1.653
 2357W        W 5876   1.546   0.417  11.098
 2358W        W 5877   0.265   4.596   0.504
 2359W        W 5878   3.401   5.844   0.075
 2360W        W 5879   6.022   3.709   2.702
 2361W        W 5880   1.958   8.080   3.426
 2362W        W 5881   1.960   4.902  10.780
 2363W        W 5882   3.249   1.812   2.206
 2364W        W 5883   8.441   9.211  10.409
 2365W        W 5884   4.214   8.543   3.381
 2366W        W 5885   1.897   4.185   0.985
 2367W        W 5886   8.803   1.090   0.883
 2368W        W 5887   1.615   8.870   9.911
 2369W        W 5888   5.855   0.729   3.276
 2370W        W 5889   5.641   5.315  10.709
 2371W        W 5890   7.615   9.725   1.372
 2372W        W 5891   9.413   8.023   9.495
 2373W        W 5892   0.725   5.750  10.441
 2374W        W 5893   2.065   4.135   1.953
 2375W        W 5894   3.785   1.170  10.082
 2376W        W 5895   7.355   5.133  10.386
 2377W        W 5896   7.884   0.708   9.850
 2378W        W 5897   0.628   0.220   9.392
 2379W        W 5898   9.892   8.363   1.320
 2380W        W 5899   9.466   9.860   9.343
 2381W        W 5900   8.124   7.549  11.915
 2382W        W 5901   9.503   4.507   0.927
 2383W        W 5902   0.112   3.528   1.484
 2384W        W 5903   9.882   7.865   9.784
 2385W        W 5904   8.037   5.838   9.050
 2386W        W 5905   0.467   0.157  10.412
 2387W        W 5906   5.652   4.596   9.520
 2388W        W 5907   5.624   3.529  10.801
 2389W        W 5908   9.111   7.541   9.489
 2390W        W 5909   6.712   4.812   3.890
 2391W        W 5910   1.622   1.369   3.053
 2392W        W 5911   2.569   2.286   2.270
 2393W        W 5912   0.068   6.391  10.227
 2394W        W 5913   4.936   3.220   2.016
 2395W        W 5914   8.631   0.743   1.662
 2396W        W 5915   2.082   1.386   9.497
 2397W        W 5916   5.099   4.693   9.705
 2398W        W 5917   7.276   6.572   9.162
 2399W        W 5918   2.986   1.289  10.438
 2400W        W 5919   3.619   4.681  11.578
 2401W        W 5920   3.706   1.501   9.674
 2402W        W 5921   1.966   2.152  11.884
 2403W        W 5922   4.080   4.987   3.640
 2404W        W 5923   8.062   4.081  11.088
 2405W        W 5924   7.507   3.991   2.764
 2406W        W 5925   6.195   2.976  11.389
 2407W        W 5926   9.732   7.534  10.750
 2408W        W 5927   8.757   1.746   1.740
 2409W        W 5928   7.472   5.672   1.423
 2410W        W 5929   2.980   8.246   1.144
 2411W        W 5930   4.520   1.577   8.583
 2412W        W 5931   3.112   9.957   2.173
 2413W        W 5932   0.969   2.876   2.159
 2414W        W 5933   7.075   3.933   3.743
 2415W        W 5934   5.440   1.780   3.881
 2416W        W 5935   6.967   5.570  10.909
 2417W        W 5936   7.286   5.676   3.081
 2418W        W 5937   9.211   4.109   8.598
 2419W        W 5938   7.272   3.635   9.174
 2420W        W 5939   8.564   9.789   9.238
 2421W        W 5940   9.760   5.271   2.500
 2422W        W 5941   5.149   1.008  10.391
 2423W        W 5942   9.003   5.956   3.283
 2424W        W 5943   5.086   9.660   3.489
 2425W        W 5944   1.203   8.270   3.163
 2426W        W 5945   8.505   5.725   9.751
 2427W        W 5946   7.448   7.824   9.553
 2428W        W 5947   9.331   9.286  10.249
 2429W        W 5948   3.691   7.243  11.581
 2430W        W 5949   4.672   3.591   7.960
 2431W        W 5950   4.421   7.913   9.007
 2432W        W 5951   5.896   6.046   2.963
 2433W        W 5952   6.543   9.841   8.762
 2434W        W 5953   1.507   5.799  10.890
 2435W        W 5954   0.886   1.949   9.779
 2436W        W 5955   3.546   5.739  10.296
 2437W        W 5956   2.416   9.306   0.706
 2438W        W 5957   1.120   1.082   2.497
 2439W        W 5958   1.739   3.557   2.806
 2440W        W 5959   1.864   0.828  11.192
 2441W        W 5960   4.671   4.617   9.373
 2442W        W 5961   0.764   9.323   3.315
 2443W        W 5962   6.524   7.136   0.254
 2444W        W 5963   1.409   7.049   0.646
 2445W        W 5964   1.814   7.657  11.761
 2446W        W 5965   2.059   6.997  11.312
 2447W        W 5966   3.771   1.832   1.940
 2448W        W 5967   3.083   7.640   1.857
 2449W        W 5968   2.171   8.386  10.391
 2450W        W 5969   7.472   8.971   8.344
 2451W        W 5970   7.417   9.862  10.017
 2452W        W 5971   1.486   6.646  11.023
 2453W        W 5972   7.716   9.258   2.529
 2454W        W 5973   1.632   9.765   2.194
 2455W        W 5974   8.203   6.575  10.052
 2456W        W 5975   7.647   6.988   0.825
 2457W        W 5976   8.435   5.252   9.507
 2458W        W 5977   6.074   1.023   1.305
 2459W        W 5978   5.902   7.696   0.953
 2460W        W 5979   4.079   4.141   9.363
 2461W        W 5980   7.706   9.345   2.025
 2462W        W 5981   9.352   0.427   0.346
 2463W        W 5982   5.461   3.363   8.597
 2464W        W 5983   1.460   2.217  11.936
 2465W        W 5984   6.909   1.877   0.208
 2466W        W 5985   7.220   4.059   0.720
 2467W        W 5986   6.990   7.995   9.348
 2468W        W 5987   9.397   2.216   1.278
 2469W        W 5988   1.745   3.857  11.229
 2470W        W 5989   3.643   9.765  10.397
 2471W        W 5990   2.214   6.152   2.510
 2472W        W 5991   7.454   8.712   0.226
 2473W        W 5992   1.231   4.594   2.950
 2474W        W 5993   9.353   3.830  11.764
 2475W        W 5994   6.285   0.528   2.503
 2476W        W 5995   4.799   7.693   3.391
 2477W        W 5996   3.713   2.899   0.157
 2478W        W 5997   9.478   1.076  10.382
 2479W        W 5998   7.355   7.072   9.185
 2480W        W 5999   3.528   6.320   9.578
 2481W        W 6000   5.470   6.222   3.226
 2482W        W 6001   1.489   3.906   8.807
 2483W        W 6002   6.498   4.337  11.537
 2484W        W 6003   5.987   0.528   1.521
 2485W        W 6004   6.306   4.386   9.970
 2486W        W 6005   1.880   7.000   9.993
 2487W        W 6006   2.740   5.727   1.429
 2488W        W 6007   3.380   6.906   9.583
 2489W        W 6008   2.681   9.596  10.283
 2490W        W 6009   8.400   8.993   3.116
 2491W        W 6010   9.790   6.918   9.482
 2492W        W 6011   6.197   9.371   3.761
 2493W        W 6012   5.606   8.728   3.440
 2494W        W 6013   4.938   5.870  11.987
 2495W        W 6014   4.572   1.180   1.491
 2496W        W 6015   7.116   4.325   3.402
 2497W        W 6016   3.567   4.215   3.294
 2498W        W 6017   8.806   3.461   1.037
 2499W        W 6018   5.473   8.497   9.669
 2500W        W 6019   2.651   2.205   0.438
 2501W        W 6020   3.160   0.694  11.916
 2502W        W 6021   6.065   6.929   0.376
 2503W        W 6022   8.709   9.121   0.181
 2504W        W 6023   8.509   7.505   2.263
 2505W        W 6024   0.221   6.861  10.389
 2506W        W 6025   1.459   2.847   2.143
 2507W        W 6026   9.991   3.807   3.502
 2508W        W 6027   8.594   1.242   1.894
 2509W        W 6028   9.008   6.036   0.365
 2510W        W 6029   1.099   6.533   9.144
 2511W        W 6030   5.922   3.545   8.731
 2512W        W 6031   4.084   8.933   0.315
 2513W        W 6032   8.353   1.901   1.169
 2514W        W 6033   8.728   8.235  10.080
 2515W        W 6034   8.024   2.349   3.227
 2516W        W 6035   6.903   3.377   9.418
 2517W        W 6036   0.902   6.636   8.661
 2518W        W 6037   7.945   5.028   9.560
 2519W        W 6038   8.163   0.849  11.526
 2520W        W 6039   2.725   3.565   0.597
 2521W        W 6040   0.640   8.822   0.460
 2522W        W 6041   7.354   2.297  10.826
 2523W        W 6042   4.638   3.608   1.964
 2524W        W 6043   7.227   5.976   8.565
 2525W        W 6044   1.180   7.414   0.987
 2526W        W 6045   0.569   0.822  11.962
 2527W        W 6046   1.477   3.388   8.644
 2528W        W 6047   9.033   8.217   1.141
 2529W        W 6048   3.982   3.841   2.577
 2530W        W 6049   7.223   7.538   1.176
 2531W        W 6050   9.457   8.368  11.783
 2532W        W 6051   4.946   7.940   9.081
 2533W        W 6052   4.716   3.675   0.725
 2534W        W 6053   6.353   5.710  10.077
 2535W        W 6054   5.220   1.813  11.358
 2536W        W 6055   0.733   8.086   1.595
 2537W        W 6056   3.590   7.712   9.335
 2538W        W 6057   5.869   2.422   2.695
 2539W        W 6058   7.997   4.409  10.684
 2540W        W 6059   2.678   6.099   0.636
 2541W        W 6060   7.822   9.342   3.010
 2542W        W 6061   4.550   5.273   2.237
 2543W        W 6062   3.105   1.366   1.799
 2544W        W 6063   4.961   0.037   8.590
 2545W        W 6064   7.480   2.938  11.005
 2546W        W 6065   2.339   6.659  11.011
 2547W        W 6066   1.322   7.201  11.662
 2548W        W 6067   9.566   6.995   8.652
 2549W        W 6068   6.471   1.211   2.167
 2550W        W 6069   0.636   7.114  11.333
 2551W        W 6070   2.118   8.749  10.975
 2552W        W 6071   4.458   7.401   2.717
 2553W        W 6072   5.617   4.049  10.376
 2554W        W 6073   8.033   7.314  10.231
 2555W        W 6074   0.603   8.984   0.936
 2556W        W 6075   2.695   3.110   9.259
 2557W        W 6076   5.511   0.673   2.864
 2558W        W 6077   6.014   2.787   1.122
 2559W        W 6078   7.360   3.258   2.166
 2560W        W 6079   9.227   0.809   3.355
 2561W        W 6080   5.444   4.059   9.365
 2562W        W 6081   1.060   4.486   1.004
 2563W        W 6082   6.972   2.075   1.868
 2564W        W 6083   4.225   2.289   0.457
 2565W        W 6084   6.457   5.299   0.555
 2566W        W 6085   6.476   7.978   0.995
 2567W        W 6086   5.997   8.301   0.268
 2568W        W 6087   2.554   1.250   0.879
 2569W        W 6088   6.373   6.816   3.607
 2570W        W 6089   5.850   4.785   8.927
 2571W        W 6090   5.349   0.379   8.730
 2572W        W 6091   8.386   6.320  11.617
 2573W        W 6092   6.468   9.783  10.447
 2574W        W 6093   7.210   5.666   0.495
 2575W        W 6094   0.331   6.969  11.759
 2576W        W 6095   7.087   1.588   1.743
 2577W        W 6096   8.120   1.134   2.095
 2578W        W 6097   5.717   3.055   9.529
 2579W        W 6098   8.865   9.563   2.708
 2580W        W 6099   4.098   3.613   3.030
 2581W        W 6100   9.360   4.015  10.310
 2582W        W 6101   4.173   3.372  11.444
 2583W        W 6102   6.701   7.131   2.456
 2584W        W 6103   1.847   3.091   8.850
 2585W        W 6104   8.178   2.259  10.915
 2586W        W 6105   2.244   6.994   3.032
 2587W        W 6106   7.800   1.238  11.506
 2588W        W 6107   0.406   1.132   2.034
 2589W        W 6108   8.981   1.281  11.132
 2590W        W 6109   3.574   3.182   9.842
 2591W        W 6110   3.488   4.362   1.928
 2592W        W 6111   1.291   6.676  10.100
 2593W        W 6112   2.101   8.927   2.556
 2594W        W 6113   4.355   1.149   1.008
 2595W        W 6114   1.311   2.909   8.990
 2596W        W 6115   6.992   6.476   3.050
 2597W        W 6116   5.466   6.112  11.140
 2598W        W 6117   8.514   5.839   3.364
 2599W        W 6118   7.542   3.420  10.918
 2600W        W 6119   7.069   2.521   0.823
 2601W        W 6120   3.659   2.108   2.357
 2602W        W 6121   5.622   3.576   9.461
 2603W        W 6122   4.303   3.675  10.124
 2604W        W 6123   0.782   7.892   0.527
 2605W        W 6124   6.677   2.160   2.297
 2606W        W 6125   6.542   7.906  11.022
 2607W        W 6126   9.842   4.188  10.306
 2608W        W 6127   9.731   1.168   9.528
 2609W        W 6128   9.443   2.214   0.770
 2610W        W 6129   5.213   9.229   0.796
 2611W        W 6130   1.143   0.166   9.382
 2612W        W 6131   1.161   4.785   1.397
 2613W        W 6132   9.911   8.295   9.483
 2614W        W 6133   9.925   2.641  11.313
 2615W        W 6134   3.920   5.113   2.983
 2616W        W 6135   7.077   5.945   8.077
 2617W        W 6136   9.389   7.910  11.510
 2618W        W 6137   4.668   6.283   3.626
 2619W        W 6138   4.571   2.085   1.355
 2620W        W 6139   7.583   1.761   0.472
 2621W        W 6140   3.016   5.720  11.754
 2622W        W 6141   2.060   7.873   9.106
 2623W        W 6142   6.882   1.484   3.925
 2624W        W 6143   2.556   2.837  11.752
 2625W        W 6144   3.154   3.295   1.227
 2626W        W 6145   1.794   5.902   3.807
 2627W        W 6146   1.568   4.836   9.481
 2628W        W 6147   9.934   1.486   0.451
 2629W        W 6148   1.361   9.779  10.032
 2630W        W 6149   1.327   5.838   9.634
 2631W        W 6150   9.552   3.949   8.981
 2632W        W 6151   0.943   8.490   2.747
 2633W        W 6152   7.845   5.217  10.194
 2634W        W 6153   8.200   6.143   8.288
 2635W        W 6154   7.110   6.565   9.788
 2636W        W 6155   7.497   7.065   3.242
 2637W        W 6156   0.497   7.042   3.680
 2638W        W 6157   9.729   0.634  10.306
 2639W        W 6158   2.616   7.455   1.917
 2640W        W 6159   1.702   6.168   0.204
 2641W        W 6160   2.641   5.540  11.472
 2642W        W 6161   3.158   9.425   8.993
 2643W        W 6162   1.988   5.944  10.880
 2644W        W 6163   9.031   8.385   9.492
 2645W        W 6164   3.035   7.784   0.456
 2646W        W 6165   1.314   8.793   9.520
 2647W        W 6166   9.384   3.969  11.260
 2648W        W 6167   0.273   9.382  10.120
 2649W        W 6168   1.774   3.965  10.719
 2650W        W 6169   0.217   6.603   9.416
 2651W        W 6170   7.621   0.790  10.325
 2652W        W 6171   7.769   5.111   2.009
 2653W        W 6172   5.582   1.120   3.071
 2654W        W 6173   9.948   0.800   9.245
 2655W        W 6174   3.383   2.190   3.021
 2656W        W 6175   7.532   1.644   3.386
 2657W        W 6176   2.685   0.062   2.669
 2658W        W 6177   7.783   5.371   3.293
 2659W        W 6178   8.095   8.063  11.483
 2660W        W 6179   5.345   6.201   1.254
 2661W        W 6180   4.162   7.112   3.226
 2662W        W 6181   0.357   7.680   1.414
 2663W        W 6182   5.008   3.151   3.634
 2664W        W 6183   7.499   3.166   0.732
 2665W        W 6184   2.222   7.388   1.045
 2666W        W 6185   6.743   9.328   9.546
 2667W        W 6186   1.431   1.462   2.583
 2668W        W 6187   3.551   7.783  11.656
 2669W        W 6188   9.850   9.654   3.558
 2670W        W 6189   5.589   8.823   8.799
 2671W        W 6190   4.919   6.762  10.139
 2672W        W 6191   0.526   0.193   1.817
 2673W        W 6192   2.083   8.722   0.051
 2674W        W 6193   9.720   4.935   9.623
 2675W        W 6194   9.867   7.341   9.859
 2676W        W 6195   5.638   2.668   9.110
 2677W        W 6196   7.472   1.623  10.703
 2678W        W 6197   9.250   7.519  10.876
 2679W        W 6198   7.602   5.783   9.351
 2680W        W 6199   7.741   6.453   2.557
 2681W        W 6200   0.857   6.119   1.917
 2682W        W 6201   1.696   1.977   1.055
 2683W        W 6202   2.340   7.549  10.528
 2684W        W 6203   0.995   5.361  10.217
 2685W        W 6204   6.993   7.806  10.313
 2686W        W 6205   0.933   1.778   8.536
 2687W        W 6206   5.887   1.018   0.836
 2688W        W 6207   6.585   9.835   1.829
 2689W        W 6208   2.678   9.799  11.366
 2690W        W 6209   0.948   9.985  10.251
 2691W        W 6210   6.142   6.722   0.905
 2692W        W 6211   9.400   4.388  11.565
 2693W        W 6212   8.095   3.915  10.562
 2694W        W 6213   7.991   3.684   2.773
 2695W        W 6214   0.615   3.760   2.592
 2696W        W 6215   9.293   9.725   9.947
 2697W        W 6216   0.309   1.172  11.706
 2698W        W 6217   6.749   7.037  10.660
 2699W        W 6218   8.945   4.255  10.118
 2700W        W 6219   3.118   2.418  10.593
 2701W        W 6220   4.210   0.649   0.027
 2702W        W 6221   4.363   4.043   2.873
 2703W        W 6222   0.000   9.360  10.547
 2704W        W 6223   2.106   8.605   2.150
 2705W        W 6224   0.538   3.066   9.981
 2706W        W 6225   0.606   4.968   1.535
 2707W        W 6226   5.322   5.269  10.145
 2708W        W 6227   1.233   6.490   3.543
 2709W        W 6228   1.072   5.163   1.695
 2710W        W 6229   3.405   0.332   2.913
 2711W        W 6230   8.869   6.939   1.559
 2712W        W 6231   4.471   9.524  11.784
 2713W        W 6232   0.728   5.319   2.935
 2714W        W 6233   9.644   1.722   0.800
 2715W        W 6234   7.203   7.298   2.489
 2716W        W 6235   8.323   1.910  10.267
 2717W        W 6236   6.180   2.835   2.627
 2718W        W 6237   5.507   9.113   3.043
 2719W        W 6238   6.485   9.460   0.526
 2720W        W 6239   5.713   1.413   1.095
 2721W        W 6240   0.633   2.827   1.198
 2722W        W 6241   2.450   7.020   9.273
 2723W        W 6242   5.512   9.328   8.812
 2724W        W 6243   3.875   1.249  11.848
 2725W        W 6244   7.729   7.146  11.361
 2726W        W 6245   7.296   1.143   9.507
 2727W        W 6246   6.495   5.614  10.571
 2728W        W 6247   6.177   0.824   8.828
 2729W        W 6248   2.762   0.943   3.279
 2730W        W 6249   3.040   8.083  11.986
 2731W        W 6250   2.796   7.424  10.754
 2732W        W 6251   1.146   2.774   1.260
 2733W        W 6252   8.945   4.921   1.392
 2734W        W 6253   2.575   6.031   8.832
 2735W        W 6254   4.067   7.479  10.236
 2736W        W 6255   1.172   8.300   1.887
 2737W        W 6256   6.904   8.490   1.363
 2738W        W 6257   9.579   7.809   8.625
 2739W        W 6258   0.824   0.238   2.268
 2740W        W 6259   6.730   7.245   1.646
 2741W        W 6260   1.040   8.862  11.022
 2742W        W 6261   3.753   0.594   9.267
 2743W        W 6262   5.673   4.474   1.924
 2744W        W 6263   0.088   0.843  11.268
 2745W        W 6264   1.962   3.361  10.921
 2746W        W 6265   0.173   7.746  10.997
 2747W        W 6266   4.469   5.060  10.249
 2748W        W 6267   5.456   9.672  10.517
 2749W        W 6268   9.796   5.412   9.463
 2750W        W 6269   4.752   2.041   8.574
 2751W        W 6270   5.072   0.757   1.450
 2752W        W 6271   3.164   5.557   9.270
 2753W        W 6272   0.582   6.577   0.888
 2754W        W 6273   3.633   1.611   9.181
 2755W        W 6274   9.175   0.300   3.438
 2756W        W 6275   0.776   1.177   0.280
 2757W        W 6276   6.110   5.044  10.679
 2758W        W 6277   0.394   1.449   2.462
 2759W        W 6278   5.509   0.694  10.598
 2760W        W 6279   9.980   6.431   2.939
 2761W        W 6280   9.189   5.553   1.908
 2762W        W 6281   2.823   8.482   0.206
 2763W        W 6282   9.007   6.547   0.195
 2764W        W 6283   0.815   4.099  10.782
 2765W        W 6284   4.940   0.397   0.359
 2766W        W 6285   3.480   5.111   0.791
 2767W        W 6286   4.953   6.891  11.010
 2768W        W 6287   0.222   5.914  10.464
 2769W        W 6288   8.771   3.024   1.726
 2770W        W 6289   7.669   4.258  11.789
 2771W        W 6290   3.081   2.570  11.090
 2772W        W 6291   9.812   7.999  11.826
 2773W        W 6292   6.651   6.540   9.068
 2774W        W 6293   6.126   4.193  10.425
 2775W        W 6294   0.729   8.190  10.479
 2776W        W 6295   2.073   5.522   1.953
 2777W        W 6296   1.517   8.868  10.406
 2778W        W 6297   2.222   7.712   0.039
 2779W        W 6298   9.032   8.747  11.983
 2780W        W 6299   0.881   3.804   3.408
 2781W        W 6300   9.801   7.930   3.509
 2782W        W 6301   1.793   4.186   1.519
 2783W        W 6302   8.344   0.836   0.900
 2784W        W 6303   3.912   5.984   2.559
 2785W        W 6304   4.383   6.051   1.800
 2786W        W 6305   4.555   0.839   8.828
 2787W        W 6306   3.638   5.834   0.998
 2788W        W 6307   0.392   1.352   0.620
 2789W        W 6308   7.567   6.572   1.114
 2790W        W 6309   2.670   6.147   1.145
 2791W        W 6310   0.148   8.996   2.847
 2792W        W 6311   0.555   5.721   8.981
 2793W        W 6312   8.809   1.263   9.664
 2794W        W 6313   2.602   0.189   0.707
 2795W        W 6314   6.686   7.565   1.240
 2796W        W 6315   2.709   6.654   1.283
 2797W        W 6316   6.225   8.746   1.563
 2798W        W 6317   1.736   2.784   1.697
 2799W        W 6318   4.741   2.926   9.472
 2800W        W 6319   0.614   7.544   9.213
 2801W        W 6320   3.385   3.877  10.650
 2802W        W 6321   4.250   5.819  11.401
 2803W        W 6322   6.085   9.376   9.842
 2804W        W 6323   6.208   4.607   1.283
 2805W        W 6324   8.096   4.957   3.469
 2806W        W 6325   7.842   4.378   2.669
 2807W        W 6326   9.294   0.170  11.895
 2808W        W 6327   1.324   6.036   1.068
 2809W        W 6328   4.869   6.144   1.948
 2810W        W 6329   8.894   2.761   0.756
 2811W        W 6330   5.051   6.918   0.840
 2812W        W 6331   8.570   6.969   8.723
 2813W        W 6332   9.926   8.517  10.508
 2814W        W 6333   9.026   6.811  11.330
 2815W        W 6334   6.261   1.974   1.584
 2816W        W 6335   8.124   0.709   1.778
 2817W        W 6336   8.244   0.145  10.470
 2818W        W 6337   8.220   9.275   0.351
 2819W        W 6338   5.774   0.406   2.507
 2820W        W 6339   6.507   6.707   0.544
 2821W        W 6340   4.508   1.868  10.825
 2822W        W 6341   4.494   6.095   0.811
 2823W        W 6342   0.755   4.812   2.913
 2824W        W 6343   2.397   8.841  10.545
 2825W        W 6344   9.780   6.146  10.570
 2826W        W 6345   9.823   4.944   1.352
 2827W        W 6346   9.603   2.722   2.685
 2828W        W 6347   6.892   4.601  10.596
 2829W        W 6348   2.143   2.102   8.646
 2830W        W 6349   1.229   7.701   8.567
 2831W        W 6350   2.209   2.339   9.110
 2832W        W 6351   5.788   6.849  10.390
 2833W        W 6352   9.470   0.551   2.558
 2834W        W 6353   4.151   4.635   9.547
 2835W        W 6354   3.852   1.375   3.448
 2836W        W 6355   2.274   4.862   0.008
 2837W        W 6356   3.711   6.418   2.739
 2838W        W 6357   1.548   4.125   0.425
 2839W        W 6358   2.053   2.618   3.038
 2840W        W 6359   2.383   3.454   3.727
 2841W        W 6360   1.412   8.979   0.731
 2842W        W 6361   2.688   9.285   8.748
 2843W        W 6362   3.355   8.170  11.217
 2844W        W 6363   6.405   9.217   1.557
 2845W        W 6364   2.681   6.151   3.569
 2846W        W 6365   3.817   2.203  11.712
 2847W        W 6366   7.575   2.405   0.761
 2848W        W 6367   5.637   4.475   2.428
 2849W        W 6368   8.584   1.625   9.396
 2850W        W 6369   8.922   2.344   9.204
 2851W        W 6370   8.949   1.309   9.157
 2852W        W 6371   2.271   9.736   1.591
 2853W        W 6372   9.249   1.340   0.778
 2854W        W 6373   5.462   7.421   2.748
 2855W        W 6374   6.576   4.293   2.618
 2856W        W 6375   2.119   0.041   9.612
 2857W        W 6376   2.588   8.007   0.231
 2858W        W 6377   6.461   3.387   2.686
 2859W        W 6378   5.698   5.763   0.417
 2860W        W 6379   3.140   9.520  10.517
 2861W        W 6380   4.689   4.070   8.672
 2862W        W 6381   2.403   4.102   2.371
 2863W        W 6382   0.890   4.547   0.539
 2864W        W 6383   6.420   8.852   2.562
 2865W        W 6384   8.840   8.851   9.460
 2866W        W 6385   0.603   5.590  11.822
 2867W        W 6386   3.994   6.162   8.705
 2868W        W 6387   8.115   7.493   9.209
 2869W        W 6388   6.866   3.348   8.910
 2870W        W 6389   2.899   1.849   0.008
 2871W        W 6390   5.957   6.944   1.339
 2872W        W 6391   6.925   4.105  11.350
 2873W        W 6392   5.418   7.019   9.018
 2874W        W 6393   2.748   9.297  11.182
 2875W        W 6394   5.024   0.538   1.946
 2876W        W 6395   3.748   0.574  11.350
 2877W        W 6396   1.783   8.370   2.464
 2878W        W 6397   7.254   7.673  10.778
 2879W        W 6398   0.847   1.051   1.781
 2880W        W 6399   1.962   4.457   9.538
 2881W        W 6400   3.683   1.061  11.414
 2882W        W 6401   9.563   1.914   2.902
 2883W        W 6402   8.084   1.760   2.686
 2884W        W 6403   0.863   3.449   2.931
 2885W        W 6404   6.876   1.897   8.839
 2886W        W 6405   6.595   1.659  11.867
 2887W        W 6406   2.897   8.739  10.476
 2888W        W 6407   0.650   8.053   9.318
 2889W        W 6408   7.174   4.391  11.893
 2890W        W 6409   8.957   1.458   0.090
 2891W        W 6410   7.549   0.761   0.309
 2892W        W 6411   8.609   7.586   2.788
 2893W        W 6412   5.637   7.859  10.898
 2894W        W 6413   7.881   7.781   3.544
 2895W        W 6414   9.349   5.411   8.719
 2896W        W 6415   9.214   1.157   8.730
 2897W        W 6416   8.969   8.802   2.384
 2898W        W 6417   8.248   9.645  10.232
 2899W        W 6418   8.463   3.190   1.358
 2900W        W 6419   8.616   2.978   3.568
 2901W        W 6420   6.237   6.332   3.650
 2902W        W 6421   1.410   3.121   9.782
 2903W        W 6422   3.937   6.651   3.138
 2904W        W 6423   0.944   3.706   1.607
 2905W        W 6424   1.145   7.900   9.227
 2906W        W 6425   6.939   7.092   1.202
 2907W        W 6426   9.978   5.527   0.530
 2908W        W 6427   6.067   0.940   2.288
 2909W        W 6428   5.316   6.479   2.799
 2910W        W 6429   7.049   9.120   0.996
 2911W        W 6430   5.459   9.353   1.633
 2912W        W 6431   3.802   4.186   8.620
 2913W        W 6432   1.772   1.049   9.213
 2914W        W 6433   6.167   7.465   1.319
 2915W        W 6434   6.980   5.283   9.405
 2916W        W 6435   7.002   1.451  10.825
 2917W        W 6436   9.796   9.924   2.500
 2918W        W 6437   3.962   5.808   1.497
 2919W        W 6438   6.151   3.601  10.885
 2920W        W 6439   1.302   5.933  11.509
 2921W        W 6440   6.485   5.445  11.971
 2922W        W 6441   7.764   8.472  10.294
 2923W        W 6442   3.739   2.331   0.220
 2924W        W 6443   4.896   0.546   3.539
 2925W        W 6444   9.918   6.249   2.460
 2926W        W 6445   3.166   2.228   2.542
 2927W        W 6446   0.281   0.073  10.864
 2928W        W 6447   1.169   2.784   2.627
 2929W        W 6448   0.181   6.895   1.743
 2930W        W 6449   8.580   8.428  11.031
 2931W        W 6450   8.667   4.462   2.686
 2932W        W 6451   9.286   6.067  10.515
 2933W        W 6452   9.760   0.298   9.261
 2934W        W 6453   3.548   3.491   9.400
 2935W        W 6454   8.066   7.237   0.918
 2936W        W 6455   5.574   3.394  11.500
 2937W        W 6456   0.905   5.205   9.705
 2938W        W 6457   4.577   0.005  10.084
 2939W        W 6458   5.838   5.460   9.396
 2940W        W 6459   6.219   6.187   8.347
 2941W        W 6460   6.677   6.573   2.663
 2942W        W 6461   8.572   2.181  11.260
 2943W        W 6462   0.983   0.516   1.875
 2944W        W 6463   0.218   1.234   9.682
 2945W        W 6464   3.104   3.501   2.476
 2946W        W 6465   6.251   6.697   8.192
 2947W        W 6466   3.529   7.659   2.140
 2948W        W 6467   9.401   8.463   0.747
 2949W        W 6468   5.299   4.731   8.781
 2950W        W 6469   8.951   8.930   3.248
 2951W        W 6470   8.002   1.942   0.225
 2952W        W 6471   1.483   5.550  10.032
 2953W        W 6472   6.466   8.131   0.050
 2954W        W 6473   0.903   0.609   0.783
 2955W        W 6474   5.793   9.232   3.473
 2956W        W 6475   6.118   5.806   9.104
 2957W        W 6476   1.805   0.909   9.698
 2958W        W 6477   0.358   6.154   9.698
 2959W        W 6478   5.719   1.257   2.077
 2960W        W 6479   5.398   2.269  10.875
 2961W        W 6480   1.398   2.441   0.895
 2962W        W 6481   5.277   8.985  11.989
 2963W        W 6482   2.691   0.253   2.176
 2964W        W 6483   1.684   5.678   2.247
 2965W        W 6484   9.027   6.518   2.058
 2966W        W 6485   7.034   3.013   0.955
 2967W        W 6486   7.051   9.549  11.199
 2968W        W 6487   6.475   0.228  11.304
 2969W        W 6488   3.735   1.417   0.318
 2970W        W 6489   3.869   5.571   3.241
 2971W        W 6490   8.980   8.617  11.469
 2972W        W 6491   4.441   3.043  11.168
 2973W        W 6492   8.170   5.997   2.985
 2974W        W 6493   0.724   1.164   9.605
 2975W        W 6494   7.077   6.880   2.220
 2976W        W 6495   0.500   9.303   2.029
 2977W        W 6496   2.159   2.041  11.415
 2978W        W 6497   2.639   2.427  11.410
 2979W        W 6498   7.114   4.209  10.859
 2980W        W 6499   7.822   7.112  11.898
 2981W        W 6500   6.004   4.060  11.516
 2982W        W 6501   8.729   1.725   8.917
 2983W        W 6502   1.754   1.788   2.792
 2984W        W 6503   0.237   1.114   0.205
 2985W        W 6504   7.446   3.469   3.500
 2986W        W 6505   1.488   1.243  10.504
 2987W        W 6506   6.710   3.985   8.123
 2988W        W 6507   6.073   8.766   1.052
 2989W        W 6508   8.439   7.679  11.517
 2990W        W 6509   0.255   4.672   1.273
 2991W        W 6510   9.035   1.632   3.551
 2992W        W 6511   4.211   1.160   8.588
 2993W        W 6512   0.440   9.402   2.595
 2994W        W 6513   5.798   1.844   1.850
 2995W        W 6514   7.180   9.481   9.298
 2996W        W 6515   9.784   9.403  10.038
 2997W        W 6516   1.333   5.389  11.144
 2998W        W 6517   2.332   7.170  10.893
 2999W        W 6518   9.652   6.495   0.682
 3000W        W 6519   5.650   9.862   2.809
 3001W        W 6520   4.869   4.357  10.024
 3002W        W 6521   8.393   9.573   9.749
 3003W        W 6522   0.770   3.298   1.935
 3004W        W 6523   0.333   4.822   2.168
 3005W        W 6524   6.592   5.996  11.522
 3006W        W 6525   2.268   7.213   0.082
 3007W        W 6526   3.966   7.662  11.320
 3008W        W 6527   6.061   1.686  11.672
 3009W        W 6528   7.610   6.569  10.387
 3010W        W 6529   7.550   4.228   1.592
 3011W        W 6530   3.309   1.990   9.098
 3012W        W 6531   2.255   5.289   9.514
 3013W        W 6532   9.953   6.261  11.404
 3014W        W 6533   2.141   8.222  11.995
 3015W        W 6534   0.285   9.878   2.613
 3016W        W 6535   9.729   7.384   2.985
 3017W        W 6536   2.492   3.017   8.734
 3018W        W 6537   8.556   6.449   8.692
 3019W        W 6538   9.946   4.855   2.715
 3020W        W 6539   1.280   2.447   0.378
 3021W        W 6540   1.799   4.987   0.212
 3022W        W 6541   3.903   8.065   1.992
 3023W        W 6542   3.233   1.492  10.846
 3024W        W 6543   1.081   4.998   9.267
 3025W        W 6544   7.585   6.726  11.607
 3026W        W 6545   7.450   3.103   9.276
 3027W        W 6546   0.865   5.319   8.902
 3028W        W 6547   2.580   3.665   9.323
 3029W        W 6548   7.287   3.933  11.698
 3030W        W 6549   9.613   1.929   1.849
 3031W        W 6550   0.574   7.155   3.200
 3032W        W 6551   3.053   5.270   0.002
 3033W        W 6552   5.443   7.472   0.914
 3034W        W 6553   4.236   1.761   3.015
 3035W        W 6554   7.425   7.421   1.646
 3036W        W 6555   5.828   2.094   2.312
 3037W        W 6556   1.948   5.281   0.667
 3038W        W 6557   5.758   1.052   9.064
 3039W        W 6558   2.579   2.059   3.428
 3040W        W 6559   5.542   2.790   1.306
 3041W        W 6560   2.255   0.545   2.200
 3042W        W 6561   2.691   7.345   8.965
 3043W        W 6562   4.529   9.951   1.069
 3044W        W 6563   5.170   5.069   2.800
 3045W        W 6564   7.539   5.311   2.846
 3046W        W 6565   2.757   7.807  10.249
 3047W        W 6566   6.265   0.301   8.696
 3048W        W 6567   9.201   9.755   8.463
 3049W        W 6568   0.015   1.713  11.200
 3050W        W 6569   9.961   8.884   3.364
 3051W        W 6570   7.076   4.722   3.072
 3052W        W 6571   5.565   7.869  11.939
 3053W        W 6572   7.726   8.763   9.530
 3054W        W 6573   3.519   9.313   1.961
 3055W        W 6574   8.670   4.974  10.879
 3056W        W 6575   8.784   9.494  10.111
 3057W        W 6576   8.482   4.144  10.282
 3058W        W 6577   0.340   4.632   9.187
 3059W        W 6578   9.070   9.304   0.465
 3060W        W 6579   8.798   5.131   9.871
 3061W        W 6580   1.934   0.394  11.459
 3062W        W 6581   7.495   9.096   9.234
 3063W        W 6582   7.206   0.353  11.373
 3064W        W 6583   2.161   9.943  11.489
 3065W        W 6584   4.559   6.911   0.691
 3066W        W 6585   2.755   5.988  10.302
 3067W        W 6586   6.901   1.757   3.193
 3068W        W 6587   5.268   7.015  10.493
 3069W        W 6588   8.187   9.307   2.297
 3070W        W 6589   0.528   0.011   3.471
 3071W        W 6590   8.333   7.498   1.796
 3072W        W 6591   9.010   9.834  11.454
 3073W        W 6592   4.341   8.232   1.091
 3074W        W 6593   9.105   1.801   2.568
 3075W        W 6594   1.410   7.654  11.466
 3076W        W 6595   8.373   1.073   3.401
 3077W        W 6596   3.257   0.184   3.364
 3078W        W 6597   8.384   9.372   2.764
 3079W        W 6598   7.481   7.965   1.938
 3080W        W 6599   8.177   2.703  10.538
 3081W        W 6600   6.904   1.593  11.436
 3082W        W 6601   2.265   9.801   2.889
 3083W        W 6602   9.328   7.727   9.059
 3084W        W 6603   9.918   3.282   9.425
 3085W        W 6604   8.016   5.500   9.412
 3086W        W 6605   7.919   4.311   1.948
 3087W        W 6606   6.130   2.327   9.506
 3088W        W 6607   9.505   2.294  11.732
 3089W        W 6608   0.946   9.210   0.648
 3090W        W 6609   2.095   2.193   3.421
 3091W        W 6610   2.525   6.350   0.022
 3092W        W 6611   5.567   6.498   9.548
 3093W        W 6612   7.633   0.293  11.610
 3094W        W 6613   8.211   0.211   9.205
 3095W        W 6614   4.267   3.246   8.266
 3096W        W 6615   5.358   9.821   8.798
 3097W        W 6616   0.286   9.131  11.338
 3098W        W 6617   6.349   1.946   1.056
 3099W        W 6618   1.399   4.355   9.236
 3100W        W 6619   2.268   0.288   1.432
 3101W        W 6620   6.915   5.049   8.478
 3102W        W 6621   4.014   9.389  10.502
 3103W        W 6622   3.658   6.050   8.338
 3104W        W 6623   1.378   9.014  11.379
 3105W        W 6624   5.976   1.046   9.907
 3106W        W 6625   1.838   7.867   1.982
 3107W        W 6626   0.151   6.773  11.331
 3108W        W 6627   3.971   6.899  10.237
 3109W        W 6628   7.089   5.222   3.210
 3110W        W 6629   7.125   6.063   1.401
 3111W        W 6630   1.773   8.492  10.698
 3112W        W 6631   7.411   9.411   9.761
 3113W        W 6632   6.095   4.239   1.673
 3114W        W 6633   4.295   9.407   2.322
 3115W        W 6634   7.191   5.911  10.557
 3116W        W 6635   3.372   6.367   1.834
 3117W        W 6636   3.998   2.491   2.282
 3118W        W 6637   0.306   8.151   8.938
 3119W        W 6638   0.730   6.675  10.399
 3120W        W 6639   1.255   4.654   3.487
 3121W        W 6640   0.829   9.974  10.741
 3122W        W 6641   1.051   7.769   1.336
 3123W        W 6642   7.806   0.705  11.869
 3124W        W 6643   9.529   8.965   9.878
 3125W        W 6644   3.304   8.959  11.720
 3126W        W 6645   3.175   2.793  10.173
 3127W        W 6646   9.456   4.536  10.388
 3128W        W 6647   5.220   2.045  10.422
 3129W        W 6648   9.046   5.016   8.881
 3130W        W 6649   4.018   9.846   2.328
 3131W        W 6650   5.675   7.388   1.374
 3132W        W 6651   0.565   5.663   2.102
 3133W        W 6652   4.671   7.892  11.850
 3134W        W 6653   5.085   1.178   9.823
 3135W        W 6654   4.066   9.437  11.500
 3136W        W 6655   7.409   5.156   2.371
 3137W        W 6656   4.615   2.829  10.511
 3138W        W 6657   2.349   6.505   3.328
 3139W        W 6658   0.229   9.759   1.758
 3140W        W 6659   7.802   7.937   2.719
 3141W        W 6660   1.454   2.159  10.088
 3142W        W 6661   8.561   8.608  11.783
 3143W        W 6662   3.531   4.512   0.454
 3144W        W 6663   1.844   6.693   3.164
 3145W        W 6664   8.276   7.931   2.582
 3146W        W 6665   9.196   6.042  11.883
 3147W        W 6666   9.284   0.967   2.887
 3148W        W 6667   0.326   7.818  10.516
 3149W        W 6668   1.924   2.414   0.941
 3150W        W 6669   3.572   2.583  10.397
 3151W        W 6670   6.204   2.691   0.668
 3152W        W 6671   7.622   5.318   9.125
 3153W        W 6672   9.901   7.110   0.059
 3154W        W 6673   7.923   1.621   1.818
 3155W        W 6674   2.954   8.596   9.969
 3156W        W 6675   4.983   1.352  11.347
 3157W        W 6676   4.598   6.495   1.524
 3158W        W 6677   5.676   6.767   0.663
 3159W        W 6678   5.862   0.335   9.465
 3160W        W 6679   2.266   7.915  10.185
 3161W        W 6680   0.044   4.232  10.775
 3162W        W 6681   9.876   3.463   0.286
 3163W        W 6682   8.006   5.673  10.426
 3164W        W 6683   4.732   6.292   9.426
 3165W        W 6684   8.518   0.603  11.203
 3166W        W 6685   8.966   5.728   0.792
 3167W        W 6686   6.160   6.619   9.137
 3168W        W 6687   1.300   3.077  11.677
 3169W        W 6688   4.280   5.550   1.882
 3170W        W 6689   4.123   1.308  11.243
 3171W        W 6690   9.235   4.591   0.482
 3172W        W 6691   4.807   0.934   2.171
 3173W        W 6692   6.859   2.323  10.799
 3174W        W 6693   4.863   1.593   1.381
 3175W        W 6694   5.251   0.228   0.739
 3176W        W 6695   2.201   5.049   3.613
 3177W        W 6696   3.342   6.599  11.727
 3178W        W 6697   4.590   1.783   2.633
 3179W        W 6698   3.594   1.090   9.094
 3180W        W 6699   3.491   4.550   7.868
 3181W        W 6700   2.742   3.762  11.170
 3182W        W 6701   2.673   4.354   9.816
 3183W        W 6702   1.317   2.622  11.383
 3184W        W 6703   3.286   0.783   9.396
 3185W        W 6704   6.271   5.647   4.190
 3186W        W 6705   0.877   6.979   0.347
 3187W        W 6706   1.595   3.023  10.815
 3188W        W 6707   9.215   8.354   0.260
 3189W        W 6708   6.873   5.118   2.233
 3190W        W 6709   5.430   7.080  11.001
 3191W        W 6710   6.000   9.539  11.262
 3192W        W 6711   8.142   2.585   2.401
 3193W        W 6712   5.231   9.959   0.301
 3194W        W 6713   6.966   9.854   2.188
 3195W        W 6714   5.200   5.126  10.896
 3196W        W 6715   3.847   8.802   3.105
 3197W        W 6716   9.380   3.449  11.126
 3198W        W 6717   4.432   7.119   2.286
 3199W        W 6718   0.359   6.408   1.711
 3200W        W 6719   5.599   4.439   3.317
 3201W        W 6720   0.813   1.103   9.091
 3202W        W 6721   5.082   1.421   3.136
 3203W        W 6722   6.604   9.235  11.347
 3204W        W 6723   1.792   4.265  11.523
 3205W        W 6724   8.310   7.071   0.033
 3206W        W 6725   4.602   6.400   9.905
 3207W        W 6726   6.732   3.788   9.672
 3208W        W 6727   8.634   1.096  10.335
 3209W        W 6728   3.372   2.576  11.928
 3210W        W 6729   0.428   9.661  10.564
 3211W        W 6730   1.280   6.036   3.055
 3212W        W 6731   7.299   4.511   9.252
 3213W        W 6732   5.200   1.528  10.430
 3214W        W 6733   3.591   4.984   9.158
 3215W        W 6734   8.597   4.309  11.828
 3216W        W 6735   4.335   4.261   1.439
 3217W        W 6736   9.527   1.834   3.410
 3218W        W 6737   3.069   3.841  10.229
 3219W        W 6738   6.383   6.274  11.103
 3220W        W 6739   5.274   7.723   3.601
 3221W        W 6740   0.423   4.376  10.483
 3222W        W 6741   1.372   0.280   1.582
 3223W        W 6742   1.215   2.392   2.292
 3224W        W 6743   9.967   1.743   9.827
 3225W        W 6744   1.762   7.476   9.792
 3226W        W 6745   2.352   3.375   2.776
 3227W        W 6746   5.112   3.422   3.110
 3228W        W 6747   0.520   2.131  10.079
 3229W        W 6748   1.621   0.999   2.675
 3230W        W 6749   7.558   4.767  11.889
 3231W        W 6750   6.539   7.660   0.325
 3232W        W 6751   6.663   4.772   3.381
 3233W        W 6752   6.836   9.341   3.111
 3234W        W 6753   2.115   9.245   2.950
 3235W        W 6754   0.404   6.368  11.183
 3236W        W 6755   4.156   3.057   3.068
 3237W        W 6756   2.227   5.601  11.163
 3238W        W 6757   5.675   3.589   2.219
 3239W        W 6758   8.992   1.044   0.398
 3240W        W 6759   3.163   7.096  10.542
 3241W        W 6760   4.305   4.641  11.872
 3242W        W 6761   0.682   8.287   0.836
 3243W        W 6762   0.831   7.657  10.500
 3244W        W 6763   0.874   1.544   2.668
 3245W        W 6764   4.374   2.458   8.673
 3246W        W 6765   0.093   0.699   1.414
 3247W        W 6766   0.376   1.863   0.433
 3248W        W 6767   0.184   5.721   3.350
 3249W        W 6768   4.720   1.240   3.486
 3250W        W 6769   9.498   6.636   1.147
 3251W        W 6770   6.932   0.222   1.777
 3252W        W 6771   4.118   1.601   2.554
 3253W        W 6772   5.021   5.871  11.117
 3254W        W 6773   6.668   8.239   9.025
 3255W        W 6774   8.109   9.115   1.823
 3256W        W 6775   4.384   6.226   9.033
 3257W        W 6776   7.124   1.621   9.233
 3258W        W 6777   8.927   4.007  11.040
 3259W        W 6778   2.855   6.531   3.136
 3260W        W 6779   6.063   4.323   9.112
 3261W        W 6780   1.618   3.566   9.641
 3262W        W 6781   9.827   9.508  11.978
 3263W        W 6782   6.865   7.681   0.749
 3264W        W 6783   9.800   6.899   2.878
 3265W        W 6784   2.040   0.860  10.690
 3266W        W 6785   4.176   1.990   2.212
 3267W        W 6786   6.862   7.796   8.846
 3268W        W 6787   9.472   0.823   9.051
 3269W        W 6788   0.625   4.749   9.618
 3270W        W 6789   6.668   6.051   3.646
 3271W        W 6790   8.575   5.710   2.873
 3272W        W 6791   8.499   1.254   2.421
 3273W        W 6792   9.298   2.680   1.067
 3274W        W 6793   5.923   6.154   0.859
 3275W        W 6794   1.959   1.663   1.383
 3276W        W 6795   7.882   9.720   2.358
 3277W        W 6796   6.999   6.974   0.348
 3278W        W 6797   9.328   0.088   2.294
 3279W        W 6798   0.480   0.340   0.531
 3280W        W 6799   3.740   0.706  10.296
 3281W        W 6800   2.387   0.623   3.509
 3282W        W 6801   8.709   4.085   8.493
 3283W        W 6802   6.481   4.557   1.741
 3284W        W 6803   2.487   5.495   8.484
 3285W        W 6804   7.607   2.275   0.258
 3286W        W 6805   0.717   3.982  10.289
 3287W        W 6806   3.708   1.563  11.380
 3288W        W 6807   4.922   7.250   8.609
 3289W        W 6808   1.355   6.340   8.748
 3290W        W 6809   9.576   4.987   0.573
 3291W        W 6810   4.637   2.702  11.896
 3292W        W 6811   8.074   6.518   9.553
 3293W        W 6812   1.850   3.205   1.403
 3294W        W 6813   7.669   9.857  11.871
 3295W        W 6814   7.053   4.866   0.027
 3296W        W 6815   7.588   8.444  11.799
 3297W        W 6816   9.954   0.910   0.569
 3298W        W 6817   6.330   5.392  11.434
 3299W        W 6818   5.200   4.539   9.244
 3300W        W 6819   4.093   4.142   3.321
 3301W        W 6820   4.470   3.184   1.668
 3302W        W 6821   9.931   9.471   2.703
 3303W        W 6822   7.080   8.182   1.727
 3304W        W 6823   7.736   3.039   9.725
 3305W        W 6824   0.818   9.764   0.001
 3306W        W 6825   3.462   3.860   2.498
 3307W        W 6826   5.437   7.832   9.215
 3308W        W 6827   5.908   9.641   1.681
 3309W        W 6828   3.942   2.691   0.550
 3310W        W 6829   5.063   3.346  10.591
 3311W        W 6830   6.610   7.050   4.243
 3312W        W 6831   8.130   8.621   1.815
 3313W        W 6832   3.929   0.280  11.819
 3314W        W 6833   0.328   0.400  11.238
 3315W        W 6834   7.935   1.351   1.246
 3316W        W 6835   0.169   1.729   0.902
 3317W        W 6836   3.487   8.867   3.562
 3318W        W 6837   3.826   6.411   3.748
 3319W        W 6838   6.326   0.178   9.618
 3320W        W 6839   8.072   6.412   0.323
 3321W        W 6840   6.348   4.793   9.078
 3322W        W 6841   0.797   4.849   2.388
 3323W        W 6842   2.951   2.381   3.236
 3324W        W 6843   5.460   1.491   9.670
 3325W        W 6844   6.717   5.627   3.927
 3326W        W 6845   8.397   8.005   3.065
 3327W        W 6846   9.949   9.981  11.256
 3328W        W 6847   2.175   1.048   2.143
 3329W        W 6848   2.414   6.934   9.991
 3330W        W 6849   8.985   3.480   2.947
 3331W        W 6850   7.512   3.726   1.455
 3332W        W 6851   1.071   6.670   1.822
 3333W        W 6852   6.028   2.751   9.800
 3334W        W 6853   8.817   1.510   0.591
 3335W        W 6854   9.068   9.630   2.236
 3336W        W 6855   4.725   7.047  10.522
 3337W        W 6856   3.888   5.885  11.755
 3338W        W 6857   6.107   3.196  10.536
 3339W        W 6858   9.815   8.795   9.470
 3340W        W 6859   9.257   0.874  10.896
 3341W        W 6860   5.535   8.342  11.771
 3342W        W 6861   0.653   8.686  10.684
 3343W        W 6862   7.420   9.140   0.529
 3344W        W 6863   1.150   5.105   0.969
 3345W        W 6864   4.537   1.819   9.026
 3346W        W 6865   2.098   2.649   8.688
 3347W        W 6866   5.666   5.246   0.503
 3348W        W 6867   1.198   6.247   0.043
 3349W        W 6868   5.613   9.385   9.681
 3350W        W 6869   1.759   0.884  10.245
 3351W        W 6870   6.470   2.110   0.067
 3352W        W 6871   2.306   9.968  10.995
 3353W        W 6872   5.802   9.082   0.009
 3354W        W 6873   0.236   1.670   3.858
 3355W        W 6874   3.804   3.741  11.847
 3356W        W 6875   2.228   5.997   2.013
 3357W        W 6876   8.102   7.118   8.877
 3358W        W 6877   4.902   4.048   0.436
 3359W        W 6878   5.214   6.817   0.350
 3360W        W 6879   7.947   5.460   1.341
 3361W        W 6880   6.027   5.637   0.796
 3362W        W 6881   1.016   4.122   9.547
 3363W        W 6882   3.423   0.323   9.552
 3364W        W 6883   6.304   8.625  11.397
 3365W        W 6884   8.445   2.603   9.224
 3366W        W 6885   9.491   0.334   8.803
 3367W        W 6886   7.701   5.084   1.016
 3368W        W 6887   7.981   7.598  11.255
 3369W        W 6888   3.531   6.098   1.419
 3370W        W 6889   0.763   1.643   8.998
 3371W        W 6890   6.854   7.521  11.232
 3372W        W 6891   0.837   9.655   0.921
 3373W        W 6892   4.043   3.050   0.894
 3374W        W 6893   7.832   8.224   9.839
 3375W        W 6894   1.854   7.156  11.767
 3376W        W 6895   0.142   7.837   9.310
 3377W        W 6896   5.365   4.265   9.822
 3378W        W 6897   7.520   5.774   3.513
 3379W        W 6898   8.293   4.149   0.601
 3380W        W 6899   0.941   2.304  11.549
 3381W        W 6900   4.802   6.474   0.683
 3382W        W 6901   4.719   0.855   2.673
 3383W        W 6902   6.358   7.584   9.896
 3384W        W 6903   3.655   0.491   1.673
 3385W        W 6904   9.742   6.741   2.389
 3386W        W 6905   4.720   0.337  11.391
 3387W        W 6906   7.402   8.298  10.957
 3388W        W 6907   3.786   0.070  11.365
 3389W        W 6908   0.544   3.695   1.251
 3390W        W 6909   3.189   5.996   0.561
 3391W        W 6910   7.967   8.163   1.769
 3392W        W 6911   3.875   5.923   9.560
 3393W        W 6912   9.248   5.481   3.254
 3394W        W 6913   8.551   7.487   0.835
 3395W        W 6914   9.657   5.291   0.178
 3396W        W 6915   8.102   0.614  10.298
 3397W        W 6916   2.691   4.431   8.505
 3398W        W 6917   0.480   0.841   0.575
 3399W        W 6918   6.819   6.516   3.534
 3400W        W 6919   9.572   3.368  11.873
 3401W        W 6920   9.234   8.183  10.081
 3402W        W 6921   3.037   4.369   0.360
 3403W        W 6922   4.664   6.801   3.642
 3404W        W 6923   3.644   0.737  10.799
 3405W        W 6924   9.682   1.798   1.304
 3406W        W 6925   9.828   0.247   1.179
 3407W        W 6926   2.644   0.662  11.817
 3408W        W 6927   5.181   6.377   3.652
 3409W        W 6928   9.005   9.962   9.528
 3410W        W 6929   5.730   0.135   1.810
 3411W        W 6930   4.973   9.398  11.921
 3412W        W 6931   0.320   8.000  11.751
 3413W        W 6932   7.747   6.761   9.013
 3414W        W 6933   4.533   7.917  10.919
 3415W        W 6934   8.691   0.304   3.236
 3416W        W 6935   3.086   3.364  11.478
 3417W        W 6936   2.223   5.986   0.925
 3418W        W 6937   9.038   0.769  10.432
 3419W        W 6938   8.381   9.332  11.854
 3420W        W 6939   5.272   1.914   8.562
 3421W        W 6940   0.776   8.082  11.509
 3422W        W 6941   7.932   3.367   1.290
 3423W        W 6942   2.168   4.366   2.797
 3424W        W 6943   8.033   4.663   9.903
 3425W        W 6944   3.783   8.865   0.733
 3426W        W 6945   0.425   4.240  11.112
 3427W        W 6946   4.988   2.059  11.758
 3428W        W 6947   4.927   9.972   2.107
 3429W        W 6948   4.379   9.005   3.187
 3430W        W 6949   0.284   8.795  10.279
 3431W        W 6950   2.571   4.752   2.881
 3432W        W 6951   3.165   2.198   9.563
 3433W        W 6952   6.344   3.007  10.103
 3434W        W 6953   1.378   2.056   3.293
 3435W        W 6954   2.482   2.633   9.506
 3436W        W 6955   6.628   1.718   1.893
 3437W        W 6956   2.852   5.990   0.165
 3438W        W 6957   7.411   2.661   9.598
 3439W        W 6958   3.540   4.544   8.875
 3440W        W 6959   8.511   2.629  10.943
 3441W        W 6960   0.310   5.918   0.724
 3442W        W 6961   1.245   8.057  11.763
 3443W        W 6962   9.280   3.787  10.758
 3444W        W 6963   9.581   1.760  10.956
 3445W        W 6964   1.477   3.025  10.306
 3446W        W 6965   7.189   4.987   8.965
 3447W        W 6966   1.369   9.356  10.330
 3448W        W 6967   6.366   0.982  10.608
 3449W        W 6968   3.095   8.998   9.280
 3450W        W 6969   6.357   1.775   8.725
 3451W        W 6970   3.705   8.567   9.975
 3452W        W 6971   3.787   7.918   2.491
 3453W        W 6972   1.833   1.814   9.610
 3454W        W 6973   8.103   3.048   1.697
 3455W        W 6974   6.060   1.872  10.732
 3456W        W 6975   5.944   3.316  10.022
 3457W        W 6976   5.993   9.512   9.153
 3458W        W 6977   6.005   4.124   1.159
 3459W        W 6978   9.567   5.334   9.972
 3460W        W 6979   6.421   0.165   1.123
 3461W        W 6980   0.487   9.301   0.322
 3462W        W 6981   7.999   3.293   9.362
 3463W        W 6982   1.685   2.713   2.592
 3464W        W 6983   6.904   2.371   9.297
 3465W        W 6984   3.083   9.979   9.258
 3466W        W 6985   3.505   9.412   3.555
 3467W        W 6986   5.259   6.970   2.873
 3468W        W 6987   1.849   3.807  11.740
 3469W        W 6988   8.190   1.450  10.980
 3470W        W 6989   5.123   3.484   8.219
 3471W        W 6990   0.906   2.855   3.578
 3472W        W 6991   8.722   9.352   1.435
 3473W        W 6992   5.290   4.625  11.177
 3474W        W 6993   4.844   7.698   9.873
 3475W        W 6994   7.982   2.249  10.430
 3476W        W 6995   6.023   4.770   1.721
 3477W        W 6996   1.512   4.248   9.726
 3478W        W 6997   6.194   6.408   2.781
 3479W        W 6998   5.445   3.551  10.319
 3480W        W 6999   5.350   2.878   8.755
 3481W        W 7000   7.655   8.452   2.095
 3482W        W 7001   3.646   3.433   8.911
 3483W        W 7002   3.266   4.644   3.429
 3484W        W 7003   4.623   3.608   2.891
 3485W        W 7004   3.486   7.895   0.158
 3486W        W 7005   6.919   4.675   2.606
 3487W        W 7006   2.208   4.681   3.234
 3488W        W 7007   8.437   3.403   1.846
 3489W        W 7008   4.162   7.517   0.298
 3490W        W 7009   0.333   5.420  10.426
 3491W        W 7010   2.328   0.147  10.064
 3492W        W 7011   1.307   2.358   9.100
 3493W        W 7012   7.390   6.176   3.194
 3494W        W 7013   2.701   7.010   0.271
 3495W        W 7014   3.757   5.399   3.697
 3496W        W 7015   2.751   6.895  10.788
 3497W        W 7016   1.750   8.962  11.717
 3498W        W 7017   4.099   8.548  11.630
 3499W        W 7018   5.471   2.902  11.631
 3500W        W 7019   5.455   0.444   0.280
 3501W        W 7020   0.368   4.171   1.306
 3502W        W 7021   9.756   6.143   8.363
 3503W        W 7022   4.492   7.045   8.818
 3504W        W 7023   8.885   9.508  11.874
 3505W        W 7024   6.057   5.135   0.876
 3506W        W 7025   8.968   2.644   2.921
 3507W        W 7026   2.792   3.310   1.582
 3508W        W 7027   5.749   7.109   1.820
 3509W        W 7028   5.213   7.819   3.086
 3510W        W 7029   4.210   7.337   9.753
 3511W        W 7030   3.521   6.827  11.278
 3512W        W 7031   0.869   2.754   0.334
 3513W        W 7032   1.399   1.844   9.292
 3514W        W 7033   4.222   5.548   2.861
 3515W        W 7034   9.406   7.194   9.172
 3516W        W 7035   5.191   0.010   3.138
 3517W        W 7036   6.637   6.754   1.520
 3518W        W 7037   2.129   4.759  10.314
 3519W        W 7038   3.431   0.311  11.666
 3520W        W 7039   3.476   9.485   0.752
 3521W        W 7040   5.502   1.947  11.810
 3522W        W 7041   8.503   6.867  11.093
 3523W        W 7042   8.843   0.051   2.577
 3524W        W 7043   7.302   0.119   1.423
 3525W        W 7044   2.040   8.281   9.391
 3526W        W 7045   2.003   1.358   2.638
 3527W        W 7046   4.448   6.986  10.951
 3528W        W 7047   5.171   1.394   0.463
 3529W        W 7048   9.912   8.437  11.017
 3530W        W 7049   9.951   0.382   2.724
 3531W        W 7050   6.190   6.555  11.986
 3532W        W 7051   2.895   7.742   1.029
 3533W        W 7052   5.627   0.724   2.136
 3534W        W 7053   0.281   6.115   9.178
 3535W        W 7054   1.751   9.499   1.397
 3536W        W 7055   5.198   6.974   8.266
 3537W        W 7056   9.486   8.467   9.215
 3538W        W 7057   6.669   4.430  11.049
 3539W        W 7058   1.011   0.730  11.721
 3540W        W 7059   7.182   6.508   0.377
 3541W        W 7060   8.937   3.602  11.975
 3542W        W 7061   2.399   1.205   9.875
 3543W        W 7062   1.260   8.216   1.395
 3544W        W 7063   9.425   8.608   1.819
 3545W        W 7064   5.502   3.834   8.385
 3546W        W 7065   9.897   0.203  10.527
 3547W        W 7066   8.225   4.733   2.629
 3548W        W 7067   8.936   8.225   0.652
 3549W        W 7068   6.106   0.671   0.526
 3550W        W 7069   5.489   5.017   9.221
 3551W        W 7070   5.919   7.026   8.832
 3552W        W 7071   0.605   7.866  10.084
 3553W        W 7072   6.545   5.633   3.313
 3554W        W 7073   0.386   3.947   0.800
 3555W        W 7074   2.188   1.656  11.770
 3556W        W 7075   5.116   1.572  11.816
 3557W        W 7076   7.911   6.866   2.981
 3558W        W 7077   0.958   1.459   9.951
 3559W        W 7078   0.655   9.823   1.459
 3560W        W 7079   4.350   9.217   9.547
 3561W        W 7080   7.818   3.206  11.291
 3562W        W 7081   6.894   3.775  10.624
 3563W        W 7082   6.962   8.484   0.279
 3564W        W 7083   6.941   1.057   9.923
 3565W        W 7084   1.803   2.623  10.242
 3566W        W 7085   0.926   9.558  11.113
 3567W        W 7086   6.572   8.020  10.005
 3568W        W 7087   6.960   9.727  10.221
 3569W        W 7088   1.810   8.866   1.783
 3570W        W 7089   1.133   5.079   3.219
 3571W        W 7090   9.815   6.019   0.596
 3572W        W 7091   8.550   2.931   3.076
 3573W        W 7092   4.567   7.342  10.111
 3574W        W 7093   4.558   7.009   1.694
 3575W        W 7094   4.455   9.047  10.235
 3576W        W 7095   9.326   7.220   1.687
 3577W        W 7096   8.684   4.428   9.294
 3578W        W 7097   9.791   8.767   0.989
 3579W        W 7098   9.241   0.379   9.262
 3580W        W 7099   1.390   1.190  10.010
 3581W        W 7100   8.055   8.697   9.916
 3582W        W 7101   7.777   6.277   9.204
 3583W        W 7102   4.315   8.364  10.724
 3584W        W 7103   1.749   6.096   0.715
 3585W        W 7104   1.660   0.709   8.860
 3586W        W 7105   4.222   7.885   2.794
 3587W        W 7106   6.707   9.362   3.595
 3588W        W 7107   6.453   0.905  10.101
 3589W        W 7108   4.926   8.180   3.384
 3590W        W 7109   5.250   7.432   2.281
 3591W        W 7110   5.737   7.471   8.989
 3592W        W 7111   1.742   2.059   8.950
 3593W        W 7112   2.789   0.903   9.592
 3594W        W 7113   4.957   7.251   0.460
 3595W        W 7114   9.889   9.761  10.813
 3596W        W 7115   3.204   5.114   9.525
 3597W        W 7116   1.488   9.903   1.246
 3598W        W 7117   0.465   1.750   2.948
 3599W        W 7118   7.150   9.111  11.469
 3600W        W 7119   1.947   0.302   8.973
 3601W        W 7120   7.383   5.286   3.613
 3602W        W 7121   9.600   9.693  10.403
 3603W        W 7122   4.624   0.713   1.692
 3604W        W 7123   6.964   1.341   2.186
 3605W        W 7124   1.720   5.695   1.023
 3606W        W 7125   2.319   1.136   3.422
 3607W        W 7126   6.502   4.885   0.913
 3608W        W 7127   9.518   0.125   2.866
 3609W        W 7128   5.546   8.274   2.592
 3610W        W 7129   1.352   7.613  11.985
 3611W        W 7130   6.649   3.352   0.782
 3612W        W 7131   4.766   1.127   9.339
 3613W        W 7132   2.604   2.189   1.741
 3614W        W 7133   0.655   3.217   3.317
 3615W        W 7134   8.547   8.912   1.149
 3616W        W 7135   6.041   1.247   3.302
 3617W        W 7136   5.241   7.408   4.033
 3618W        W 7137   6.092   4.615  11.453
 3619W        W 7138   2.286   9.798   0.803
 3620W        W 7139   2.430   2.450   0.863
 3621W        W 7140   7.206   2.573   3.503
 3622W        W 7141   5.601   6.596   2.028
 3623W        W 7142   4.778   2.219   3.456
 3624W        W 7143   1.824   9.985   1.693
 3625W        W 7144   6.607   8.294   9.536
 3626W        W 7145   1.326   4.166   2.593
 3627W        W 7146   6.358   3.281   8.781
 3628W        W 7147   3.207   5.592   2.698
 3629W        W 7148   5.453   5.951   3.689
 3630W        W 7149   9.697   5.122   3.106
 3631W        W 7150   5.540   9.049   0.453
 3632W        W 7151   3.616   2.088  10.456
 3633W        W 7152   6.928   7.311   9.986
 3634W        W 7153   2.933   9.338   1.009
 3635W        W 7154   3.312   3.667   9.813
 3636W        W 7155   5.676   9.944   0.981
 3637W        W 7156   8.938   5.970   9.566
 3638W        W 7157   8.604   5.722   0.263
 3639W        W 7158   7.623   3.233   1.725
 3640W        W 7159   5.286   5.892   1.666
 3641W        W 7160   7.732   0.052   9.091
 3642W        W 7161   0.570   9.168  10.461
 3643W        W 7162   1.564   5.069   1.552
 3644W        W 7163   8.307   8.882   2.620
 3645W        W 7164   4.310   0.654   0.535
 3646W        W 7165   5.201   9.321   2.112
 3647W        W 7166   4.731   3.658  11.772
 3648W        W 7167   4.510   1.871   9.892
 3649W        W 7168   8.824   2.150   2.854
 3650W        W 7169   5.487   7.778   8.650
 3651W        W 7170   0.439   1.871  11.424
 3652W        W 7171   1.841   9.068   8.928
 3653W        W 7172   0.410   7.037   0.760
 3654W        W 7173   4.205   3.333   2.619
 3655W        W 7174   8.106   3.701  11.935
 3656W        W 7175   6.785   2.305  11.308
 3657W        W 7176   0.979   2.336  10.706
 3658W        W 7177   2.887   2.776   3.588
 3659W        W 7178   6.142   9.957   2.037
 3660W        W 7179   6.732   4.647   1.316
 3661W        W 7180   6.561   8.872   3.080
 3662W        W 7181   8.123   9.197   9.981
 3663W        W 7182   3.186   7.523  10.178
 3664W        W 7183   9.664   2.840  11.724
 3665W        W 7184   9.661   4.721  10.839
 3666W        W 7185   5.996   9.928   3.214
 3667W        W 7186   1.748   8.056   1.502
 3668W        W 7187   3.641   6.641   9.955
 3669W        W 7188   1.828   1.735   2.288
 3670W        W 7189   0.620   6.033  10.843
 3671W        W 7190   7.040   0.336   3.152
 3672W        W 7191   1.626   7.390   1.780
 3673W        W 7192   4.621   8.807   8.533
 3674W        W 7193   2.273   7.055   2.541
 3675W        W 7194   7.708   7.849  10.903
 3676W        W 7195   1.287   0.410   1.088
 3677W        W 7196   0.570   0.805  11.453
 3678W        W 7197   3.165   4.757   2.063
 3679W        W 7198   7.127   5.288  11.750
 3680W        W 7199   5.129   7.852   1.060
 3681W        W 7200   4.542   0.207  10.555
 3682W        W 7201   4.913   3.103  11.014
 3683W        W 7202   8.393   9.932   1.069
 3684W        W 7203   1.672   4.469  10.818
 3685W        W 7204   8.386   0.282   2.802
 3686W        W 7205   4.020   3.363   1.330
 3687W        W 7206   0.435   1.742  10.901
 3688W        W 7207   5.143   5.688   2.112
 3689W        W 7208   6.807   5.552  11.425
 3690W        W 7209   5.520   2.596   1.775
 3691W        W 7210   0.775   4.358   9.933
 3692W        W 7211   3.000   8.768   1.204
 3693W        W 7212   9.062   9.924   9.009
 3694W        W 7213   2.254   4.432  11.708
 3695W        W 7214   6.274   9.122   9.438
 3696W        W 7215   9.363   5.669   9.605
 3697W        W 7216   8.039   6.255   8.768
 3698W        W 7217   4.288   7.474  10.981
 3699W        W 7218   8.316   6.625   3.201
 3700W        W 7219   7.447   3.998   8.856
 3701W        W 7220   7.831   2.698   9.318
 3702W        W 7221   0.463   4.922  10.505
 3703W        W 7222   3.048   8.409  11.562
 3704W        W 7223   2.220   7.410  10.018
 3705W        W 7224   7.995   7.947   1.306
 3706W        W 7225   2.190   1.980   2.550
 3707W        W 7226   6.155   5.287   9.784
 3708W        W 7227   2.437   0.216   3.174
 3709W        W 7228   0.331   6.428  11.720
 3710W        W 7229   4.709   9.642   3.079
 3711W        W 7230   2.602   0.463   0.274
 3712W        W 7231   3.908   4.631   2.123
 3713W        W 7232   2.274   5.237  10.569
 3714W        W 7233   5.377   1.093   0.864
 3715W        W 7234   9.259   2.042  10.147
 3716W        W 7235   2.268   0.921   9.451
 3717W        W 7236   1.787   8.687   0.887
 3718W        W 7237   7.258   6.846  10.619
 3719W        W 7238   4.085   8.566   2.028
 3720W        W 7239   2.831   4.621  11.050
 3721W        W 7240   4.769   5.670   1.742
 3722W        W 7241   1.647   8.856   2.286
 3723W        W 7242   0.274   8.262  10.219
 3724W        W 7243   6.692   6.635   0.087
 3725W        W 7244   6.481   5.141   9.421
 3726W        W 7245   0.430   2.092  11.897
 3727W        W 7246   7.497   8.915   2.870
 3728W        W 7247   3.670   0.076   9.968
 3729W        W 7248   2.259   6.371   1.307
 3730W        W 7249   5.470   3.633   0.300
 3731W        W 7250   3.586   5.028   2.040
 3732W        W 7251   1.173   4.337   1.661
 3733W        W 7252   5.839   8.427  11.342
 3734W        W 7253   8.748   8.560   2.913
 3735W        W 7254   0.921   7.887   2.058
 3736W        W 7255   3.232   9.914   9.752
 3737W        W 7256   7.528   6.906   2.517
 3738W        W 7257   4.876   5.290   0.393
 3739W        W 7258   2.761   8.416   3.376
 3740W        W 7259   5.435   9.474   0.183
 3741W        W 7260   2.320   4.570   1.890
 3742W        W 7261   3.511   9.281   9.399
 3743W        W 7262   5.598   3.968   2.542
 3744W        W 7263   8.881   9.734   0.655
 3745W        W 7264   3.910   2.569   8.956
 3746W        W 7265   5.967   2.816   1.638
 3747W        W 7266   9.073   0.449   2.867
 3748W        W 7267   1.212   8.197   8.800
 3749W        W 7268   6.761   1.243  10.373
 3750W        W 7269   5.094   8.612   8.694
 3751W        W 7270   9.421   4.611   1.959
 3752W        W 7271   9.764   9.776   0.920
 3753W        W 7272   4.875   0.317   1.273
 3754W        W 7273   0.290   5.536  10.921
 3755W        W 7274   8.138   4.122  11.645
 3756W        W 7275   0.360   4.687  10.060
 3757W        W 7276   2.248   8.442   2.663
 3758W        W 7277   3.973   1.855   0.452
 3759W        W 7278   3.826   2.716  11.711
 3760W        W 7279   1.237   2.079   1.850
 3761W        W 7280   6.360   4.047   9.454
 3762W        W 7281   6.355   6.176   8.838
 3763W        W 7282   6.019   9.428   0.288
 3764W        W 7283   4.892   1.122  11.810
 3765W        W 7284   5.960   5.278   1.811
 3766W        W 7285   2.867   5.976  10.793
 3767W        W 7286   1.254   2.327   2.854
 3768W        W 7287   2.257   0.004   2.406
 3769W        W 7288   7.187   9.139   0.064
 3770W        W 7289   6.896   4.919   0.565
 3771W        W 7290   6.886   5.381   0.799
 3772W        W 7291   9.035   3.880   1.268
 3773W        W 7292   4.141   0.889  11.561
 3774W        W 7293   6.799   8.770  11.406
 3775W        W 7294   6.700   9.046   8.776
 3776W        W 7295   4.635   0.328   8.860
 3777W        W 7296   8.432   8.074   9.648
 3778W        W 7297   8.925   4.407   1.328
 3779W        W 7298   1.716   9.553   2.922
 3780W        W 7299   2.696   9.263  11.711
 3781W        W 7300   2.230   9.515   9.488
 3782W        W 7301   7.982   7.905   0.391
 3783W        W 7302   6.839   4.775   9.292
 3784W        W 7303   0.119   0.095   0.254
 3785W        W 7304   7.593   5.575   1.906
 3786W        W 7305   4.626   0.818   3.182
 3787W        W 7306   4.323   1.838   1.739
 3788W        W 7307   7.200   1.351   3.062
 3789W        W 7308   2.344   9.888   3.553
 3790W        W 7309   6.795   2.879   3.372
 3791W        W 7310   0.061   7.604  11.551
 3792W        W 7311   4.942   1.427   8.918
 3793W        W 7312   7.582   7.089  10.298
 3794W        W 7313   4.811   8.952   0.928
 3795W        W 7314   2.402   0.868  11.060
 3796W        W 7315   5.089   3.118   0.465
 3797W        W 7316   5.651   5.887   9.592
 3798W        W 7317   3.218   9.955  10.764
 3799W        W 7318   1.636   2.377   1.999
 3800W        W 7319   2.253   4.020   1.337
 3801W        W 7320   0.699   8.856   2.233
 3802W        W 7321   2.211   3.188   2.334
 3803W        W 7322   6.080   2.655  11.804
 3804W        W 7323   9.747   4.518   0.449
 3805W        W 7324   1.516   4.472   0.799
 3806W        W 7325   5.161   4.152   2.393
 3807W        W 7326   8.920   7.493   0.470
 3808W        W 7327   3.313   6.612  10.355
 3809W        W 7328   4.552   2.302   1.809
 3810W        W 7329   2.843   1.461   2.771
 3811W        W 7330   5.705   4.508   8.502
 3812W        W 7331   8.364   9.056  11.395
 3813W        W 7332   8.157   1.875  11.256
 3814W        W 7333   0.325   0.724   2.909
 3815W        W 7334   5.794   5.583   2.775
 3816W        W 7335   4.706   4.365  10.975
 3817W        W 7336   1.750   2.237   3.001
 3818W        W 7337   4.424   2.763   0.398
 3819W        W 7338   8.297   3.851   8.684
 3820W        W 7339   1.255   0.653   2.302
 3821W        W 7340   1.979   7.439   2.740
 3822W        W 7341   3.458   4.749   2.510
 3823W        W 7342   7.808   9.511   0.530
 3824W        W 7343   7.631   0.749  11.376
 3825W        W 7344   5.525   8.218   3.132
 3826W        W 7345   1.368   4.422  11.821
 3827W        W 7346   9.514   1.289  10.833
 3828W        W 7347   3.949   7.546   1.908
 3829W        W 7348   6.176   0.359   3.446
 3830W        W 7349   4.659   7.453   1.430
 3831W        W 7350   3.522   3.325  10.804
 3832W        W 7351   7.855   3.979   2.342
 3833W        W 7352   2.425   2.001   0.043
 3834W        W 7353   7.339   7.017   9.845
 3835W        W 7354   3.642   2.038   9.520
 3836W        W 7355   9.255   1.358   1.279
 3837W        W 7356   5.351   9.210  10.742
 3838W        W 7357   3.633   6.386  10.942
 3839W        W 7358   2.265   3.618   0.384
 3840W        W 7359   1.271   0.315  11.505
 3841W        W 7360   3.830   3.237  11.769
 3842W        W 7361   0.381   9.450   0.806
 3843W        W 7362   2.282   3.111   9.590
 3844W        W 7363   4.245   6.068   3.861
 3845W        W 7364   1.383   5.491   2.606
 3846W        W 7365   0.039   1.250  10.953
 3847W        W 7366   6.687   6.680   1.016
 3848W        W 7367   4.559   8.797   1.855
 3849W        W 7368   5.856   4.009  10.818
 3850W        W 7369   1.726   5.674  11.360
 3851W        W 7370   0.855   1.886   2.144
 3852W        W 7371   0.673   7.108   2.666
 3853W        W 7372   6.587   5.191   3.066
 3854W        W 7373   7.751   1.955   3.056
 3855W        W 7374   2.755   5.226   9.297
 3856W        W 7375   7.470   5.240   0.150
 3857W        W 7376   0.353   3.444  10.253
 3858W        W 7377   1.095   7.453   8.994
 3859W        W 7378   0.238   3.888  10.444
 3860W        W 7379   7.415   1.662  11.547
 3861W        W 7380   8.124   2.829   1.207
 3862W        W 7381   8.951   6.969  11.822
 3863W        W 7382   5.425   3.464   3.563
 3864W        W 7383   3.734   4.371   1.160
 3865W        W 7384   2.885   1.720   9.179
 3866W        W 7385   0.171   2.400   3.422
 3867W        W 7386   9.247   5.047   1.792
 3868W        W 7387   3.498   8.748   1.296
 3869W        W 7388   5.627   2.226   3.976
 3870W        W 7389   8.944   8.756   1.886
 3871W        W 7390   1.624   9.047   2.779
 3872W        W 7391   6.667   1.910   0.640
 3873W        W 7392   0.988   2.105  10.264
 3874W        W 7393   3.866   5.470   9.971
 3875W        W 7394   3.213   1.281  11.300
 3876W        W 7395   2.164   5.123   2.312
 3877W        W 7396   3.079   9.264   0.509
 3878W        W 7397   8.274   1.463  11.554
 3879W        W 7398   1.155   8.009   0.876
 3880W        W 7399   6.690   3.820   2.463
 3881W        W 7400   5.608   8.068   9.925
 3882W        W 7401   9.370   1.418  11.797
 3883W        W 7402   4.632   8.102  10.406
 3884W        W 7403   3.711   6.327  11.950
 3885W        W 7404   8.518   7.966   1.095
 3886W        W 7405   0.403   2.864  11.225
 3887W        W 7406   1.837   8.431   0.406
 3888W        W 7407   1.874   3.470  10.078
 3889W        W 7408   8.444   9.486   0.785
 3890W        W 7409   7.018   0.123   0.869
 3891W        W 7410   7.202   8.564   2.648
 3892W        W 7411   8.799   4.076   1.688
 3893W        W 7412   7.888   4.070   3.105
 3894W        W 7413   9.187   3.511  10.158
 3895W        W 7414   4.534   0.404   2.819
 3896W        W 7415   5.569   1.570   3.287
 3897W        W 7416   4.214   4.363   0.939
 3898W        W 7417   2.600   7.653   9.799
 3899W        W 7418   4.402   0.636   2.344
 3900W        W 7419   3.728   3.629   1.683
 3901W        W 7420   4.032   3.628   9.194
 3902W        W 7421   4.748   9.185  11.522
 3903W        W 7422   5.145   8.008  11.639
 3904W        W 7423   3.502   6.913   3.512
 3905W        W 7424   9.836   7.127  11.527
 3906W        W 7425   5.251   9.760   2.451
 3907W        W 7426   9.890   6.394   9.741
 3908W        W 7427   3.269   1.543   0.127
 3909W        W 7428   2.212   7.486   0.528
 3910W        W 7429   1.324   8.444  10.956
 3911W        W 7430   3.796   3.295   8.457
 3912W        W 7431   8.757   8.522   1.428
 3913W        W 7432   7.473   3.103  10.517
 3914W        W 7433   4.312   3.821  10.618
 3915W        W 7434   6.976   8.315   2.252
 3916W        W 7435   3.001   2.325   8.868
 3917W        W 7436   0.453   8.040   2.455
 3918W        W 7437   6.060   8.875   3.229
 3919W        W 7438   7.624   0.744   1.925
 3920W        W 7439   2.758   3.468   8.857
 3921W        W 7440   4.670   9.422   9.879
 3922W        W 7441   9.004   8.708   0.984
 3923W        W 7442   5.189   8.335  10.551
 3924W        W 7443   1.864   7.083   0.370
 3925W        W 7444   9.929   7.846   1.157
 3926W        W 7445   4.101   9.335   9.973
 3927W        W 7446   3.220   5.385   3.636
 3928W        W 7447   4.201   8.931   1.057
 3929W        W 7448   6.286   6.895   2.651
 3930W        W 7449   9.133   3.141   0.009
 3931W        W 7450   3.422   6.021   2.394
 3932W        W 7451   0.136   2.598  11.789
 3933W        W 7452   0.800   6.163   9.397
 3934W        W 7453   3.378   2.650   3.325
 3935W        W 7454   7.155   1.555  10.277
 3936W        W 7455   7.863   9.650   9.895
 3937W        W 7456   5.610   0.383  11.284
 3938W        W 7457   3.769   5.453   1.813
 3939W        W 7458   7.703   3.376  11.801
 3940W        W 7459   4.067   0.196   2.763
 3941W        W 7460   9.615   2.914   9.679
 3942W        W 7461   3.807   7.667   9.814
 3943W        W 7462   2.990   2.673   2.338
 3944W        W 7463   5.621   4.709  11.594
 3945W        W 7464   4.228   4.197  11.121
 3946W        W 7465   7.604   7.999  11.384
 3947W        W 7466   1.983   1.312  10.455
 3948W        W 7467   3.534   8.999   8.981
 3949W        W 7468   5.056   9.321   1.278
 3950W        W 7469   2.934   0.461   9.821
 3951W        W 7470   8.058   4.593  11.855
 3952W        W 7471   3.048   7.034   8.768
 3953W        W 7472   9.544   4.215  10.783
 3954W        W 7473   5.487   0.282  11.779
 3955W        W 7474   9.319   6.910   3.063
 3956W        W 7475   6.531   1.665  10.590
 3957W        W 7476   2.707   4.718   0.540
 3958W        W 7477   3.510   3.167   1.640
 3959W        W 7478   4.727   9.291   3.474
 3960W        W 7479   4.830   5.284   9.952
 3961W        W 7480   1.988   6.207  10.423
 3962W        W 7481   7.247   2.923   1.581
 3963W        W 7482   2.112   6.604   2.717
 3964W        W 7483   0.451   4.113   3.404
 3965W        W 7484   5.420   6.155   9.951
 3966W        W 7485   4.697   9.099   2.258
 3967W        W 7486   0.052   5.082   9.172
 3968W        W 7487   4.418   3.285   9.268
 3969W        W 7488   4.680   7.490   9.005
 3970W        W 7489   5.944   9.135   1.768
 3971W        W 7490   7.639   3.829   0.075
 3972W        W 7491   9.597   5.606   2.874
 3973W        W 7492   6.983   6.411   1.745
 3974W        W 7493   5.415   6.068  11.997
 3975W        W 7494   4.222   9.868   0.090
 3976W        W 7495   9.067   9.948   3.033
 3977W        W 7496   7.766   4.061   0.633
 3978W        W 7497   4.432   1.522   2.147
 3979W        W 7498   6.139   1.180   0.401
 3980W        W 7499   9.281   7.880   0.513
 3981W        W 7500   9.447   8.615   2.338
 3982W        W 7501   0.635   9.349   1.280
 3983W        W 7502   2.814   6.519   0.396
 3984W        W 7503   8.706   4.209   2.197
 3985W        W 7504   3.732   7.849   1.563
 3986W        W 7505   2.537   9.410   1.860
 3987W        W 7506   2.420   2.860   2.790
 3988W        W 7507   6.244   4.500   3.523
 3989W        W 7508   9.797   2.629   2.230
 3990W        W 7509   7.821   5.125   0.522
 3991W        W 7510   5.221   3.855   1.571
 3992W        W 7511   1.382   0.268  10.252
 3993W        W 7512   8.243   8.404   2.780
 3994W        W 7513   4.964   7.374   2.752
 3995W        W 7514   3.825   2.908   3.487
 3996W        W 7515   9.836   5.123  11.720
 3997W        W 7516   6.067   5.503  10.926
 3998W        W 7517   3.862   2.777   9.982
 3999W        W 7518   0.281   2.550   9.246
 4000W        W 7519   6.353   6.101   3.199
 4001W        W 7520   7.127   7.343   2.988
 4002W        W 7521   1.465   6.928   1.627
 4003W        W 7522   2.352   4.599  11.214
 4004W        W 7523   0.376   2.847   0.200
 4005W        W 7524   3.610   3.098   1.148
 4006W        W 7525   8.423   7.585   0.341
 4007W        W 7526   4.973   4.992   9.134
 4008W        W 7527   4.269   4.489   3.652
 4009W        W 7528   1.434   5.643   3.555
 4010W        W 7529   8.461   2.325   2.049
 4011W        W 7530   4.465   7.403   0.688
 4012W        W 7531   5.529   8.035   0.819
 4013W        W 7532   1.956   4.746   0.908
 4014W        W 7533   7.437   8.133   2.427
 4015W        W 7534   4.833   9.054   9.509
 4016W        W 7535   7.588   5.600  10.740
 4017W        W 7536   9.357   4.194   1.519
 4018W        W 7537   4.061   1.622   8.893
 4019W        W 7538   7.041   2.373   8.709
 4020W        W 7539   8.894   2.188   2.313
 4021W        W 7540   7.001   8.004   1.144
 4022W        W 7541   3.119   9.783   0.299
 4023W        W 7542   8.047   4.549   3.099
 4024W        W 7543   3.092   3.443  10.553
 4025W        W 7544   3.213   7.192  11.030
 4026W        W 7545   7.423   6.261  11.808
 4027W        W 7546   0.909   5.638  11.394
 4028W        W 7547   4.301   2.690  11.505
 4029W        W 7548   8.503   8.708  10.224
 4030W        W 7549   6.870   8.806   2.260
 4031W        W 7550   0.242   7.412   1.841
 4032W        W 7551   4.996   9.052   1.720
 4033W        W 7552   3.585   0.268  10.538
 4034W        W 7553   7.085   5.789   9.420
 4035W        W 7554   2.260   6.867   1.174
 4036W        W 7555   7.203   6.479   2.525
 4037W        W 7556   4.358   1.622   1.247
 4038W        W 7557   4.166   8.745   1.533
 4039W        W 7558   1.827   7.438   9.251
 4040W        W 7559   4.214   5.779   0.518
 4041W        W 7560   7.193   0.636   3.543
 4042W        W 7561   5.777   8.621   9.250
 4043W        W 7562   5.086   9.542  11.410
 4044W        W 7563   6.449   6.941  11.760
 4045W        W 7564   1.776   9.367   1.884
 4046W        W 7565   9.437   2.270   9.219
 4047W        W 7566   2.507   4.878   1.495
 4048W        W 7567   8.573   0.446  10.041
 4049W        W 7568   0.801   9.931   2.698
 4050W        W 7569   8.810   2.676  10.045
 4051W        W 7570   5.983   0.050   1.367
 4052W        W 7571   5.418   3.125  11.053
 4053W        W 7572   8.621   5.011   0.985
 4054W        W 7573   5.700   0.040   0.496
 4055W        W 7574   3.031   2.835   8.722
 4056W        W 7575   7.126   0.005   2.748
 4057W        W 7576   0.229   5.098   0.611
 4058W        W 7577   6.563   1.663   2.386
 4059W        W 7578   1.157   3.783  10.518
 4060W        W 7579   2.261   3.354   9.052
 4061W        W 7580   4.033   5.814   9.090
 4062W        W 7581   2.068   8.739   9.701
 4063W        W 7582   6.611   6.578   3.999
 4064W        W 7583   6.650   9.956  11.953
 4065W        W 7584   0.659   0.453  10.812
 4066W        W 7585   7.165   2.352   2.246
 4067W        W 7586   2.646   7.732  11.746
 4068W        W 7587   6.834   0.411  10.978
 4069W        W 7588   6.250   1.732  11.173
 4070W        W 7589   7.029   4.186   2.888
 4071W        W 7590   1.783   4.372  10.313
 4072W        W 7591   7.949   1.142   0.789
 4073W        W 7592   4.081   5.078   9.292
 4074W        W 7593   5.057   1.865   2.885
 4075W        W 7594   0.826   2.148   0.543
 4076W        W 7595   3.916   0.363   1.235
 4077W        W 7596   7.463   3.918  10.085
 4078W        W 7597   6.413   6.291   0.854
 4079W        W 7598   6.460   8.519   9.997
 4080W        W 7599   5.743   5.533   9.943
 4081W        W 7600   0.940   0.292   3.092
 4082W        W 7601   8.601   1.698   2.706
 4083W        W 7602   2.365   6.116  11.203
 4084W        W 7603   4.252   9.912  11.530
 4085W        W 7604   2.385   8.871   3.237
 4086W        W 7605   6.542   4.629   8.291
 4087W        W 7606   6.788   5.931   1.802
 4088W        W 7607   8.019   4.170   0.164
 4089W        W 7608   7.864   6.744   3.510
 4090W        W 7609   9.250   0.877   1.073
 4091W        W 7610   0.833   0.827   3.131
 4092W        W 7611   7.322   8.396   1.088
 4093W        W 7612   9.588   0.885  11.291
 4094W        W 7613   6.955   8.080  10.766
 4095W        W 7614   7.467   2.780   2.024
 4096W        W 7615   6.370   2.557   1.398
 4097W        W 7616   3.298   1.268   2.617
 4098W        W 7617   6.307   2.487  11.367
 4099W        W 7618   7.101   0.568   2.693
 4100W        W 7619   4.257   4.494   9.045
 4101W        W 7620   8.801   0.016  11.909
 4102W        W 7621   3.227   1.752  10.410
 4103W        W 7622   3.707   8.473  10.993
 4104W        W 7623   3.003   5.988   1.808
 4105W        W 7624   3.287   4.965   1.618
 4106W        W 7625   7.504   0.327   3.822
 4107W        W 7626   2.552   4.002  10.217
 4108W        W 7627   6.134   9.698   0.868
 4109W        W 7628   4.086   1.283   2.984
 4110W        W 7629   3.638   3.825   2.972
 4111W        W 7630   9.860   2.895   3.399
 4112W        W 7631   5.382   0.414   9.667
 4113W        W 7632   9.574   5.776   1.607
 4114W        W 7633   7.624   7.515   0.747
 4115W        W 7634   6.837   7.599   2.665
 4116W        W 7635   9.298   6.702   1.617
 4117W        W 7636   1.321   1.189   1.447
 4118W        W 7637   2.329   4.089   8.598
 4119W        W 7638   4.177   0.817   9.506
 4120W        W 7639   3.052   0.263   0.473
 4121W        W 7640   4.443   1.303   9.009
 4122W        W 7641   9.431   6.164   9.672
 4123W        W 7642   8.955   2.323   1.054
 4124W        W 7643   1.289   3.433   0.057
 4125W        W 7644   0.731   3.733   0.275
 4126W        W 7645   4.550   3.377  10.775
 4127W        W 7646   7.230   8.473  11.395
 4128W        W 7647   3.505   3.820   3.892
 4129W        W 7648   6.164   5.763  11.741
 4130W        W 7649   5.402   1.204   0.048
 4131W        W 7650   6.700   4.394   9.613
 4132W        W 7651   0.943   6.951   0.859
 4133W        W 7652   3.674   8.406   3.402
 4134W        W 7653   7.147   3.451   1.717
 4135W        W 7654   6.123   6.719  11.445
 4136W        W 7655   5.200   2.771   3.370
 4137W        W 7656   6.240   7.021  10.582
 4138W        W 7657   8.744   3.926   8.969
 4139W        W 7658   0.665   8.968   2.740
 4140W        W 7659   6.202   4.043   3.266
 4141W        W 7660   5.186   3.634   9.202
 4142W        W 7661   1.175   1.472   0.634
 4143W        W 7662   6.269   2.007   2.620
 4144W        W 7663   8.890   2.863   9.119
 4145W        W 7664   2.843   4.753   0.043
 4146W        W 7665   6.007   4.804   9.905
 4147W        W 7666   1.447   0.314   3.132
 4148W        W 7667   6.046   6.674   1.791
 4149W        W 7668   5.385   6.562  10.262
 4150W        W 7669   8.299   1.261   9.594
 4151W        W 7670   5.635   5.423   1.036
 4152W        W 7671   5.192   6.471   8.285
 4153W        W 7672   7.680   7.357   9.518
 4154W        W 7673   1.621   8.878   0.216
 4155W        W 7674   7.368   6.364  10.811
 4156W        W 7675   8.102   8.420  11.887
 4157W        W 7676   0.736   0.797   2.234
 4158W        W 7677   5.936   6.874   2.279
 4159W        W 7678   8.536   8.931   1.648
 4160W        W 7679   2.163   0.333   2.759
 4161W        W 7680   1.231   7.892   3.527
 4162W        W 7681   5.556   6.752   8.582
 4163W        W 7682   9.337   7.424  10.366
 4164W        W 7683   0.113   6.027  10.946
 4165W        W 7684   2.684   1.545   3.243
 4166W        W 7685   2.876   4.809   2.469
 4167W        W 7686   4.769   5.340   3.503
 4168W        W 7687   4.776   5.933   9.830
 4169W        W 7688   3.208   0.821  10.376
 4170W        W 7689   0.390   3.349   0.267
 4171W        W 7690   9.841   7.008  10.883
 4172W        W 7691   5.352   4.865   2.186
 4173W        W 7692   4.679   1.821  11.342
 4174W        W 7693   5.909   1.359   9.454
 4175W        W 7694   6.358   0.271  10.785
 4176W        W 7695   2.824   1.966   2.953
 4177W        W 7696   6.970   1.051   2.635
 4178W        W 7697   3.841   3.711  10.851
 4179W        W 7698   2.141   8.116   8.648
 4180W        W 7699   5.923   8.214   2.180
 4181W        W 7700   6.984   9.269   8.323
 4182W        W 7701   3.306   6.718   2.193
 4183W        W 7702   9.794   5.634  10.828
 4184W        W 7703   2.858   3.812  11.658
 4185W        W 7704   8.825   1.727  10.398
 4186W        W 7705   9.319   2.582  10.008
 4187W        W 7706   3.754   4.513   9.865
 4188W        W 7707   2.631   5.148   0.274
 4189W        W 7708   6.362   9.662   9.516
 4190W        W 7709   4.560   8.715  11.466
 4191W        W 7710   8.563   8.453   0.900
 4192W        W 7711   5.970   0.439  11.649
 4193W        W 7712   9.714   3.662  10.124
 4194W        W 7713   6.144   1.495   0.810
 4195W        W 7714   8.958   7.829   8.697
 4196W        W 7715   2.295   9.464  11.364
 4197W        W 7716   0.392   4.623   2.631
 4198W        W 7717   0.811   1.942   1.579
 4199W        W 7718   5.925   6.913  11.009
 4200W        W 7719   7.003   2.001  10.057
 4201W        W 7720   8.350   1.505   1.516
 4202W        W 7721   2.119   6.785   9.585
 4203W        W 7722   1.202   0.793   9.063
 4204W        W 7723   2.265   1.795   9.222
 4205W        W 7724   2.460   7.435   2.891
 4206W        W 7725   2.270   6.721   0.288
 4207W        W 7726   0.164   0.443   9.593
 4208W        W 7727   3.612   1.483   2.982
 4209W        W 7728   8.858   9.733   1.150
 4210W        W 7729   4.444   5.942  11.845
 4211W        W 7730   8.816   5.448   2.511
 4212W        W 7731   1.507   2.620   9.831
 4213W        W 7732   9.617   0.580   1.598
 4214W        W 7733   8.065   3.470   3.766
 4215W        W 7734   6.665   8.020   1.985
 4216W        W 7735   0.451   0.229   2.923
 4217W        W 7736   5.563   2.176   9.219
 4218W        W 7737   1.572   3.745   2.345
 4219W        W 7738   5.234   2.374   8.848
 4220W        W 7739   6.471   7.897  10.497
 4221W        W 7740   7.427   7.531  11.224
 4222W        W 7741   3.568   7.043   8.622
 4223W        W 7742   6.748   0.794  11.920
 4224W        W 7743   5.283   5.668  11.645
 4225W        W 7744   3.359   4.130   0.770
 4226W        W 7745   4.250   8.522  10.220
 4227W        W 7746   8.935   0.254  10.509
 4228W        W 7747   4.279   5.441   3.798
 4229W        W 7748   5.948   6.221   9.358
 4230W        W 7749   7.644   5.889   9.859
 4231W        W 7750   1.780   4.731   3.685
 4232W        W 7751   8.212   9.868   1.995
 4233W        W 7752   7.157   4.370   1.268
 4234W        W 7753   5.809   3.346   3.899
 4235W        W 7754   9.972   5.735   2.415
 4236W        W 7755   5.553   3.080  10.495
 4237W        W 7756   6.404   7.636  11.427
 4238W        W 7757   1.119   3.708   2.555
 4239W        W 7758   8.237   8.277  10.130
 4240W        W 7759   0.819   3.305   2.440
 4241W        W 7760   3.949   9.101   8.639
 4242W        W 7761   0.270   2.604   1.458
 4243W        W 7762   8.638   9.306   9.392
 4244W        W 7763   3.101   4.076   1.221
 4245W        W 7764   1.154   1.194   2.987
 4246W        W 7765   9.091   0.987  11.888
 4247W        W 7766   3.210   1.731   3.228
 4248W        W 7767   5.681   0.934   0.378
 4249W        W 7768   8.042   3.551  10.951
 4250W        W 7769   0.877   6.130   8.851
 4251W        W 7770   2.789   7.041   1.630
 4252W        W 7771   4.372   4.755   2.268
 4253W        W 7772   5.946   0.328   0.150
 4254W        W 7773   2.670   5.151   9.791
 4255W        W 7774   0.798   2.382   1.977
 4256W        W 7775   6.268   3.171   9.625
 4257W        W 7776   1.252   1.329  10.939
 4258W        W 7777   3.075   9.509   9.492
 4259W        W 7778   8.937   4.394   3.470
 4260W        W 7779   4.682   7.152  11.384
 4261W        W 7780   8.974   7.761   0.918
 4262W        W 7781   1.267   2.233   9.603
 4263W        W 7782   3.115   3.280  10.067
 4264W        W 7783   1.081   5.735  11.941
 4265W        W 7784   4.161   8.456   0.130
 4266W        W 7785   0.023   9.100   9.123
 4267W        W 7786   6.017   1.879   9.243
 4268W        W 7787   4.702   1.736   3.237
 4269W        W 7788   7.611   0.279  11.080
 4270W        W 7789   0.925   4.330  11.227
 4271W        W 7790   5.011   3.785   1.124
 4272W        W 7791   6.719   6.042   8.489
 4273W        W 7792   4.613   3.099   2.833
 4274W        W 7793   7.854   1.504   2.317
 4275W        W 7794   6.508   4.204   1.155
 4276W        W 7795   2.384   6.661  10.479
 4277W        W 7796   2.110   8.297   0.857
 4278W        W 7797   8.138   8.385   2.270
 4279W        W 7798   1.566   3.241   3.176
 4280W        W 7799   0.884   8.382   0.369
 4281W        W 7800   5.383   1.686   1.389
 4282W        W 7801   9.063   6.159  10.047
 4283W        W 7802   2.974   6.242  11.734
 4284W        W 7803   2.864   9.735  11.830
 4285W        W 7804   4.221   6.703   9.159
 4286W        W 7805   0.913   2.058   9.270
 4287W        W 7806   9.326   1.023   2.389
 4288W        W 7807   8.051   0.034   1.480
 4289W        W 7808   8.387   2.747   0.015
 4290W        W 7809   6.115   8.095   2.632
 4291W        W 7810   4.703   6.628   9.046
 4292W        W 7811   5.984   0.821   9.452
 4293W        W 7812   7.356   9.413  10.284
 4294W        W 7813   1.060   4.231   2.152
 4295W        W 7814   7.336   4.401   2.549
 4296W        W 7815   9.210   9.343   3.052
 4297W        W 7816   1.587   5.499   3.080
 4298W        W 7817   6.887   9.980  11.458
 4299W        W 7818   2.760   9.095  10.123
 4300W        W 7819   4.998   5.945   2.908
 4301W        W 7820   3.779   3.757   3.446
 4302W        W 7821   1.853   0.231   2.197
 4303W        W 7822   5.627   3.091   2.059
 4304W        W 7823   7.815   0.261   9.566
 4305W        W 7824   9.238   1.682   8.827
 4306W        W 7825   1.801   5.227  10.316
 4307W        W 7826   5.201   7.477   8.951
 4308W        W 7827   9.794   7.511   1.538
 4309W        W 7828   3.983   7.430   2.862
 4310W        W 7829   5.505   4.754  10.014
 4311W        W 7830   3.953   0.855   2.223
 4312W        W 7831   7.097   4.007   8.470
 4313W        W 7832   9.957   5.954   9.996
 4314W        W 7833   5.061   9.130   8.662
 4315W        W 7834   3.251   1.684   9.542
 4316W        W 7835   6.774   2.360   0.424
 4317W        W 7836   9.629   9.644   3.089
 4318W        W 7837   5.608   0.789   1.233
 4319W        W 7838   3.511   6.594   1.292
 4320W        W 7839   4.671   0.398   0.809
 4321W        W 7840   1.899   0.494   1.748
 4322W        W 7841   0.648   5.543   8.476
 4323W        W 7842   5.940   7.661  11.624
 4324W        W 7843   1.949   6.924   1.782
 4325W        W 7844   3.755   0.073   3.196
 4326W        W 7845   8.582   6.018  10.169
 4327W        W 7846   9.024   0.166  10.005
 4328W        W 7847   1.758   2.809   0.641
 4329W        W 7848   7.033   7.475   0.282
 4330W        W 7849   4.973   3.972   8.240
 4331W        W 7850   1.398   7.973   2.238
 4332W        W 7851   5.190   6.426   1.688
 4333W        W 7852   9.217   1.801   1.527
 4334W        W 7853   8.501   5.746   9.254
 4335W        W 7854   8.521   4.117  11.316
 4336W        W 7855   2.539   5.586  10.038
 4337W        W 7856   6.509   0.802  11.059
 4338W        W 7857   2.199   9.881   9.120
 4339W        W 7858   6.596   4.194  10.607
 4340W        W 7859   4.616   3.902   2.407
 4341W        W 7860   2.527   1.498   0.155
 4342W        W 7861   0.106   9.556   2.229
 4343W        W 7862   0.574   5.446   0.785
 4344W        W 7863   2.871   0.472   3.505
 4345W        W 7864   8.415   1.566   0.064
 4346W        W 7865   0.321   3.258  10.769
 4347W        W 7866   2.166   4.382   3.653
 4348W        W 7867   9.404   8.855  11.627
 4349W        W 7868   5.472   2.535  10.411
 4350W        W 7869   7.943   0.407   0.280
 4351W        W 7870   2.505   9.480   3.214
 4352W        W 7871   3.577   2.969   9.332
 4353W        W 7872   8.115   9.605  10.723
 4354W        W 7873   9.908   5.736  11.313
 4355W        W 7874   6.883   5.739  11.890
 4356W        W 7875   7.770   4.726  10.340
 4357W        W 7876   1.126   0.119   3.549
 4358W        W 7877   6.636   3.520  11.935
 4359W        W 7878   6.963   5.471  10.363
 4360W        W 7879   8.097   4.693   8.707
 4361W        W 7880   9.885   8.929  11.810
 4362W        W 7881   4.348   1.049   1.957
 4363W        W 7882   3.295   9.733   1.747
 4364W        W 7883   3.345   8.814  10.236
 4365W        W 7884   6.085   3.302   1.888
 4366W        W 7885   7.683   7.367   8.973
 4367W        W 7886   4.316   2.587   0.913
 4368W        W 7887   9.488   3.266   3.311
 4369W        W 7888   7.691   9.544   9.105
 4370W        W 7889   2.073   4.098   3.245
 4371W        W 7890   4.104   4.709   1.275
 4372W        W 7891   6.065   5.732   8.574
 4373W        W 7892   0.689   4.916   3.395
 4374W        W 7893   7.039   4.512   8.377
 4375W        W 7894   0.384   1.130   1.511
 4376W        W 7895   9.768   3.773  10.620
 4377W        W 7896   7.434   7.063   1.272
 4378W        W 7897   3.324   4.677  11.132
 4379W        W 7898   5.400   0.312   1.228
 4380W        W 7899   2.431   4.690  10.723
 4381W        W 7900   4.681   6.680   0.235
 4382W        W 7901   9.487   6.350   2.179
 4383W        W 7902   8.057   0.390  11.341
 4384W        W 7903   7.848   7.983  11.912
 4385W        W 7904   6.623   2.482  11.778
 4386W        W 7905   9.237   7.956   3.315
 4387W        W 7906   9.296   4.680   9.428
 4388W        W 7907   4.717   4.828   0.455
 4389W        W 7908   3.057   5.203   4.085
 4390W        W 7909   2.380   3.096   3.232
 4391W        W 7910   4.399   6.542   1.045
 4392W        W 7911   4.319   1.570   3.513
 4393W        W 7912   7.167   3.788   2.274
 4394W        W 7913   0.019   5.069  10.164
 4395W        W 7914   8.583   7.621   9.360
 4396W        W 7915   5.080   0.784   9.497
 4397W        W 7916   3.625   4.210  11.794
 4398W        W 7917   9.528   4.163   3.409
 4399W        W 7918   2.733   7.216  11.769
 4400W        W 7919   3.214   3.727   8.886
 4401W        W 7920   2.914   3.951   2.367
 4402W        W 7921   1.767   1.259  10.938
 4403W        W 7922   3.126   0.551   0.880
 4404W        W 7923   8.483   1.872  10.781
 4405W        W 7924   0.444   4.540  11.977
 4406W        W 7925   3.072   6.338   1.422
 4407W        W 7926   6.690   0.791   9.089
 4408W        W 7927   8.496   6.249   9.709
 4409W        W 7928   6.087   7.150  10.076
 4410W        W 7929   5.687   5.763   2.310
 4411W        W 7930   5.274   3.000   0.930
 4412W        W 7931   7.870   8.972  11.316
 4413W        W 7932   0.355   8.388   2.087
 4414W        W 7933   0.961   5.493   0.411
 4415W        W 7934   7.571   0.707   9.442
 4416W        W 7935   8.173   3.267   3.050
 4417W        W 7936   0.885   7.000   2.215
 4418W        W 7937   0.331   8.166  11.265
 4419W        W 7938   7.514   3.978   3.431
 4420W        W 7939   8.034   6.866  10.468
 4421W        W 7940   9.763   0.733   1.012
 4422W        W 7941   8.569   6.638   1.848
 4423W        W 7942   8.603   9.733  10.625
 4424W        W 7943   0.317   9.220  11.836
 4425W        W 7944   6.599   6.055   2.715
 4426W        W 7945   3.188   3.228   9.062
 4427W        W 7946   9.067   4.555   2.365
 4428W        W 7947   3.946   4.261   1.732
 4429W        W 7948   2.639   7.307   8.452
 4430W        W 7949   6.407   2.493  10.067
 4431W        W 7950   9.350   0.559   2.053
 4432W        W 7951   4.629   0.703  11.719
 4433W        W 7952   0.844   6.139  11.299
 4434W        W 7953   1.355   3.486  10.131
 4435W        W 7954   6.371   1.323   9.733
 4436W        W 7955   6.515   5.269  10.970
 4437W        W 7956   3.026   7.959   8.787
 4438W        W 7957   7.561   9.372  11.266
 4439W        W 7958   9.378   6.543  11.831
 4440W        W 7959   8.228   6.392   2.156
 4441W        W 7960   7.000   8.383   3.150
 4442W        W 7961   8.249   9.518   3.227
 4443W        W 7962   8.024   7.001   9.382
 4444W        W 7963   4.661   9.973   1.601
 4445W        W 7964   9.763   0.374  10.990
 4446W        W 7965   5.695   6.435   3.668
 4447W        W 7966   5.427   0.557   3.534
 4448W        W 7967   4.509   7.151   0.240
 4449W        W 7968   7.786   1.166   9.663
 4450W        W 7969   4.859   1.376   1.897
 4451W        W 7970   5.479   1.429   8.745
 4452W        W 7971   4.023   5.171   1.004
 4453W        W 7972   9.251   8.796   2.823
 4454W        W 7973   8.086   9.707   0.104
 4455W        W 7974   6.770   7.551  10.723
 4456W        W 7975   2.442   9.453   1.198
 4457W        W 7976   7.439   0.368   0.601
 4458W        W 7977   5.965   2.766   3.137
 4459W        W 7978   8.629   6.597   2.362
 4460W        W 7979   3.952   6.786  11.607
 4461W        W 7980   6.589   0.874   0.395
 4462W        W 7981   3.101   5.154  10.390
 4463W        W 7982   7.448   9.193   3.336
 4464W        W 7983   4.521   5.879  10.998
 4465W        W 7984   4.205   8.206   2.382
 4466W        W 7985   3.089   9.722   3.565
 4467W        W 7986   4.065   7.139  11.964
 4468W        W 7987   0.893   0.651   9.502
 4469W        W 7988   2.557   9.080   2.790
 4470W        W 7989   4.487   7.404  11.810
 4471W        W 7990   7.345   2.814  10.082
 4472W        W 7991   5.217   2.813   2.117
 4473W        W 7992   2.781   9.973   9.961
 4474W        W 7993   8.489   9.793   1.554
 4475W        W 7994   0.934   9.791   3.217
 4476W        W 7995   2.367   9.638  11.847
 4477W        W 7996   1.773   9.683   9.719
 4478W        W 7997   4.548   9.320   1.825
 4479W        W 7998   5.694   4.810  10.900
 4480W        W 7999   2.426   1.207  11.745
 4481W        W 8000   4.788   2.877   2.377
 4482W        W 8001   8.678   6.137   1.994
 4483W        W 8002   0.927   5.213  11.984
 4484W        W 8003   9.026   8.609   9.021
 4485W        W 8004   4.505   2.445   2.301
 4486W        W 8005   2.389   6.949   8.758
 4487W        W 8006   3.979   7.109   8.963
 4488W        W 8007   1.763   0.369   0.326
 4489W        W 8008   3.548   9.806   9.351
 4490W        W 8009   5.136   3.655   2.264
 4491W        W 8010   9.394   4.681   1.441
 4492W        W 8011   6.965   7.774   9.796
 4493W        W 8012   3.654   7.069   3.040
 4494W        W 8013   5.769   3.620   0.732
 4495W        W 8014   3.986   6.504   8.298
 4496W        W 8015   6.066   8.647  11.898
 4497W        W 8016   0.192   9.670   1.238
 4498W        W 8017   7.236   7.307   8.706
 4499W        W 8018   0.468   8.403   0.054
 4500W        W 8019   8.956   3.094   2.188
 4501W        W 8020   2.129   7.831   9.681
 4502W        W 8021   9.168   1.798   2.062
 4503W        W 8022   9.347   4.993   2.324
 4504W        W 8023   9.858   5.559  10.332
 4505W        W 8024   2.407   0.706   3.013
 4506W        W 8025   5.528   6.602  10.788
 4507W        W 8026   7.997   7.588   8.646
 4508W        W 8027   1.817   2.680  11.205
 4509W        W 8028   6.263   3.655   2.243
 4510W        W 8029   1.610   7.933   0.605
 4511W        W 8030   6.066   4.758   2.590
 4512W        W 8031   5.886   2.377   1.394
 4513W        W 8032   2.170   1.981   0.853
 4514W        W 8033   6.176   5.296   9.022
 4515W        W 8034   6.689   5.946   9.735
 4516W        W 8035   4.728   2.632  10.960
 4517W        W 8036   8.475   3.050   0.869
 4518W        W 8037   3.055   7.971   9.301
 4519W        W 8038   9.396   7.181   9.708
 4520W        W 8039   8.605   4.567  10.582
 4521W        W 8040   6.092   6.526  10.694
 4522W        W 8041   1.703   7.975   9.971
 4523W        W 8042   4.604   4.060   1.064
 4524W        W 8043   5.912   1.546   9.925
 4525W        W 8044   8.953   2.319   0.031
 4526W        W 8045   9.354   4.869   9.974
 4527W        W 8046   2.521   6.553   0.818
 4528W        W 8047   3.048   0.096   1.462
 4529W        W 8048   4.144   0.589   1.831
 4530W        W 8049   9.148   9.772   0.212
 4531W        W 8050   2.322   4.047   9.568
 4532W        W 8051   6.624   2.185   9.701
 4533W        W 8052   8.442   2.396   0.981
 4534W        W 8053   0.250   2.340  10.993
 4535W        W 8054   0.497   8.862   1.408
 4536W        W 8055   6.705   8.480   2.712
 4537W        W 8056   8.492   3.345   9.552
 4538W        W 8057   6.695   2.842  11.437
 4539W        W 8058   2.878   7.510   9.414
 4540W        W 8059   9.717   9.031   2.488
 4541W        W 8060   4.385   7.167   9.304
 4542W        W 8061   8.043   9.776   9.428
 4543W        W 8062   3.820   7.230   9.430
 4544W        W 8063   6.432   5.423   1.050
 4545W        W 8064   5.909   3.938   0.261
 4546W        W 8065   9.554   0.875   0.123
 4547W        W 8066   8.465   8.850   2.140
 4548W        W 8067   4.161   9.275   1.472
 4549W        W 8068   9.676   8.161   0.344
 4550W        W 8069   2.122   0.839   2.608
 4551W        W 8070   9.993   6.858   1.017
 4552W        W 8071   6.071   0.476   2.029
 4553W        W 8072   6.168   9.474   8.643
 4554W        W 8073   0.014   4.183   9.263
 4555W        W 8074   0.424   6.173   0.185
 4556W        W 8075   6.147   7.518   3.106
 4557W        W 8076   0.516   1.337   8.669
 4558W        W 8077   3.080   5.617  10.164
 4559W        W 8078   5.507   2.084   3.077
 4560W        W 8079   2.057   9.133   1.064
 4561W        W 8080   0.324   8.287  10.762
 4562W        W 8081   3.370   8.068   1.871
 4563W        W 8082   0.791   0.554   2.683
 4564W        W 8083   4.282   6.495   0.546
 4565W        W 8084   0.672   1.315   3.130
 4566W        W 8085   0.550   0.665   1.656
 4567W        W 8086   7.378   2.740   2.991
 4568W        W 8087   3.421   1.532   3.655
 4569W        W 8088   7.960   2.825  11.657
 4570W        W 8089   7.347   4.401  11.420
 4571W        W 8090   4.219   0.412  11.416
 4572W        W 8091   0.085   2.920   2.570
 4573W        W 8092   3.442   9.982   0.665
 4574W        W 8093   0.016   7.598   0.071
 4575W        W 8094   5.418   6.135   2.094
 4576W        W 8095   2.992   7.275   3.568
 4577W        W 8096   7.157   5.764   1.001
 4578W        W 8097   3.325   5.949  11.038
 4579W        W 8098   4.545   0.298   1.982
 4580W        W 8099   7.605   6.634   0.110
 4581W        W 8100   6.789   0.716   1.741
 4582W        W 8101   2.648   4.936   2.019
 4583W        W 8102   8.282   4.088   9.283
 4584W        W 8103   3.826   0.549   9.801
 4585W        W 8104   3.411   5.138   2.853
 4586W        W 8105   7.057   4.326   8.867
 4587W        W 8106   5.802   6.947   9.332
 4588W        W 8107   5.046   0.367   9.191
 4589W        W 8108   9.957   5.451   1.442
 4590W        W 8109   4.678   8.020   2.282
 4591W        W 8110   6.458   8.912   0.701
 4592W        W 8111   1.927   9.493   8.484
 4593W        W 8112   9.678   0.451   8.324
 4594W        W 8113   3.212   2.913  10.689
 4595W        W 8114   4.451   3.058   1.175
 4596W        W 8115   2.740   4.563   8.997
 4597W        W 8116   2.685   4.219  11.403
 4598W        W 8117   8.858   0.532   0.027
 4599W        W 8118   8.118   4.824   1.087
 4600W        W 8119   2.012   8.849  10.219
 4601W        W 8120   9.763   9.836   1.492
 4602W        W 8121   0.362   6.116   2.180
 4603W        W 8122   0.528   2.135  10.588
 4604W        W 8123   4.553   4.361   3.230
 4605W        W 8124   8.382   7.059   1.534
 4606W        W 8125   4.059   2.315   1.307
 4607W        W 8126   7.500   0.168   3.345
 4608W        W 8127   5.961   2.019   0.054
 4609W        W 8128   3.340   8.649   3.051
 4610W        W 8129   3.694   9.894  10.902
 4611W        W 8130   3.658   6.852  10.681
 4612W        W 8131   7.095   6.583  11.431
 4613W        W 8132   9.089   5.168   0.689
 4614W        W 8133   5.241   7.575  11.183
 4615W        W 8134   1.407   4.489  11.282
 4616W        W 8135   3.725   6.371  11.440
 4617W        W 8136   3.824   5.899   3.641
 4618W        W 8137   6.282   0.906   3.585
 4619W        W 8138   5.683   2.710   0.753
 4620W        W 8139   2.018   1.257  11.418
 4621W        W 8140   3.301   8.540   0.000
 4622W        W 8141   9.514   4.225   9.414
 4623W        W 8142   0.054   5.707   1.886
 4624W        W 8143   2.452   3.353  11.110
 4625W        W 8144   6.908   5.086  10.721
 4626W        W 8145   2.316   7.200   1.549
 4627W        W 8146   4.695   9.032   9.013
 4628W        W 8147   0.400   7.593   9.687
 4629W        W 8148   9.557   6.344  10.139
 4630W        W 8149   6.719   0.272   8.995
 4631W        W 8150   1.716   4.515   3.204
 4632W        W 8151   0.161   6.594   3.556
 4633W        W 8152   5.917   2.461   0.290
 4634W        W 8153   9.552   8.029   1.482
 4635W        W 8154   3.722   2.859  10.807
 4636W        W 8155   4.235   6.146  10.661
 4637W        W 8156   6.860   3.856   8.922
 4638W        W 8157   0.953   7.974   2.565
 4639W        W 8158   1.875   4.151   2.428
 4640W        W 8159   5.980   1.166  11.778
 4641W        W 8160   6.463   3.502  10.010
 4642W        W 8161   3.325   6.434   3.595
 4643W        W 8162   7.577   4.143   1.095
 4644W        W 8163   0.730   6.612   2.597
 4645W        W 8164   8.616   8.442   2.424
 4646W        W 8165   5.761   7.452  11.179
 4647W        W 8166   5.667   9.534   0.638
 4648W        W 8167   0.021   4.889   0.161
 4649W        W 8168   7.953   6.892   0.361
 4650W        W 8169   1.052   1.311   8.682
 4651W        W 8170   3.281   1.701  11.600
 4652W        W 8171   6.528   8.826  10.968
 4653W        W 8172   8.545   4.492   0.901
 4654W        W 8173   3.247   3.319   8.545
 4655W        W 8174   2.065   6.624   2.196
 4656W        W 8175   8.113   2.364  11.431
 4657W        W 8176   5.531   6.756   1.543
 4658W        W 8177   3.214   2.293  10.102
 4659W        W 8178   0.173   0.649   1.992
 4660W        W 8179   5.202   8.079  11.067
 4661W        W 8180   1.821   6.078   9.930
 4662W        W 8181   7.812   9.874  10.366
 4663W        W 8182   6.517   4.862   9.842
 4664W        W 8183   0.865   6.477   0.485
 4665W        W 8184   2.041   7.636   1.486
 4666W        W 8185   4.184   6.302   3.419
 4667W        W 8186   5.870   6.911   3.572
 4668W        W 8187   9.644   6.677  11.339
 4669W        W 8188   6.539   3.064   9.212
 4670W        W 8189   2.066   3.681   2.263
 4671W        W 8190   7.042   0.352   2.256
 4672W        W 8191   4.768   9.885  11.599
 4673W        W 8192   4.482   6.874  11.792
 4674W        W 8193   4.818   7.400  10.923
 4675W        W 8194   0.384   1.957   2.367
 4676W        W 8195   7.439   4.235   2.090
 4677W        W 8196   0.355   6.414  10.648
 4678W        W 8197   9.023   8.156  11.263
 4679W        W 8198   3.928   9.122  10.980
 4680W        W 8199   1.809   4.015   9.329
 4681W        W 8200   0.874   4.041   0.706
 4682W        W 8201   9.239   8.911  10.624
 4683W        W 8202   0.190   7.603   2.360
 4684W        W 8203   0.665   2.960   2.761
 4685W        W 8204   7.579   9.584   3.693
 4686W        W 8205   4.772   2.783   1.831
 4687W        W 8206   8.209   4.890  10.538
 4688W        W 8207   0.403   2.072   1.857
 4689W        W 8208   3.051   6.011   9.014
 4690W        W 8209   4.013   3.737   0.350
 4691W        W 8210   4.103   7.016   8.466
 4692W        W 8211   5.121   9.453   9.625
 4693W        W 8212   0.652   2.570  11.892
 4694W        W 8213   6.066   7.817   0.108
 4695W        W 8214   4.210   3.981   8.868
 4696W        W 8215   0.444   1.956   3.451
 4697W        W 8216   3.350   9.803  11.792
 4698W        W 8217   2.891   5.194   2.803
 4699W        W 8218   3.088   1.252   9.329
 4700W        W 8219   8.903   7.167  10.964
 4701W        W 8220   8.413   0.285   1.774
 4702W        W 8221   4.611   2.460   9.587
 4703W        W 8222   9.347   9.055   2.094
 4704W        W 8223   5.545   2.833   9.996
 4705W        W 8224   9.596   8.186   2.559
 4706W        W 8225   8.973   9.277   1.856
 4707W        W 8226   8.778   1.168   1.396
 4708W        W 8227   9.015   3.068   3.257
 4709W        W 8228   7.459   6.634   2.954
 4710W        W 8229   4.567   9.588  11.244
 4711W        W 8230   9.761   0.414   0.011
 4712W        W 8231   4.727   4.400   2.263
 4713W        W 8232   6.868   3.623   0.394
 4714W        W 8233   4.128   4.671   3.166
 4715W        W 8234   4.702   5.720   1.092
 4716W        W 8235   7.623   7.995   0.932
 4717W        W 8236   6.926   9.019   2.718
 4718W        W 8237   5.829   0.288  10.822
 4719W        W 8238   1.749   0.110   0.786
 4720W        W 8239   3.385   1.458   0.697
 4721W        W 8240   4.012   7.617  11.816
 4722W        W 8241   3.944   8.972   9.321
 4723W        W 8242   2.646   1.616  10.176
 4724W        W 8243   6.221   8.627   9.554
 4725W        W 8244   0.979   3.651  11.029
 4726W        W 8245   1.892   7.454  10.788
 4727W        W 8246   7.938   8.215   3.150
 4728W        W 8247   7.968   1.009   8.872
 4729W        W 8248   8.464   5.943   8.761
 4730W        W 8249   3.338   1.174  11.775
 4731W        W 8250   6.950   1.133   3.542
 4732W        W 8251   6.691   0.756   2.296
 4733W        W 8252   0.880   2.060   3.161
 4734W        W 8253   4.105   4.820  10.556
 4735W        W 8254   8.037   4.934   1.611
 4736W        W 8255   5.485   0.656   9.223
 4737W        W 8256   7.916   0.278   2.007
 4738W        W 8257   2.126   5.133   8.605
 4739W        W 8258   0.711   8.891  11.960
 4740W        W 8259   0.994   4.979  11.088
 4741W        W 8260   3.943   9.352   0.593
 4742W        W 8261   7.124   6.052   0.202
 4743W        W 8262   4.747   9.852   0.112
 4744W        W 8263   3.218   9.941  11.322
 4745W        W 8264   3.320   4.579  11.990
 4746W        W 8265   5.064   2.366   3.049
 4747W        W 8266   6.241   1.942   2.096
 4748W        W 8267   0.026   4.110   3.117
 4749W        W 8268   1.367   7.397   3.378
 4750W        W 8269   9.894   2.038   0.494
 4751W        W 8270   8.101   8.208   0.878
 4752W        W 8271   9.980   3.141  11.439
 4753W        W 8272   4.970   3.199   8.623
 4754W        W 8273   8.269   0.033   3.412
 4755W        W 8274   5.522   3.829   8.899
 4756W        W 8275   0.846   1.692   0.280
 4757W        W 8276   9.443   0.874   0.612
 4758W        W 8277   3.745   6.533   0.441
 4759W        W 8278   4.947   5.709  10.259
 4760W        W 8279   8.418   5.967  11.232
 4761W        W 8280   4.994   4.837  10.194
 4762W        W 8281   9.886   0.271   9.979
 4763W        W 8282   1.305   5.497   1.320
 4764W        W 8283   8.827   7.346   1.247
 4765W        W 8284   1.868   9.346   0.090
 4766W        W 8285   4.864   9.994   2.744
 4767W        W 8286   6.403   2.635   0.209
 4768W        W 8287   0.844   9.066   1.702
 4769W        W 8288   6.291   2.212   0.525
 4770W        W 8289   2.017   9.901   1.203
 4771W        W 8290   9.928   2.162  11.986
 4772W        W 8291   6.673   0.190   2.616
 4773W        W 8292   7.593   5.160   1.522
 4774W        W 8293   1.661   1.156   0.739
 4775W        W 8294   0.973   9.260  11.585
 4776W        W 8295   9.464   5.830  10.086
 4777W        W 8296   1.732   0.645   0.843
 4778W        W 8297   7.062   8.188   3.646
 4779W        W 8298   0.792   3.693   9.334
 4780W        W 8299   5.002   3.452  10.061
 4781W        W 8300   8.364   7.650   3.438
 4782W        W 8301   8.713   0.206   1.367
 4783W        W 8302   5.955   2.346   1.889
 4784W        W 8303   7.274   9.467   2.328
 4785W        W 8304   4.054   6.752   2.307
 4786W        W 8305   0.233   0.933   2.458
 4787W        W 8306   3.137   2.310   0.307
 4788W        W 8307   0.640   3.811   9.809
 4789W        W 8308   6.025   4.608   0.815
 4790W        W 8309   6.805   9.430   1.360
 4791W        W 8310   3.361   7.463   3.188
 4792W        W 8311   8.520   4.835  11.869
 4793W        W 8312   4.132   6.434  10.084
 4794W        W 8313   1.916   2.895   3.422
 4795W        W 8314   0.856   0.486  10.317
 4796W        W 8315   2.304   1.903   2.066
 4797W        W 8316   7.564   3.404  10.052
 4798W        W 8317   8.493   4.131  10.803
 4799W        W 8318   9.891   7.212   2.453
 4800W        W 8319   8.518   8.971   0.650
 4801W        W 8320   7.638   9.009  10.001
 4802W        W 8321   8.502   0.777   2.160
 4803W        W 8322   1.257   1.933   2.531
 4804W        W 8323   8.995   3.597  11.455
 4805W        W 8324   9.861   4.581   1.726
 4806W        W 8325   2.063   4.605   4.103
 4807W        W 8326   0.537   1.569   1.814
 4808W        W 8327   9.084   2.630   1.538
 4809W        W 8328   8.723   1.961   0.807
 4810W        W 8329   6.639   6.315   8.058
 4811W        W 8330   4.698   0.824   0.210
 4812W        W 8331   5.893   0.906  10.899
 4813W        W 8332   3.911   7.959   1.094
 4814W        W 8333   1.669   1.676   0.622
 4815W        W 8334   5.850   7.994   8.946
 4816W        W 8335   0.663   1.060   2.692
 4817W        W 8336   8.981   0.626   0.690
 4818W        W 8337   0.346   9.544   3.579
 4819W        W 8338   6.312   1.130   9.223
 4820W        W 8339   2.511   6.411   2.129
 4821W        W 8340   8.515   4.242   9.757
 4822W        W 8341   2.749   2.467   2.752
 4823W        W 8342   5.263   9.158   3.518
 4824W        W 8343   1.607   6.606   9.243
 4825W        W 8344   5.155   1.561   0.950
 4826W        W 8345   8.330   6.224   9.210
 4827W        W 8346   0.307   3.045   9.148
 4828W        W 8347   7.450   0.001   2.347
 4829W        W 8348   4.855   0.135  10.959
 4830W        W 8349   3.973   7.547   0.776
 4831W        W 8350   5.727   1.950   8.799
 4832W        W 8351   3.550   2.161   1.330
 4833W        W 8352   8.103   6.721   0.816
 4834W        W 8353   5.751   1.975   9.666
 4835W        W 8354   3.704   1.003   9.597
 4836W        W 8355   4.765   8.903  11.939
 4837W        W 8356   3.186   3.363   0.462
 4838W        W 8357   4.735   4.421   1.712
 4839W        W 8358   2.938   4.793   9.998
 4840W        W 8359   5.702   8.829  10.579
 4841W        W 8360   4.908   4.862   1.524
 4842W        W 8361   9.516   1.362   9.103
 4843W        W 8362   2.296   9.449   2.516
 4844W        W 8363   9.384   2.781   8.980
 4845W        W 8364   6.468   3.831  11.509
 4846W        W 8365   9.300   7.722   1.792
 4847W        W 8366   7.488   8.626   3.305
 4848W        W 8367   8.991   2.307   0.531
 4849W        W 8368   6.154   6.241  11.588
 4850W        W 8369   0.682   7.783   1.011
 4851W        W 8370   0.392   7.122   0.242
 4852W        W 8371   6.435   2.024  11.547
 4853W        W 8372   1.263   0.947   0.987
 4854W        W 8373   8.950   0.368   1.793
 4855W        W 8374   5.275   2.979   8.259
 4856W        W 8375   9.365   5.953   8.707
 4857W        W 8376   9.494   9.064   1.604
 4858W        W 8377   1.345   8.724   9.002
 4859W        W 8378   8.009   3.662  11.444
 4860W        W 8379   3.401   6.002  11.575
 4861W        W 8380   3.574   5.548   2.279
 4862W        W 8381   1.032   7.427  11.188
 4863W        W 8382   4.421   9.145   0.663
 4864W        W 8383   0.655   9.994  11.208
 4865W        W 8384   1.614   6.777  11.498
 4866W        W 8385   1.779   0.326   1.263
 4867W        W 8386   3.983   6.768  11.079
 4868W        W 8387   2.282   9.155   9.881
 4869W        W 8388   7.112   7.189  10.969
 4870W        W 8389   1.360   5.823   0.352
 4871W        W 8390   8.236   6.461   2.713
 4872W        W 8391   7.115   2.390  10.355
 4873W        W 8392   1.222   1.696   3.000
 4874W        W 8393   4.011   2.855   1.434
 4875W        W 8394   2.811   2.054  10.402
 4876W        W 8395   2.699   7.279   2.420
 4877W        W 8396   2.862   9.905   3.130
 4878W        W 8397   3.480   1.167   2.157
 4879W        W 8398   5.043   5.302  11.366
 4880W        W 8399   4.957   6.534   1.177
 4881W        W 8400   8.637   9.717   3.562
 4882W        W 8401   0.478   8.918   3.423
 4883W        W 8402   1.691   8.440  10.188
 4884W        W 8403   8.098   1.160  11.922
 4885W        W 8404   0.172   5.312   2.172
 4886W        W 8405   3.707   2.305   9.954
 4887W        W 8406   7.587   4.361  10.982
 4888W        W 8407   6.555   0.508   0.773
 4889W        W 8408   4.109   9.597  11.003
 4890W        W 8409   8.439   2.238   0.227
 4891W        W 8410   4.580   0.925  11.261
 4892W        W 8411   7.693   1.812   9.060
 4893W        W 8412   5.468   6.011   2.710
 4894W        W 8413   5.812   4.344  10.029
 4895W        W 8414   4.395   6.674  11.348
 4896W        W 8415   9.986   7.328   0.538
 4897W        W 8416   6.453   0.375   0.278
 4898W        W 8417   9.073   9.209   9.784
 4899W        W 8418   5.591   1.477  11.638
 4900W        W 8419   9.972   4.389   3.534
 4901W        W 8420   7.018   5.648   3.515
 4902W        W 8421   5.121   2.543  11.751
 4903W        W 8422   1.419   5.527   1.828
 4904W        W 8423   6.904   6.179  11.146
 4905W        W 8424   2.232   4.889   0.507
 4906W        W 8425   5.192   3.769   9.698
 4907W        W 8426   9.796   8.973  10.311
 4908W        W 8427   6.593   6.523  11.496
 4909W        W 8428   2.877   0.220   8.844
 4910W        W 8429   1.856   4.247   0.028
 4911W        W 8430   0.977   0.579  11.193
 4912W        W 8431   2.984   2.669   9.427
 4913W        W 8432   6.880   3.364   1.281
 4914W        W 8433   7.260   8.534  10.378
 4915W        W 8434   8.419   1.944   9.765
 4916W        W 8435   7.276   7.639   9.105
 4917W        W 8436   1.269   8.079   9.685
 4918W        W 8437   1.358   5.040  10.001
 4919W        W 8438   2.213   1.280   9.003
 4920W        W 8439   0.194   2.748   0.957
 4921W        W 8440   0.229   8.055   3.270
 4922W        W 8441   1.940   5.536   3.482
 4923W        W 8442   3.445   9.112  11.220
 4924W        W 8443   8.980   5.632   9.965
 4925W        W 8444   0.889   9.438   2.844
 4926W        W 8445   5.174   6.504   9.204
 4927W        W 8446   9.958   8.569   2.364
 4928W        W 8447   4.403   7.287   3.640
 4929W        W 8448   2.818   8.195   0.652
 4930W        W 8449   5.659   7.639   3.262
 4931W        W 8450   0.765   8.535   3.230
 4932W        W 8451   4.788   1.340   2.489
 4933W        W 8452   3.797   5.137   2.481
 4934W        W 8453   8.964   8.758   0.486
 4935W        W 8454   2.894   5.556   0.435
 4936W        W 8455   8.493   9.439   1.907
 4937W        W 8456   3.687   7.159   0.930
 4938W        W 8457   7.669   8.456   0.686
 4939W        W 8458   4.210   8.074  11.762
 4940W        W 8459   0.473   2.145   9.013
 4941W        W 8460   5.163   6.044   9.513
 4942W        W 8461   1.141   7.414   1.999
 4943W        W 8462   4.164   9.841   9.129
 4944W        W 8463   0.408   6.684   3.071
 4945W        W 8464   7.982   6.183  11.336
 4946W        W 8465   3.535   5.113  11.327
 4947W        W 8466   3.817   0.981   1.752
 4948W        W 8467   8.388   2.501   2.881
 4949W        W 8468   6.232   8.497   2.935
 4950W        W 8469   3.892   8.567   2.550
 4951W        W 8470   2.171   8.658   1.257
 4952W        W 8471   5.611   5.136   2.566
 4953W        W 8472   7.070   7.355   2.009
 4954W        W 8473   1.496   3.315   0.544
 4955W        W 8474   8.493   1.123  11.229
 4956W        W 8475   9.029   3.522   2.448
 4957W        W 8476   9.533   9.506   0.420
 4958W        W 8477   6.646   2.688   2.268
 4959W        W 8478   9.901   8.442   1.855
 4960W        W 8479   4.578   9.804   3.562
 4961W        W 8480   4.684   1.955   2.146
 4962W        W 8481   6.193   7.792   2.179
 4963W        W 8482   3.079   4.336  10.130
 4964W        W 8483   4.797   6.343   8.641
 4965W        W 8484   1.382   5.345  10.608
 4966W        W 8485   1.284   9.783   9.015
 4967W        W 8486   7.157   2.018   9.578
 4968W        W 8487   2.010   5.617  10.039
 4969W        W 8488   4.108   5.606  10.904
 4970W        W 8489   5.328   3.408   1.274
 4971W        W 8490   3.693   8.543   0.352
 4972W        W 8491   7.820   2.138   1.748
 4973W        W 8492   2.398   3.296  10.607
 4974W        W 8493   4.134   3.359   3.471
 4975W        W 8494   2.718   3.797   1.435
 4976W        W 8495   5.060   8.255   2.890
 4977W        W 8496   8.943   2.739  11.709
 4978W        W 8497   6.082   9.073   2.262
 4979W        W 8498   3.241   5.132  10.900
 4980W        W 8499   8.839   4.947   2.625
 4981W        W 8500   5.822   5.480  11.453
 4982W        W 8501   0.840   3.767   2.127
 4983W        W 8502   9.730   1.904  10.283
 4984W        W 8503   6.595   6.575   9.582
 4985W        W 8504   6.354   0.256  10.258
 4986W        W 8505   1.668   7.872   9.465
 4987W        W 8506   1.636   0.273  11.847
 4988W        W 8507   8.975   6.881   9.916
 4989W        W 8508   8.955   8.262  11.835
 4990W        W 8509   3.803   1.157   2.583
 4991W        W 8510   7.446   6.178   4.081
 4992W        W 8511   5.231   4.181   0.802
 4993W        W 8512   0.461   9.679   3.055
 4994W        W 8513   8.616   9.966  10.176
 4995W        W 8514   6.426   7.077   1.176
 4996W        W 8515   1.770   7.569   0.277
 4997W        W 8516   6.247   1.849   9.709
 4998W        W 8517   7.133   2.343   0.072
 4999W        W 8518   0.923   3.381  11.471
 5000W        W 8519   1.456   9.804   3.322
 5001W        W 8520   1.760   5.921   1.776
 5002W        W 8521   1.705   1.763   0.082
 5003W        W 8522   7.597   6.785   1.658
 5004W        W 8523   7.094   0.763  10.322
 5005W        W 8524   8.204   5.883   2.020
 5006W        W 8525   9.804   7.180  10.368
 5007W        W 8526   9.718   6.187   1.083
 5008W        W 8527   6.061   5.153   2.899
 5009W        W 8528   3.762   6.696   1.790
 5010W        W 8529   8.304   3.211  10.450
 5011W        W 8530   5.767   4.369  11.168
 5012W        W 8531   8.035   1.857   9.444
 5013W        W 8532   1.338   7.588  10.450
 5014W        W 8533   1.206   8.712   1.563
 5015W        W 8534   1.445   5.436   0.670
 5016W        W 8535   7.439   8.074  10.512
 5017W        W 8536   3.610   9.587  11.318
 5018W        W 8537   8.767   2.145  10.086
 5019W        W 8538   9.470   6.003   2.558
 5020W        W 8539   0.325   8.424   1.583
 5021W        W 8540   0.797   5.365   1.268
 5022W        W 8541   6.742   1.389   0.387
 5023W        W 8542   5.313   0.235   2.676
 5024W        W 8543   4.618   8.796  10.938
 5025W        W 8544   0.254   2.453   2.464
 5026W        W 8545   2.089   3.582   9.473
 5027W        W 8546   9.404   5.003   1.051
 5028W        W 8547   5.925   6.113   0.061
 5029W        W 8548   0.460   3.679   1.797
 5030W        W 8549   1.835   7.188   1.336
 5031W        W 8550   0.192   7.208   1.344
 5032W        W 8551   1.084   0.209  11.959
 5033W        W 8552   4.221   0.810   2.851
 5034W        W 8553   7.912   7.177   1.698
 5035W        W 8554   6.924   6.105   4.089
 5036W        W 8555   2.544   5.136   3.213
 5037W        W 8556   3.093   4.439   8.198
 5038W        W 8557   9.237   2.226   3.179
 5039W        W 8558   5.180   2.541   0.716
 5040W        W 8559   6.835   7.002   3.777
 5041W        W 8560   0.741   5.308  10.732
 5042W        W 8561   5.155   1.064   2.794
 5043W        W 8562   4.616   7.063   4.069
 5044W        W 8563   0.136   3.487   0.727
 5045W        W 8564   8.002   4.268  10.206
 5046W        W 8565   5.270   6.932   9.501
 5047W        W 8566   8.026   3.483   2.250
 5048W        W 8567   6.444   9.714  11.452
 5049W        W 8568   5.865   9.947   8.813
 5050W        W 8569   9.358   6.903   2.103
 5051W        W 8570   9.234   7.869   2.347
 5052W        W 8571   2.117   6.960   3.507
 5053W        W 8572   4.271   6.572   1.890
 5054W        W 8573   5.398   2.126   2.581
 5055W        W 8574   6.053   5.503   1.374
 5056W        W 8575   7.138   7.593  11.638
 5057W        W 8576   0.991   0.006   1.819
 5058W        W 8577   7.315   6.078   9.059
 5059W        W 8578   8.731   9.400   3.163
 5060W        W 8579   3.876   8.970  11.457
 5061W        W 8580   9.562   7.501   0.292
 5062W        W 8581   1.918   6.442  10.860
 5063W        W 8582   1.331   9.851  10.569
 5064W        W 8583   7.864   9.276   9.543
 5065W        W 8584   8.348   6.294   0.895
 5066W        W 8585   3.183   8.043   2.394
 5067W        W 8586   5.893   1.024  10.401
 5068W        W 8587   1.664   2.779   1.180
 5069W        W 8588   2.660   9.310   9.268
 5070W        W 8589   3.300   4.642   9.696
 5071W        W 8590   5.154   7.848   2.577
 5072W        W 8591   2.217   5.979   3.461
 5073W        W 8592   6.582   9.280  10.399
 5074W        W 8593   6.505   2.455   2.748
 5075W        W 8594   1.302   8.455   2.370
 5076W        W 8595   6.492   5.100   2.566
 5077W        W 8596   0.832   4.419   3.245
 5078W        W 8597   5.844   4.924   2.164
 5079W        W 8598   7.854   2.589   9.938
 5080W        W 8599   6.081   9.466  10.348
 5081W        W 8600   7.851   3.474  10.476
 5082W        W 8601   2.485   2.592   3.301
 5083W        W 8602   9.574   6.756   0.242
 5084W        W 8603   7.741   5.597   2.397
 5085W        W 8604   3.475   1.028   3.492
 5086W        W 8605   9.453   4.368   0.061
 5087W        W 8606   5.721   8.633   2.936
 5088W        W 8607   8.318   7.021   2.058
 5089W        W 8608   8.714   9.259   2.327
 5090W        W 8609   3.507   8.262   2.764
 5091W        W 8610   8.736   2.908   9.594
 5092W        W 8611   3.192   2.950   0.866
 5093W        W 8612   4.836   0.379   9.677
 5094W        W 8613   3.764   7.235  11.059
 5095W        W 8614   4.396   5.530  10.049
 5096W        W 8615   3.531   8.240   1.300
 5097W        W 8616   3.677   5.436   9.413
 5098W        W 8617   1.230   1.951   0.843
 5099W        W 8618   4.267   2.256   9.229
 5100W        W 8619   1.977   1.012   3.070
 5101W        W 8620   9.730   3.595  11.460
 5102W        W 8621   4.533   5.583   0.170
 5103W        W 8622   3.838   8.153  11.405
 5104W        W 8623   8.770   7.026   0.278
 5105W        W 8624   1.133   3.352   3.407
 5106W        W 8625   0.773   0.877   8.595
 5107W        W 8626   9.515   9.405   9.621
 5108W        W 8627   4.030   0.920   3.340
 5109W        W 8628   7.950   8.743   3.052
 5110W        W 8629   7.572   4.401   9.977
 5111W        W 8630   0.530   3.018   0.657
 5112W        W 8631   8.203   6.237   3.538
 5113W        W 8632   0.422   3.328   9.568
 5114W        W 8633   0.910   2.237   8.759
 5115W        W 8634   5.523   8.311   8.720
 5116W        W 8635   1.474   7.424   2.832
 5117W        W 8636   5.834   8.924   9.680
 5118W        W 8637   3.186   4.686   9.202
 5119W        W 8638   8.447   5.722   1.575
 5120W        W 8639   3.968   4.695   2.635
 5121W        W 8640   2.194   6.227   0.441
 5122W        W 8641   6.783   0.605  11.449
 5123W        W 8642   2.918   8.963   0.088
 5124W        W 8643   1.361   0.618   0.087
 5125W        W 8644   9.826   4.864   2.178
 5126W        W 8645   6.322   5.595   2.807
 5127W        W 8646   3.453   0.571   0.327
 5128W        W 8647   2.153   9.230   1.562
 5129W        W 8648   8.657   2.225   1.452
 5130W        W 8649   9.500   5.349  11.400
 5131W        W 8650   4.155   0.861   1.399
 5132W        W 8651   8.462   3.530   0.680
 5133W        W 8652   7.273   0.614   1.560
 5134W        W 8653   9.015   5.896   2.301
 5135W        W 8654   8.575   9.668   0.254
 5136W        W 8655   5.875   3.013   8.810
 5137W        W 8656   0.059   5.473   9.875
 5138W        W 8657   1.055   0.339   9.865
 5139W        W 8658   3.170   6.855   8.302
 5140W        W 8659   8.243   0.637   3.164
 5141W        W 8660   4.479   3.233   0.683
 5142W        W 8661   2.731   5.534  10.990
 5143W        W 8662   1.690   3.155  11.340
 5144W        W 8663   2.141   0.394  11.954
 5145W        W 8664   7.901   3.000   2.178
 5146W        W 8665   5.721   9.904   2.309
 5147W        W 8666   3.511   2.664   1.472
 5148W        W 8667   9.634   9.961   0.226
 5149W        W 8668   8.290   5.102   9.978
 5150W        W 8669   6.184   9.022  10.637
 5151W        W 8670   5.876   6.398  11.148
 5152W        W 8671   0.435   1.546   0.031
 5153W        W 8672   6.191   4.688  11.947
 5154W        W 8673   6.277   4.154   0.684
 5155W        W 8674   9.442   9.314   8.673
 5156W        W 8675   9.415   7.090  11.160
 5157W        W 8676   5.671   1.419   0.586
 5158W        W 8677   4.198   5.073   9.819
 5159W        W 8678   7.698   4.798   9.056
 5160W        W 8679   1.342   7.138   0.157
 5161W        W 8680   2.385   5.241   2.750
 5162W        W 8681   5.415   4.906  10.488
 5163W        W 8682   9.471   5.522   0.663
 5164W        W 8683   2.335   7.891   1.813
 5165W        W 8684   6.784   1.465   8.596
 5166W        W 8685   4.241   6.422   2.764
 5167W        W 8686   6.932   8.753  10.054
 5168W        W 8687   4.248   8.902   2.404
 5169W        W 8688   0.749   6.105  11.795
 5170W        W 8689   9.809   4.620  10.013
 5171W        W 8690   7.657   1.024   2.348
 5172W        W 8691   6.055   2.835   2.132
 5173W        W 8692   7.907   9.424  11.672
 5174W        W 8693   3.785   1.927   2.819
 5175W        W 8694   2.834   5.100  11.275
 5176W        W 8695   3.852   4.171   3.765
 5177W        W 8696   8.995   9.854   1.623
 5178W        W 8697   8.964   8.076  10.757
 5179W        W 8698   8.397   5.196   2.224
 5180W        W 8699   4.468   4.266   9.706
 5181W        W 8700   8.793   3.718   2.049
 5182W        W 8701   5.957   6.988  11.874
 5183W        W 8702   1.105   5.013   0.439
 5184W        W 8703   1.877   7.677  11.252
 5185W        W 8704   3.875   3.022   2.330
 5186W        W 8705   2.933   8.896   3.252
 5187W        W 8706   5.637   7.019   4.032
 5188W        W 8707   5.509   2.598   3.008
 5189W        W 8708   1.762   9.980   2.639
 5190W        W 8709   0.522   3.488   8.959
 5191W        W 8710   8.037   1.167   2.655
 5192W        W 8711   7.645   9.762  10.939
 5193W        W 8712   5.022   3.513   4.008
 5194W        W 8713   3.928   9.868   0.519
 5195W        W 8714   6.962   9.027   9.213
 5196W        W 8715   2.145   3.852   2.765
 5197W        W 8716   7.412   3.619   0.470
 5198W        W 8717   0.013   5.994   1.453
 5199W        W 8718   9.601   1.463   1.662
 5200W        W 8719   6.845   9.853   3.173
 5201W        W 8720   7.858   7.679   1.738
 5202W        W 8721   6.441   7.282  11.013
 5203W        W 8722   1.672   5.400   8.714
 5204W        W 8723   1.837   5.493   1.488
 5205W        W 8724   9.741   8.041   9.063
 5206W        W 8725   1.548   0.176   9.765
 5207W        W 8726   0.701   7.293   1.216
 5208W        W 8727   2.326   4.759   9.758
 5209W        W 8728   2.063   4.064   0.488
 5210W        W 8729   7.151   5.546   8.977
 5211W        W 8730   9.751   0.845  10.790
 5212W        W 8731   8.091   6.062  10.063
 5213W        W 8732   2.209   4.233  10.548
 5214W        W 8733   3.928   5.422  11.410
 5215W        W 8734   1.374   8.416   0.621
 5216W        W 8735   5.495   1.790  10.076
 5217W        W 8736   8.317   2.381  10.053
 5218W        W 8737   9.512   1.431   2.160
 5219W        W 8738   3.779   2.211   0.751
 5220W        W 8739   1.787   1.565   9.108
 5221W        W 8740   3.487   6.167   8.804
 5222W        W 8741   3.056   1.867   8.634
 5223W        W 8742   9.282   6.330  11.395
 5224W        W 8743   0.175   0.608   0.225
 5225W        W 8744   4.598   2.155   2.987
 5226W        W 8745   9.832   9.401   1.815
 5227W        W 8746   8.943   5.114  11.724
 5228W        W 8747   2.208   3.727   0.888
 5229W        W 8748   3.507   1.856   9.990
 5230W        W 8749   4.663   9.545   9.346
 5231W        W 8750   6.278   3.765   1.745
 5232W        W 8751   2.302   8.362   3.161
 5233W        W 8752   7.915   2.270   2.705
 5234W        W 8753   5.293   5.082   1.262
 5235W        W 8754   4.177   5.506   9.564
 5236W        W 8755   4.215   4.593  10.091
 5237W        W 8756   9.345   9.927   1.198
 5238W        W 8757   5.475   2.336   1.078
 5239W        W 8758   2.667   0.484  10.267
 5240W        W 8759   8.519   5.476  11.258
 5241W        W 8760   4.929   7.075  11.933
 5242W        W 8761   6.036   1.752   3.202
 5243W        W 8762   3.947   0.347   0.334
 5244W        W 8763   9.038   5.362   1.153
 5245W        W 8764   1.663   6.181  11.223
 5246W        W 8765   0.420   3.024  11.706
 5247W        W 8766   9.108   9.490   9.319
 5248W        W 8767   3.087   0.369   2.481
 5249W        W 8768   4.988   6.393   3.194
 5250W        W 8769   6.465   3.582   9.247
 5251W        W 8770   1.411   2.910   3.549
 5252W        W 8771   1.667   8.077  10.989
 5253W        W 8772   3.198   5.600  10.674
 5254W        W 8773   8.542   3.355   2.331
 5255W        W 8774   1.408   6.976   1.138
 5256W        W 8775   9.171   4.185   2.020
 5257W        W 8776   1.189   3.075   1.721
 5258W        W 8777   4.259   9.319   9.056
 5259W        W 8778   8.304   7.520   1.290
 5260W        W 8779   3.493   8.221   9.255
 5261W        W 8780   3.133   5.901   8.467
 5262W        W 8781   5.429   6.527   4.094
 5263W        W 8782   6.793   4.018  11.854
 5264W        W 8783   0.673   7.051   1.748
 5265W        W 8784   7.721   5.628   0.416
 5266W        W 8785   2.174   0.893   0.044
 5267W        W 8786   0.044   2.836  10.856
 5268W        W 8787   8.625   9.415   8.858
 5269W        W 8788   5.937   4.039   2.128
 5270W        W 8789   7.655   6.526   0.609
 5271W        W 8790   2.733   7.767   2.609
 5272W        W 8791   5.714   9.416   2.116
 5273W        W 8792   1.344   6.165  10.075
 5274W        W 8793   1.195   6.728  11.828
 5275W        W 8794   3.358   6.653   8.938
 5276W        W 8795   2.676   5.662   2.746
 5277W        W 8796   3.484   8.194   8.736
 5278W        W 8797   8.081   5.650  10.945
 5279W        W 8798   9.316   6.152   9.181
 5280W        W 8799   4.963   1.825   0.233
 5281W        W 8800   7.667   7.316   2.795
 5282W        W 8801   2.713   4.269  11.921
 5283W        W 8802   8.781   3.955   2.641
 5284W        W 8803   4.903   9.229  11.019
 5285W        W 8804   0.289   8.564   3.080
 5286W        W 8805   6.459   4.126   2.096
 5287W        W 8806   4.029   4.367  11.542
 5288W        W 8807   1.403   9.713   1.747
 5289W        W 8808   8.312   3.006   2.620
 5290W        W 8809   3.299   1.870   1.704
 5291W        W 8810   8.450   3.028   8.531
 5292W        W 8811   8.428   4.438   1.821
 5293W        W 8812   7.537   6.400   8.704
 5294W        W 8813   0.737   4.509   1.401
 5295W        W 8814   1.129   8.041  10.196
 5296W        W 8815   2.235   2.924  10.939
 5297W        W 8816   4.295   3.702  11.099
 5298W        W 8817   3.534   0.103   0.154
 5299W        W 8818   5.157   4.129  11.095
 5300W        W 8819   4.525   1.358  11.545
 5301W        W 8820   9.146   2.198   9.673
 5302W        W 8821   1.844   6.270   8.918
 5303W        W 8822   5.460   3.322   9.877
 5304W        W 8823   6.657   2.731  10.967
 5305W        W 8824   6.091   4.947   0.400
 5306W        W 8825   3.182   1.227   3.098
 5307W        W 8826   4.977   8.553   9.556
 5308W        W 8827   0.721   1.676  10.363
 5309W        W 8828   8.865   3.252   0.471
 5310W        W 8829   8.104   9.806   2.823
 5311W        W 8830   9.886   3.403  10.990
 5312W        W 8831   9.956   8.838   1.499
 5313W        W 8832   1.148   8.012  10.722
 5314W        W 8833   0.826   8.391  11.088
 5315W        W 8834   3.592   0.102   1.991
 5316W        W 8835   3.229   2.001  10.874
 5317W        W 8836   4.074   0.896   9.007
 5318W        W 8837   0.058   1.002  10.409
 5319W        W 8838   4.052   5.825  10.314
 5320W        W 8839   9.730   6.992   1.450
 5321W        W 8840   4.320   1.150   0.472
 5322W        W 8841   1.617   7.232  11.247
 5323W        W 8842   8.387   0.278   2.292
 5324W        W 8843   6.071   6.433   0.465
 5325W        W 8844   9.042   2.197   1.794
 5326W        W 8845   8.218   1.941  11.760
 5327W        W 8846   4.989   4.367  11.530
 5328W        W 8847   0.271   2.367   0.313
 5329W        W 8848   1.932   2.292   3.922
 5330W        W 8849   4.838   5.574   9.494
 5331W        W 8850   3.697   9.508   1.500
 5332W        W 8851   9.201   1.894  11.907
 5333W        W 8852   3.964   6.283   4.235
 5334W        W 8853   2.670   7.510   0.201
 5335W        W 8854   1.385   0.851  11.386
 5336W        W 8855   2.664   2.910  11.253
 5337W        W 8856   2.530   8.000   9.394
 5338W        W 8857   2.197   3.468  11.904
 5339W        W 8858   9.139   7.438   0.007
 5340W        W 8859   4.596   3.172  11.671
 5341W        W 8860   3.602   7.412   0.055
 5342W        W 8861   8.120   7.575  10.707
 5343W        W 8862   8.703   6.516  10.115
 5344W        W 8863   3.956   5.717   4.092
 5345W        W 8864   0.975   9.339   9.005
 5346W        W 8865   0.870   2.604  11.115
 5347W        W 8866   4.185   6.331  11.673
 5348W        W 8867   5.083   8.797   2.179
 5349W        W 8868   6.225   4.506   8.674
 5350W        W 8869   1.736   6.669  10.403
 5351W        W 8870   6.764   8.480   0.869
 5352W        W 8871   4.612   8.407  11.875
 5353W        W 8872   8.918   4.609   1.829
 5354W        W 8873   2.340   0.780   1.736
 5355W        W 8874   4.402   5.452   9.100
 5356W        W 8875   8.371   5.806   0.706
 5357W        W 8876   2.453   0.376  11.305
 5358W        W 8877   5.769   6.844   8.130
 5359W        W 8878   7.968   9.094   3.446
 5360W        W 8879   8.933   6.678  10.830
 5361W        W 8880   5.653   2.714  10.850
 5362W        W 8881   6.579   6.574  10.554
 5363W        W 8882   3.323   7.568  10.674
 5364W        W 8883   3.212   4.339   2.348
 5365W        W 8884   7.320   9.689   3.244
 5366W        W 8885   8.540   2.336  11.742
 5367W        W 8886   8.937   1.745   9.808
 5368W        W 8887   3.507   5.057   8.627
 5369W        W 8888   2.283   2.620   9.974
 5370W        W 8889   0.874   7.510   3.477
 5371W        W 8890   8.376   0.781   2.666
 5372W        W 8891   3.015   0.027   0.949
 5373W        W 8892   1.923   0.469   9.976
 5374W        W 8893   1.264   4.640   2.392
 5375W        W 8894   5.980   3.195  11.792
 5376W        W 8895   4.897   6.569   4.041
 5377W        W 8896   5.960   2.274   0.902
 5378W        W 8897   7.503   3.559   3.002
 5379W        W 8898   2.687   2.894   1.015
 5380W        W 8899   1.441   0.722   1.826
 5381W        W 8900   2.511   1.031   0.396
 5382W        W 8901   3.255   1.449   8.878
 5383W        W 8902   1.775   4.715   9.943
 5384W        W 8903   0.055   1.712  11.737
 5385W        W 8904   6.159   5.991  10.741
 5386W        W 8905   8.229   8.562  11.391
 5387W        W 8906   1.460   0.862  10.867
 5388W        W 8907   6.880   9.083   0.469
 5389W        W 8908   0.112   4.828  11.426
 5390W        W 8909   0.442   5.840  11.294
 5391W        W 8910   2.572   1.312   1.928
 5392W        W 8911   6.694   6.414  10.053
 5393W        W 8912   6.729   3.883   0.819
 5394W        W 8913   6.734   5.230   3.586
 5395W        W 8914   6.644   9.865  10.994
 5396W        W 8915   4.586   5.833   8.759
 5397W        W 8916   2.240   5.640   2.432
 5398W        W 8917   7.025   0.714   9.484
 5399W        W 8918   0.329   3.338   2.767
 5400W        W 8919   6.543   2.254   8.668
 5401W        W 8920   6.960   6.259   0.925
 5402W        W 8921   6.178   1.887  10.226
 5403W        W 8922   9.345   9.231   0.007
 5404W        W 8923   6.792   5.938  10.230
 5405W        W 8924   2.187   4.326  10.006
 5406W        W 8925   6.658   5.846   0.836
 5407W        W 8926   8.889   5.987  11.458
 5408W        W 8927   6.536   8.073   2.994
 5409W        W 8928   6.468   0.683   1.297
 5410W        W 8929   2.939   3.244  10.987
 5411W        W 8930   2.311   9.247  10.905
 5412W        W 8931   1.273   6.232   0.606
 5413W        W 8932   7.696   2.685   3.391
 5414W        W 8933   1.708   3.223   2.407
 5415W        W 8934   1.720   1.246   2.217
 5416W        W 8935   5.597   4.439   1.084
 5417W        W 8936   2.048   6.422  11.928
 5418W        W 8937   0.878   8.865   9.185
 5419W        W 8938   8.047   5.573   9.908
 5420W        W 8939   6.932   8.249   8.568
 5421W        W 8940   5.339   1.042  11.563
 5422W        W 8941   5.017   1.691   9.961
 5423W        W 8942   9.443   1.440   2.712
 5424W        W 8943   5.950   0.516  10.389
 5425W        W 8944   8.450   9.749   2.431
 5426W        W 8945   1.169   2.499   3.347
 5427W        W 8946   9.430   6.551  10.880
 5428W        W 8947   6.062   7.982  11.219
 5429W        W 8948   2.288   7.940   2.803
 5430W        W 8949   1.305   1.315   9.127
 5431W        W 8950   5.259   1.968   9.586
 5432W        W 8951   5.742   8.152   9.438
 5433W        W 8952   6.457   2.046   3.092
 5434W        W 8953   1.167   8.927   2.546
 5435W        W 8954   3.571   5.086   3.347
 5436W        W 8955   2.625   6.421   2.665
 5437W        W 8956   9.019   4.183   9.592
 5438W        W 8957   3.394   4.739  10.214
 5439W        W 8958   2.689   9.203   2.302
 5440W        W 8959   2.273   2.165   9.590
 5441W        W 8960   2.706   7.412   0.690
 5442W        W 8961   0.208   1.712   8.898
 5443W        W 8962   5.422   1.512   2.769
 5444W        W 8963   9.193   1.825   0.998
 5445W        W 8964   5.463   1.809   0.311
 5446W        W 8965   6.147   2.336  10.517
 5447W        W 8966   1.536   8.274   9.193
 5448W        W 8967   9.173   6.643   0.664
 5449W        W 8968   0.094   4.766   8.748
 5450W        W 8969   1.895   4.730   9.087
 5451W        W 8970   9.460   2.227   0.255
 5452W        W 8971   0.583   4.669  11.402
 5453W        W 8972   7.769   9.223   1.358
 5454W        W 8973   6.538   1.323  10.992
 5455W        W 8974   0.124   2.855   9.618
 5456W        W 8975   4.717   6.396   8.109
 5457W        W 8976   2.845   6.838  10.250
 5458W        W 8977   3.214   8.756   0.464
 5459W        W 8978   3.587   7.123   2.071
 5460W        W 8979   7.971   4.177   9.708
 5461W        W 8980   2.116   8.350   1.687
 5462W        W 8981   9.370   4.681   3.394
 5463W        W 8982   0.009   3.220   9.947
 5464W        W 8983   2.677   7.168   1.137
 5465W        W 8984   0.043   4.270   0.108
 5466W        W 8985   4.344   5.430  11.728
 5467W        W 8986   8.923   4.624  11.543
 5468W        W 8987   9.649   6.580   3.284
 5469W        W 8988   4.721   3.402   2.440
 5470W        W 8989   2.315   2.787   1.819
 5471W        W 8990   1.892   9.166   0.567
 5472W        W 8991   9.097   1.744  11.405
 5473W        W 8992   5.491   5.906   0.852
 5474W        W 8993   9.849   2.518   0.672
 5475W        W 8994   9.768   5.668   8.540
 5476W        W 8995   9.960   1.131   1.806
 5477W        W 8996   0.361   1.362  10.566
 5478W        W 8997   7.662   7.564  11.679
 5479W        W 8998   2.641   8.512   1.471
 5480W        W 8999   3.952   1.361   2.110
 5481W        W 9000   6.070   8.059  10.202
 5482W        W 9001   1.212   5.172   2.191
 5483W        W 9002   7.089   1.527   9.769
 5484W        W 9003   0.001   4.273   0.816
 5485W        W 9004   1.162   4.020  10.045
 5486W        W 9005   9.817   2.258   2.617
 5487W        W 9006   5.148   5.182   9.578
 5488W        W 9007   6.129   7.948   1.419
 5489W        W 9008   8.136   5.918   0.263
 5490W        W 9009   8.973   0.911   2.034
 5491W        W 9010   4.137   8.848   9.806
 5492W        W 9011   9.502   8.356   3.609
 5493W        W 9012   9.837   1.306  11.972
 5494W        W 9013   2.039   6.475   0.886
 5495W        W 9014   5.580   4.342   8.976
 5496W        W 9015   5.109   0.183  10.051
 5497W        W 9016   9.466   3.595   2.158
 5498W        W 9017   0.908   5.632   1.727
 5499W        W 9018   8.849   7.592   3.249
 5500W        W 9019   5.736   1.814  11.266
 5501W        W 9020   0.753   2.418   1.461
 5502W        W 9021   6.171   5.789   9.613
 5503W        W 9022   6.000   1.473   8.950
 5504W        W 9023   9.816   0.892   2.775
 5505W        W 9024   6.348   3.890   8.854
 5506W        W 9025   9.355   4.421   3.843
 5507W        W 9026   8.904   7.985   9.201
 5508W        W 9027   7.090   0.984   0.276
 5509W        W 9028   3.810   9.461   3.126
 5510W        W 9029   9.937   8.158   8.596
 5511W        W 9030   1.067   7.467   2.508
 5512W        W 9031   5.179   1.876   3.385
 5513W        W 9032   8.517   7.178   3.488
 5514W        W 9033   3.137   4.394  11.551
 5515W        W 9034   4.508   3.842   0.186
 5516W        W 9035   7.482   1.364   2.006
 5517W        W 9036   0.362   5.233   8.791
 5518W        W 9037   7.405   5.710  11.954
 5519W        W 9038   9.009   0.443  11.010
 5520W        W 9039   9.010   5.790   1.458
 5521W        W 9040   3.488   1.920   0.398
 5522W        W 9041   8.369   7.106   0.549
 5523W        W 9042   4.137   7.950  10.455
 5524W        W 9043   0.019   2.222  10.009
 5525W        W 9044   8.126   0.558  10.847
 5526W        W 9045   5.224   8.687   0.740
 5527W        W 9046   7.115   1.634   0.701
 5528W        W 9047   7.832   1.127   1.677
 5529W        W 9048   6.382   4.686  10.389
 5530W        W 9049   6.940   6.270   9.392
 5531W        W 9050   0.182   7.330  10.657
 5532W        W 9051   4.145   7.343   1.462
 5533W        W 9052   9.646   2.848  10.554
 5534W        W 9053   9.793   4.888   3.580
 5535W        W 9054   9.491   5.204  10.905
 5536W        W 9055   5.303   4.495  11.928
 5537W        W 9056   8.380   9.808  11.667
 5538W        W 9057   5.240   9.731   0.806
 5539W        W 9058   0.405   9.920   8.982
 5540W        W 9059   3.840   9.745   8.550
 5541W        W 9060   6.644   4.209   8.589
 5542W        W 9061   1.481   9.390   8.755
 5543W        W 9062   6.030   5.177  11.832
 5544W        W 9063   7.735   1.605  11.151
 5545W        W 9064   7.580   5.396   9.719
 5546W        W 9065   3.470   2.526  11.416
 5547W        W 9066   7.806   8.455   1.201
 5548W        W 9067   6.068   4.225   2.596
 5549W        W 9068   4.087   7.062   1.897
 5550W        W 9069   9.345   3.872   9.813
 5551W        W 9070   5.319   0.292  10.878
 5552W        W 9071   6.636   4.651   2.203
 5553W        W 9072   5.967   8.602   2.488
 5554W        W 9073   2.373   5.726   0.468
 5555W        W 9074   5.796   4.325  11.904
 5556W        W 9075   4.192   0.831  10.063
 5557W        W 9076   3.616   4.682   3.023
 5558W        W 9077   7.295   0.817   9.029
 5559W        W 9078   5.316   8.972   9.645
 5560W        W 9079   1.289   9.842   2.859
 5561W        W 9080   0.113   4.534   9.629
 5562W        W 9081   3.498   6.526   8.456
 5563W        W 9082   2.230   5.173  10.040
 5564W        W 9083   4.373   6.062   1.297
 5565W        W 9084   3.222   7.870   1.416
 5566W        W 9085   6.459   6.376   1.810
 5567W        W 9086   2.458   4.828   0.986
 5568W        W 9087   8.815   5.350   1.628
 5569W        W 9088   7.159   9.709   1.139
 5570W        W 9089   2.386   2.290  10.597
 5571W        W 9090   7.494   8.643   9.020
 5572W        W 9091   2.918   3.137  11.965
 5573W        W 9092   4.377   4.833   0.823
 5574W        W 9093   6.454   0.396  11.778
 5575W        W 9094   3.902   8.506   1.084
 5576W        W 9095   2.448   5.520   3.539
 5577W        W 9096   6.465   8.937   1.976
 5578W        W 9097   1.033   1.160   3.499
 5579W        W 9098   8.673   2.840  10.513
 5580W        W 9099   3.623   4.910   1.224
 5581W        W 9100   7.348   5.164  10.927
 5582W        W 9101   7.419   3.501  11.418
 5583W        W 9102   2.154   3.258   1.823
 5584W        W 9103   3.207   3.657   1.565
 5585W        W 9104   4.373   1.110  11.949
 5586W        W 9105   7.146   7.314  10.441
 5587W        W 9106   0.855   3.477  10.143
 5588W        W 9107   8.014   7.225   3.339
 5589W        W 9108   0.784   2.073   2.665
 5590W        W 9109   4.050   9.389   0.082
 5591W        W 9110   7.718   6.405   9.921
 5592W        W 9111   8.206   5.149  11.019
 5593W        W 9112   4.465   5.363   0.821
 5594W        W 9113   7.912   2.071   9.944
 5595W        W 9114   3.263   5.397   1.893
 5596W        W 9115   4.233   0.465   3.240
 5597W        W 9116   7.657   2.174   3.552
 5598W        W 9117   7.944   0.233   3.074
 5599W        W 9118   7.290   0.265   9.705
 5600W        W 9119   8.836   3.509   1.554
 5601W        W 9120   8.430   1.218   9.083
 5602W        W 9121   4.755   5.727   0.594
 5603W        W 9122   5.771   3.729   1.729
 5604W        W 9123   9.405   3.313  10.622
 5605W        W 9124   6.488   2.563   9.079
 5606W        W 9125   1.434   7.633  10.950
 5607W        W 9126   4.803   4.884  11.121
 5608W        W 9127   4.274   9.020  11.797
 5609W        W 9128   9.368   2.815   1.971
 5610W        W 9129   5.529   5.434   1.544
 5611W        W 9130   2.732   5.681   0.912
 5612W        W 9131   1.151   2.780   9.479
 5613W        W 9132   4.620   5.003  11.581
 5614W        W 9133   5.575   9.386   2.611
 5615W        W 9134   9.021   8.660   9.920
 5616W        W 9135   3.725   1.746  11.936
 5617W        W 9136   7.027   3.869   1.261
 5618W        W 9137   4.714   8.578   3.138
 5619W        W 9138   6.565   1.180   1.276
 5620W        W 9139   5.295   8.341   9.187
 5621W        W 9140   6.093   2.806   9.279
 5622W        W 9141   9.298   6.680   9.242
 5623W        W 9142   3.052   8.429   2.088
 5624W        W 9143   7.084   1.830   2.338
 5625W        W 9144   5.680   7.011  11.457
 5626W        W 9145   5.921   8.667   1.966
 5627W        W 9146   7.612   8.887   0.964
 5628W        W 9147   6.025   8.428   3.517
 5629W        W 9148   5.929   8.478   9.934
 5630W        W 9149   1.738   3.546   9.094
 5631W        W 9150   9.117   1.731   3.067
 5632W        W 9151   1.049   2.072   3.685
 5633W        W 9152   9.070   0.846  11.365
 5634W        W 9153   0.969   3.776  11.827
 5635W        W 9154   7.252   0.416  10.681
 5636W        W 9155   2.336   8.805   1.740
 5637W        W 9156   5.843   6.134   8.791
 5638W        W 9157   1.127   9.790   2.307
 5639W        W 9158   7.284   8.165   8.971
 5640W        W 9159   4.236   7.490   8.707
 5641W        W 9160   9.027   8.952   1.429
 5642W        W 9161   0.299   5.174   1.156
 5643W        W 9162   0.526   9.795  10.066
 5644W        W 9163   5.170   3.561  11.062
 5645W        W 9164   0.869   4.396   2.630
 5646W        W 9165   1.912   2.158  10.435
 5647W        W 9166   7.138   5.150   9.885
 5648W        W 9167   1.386   6.939   3.091
 5649W        W 9168   2.977   4.705   3.861
 5650W        W 9169   5.930   3.661  10.409
 5651W        W 9170   7.412   4.724  10.681
 5652W        W 9171   7.921   3.074  10.776
 5653W        W 9172   1.282   0.876   8.562
 5654W        W 9173   6.721   8.787   9.586
 5655W        W 9174   6.696   7.731  11.835
 5656W        W 9175   3.816   2.384   3.313
 5657W        W 9176   4.096   0.305  10.182
 5658W        W 9177   2.115   2.327   1.838
 5659W        W 9178   1.733   2.254   9.415
 5660W        W 9179   4.639   5.651   3.121
 5661W        W 9180   3.038   0.854   2.231
 5662W        W 9181   6.948   9.103  10.982
 5663W        W 9182   4.912   2.889   1.313
 5664W        W 9183   1.896   6.744   3.897
 5665W        W 9184   3.414   2.491   9.184
 5666W        W 9185   4.976   9.514   0.420
 5667W        W 9186   1.356   1.749   9.811
 5668W        W 9187   4.482   4.949   8.985
 5669W        W 9188   1.657   9.973  11.373
 5670W        W 9189   0.546   4.211   0.355
 5671W        W 9190   7.285   9.312   1.432
 5672W        W 9191   9.786   2.651   9.273
 5673W        W 9192   0.850   5.895   1.295
 5674W        W 9193   1.426   9.334   0.373
 5675W        W 9194   0.126   6.395   0.795
 5676W        W 9195   9.398   8.331   3.014
 5677W        W 9196   3.714   2.933   2.824
 5678W        W 9197   1.055   6.477   1.020
 5679W        W 9198   9.314   8.222   8.781
 5680W        W 9199   3.766   2.759   1.902
 5681W        W 9200   5.442   4.145   0.286
 5682W        W 9201   7.908   8.325   8.954
 5683W        W 9202   9.430   6.665   9.746
 5684W        W 9203   1.736   1.705  10.662
 5685W        W 9204   2.934   4.793   1.194
 5686W        W 9205   0.753   7.557   1.693
 5687W        W 9206   9.568   4.415   2.397
 5688W        W 9207   3.763   4.620   3.520
 5689W        W 9208   8.060   3.706   0.431
 5690W        W 9209   5.180   7.710   0.551
 5691W        W 9210   5.077   7.813   4.348
 5692W        W 9211   5.242   3.867  10.666
 5693W        W 9212   6.251   7.258   2.219
 5694W        W 9213   7.752   0.429   1.530
 5695W        W 9214   0.830   6.133   2.427
 5696W        W 9215   6.837   4.435   0.843
 5697W        W 9216   3.313   4.504   1.421
 5698W        W 9217   9.412   0.133   1.743
 5699W        W 9218   2.709   6.027   9.784
 5700W        W 9219   2.738   4.676   3.384
 5701W        W 9220   9.703   8.872  10.805
 5702W        W 9221   0.945   5.860   9.978
 5703W        W 9222   5.204   5.624  10.692
 5704W        W 9223   5.241   5.650   9.823
 5705W        W 9224   6.691   5.735   0.353
 5706W        W 9225   1.544   4.810  10.449
 5707W        W 9226   6.921   2.580   1.822
 5708W        W 9227   1.100   9.564   1.364
 5709W        W 9228   7.534   0.516   2.381
 5710W        W 9229   1.732   8.568  11.269
 5711W        W 9230   1.390   9.533  11.360
 5712W        W 9231   7.813   0.548   9.025
 5713W        W 9232   1.827   9.560   0.888
 5714W        W 9233   6.057   5.320   2.412
 5715W        W 9234   1.962   0.888   8.489
 5716W        W 9235   1.727   1.716  11.576
 5717W        W 9236   4.282   9.475   3.289
 5718W        W 9237   2.474   1.225  10.430
 5719W        W 9238   3.188   5.237   1.208
 5720W        W 9239   5.957   9.042   2.747
 5721W        W 9240   6.650   6.251   1.343
 5722W        W 9241   1.953   3.106  10.449
 5723W        W 9242   2.249   8.982   9.289
 5724W        W 9243   5.088   9.355   9.120
 5725W        W 9244   6.166   9.865   9.987
 5726W        W 9245   7.135   6.054   2.775
 5727W        W 9246   2.877   4.608   1.679
 5728W        W 9247   6.025   5.061  11.197
 5729W        W 9248   3.263   2.795   1.914
 5730W        W 9249   0.443   6.899   8.752
 5731W        W 9250   7.160   3.986   0.205
 5732W        W 9251   5.131   6.163  11.550
 5733W        W 9252   7.130   8.501   9.408
 5734W        W 9253   9.789   9.826   9.751
 5735W        W 9254   7.506   6.320  11.299
 5736W        W 9255   1.937   0.515   3.187
 5737W        W 9256   8.763   7.595  10.719
 5738W        W 9257   3.250   6.323   0.168
 5739W        W 9258   1.270   6.030   9.165
 5740W        W 9259   5.513   9.381  11.190
 5741W        W 9260   1.575   1.379   9.555
 5742W        W 9261   0.487   6.352   8.601
 5743W        W 9262   9.517   4.009   1.055
 5744W        W 9263   3.297   6.891   1.685
 5745W        W 9264   5.090   2.946   2.910
 5746W        W 9265   5.010   0.493  10.489
 5747W        W 9266   8.472   2.512   3.399
 5748W        W 9267   3.222   6.386  11.286
 5749W        W 9268   3.122   6.107   3.212
 5750W        W 9269   4.897   3.247   9.107
 5751W        W 9270   3.653   3.975   9.570
 5752W        W 9271   7.974   1.002  11.089
 5753W        W 9272   6.938   9.498   8.812
 5754W        W 9273   6.495   0.784   9.589
 5755W        W 9274   8.893   0.864   9.951
 5756W        W 9275   6.131   7.257   9.573
 5757W        W 9276   6.198   1.521   1.323
 5758W        W 9277   8.498   3.973   0.180
 5759W        W 9278   3.551   8.031  10.765
 5760W        W 9279   3.119   6.998   3.140
 5761W        W 9280   1.309   4.171   3.244
 5762W        W 9281   1.696   4.067   2.912
 5763W        W 9282   2.718   5.499  10.495
 5764W        W 9283   1.349   7.824   1.746
 5765W        W 9284   4.656   2.241   0.124
 5766W        W 9285   7.512   1.411   0.958
 5767W        W 9286   3.550   8.365   2.246
 5768W        W 9287   5.373   0.255   2.169
 5769W        W 9288   2.704   8.261   2.485
 5770W        W 9289   7.677   7.029   8.573
 5771W        W 9290   6.773   2.195   3.455
 5772W        W 9291   1.262   8.490  11.465
 5773W        W 9292   2.573   7.619   1.410
 5774W        W 9293   2.732   8.826  10.953
 5775W        W 9294   9.587   5.839   2.100
 5776W        W 9295   5.945   1.373   2.818
 5777W        W 9296   5.864   8.378   1.500
 5778W        W 9297   0.459   6.765   1.335
 5779W        W 9298   3.924   0.116   9.511
 5780W        W 9299   4.259   6.229   2.273
 5781W        W 9300   9.958   6.391   0.247
 5782W        W 9301   4.736   8.195   9.922
 5783W        W 9302   9.040   9.455  11.046
 5784W        W 9303   2.324   3.651   9.911
 5785W        W 9304   3.368   5.558   3.181
 5786W        W 9305   4.647   8.149   9.429
 5787W        W 9306   6.799   5.147   1.257
 5788W        W 9307   4.254   5.976   9.862
 5789W        W 9308   8.371   5.316  11.760
 5790W        W 9309   5.647   8.828  11.607
 5791W        W 9310   2.783   0.950  10.102
 5792W        W 9311   9.084   6.446   8.819
 5793W        W 9312   6.720   6.244   0.450
 5794W        W 9313   6.470   1.610   3.420
 5795W        W 9314   4.207   4.778   0.351
 5796W        W 9315   7.057   8.890   3.213
 5797W        W 9316   6.448   6.141   9.331
 5798W        W 9317   4.863   2.655   3.736
 5799W        W 9318   6.636   8.054   1.486
 5800W        W 9319   0.171   4.693  10.944
 5801W        W 9320   0.295   4.176  10.011
 5802W        W 9321   4.578   1.407  11.033
 5803W        W 9322   3.556   8.570  11.502
 5804W        W 9323   5.612   2.451  11.873
 5805W        W 9324   5.664   6.550   9.036
 5806W        W 9325   5.519   3.877   1.113
 5807W        W 9326   4.813   4.243   2.742
 5808W        W 9327   0.933   0.150   0.449
 5809W        W 9328   4.467   5.957   2.675
 5810W        W 9329   4.483   3.577   1.210
 5811W        W 9330   0.925   9.462  10.061
 5812W        W 9331   9.351   9.702   2.665
 5813W        W 9332   1.425   0.670   9.914
 5814W        W 9333   3.202   9.984  10.258
 5815W        W 9334   9.463   8.455  11.268
 5816W        W 9335   7.049   3.302  10.753
 5817W        W 9336   9.843   6.108   3.351
 5818W        W 9337   8.528   1.748   2.196
 5819W        W 9338   4.208   1.528   0.152
 5820W        W 9339   3.701   7.530   8.849
 5821W        W 9340   1.272   1.674  10.325
 5822W        W 9341   9.256   4.003   2.480
 5823W        W 9342   7.265   5.288   1.154
 5824W        W 9343   5.349   2.634   3.904
 5825W        W 9344   7.151   6.762  11.900
 5826W        W 9345   2.608   9.903   9.477
 5827W        W 9346   4.690   2.602   2.781
 5828W        W 9347   6.964   3.148  11.747
 5829W        W 9348   1.794   3.719   1.228
 5830W        W 9349   0.806   6.277   2.994
 5831W        W 9350   4.118   9.077   1.955
 5832W        W 9351   6.246   9.987   9.147
 5833W        W 9352   9.743   3.766   9.447
 5834W        W 9353   2.552   8.375   1.973
 5835W        W 9354   3.920   8.939  10.246
 5836W        W 9355   4.196   6.945   2.750
 5837W        W 9356   3.090   4.164  11.052
 5838W        W 9357   0.309   3.141   1.749
 5839W        W 9358   1.826   8.158   3.950
 5840W        W 9359   1.027   2.947  10.083
 5841W        W 9360   7.036   3.177  11.238
 5842W        W 9361   0.870   5.988   0.339
 5843W        W 9362   3.105   3.858   0.411
 5844W        W 9363   0.933   1.102  11.268
 5845W        W 9364   0.882   7.013  10.841
 5846W        W 9365   6.744   7.007  11.337
 5847W        W 9366   6.540   3.329  11.452
 5848W        W 9367   3.499   2.587   2.333
 5849W        W 9368   9.106   4.289   2.941
 5850W        W 9369   8.434   7.405  11.081
 5851W        W 9370   8.239   8.849  10.946
 5852W        W 9371   0.198   8.941  10.772
 5853W        W 9372   4.706   3.493  11.284
 5854W        W 9373   3.729   7.174   9.906
 5855W        W 9374   3.784   5.901  11.241
 5856W        W 9375   5.689   5.994  11.581
 5857W        W 9376   1.225   8.850  11.834
 5858W        W 9377   1.264   1.913  11.559
 5859W        W 9378   2.856   7.133   9.780
 5860W        W 9379   4.725   4.105   3.650
 5861W        W 9380   6.059   9.536   2.487
 5862W        W 9381   8.972   4.106  11.549
 5863W        W 9382   3.403   2.665   9.728
 5864W        W 9383   7.892   3.596   3.312
 5865W        W 9384   0.891   7.734   9.640
 5866W        W 9385   4.731   1.956  10.351
 5867W        W 9386   8.688   6.701   2.849
 5868W        W 9387   3.113   0.620   1.397
 5869W        W 9388   4.625   2.856   9.977
 5870W        W 9389   5.073   0.695  10.005
 5871W        W 9390   7.429   6.806  11.105
 5872W        W 9391   4.427   8.228   1.869
 5873W        W 9392   9.880   6.663  11.798
 5874W        W 9393   1.383   1.706   8.786
 5875W        W 9394   4.340   6.578   8.664
 5876W        W 9395   9.062   3.922   3.568
 5877W        W 9396   2.787   2.656   1.855
 5878W        W 9397   0.788   2.530   2.988
 5879W        W 9398   5.970   3.225   2.899
 5880W        W 9399   6.966   6.887   8.878
 5881W        W 9400   9.874   5.941   9.462
 5882W        W 9401   7.393   8.024  10.020
 5883W        W 9402   9.924   2.073   3.757
 5884W        W 9403   0.281   7.429  10.157
 5885W        W 9404   4.626   6.202  11.378
 5886W        W 9405   4.102   3.566   0.844
 5887W        W 9406   3.062   0.426  10.644
 5888W        W 9407   6.786   1.196   9.462
 5889W        W 9408   5.349   2.320   3.518
 5890W        W 9409   5.678   4.823   0.110
 5891W        W 9410   1.834   9.987  10.179
 5892W        W 9411   5.155   4.616   2.563
 5893W        W 9412   7.336   2.613   9.096
 5894W        W 9413   2.878   0.418   2.979
 5895W        W 9414   0.216   9.015   2.347
 5896W        W 9415   7.944   6.899   1.270
 5897W        W 9416   0.840   1.372   2.187
 5898W        W 9417   0.918   8.439  11.845
 5899W        W 9418   7.297   1.157  11.514
 5900W        W 9419   9.163   6.571  10.386
 5901W        W 9420   2.655   9.723   2.263
 5902W        W 9421   2.652   3.180   2.046
 5903W        W 9422   7.119   5.666   9.903
 5904W        W 9423   3.863   4.722   0.792
 5905W        W 9424   2.421   0.552   9.766
 5906W        W 9425   0.435   0.824   9.360
 5907W        W 9426   0.837   1.193   1.294
 5908W        W 9427   3.957   9.517   9.485
 5909W        W 9428   7.521   8.183   0.275
 5910W        W 9429   2.348   5.106  11.068
 5911W        W 9430   0.124   0.652   8.144
 5912W        W 9431   9.865   2.719  10.074
 5913W        W 9432   6.549   5.459   1.781
 5914W        W 9433   5.003   1.558   9.444
 5915W        W 9434   1.335   0.452   0.575
 5916W        W 9435   9.966   1.579   9.342
 5917W        W 9436   0.589   6.523   9.066
 5918W        W 9437   5.120   4.862  11.595
 5919W        W 9438   7.185   4.859   1.456
 5920W        W 9439   6.523   8.590   8.617
 5921W        W 9440   8.140   2.358   9.571
 5922W        W 9441   1.624   7.168  10.394
 5923W        W 9442   6.278   9.457   2.000
 5924W        W 9443   3.077   8.968   8.716
 5925W        W 9444   5.611   7.916   1.313
 5926W        W 9445   5.756   4.128   0.709
 5927W        W 9446   2.757   9.553   2.741
 5928W        W 9447   1.280   5.960   1.566
 5929W        W 9448   1.888   3.299   0.893
 5930W        W 9449   8.631   6.219   3.009
 5931W        W 9450   3.403   5.233   9.988
 5932W        W 9451   8.808   6.143   9.104
 5933W        W 9452   8.133   4.571   9.219
 5934W        W 9453   8.855   2.779   0.239
 5935W        W 9454   6.238   2.122   3.557
 5936W        W 9455   0.514   5.199  10.024
 5937W        W 9456   3.464   8.680   8.561
 5938W        W 9457   5.532   5.341   2.084
 5939W        W 9458   1.686   4.214   3.621
 5940W        W 9459   9.561   6.988   0.759
 5941W        W 9460   1.327   9.461   0.906
 5942W        W 9461   7.655   5.590   0.920
 5943W        W 9462   0.788   3.260   1.424
 5944W        W 9463   9.252   9.720   3.438
 5945W        W 9464   1.210   6.978   2.616
 5946W        W 9465   3.032   4.269   3.161
 5947W        W 9466   3.550   2.926   8.793
 5948W        W 9467   5.337   1.191   1.397
 5949W        W 9468   4.459   0.204   0.372
 5950W        W 9469   2.217   5.654   3.036
 5951W        W 9470   9.040   8.446   3.345
 5952W        W 9471   6.234   9.079  11.679
 5953W        W 9472   7.200   8.650   1.897
 5954W        W 9473   1.361   4.762   1.907
 5955W        W 9474   3.229   7.084  11.883
 5956W        W 9475   5.927   2.303  10.018
 5957W        W 9476   3.064   7.394   1.389
 5958W        W 9477   1.795   6.587   0.470
 5959W        W 9478   4.254   2.100   3.371
 5960W        W 9479   1.068   0.747   1.426
 5961W        W 9480   8.306   0.649  11.981
 5962W        W 9481   4.027   5.083  11.935
 5963W        W 9482   2.652   5.739   9.294
 5964W        W 9483   4.732   4.417   0.742
 5965W        W 9484   5.706   6.278   1.624
 5966W        W 9485   7.482   0.987   2.823
 5967W        W 9486   1.653   7.322   8.754
 5968W        W 9487   1.895   9.119  11.253
 5969W        W 9488   8.472   8.026   0.575
 5970W        W 9489   3.676   6.218   3.293
 5971W        W 9490   6.707   2.835   0.592
 5972W        W 9491   5.633   2.558   2.267
 5973W        W 9492   4.400   2.744   9.124
 5974W        W 9493   6.535   8.416   3.400
 5975W        W 9494   4.136   6.646   0.087
 5976W        W 9495   3.374   5.601   8.819
 5977W        W 9496   2.632   1.798   9.621
 5978W        W 9497   0.339   2.260   2.942
 5979W        W 9498   5.098   1.917   9.067
 5980W        W 9499   1.853   7.617  10.306
 5981W        W 9500   0.018   1.636   2.130
 5982W        W 9501   3.400   9.861   8.837
 5983W        W 9502   5.888   4.137   9.584
 5984W        W 9503   1.879   6.366   3.547
 5985W        W 9504   5.336   1.567   1.881
 5986W        W 9505   4.602   1.748  11.874
 5987W        W 9506   8.606   0.860   9.435
 5988W        W 9507   0.633   9.160  10.965
 5989W        W 9508   2.766   2.193  10.949
 5990W        W 9509   9.161   4.837  10.726
 5991W        W 9510   4.987   7.850  10.669
 5992W        W 9511   9.391   5.555  10.517
 5993W        W 9512   0.707   3.101  10.462
 5994W        W 9513   5.541   1.662   9.202
 5995W        W 9514   3.226   8.668  11.117
 5996W        W 9515   1.486   4.948  10.938
 5997W        W 9516   9.712   6.140  11.840
 5998W        W 9517   4.920   7.269   3.649
 5999W        W 9518   7.959   0.441   3.565
 6000W        W 9519   3.357   4.369  10.584
 6001W        W 9520   4.505   2.985   8.673
 6002W        W 9521   6.426   9.502  11.944
 6003W        W 9522   2.741   2.312   9.811
 6004W        W 9523   3.113   7.545   2.378
 6005W        W 9524   5.085   8.573  11.740
 6006W        W 9525   9.839   8.861  11.299
 6007W        W 9526   7.621   3.974  11.322
 6008W        W 9527   4.452   4.151  10.230
 6009W        W 9528   6.988   8.286   9.861
 6010W        W 9529   9.781   3.416   1.125
 6011W        W 9530   3.752   9.799   2.762
 6012W        W 9531   8.869   3.851  10.464
 6013W        W 9532   0.136   5.244   3.527
 6014W        W 9533   4.940   9.096   3.070
 6015W        W 9534   8.979   0.364  11.528
 6016W        W 9535   2.755   2.875   9.875
 6017W        W 9536   9.049   3.022  10.883
 6018W        W 9537   9.294   2.284   2.678
 6019W        W 9538   1.473   1.034   3.739
 6020W        W 9539   0.316   8.846   1.879
 6021W        W 9540   9.391   2.299   2.183
 6022W        W 9541   3.663   0.680   8.731
 6023W        W 9542   0.439   2.658   8.772
 6024W        W 9543   8.771   0.668   1.169
 6025W        W 9544   6.243   7.149   1.712
 6026W        W 9545   6.448   2.855   1.813
 6027W        W 9546   8.291   0.498   9.616
 6028W        W 9547   7.169   9.988   0.395
 6029W        W 9548   4.929   2.283  11.306
 6030W        W 9549   4.084   5.331  10.453
 6031W        W 9550   5.376   8.228   3.606
 6032W        W 9551   8.011   6.038   2.477
 6033W        W 9552   9.744   6.662   1.856
 6034W        W 9553   7.795   8.618  10.800
 6035W        W 9554   5.587   6.251   0.456
 6036W        W 9555   5.005   1.684  10.902
 6037W        W 9556   7.118   2.836   2.398
 6038W        W 9557   9.819   4.401  11.233
 6039W        W 9558   8.020   5.780   3.457
 6040W        W 9559   6.798   6.454   2.198
 6041W        W 9560   2.625   8.178   9.868
 6042W        W 9561   4.377   5.520   1.403
 6043W        W 9562   4.374   6.548   4.000
 6044W        W 9563   3.776   1.606  10.371
 6045W        W 9564   3.052   7.155   2.053
 6046W        W 9565   2.536   7.833   8.906
 6047W        W 9566   4.677   8.475   0.796
 6048W        W 9567   2.956   1.584   0.960
 6049W        W 9568   4.069   3.208   0.390
 6050W        W 9569   3.513   2.307   1.879
 6051W        W 9570   0.273   8.601   1.030
 6052W        W 9571   1.209   7.992   0.293
 6053W        W 9572   4.517   4.520  11.429
 6054W        W 9573   2.149   2.872   0.976
 6055W        W 9574   0.014   5.933   2.893
 6056W        W 9575   0.904   4.467  10.418
 6057W        W 9576   4.949   4.191   9.538
 6058W        W 9577   3.281   8.870   1.775
 6059W        W 9578   0.355   8.129   1.196
 6060W        W 9579   2.201   5.882   1.475
 6061W        W 9580   0.993   1.565   9.450
 6062W        W 9581   1.396   2.192   8.590
 6063W        W 9582   4.446   8.752   9.390
 6064W        W 9583   5.595   2.960   3.615
 6065W        W 9584   0.840   8.722   9.665
 6066W        W 9585   0.803   8.241   9.805
 6067W        W 9586   8.779   9.046  11.680
 6068W        W 9587   0.448   3.712   3.096
 6069W        W 9588   4.518   3.540   3.811
 6070W        W 9589   5.703   2.496   8.635
 6071W        W 9590   0.541   9.816   0.461
 6072W        W 9591   2.431   1.711   1.620
 6073W        W 9592   6.506   5.637   8.797
 6074W        W 9593   0.040   4.381   2.159
 6075W        W 9594   0.324   8.105   9.716
 6076W        W 9595   6.917   3.062   1.967
 6077W        W 9596   3.070   7.888   9.817
 6078W        W 9597   8.043   0.907   0.347
 6079W        W 9598   7.137   0.255  10.195
 6080W        W 9599   5.546   3.478   2.736
 6081W        W 9600   7.902   2.824   0.727
 6082W        W 9601   2.272   6.304   9.643
 6083W        W 9602   6.749   3.101   9.819
 6084W        W 9603   5.709   3.240   1.556
 6085W        W 9604   0.571   4.372   2.212
 6086W        W 9605   6.538   7.350  10.311
 6087W        W 9606   0.210   5.040   9.657
 6088W        W 9607   9.821   2.631   0.184
 6089W        W 9608   3.713   4.976   9.654
 6090W        W 9609   7.720   2.733   1.549
 6091W        W 9610   3.533   7.882   3.467
 6092W        W 9611   9.099   1.350   1.770
 6093W        W 9612   7.980   7.387   2.159
 6094W        W 9613   9.396   1.064   9.886
 6095W        W 9614   7.953   1.829  10.726
 6096W        W 9615   5.253   2.887   9.356
 6097W        W 9616   3.155   0.391   1.896
 6098W        W 9617   1.507   0.874   3.249
 6099W        W 9618   1.286   9.358   3.172
 6100W        W 9619   5.121   3.791   2.754
 6101W        W 9620   5.709   9.878   0.020
 6102W        W 9621   1.343   1.656   2.118
 6103W        W 9622   6.676   5.388   9.843
 6104W        W 9623   3.748   1.864   3.338
 6105W        W 9624   9.817   5.190   8.710
 6106W        W 9625   2.356   2.208   2.973
 6107W        W 9626   6.647   7.557   2.185
 6108W        W 9627   2.130   8.216  11.152
 6109W        W 9628   6.032   5.901  11.229
 6110W        W 9629   8.068   8.923  11.788
 6111W        W 9630   2.722   9.905   1.798
 6112W        W 9631   0.072   7.340   9.372
 6113W        W 9632   1.788   8.502   8.789
 6114W        W 9633   3.593   1.429   1.696
 6115W        W 9634   0.208   3.834   0.329
 6116W        W 9635   2.535   4.260   3.137
 6117W        W 9636   4.851   4.471   8.397
 6118W        W 9637   1.821   6.669   1.341
 6119W        W 9638   1.518   1.335   0.285
 6120W        W 9639   8.125   2.342   1.395
 6121W        W 9640   6.092   9.033   8.952
 6122W        W 9641   6.751   3.700   1.980
 6123W        W 9642   3.799   5.489   0.659
 6124W        W 9643   5.076   9.675  10.102
 6125W        W 9644   1.508   6.229  10.566
 6126W        W 9645   4.459   8.128   3.195
 6127W        W 9646   0.452   5.083  11.102
 6128W        W 9647   7.894   9.978   3.773
 6129W        W 9648   6.939   3.619  11.520
 6130W        W 9649   6.294   4.159  11.988
 6131W        W 9650   8.055   4.315   1.010
 6132W        W 9651   5.947   1.324  11.275
 6133W        W 9652   4.779   6.392   2.738
 6134W        W 9653   5.708   8.853   1.424
 6135W        W 9654   0.410   6.635   0.396
 6136W        W 9655   1.142   6.525   2.293
 6137W        W 9656   9.594   1.868   2.385
 6138W        W 9657   7.376   6.108   0.684
 6139W        W 9658   3.993   1.075  10.562
 6140W        W 9659   0.898   5.624   9.379
 6141W        W 9660   9.988   1.968   3.199
 6142W        W 9661   0.561   5.173   9.296
 6143W        W 9662   1.735   3.280  11.850
 6144W        W 9663   5.331   5.576   9.289
 6145W        W 9664   6.124   3.628   3.609
 6146W        W 9665   8.806   5.277   3.046
 6147W        W 9666   1.873   4.538   0.446
 6148W        W 9667   2.550   8.753  11.811
 6149W        W 9668   6.529   0.248   3.095
 6150W        W 9669   7.355   3.621  10.481
 6151W        W 9670   9.410   2.742   3.175
 6152W        W 9671   8.906   3.501  10.958
 6153W        W 9672   1.694   8.088  11.495
 6154W        W 9673   7.506   0.317   2.850
 6155W        W 9674   6.486   8.719   9.124
 6156W        W 9675   1.060   9.061   1.182
 6157W        W 9676   9.808   4.343   8.785
 6158W        W 9677   8.053   6.708  11.337
 6159W        W 9678   0.413   5.014  11.817
 6160W        W 9679   1.904   4.653   2.239
 6161W        W 9680   9.936   2.829   8.802
 6162W        W 9681   0.561   0.870  10.469
 6163W        W 9682   4.456   9.779   2.019
 6164W        W 9683   6.256   1.363  10.263
 6165W        W 9684   9.320   2.666   0.044
 6166W        W 9685   1.021   9.861  11.540
 6167W        W 9686   6.429   0.286   1.628
 6168W        W 9687   6.349   5.212  10.250
 6169W        W 9688   9.463   3.583   2.700
 6170W        W 9689   6.406   3.005   3.049
 6171W        W 9690   7.006   1.139   0.776
 6172W        W 9691   6.681   6.091  10.699
 6173W        W 9692   3.106   4.711   2.915
 6174W        W 9693   2.629   9.947   0.239
 6175W        W 9694   1.969   7.832   1.013
 6176W        W 9695   1.233   9.987  11.074
 6177W        W 9696   9.353   7.449   0.777
 6178W        W 9697   3.334   0.772   2.655
 6179W        W 9698   1.868   1.007   1.729
 6180W        W 9699   7.083   3.226  10.227
 6181W        W 9700   8.922   2.628  11.210
 6182W        W 9701   4.373   0.343   1.428
 6183W        W 9702   7.069   4.166  10.354
 6184W        W 9703   5.048   8.341   2.400
 6185W        W 9704   3.493   7.415   1.666
 6186W        W 9705   0.386   6.883  10.883
 6187W        W 9706   4.941   7.338   1.858
 6188W        W 9707   1.744   6.159   9.435
 6189W        W 9708   3.088   6.358   8.144
 6190W        W 9709   0.486   0.943  10.966
 6191W        W 9710   1.962   1.675  11.132
 6192W        W 9711   9.594   9.480   2.278
 6193W        W 9712   9.613   9.393   9.141
 6194W        W 9713   9.278   3.114  11.504
 6195W        W 9714   7.263   5.118   1.892
 6196W        W 9715   3.513   3.573  10.272
 6197W        W 9716   0.788   2.107   1.064
 6198W        W 9717   8.891   5.125   2.128
 6199W        W 9718   7.593   7.253  10.803
 6200W        W 9719   3.444   5.592   4.049
 6201W        W 9720   8.649   5.315   9.033
 6202W        W 9721   4.740   6.357  11.853
 6203W        W 9722   2.054   5.032   1.326
 6204W        W 9723   4.640   9.752   8.883
 6205W        W 9724   7.068   3.648   2.767
 6206W        W 9725   4.617   0.637   9.295
 6207W        W 9726   1.347   1.083  11.876
 6208W        W 9727   7.340   0.592   8.574
 6209W        W 9728   1.891   1.314   9.966
 6210W        W 9729   8.507   9.312  10.921
 6211W        W 9730   2.243   1.754  10.467
 6212W        W 9731   8.502   7.125   9.217
 6213W        W 9732   8.482   3.623  10.711
 6214W        W 9733   2.235   9.393   8.969
 6215W        W 9734   2.638   2.495   1.337
 6216W        W 9735   1.703   3.769   3.326
 6217W        W 9736   4.731   7.810   2.886
 6218W        W 9737   5.170   7.980   1.559
 6219W        W 9738   3.378   3.056  11.765
 6220W        W 9739   5.630   1.062   2.549
 6221W        W 9740   3.716   7.845   2.995
 6222W        W 9741   1.794   6.183   2.248
 6223W        W 9742   7.720   2.113  11.125
 6224W        W 9743   4.591   0.091   9.312
 6225W        W 9744   3.635   3.407  11.322
 6226W        W 9745   8.242   8.135   3.585
 6227W        W 9746   1.589   7.815   3.158
 6228W        W 9747   3.455   7.120   9.113
 6229W        W 9748   0.858   0.294   1.409
 6230W        W 9749   5.629   5.115   9.710
 6231W        W 9750   7.996   8.823   9.081
 6232W        W 9751   5.251   4.227   8.602
 6233W        W 9752   6.250   7.369   9.075
 6234W        W 9753   3.095   2.339   1.556
 6235W        W 9754   7.220   1.484   0.207
 6236W        W 9755   2.896   6.590   1.835
 6237W        W 9756   7.882   0.672   2.788
 6238W        W 9757   4.685   5.781   3.773
 6239W        W 9758   2.395   3.039   1.396
 6240W        W 9759   5.444   4.007   2.006
 6241W        W 9760   8.479   7.525  10.321
 6242W        W 9761   7.539   7.593   3.216
 6243W        W 9762   2.619   6.054   3.070
 6244W        W 9763   4.628   0.866   9.766
 6245W        W 9764   5.231   9.819  11.819
 6246W        W 9765   0.436   7.031   9.247
 6247W        W 9766   6.503   3.701   1.294
 6248W        W 9767   6.197   4.993   3.356
 6249W        W 9768   6.615   4.024  10.113
 6250W        W 9769   5.602   8.951   2.333
 6251W        W 9770   0.724   1.687   0.791
 6252W        W 9771   2.521   0.433  10.773
 6253W        W 9772   4.877   3.299   1.019
 6254W        W 9773   0.876   4.844  10.072
 6255W        W 9774   3.145   8.428   1.583
 6256W        W 9775   0.832   3.113   9.174
 6257W        W 9776   6.141   4.512   2.150
 6258W        W 9777   5.692   0.879   8.595
 6259W        W 9778   9.383   4.375   9.894
 6260W        W 9779   1.920   0.828   3.586
 6261W        W 9780   4.622   8.808   3.572
 6262W        W 9781   9.946   8.457   0.032
 6263W        W 9782   7.641   5.841  11.517
 6264W        W 9783   2.544   1.703   0.627
 6265W        W 9784   6.977   2.864   9.409
 6266W        W 9785   9.464   8.762   3.286
 6267W        W 9786   9.993   4.328   2.664
 6268W        W 9787   1.041   8.418   3.629
 6269W        W 9788   0.455   5.735  10.004
 6270W        W 9789   4.766   7.209   9.665
 6271W        W 9790   9.394   1.330   3.307
 6272W        W 9791   2.540   4.199  10.928
 6273W        W 9792   9.446   6.080   3.052
 6274W        W 9793   4.165   2.235   9.736
 6275W        W 9794   3.518   5.055  11.941
 6276W        W 9795   3.146   6.559   2.668
 6277W        W 9796   3.523   6.107   4.036
 6278W        W 9797   0.380   8.598   9.818
 6279W        W 9798   3.145   9.418  11.515
 6280W        W 9799   4.439   3.782   3.367
 6281W        W 9800   9.220   9.441   1.376
 6282W        W 9801   8.284   1.009  10.688
 6283W        W 9802   0.330   8.710  11.662
 6284W        W 9803   3.302   6.133  10.552
 6285W        W 9804   4.090   5.111   2.051
 6286W        W 9805   7.346   5.910  11.051
 6287W        W 9806   7.856   2.802   0.195
 6288W        W 9807   7.242   9.160   1.913
 6289W        W 9808   1.859   6.948  10.836
 6290W        W 9809   4.216   1.914  10.395
 6291W        W 9810   6.460   3.203   0.321
 6292W        W 9811   8.181   9.912   0.585
 6293W        W 9812   1.734   0.875   0.313
 6294W        W 9813   9.470   1.014   1.878
 6295W        W 9814   5.504   9.621   9.250
 6296W        W 9815   4.520   7.593  10.532
 6297W        W 9816   0.416   7.882   1.964
 6298W        W 9817   5.986   6.181   2.046
 6299W        W 9818   6.629   0.699   2.852
 6300W        W 9819   2.259   9.843  10.492
 6301W        W 9820   3.167   5.511  11.285
 6302W        W 9821   7.641   2.196   9.483
 6303W        W 9822   9.654   4.091   1.919
 6304W        W 9823   2.999   8.426   8.570
 6305W        W 9824   7.189   3.514   8.528
 6306W        W 9825   8.385   5.211   1.379
 6307W        W 9826   8.147   9.768   8.911
 6308W        W 9827   1.417   3.212   1.062
 6309W        W 9828   5.557   7.379   9.468
 6310W        W 9829   7.776   3.298   0.304
 6311W        W 9830   3.177   4.074  11.962
 6312W        W 9831   6.349   5.044   2.051
 6313W        W 9832   8.264   9.347   1.264
 6314W        W 9833   8.263   8.937   9.500
 6315W        W 9834   9.885   1.313   2.498
 6316W        W 9835   7.242   3.161   9.736
 6317W        W 9836   7.913   1.075   3.154
 6318W        W 9837   1.847   9.526  11.608
 6319W        W 9838   2.112   8.292   9.897
 6320W        W 9839   5.051   4.090   9.041
 6321W        W 9840   4.249   1.572   0.755
 6322W        W 9841   2.624   5.142  11.764
 6323W        W 9842   1.677   2.174   0.551
 6324W        W 9843   0.852   4.680   1.896
 6325W        W 9844   7.409   9.496   8.545
 6326W        W 9845   9.352   1.613  10.462
 6327W        W 9846   8.281   0.483   1.299
 6328W        W 9847   1.163   2.639  11.898
 6329W        W 9848   9.067   1.839   9.302
 6330W        W 9849   1.673   2.449   3.469
 6331W        W 9850   2.689   3.506  10.222
 6332W        W 9851   3.486   5.874   1.890
 6333W        W 9852   8.938   7.798  10.270
 6334W        W 9853   6.083   2.147   8.473
 6335W        W 9854   7.244   1.848  11.092
 6336W        W 9855   6.852   9.590   2.669
 6337W        W 9856   5.589   8.390  10.877
 6338W        W 9857   2.923   1.330   0.486
 6339W        W 9858   5.135   9.687  10.925
 6340W        W 9859   0.283   8.551   8.563
 6341W        W 9860   4.271   9.671   2.766
 6342W        W 9861   3.539   9.700   2.292
 6343W        W 9862   0.216   3.841  11.437
 6344W        W 9863   8.852   7.016   2.092
 6345W        W 9864   4.168   1.267   9.771
 6346W        W 9865   7.338   6.624   3.464
 6347W        W 9866   1.292   1.915   0.339
 6348W        W 9867   6.556   9.552   9.972
 6349W        W 9868   4.922   2.189   9.905
 6350W        W 9869   4.953   6.047   9.043
 6351W        W 9870   7.473   0.463   1.096
 6352W        W 9871   8.729   0.785   3.050
 6353W        W 9872   8.088   6.659   1.697
 6354W        W 9873   1.411   9.211   9.257
 6355W        W 9874   1.736   5.767  10.431
 6356W        W 9875   6.873   6.013   3.195
 6357W        W 9876   3.047   5.292   8.498
 6358W        W 9877   6.441   3.183  10.955
 6359W        W 9878   5.483   0.215  10.399
 6360W        W 9879   1.304   3.262   2.722
 6361W        W 9880   5.122   2.022   0.676
 6362W        W 9881   3.217   6.800   0.302
 6363W        W 9882   1.834   3.711   1.746
 6364W        W 9883   0.384   5.691   1.201
 6365W        W 9884   4.649   0.999  10.270
 6366W        W 9885   7.346   5.221   0.661
 6367W        W 9886   1.069   3.609   1.096
 6368W        W 9887   3.412   8.491   0.863
 6369W        W 9888   4.373   2.556   3.542
 6370W        W 9889   2.267   0.812  10.202
 6371W        W 9890   3.098   8.014  10.546
 6372W        W 9891   9.830   8.643   0.495
 6373W        W 9892   2.857   6.718  11.889
 6374W        W 9893   6.116   0.556   9.892
 6375W        W 9894   8.760   0.891  10.864
 6376W        W 9895   8.025   2.571   1.912
 6377W        W 9896   2.548   0.143  11.767
 6378W        W 9897   9.778   2.568   1.268
 6379W        W 9898   2.894   6.922   0.732
 6380W        W 9899   2.275   1.688   2.953
 6381W        W 9900   8.996   3.457   9.654
 6382W        W 9901   0.719   6.550   3.462
 6383W        W 9902   6.028   9.196   0.749
 6384W        W 9903   6.443   9.389  10.889
 6385W        W 9904   5.257   3.979   3.736
 6386W        W 9905   9.988   2.304   8.898
 6387W        W 9906   3.978   8.296   2.978
 6388W        W 9907   0.224   6.769   2.613
 6389W        W 9908   2.156   5.349   0.169
 6390W        W 9909   4.886   6.663  11.473
 6391W        W 9910   0.001   1.394   1.292
 6392W        W 9911   7.997   3.325   0.789
 6393W        W 9912   5.520   1.235  10.114
 6394W        W 9913   8.389   5.954  10.665
 6395W        W 9914   8.586   4.998  11.376
 6396W        W 9915   7.038   6.397  10.438
 6397W        W 9916   8.097   7.719   0.844
 6398W        W 9917   4.804   4.639  11.947
 6399W        W 9918   4.023   1.304   9.298
 6400W        W 9919   7.380   2.370   1.753
 6401W        W 9920   2.447   7.868   0.811
 6402W        W 9921   5.101   2.398   9.361
 6403W        W 9922   8.064   0.871   9.359
 6404W        W 9923   7.176   0.790  11.141
 6405W        W 9924   1.686   0.490   2.681
 6406W        W 9925   0.870   1.649   3.450
 6407W        W 9926   6.579   8.584  11.831
 6408W        W 9927   9.328   8.958   9.400
 6409W        W 9928   3.027   0.198  11.978
 6410W        W 9929   1.584   6.554   1.938
 6411W        W 9930   7.564   1.601   9.500
 6412W        W 9931   1.149   5.053   2.705
 6413W        W 9932   8.637   6.675   0.644
 6414W        W 9933   2.325   2.779  10.451
 6415W        W 9934   9.158   2.919  10.381
 6416W        W 9935   0.969   6.858   1.363
 6417W        W 9936   5.792   0.860  11.412
 6418W        W 9937   4.008   0.770   0.919
 6419W        W 9938   7.412   8.894   2.319
 6420W        W 9939   3.193   9.368   0.018
 6421W        W 9940   1.602   6.302  11.723
 6422W        W 9941   3.078   3.705   9.368
 6423W        W 9942   6.925   6.651  10.953
 6424W        W 9943   2.332   2.489   0.038
 6425W        W 9944   9.797   4.641   9.216
 6426W        W 9945   2.458   8.667  10.039
 6427W        W 9946   4.507   4.367   0.287
 6428W        W 9947   1.302   3.684   3.046
 6429W        W 9948   9.349   2.153  11.168
 6430W        W 9949   5.987   2.946   0.257
 6431W        W 9950   5.684   5.829  10.778
 6432W        W 9951   0.765   3.157  10.982
 6433W        W 9952   2.766   9.683   0.664
 6434W        W 9953   8.444   4.330   8.847
 6435W        W 9954   7.654   6.060  10.366
 6436W        W 9955   0.763   8.614  10.180
 6437W        W 9956   3.251   2.673   2.804
 6438W        W 9957   9.427   0.146  11.359
 6439W        W 9958   2.707   9.434   0.210
 6440W        W 9959   8.219   1.732   8.972
 6441W        W 9960   5.915   3.157  11.014
 6442W        W 9961   9.514   5.783   0.220
 6443W        W 9962   0.026   0.458   3.251
 6444W        W 9963   7.607   1.907   2.480
 6445W        W 9964   8.149   3.194  11.937
 6446W        W 9965   1.649   8.412   9.679
 6447W        W 9966   8.024   1.580   9.871
 6448W        W 9967   1.232   5.795  10.422
 6449W        W 9968   8.470   5.525  10.213
 6450W        W 9969   8.347   5.833  11.777
 6451W        W 9970   9.616   2.385  10.366
 6452W        W 9971   4.716   0.173   3.229
 6453W        W 9972   8.657   5.611   2.043
 6454W        W 9973   8.904   0.456   2.293
 6455W        W 9974   2.885   1.879   1.403
 6456W        W 9975   1.961   3.196   0.358
 6457W        W 9976   3.324   7.415   9.672
 6458W        W 9977   2.086   2.923  11.947
 6459W        W 9978   3.967   4.153   8.143
 6460W        W 9979   5.739   1.992   3.532
 6461W        W 9980   9.554   3.137  10.150
 6462W        W 9981   8.796   1.330  11.616
 6463W        W 9982   0.405   6.213   1.206
 6464W        W 9983   1.280   7.536   0.505
 6465W        W 9984   0.974   6.226  10.485
 6466W        W 9985   8.036   4.458   1.489
 6467W        W 9986   2.432   1.199   2.901
 6468W        W 9987   0.919   1.648  11.256
 6469W        W 9988   0.066   8.234   2.762
 6470W        W 9989   1.557   4.941   0.645
 6471W        W 9990   3.434   9.416   2.725
 6472W        W 9991   7.368   2.300   2.720
 6473W        W 9992   1.566   4.295   2.033
 6474W        W 9993   3.555   7.583   1.157
 6475W        W 9994   9.184   5.048   0.208
 6476W        W 9995   6.891   0.950  10.765
 6477W        W 9996   4.340   9.804   9.663
 6478W        W 9997   3.690   1.762  10.862
 6479W        W 9998   0.726   6.692   9.516
 6480W        W 9999   6.492   9.408   9.069
 6481W        W10000   2.618   5.008  10.300
 6482W        W10001   5.772   5.786   1.802
 6483W        W10002   2.753   8.317   9.041
 6484W        W10003   4.190   7.115   1.006
 6485W        W10004   6.473   2.345   1.869
 6486W        W10005   8.272   7.994   9.158
 6487W        W10006   5.940   2.187  11.564
 6488W        W10007   8.287   4.116   2.781
 6489W        W10008   5.171   7.454   1.390
 6490W        W10009   3.057   5.702   2.231
 6491W        W10010   1.811   7.233   3.200
 6492W        W10011   9.376   9.598   1.827
 6493W        W10012   5.273   6.971   1.954
 6494W        W10013   0.153   5.388   0.040
 6495W        W10014   8.549   0.712   0.426
 6496W        W10015   0.129   5.026   1.744
 6497W        W10016   7.836   1.475   8.717
 6498W        W10017   7.160   8.157   0.660
 6499W        W10018   9.200   6.208   1.210
 6500W        W10019   0.369   8.426   3.596
 6501W        W10020   8.102   7.791  10.059
 6502W        W10021   2.354   7.515   9.342
 6503W        W10022   3.136   5.140   8.975
 6504W        W10023   5.993   7.715   9.364
 6505W        W10024   2.901   8.887  11.440
 6506W        W10025   2.946   5.125   0.761
 6507W        W10026   5.110   0.666   0.950
 6508W        W10027   2.294   3.970  11.996
 6509W        W10028   5.605   4.918   0.906
 6510W        W10029   0.939   9.503  10.588
 6511W        W10030   7.452   1.137   3.428
 6512W        W10031   2.303   4.353   9.159
 6513W        W10032   5.018   9.972  10.508
 6514W        W10033   9.840   7.678  10.273
 6515W        W10034   5.842   1.519   0.116
 6516W        W10035   4.947   2.471  10.339
 6517W        W10036   5.955   3.833   9.171
 6518W        W10037   6.817   1.093  11.361
 6519W        W10038   7.622   3.652   0.944
 6520W        W10039   6.068   0.379   2.943
 6521W        W10040   4.239   7.972   0.654
 6522W        W10041   9.998   3.029   1.349
 6523W        W10042   2.644   0.866   9.106
 6524W        W10043   2.642   5.961   2.335
 6525W        W10044   5.686   7.718   0.457
 6526W        W10045   2.580   5.590   0.006
 6527W        W10046   6.141   9.805  10.850
 6528W        W10047   7.522   8.124   3.421
 6529W        W10048   9.392   4.645   8.908
 6530W        W10049   5.469   6.973   2.424
 6531W        W10050   1.562   7.789   8.963
 6532W        W10051   7.611   5.745   8.805
 6533W        W10052   5.470   9.349  11.692
 6534W        W10053   9.397   7.908  10.497
 6535W        W10054   9.014   4.094   0.066
 6536W        W10055   1.631   8.048   8.522
 6537W        W10056   8.091   8.853   1.366
 6538W        W10057   1.424   3.932  11.970
 6539W        W10058   4.802   4.526   8.898
 6540W        W10059   3.019   8.473   9.474
 6541W        W10060   2.767   4.179   9.357
 6542W        W10061   1.443   2.544  10.865
 6543W        W10062   2.283   5.782   9.644
 6544W        W10063   1.811   4.714  11.774
 6545W        W10064   8.090   2.800  11.160
 6546W        W10065   3.869   0.895   0.349
 6547W        W10066   3.684   3.322   3.182
 6548W        W10067   9.632   7.570   9.447
 6549W        W10068   5.890   6.016   3.452
 6550W        W10069   8.518   6.786   9.638
 6551W        W10070   7.702   6.037   8.361
 6552W        W10071   2.185   0.369   0.930
 6553W        W10072   3.163   9.526  11.026
 6554W        W10073   9.781   0.862   2.245
 6555W        W10074   4.469   0.240  11.853
 6556W        W10075   3.642   9.318  11.776
 6557W        W10076   7.398   3.279   1.240
 6558W        W10077   8.541   4.024   3.605
 6559W        W10078   0.077   9.017   9.846
 6560W        W10079   4.386   6.134   8.389
 6561W        W10080   1.789   9.541   9.199
 6562W        W10081   2.651   2.643   9.032
 6563W        W10082   3.601   7.104   0.447
 6564W        W10083   5.295   5.554   2.622
 6565W        W10084   7.753   5.319  11.171
 6566W        W10085   7.520   7.125   2.054
 6567W        W10086   5.016   6.060   2.427
 6568W        W10087   7.175   3.745  11.055
 6569W        W10088   9.956   3.645   1.987
 6570W        W10089   4.602   0.508  10.145
 6571W        W10090   5.639   2.931   2.628
 6572W        W10091   2.729   2.534  10.269
 6573W        W10092   9.662   9.288  11.533
 6574W        W10093   5.280   5.465   3.570
 6575W        W10094   9.649   7.533  11.249
 6576W        W10095   6.780   4.974   1.752
 6577W        W10096   7.620   2.739   2.533
 6578W        W10097   8.896   0.475   9.630
 6579W        W10098   7.469   7.913   1.424
 6580W        W10099   2.452   8.405  10.812
 6581W        W10100   4.766   3.839  10.888
 6582W        W10101   6.443   1.201  11.996
 6583W        W10102   7.167   9.887  11.893
 6584W        W10103   3.516   5.536   8.342
 6585W        W10104   5.174   0.860   0.454
 6586W        W10105   5.063   8.084   8.610
 6587W        W10106   0.741   0.325  11.580
 6588W        W10107   4.816   6.086  10.666
 6589W        W10108   9.712   5.556   3.485
 6590W        W10109   6.056   0.556   1.021
 6591W        W10110   0.349   7.063   2.214
 6592W        W10111   4.627   3.185   0.188
 6593W        W10112   5.054   5.239   2.319
 6594W        W10113   6.324   9.308   3.275
 6595W        W10114   2.608   5.649   1.927
 6596W        W10115   1.221   2.574   1.743
 6597W        W10116   4.212   2.979  11.954
 6598W        W10117   4.743   5.698  11.502
 6599W        W10118   7.546   4.910   3.268
 6600W        W10119   6.776   2.884   1.430
 6601W        W10120   7.509   4.822   2.757
 6602W        W10121   5.493   8.180   0.334
 6603W        W10122   4.037   4.100   9.919
 6604W        W10123   4.462   9.562  10.317
 6605W        W10124   1.832   9.318  10.094
 6606W        W10125   9.565   6.278   1.565
 6607W        W10126   8.923   7.407   9.036
 6608W        W10127   2.556   4.159   1.751
 6609W        W10128   2.804   4.342   2.682
 6610W        W10129   3.330   3.842   2.020
 6611W        W10130   3.973   0.254   3.637
 6612W        W10131   5.434   5.575  11.145
 6613W        W10132   9.162   2.712   2.441
 6614W        W10133   5.607   3.831  11.228
 6615W        W10134   4.858   0.390   2.413
 6616W        W10135   5.760   1.418   1.588
 6617W        W10136   2.756   5.076  10.777
 6618W        W10137   0.296   8.452   0.535
 6619W        W10138   1.805   1.920   1.812
 6620W        W10139   7.294   2.217  11.438
 6621W        W10140   7.036   4.464   0.379
 6622W        W10141   0.746   6.633  11.481
 6623W        W10142   4.450   5.885   9.394
 6624W        W10143   1.440   9.813  11.827
 6625W        W10144   4.916   1.138   1.114
 6626W        W10145   1.642   5.756  11.883
 6627W        W10146   0.535   2.273   9.576
 6628W        W10147   8.548   0.230  10.864
 6629W        W10148   5.541   9.615   3.250
 6630W        W10149   0.832   7.413  10.030
 6631W        W10150   0.767   1.362  10.846
 6632W        W10151   4.185   2.007   0.019
 6633W        W10152   8.318   5.367   3.185
 6634W        W10153   7.355   1.409   2.517
 6635W        W10154   7.188   4.708   2.171
 6636W        W10155   4.596   4.630  10.475
 6637W        W10156   3.954   7.282   2.378
 6638W        W10157   5.355   8.463   1.604
 6639W        W10158   7.970   8.042  10.506
 6640W        W10159   4.227   3.406   8.770
 6641W        W10160   0.850   6.915   9.960
 6642W        W10161   7.909   6.065   0.708
 6643W        W10162   1.430   8.737   3.347
 6644W        W10163   3.844   7.610  10.719
 6645W        W10164   5.086   6.503   9.739
 6646W        W10165   5.016   1.165  10.862
 6647W        W10166   7.078   7.813   2.258
 6648W        W10167   9.975   8.562   9.007
 6649W        W10168   1.582   3.385   3.678
 6650W        W10169   3.838   7.487   3.344
 6651W        W10170   6.983   8.616   8.931
 6652W        W10171   6.004   8.158  11.744
 6653W        W10172   5.773   4.078   3.000
 6654W        W10173   4.870   5.084   0.920
 6655W        W10174   0.269   3.752   9.342
 6656W        W10175   5.052   8.531   0.248
 6657W        W10176   0.536   7.646  11.363
 6658W        W10177   4.552   9.279   0.207
 6659W        W10178   1.367   7.134  10.826
 6660W        W10179   2.399   9.695   8.582
 6661W        W10180   4.705   1.861   0.918
 6662W        W10181   5.951   3.437   0.278
 6663W        W10182   4.464   4.018   8.208
 6664W        W10183   5.536   0.971   9.646
 6665W        W10184   8.320   6.211   1.642
 6666W        W10185   8.390   3.685   1.380
 6667W        W10186   1.613   6.626   2.446
 6668W        W10187   0.359   2.248   0.808
 6669W        W10188   4.801   5.448  10.951
 6670W        W10189   1.242   0.702   2.846
 6671W        W10190   9.225   9.225   2.549
 6672W        W10191   6.718   2.194   1.438
 6673W        W10192   1.675   8.037   0.081
 6674W        W10193   5.950   3.625   1.267
 6675W        W10194   2.080   7.967  10.690
 6676W        W10195   1.820   1.188   1.238
 6677W        W10196   8.120   8.396   0.410
 6678W        W10197   0.597   5.415   3.412
 6679W        W10198   2.189   5.495   1.089
 6680W        W10199   6.304   4.070  11.076
 6681W        W10200   5.937   7.248   2.703
 6682W        W10201   0.370   0.443   2.436
 6683W        W10202   1.112   8.981  10.033
 6684W        W10203   3.331   9.715   1.204
 6685W        W10204   6.684   0.679   3.371
 6686W        W10205   4.072   9.809  10.100
 6687W        W10206   4.527   6.024  10.265
 6688W        W10207   0.727   8.040   3.451
 6689W        W10208   2.586   4.502  10.283
 6690W        W10209   6.177   5.666   2.084
 6691W        W10210   6.207   2.665   8.612
 6692W        W10211   3.603   4.804  10.695
 6693W        W10212   1.023   7.802   3.050
 6694W        W10213   7.998   5.538   2.839
 6695W        W10214   3.661   6.844   0.024
 6696W        W10215   2.888   1.370   9.792
 6697W        W10216   7.229   4.793   0.944
 6698W        W10217   6.698   1.714   9.522
 6699W        W10218   7.077   3.169   0.440
 6700W        W10219   6.474   6.975   9.290
 6701W        W10220   6.969   0.339  11.841
 6702W        W10221   7.661   5.929   2.839
 6703W        W10222   0.230   0.551  10.230
 6704W        W10223   3.518   4.082  10.069
 6705ION    NA+10224   4.458   0.488  10.974
 6706ION    NA+10225   7.951   4.198   8.834
 6707ION    NA+10226   6.268   8.433   0.704
 6708ION    NA+10227   3.390   1.636   1.253
 6709ION    NA+10228   3.887   6.209   1.793
 6710ION    NA+10229   2.262   5.742  10.493
 6711ION    NA+10230   4.544   6.518  10.404
 6712ION    NA+10231   6.662   5.067  11.687
 6713ION    NA+10232   9.531   3.094   8.558
 6714ION    NA+10233   4.631   8.694   9.893
 6715ION    NA+10234   6.097   3.647   9.638
 6716ION    NA+10235   4.719   7.852   0.744
 6717ION    NA+10236   7.915   5.605  11.941
 6718ION    NA+10237   0.856   3.132  11.965
 6719ION    NA+10238   0.028   9.975   3.056
 6720ION    NA+10239   7.561   8.964  11.743
 6721ION    NA+10240   1.682   7.038   9.529
 6722ION    NA+10241   4.041   2.405  10.331
 6723ION    NA+10242   3.806   0.190   8.887
 6724ION    NA+10243   3.887   8.465   9.519
 6725ION    NA+10244   6.970   1.201   8.993
 6726ION    NA+10245   3.604   5.496  10.982
 6727ION    NA+10246   7.446   4.125   9.584
 6728ION    NA+10247   5.333   9.246  10.121
 6729ION    NA+10248   6.914   9.555  10.692
 6730ION    NA+10249   3.130   0.925   8.940
 6731ION    NA+10250   0.254   5.401  11.503
 6732ION    NA+10251   9.324   3.450   1.339
 6733ION    NA+10252   8.138   1.575   3.180
 6734ION    NA+10253   2.641   5.050   8.793
 6735ION    NA+10254   6.298   0.893   1.774
 6736ION    NA+10255   8.645   1.388  10.768
 6737ION    NA+10256   5.302   8.715   2.645
 6738ION    NA+10257   1.833   4.655   1.734
 6739ION    NA+10258   7.296   9.380   2.836
 6740ION    NA+10259   1.745   9.741   0.423
 6741ION    NA+10260   7.919   7.923   2.217
 6742ION    NA+10261   2.802   6.779   2.323
 6743ION    NA+10262   1.542   6.535   0.921
 6744ION    NA+10263   1.329   8.616   1.093
 6745ION    NA+10264   2.145   5.912   0.022
 6746ION    NA+10265   8.154   4.773   2.098
 6747ION    NA+10266   8.908   9.010  10.257
 6748ION    NA+10267   8.399   7.994  11.968
 6749ION    NA+10268   8.435   7.967   1.613
 6750ION    NA+10269   6.034   6.657   4.002
 6751ION    NA+10270   4.227   9.496   1.004
 6752ION    NA+10271   0.916   3.235   9.667
 6753ION    NA+10272   1.336   0.561   3.665
 6754ION    NA+10273   4.103   5.541   2.363
 6755ION    NA+10274   8.713   2.762   1.229
 6756ION    NA+10275   6.416   8.440   2.256
 6757ION    NA+10276   7.795   4.830  11.006
 6758ION    NA+10277   4.196   5.275   0.408
 6759ION    NA+10278   0.616   4.920   0.302
 6760ION    NA+10279   1.872   0.013   3.136
 6761ION    NA+10280   3.836   4.969  10.158
 6762ION    NA+10281   9.673   7.906   3.000
 6763ION    NA+10282   5.023   5.911   3.408
 6764ION    NA+10283   3.598   9.600   0.234
 6765ION    NA+10284   0.266   0.434   8.595
 6766ION    NA+10285   8.735   7.951   2.405
 6767ION    NA+10286   3.858   6.301   9.177
 6768ION    NA+10287   4.331   0.366   9.720
 6769ION    NA+10288   7.974   7.827   9.560
 6770ION    NA+10289   2.773   1.859   2.448
 6771ION    NA+10290   3.026   2.740  11.580
 6772ION    NA+10291   7.596   2.582  10.437
 6773ION    NA+10292   2.146   5.738   8.837
 6774ION    NA+10293   5.335   4.602   1.498
 6775ION    NA+10294   6.540   6.984   9.886
 6776ION    CL-10295   8.575   4.713   2.238
 6777ION    CL-10296   0.212   1.233   2.902
 6778ION    CL-10297   5.201   8.838   1.267
 6779ION    CL-10298   6.102   0.538  11.169
 6780ION    CL-10299   4.902   4.670   3.006
 6781ION    CL-10300   6.126   3.902  10.001
 6782ION    CL-10301   1.118   3.628   9.712
 6783ION    CL-10302   2.382   5.378   8.997
 6784ION    CL-10303   3.956   5.866   2.079
 6785ION    CL-10304   1.799   1.783   3.309
 6786ION    CL-10305   6.455   8.563   0.322
 6787ION    CL-10306   4.306   8.397   9.718
 6788ION    CL-10307   4.491   1.540   9.467
 6789ION    CL-10308   2.688   5.337   2.338
 6790ION    CL-10309   0.918   4.696   0.057
 6791ION    CL-10310   7.041   1.016   8.568
 6792ION    CL-10311   7.755   4.156   9.246
 6793ION    CL-10312   4.692   7.683   0.329
 6794ION    CL-10313   2.154   8.533  11.564
 6795ION    CL-10314   4.181   6.654  10.624
 6796ION    CL-10315   2.184   9.128   2.102
 6797ION    CL-10316   7.723   9.195   0.091
 6798ION    CL-10317   9.206   2.671   9.493
 6799ION    CL-10318   5.077   4.273   1.317
 6800ION    CL-10319   1.410   0.008   0.304
 6801ION    CL-10320   9.021   3.090   1.298
 6802ION    CL-10321   3.264   3.654   3.455
 6803ION    CL-10322   5.758   7.377   2.244
 6804ION    CL-10323   3.216   4.911   0.384
 6805ION    CL-10324   0.212   0.524   0.914
 6806ION    CL-10325   6.224   2.410   2.320
 6807ION    CL-10326   4.865   4.973   8.624
 6808ION    CL-10327   9.041   1.252  10.620
 6809ION    CL-10328   7.526   4.324   0.275
 6810ION    CL-10329   7.796   5.140  10.686
 6811ION    CL-10330   5.680   6.648   0.159
 6812ION    CL-10331   0.989   8.690   0.805
 6813ION    CL-10332   0.821   8.358   2.260
 6814ION    CL-10333   6.629   1.494   9.070
 6815ION    CL-10334   1.302   4.532  10.099
 6816ION    CL-10335   0.075   7.747   2.875
 6817ION    CL-10336   4.327   4.710  11.000
 6818ION    CL-10337   4.359   0.059  11.053
 6819ION    CL-10338   3.504   8.705   9.449
 6820ION    CL-10339   3.125   7.291   0.371
 6821ION    CL-10340   2.020   6.013  11.604
 6822ION    CL-10341   2.452   1.549   2.417
 6823ION    CL-10342   5.529   4.946   1.723
 6824ION    CL-10343   8.366   7.955   2.080
 6825ION    CL-10344   7.083   4.150   9.853
 6826ION    CL-10345   9.895   0.687   8.734
 6827ION    CL-10346   5.221   8.681   3.086
 6828ION    CL-10347   5.737   3.205   1.046
 6829ION    CL-10348   6.751   3.400   3.146
 6830ION    CL-10349   7.516   9.919   0.848
 6831ION    CL-10350   8.919   9.313  10.583
 6832ION    CL-10351   8.478   9.217   3.563
 6833ION    CL-10352   3.736   6.715   9.291
 6834ION    CL-10353   0.129   3.823   2.708
 6835ION    CL-10354   6.342   7.856   8.933
 6836ION    CL-10355   4.575   3.341   9.766
 6837ION    CL-10356   4.959   9.006  10.016
 6838ION    CL-10357   5.619   0.262   3.131
 6839ION    CL-10358   5.774   3.609   3.198
 6840ION    CL-10359   5.051   7.556   9.427
 6841ION    CL-10360   9.550   5.697   9.133
 6842ION    CL-10361   9.841   2.497   3.066
 6843ION    CL-10362   2.689   4.689  11.564
 6844ION    CL-10363   7.785   2.561  10.838
 6845ION    CL-10364   1.671   8.559   1.393
 6846ION    CL-10365   9.639   3.754   1.483
  10.00000  10.00000  12.00000
