Protein in INSANE! Membrane UpperLeaflet>POPC=1.0 LowerLeaflet>POPC=1.0
11530
    1AU     AUC    1   5.255   5.282   6.006
    1AU     AUC    2   5.555   5.323   5.834
    1AU     AUC    3   5.537   5.302   6.173
    1AU     AUC    4   4.964   5.262   5.844
    1AU     AUC    5   4.965   5.262   6.193
    1AU     AUC    6   5.064   5.526   6.025
    1AU     AUC    7   5.405   5.559   6.008
    1AU     AUC    8   5.099   4.996   6.010
    1AU     AUC    9   5.461   5.049   5.996
    1AU     AUC   10   5.296   5.114   6.273
    1AU     AUC   11   5.238   5.439   6.285
    1AU     AUC   12   5.270   5.123   5.727
    1AU     AUC   13   5.268   5.459   5.735
    1AU     AUC   14   5.859   5.354   5.676
    1AU     AUC   15   5.903   5.348   5.997
    1AU     AUC   16   5.842   5.308   6.365
    1AU     AUC   17   4.662   5.238   5.673
    1AU     AUC   18   4.626   5.289   6.041
    1AU     AUC   19   4.684   5.247   6.366
    1AU     AUC   20   4.894   5.828   6.010
    1AU     AUC   21   5.237   5.891   6.000
    1AU     AUC   22   5.551   5.874   6.018
    1AU     AUC   23   4.934   4.677   6.016
    1AU     AUC   24   5.280   4.717   6.003
    1AU     AUC   25   5.670   4.770   5.964
    1AU     AUC   26   5.316   4.888   6.557
    1AU     AUC   27   5.257   5.211   6.601
    1AU     AUC   28   5.250   5.590   6.573
    1AU     AUC   29   5.266   4.931   5.439
    1AU     AUC   30   5.261   5.275   5.423
    1AU     AUC   31   5.279   5.634   5.438
    1AU     AUC   32   5.596   5.062   6.467
    1AU     AUC   33   5.561   5.425   6.514
    1AU     AUC   34   5.561   5.141   5.516
    1AU     AUC   35   5.582   5.502   5.509
    1AU     AUC   36   4.969   5.048   6.487
    1AU     AUC   37   4.960   5.411   6.499
    1AU     AUC   38   4.926   5.062   5.564
    1AU     AUC   39   4.933   5.438   5.533
    1AU     AUC   40   5.757   5.619   5.857
    1AU     AUC   41   5.703   5.587   6.214
    1AU     AUC   42   4.774   5.550   5.812
    1AU     AUC   43   4.757   5.568   6.204
    1AU     AUC   44   5.774   5.044   5.804
    1AU     AUC   45   5.791   5.019   6.133
    1AU     AUC   46   4.736   4.974   5.871
    1AU     AUC   47   4.775   4.974   6.199
    1AU     AUC   48   5.058   5.757   6.300
    1AU     AUC   49   5.394   5.760   6.314
    1AU     AUC   50   5.090   4.767   6.277
    1AU     AUC   51   5.503   4.795   6.297
    1AU     AUC   52   5.060   5.720   5.682
    1AU     AUC   53   5.452   5.763   5.683
    1AU     AUC   54   5.060   4.792   5.737
    1AU     AUC   55   5.451   4.831   5.674
    1AU    AUSL   56   5.842   5.202   6.726
    1AU    AUSL   57   5.713   4.741   6.588
    1AU     AUL   58   5.969   4.828   6.788
    1AU       S   59   6.149   4.458   6.578
    1AU     LIG   60   6.057   4.161   6.877
    1AU     LIG   61   6.168   3.745   7.051
    1AU       S   62   6.101   5.261   6.890
    1AU     LIG   63   6.057   5.403   7.303
    1AU     LIG   64   6.147   5.152   7.683
    1AU    AUSL   65   5.451   5.010   6.806
    1AU    AUSL   66   5.111   5.337   6.881
    1AU     AUL   67   5.304   5.182   7.138
    1AU       S   68   5.742   5.005   7.146
    1AU     LIG   69   5.636   5.160   7.540
    1AU     LIG   70   5.719   5.077   7.988
    1AU       S   71   4.562   5.134   7.174
    1AU     LIG   72   4.726   5.441   7.493
    1AU     LIG   73   4.655   5.474   7.954
    1AU    AUSL   74   5.458   5.431   6.678
    1AU    AUSL   75   5.866   5.622   6.642
    1AU     AUL   76   5.676   5.445   6.967
    1AU       S   77   5.285   5.688   7.125
    1AU     LIG   78   5.615   5.661   7.417
    1AU     LIG   79   5.864   5.566   7.785
    1AU       S   80   5.988   5.779   6.854
    1AU     LIG   81   6.401   5.765   6.912
    1AU     LIG   82   6.808   5.926   7.052
    1AU    AUSL   83   5.809   5.392   5.264
    1AU    AUSL   84   5.693   5.827   5.335
    1AU     AUL   85   5.828   5.687   5.009
    1AU       S   86   5.712   5.281   4.808
    1AU     LIG   87   6.046   5.287   4.475
    1AU     LIG   88   6.224   5.089   4.078
    1AU       S   89   6.065   5.958   5.299
    1AU     LIG   90   5.889   6.214   5.041
    1AU     LIG   91   6.074   6.583   4.830
    1AU    AUSL   92   5.466   5.138   5.230
    1AU    AUSL   93   5.801   5.067   5.548
    1AU     AUL   94   5.894   5.084   5.180
    1AU       S   95   5.882   4.298   5.206
    1AU     LIG   96   6.325   4.188   5.092
    1AU     LIG   97   6.612   4.169   4.721
    1AU       S   98   5.524   4.931   4.904
    1AU     LIG   99   5.556   4.662   4.494
    1AU     LIG  100   5.749   4.851   4.111
    1AU    AUSL  101   5.399   5.567   5.164
    1AU    AUSL  102   5.082   5.000   5.140
    1AU     AUL  103   5.253   5.309   4.933
    1AU       S  104   4.876   5.025   4.837
    1AU     LIG  105   5.146   5.015   4.494
    1AU     LIG  106   5.023   5.036   4.032
    1AU       S  107   5.650   5.073   4.726
    1AU     LIG  108   5.553   5.278   4.321
    1AU     LIG  109   5.835   5.424   3.977
    1AU    AUSL  110   4.745   5.214   6.689
    1AU    AUSL  111   4.989   5.676   6.662
    1AU     AUL  112   4.844   5.523   6.965
    1AU       S  113   4.508   5.205   6.874
    1AU     LIG  114   4.355   5.584   7.159
    1AU     LIG  115   4.231   5.549   7.624
    1AU       S  116   4.588   5.896   6.798
    1AU     LIG  117   4.453   6.153   7.110
    1AU     LIG  118   4.267   6.405   7.463
    1AU    AUSL  119   5.035   4.911   6.847
    1AU    AUSL  120   4.656   4.818   6.544
    1AU     AUL  121   4.705   4.783   6.835
    1AU       S  122   4.514   4.375   6.646
    1AU     LIG  123   4.060   4.336   6.808
    1AU     LIG  124   3.727   4.376   7.165
    1AU       S  125   4.824   5.076   7.162
    1AU     LIG  126   4.998   5.005   7.547
    1AU     LIG  127   4.761   4.961   7.936
    1AU    AUSL  128   4.709   5.156   5.292
    1AU    AUSL  129   4.973   4.845   5.525
    1AU     AUL  130   4.823   4.761   5.210
    1AU       S  131   4.511   5.087   5.053
    1AU     LIG  132   4.348   5.450   4.801
    1AU     LIG  133   4.235   5.562   4.343
    1AU       S  134   4.399   4.532   5.271
    1AU     LIG  135   4.381   4.106   5.116
    1AU     LIG  136   4.251   3.720   4.878
    1AU    AUSL  137   5.062   5.402   5.343
    1AU    AUSL  138   4.617   5.546   5.424
    1AU     AUL  139   4.810   5.445   5.067
    1AU       S  140   4.440   5.679   5.240
    1AU     LIG  141   4.140   5.987   5.088
    1AU     LIG  142   4.036   6.200   4.678
    1AU       S  143   4.608   4.998   4.794
    1AU     LIG  144   4.716   5.321   4.466
    1AU     LIG  145   4.656   5.443   4.031
    1AU    AUSL  146   5.931   5.904   6.055
    1AU    AUSL  147   5.933   5.610   5.610
    1AU     AUL  148   6.088   5.998   5.767
    1AU       S  149   6.177   5.660   5.427
    1AU     LIG  150   6.317   5.630   4.981
    1AU     LIG  151   6.344   6.077   4.834
    1AU       S  152   6.465   5.861   6.396
    1AU     LIG  153   6.614   6.230   6.121
    1AU     LIG  154   6.891   6.297   5.760
    1AU    AUSL  155   6.204   5.572   5.923
    1AU    AUSL  156   6.222   5.185   6.161
    1AU     AUL  157   6.528   5.375   6.031
    1AU       S  158   6.376   5.791   6.152
    1AU     LIG  159   6.640   5.825   5.799
    1AU     LIG  160   7.074   5.715   5.681
    1AU       S  161   6.477   4.898   6.002
    1AU     LIG  162   6.724   4.838   6.366
    1AU     LIG  163   7.102   4.559   6.455
    1AU    AUSL  164   5.954   5.502   6.256
    1AU    AUSL  165   5.622   5.800   6.322
    1AU     AUL  166   5.975   5.903   6.399
    1AU       S  167   5.961   6.084   6.866
    1AU     LIG  168   6.350   6.243   6.700
    1AU     LIG  169   6.761   6.403   6.862
    1AU       S  170   6.312   5.571   6.429
    1AU     LIG  171   6.849   5.558   6.402
    1AU     LIG  172   7.343   5.703   6.459
    1AU    AUSL  173   4.603   5.781   6.041
    1AU    AUSL  174   4.619   5.556   6.463
    1AU     AUL  175   4.338   5.905   6.304
    1AU       S  176   4.483   5.644   6.665
    1AU     LIG  177   4.095   5.881   6.821
    1AU     LIG  178   3.971   6.012   7.251
    1AU       S  179   4.558   6.198   6.004
    1AU     LIG  180   4.138   6.147   5.832
    1AU     LIG  181   3.822   6.386   5.602
    1AU    AUSL  182   4.524   5.416   5.804
    1AU    AUSL  183   4.676   5.916   5.649
    1AU     AUL  184   4.377   5.744   5.712
    1AU       S  185   4.222   5.282   5.460
    1AU     LIG  186   3.931   5.700   5.498
    1AU     LIG  187   3.519   5.972   5.445
    1AU       S  188   4.500   6.121   5.435
    1AU     LIG  189   4.293   6.461   5.262
    1AU     LIG  190   3.893   6.540   5.081
    1AU    AUSL  191   4.319   5.474   6.178
    1AU    AUSL  192   4.303   5.082   5.928
    1AU     AUL  193   4.124   5.401   5.900
    1AU       S  194   4.035   5.022   6.182
    1AU     LIG  195   3.810   4.988   5.803
    1AU     LIG  196   3.460   4.749   5.631
    1AU       S  197   4.090   5.508   6.382
    1AU     LIG  198   3.800   5.851   6.403
    1AU     LIG  199   3.375   6.060   6.363
    1AU    AUSL  200   5.983   4.898   5.944
    1AU    AUSL  201   5.862   5.047   6.338
    1AU     AUL  202   6.185   4.927   6.371
    1AU       S  203   6.279   4.754   5.939
    1AU     LIG  204   6.330   4.377   5.811
    1AU     LIG  205   6.695   4.124   5.649
    1AU       S  206   6.383   4.465   6.351
    1AU     LIG  207   6.599   4.385   6.761
    1AU     LIG  208   6.479   4.206   7.191
    1AU    AUSL  209   6.164   5.209   5.703
    1AU    AUSL  210   5.876   4.617   5.652
    1AU     AUL  211   6.101   4.872   5.530
    1AU       S  212   6.476   4.996   5.762
    1AU     LIG  213   6.706   4.654   5.591
    1AU     LIG  214   7.134   4.465   5.662
    1AU       S  215   6.006   4.425   5.425
    1AU     LIG  216   6.117   3.994   5.531
    1AU     LIG  217   6.160   3.689   5.183
    1AU    AUSL  218   4.658   4.851   6.039
    1AU    AUSL  219   4.551   4.944   5.614
    1AU     AUL  220   4.298   4.754   5.873
    1AU       S  221   4.393   4.788   5.422
    1AU     LIG  222   3.954   4.645   5.448
    1AU     LIG  223   3.824   4.307   5.144
    1AU       S  224   3.965   4.811   6.273
    1AU     LIG  225   3.875   4.481   5.944
    1AU     LIG  226   3.604   4.266   5.607
    1AU    AUSL  227   4.475   5.119   6.329
    1AU    AUSL  228   4.763   4.513   6.253
    1AU     AUL  229   4.434   4.695   6.309
    1AU       S  230   4.651   4.267   6.307
    1AU     LIG  231   4.186   4.144   6.329
    1AU     LIG  232   3.970   3.848   6.650
    1AU       S  233   4.151   5.044   6.420
    1AU     LIG  234   3.684   5.116   6.547
    1AU     LIG  235   3.278   4.908   6.417
    1AU    AUSL  236   5.225   5.972   6.458
    1AU    AUSL  237   4.797   5.943   6.382
    1AU     AUL  238   5.042   6.007   6.754
    1AU       S  239   4.680   6.159   6.503
    1AU     LIG  240   4.258   6.320   6.603
    1AU     LIG  241   4.058   6.462   6.992
    1AU       S  242   5.199   6.389   6.506
    1AU     LIG  243   5.379   6.808   6.729
    1AU     LIG  244   5.364   7.293   6.787
    1AU    AUSL  245   5.034   6.169   6.116
    1AU    AUSL  246   5.370   6.209   5.774
    1AU     AUL  247   5.066   6.435   5.878
    1AU       S  248   5.249   6.600   6.303
    1AU     LIG  249   4.896   6.785   6.520
    1AU     LIG  250   4.853   7.211   6.613
    1AU       S  251   5.322   6.445   5.460
    1AU     LIG  252   5.713   6.722   5.544
    1AU     LIG  253   5.856   7.210   5.510
    1AU    AUSL  254   5.494   6.164   6.173
    1AU    AUSL  255   5.499   5.839   6.745
    1AU     AUL  256   5.583   6.119   6.543
    1AU       S  257   5.703   5.935   6.983
    1AU     LIG  258   6.053   5.930   7.326
    1AU     LIG  259   6.411   6.213   7.223
    1AU       S  260   5.447   6.427   6.209
    1AU     LIG  261   5.776   6.666   6.392
    1AU     LIG  262   5.799   7.104   6.559
    1AU    AUSL  263   5.347   4.537   6.617
    1AU    AUSL  264   5.892   4.585   6.212
    1AU     AUL  265   5.678   4.371   6.513
    1AU       S  266   5.212   4.007   6.606
    1AU     LIG  267   4.906   3.719   6.805
    1AU     LIG  268   4.920   3.301   7.031
    1AU       S  269   6.102   4.426   6.271
    1AU     LIG  270   6.318   3.992   6.474
    1AU     LIG  271   6.598   3.876   6.825
    1AU    AUSL  272   5.158   4.380   6.255
    1AU    AUSL  273   5.071   4.792   6.447
    1AU     AUL  274   4.991   4.459   6.602
    1AU       S  275   5.136   4.091   6.343
    1AU     LIG  276   4.909   3.710   6.291
    1AU     LIG  277   4.890   3.300   6.516
    1AU       S  278   4.656   4.102   6.548
    1AU     LIG  279   4.419   3.941   6.910
    1AU     LIG  280   4.159   4.076   7.271
    1AU    AUSL  281   5.486   4.634   6.184
    1AU    AUSL  282   5.113   4.471   5.848
    1AU     AUL  283   5.452   4.287   6.037
    1AU       S  284   4.997   4.129   5.875
    1AU     LIG  285   4.802   3.704   5.802
    1AU     LIG  286   4.926   3.418   5.502
    1AU       S  287   5.399   3.947   6.392
    1AU     LIG  288   5.377   3.502   6.371
    1AU     LIG  289   5.368   3.274   6.762
    1AU    AUSL  290   5.308   5.942   5.449
    1AU    AUSL  291   5.626   5.870   5.771
    1AU     AUL  292   5.673   6.145   5.541
    1AU       S  293   5.331   6.154   5.206
    1AU     LIG  294   5.573   6.599   5.062
    1AU     LIG  295   5.442   7.024   5.223
    1AU       S  296   6.358   5.933   5.367
    1AU     LIG  297   6.329   6.405   5.266
    1AU     LIG  298   6.580   6.693   4.983
    1AU    AUSL  299   5.062   5.899   5.805
    1AU    AUSL  300   4.941   5.809   5.317
    1AU     AUL  301   4.959   6.130   5.525
    1AU       S  302   5.139   6.396   5.170
    1AU     LIG  303   4.899   6.717   5.409
    1AU     LIG  304   4.963   7.185   5.429
    1AU       S  305   4.690   5.941   5.156
    1AU     LIG  306   4.532   6.248   4.858
    1AU     LIG  307   4.293   6.648   4.758
    1AU    AUSL  308   5.237   4.539   5.427
    1AU    AUSL  309   4.712   4.554   5.739
    1AU     AUL  310   4.939   4.413   5.499
    1AU       S  311   4.466   4.466   5.532
    1AU     LIG  312   4.101   4.164   5.552
    1AU     LIG  313   3.935   3.804   5.282
    1AU       S  314   5.205   4.020   5.670
    1AU     LIG  315   4.890   3.923   5.347
    1AU     LIG  316   4.797   3.596   5.021
    1AU    AUSL  317   5.484   4.667   5.769
    1AU    AUSL  318   5.590   4.750   5.343
    1AU     AUL  319   5.550   4.392   5.552
    1AU       S  320   5.248   3.864   5.901
    1AU     LIG  321   5.430   3.573   5.564
    1AU     LIG  322   5.338   3.214   5.263
    1AU       S  323   5.797   4.595   5.167
    1AU     LIG  324   5.984   4.378   4.737
    1AU     LIG  325   6.165   3.918   4.649
    2POPC   NC3  326   3.415   8.758   8.000
    2POPC   PO4  327   3.944   8.364   8.232
    2POPC   GL1  328   3.848   8.658   7.760
    2POPC   GL2  329   3.495   8.626   7.531
    2POPC   C1A  330   3.871   8.776   7.288
    2POPC   D2A  331   3.732   8.483   7.004
    2POPC   C3A  332   3.486   8.490   6.651
    2POPC   C4A  333   3.538   8.587   6.236
    2POPC   C1B  334   3.258   8.604   7.207
    2POPC   C2B  335   3.166   8.833   6.900
    2POPC   C3B  336   3.095   8.774   6.524
    2POPC   C4B  337   3.190   8.944   6.149
    3POPC   NC3  338   1.173   5.026   8.124
    3POPC   PO4  339   0.577   4.634   8.180
    3POPC   GL1  340   0.878   4.806   7.758
    3POPC   GL2  341   1.072   5.104   7.656
    3POPC   C1A  342   1.107   4.692   7.362
    3POPC   D2A  343   0.962   4.829   6.949
    3POPC   C3A  344   1.066   4.618   6.558
    3POPC   C4A  345   1.125   4.824   6.139
    3POPC   C1B  346   1.355   5.157   7.334
    3POPC   C2B  347   1.454   5.026   6.939
    3POPC   C3B  348   1.274   5.073   6.570
    3POPC   C4B  349   1.419   5.228   6.210
    4POPC   NC3  350   9.404   1.806   8.166
    4POPC   PO4  351   8.886   2.167   7.933
    4POPC   GL1  352   9.090   1.907   7.647
    4POPC   GL2  353   9.303   1.653   7.705
    4POPC   C1A  354   9.319   1.962   7.270
    4POPC   D2A  355   9.290   1.796   6.853
    4POPC   C3A  356   9.486   2.062   6.541
    4POPC   C4A  357   9.638   2.255   6.167
    4POPC   C1B  358   9.375   1.464   7.313
    4POPC   C2B  359   9.721   1.621   7.061
    4POPC   C3B  360   9.768   1.634   6.598
    4POPC   C4B  361   9.906   1.429   6.230
    5POPC   NC3  362   0.470   8.026   8.220
    5POPC   PO4  363   0.075   7.450   8.043
    5POPC   GL1  364   0.204   7.615   7.621
    5POPC   GL2  365   0.459   7.864   7.631
    5POPC   C1A  366   0.370   7.623   7.178
    5POPC   D2A  367   0.582   7.811   6.825
    5POPC   C3A  368   0.539   7.672   6.357
    5POPC   C4A  369   0.256   7.686   5.949
    5POPC   C1B  370   0.302   8.154   7.304
    5POPC   C2B  371   0.407   8.301   6.908
    5POPC   C3B  372   0.294   8.109   6.528
    5POPC   C4B  373   0.390   8.126   6.134
    6POPC   NC3  374   2.998   1.482   8.145
    6POPC   PO4  375   3.619   1.726   8.305
    6POPC   GL1  376   3.600   1.495   7.915
    6POPC   GL2  377   3.626   1.127   7.888
    6POPC   C1A  378   3.516   1.515   7.485
    6POPC   D2A  379   3.508   1.688   7.066
    6POPC   C3A  380   3.673   1.526   6.649
    6POPC   C4A  381   3.495   1.445   6.239
    6POPC   C1B  382   3.418   1.013   7.458
    6POPC   C2B  383   3.529   1.194   7.032
    6POPC   C3B  384   3.373   1.105   6.601
    6POPC   C4B  385   3.516   0.941   6.200
    7POPC   NC3  386   8.557   9.162   8.156
    7POPC   PO4  387   9.017   9.615   8.359
    7POPC   GL1  388   8.924   9.495   7.822
    7POPC   GL2  389   8.746   9.263   7.680
    7POPC   C1A  390   8.835   9.685   7.403
    7POPC   D2A  391   8.702   9.656   6.976
    7POPC   C3A  392   8.770   9.359   6.686
    7POPC   C4A  393   8.707   9.489   6.286
    7POPC   C1B  394   8.576   9.215   7.273
    7POPC   C2B  395   8.385   9.064   6.897
    7POPC   C3B  396   8.239   9.217   6.515
    7POPC   C4B  397   8.293   9.325   6.076
    8POPC   NC3  398   6.207   0.326   8.152
    8POPC   PO4  399   6.780  10.468   8.022
    8POPC   GL1  400   6.633   0.207   7.633
    8POPC   GL2  401   6.363   0.458   7.684
    8POPC   C1A  402   6.512   0.437   7.207
    8POPC   D2A  403   6.281   0.694   6.894
    8POPC   C3A  404   6.483   0.702   6.493
    8POPC   C4A  405   6.733   0.555   6.122
    8POPC   C1B  406   6.210   0.058   7.445
    8POPC   C2B  407   6.378  10.426   7.041
    8POPC   C3B  408   6.427   0.208   6.668
    8POPC   C4B  409   6.296   0.291   6.234
    9POPC   NC3  410   8.935   4.702   8.157
    9POPC   PO4  411   8.569   5.215   7.956
    9POPC   GL1  412   8.897   5.069   7.712
    9POPC   GL2  413   8.744   4.757   7.675
    9POPC   C1A  414   8.908   5.160   7.273
    9POPC   D2A  415   8.694   5.067   6.895
    9POPC   C3A  416   8.751   4.878   6.531
    9POPC   C4A  417   8.840   4.972   6.118
    9POPC   C1B  418   8.557   4.782   7.282
    9POPC   C2B  419   8.320   4.725   6.889
    9POPC   C3B  420   8.366   4.556   6.455
    9POPC   C4B  421   8.408   4.658   5.996
   10POPC   NC3  422   4.284   9.452   8.035
   10POPC   PO4  423   3.632   9.249   8.243
   10POPC   GL1  424   3.844   9.536   7.782
   10POPC   GL2  425   4.175   9.558   7.536
   10POPC   C1A  426   3.721   9.529   7.338
   10POPC   D2A  427   3.985   9.477   6.934
   10POPC   C3A  428   3.793   9.557   6.500
   10POPC   C4A  429   3.953   9.528   6.029
   10POPC   C1B  430   4.452   9.253   7.251
   10POPC   C2B  431   4.639   9.085   6.869
   10POPC   C3B  432   4.461   8.952   6.500
   10POPC   C4B  433   4.206   9.291   6.398
   11POPC   NC3  434   9.902   5.588   8.370
   11POPC   PO4  435   9.737   5.325   7.794
   11POPC   GL1  436   9.915   5.432   7.496
   11POPC   GL2  437  10.182   5.590   7.720
   11POPC   C1A  438   9.784   5.216   7.121
   11POPC   D2A  439   9.684   5.480   6.804
   11POPC   C3A  440   9.653   5.429   6.378
   11POPC   C4A  441   9.845   5.661   6.048
   11POPC   C1B  442  10.280   5.747   7.319
   11POPC   C2B  443  10.077   5.895   6.936
   11POPC   C3B  444  10.066   5.748   6.524
   11POPC   C4B  445  10.311   5.836   6.156
   12POPC   NC3  446   6.297   1.551   8.297
   12POPC   PO4  447   5.970   2.122   8.295
   12POPC   GL1  448   6.312   1.872   7.910
   12POPC   GL2  449   6.533   2.099   7.728
   12POPC   C1A  450   6.228   1.705   7.430
   12POPC   D2A  451   6.463   1.666   6.994
   12POPC   C3A  452   6.235   1.581   6.582
   12POPC   C4A  453   6.252   1.670   6.145
   12POPC   C1B  454   6.429   2.150   7.278
   12POPC   C2B  455   6.659   2.144   6.896
   12POPC   C3B  456   6.583   1.946   6.511
   12POPC   C4B  457   6.622   1.999   6.072
   13POPC   NC3  458   1.439   0.920   8.068
   13POPC   PO4  459   2.095   0.859   8.054
   13POPC   GL1  460   1.971   1.088   7.671
   13POPC   GL2  461   2.277   1.276   7.650
   13POPC   C1A  462   1.720   1.078   7.290
   13POPC   D2A  463   1.665   0.755   6.944
   13POPC   C3A  464   1.846   0.859   6.525
   13POPC   C4A  465   1.664   0.832   6.109
   13POPC   C1B  466   2.134   1.398   7.252
   13POPC   C2B  467   1.929   1.288   6.856
   13POPC   C3B  468   1.777   1.347   6.431
   13POPC   C4B  469   2.010   1.204   6.091
   14POPC   NC3  470   7.154   2.045   8.168
   14POPC   PO4  471   6.717   1.472   8.157
   14POPC   GL1  472   6.879   1.700   7.772
   14POPC   GL2  473   7.244   1.832   7.725
   14POPC   C1A  474   6.861   1.856   7.335
   14POPC   D2A  475   7.016   1.742   6.927
   14POPC   C3A  476   7.074   2.047   6.599
   14POPC   C4A  477   7.052   1.826   6.257
   14POPC   C1B  478   7.381   1.693   7.323
   14POPC   C2B  479   7.554   1.571   6.914
   14POPC   C3B  480   7.498   1.766   6.524
   14POPC   C4B  481   7.502   2.074   6.194
   15POPC   NC3  482   6.405   9.128   8.019
   15POPC   PO4  483   6.834   9.589   8.140
   15POPC   GL1  484   6.637   9.624   7.686
   15POPC   GL2  485   6.376   9.390   7.587
   15POPC   C1A  486   6.501   9.774   7.276
   15POPC   D2A  487   6.564   9.597   6.852
   15POPC   C3A  488   6.525   9.817   6.466
   15POPC   C4A  489   6.451   9.754   6.014
   15POPC   C1B  490   6.275   9.287   7.164
   15POPC   C2B  491   6.078   9.409   6.775
   15POPC   C3B  492   6.253   9.342   6.377
   15POPC   C4B  493   6.153   9.314   5.935
   16POPC   NC3  494   9.565   3.270   8.096
   16POPC   PO4  495   9.858   3.901   8.079
   16POPC   GL1  496   9.736   3.593   7.761
   16POPC   GL2  497   9.364   3.580   7.706
   16POPC   C1A  498   9.682   3.359   7.357
   16POPC   D2A  499   9.561   3.542   6.934
   16POPC   C3A  500   9.800   3.547   6.526
   16POPC   C4A  501   9.604   3.541   6.101
   16POPC   C1B  502   9.184   3.402   7.311
   16POPC   C2B  503   9.049   3.490   6.891
   16POPC   C3B  504   9.267   3.488   6.499
   16POPC   C4B  505   9.183   3.230   6.124
   17POPC   NC3  506   0.517   5.702   8.403
   17POPC   PO4  507  10.363   5.603   8.254
   17POPC   GL1  508   0.178   5.526   7.865
   17POPC   GL2  509   0.500   5.735   7.872
   17POPC   C1A  510   0.277   5.469   7.376
   17POPC   D2A  511   0.134   5.695   6.959
   17POPC   C3A  512   0.178   5.825   6.518
   17POPC   C4A  513   0.221   5.513   6.191
   17POPC   C1B  514   0.624   5.879   7.439
   17POPC   C2B  515   0.648   5.661   7.021
   17POPC   C3B  516   0.604   5.557   6.562
   17POPC   C4B  517   0.628   5.799   6.165
   18POPC   NC3  518  10.200   0.453   8.276
   18POPC   PO4  519   9.637   0.144   8.041
   18POPC   GL1  520   9.972   0.170   7.732
   18POPC   GL2  521  10.211   0.402   7.718
   18POPC   C1A  522   9.907   0.187   7.275
   18POPC   D2A  523  10.049   0.500   7.029
   18POPC   C3A  524  10.084   0.531   6.607
   18POPC   C4A  525  10.235   0.370   6.225
   18POPC   C1B  526  10.463   0.450   7.322
   18POPC   C2B  527   0.070   0.599   6.886
   18POPC   C3B  528   0.021   0.765   6.463
   18POPC   C4B  529  10.479   0.716   5.973
   19POPC   NC3  530   1.510  10.434   8.065
   19POPC   PO4  531   2.218  10.306   8.010
   19POPC   GL1  532   1.858  10.262   7.686
   19POPC   GL2  533   1.771   9.909   7.555
   19POPC   C1A  534   1.674  10.325   7.272
   19POPC   D2A  535   1.526  10.203   6.901
   19POPC   C3A  536   1.800  10.422   6.566
   19POPC   C4A  537   1.636  10.480   6.162
   19POPC   C1B  538   2.057   9.965   7.220
   19POPC   C2B  539   1.958   9.990   6.798
   19POPC   C3B  540   1.604   9.977   6.465
   19POPC   C4B  541   1.891  10.017   6.152
   20POPC   NC3  542   0.457   6.684   8.225
   20POPC   PO4  543   0.770   6.041   8.195
   20POPC   GL1  544   0.619   6.302   7.818
   20POPC   GL2  545   0.268   6.414   7.774
   20POPC   C1A  546   0.601   6.422   7.356
   20POPC   D2A  547   0.462   6.616   6.961
   20POPC   C3A  548   0.642   6.522   6.556
   20POPC   C4A  549   0.450   6.268   6.245
   20POPC   C1B  550   0.096   6.639   7.366
   20POPC   C2B  551  10.494   6.845   6.979
   20POPC   C3B  552   0.093   6.700   6.582
   20POPC   C4B  553   0.303   6.783   6.202
   21POPC   NC3  554   2.464   2.080   8.048
   21POPC   PO4  555   2.505   1.400   8.098
   21POPC   GL1  556   2.692   1.625   7.748
   21POPC   GL2  557   2.748   1.980   7.624
   21POPC   C1A  558   2.610   1.589   7.328
   21POPC   D2A  559   2.812   1.772   7.001
   21POPC   C3A  560   2.609   1.738   6.621
   21POPC   C4A  561   2.549   1.523   6.250
   21POPC   C1B  562   2.473   2.077   7.284
   21POPC   C2B  563   2.345   2.216   6.863
   21POPC   C3B  564   2.443   2.219   6.428
   21POPC   C4B  565   2.825   2.071   6.281
   22POPC   NC3  566   9.228  10.419   8.147
   22POPC   PO4  567   9.265   9.869   7.904
   22POPC   GL1  568   9.408  10.262   7.676
   22POPC   GL2  569   9.744  10.275   7.514
   22POPC   C1A  570   9.381  10.426   7.227
   22POPC   D2A  571   9.547  10.398   6.830
   22POPC   C3A  572   9.173  10.408   6.559
   22POPC   C4A  573   9.019   0.088   6.159
   22POPC   C1B  574   9.614   9.933   7.305
   22POPC   C2B  575   9.656   9.829   6.886
   22POPC   C3B  576   9.502   9.986   6.552
   22POPC   C4B  577   9.684  10.338   6.297
   23POPC   NC3  578   9.679   8.564   8.004
   23POPC   PO4  579   9.170   8.262   7.756
   23POPC   GL1  580   9.444   8.551   7.563
   23POPC   GL2  581   9.438   8.902   7.707
   23POPC   C1A  582   9.794   8.476   7.297
   23POPC   D2A  583   9.604   8.448   6.898
   23POPC   C3A  584   9.818   8.426   6.553
   23POPC   C4A  585   9.669   8.378   6.165
   23POPC   C1B  586   9.650   8.967   7.338
   23POPC   C2B  587   9.476   8.959   6.936
   23POPC   C3B  588   9.637   8.910   6.519
   23POPC   C4B  589   9.366   8.790   6.184
   24POPC   NC3  590   5.487   2.137   8.266
   24POPC   PO4  591   6.031   2.270   7.789
   24POPC   GL1  592   5.687   2.400   7.564
   24POPC   GL2  593   5.611   2.756   7.600
   24POPC   C1A  594   5.709   2.479   7.132
   24POPC   D2A  595   5.715   2.307   6.762
   24POPC   C3A  596   5.756   2.522   6.393
   24POPC   C4A  597   5.566   2.740   6.020
   24POPC   C1B  598   5.615   2.975   7.180
   24POPC   C2B  599   5.522   2.801   6.763
   24POPC   C3B  600   5.737   3.041   6.426
   24POPC   C4B  601   5.988   3.105   6.061
   25POPC   NC3  602   7.423   4.171   8.139
   25POPC   PO4  603   7.049   3.748   7.857
   25POPC   GL1  604   7.306   3.915   7.560
   25POPC   GL2  605   7.218   4.227   7.640
   25POPC   C1A  606   7.481   4.238   7.219
   25POPC   D2A  607   7.506   4.428   6.788
   25POPC   C3A  608   7.429   4.149   6.430
   25POPC   C4A  609   7.216   4.086   6.000
   25POPC   C1B  610   6.988   4.063   7.209
   25POPC   C2B  611   7.048   4.133   6.765
   25POPC   C3B  612   6.828   4.119   6.362
   25POPC   C4B  613   6.788   4.436   6.048
   26POPC   NC3  614   2.666   9.958   7.988
   26POPC   PO4  615   3.182  10.496   8.199
   26POPC   GL1  616   3.070  10.366   7.782
   26POPC   GL2  617   2.711  10.412   7.748
   26POPC   C1A  618   3.007  10.270   7.324
   26POPC   D2A  619   3.138  10.267   6.883
   26POPC   C3A  620   2.811  10.297   6.573
   26POPC   C4A  621   2.733  10.096   6.166
   26POPC   C1B  622   2.472  10.263   7.369
   26POPC   C2B  623   2.491  10.092   6.935
   26POPC   C3B  624   2.350  10.078   6.504
   26POPC   C4B  625   2.320   9.762   6.253
   27POPC   NC3  626   1.051   0.234   8.112
   27POPC   PO4  627   0.960   0.942   8.057
   27POPC   GL1  628   1.148   0.616   7.745
   27POPC   GL2  629   1.262   0.283   7.670
   27POPC   C1A  630   0.966   0.472   7.328
   27POPC   D2A  631   1.126   0.446   6.905
   27POPC   C3A  632   0.943   0.325   6.489
   27POPC   C4A  633   0.828   0.499   6.067
   27POPC   C1B  634   1.496   0.348   7.304
   27POPC   C2B  635   1.558   0.197   6.931
   27POPC   C3B  636   1.451   0.300   6.535
   27POPC   C4B  637   1.363   0.415   6.127
   28POPC   NC3  638   4.428  10.321   8.076
   28POPC   PO4  639   3.902   9.926   8.114
   28POPC   GL1  640   3.993  10.029   7.686
   28POPC   GL2  641   4.137  10.339   7.636
   28POPC   C1A  642   3.910  10.057   7.224
   28POPC   D2A  643   3.972   9.968   6.769
   28POPC   C3A  644   4.155   9.907   6.348
   28POPC   C4A  645   4.112   9.991   5.883
   28POPC   C1B  646   4.399  10.180   7.319
   28POPC   C2B  647   4.489  10.202   6.871
   28POPC   C3B  648   4.257  10.383   6.546
   28POPC   C4B  649   4.328  10.386   6.132
   29POPC   NC3  650   8.515   1.862   7.995
   29POPC   PO4  651   8.284   2.481   7.902
   29POPC   GL1  652   8.481   2.178   7.591
   29POPC   GL2  653   8.600   1.893   7.515
   29POPC   C1A  654   8.410   2.222   7.151
   29POPC   D2A  655   8.354   2.301   6.736
   29POPC   C3A  656   8.481   2.000   6.430
   29POPC   C4A  657   8.497   1.971   5.960
   29POPC   C1B  658   8.823   1.898   7.188
   29POPC   C2B  659   8.820   2.048   6.813
   29POPC   C3B  660   8.956   1.818   6.465
   29POPC   C4B  661   9.078   2.162   6.258
   30POPC   NC3  662   3.352   4.236   7.946
   30POPC   PO4  663   3.770   3.735   8.117
   30POPC   GL1  664   3.673   3.845   7.624
   30POPC   GL2  665   3.380   4.034   7.458
   30POPC   C1A  666   3.723   3.860   7.131
   30POPC   D2A  667   3.465   4.113   6.816
   30POPC   C3A  668   3.642   4.162   6.388
   30POPC   C4A  669   3.773   3.980   5.996
   30POPC   C1B  670   3.182   4.410   7.278
   30POPC   C2B  671   3.153   4.613   6.857
   30POPC   C3B  672   3.179   4.388   6.468
   30POPC   C4B  673   3.368   4.503   6.072
   31POPC   NC3  674   3.698   1.279   8.447
   31POPC   PO4  675   4.256   1.467   8.146
   31POPC   GL1  676   4.120   1.343   7.756
   31POPC   GL2  677   4.273   0.998   7.720
   31POPC   C1A  678   3.893   1.146   7.413
   31POPC   D2A  679   3.924   0.832   7.073
   31POPC   C3A  680   3.872   0.988   6.646
   31POPC   C4A  681   3.942   1.223   6.255
   31POPC   C1B  682   4.389   1.183   7.322
   31POPC   C2B  683   4.434   1.008   6.928
   31POPC   C3B  684   4.369   1.112   6.530
   31POPC   C4B  685   4.303   0.866   6.217
   32POPC   NC3  686   2.021   9.199   8.179
   32POPC   PO4  687   2.254   8.562   8.192
   32POPC   GL1  688   1.914   8.667   7.851
   32POPC   GL2  689   1.642   8.927   7.899
   32POPC   C1A  690   1.822   8.542   7.403
   32POPC   D2A  691   1.984   8.329   7.028
   32POPC   C3A  692   1.976   8.569   6.657
   32POPC   C4A  693   2.291   8.835   6.448
   32POPC   C1B  694   1.632   9.018   7.436
   32POPC   C2B  695   1.651   8.836   7.011
   32POPC   C3B  696   1.494   8.774   6.592
   32POPC   C4B  697   1.740   8.702   6.217
   33POPC   NC3  698   0.211   5.058   8.116
   33POPC   PO4  699   0.775   5.343   8.179
   33POPC   GL1  700   0.583   5.226   7.750
   33POPC   GL2  701   0.383   4.905   7.677
   33POPC   C1A  702   0.719   5.135   7.307
   33POPC   D2A  703   0.566   5.165   6.892
   33POPC   C3A  704   0.761   5.045   6.503
   33POPC   C4A  705   0.632   4.990   6.068
   33POPC   C1B  706   0.243   4.942   7.262
   33POPC   C2B  707   0.099   4.990   6.849
   33POPC   C3B  708   0.227   4.975   6.402
   33POPC   C4B  709   0.271   4.613   6.083
   34POPC   NC3  710   9.941   4.983   8.013
   34POPC   PO4  711   0.008   4.659   8.027
   34POPC   GL1  712  10.300   4.757   7.709
   34POPC   GL2  713  10.365   5.103   7.723
   34POPC   C1A  714  10.296   4.675   7.296
   34POPC   D2A  715  10.118   4.870   6.959
   34POPC   C3A  716  10.236   4.788   6.542
   34POPC   C4A  717  10.311   4.856   6.111
   34POPC   C1B  718  10.316   5.207   7.307
   34POPC   C2B  719  10.227   5.391   6.935
   34POPC   C3B  720  10.411   5.373   6.569
   34POPC   C4B  721  10.118   5.270   6.313
   35POPC   NC3  722   7.844   0.764   8.063
   35POPC   PO4  723   8.079   0.211   7.973
   35POPC   GL1  724   8.142   0.500   7.625
   35POPC   GL2  725   7.799   0.651   7.559
   35POPC   C1A  726   8.111   0.493   7.157
   35POPC   D2A  727   8.239   0.737   6.809
   35POPC   C3A  728   8.057   0.646   6.397
   35POPC   C4A  729   8.305   0.604   6.011
   35POPC   C1B  730   7.758   0.208   7.390
   35POPC   C2B  731   7.770  10.468   7.001
   35POPC   C3B  732   7.695  10.494   6.572
   35POPC   C4B  733   7.738   0.271   6.186
   36POPC   NC3  734   8.106   5.791   8.602
   36POPC   PO4  735   7.995   5.407   8.096
   36POPC   GL1  736   8.113   5.449   7.682
   36POPC   GL2  737   8.112   5.807   7.699
   36POPC   C1A  738   7.922   5.506   7.262
   36POPC   D2A  739   7.653   5.298   6.928
   36POPC   C3A  740   7.784   5.332   6.499
   36POPC   C4A  741   8.100   5.591   6.378
   36POPC   C1B  742   8.071   5.996   7.306
   36POPC   C2B  743   7.766   5.939   6.975
   36POPC   C3B  744   7.876   6.011   6.559
   36POPC   C4B  745   7.748   5.969   6.147
   37POPC   NC3  746   8.540   0.335   8.157
   37POPC   PO4  747   9.063   0.772   8.040
   37POPC   GL1  748   8.707   0.668   7.746
   37POPC   GL2  749   8.645   0.312   7.675
   37POPC   C1A  750   8.593   0.617   7.289
   37POPC   D2A  751   8.766   0.531   6.882
   37POPC   C3A  752   8.583   0.529   6.465
   37POPC   C4A  753   8.810   0.571   6.076
   37POPC   C1B  754   8.436   0.049   7.408
   37POPC   C2B  755   8.298  10.497   6.994
   37POPC   C3B  756   8.150   0.229   6.676
   37POPC   C4B  757   8.230   0.185   6.259
   38POPC   NC3  758   3.168   7.173   7.955
   38POPC   PO4  759   2.562   7.035   8.137
   38POPC   GL1  760   2.711   7.006   7.704
   38POPC   GL2  761   2.748   7.369   7.671
   38POPC   C1A  762   2.782   6.887   7.251
   38POPC   D2A  763   2.636   6.858   6.807
   38POPC   C3A  764   2.866   6.917   6.419
   38POPC   C4A  765   2.880   7.216   6.087
   38POPC   C1B  766   2.702   7.386   7.236
   38POPC   C2B  767   2.570   7.439   6.839
   38POPC   C3B  768   2.476   7.243   6.476
   38POPC   C4B  769   2.479   7.524   6.172
   39POPC   NC3  770   4.743   8.696   7.968
   39POPC   PO4  771   5.430   8.623   8.013
   39POPC   GL1  772   5.219   8.889   7.704
   39POPC   GL2  773   5.114   8.568   7.559
   39POPC   C1A  774   4.970   8.990   7.309
   39POPC   D2A  775   5.033   8.763   6.913
   39POPC   C3A  776   5.017   8.996   6.533
   39POPC   C4A  777   5.210   9.064   6.139
   39POPC   C1B  778   4.745   8.517   7.264
   39POPC   C2B  779   4.621   8.526   6.779
   39POPC   C3B  780   4.853   8.529   6.384
   39POPC   C4B  781   4.735   8.426   5.931
   40POPC   NC3  782   5.820   1.893   7.916
   40POPC   PO4  783   5.210   1.766   8.157
   40POPC   GL1  784   5.352   2.053   7.781
   40POPC   GL2  785   5.472   1.796   7.569
   40POPC   C1A  786   5.328   2.160   7.283
   40POPC   D2A  787   5.430   1.892   6.921
   40POPC   C3A  788   5.418   2.025   6.481
   40POPC   C4A  789   5.508   1.733   6.161
   40POPC   C1B  790   5.826   1.988   7.246
   40POPC   C2B  791   6.125   2.034   6.843
   40POPC   C3B  792   5.941   1.995   6.393
   40POPC   C4B  793   5.694   2.177   6.032
   41POPC   NC3  794   0.415   2.078   8.059
   41POPC   PO4  795   0.490   1.467   8.082
   41POPC   GL1  796   0.461   1.725   7.676
   41POPC   GL2  797   0.649   2.049   7.597
   41POPC   C1A  798   0.521   1.775   7.211
   41POPC   D2A  799   0.732   2.018   6.946
   41POPC   C3A  800   0.550   2.061   6.585
   41POPC   C4A  801   0.659   1.835   6.235
   41POPC   C1B  802   0.260   2.205   7.368
   41POPC   C2B  803   0.129   2.460   6.981
   41POPC   C3B  804   0.008   2.357   6.547
   41POPC   C4B  805   0.167   2.059   6.248
   42POPC   NC3  806   5.996   0.995   7.973
   42POPC   PO4  807   6.534   0.663   8.116
   42POPC   GL1  808   6.491   0.971   7.779
   42POPC   GL2  809   6.359   1.334   7.797
   42POPC   C1A  810   6.332   0.943   7.359
   42POPC   D2A  811   6.192   1.224   7.045
   42POPC   C3A  812   6.097   1.094   6.618
   42POPC   C4A  813   6.316   1.116   6.217
   42POPC   C1B  814   6.609   1.387   7.414
   42POPC   C2B  815   6.809   1.246   7.056
   42POPC   C3B  816   6.603   1.228   6.683
   42POPC   C4B  817   6.679   1.481   6.315
   43POPC   NC3  818   1.479   1.919   8.111
   43POPC   PO4  819   1.453   2.598   8.223
   43POPC   GL1  820   1.452   2.368   7.782
   43POPC   GL2  821   1.246   2.053   7.682
   43POPC   C1A  822   1.480   2.229   7.288
   43POPC   D2A  823   1.519   1.950   6.861
   43POPC   C3A  824   1.448   2.199   6.463
   43POPC   C4A  825   1.469   2.142   5.992
   43POPC   C1B  826   1.038   1.804   7.370
   43POPC   C2B  827   1.112   1.672   6.970
   43POPC   C3B  828   1.070   1.854   6.564
   43POPC   C4B  829   1.360   1.704   6.241
   44POPC   NC3  830   2.589   4.066   8.042
   44POPC   PO4  831   3.180   3.821   7.863
   44POPC   GL1  832   2.870   3.843   7.609
   44POPC   GL2  833   2.816   4.192   7.590
   44POPC   C1A  834   2.963   3.892   7.196
   44POPC   D2A  835   2.876   4.198   6.926
   44POPC   C3A  836   2.784   4.071   6.557
   44POPC   C4A  837   2.828   4.182   6.128
   44POPC   C1B  838   2.483   4.043   7.254
   44POPC   C2B  839   2.359   4.245   6.839
   44POPC   C3B  840   2.357   4.281   6.360
   44POPC   C4B  841   2.472   4.495   5.969
   45POPC   NC3  842   8.437   7.943   8.141
   45POPC   PO4  843   9.016   8.108   8.309
   45POPC   GL1  844   8.829   7.918   7.841
   45POPC   GL2  845   8.527   8.034   7.659
   45POPC   C1A  846   8.979   7.733   7.414
   45POPC   D2A  847   9.059   7.920   7.001
   45POPC   C3A  848   8.965   7.847   6.568
   45POPC   C4A  849   8.944   7.538   6.241
   45POPC   C1B  850   8.636   8.117   7.254
   45POPC   C2B  851   8.593   8.057   6.848
   45POPC   C3B  852   8.604   8.218   6.468
   45POPC   C4B  853   8.659   7.967   6.157
   46POPC   NC3  854   9.878  10.234   7.980
   46POPC   PO4  855  10.467   0.087   8.141
   46POPC   GL1  856   0.055  10.428   7.759
   46POPC   GL2  857  10.370  10.101   7.782
   46POPC   C1A  858  10.338  10.449   7.383
   46POPC   D2A  859  10.347   0.110   6.962
   46POPC   C3A  860  10.289  10.493   6.549
   46POPC   C4A  861  10.308  10.346   6.110
   46POPC   C1B  862  10.144   9.978   7.391
   46POPC   C2B  863   9.987  10.208   7.042
   46POPC   C3B  864  10.013  10.082   6.621
   46POPC   C4B  865  10.068   9.933   6.236
   47POPC   NC3  866   0.999   4.444   8.065
   47POPC   PO4  867   1.505   4.417   8.482
   47POPC   GL1  868   1.374   4.134   7.943
   47POPC   GL2  869   1.099   3.998   7.736
   47POPC   C1A  870   1.416   4.253   7.422
   47POPC   D2A  871   1.383   4.474   6.983
   47POPC   C3A  872   1.384   4.215   6.581
   47POPC   C4A  873   1.493   4.247   6.118
   47POPC   C1B  874   0.919   4.169   7.361
   47POPC   C2B  875   0.870   4.319   6.958
   47POPC   C3B  876   0.845   4.145   6.560
   47POPC   C4B  877   1.031   4.031   6.185
   48POPC   NC3  878   2.183   0.366   8.050
   48POPC   PO4  879   1.488   0.413   8.100
   48POPC   GL1  880   1.761   0.375   7.746
   48POPC   GL2  881   1.644   0.697   7.630
   48POPC   C1A  882   2.032   0.169   7.405
   48POPC   D2A  883   2.112  10.448   7.004
   48POPC   C3A  884   2.333   0.069   6.619
   48POPC   C4A  885   2.182  -0.001   6.190
   48POPC   C1B  886   2.051   0.679   7.388
   48POPC   C2B  887   2.243   0.470   7.031
   48POPC   C3B  888   1.966   0.393   6.709
   48POPC   C4B  889   1.880   0.406   6.295
   49POPC   NC3  890   6.911   0.412   7.999
   49POPC   PO4  891   7.407   0.915   8.009
   49POPC   GL1  892   7.279   0.748   7.643
   49POPC   GL2  893   7.332   0.382   7.657
   49POPC   C1A  894   7.392   0.657   7.218
   49POPC   D2A  895   7.346   0.319   6.917
   49POPC   C3A  896   7.537   0.491   6.587
   49POPC   C4A  897   7.562   0.786   6.251
   49POPC   C1B  898   7.007   0.333   7.334
   49POPC   C2B  899   6.849   0.159   6.954
   49POPC   C3B  900   6.910   0.356   6.568
   49POPC   C4B  901   7.205   0.370   6.206
   50POPC   NC3  902   6.937   2.952   8.247
   50POPC   PO4  903   7.660   3.104   8.130
   50POPC   GL1  904   7.456   2.889   7.771
   50POPC   GL2  905   7.295   2.529   7.833
   50POPC   C1A  906   7.496   2.677   7.365
   50POPC   D2A  907   7.189   2.605   7.014
   50POPC   C3A  908   7.151   2.771   6.600
   50POPC   C4A  909   6.873   2.930   6.270
   50POPC   C1B  910   7.213   2.250   7.439
   50POPC   C2B  911   7.369   2.128   7.004
   50POPC   C3B  912   7.472   2.376   6.611
   50POPC   C4B  913   7.314   2.561   6.192
   51POPC   NC3  914   6.944   9.932   8.421
   51POPC   PO4  915   7.405   9.873   7.876
   51POPC   GL1  916   7.213  10.026   7.518
   51POPC   GL2  917   7.146  10.381   7.668
   51POPC   C1A  918   7.028   9.768   7.223
   51POPC   D2A  919   7.186   9.640   6.847
   51POPC   C3A  920   7.079   9.942   6.569
   51POPC   C4A  921   6.922  10.051   6.191
   51POPC   C1B  922   7.329  10.453   7.291
   51POPC   C2B  923   7.198  10.303   6.934
   51POPC   C3B  924   7.184  10.438   6.522
   51POPC   C4B  925   7.403  10.228   6.229
   52POPC   NC3  926  10.262   1.292   8.153
   52POPC   PO4  927   9.830   0.754   8.257
   52POPC   GL1  928  10.041   0.871   7.872
   52POPC   GL2  929  10.057   1.227   7.707
   52POPC   C1A  930  10.097   0.816   7.416
   52POPC   D2A  931  10.185   0.974   6.960
   52POPC   C3A  932   9.942   1.062   6.608
   52POPC   C4A  933  10.091   0.923   6.245
   52POPC   C1B  934  10.221   1.351   7.314
   52POPC   C2B  935  10.179   1.480   6.881
   52POPC   C3B  936  10.400   1.261   6.567
   52POPC   C4B  937   0.020   1.216   6.168
   53POPC   NC3  938   8.717   7.006   8.085
   53POPC   PO4  939   9.044   7.537   8.142
   53POPC   GL1  940   8.707   7.429   7.771
   53POPC   GL2  941   8.656   7.092   7.594
   53POPC   C1A  942   8.524   7.536   7.329
   53POPC   D2A  943   8.749   7.520   6.919
   53POPC   C3A  944   8.511   7.627   6.542
   53POPC   C4A  945   8.469   7.447   6.118
   53POPC   C1B  946   8.312   7.069   7.320
   53POPC   C2B  947   8.337   7.212   6.909
   53POPC   C3B  948   8.510   7.115   6.543
   53POPC   C4B  949   8.700   6.973   6.214
   54POPC   NC3  950   8.844   3.962   8.129
   54POPC   PO4  951   8.491   4.539   8.078
   54POPC   GL1  952   8.561   4.247   7.733
   54POPC   GL2  953   8.861   4.255   7.714
   54POPC   C1A  954   8.532   3.996   7.358
   54POPC   D2A  955   8.399   3.828   6.958
   54POPC   C3A  956   8.471   4.058   6.629
   54POPC   C4A  957   8.478   3.768   6.287
   54POPC   C1B  958   8.907   4.411   7.317
   54POPC   C2B  959   8.770   4.500   6.911
   54POPC   C3B  960   8.892   4.396   6.532
   54POPC   C4B  961   8.713   4.207   6.206
   55POPC   NC3  962   9.385   7.267   8.294
   55POPC   PO4  963   9.051   6.711   8.298
   55POPC   GL1  964   9.165   7.081   7.875
   55POPC   GL2  965   9.465   7.269   7.779
   55POPC   C1A  966   9.113   7.198   7.396
   55POPC   D2A  967   8.903   7.016   7.008
   55POPC   C3A  968   9.024   7.169   6.606
   55POPC   C4A  969   9.189   7.106   6.198
   55POPC   C1B  970   9.626   7.072   7.390
   55POPC   C2B  971   9.460   6.965   6.991
   55POPC   C3B  972   9.529   7.031   6.577
   55POPC   C4B  973   9.793   7.003   6.248
   56POPC   NC3  974  10.127   7.675   8.101
   56POPC   PO4  975   0.013   8.168   8.213
   56POPC   GL1  976  10.461   8.031   7.762
   56POPC   GL2  977  10.156   7.954   7.690
   56POPC   C1A  978  10.409   7.816   7.300
   56POPC   D2A  979   0.032   7.903   6.919
   56POPC   C3A  980  10.294   7.716   6.650
   56POPC   C4A  981  10.404   7.805   6.268
   56POPC   C1B  982   9.933   7.960   7.306
   56POPC   C2B  983  10.008   8.080   6.903
   56POPC   C3B  984   9.881   7.929   6.481
   56POPC   C4B  985   9.761   7.892   6.083
   57POPC   NC3  986   1.582   3.025   8.376
   57POPC   PO4  987   0.928   3.091   8.097
   57POPC   GL1  988   0.956   3.347   7.725
   57POPC   GL2  989   1.301   3.486   7.704
   57POPC   C1A  990   1.034   3.287   7.303
   57POPC   D2A  991   1.272   3.240   6.942
   57POPC   C3A  992   1.052   3.253   6.565
   57POPC   C4A  993   1.176   3.368   6.160
   57POPC   C1B  994   1.249   3.756   7.322
   57POPC   C2B  995   1.104   3.857   6.928
   57POPC   C3B  996   1.235   3.725   6.538
   57POPC   C4B  997   1.531   3.743   6.205
   58POPC   NC3  998  10.231   3.636   8.043
   58POPC   PO4  999   9.961   3.085   8.239
   58POPC   GL1 1000   9.982   3.129   7.753
   58POPC   GL2 1001  10.153   3.411   7.553
   58POPC   C1A 1002   9.995   2.964   7.317
   58POPC   D2A 1003   9.813   3.100   6.908
   58POPC   C3A 1004  10.050   3.083   6.542
   58POPC   C4A 1005   9.998   3.198   6.114
   58POPC   C1B 1006  10.087   3.619   7.167
   58POPC   C2B 1007  10.269   3.449   6.811
   58POPC   C3B 1008  10.311   3.492   6.376
   58POPC   C4B 1009  10.081   3.692   6.035
   59POPC   NC3 1010   7.193   7.815   8.424
   59POPC   PO4 1011   7.208   7.912   7.894
   59POPC   GL1 1012   7.116   7.983   7.560
   59POPC   GL2 1013   7.037   8.325   7.544
   59POPC   C1A 1014   7.131   7.749   7.233
   59POPC   D2A 1015   7.321   7.587   6.898
   59POPC   C3A 1016   7.170   7.687   6.478
   59POPC   C4A 1017   7.312   7.683   6.010
   59POPC   C1B 1018   7.335   8.260   7.219
   59POPC   C2B 1019   7.177   8.089   6.858
   59POPC   C3B 1020   7.187   8.197   6.488
   59POPC   C4B 1021   7.021   8.051   6.130
   60POPC   NC3 1022   2.735   6.611   8.159
   60POPC   PO4 1023   3.010   5.962   8.011
   60POPC   GL1 1024   2.802   6.238   7.681
   60POPC   GL2 1025   2.518   6.457   7.731
   60POPC   C1A 1026   2.866   6.365   7.224
   60POPC   D2A 1027   3.145   6.271   6.833
   60POPC   C3A 1028   3.005   6.406   6.402
   60POPC   C4A 1029   3.020   6.146   5.984
   60POPC   C1B 1030   2.300   6.282   7.368
   60POPC   C2B 1031   2.224   6.218   6.927
   60POPC   C3B 1032   2.429   6.403   6.539
   60POPC   C4B 1033   2.570   6.369   6.108
   61POPC   NC3 1034   8.127   4.256   7.979
   61POPC   PO4 1035   7.726   3.810   8.240
   61POPC   GL1 1036   7.749   3.875   7.791
   61POPC   GL2 1037   7.793   4.142   7.604
   61POPC   C1A 1038   7.703   3.731   7.324
   61POPC   D2A 1039   7.648   3.920   6.878
   61POPC   C3A 1040   7.972   3.893   6.548
   61POPC   C4A 1041   8.162   4.139   6.226
   61POPC   C1B 1042   8.025   4.130   7.203
   61POPC   C2B 1043   8.022   4.328   6.777
   61POPC   C3B 1044   7.824   4.470   6.375
   61POPC   C4B 1045   7.479   4.524   6.070
   62POPC   NC3 1046   0.165   0.442   7.929
   62POPC   PO4 1047   0.643   0.040   8.018
   62POPC   GL1 1048   0.548   0.190   7.624
   62POPC   GL2 1049   0.647   0.535   7.760
   62POPC   C1A 1050   0.328   0.099   7.201
   62POPC   D2A 1051   0.280   0.169   6.709
   62POPC   C3A 1052   0.263  10.433   6.310
   62POPC   C4A 1053   0.561   0.045   5.993
   62POPC   C1B 1054   0.473   0.624   7.353
   62POPC   C2B 1055   0.606   0.501   6.958
   62POPC   C3B 1056   0.539   0.618   6.566
   62POPC   C4B 1057   0.327   0.420   6.251
   63POPC   NC3 1058   0.189   4.449   8.404
   63POPC   PO4 1059   0.358   3.911   8.036
   63POPC   GL1 1060   0.571   4.061   7.711
   63POPC   GL2 1061   0.588   4.389   7.733
   63POPC   C1A 1062   0.411   4.105   7.275
   63POPC   D2A 1063   0.483   3.929   6.879
   63POPC   C3A 1064   0.325   4.072   6.486
   63POPC   C4A 1065   0.522   4.054   6.087
   63POPC   C1B 1066   0.608   4.589   7.338
   63POPC   C2B 1067   0.404   4.542   6.946
   63POPC   C3B 1068   0.538   4.572   6.533
   63POPC   C4B 1069   0.763   4.481   6.164
   64POPC   NC3 1070   3.981   0.715   8.085
   64POPC   PO4 1071   3.998   0.055   8.077
   64POPC   GL1 1072   3.931   0.303   7.748
   64POPC   GL2 1073   4.275   0.427   7.738
   64POPC   C1A 1074   3.933   0.192   7.327
   64POPC   D2A 1075   3.742   0.342   6.953
   64POPC   C3A 1076   3.849   0.249   6.528
   64POPC   C4A 1077   3.878   0.609   6.286
   64POPC   C1B 1078   4.449   0.191   7.378
   64POPC   C2B 1079   4.273   0.204   6.956
   64POPC   C3B 1080   4.200   0.564   6.696
   64POPC   C4B 1081   4.352   0.361   6.321
   65POPC   NC3 1082   5.006   9.617   8.256
   65POPC   PO4 1083   4.617   9.106   8.151
   65POPC   GL1 1084   4.975   9.345   7.822
   65POPC   GL2 1085   5.065   9.740   7.772
   65POPC   C1A 1086   5.162   9.462   7.384
   65POPC   D2A 1087   4.890   9.497   7.054
   65POPC   C3A 1088   5.052   9.489   6.698
   65POPC   C4A 1089   5.222   9.509   6.353
   65POPC   C1B 1090   4.676   9.648   7.495
   65POPC   C2B 1091   4.429   9.730   7.083
   65POPC   C3B 1092   4.524   9.627   6.646
   65POPC   C4B 1093   4.725   9.362   6.321
   66POPC   NC3 1094   2.748   5.052   8.096
   66POPC   PO4 1095   2.976   4.482   8.042
   66POPC   GL1 1096   2.814   4.717   7.709
   66POPC   GL2 1097   2.458   4.744   7.778
   66POPC   C1A 1098   2.711   5.013   7.370
   66POPC   D2A 1099   2.780   5.352   7.093
   66POPC   C3A 1100   2.872   5.112   6.724
   66POPC   C4A 1101   2.844   5.188   6.301
   66POPC   C1B 1102   2.505   4.536   7.359
   66POPC   C2B 1103   2.637   4.671   6.962
   66POPC   C3B 1104   2.601   4.714   6.524
   66POPC   C4B 1105   2.875   4.689   6.194
   67POPC   NC3 1106   8.845   8.444   8.023
   67POPC   PO4 1107   9.041   9.078   8.069
   67POPC   GL1 1108   8.947   8.806   7.677
   67POPC   GL2 1109   8.755   8.510   7.548
   67POPC   C1A 1110   9.097   8.788   7.272
   67POPC   D2A 1111   9.090   8.430   7.029
   67POPC   C3A 1112   9.152   8.552   6.612
   67POPC   C4A 1113   9.034   8.382   6.228
   67POPC   C1B 1114   8.578   8.696   7.221
   67POPC   C2B 1115   8.642   8.614   6.799
   67POPC   C3B 1116   8.664   8.715   6.353
   67POPC   C4B 1117   8.510   8.445   5.986
   68POPC   NC3 1118   5.256   0.535   7.922
   68POPC   PO4 1119   4.994  10.466   8.111
   68POPC   GL1 1120   4.821   0.221   7.750
   68POPC   GL2 1121   4.764   0.603   7.771
   68POPC   C1A 1122   4.969   0.341   7.325
   68POPC   D2A 1123   5.173   0.510   6.965
   68POPC   C3A 1124   5.050   0.399   6.612
   68POPC   C4A 1125   5.117   0.345   6.197
   68POPC   C1B 1126   4.578   0.692   7.364
   68POPC   C2B 1127   4.659   0.538   6.948
   68POPC   C3B 1128   4.661   0.701   6.540
   68POPC   C4B 1129   4.743   0.657   6.093
   69POPC   NC3 1130   9.345   5.481   7.992
   69POPC   PO4 1131   9.749   6.009   8.221
   69POPC   GL1 1132   9.731   5.847   7.799
   69POPC   GL2 1133   9.406   5.802   7.609
   69POPC   C1A 1134   9.807   5.970   7.370
   69POPC   D2A 1135   9.491   5.911   7.052
   69POPC   C3A 1136   9.593   5.951   6.633
   69POPC   C4A 1137   9.461   5.970   6.232
   69POPC   C1B 1138   9.359   5.463   7.288
   69POPC   C2B 1139   9.177   5.374   6.891
   69POPC   C3B 1140   9.198   5.577   6.514
   69POPC   C4B 1141   9.188   5.348   6.165
   70POPC   NC3 1142   4.298   2.801   7.983
   70POPC   PO4 1143   3.821   2.357   8.012
   70POPC   GL1 1144   4.031   2.533   7.625
   70POPC   GL2 1145   3.960   2.866   7.582
   70POPC   C1A 1146   4.327   2.543   7.232
   70POPC   D2A 1147   4.443   2.802   6.830
   70POPC   C3A 1148   4.242   2.763   6.440
   70POPC   C4A 1149   4.110   2.537   6.080
   70POPC   C1B 1150   3.842   2.711   7.172
   70POPC   C2B 1151   3.809   2.733   6.717
   70POPC   C3B 1152   3.746   2.842   6.316
   70POPC   C4B 1153   3.711   2.750   5.877
   71POPC   NC3 1154   7.004   6.889   8.481
   71POPC   PO4 1155   7.541   6.836   8.088
   71POPC   GL1 1156   7.550   6.687   7.696
   71POPC   GL2 1157   7.345   6.411   7.665
   71POPC   C1A 1158   7.334   6.805   7.308
   71POPC   D2A 1159   7.109   6.779   6.937
   71POPC   C3A 1160   7.252   6.793   6.524
   71POPC   C4A 1161   7.074   6.521   6.210
   71POPC   C1B 1162   7.167   6.329   7.223
   71POPC   C2B 1163   7.204   6.143   6.812
   71POPC   C3B 1164   6.984   6.070   6.436
   71POPC   C4B 1165   7.231   6.038   6.054
   72POPC   NC3 1166   1.072   5.679   8.094
   72POPC   PO4 1167   1.487   6.155   8.046
   72POPC   GL1 1168   1.544   5.825   7.707
   72POPC   GL2 1169   1.351   5.526   7.704
   72POPC   C1A 1170   1.523   5.673   7.262
   72POPC   D2A 1171   1.316   5.872   6.939
   72POPC   C3A 1172   1.505   5.948   6.539
   72POPC   C4A 1173   1.336   5.767   6.178
   72POPC   C1B 1174   1.033   5.559   7.379
   72POPC   C2B 1175   1.068   5.379   6.963
   72POPC   C3B 1176   1.110   5.551   6.567
   72POPC   C4B 1177   0.943   5.401   6.171
   73POPC   NC3 1178   3.603  10.290   8.108
   73POPC   PO4 1179   3.114   9.871   7.923
   73POPC   GL1 1180   3.464   9.989   7.666
   73POPC   GL2 1181   3.589  10.346   7.609
   73POPC   C1A 1182   3.412   9.956   7.233
   73POPC   D2A 1183   3.486   9.681   6.916
   73POPC   C3A 1184   3.452   9.915   6.602
   73POPC   C4A 1185   3.210  10.095   6.337
   73POPC   C1B 1186   3.506  10.450   7.202
   73POPC   C2B 1187   3.645  10.361   6.793
   73POPC   C3B 1188   3.774  10.269   6.366
   73POPC   C4B 1189   3.664   9.937   6.131
   74POPC   NC3 1190   0.171   8.482   7.905
   74POPC   PO4 1191   0.832   8.704   8.159
   74POPC   GL1 1192   0.708   8.763   7.699
   74POPC   GL2 1193   0.373   8.858   7.639
   74POPC   C1A 1194   0.709   8.551   7.288
   74POPC   D2A 1195   0.629   8.772   6.926
   74POPC   C3A 1196   0.757   8.581   6.591
   74POPC   C4A 1197   0.623   8.568   6.219
   74POPC   C1B 1198   0.207   8.688   7.269
   74POPC   C2B 1199   0.133   8.831   6.877
   74POPC   C3B 1200   0.213   8.611   6.528
   74POPC   C4B 1201   0.071   8.519   6.136
   75POPC   NC3 1202   1.069   6.394   8.057
   75POPC   PO4 1203   0.923   6.966   8.199
   75POPC   GL1 1204   1.202   6.839   7.784
   75POPC   GL2 1205   1.017   6.599   7.598
   75POPC   C1A 1206   1.415   6.724   7.322
   75POPC   D2A 1207   1.217   6.533   6.932
   75POPC   C3A 1208   1.411   6.545   6.491
   75POPC   C4A 1209   1.311   6.512   6.021
   75POPC   C1B 1210   1.083   6.189   7.389
   75POPC   C2B 1211   0.875   6.127   6.998
   75POPC   C3B 1212   1.030   6.146   6.580
   75POPC   C4B 1213   0.999   6.148   6.150
   76POPC   NC3 1214   0.098   4.250   7.836
   76POPC   PO4 1215  10.058   4.488   8.198
   76POPC   GL1 1216  10.080   4.285   7.781
   76POPC   GL2 1217  10.132   3.938   7.646
   76POPC   C1A 1218   9.935   4.298   7.341
   76POPC   D2A 1219  10.125   4.342   6.935
   76POPC   C3A 1220   9.894   4.393   6.580
   76POPC   C4A 1221  10.084   4.410   6.193
   76POPC   C1B 1222  10.377   4.036   7.274
   76POPC   C2B 1223  10.454   3.928   6.842
   76POPC   C3B 1224  10.281   3.998   6.432
   76POPC   C4B 1225  10.473   4.030   6.018
   77POPC   NC3 1226   1.864   5.863   8.129
   77POPC   PO4 1227   1.495   5.363   8.157
   77POPC   GL1 1228   1.845   5.425   7.814
   77POPC   GL2 1229   2.108   5.670   7.736
   77POPC   C1A 1230   1.839   5.306   7.405
   77POPC   D2A 1231   1.904   5.316   6.971
   77POPC   C3A 1232   1.639   5.452   6.639
   77POPC   C4A 1233   1.883   5.413   6.237
   77POPC   C1B 1234   2.012   5.848   7.340
   77POPC   C2B 1235   1.842   5.874   6.925
   77POPC   C3B 1236   2.020   5.800   6.538
   77POPC   C4B 1237   2.230   6.007   6.244
   78POPC   NC3 1238   8.436   3.305   7.952
   78POPC   PO4 1239   9.125   3.135   8.007
   78POPC   GL1 1240   8.862   3.369   7.691
   78POPC   GL2 1241   8.854   3.726   7.693
   78POPC   C1A 1242   8.682   3.503   7.278
   78POPC   D2A 1243   8.567   3.280   6.919
   78POPC   C3A 1244   8.733   3.356   6.491
   78POPC   C4A 1245   8.462   3.294   6.111
   78POPC   C1B 1246   9.066   3.907   7.345
   78POPC   C2B 1247   8.890   3.986   6.949
   78POPC   C3B 1248   8.955   3.887   6.527
   78POPC   C4B 1249   8.956   3.673   6.145
   79POPC   NC3 1250   9.866   4.146   8.475
   79POPC   PO4 1251   9.200   4.301   8.166
   79POPC   GL1 1252   9.325   4.102   7.758
   79POPC   GL2 1253   9.620   4.071   7.686
   79POPC   C1A 1254   9.409   4.323   7.329
   79POPC   D2A 1255   9.253   4.332   6.923
   79POPC   C3A 1256   9.400   4.493   6.544
   79POPC   C4A 1257   9.247   4.240   6.191
   79POPC   C1B 1258   9.641   3.865   7.334
   79POPC   C2B 1259   9.684   4.048   6.949
   79POPC   C3B 1260   9.484   3.974   6.578
   79POPC   C4B 1261   9.752   4.021   6.244
   80POPC   NC3 1262   6.319   6.637   7.797
   80POPC   PO4 1263   6.714   7.081   8.151
   80POPC   GL1 1264   6.672   7.090   7.681
   80POPC   GL2 1265   6.383   7.300   7.640
   80POPC   C1A 1266   6.703   6.851   7.259
   80POPC   D2A 1267   6.641   6.906   6.798
   80POPC   C3A 1268   6.582   6.629   6.439
   80POPC   C4A 1269   6.286   6.640   6.100
   80POPC   C1B 1270   6.543   7.377   7.232
   80POPC   C2B 1271   6.345   7.313   6.851
   80POPC   C3B 1272   6.306   7.111   6.455
   80POPC   C4B 1273   6.067   7.375   6.209
   81POPC   NC3 1274   0.615   1.106   8.334
   81POPC   PO4 1275  10.491   0.806   8.152
   81POPC   GL1 1276   0.025   0.950   7.722
   81POPC   GL2 1277   0.091   1.309   7.743
   81POPC   C1A 1278   0.078   0.939   7.267
   81POPC   D2A 1279   0.445   0.998   6.977
   81POPC   C3A 1280   0.412   1.103   6.550
   81POPC   C4A 1281   0.405   0.896   6.150
   81POPC   C1B 1282   0.319   1.348   7.363
   81POPC   C2B 1283   0.193   1.472   6.930
   81POPC   C3B 1284   0.302   1.571   6.453
   81POPC   C4B 1285   0.540   1.364   6.078
   82POPC   NC3 1286   9.289   6.277   8.185
   82POPC   PO4 1287   8.887   6.678   7.808
   82POPC   GL1 1288   9.021   6.266   7.732
   82POPC   GL2 1289   9.393   6.313   7.685
   82POPC   C1A 1290   9.096   6.125   7.316
   82POPC   D2A 1291   8.921   6.342   6.943
   82POPC   C3A 1292   9.139   6.260   6.558
   82POPC   C4A 1293   9.182   6.656   6.399
   82POPC   C1B 1294   9.318   6.578   7.302
   82POPC   C2B 1295   9.480   6.448   6.894
   82POPC   C3B 1296   9.635   6.433   6.465
   82POPC   C4B 1297   9.944   6.172   6.266
   83POPC   NC3 1298   9.488   0.598   7.955
   83POPC   PO4 1299   8.993   0.280   8.287
   83POPC   GL1 1300   9.135   0.276   7.788
   83POPC   GL2 1301   9.478   0.264   7.580
   83POPC   C1A 1302   9.083   0.450   7.337
   83POPC   D2A 1303   9.305   0.351   6.931
   83POPC   C3A 1304   9.138   0.462   6.524
   83POPC   C4A 1305   9.008   0.859   6.428
   83POPC   C1B 1306   9.611   0.606   7.297
   83POPC   C2B 1307   9.648   0.740   6.861
   83POPC   C3B 1308   9.619   0.681   6.413
   83POPC   C4B 1309   9.487   0.317   6.165
   84POPC   NC3 1310   7.152   7.028   7.905
   84POPC   PO4 1311   7.522   7.445   8.322
   84POPC   GL1 1312   7.380   7.449   7.796
   84POPC   GL2 1313   7.054   7.444   7.627
   84POPC   C1A 1314   7.475   7.342   7.360
   84POPC   D2A 1315   7.514   7.113   6.947
   84POPC   C3A 1316   7.572   7.312   6.557
   84POPC   C4A 1317   7.281   7.237   6.262
   84POPC   C1B 1318   7.025   7.243   7.172
   84POPC   C2B 1319   7.003   7.244   6.702
   84POPC   C3B 1320   6.820   7.047   6.315
   84POPC   C4B 1321   6.757   6.773   5.913
   85POPC   NC3 1322   7.868   1.753   8.209
   85POPC   PO4 1323   8.395   2.056   8.392
   85POPC   GL1 1324   8.075   2.017   7.848
   85POPC   GL2 1325   7.772   1.776   7.712
   85POPC   C1A 1326   8.130   1.838   7.357
   85POPC   D2A 1327   8.229   1.808   6.876
   85POPC   C3A 1328   8.004   1.618   6.499
   85POPC   C4A 1329   8.115   1.554   6.026
   85POPC   C1B 1330   7.704   2.097   7.388
   85POPC   C2B 1331   7.883   2.173   6.983
   85POPC   C3B 1332   7.898   2.110   6.569
   85POPC   C4B 1333   8.036   2.031   6.197
   86POPC   NC3 1334   7.016   9.158   8.140
   86POPC   PO4 1335   7.351   9.730   8.382
   86POPC   GL1 1336   7.388   9.368   7.900
   86POPC   GL2 1337   7.112   9.458   7.695
   86POPC   C1A 1338   7.421   9.136   7.437
   86POPC   D2A 1339   7.343   8.937   7.005
   86POPC   C3A 1340   7.350   9.178   6.621
   86POPC   C4A 1341   7.475   9.052   6.192
   86POPC   C1B 1342   6.833   9.286   7.347
   86POPC   C2B 1343   6.879   9.208   6.892
   86POPC   C3B 1344   6.919   9.442   6.470
   86POPC   C4B 1345   7.339   9.599   6.313
   87POPC   NC3 1346   6.974   1.091   8.153
   87POPC   PO4 1347   7.461   1.549   8.145
   87POPC   GL1 1348   7.255   1.330   7.745
   87POPC   GL2 1349   6.955   1.171   7.674
   87POPC   C1A 1350   7.288   1.182   7.311
   87POPC   D2A 1351   7.299   1.105   6.895
   87POPC   C3A 1352   7.121   1.373   6.573
   87POPC   C4A 1353   7.159   1.344   6.115
   87POPC   C1B 1354   6.849   0.836   7.379
   87POPC   C2B 1355   6.946   0.698   6.951
   87POPC   C3B 1356   7.115   0.810   6.532
   87POPC   C4B 1357   6.841   1.009   6.301
   88POPC   NC3 1358   2.537   0.926   8.157
   88POPC   PO4 1359   3.170   0.994   8.138
   88POPC   GL1 1360   3.078   1.227   7.734
   88POPC   GL2 1361   2.761   1.111   7.725
   88POPC   C1A 1362   3.067   1.373   7.298
   88POPC   D2A 1363   3.013   1.125   6.959
   88POPC   C3A 1364   2.858   1.247   6.566
   88POPC   C4A 1365   3.015   1.086   6.208
   88POPC   C1B 1366   2.607   1.082   7.306
   88POPC   C2B 1367   2.491   1.283   6.910
   88POPC   C3B 1368   2.313   1.154   6.517
   88POPC   C4B 1369   2.481   1.046   6.110
   89POPC   NC3 1370   0.532   9.062   8.081
   89POPC   PO4 1371   0.427   9.740   8.001
   89POPC   GL1 1372   0.603   9.392   7.701
   89POPC   GL2 1373   0.319   9.365   7.629
   89POPC   C1A 1374   0.560   9.152   7.257
   89POPC   D2A 1375   0.360   9.285   6.841
   89POPC   C3A 1376   0.496   9.033   6.489
   89POPC   C4A 1377   0.515   9.023   6.019
   89POPC   C1B 1378   0.495   9.667   7.316
   89POPC   C2B 1379   0.388   9.795   6.945
   89POPC   C3B 1380   0.466   9.740   6.541
   89POPC   C4B 1381   0.310   9.446   6.266
   90POPC   NC3 1382   5.697   8.992   8.021
   90POPC   PO4 1383   5.460   9.643   8.130
   90POPC   GL1 1384   5.542   9.439   7.753
   90POPC   GL2 1385   5.901   9.440   7.801
   90POPC   C1A 1386   5.596   9.186   7.376
   90POPC   D2A 1387   5.335   9.163   6.981
   90POPC   C3A 1388   5.516   9.135   6.576
   90POPC   C4A 1389   5.742   9.324   6.243
   90POPC   C1B 1390   5.916   9.596   7.385
   90POPC   C2B 1391   5.633   9.582   7.035
   90POPC   C3B 1392   5.648   9.657   6.622
   90POPC   C4B 1393   6.016   9.791   6.348
   91POPC   NC3 1394   3.680   2.807   8.024
   91POPC   PO4 1395   3.045   3.053   8.224
   91POPC   GL1 1396   3.206   2.876   7.809
   91POPC   GL2 1397   3.359   2.497   7.792
   91POPC   C1A 1398   3.187   2.976   7.368
   91POPC   D2A 1399   3.086   2.768   6.992
   91POPC   C3A 1400   3.213   2.882   6.576
   91POPC   C4A 1401   3.325   3.078   6.209
   91POPC   C1B 1402   3.368   2.499   7.359
   91POPC   C2B 1403   3.460   2.449   6.937
   91POPC   C3B 1404   3.465   2.429   6.505
   91POPC   C4B 1405   3.293   2.563   6.134
   92POPC   NC3 1406   1.906   8.218   8.130
   92POPC   PO4 1407   1.718   7.571   8.175
   92POPC   GL1 1408   1.707   7.806   7.773
   92POPC   GL2 1409   1.778   8.111   7.653
   92POPC   C1A 1410   1.727   7.656   7.330
   92POPC   D2A 1411   1.693   7.893   6.952
   92POPC   C3A 1412   1.671   7.764   6.514
   92POPC   C4A 1413   1.674   8.192   6.292
   92POPC   C1B 1414   2.103   7.976   7.382
   92POPC   C2B 1415   2.175   7.764   6.975
   92POPC   C3B 1416   2.094   8.029   6.615
   92POPC   C4B 1417   2.090   7.850   6.222
   93POPC   NC3 1418   7.718   7.737   7.993
   93POPC   PO4 1419   8.100   8.249   8.181
   93POPC   GL1 1420   8.004   8.066   7.731
   93POPC   GL2 1421   7.641   8.149   7.667
   93POPC   C1A 1422   8.133   7.891   7.300
   93POPC   D2A 1423   8.111   8.147   6.906
   93POPC   C3A 1424   8.145   8.010   6.496
   93POPC   C4A 1425   8.093   8.229   6.162
   93POPC   C1B 1426   7.625   7.840   7.342
   93POPC   C2B 1427   7.661   7.947   6.934
   93POPC   C3B 1428   7.644   7.857   6.521
   93POPC   C4B 1429   7.574   8.116   6.187
   94POPC   NC3 1430   0.537   7.482   7.953
   94POPC   PO4 1431   0.414   6.907   7.843
   94POPC   GL1 1432   0.757   7.052   7.658
   94POPC   GL2 1433   0.552   7.269   7.493
   94POPC   C1A 1434   0.797   6.923   7.229
   94POPC   D2A 1435   0.469   7.129   7.001
   94POPC   C3A 1436   0.492   7.026   6.603
   94POPC   C4A 1437   0.709   7.169   6.257
   94POPC   C1B 1438   0.103   7.197   7.357
   94POPC   C2B 1439  10.417   7.376   7.028
   94POPC   C3B 1440   0.211   7.452   6.690
   94POPC   C4B 1441   0.192   7.305   6.275
   95POPC   NC3 1442   2.167   7.433   8.111
   95POPC   PO4 1443   1.612   6.945   8.061
   95POPC   GL1 1444   1.648   7.080   7.648
   95POPC   GL2 1445   1.858   7.335   7.705
   95POPC   C1A 1446   1.691   7.167   7.196
   95POPC   D2A 1447   1.659   6.895   6.853
   95POPC   C3A 1448   1.592   7.060   6.472
   95POPC   C4A 1449   1.677   6.848   6.114
   95POPC   C1B 1450   2.207   7.448   7.429
   95POPC   C2B 1451   2.220   7.181   7.083
   95POPC   C3B 1452   2.007   7.278   6.712
   95POPC   C4B 1453   2.002   7.324   6.263
   96POPC   NC3 1454   4.242   3.535   8.073
   96POPC   PO4 1455   4.623   4.012   7.828
   96POPC   GL1 1456   4.305   3.684   7.594
   96POPC   GL2 1457   4.319   3.284   7.634
   96POPC   C1A 1458   4.172   3.556   7.173
   96POPC   D2A 1459   4.456   3.403   6.824
   96POPC   C3A 1460   4.425   3.670   6.469
   96POPC   C4A 1461   4.157   3.661   6.109
   96POPC   C1B 1462   4.277   3.064   7.246
   96POPC   C2B 1463   4.023   3.143   6.881
   96POPC   C3B 1464   4.054   3.267   6.473
   96POPC   C4B 1465   4.456   3.208   6.294
   97POPC   NC3 1466   5.107   2.913   8.117
   97POPC   PO4 1467   4.552   3.152   8.101
   97POPC   GL1 1468   4.722   2.911   7.698
   97POPC   GL2 1469   5.085   2.795   7.623
   97POPC   C1A 1470   4.759   2.851   7.225
   97POPC   D2A 1471   4.984   2.837   6.791
   97POPC   C3A 1472   4.761   2.777   6.394
   97POPC   C4A 1473   4.534   2.802   5.993
   97POPC   C1B 1474   5.232   2.645   7.209
   97POPC   C2B 1475   5.201   2.368   6.823
   97POPC   C3B 1476   5.253   2.541   6.396
   97POPC   C4B 1477   5.242   2.986   6.345
   98POPC   NC3 1478   1.757   6.522   8.109
   98POPC   PO4 1479   2.228   6.128   8.049
   98POPC   GL1 1480   1.903   6.195   7.713
   98POPC   GL2 1481   1.799   6.549   7.618
   98POPC   C1A 1482   1.629   6.185   7.315
   98POPC   D2A 1483   1.713   6.398   6.932
   98POPC   C3A 1484   1.901   6.320   6.537
   98POPC   C4A 1485   1.710   6.229   6.156
   98POPC   C1B 1486   1.970   6.727   7.255
   98POPC   C2B 1487   2.139   6.726   6.843
   98POPC   C3B 1488   2.101   6.827   6.424
   98POPC   C4B 1489   2.098   6.548   6.072
   99POPC   NC3 1490   1.301   2.878   7.891
   99POPC   PO4 1491   0.896   2.216   8.003
   99POPC   GL1 1492   0.975   2.493   7.667
   99POPC   GL2 1493   0.868   2.833   7.644
   99POPC   C1A 1494   0.963   2.314   7.278
   99POPC   D2A 1495   1.165   2.307   6.889
   99POPC   C3A 1496   0.969   2.377   6.506
   99POPC   C4A 1497   1.106   2.459   6.069
   99POPC   C1B 1498   1.116   2.788   7.247
   99POPC   C2B 1499   1.062   2.794   6.807
   99POPC   C3B 1500   1.259   2.808   6.438
   99POPC   C4B 1501   0.880   2.883   6.232
  100POPC   NC3 1502   8.018  10.280   8.093
  100POPC   PO4 1503   8.284   9.724   8.029
  100POPC   GL1 1504   7.968   9.928   7.715
  100POPC   GL2 1505   7.692  10.233   7.670
  100POPC   C1A 1506   8.068  10.193   7.352
  100POPC   D2A 1507   8.066  10.025   6.925
  100POPC   C3A 1508   8.163  10.226   6.537
  100POPC   C4A 1509   7.915  10.295   6.164
  100POPC   C1B 1510   7.615  10.026   7.236
  100POPC   C2B 1511   7.568  10.001   6.792
  100POPC   C3B 1512   7.760   9.905   6.446
  100POPC   C4B 1513   7.679   9.868   6.018
  101POPC   NC3 1514   2.008   1.350   8.088
  101POPC   PO4 1515   1.927   2.033   8.090
  101POPC   GL1 1516   1.769   1.960   7.677
  101POPC   GL2 1517   1.926   2.276   7.631
  101POPC   C1A 1518   1.734   1.723   7.266
  101POPC   D2A 1519   2.048   1.795   6.893
  101POPC   C3A 1520   2.112   1.699   6.447
  101POPC   C4A 1521   1.855   1.674   5.997
  101POPC   C1B 1522   1.974   2.168   7.233
  101POPC   C2B 1523   1.821   2.334   6.895
  101POPC   C3B 1524   1.951   2.351   6.532
  101POPC   C4B 1525   1.892   2.103   6.248
  102POPC   NC3 1526   0.623   3.517   8.080
  102POPC   PO4 1527   0.002   3.313   7.891
  102POPC   GL1 1528   0.095   3.681   7.650
  102POPC   GL2 1529   0.433   3.585   7.625
  102POPC   C1A 1530   0.155   3.613   7.212
  102POPC   D2A 1531   0.235   3.270   6.972
  102POPC   C3A 1532   0.266   3.494   6.612
  102POPC   C4A 1533   0.266   3.633   6.208
  102POPC   C1B 1534   0.705   3.677   7.299
  102POPC   C2B 1535   0.743   3.500   6.892
  102POPC   C3B 1536   0.729   3.656   6.472
  102POPC   C4B 1537   0.684   3.351   6.192
  103POPC   NC3 1538   0.364  10.199   8.143
  103POPC   PO4 1539   1.090  10.222   8.143
  103POPC   GL1 1540   0.854  10.243   7.679
  103POPC   GL2 1541   0.525  10.142   7.671
  103POPC   C1A 1542   0.767  10.100   7.224
  103POPC   D2A 1543   0.538  10.265   6.877
  103POPC   C3A 1544   0.718  10.356   6.495
  103POPC   C4A 1545   0.634  10.076   6.192
  103POPC   C1B 1546   0.207  10.087   7.383
  103POPC   C2B 1547  10.494  10.120   7.016
  103POPC   C3B 1548   0.080  10.086   6.624
  103POPC   C4B 1549   0.111   9.939   6.222
  104POPC   NC3 1550   7.732   1.280   7.886
  104POPC   PO4 1551   8.259   0.945   8.146
  104POPC   GL1 1552   8.145   1.024   7.686
  104POPC   GL2 1553   7.995   1.345   7.467
  104POPC   C1A 1554   8.270   0.997   7.256
  104POPC   D2A 1555   8.170   1.272   6.889
  104POPC   C3A 1556   8.130   1.138   6.469
  104POPC   C4A 1557   7.994   1.050   6.084
  104POPC   C1B 1558   7.771   1.028   7.198
  104POPC   C2B 1559   7.755   0.933   6.755
  104POPC   C3B 1560   7.613   1.249   6.453
  104POPC   C4B 1561   7.628   1.517   6.097
  105POPC   NC3 1562   6.927   9.972   7.902
  105POPC   PO4 1563   6.313   9.584   8.066
  105POPC   GL1 1564   6.220   9.914   7.730
  105POPC   GL2 1565   6.496  10.170   7.668
  105POPC   C1A 1566   6.068  10.077   7.324
  105POPC   D2A 1567   6.144   9.914   6.903
  105POPC   C3A 1568   6.169  10.241   6.606
  105POPC   C4A 1569   6.299  10.234   6.199
  105POPC   C1B 1570   6.780  10.257   7.319
  105POPC   C2B 1571   6.735  10.079   6.924
  105POPC   C3B 1572   6.689  10.289   6.582
  105POPC   C4B 1573   6.724   0.030   6.242
  106POPC   NC3 1574   4.826   1.951   8.000
  106POPC   PO4 1575   5.139   2.458   8.095
  106POPC   GL1 1576   4.927   2.308   7.654
  106POPC   GL2 1577   4.948   1.938   7.508
  106POPC   C1A 1578   4.827   2.341   7.220
  106POPC   D2A 1579   4.645   2.314   6.837
  106POPC   C3A 1580   4.848   2.263   6.445
  106POPC   C4A 1581   4.699   2.323   6.017
  106POPC   C1B 1582   4.776   1.841   7.115
  106POPC   C2B 1583   4.940   1.860   6.740
  106POPC   C3B 1584   5.029   1.735   6.364
  106POPC   C4B 1585   5.083   2.008   6.073
  107POPC   NC3 1586  10.212   8.515   8.247
  107POPC   PO4 1587   9.767   9.020   8.070
  107POPC   GL1 1588   9.994   8.824   7.709
  107POPC   GL2 1589  10.142   8.488   7.731
  107POPC   C1A 1590  10.194   8.798   7.303
  107POPC   D2A 1591   9.983   8.820   6.930
  107POPC   C3A 1592  10.218   8.727   6.597
  107POPC   C4A 1593  10.066   8.727   6.205
  107POPC   C1B 1594  10.306   8.314   7.349
  107POPC   C2B 1595  10.401   8.394   6.938
  107POPC   C3B 1596  10.312   8.240   6.524
  107POPC   C4B 1597  10.153   8.222   6.119
  108POPC   NC3 1598   1.989   9.886   8.012
  108POPC   PO4 1599   1.584   9.359   8.241
  108POPC   GL1 1600   1.796   9.424   7.783
  108POPC   GL2 1601   2.055   9.157   7.693
  108POPC   C1A 1602   1.965   9.464   7.318
  108POPC   D2A 1603   1.749   9.542   6.934
  108POPC   C3A 1604   1.898   9.582   6.503
  108POPC   C4A 1605   1.625   9.580   6.159
  108POPC   C1B 1606   2.151   8.959   7.324
  108POPC   C2B 1607   2.107   9.105   6.931
  108POPC   C3B 1608   1.865   9.095   6.592
  108POPC   C4B 1609   1.934   9.167   6.183
  109POPC   NC3 1610   0.875   9.801   7.927
  109POPC   PO4 1611   1.542   9.979   8.022
  109POPC   GL1 1612   1.295   9.980   7.708
  109POPC   GL2 1613   1.344  10.290   7.629
  109POPC   C1A 1614   1.260   9.957   7.272
  109POPC   D2A 1615   1.260   9.747   6.917
  109POPC   C3A 1616   0.959   9.917   6.653
  109POPC   C4A 1617   1.125   9.827   6.262
  109POPC   C1B 1618   1.138  10.470   7.285
  109POPC   C2B 1619   1.065  10.406   6.867
  109POPC   C3B 1620   1.230  10.336   6.452
  109POPC   C4B 1621   1.059   0.009   6.067
  110POPC   NC3 1622   7.731   9.625   8.132
  110POPC   PO4 1623   8.118   9.091   8.339
  110POPC   GL1 1624   7.945   9.174   7.899
  110POPC   GL2 1625   8.248   9.305   7.741
  110POPC   C1A 1626   7.834   9.425   7.482
  110POPC   D2A 1627   7.624   9.538   7.085
  110POPC   C3A 1628   7.785   9.454   6.670
  110POPC   C4A 1629   7.827   9.419   6.240
  110POPC   C1B 1630   8.295   9.628   7.389
  110POPC   C2B 1631   8.195   9.534   6.973
  110POPC   C3B 1632   8.321   9.719   6.576
  110POPC   C4B 1633   8.184   9.823   6.165
  111POPC   NC3 1634   9.299   7.897   8.015
  111POPC   PO4 1635   9.925   8.183   8.083
  111POPC   GL1 1636   9.665   8.098   7.709
  111POPC   GL2 1637   9.713   7.717   7.745
  111POPC   C1A 1638   9.464   8.093   7.250
  111POPC   D2A 1639   9.540   7.916   6.871
  111POPC   C3A 1640   9.398   8.106   6.511
  111POPC   C4A 1641   9.245   7.936   6.126
  111POPC   C1B 1642   9.490   7.592   7.359
  111POPC   C2B 1643   9.302   7.456   6.969
  111POPC   C3B 1644   9.374   7.554   6.548
  111POPC   C4B 1645   9.546   7.456   6.198
  112POPC   NC3 1646   8.707   1.094   8.083
  112POPC   PO4 1647   8.150   1.491   7.937
  112POPC   GL1 1648   8.466   1.428   7.671
  112POPC   GL2 1649   8.811   1.475   7.740
  112POPC   C1A 1650   8.491   1.481   7.226
  112POPC   D2A 1651   8.660   1.554   6.811
  112POPC   C3A 1652   8.502   1.496   6.384
  112POPC   C4A 1653   8.587   1.448   5.928
  112POPC   C1B 1654   8.774   1.104   7.443
  112POPC   C2B 1655   8.708   1.049   7.016
  112POPC   C3B 1656   8.595   1.051   6.629
  112POPC   C4B 1657   8.555   1.006   6.198
  113POPC   NC3 1658   5.318   0.153   8.388
  113POPC   PO4 1659   5.629   0.738   8.131
  113POPC   GL1 1660   5.703   0.646   7.706
  113POPC   GL2 1661   5.851   0.329   7.728
  113POPC   C1A 1662   5.530   0.484   7.307
  113POPC   D2A 1663   5.674   0.635   6.887
  113POPC   C3A 1664   5.512   0.541   6.454
  113POPC   C4A 1665   5.483   0.796   6.058
  113POPC   C1B 1666   6.020   0.515   7.327
  113POPC   C2B 1667   6.015   0.264   6.987
  113POPC   C3B 1668   5.949   0.335   6.592
  113POPC   C4B 1669   5.980   0.703   6.301
  114POPC   NC3 1670   1.994   3.585   8.033
  114POPC   PO4 1671   2.050   3.003   8.300
  114POPC   GL1 1672   2.146   3.186   7.783
  114POPC   GL2 1673   1.933   3.427   7.574
  114POPC   C1A 1674   2.150   3.047   7.336
  114POPC   D2A 1675   1.901   3.127   6.979
  114POPC   C3A 1676   2.149   3.170   6.650
  114POPC   C4A 1677   2.129   3.444   6.361
  114POPC   C1B 1678   1.622   3.417   7.287
  114POPC   C2B 1679   1.617   3.618   6.880
  114POPC   C3B 1680   1.612   3.345   6.546
  114POPC   C4B 1681   1.650   3.175   6.166
  115POPC   NC3 1682   7.935   2.668   8.137
  115POPC   PO4 1683   7.598   2.108   8.063
  115POPC   GL1 1684   7.806   2.456   7.711
  115POPC   GL2 1685   7.974   2.853   7.688
  115POPC   C1A 1686   7.996   2.557   7.290
  115POPC   D2A 1687   7.756   2.675   6.933
  115POPC   C3A 1688   7.991   2.616   6.587
  115POPC   C4A 1689   7.818   2.511   6.216
  115POPC   C1B 1690   8.225   3.038   7.364
  115POPC   C2B 1691   8.109   3.044   6.955
  115POPC   C3B 1692   7.839   3.091   6.628
  115POPC   C4B 1693   8.020   3.002   6.234
  116POPC   NC3 1694   2.979   9.483   8.169
  116POPC   PO4 1695   2.301   9.544   8.011
  116POPC   GL1 1696   2.529   9.360   7.686
  116POPC   GL2 1697   2.834   9.502   7.679
  116POPC   C1A 1698   2.481   9.391   7.243
  116POPC   D2A 1699   2.290   9.598   6.885
  116POPC   C3A 1700   2.332   9.339   6.527
  116POPC   C4A 1701   2.419   9.273   6.096
  116POPC   C1B 1702   2.767   9.811   7.348
  116POPC   C2B 1703   2.943   9.820   6.963
  116POPC   C3B 1704   2.742   9.671   6.628
  116POPC   C4B 1705   2.803   9.604   6.236
  117POPC   NC3 1706   9.336   2.727   7.964
  117POPC   PO4 1707   9.525   2.220   8.333
  117POPC   GL1 1708   9.492   2.206   7.817
  117POPC   GL2 1709   9.232   2.392   7.600
  117POPC   C1A 1710   9.661   2.325   7.342
  117POPC   D2A 1711   9.423   2.355   6.962
  117POPC   C3A 1712   9.500   2.595   6.590
  117POPC   C4A 1713   9.280   2.654   6.191
  117POPC   C1B 1714   9.357   2.751   7.314
  117POPC   C2B 1715   9.228   2.998   6.985
  117POPC   C3B 1716   9.156   2.995   6.576
  117POPC   C4B 1717   9.567   3.087   6.400
  118POPC   NC3 1718   5.617   8.211   7.942
  118POPC   PO4 1719   6.109   8.759   8.090
  118POPC   GL1 1720   6.019   8.609   7.706
  118POPC   GL2 1721   5.689   8.687   7.597
  118POPC   C1A 1722   6.064   8.830   7.306
  118POPC   D2A 1723   5.838   8.980   6.952
  118POPC   C3A 1724   5.888   8.766   6.551
  118POPC   C4A 1725   6.012   8.875   6.152
  118POPC   C1B 1726   5.467   8.723   7.225
  118POPC   C2B 1727   5.484   8.574   6.815
  118POPC   C3B 1728   5.380   8.649   6.400
  118POPC   C4B 1729   5.664   8.491   6.108
  119POPC   NC3 1730   1.205   8.979   8.170
  119POPC   PO4 1731   1.522   8.473   8.143
  119POPC   GL1 1732   1.432   8.475   7.733
  119POPC   GL2 1733   1.190   8.653   7.764
  119POPC   C1A 1734   1.306   8.346   7.311
  119POPC   D2A 1735   1.488   8.345   6.896
  119POPC   C3A 1736   1.245   8.336   6.546
  119POPC   C4A 1737   1.227   8.553   6.215
  119POPC   C1B 1738   1.136   8.828   7.368
  119POPC   C2B 1739   1.135   8.714   6.966
  119POPC   C3B 1740   1.038   8.992   6.675
  119POPC   C4B 1741   0.944   8.966   6.268
  120POPC   NC3 1742   2.800  10.336   8.385
  120POPC   PO4 1743   2.625   0.454   8.219
  120POPC   GL1 1744   2.808   0.422   7.803
  120POPC   GL2 1745   3.055   0.681   7.723
  120POPC   C1A 1746   2.621   0.294   7.395
  120POPC   D2A 1747   2.689   0.071   7.013
  120POPC   C3A 1748   2.787   0.306   6.652
  120POPC   C4A 1749   2.797   0.209   6.230
  120POPC   C1B 1750   2.956   0.696   7.283
  120POPC   C2B 1751   2.684   0.744   6.921
  120POPC   C3B 1752   2.691   0.770   6.486
  120POPC   C4B 1753   2.376   0.518   6.330
  121POPC   NC3 1754   4.196   7.972   8.282
  121POPC   PO4 1755   4.415   7.429   8.088
  121POPC   GL1 1756   4.316   7.347   7.696
  121POPC   GL2 1757   4.057   7.119   7.687
  121POPC   C1A 1758   4.267   7.332   7.247
  121POPC   D2A 1759   4.451   7.422   6.855
  121POPC   C3A 1760   4.357   7.204   6.461
  121POPC   C4A 1761   4.598   6.953   6.146
  121POPC   C1B 1762   4.041   6.864   7.310
  121POPC   C2B 1763   4.083   6.958   6.847
  121POPC   C3B 1764   3.986   6.861   6.386
  121POPC   C4B 1765   4.145   7.101   5.987
  122POPC   NC3 1766   7.954   3.388   8.360
  122POPC   PO4 1767   8.416   3.764   8.006
  122POPC   GL1 1768   8.184   3.660   7.665
  122POPC   GL2 1769   7.924   3.377   7.740
  122POPC   C1A 1770   8.169   3.524   7.282
  122POPC   D2A 1771   7.980   3.529   6.925
  122POPC   C3A 1772   8.216   3.431   6.584
  122POPC   C4A 1773   8.029   3.506   6.227
  122POPC   C1B 1774   7.736   3.194   7.337
  122POPC   C2B 1775   7.492   3.378   6.987
  122POPC   C3B 1776   7.610   3.528   6.572
  122POPC   C4B 1777   7.576   3.288   6.222
  123POPC   NC3 1778   2.542   8.418   8.524
  123POPC   PO4 1779   2.293   7.971   8.039
  123POPC   GL1 1780   2.498   7.829   7.685
  123POPC   GL2 1781   2.837   7.906   7.741
  123POPC   C1A 1782   2.577   7.885   7.255
  123POPC   D2A 1783   2.551   8.119   6.911
  123POPC   C3A 1784   2.573   7.889   6.559
  123POPC   C4A 1785   2.587   8.035   6.167
  123POPC   C1B 1786   3.030   7.753   7.367
  123POPC   C2B 1787   2.969   7.756   6.913
  123POPC   C3B 1788   2.936   7.547   6.492
  123POPC   C4B 1789   2.983   7.716   6.096
  124POPC   NC3 1790   2.544   8.337   7.910
  124POPC   PO4 1791   2.972   8.277   8.450
  124POPC   GL1 1792   3.030   8.363   7.893
  124POPC   GL2 1793   2.999   8.691   7.674
  124POPC   C1A 1794   2.906   8.285   7.376
  124POPC   D2A 1795   2.715   8.590   7.020
  124POPC   C3A 1796   2.680   8.462   6.534
  124POPC   C4A 1797   2.981   8.445   6.168
  124POPC   C1B 1798   2.882   9.011   7.311
  124POPC   C2B 1799   2.648   9.080   6.875
  124POPC   C3B 1800   2.785   9.147   6.452
  124POPC   C4B 1801   2.690   8.860   6.127
  125POPC   NC3 1802   7.808   6.431   8.101
  125POPC   PO4 1803   8.305   6.830   8.226
  125POPC   GL1 1804   8.080   6.718   7.765
  125POPC   GL2 1805   7.986   6.335   7.663
  125POPC   C1A 1806   8.155   6.581   7.289
  125POPC   D2A 1807   8.049   6.354   6.927
  125POPC   C3A 1808   7.983   6.517   6.509
  125POPC   C4A 1809   8.258   6.686   6.199
  125POPC   C1B 1810   7.688   6.390   7.294
  125POPC   C2B 1811   7.560   6.521   6.872
  125POPC   C3B 1812   7.497   6.341   6.443
  125POPC   C4B 1813   7.580   6.443   6.015
  126POPC   NC3 1814   2.567   5.841   7.934
  126POPC   PO4 1815   2.324   5.238   8.083
  126POPC   GL1 1816   2.410   5.261   7.684
  126POPC   GL2 1817   2.703   5.479   7.607
  126POPC   C1A 1818   2.313   5.440   7.299
  126POPC   D2A 1819   2.310   5.667   6.944
  126POPC   C3A 1820   2.572   5.535   6.646
  126POPC   C4A 1821   2.475   5.534   6.250
  126POPC   C1B 1822   2.638   5.857   7.290
  126POPC   C2B 1823   2.684   6.027   6.854
  126POPC   C3B 1824   2.728   5.973   6.411
  126POPC   C4B 1825   2.978   5.676   6.204
  127POPC   NC3 1826   9.349   9.427   8.098
  127POPC   PO4 1827   9.928   9.780   7.981
  127POPC   GL1 1828   9.737   9.510   7.633
  127POPC   GL2 1829   9.372   9.404   7.601
  127POPC   C1A 1830   9.643   9.440   7.187
  127POPC   D2A 1831   9.817   9.315   6.814
  127POPC   C3A 1832   9.806   9.563   6.457
  127POPC   C4A 1833   9.605   9.777   6.121
  127POPC   C1B 1834   9.145   9.312   7.216
  127POPC   C2B 1835   9.290   9.466   6.805
  127POPC   C3B 1836   9.294   9.449   6.360
  127POPC   C4B 1837   9.066   9.197   6.079
  128POPC   NC3 1838   4.649   1.345   7.938
  128POPC   PO4 1839   5.060   0.872   8.151
  128POPC   GL1 1840   5.124   0.981   7.705
  128POPC   GL2 1841   4.849   1.104   7.531
  128POPC   C1A 1842   5.258   0.931   7.253
  128POPC   D2A 1843   4.979   0.957   6.871
  128POPC   C3A 1844   5.107   0.865   6.404
  128POPC   C4A 1845   5.042   1.036   5.944
  128POPC   C1B 1846   5.123   1.432   7.290
  128POPC   C2B 1847   5.214   1.421   6.824
  128POPC   C3B 1848   4.847   1.306   6.537
  128POPC   C4B 1849   4.668   1.354   6.135
  129POPC   NC3 1850   8.757   9.862   8.078
  129POPC   PO4 1851   8.464  10.387   8.201
  129POPC   GL1 1852   8.722  10.313   7.813
  129POPC   GL2 1853   8.503  10.050   7.655
  129POPC   C1A 1854   8.955  10.203   7.400
  129POPC   D2A 1855   9.168   9.965   7.017
  129POPC   C3A 1856   9.009   9.844   6.585
  129POPC   C4A 1857   8.737   9.992   6.278
  129POPC   C1B 1858   8.520  10.062   7.194
  129POPC   C2B 1859   8.703  10.196   6.809
  129POPC   C3B 1860   8.622  10.450   6.444
  129POPC   C4B 1861   8.400  10.262   6.037
  130POPC   NC3 1862   3.394   3.474   8.076
  130POPC   PO4 1863   3.985   3.140   8.006
  130POPC   GL1 1864   3.763   3.349   7.702
  130POPC   GL2 1865   3.375   3.406   7.584
  130POPC   C1A 1866   3.750   3.236   7.292
  130POPC   D2A 1867   3.505   3.058   6.968
  130POPC   C3A 1868   3.474   3.337   6.630
  130POPC   C4A 1869   3.669   3.596   6.320
  130POPC   C1B 1870   3.347   3.534   7.138
  130POPC   C2B 1871   3.143   3.733   6.758
  130POPC   C3B 1872   3.205   3.844   6.347
  130POPC   C4B 1873   3.271   3.553   6.002
  131POPC   NC3 1874   5.323  10.108   8.040
  131POPC   PO4 1875   4.668   9.881   8.094
  131POPC   GL1 1876   4.752  10.141   7.691
  131POPC   GL2 1877   5.094  10.271   7.627
  131POPC   C1A 1878   4.880  10.019   7.226
  131POPC   D2A 1879   5.219   9.917   6.932
  131POPC   C3A 1880   5.094  10.009   6.515
  131POPC   C4A 1881   4.664  10.035   6.348
  131POPC   C1B 1882   5.218  10.394   7.219
  131POPC   C2B 1883   4.956  10.463   6.862
  131POPC   C3B 1884   4.777   0.015   6.436
  131POPC   C4B 1885   5.043  10.329   6.107
  132POPC   NC3 1886   6.510   7.585   8.051
  132POPC   PO4 1887   6.763   8.056   8.368
  132POPC   GL1 1888   6.664   8.038   7.809
  132POPC   GL2 1889   6.653   7.743   7.608
  132POPC   C1A 1890   6.710   8.074   7.259
  132POPC   D2A 1891   6.763   7.742   6.897
  132POPC   C3A 1892   6.728   7.993   6.545
  132POPC   C4A 1893   6.523   8.038   6.146
  132POPC   C1B 1894   6.286   7.803   7.352
  132POPC   C2B 1895   6.280   7.906   6.925
  132POPC   C3B 1896   6.324   7.700   6.519
  132POPC   C4B 1897   6.053   7.878   6.242
  133POPC   NC3 1898   5.384   1.144   8.317
  133POPC   PO4 1899   5.909   1.442   8.074
  133POPC   GL1 1900   5.840   1.405   7.659
  133POPC   GL2 1901   5.596   1.157   7.684
  133POPC   C1A 1902   5.667   1.477   7.259
  133POPC   D2A 1903   5.874   1.603   6.932
  133POPC   C3A 1904   5.695   1.548   6.583
  133POPC   C4A 1905   5.859   1.358   6.221
  133POPC   C1B 1906   5.783   0.978   7.305
  133POPC   C2B 1907   5.667   1.126   6.904
  133POPC   C3B 1908   5.581   1.043   6.509
  133POPC   C4B 1909   5.306   1.306   6.306
  134POPC   NC3 1910   4.759   7.697   7.938
  134POPC   PO4 1911   5.422   7.780   7.915
  134POPC   GL1 1912   5.227   7.966   7.598
  134POPC   GL2 1913   4.887   8.115   7.634
  134POPC   C1A 1914   5.229   7.732   7.212
  134POPC   D2A 1915   4.939   7.616   6.910
  134POPC   C3A 1916   5.114   7.661   6.521
  134POPC   C4A 1917   5.219   7.688   6.107
  134POPC   C1B 1918   4.816   8.027   7.206
  134POPC   C2B 1919   4.646   8.014   6.798
  134POPC   C3B 1920   4.798   8.034   6.391
  134POPC   C4B 1921   4.669   7.921   6.025
  135POPC   NC3 1922   1.121   8.254   8.114
  135POPC   PO4 1923   0.574   8.301   7.875
  135POPC   GL1 1924   0.901   8.155   7.637
  135POPC   GL2 1925   1.229   8.005   7.699
  135POPC   C1A 1926   0.796   8.011   7.253
  135POPC   D2A 1927   0.925   8.221   6.912
  135POPC   C3A 1928   0.805   8.099   6.465
  135POPC   C4A 1929   0.885   8.173   6.032
  135POPC   C1B 1930   1.261   7.824   7.305
  135POPC   C2B 1931   1.323   7.559   6.973
  135POPC   C3B 1932   1.191   7.838   6.679
  135POPC   C4B 1933   1.250   7.900   6.240
  136POPC   NC3 1934   8.665   6.492   8.159
  136POPC   PO4 1935   8.133   6.069   8.197
  136POPC   GL1 1936   8.490   6.113   7.845
  136POPC   GL2 1937   8.486   6.439   7.666
  136POPC   C1A 1938   8.594   6.069   7.375
  136POPC   D2A 1939   8.474   5.989   6.967
  136POPC   C3A 1940   8.388   6.199   6.597
  136POPC   C4A 1941   8.300   6.117   6.198
  136POPC   C1B 1942   8.635   6.637   7.246
  136POPC   C2B 1943   8.454   6.691   6.851
  136POPC   C3B 1944   8.695   6.582   6.517
  136POPC   C4B 1945   8.784   6.306   6.182
  137POPC   NC3 1946   5.729   7.457   7.890
  137POPC   PO4 1947   6.195   7.924   8.011
  137POPC   GL1 1948   5.881   7.899   7.641
  137POPC   GL2 1949   5.753   8.200   7.451
  137POPC   C1A 1950   5.762   7.753   7.204
  137POPC   D2A 1951   5.887   7.576   6.781
  137POPC   C3A 1952   5.631   7.586   6.401
  137POPC   C4A 1953   5.639   7.425   5.955
  137POPC   C1B 1954   5.352   8.231   7.197
  137POPC   C2B 1955   5.155   8.130   6.791
  137POPC   C3B 1956   5.307   8.138   6.347
  137POPC   C4B 1957   5.618   7.977   6.035
  138POPC   NC3 1958   8.400   5.625   8.090
  138POPC   PO4 1959   9.069   5.868   8.124
  138POPC   GL1 1960   8.901   5.758   7.698
  138POPC   GL2 1961   8.598   5.621   7.634
  138POPC   C1A 1962   8.899   5.671   7.234
  138POPC   D2A 1963   9.006   5.861   6.877
  138POPC   C3A 1964   8.785   5.898   6.503
  138POPC   C4A 1965   8.984   5.828   6.106
  138POPC   C1B 1966   8.447   5.460   7.257
  138POPC   C2B 1967   8.591   5.532   6.816
  138POPC   C3B 1968   8.726   5.389   6.423
  138POPC   C4B 1969   8.529   5.637   6.147
  139POPC   NC3 1970   3.838   8.008   7.890
  139POPC   PO4 1971   4.524   8.111   7.993
  139POPC   GL1 1972   4.330   7.880   7.631
  139POPC   GL2 1973   3.995   7.701   7.523
  139POPC   C1A 1974   4.336   7.841   7.170
  139POPC   D2A 1975   4.116   7.791   6.765
  139POPC   C3A 1976   4.399   7.719   6.440
  139POPC   C4A 1977   4.333   7.554   6.078
  139POPC   C1B 1978   3.848   7.999   7.178
  139POPC   C2B 1979   3.675   8.041   6.751
  139POPC   C3B 1980   3.805   8.152   6.353
  139POPC   C4B 1981   3.907   7.757   6.231
  140POPC   NC3 1982   3.349   7.999   8.398
  140POPC   PO4 1983   3.513   8.318   7.897
  140POPC   GL1 1984   3.371   8.116   7.574
  140POPC   GL2 1985   3.347   7.821   7.764
  140POPC   C1A 1986   3.334   8.106   7.128
  140POPC   D2A 1987   3.060   8.273   6.843
  140POPC   C3A 1988   3.063   8.057   6.486
  140POPC   C4A 1989   3.338   8.082   6.148
  140POPC   C1B 1990   3.510   7.685   7.355
  140POPC   C2B 1991   3.460   7.594   6.902
  140POPC   C3B 1992   3.439   7.673   6.433
  140POPC   C4B 1993   3.461   7.618   5.952
  141POPC   NC3 1994   3.509   9.692   8.099
  141POPC   PO4 1995   3.129   9.106   7.962
  141POPC   GL1 1996   3.343   9.375   7.728
  141POPC   GL2 1997   3.599   9.117   7.702
  141POPC   C1A 1998   3.195   9.513   7.322
  141POPC   D2A 1999   3.074   9.331   6.937
  141POPC   C3A 2000   3.250   9.387   6.550
  141POPC   C4A 2001   3.306   9.594   6.187
  141POPC   C1B 2002   3.431   9.073   7.311
  141POPC   C2B 2003   3.574   9.163   6.941
  141POPC   C3B 2004   3.579   8.991   6.573
  141POPC   C4B 2005   3.623   9.180   6.221
  142POPC   NC3 2006   3.440   6.141   8.016
  142POPC   PO4 2007   3.445   6.819   8.062
  142POPC   GL1 2008   3.145   6.690   7.689
  142POPC   GL2 2009   3.286   6.372   7.552
  142POPC   C1A 2010   3.271   6.757   7.221
  142POPC   D2A 2011   3.192   6.765   6.775
  142POPC   C3A 2012   3.467   6.667   6.415
  142POPC   C4A 2013   3.406   6.457   6.002
  142POPC   C1B 2014   3.565   6.344   7.148
  142POPC   C2B 2015   3.701   6.297   6.689
  142POPC   C3B 2016   3.844   6.330   6.239
  142POPC   C4B 2017   3.660   6.006   5.931
  143POPC   NC3 2018   1.949   2.558   8.144
  143POPC   PO4 2019   1.659   3.174   7.944
  143POPC   GL1 2020   1.806   2.798   7.717
  143POPC   GL2 2021   2.179   2.701   7.709
  143POPC   C1A 2022   1.780   2.668   7.295
  143POPC   D2A 2023   1.546   2.761   6.923
  143POPC   C3A 2024   1.768   2.826   6.541
  143POPC   C4A 2025   1.649   2.589   6.172
  143POPC   C1B 2026   2.282   2.550   7.322
  143POPC   C2B 2027   2.161   2.694   6.889
  143POPC   C3B 2028   2.290   2.718   6.457
  143POPC   C4B 2029   2.112   2.989   6.135
  144POPC   NC3 2030   2.478   3.076   8.130
  144POPC   PO4 2031   2.339   3.757   8.304
  144POPC   GL1 2032   2.507   3.559   7.883
  144POPC   GL2 2033   2.837   3.351   7.811
  144POPC   C1A 2034   2.420   3.512   7.432
  144POPC   D2A 2035   2.480   3.304   7.026
  144POPC   C3A 2036   2.561   3.563   6.664
  144POPC   C4A 2037   2.498   3.782   6.272
  144POPC   C1B 2038   2.903   3.397   7.339
  144POPC   C2B 2039   2.992   3.269   6.891
  144POPC   C3B 2040   2.982   3.374   6.415
  144POPC   C4B 2041   2.904   3.203   5.946
  145POPC   NC3 2042   0.799   2.633   8.169
  145POPC   PO4 2043   0.157   2.455   8.133
  145POPC   GL1 2044   0.365   2.808   7.859
  145POPC   GL2 2045   0.483   2.508   7.739
  145POPC   C1A 2046   0.475   3.096   7.462
  145POPC   D2A 2047   0.684   3.021   7.048
  145POPC   C3A 2048   0.550   3.067   6.606
  145POPC   C4A 2049   0.260   3.099   6.217
  145POPC   C1B 2050   0.547   2.610   7.317
  145POPC   C2B 2051   0.635   2.524   6.889
  145POPC   C3B 2052   0.473   2.579   6.477
  145POPC   C4B 2053   0.621   2.368   6.150
  146POPC   NC3 2054   7.894   8.701   8.193
  146POPC   PO4 2055   8.497   8.750   7.953
  146POPC   GL1 2056   8.275   8.492   7.752
  146POPC   GL2 2057   7.947   8.620   7.709
  146POPC   C1A 2058   8.185   8.394   7.337
  146POPC   D2A 2059   8.110   8.645   6.971
  146POPC   C3A 2060   8.183   8.542   6.558
  146POPC   C4A 2061   8.191   8.810   6.209
  146POPC   C1B 2062   8.084   8.945   7.402
  146POPC   C2B 2063   7.865   9.086   7.018
  146POPC   C3B 2064   7.809   8.923   6.578
  146POPC   C4B 2065   7.738   8.604   6.227
  147POPC   NC3 2066   1.253   9.775   8.312
  147POPC   PO4 2067   0.905   9.326   8.081
  147POPC   GL1 2068   1.272   9.479   7.845
  147POPC   GL2 2069   1.231   9.186   7.694
  147POPC   C1A 2070   1.468   9.515   7.399
  147POPC   D2A 2071   1.331   9.238   7.036
  147POPC   C3A 2072   1.402   9.353   6.586
  147POPC   C4A 2073   1.415   9.113   6.199
  147POPC   C1B 2074   0.978   9.432   7.367
  147POPC   C2B 2075   0.825   9.476   6.938
  147POPC   C3B 2076   0.867   9.429   6.500
  147POPC   C4B 2077   0.795   9.459   6.080
  148POPC   NC3 2078   9.637   4.436   8.025
  148POPC   PO4 2079   9.522   5.063   8.217
  148POPC   GL1 2080   9.485   4.874   7.788
  148POPC   GL2 2081   9.237   4.614   7.735
  148POPC   C1A 2082   9.765   4.769   7.413
  148POPC   D2A 2083   9.667   4.628   6.997
  148POPC   C3A 2084   9.714   4.932   6.665
  148POPC   C4A 2085   9.803   4.853   6.255
  148POPC   C1B 2086   9.261   4.810   7.330
  148POPC   C2B 2087   9.167   4.844   6.906
  148POPC   C3B 2088   9.239   4.999   6.512
  148POPC   C4B 2089   9.313   4.783   6.128
  149POPC   NC3 2090   0.863   1.353   7.846
  149POPC   PO4 2091   1.488   1.411   8.044
  149POPC   GL1 2092   1.269   1.115   7.633
  149POPC   GL2 2093   0.865   0.973   7.527
  149POPC   C1A 2094   1.236   0.895   7.215
  149POPC   D2A 2095   0.966   0.918   6.832
  149POPC   C3A 2096   1.284   0.794   6.517
  149POPC   C4A 2097   1.331   1.177   6.320
  149POPC   C1B 2098   0.807   1.308   7.195
  149POPC   C2B 2099   0.678   1.499   6.801
  149POPC   C3B 2100   0.870   1.387   6.456
  149POPC   C4B 2101   0.861   0.973   6.308
  150POPC   NC3 2102   7.891   7.115   8.272
  150POPC   PO4 2103   8.163   7.619   7.947
  150POPC   GL1 2104   7.924   7.453   7.604
  150POPC   GL2 2105   7.791   7.155   7.752
  150POPC   C1A 2106   7.925   7.412   7.152
  150POPC   D2A 2107   8.068   7.639   6.828
  150POPC   C3A 2108   8.026   7.521   6.409
  150POPC   C4A 2109   7.826   7.683   6.051
  150POPC   C1B 2110   7.815   6.947   7.351
  150POPC   C2B 2111   7.961   6.873   6.927
  150POPC   C3B 2112   8.002   7.024   6.519
  150POPC   C4B 2113   7.687   6.906   6.223
  151POPC   NC3 2114   5.975   9.854   8.189
  151POPC   PO4 2115   5.662  10.435   8.171
  151POPC   GL1 2116   5.685  10.311   7.724
  151POPC   GL2 2117   5.704   9.937   7.742
  151POPC   C1A 2118   5.718  10.488   7.298
  151POPC   D2A 2119   5.512   0.148   6.893
  151POPC   C3A 2120   5.386   0.031   6.488
  151POPC   C4A 2121   5.740   0.104   6.207
  151POPC   C1B 2122   5.534   9.987   7.340
  151POPC   C2B 2123   5.683  10.140   6.926
  151POPC   C3B 2124   5.682  10.143   6.486
  151POPC   C4B 2125   5.486   9.890   6.189
  152POPC   NC3 2126   6.283   2.527   8.079
  152POPC   PO4 2127   6.914   2.448   8.240
  152POPC   GL1 2128   6.763   2.578   7.785
  152POPC   GL2 2129   6.400   2.589   7.603
  152POPC   C1A 2130   6.789   2.525   7.319
  152POPC   D2A 2131   6.456   2.598   7.013
  152POPC   C3A 2132   6.647   2.656   6.639
  152POPC   C4A 2133   6.834   2.413   6.311
  152POPC   C1B 2134   6.088   2.768   7.329
  152POPC   C2B 2135   6.020   2.840   6.866
  152POPC   C3B 2136   6.188   2.768   6.448
  152POPC   C4B 2137   6.318   2.347   6.332
  153POPC   NC3 2138  10.194   6.006   8.068
  153POPC   PO4 2139  10.495   6.593   8.214
  153POPC   GL1 2140  10.255   6.506   7.792
  153POPC   GL2 2141   9.912   6.336   7.767
  153POPC   C1A 2142  10.262   6.256   7.384
  153POPC   D2A 2143   0.028   6.216   7.012
  153POPC   C3A 2144  10.342   6.210   6.602
  153POPC   C4A 2145  10.447   6.383   6.207
  153POPC   C1B 2146   9.830   6.519   7.333
  153POPC   C2B 2147  10.070   6.523   6.937
  153POPC   C3B 2148  10.086   6.651   6.496
  153POPC   C4B 2149  10.013   6.606   6.013
  154POPC   NC3 2150   8.170   4.984   8.010
  154POPC   PO4 2151   7.719   4.480   7.978
  154POPC   GL1 2152   7.882   4.647   7.608
  154POPC   GL2 2153   8.221   4.637   7.618
  154POPC   C1A 2154   7.841   4.628   7.154
  154POPC   D2A 2155   7.853   4.845   6.750
  154POPC   C3A 2156   7.525   4.885   6.443
  154POPC   C4A 2157   7.476   5.043   6.010
  154POPC   C1B 2158   8.121   5.030   7.329
  154POPC   C2B 2159   8.172   5.226   6.908
  154POPC   C3B 2160   8.296   5.125   6.528
  154POPC   C4B 2161   8.042   4.919   6.285
  155POPC   NC3 2162   6.341   8.319   8.223
  155POPC   PO4 2163   6.749   8.792   8.018
  155POPC   GL1 2164   6.554   8.850   7.611
  155POPC   GL2 2165   6.546   8.502   7.614
  155POPC   C1A 2166   6.548   8.832   7.137
  155POPC   D2A 2167   6.335   8.952   6.740
  155POPC   C3A 2168   6.484   8.881   6.298
  155POPC   C4A 2169   6.418   8.921   5.803
  155POPC   C1B 2170   6.250   8.334   7.333
  155POPC   C2B 2171   6.145   8.471   6.918
  155POPC   C3B 2172   6.387   8.426   6.534
  155POPC   C4B 2173   6.776   8.457   6.288
  156POPC   NC3 2174   9.372   0.834   8.400
  156POPC   PO4 2175   9.101   1.385   8.164
  156POPC   GL1 2176   9.232   1.151   7.747
  156POPC   GL2 2177   9.585   1.031   7.677
  156POPC   C1A 2178   9.239   0.952   7.322
  156POPC   D2A 2179   9.163   0.873   6.907
  156POPC   C3A 2180   9.057   1.287   6.679
  156POPC   C4A 2181   8.982   1.336   6.235
  156POPC   C1B 2182   9.737   1.116   7.224
  156POPC   C2B 2183   9.525   1.230   6.830
  156POPC   C3B 2184   9.469   1.178   6.367
  156POPC   C4B 2185   9.692   1.063   5.979
  157POPC   NC3 2186   1.780   4.317   8.139
  157POPC   PO4 2187   2.173   3.971   7.850
  157POPC   GL1 2188   1.819   4.064   7.666
  157POPC   GL2 2189   1.821   4.441   7.657
  157POPC   C1A 2190   1.806   3.897   7.269
  157POPC   D2A 2191   2.135   3.709   7.006
  157POPC   C3A 2192   2.091   3.877   6.612
  157POPC   C4A 2193   2.001   3.925   6.210
  157POPC   C1B 2194   2.024   4.369   7.261
  157POPC   C2B 2195   1.839   4.245   6.874
  157POPC   C3B 2196   1.865   4.376   6.451
  157POPC   C4B 2197   1.970   4.378   5.981
  158POPC   NC3 2198   3.985   1.853   8.040
  158POPC   PO4 2199   4.547   1.733   7.722
  158POPC   GL1 2200   4.431   2.058   7.473
  158POPC   GL2 2201   4.094   2.035   7.575
  158POPC   C1A 2202   4.227   2.054   7.070
  158POPC   D2A 2203   4.133   2.359   6.772
  158POPC   C3A 2204   4.349   2.251   6.418
  158POPC   C4A 2205   4.542   1.855   6.318
  158POPC   C1B 2206   3.984   1.656   7.340
  158POPC   C2B 2207   4.047   1.382   6.972
  158POPC   C3B 2208   4.183   1.575   6.584
  158POPC   C4B 2209   3.996   1.888   6.355
  159POPC   NC3 2210   2.826   2.821   8.545
  159POPC   PO4 2211   2.431   2.560   8.112
  159POPC   GL1 2212   2.708   2.728   7.847
  159POPC   GL2 2213   2.873   2.419   7.873
  159POPC   C1A 2214   2.656   2.969   7.470
  159POPC   D2A 2215   2.607   2.812   7.064
  159POPC   C3A 2216   2.694   2.940   6.670
  159POPC   C4A 2217   2.556   3.136   6.320
  159POPC   C1B 2218   2.836   2.472   7.418
  159POPC   C2B 2219   2.836   2.318   7.011
  159POPC   C3B 2220   2.951   2.438   6.612
  159POPC   C4B 2221   2.794   2.637   6.256
  160POPC   NC3 2222   7.458   3.513   7.991
  160POPC   PO4 2223   6.887   3.410   8.332
  160POPC   GL1 2224   7.008   3.262   7.787
  160POPC   GL2 2225   7.313   3.378   7.551
  160POPC   C1A 2226   6.899   3.482   7.287
  160POPC   D2A 2227   7.043   3.636   6.847
  160POPC   C3A 2228   6.746   3.613   6.428
  160POPC   C4A 2229   6.843   3.721   5.975
  160POPC   C1B 2230   7.163   3.050   7.320
  160POPC   C2B 2231   7.040   3.126   6.913
  160POPC   C3B 2232   7.149   3.287   6.502
  160POPC   C4B 2233   7.221   3.698   6.321
  161POPC   NC3 2234   6.639   3.568   7.988
  161POPC   PO4 2235   6.499   2.938   8.062
  161POPC   GL1 2236   6.560   3.069   7.646
  161POPC   GL2 2237   6.454   3.391   7.538
  161POPC   C1A 2238   6.640   3.031   7.209
  161POPC   D2A 2239   6.580   3.345   6.861
  161POPC   C3A 2240   6.461   3.195   6.439
  161POPC   C4A 2241   6.426   3.406   6.044
  161POPC   C1B 2242   6.176   3.247   7.176
  161POPC   C2B 2243   6.056   3.334   6.728
  161POPC   C3B 2244   6.022   3.581   6.338
  161POPC   C4B 2245   5.869   3.999   6.141
  162POPC   NC3 2246   3.454   2.135   8.177
  162POPC   PO4 2247   2.910   1.958   8.119
  162POPC   GL1 2248   3.223   1.863   7.763
  162POPC   GL2 2249   3.575   2.004   7.686
  162POPC   C1A 2250   3.185   2.013   7.305
  162POPC   D2A 2251   3.216   2.030   6.827
  162POPC   C3A 2252   3.170   1.640   6.639
  162POPC   C4A 2253   3.036   1.605   6.227
  162POPC   C1B 2254   3.721   2.128   7.245
  162POPC   C2B 2255   3.733   2.034   6.779
  162POPC   C3B 2256   3.499   1.947   6.379
  162POPC   C4B 2257   3.688   2.226   6.066
  163POPC   NC3 2258   3.853   7.042   8.147
  163POPC   PO4 2259   3.642   7.674   8.171
  163POPC   GL1 2260   3.629   7.386   7.749
  163POPC   GL2 2261   3.520   7.040   7.615
  163POPC   C1A 2262   3.763   7.280   7.274
  163POPC   D2A 2263   3.588   7.092   6.918
  163POPC   C3A 2264   3.807   7.325   6.591
  163POPC   C4A 2265   3.727   7.271   6.179
  163POPC   C1B 2266   3.222   7.260   7.299
  163POPC   C2B 2267   3.065   7.238   6.878
  163POPC   C3B 2268   3.301   7.180   6.474
  163POPC   C4B 2269   3.320   7.000   6.053
  164POPC   NC3 2270   1.880   5.097   8.185
  164POPC   PO4 2271   1.435   4.629   8.004
  164POPC   GL1 2272   1.607   4.934   7.728
  164POPC   GL2 2273   1.984   4.932   7.716
  164POPC   C1A 2274   1.715   4.787   7.294
  164POPC   D2A 2275   1.964   4.766   6.894
  164POPC   C3A 2276   1.774   4.954   6.537
  164POPC   C4A 2277   1.634   4.746   6.172
  164POPC   C1B 2278   2.206   4.943   7.313
  164POPC   C2B 2279   2.371   5.110   6.910
  164POPC   C3B 2280   2.268   5.124   6.485
  164POPC   C4B 2281   2.150   4.761   6.259
  165POPC   NC3 2282   6.964   8.368   8.037
  165POPC   PO4 2283   7.437   8.856   8.131
  165POPC   GL1 2284   7.197   8.826   7.777
  165POPC   GL2 2285   7.434   8.629   7.631
  165POPC   C1A 2286   7.013   8.798   7.372
  165POPC   D2A 2287   6.954   8.530   7.017
  165POPC   C3A 2288   6.825   8.756   6.681
  165POPC   C4A 2289   6.980   8.954   6.315
  165POPC   C1B 2290   7.687   8.630   7.262
  165POPC   C2B 2291   7.624   8.492   6.834
  165POPC   C3B 2292   7.337   8.667   6.544
  165POPC   C4B 2293   7.245   8.549   6.113
  166POPC   NC3 2294   3.125   0.492   8.217
  166POPC   PO4 2295   3.678   0.830   8.396
  166POPC   GL1 2296   3.523   0.623   7.917
  166POPC   GL2 2297   3.406   0.277   7.836
  166POPC   C1A 2298   3.571   0.539   7.426
  166POPC   D2A 2299   3.399   0.721   7.025
  166POPC   C3A 2300   3.459   0.592   6.602
  166POPC   C4A 2301   3.172   0.571   6.265
  166POPC   C1B 2302   3.153   0.245   7.443
  166POPC   C2B 2303   3.180   0.270   6.976
  166POPC   C3B 2304   3.257   0.114   6.535
  166POPC   C4B 2305   3.472   0.137   6.159
  167POPC   NC3 2306   3.870   8.843   8.272
  167POPC   PO4 2307   4.113   9.110   7.780
  167POPC   GL1 2308   4.355   8.803   7.577
  167POPC   GL2 2309   4.317   8.506   7.776
  167POPC   C1A 2310   4.337   8.766   7.126
  167POPC   D2A 2311   4.057   8.949   6.842
  167POPC   C3A 2312   3.973   8.669   6.526
  167POPC   C4A 2313   4.018   8.898   6.136
  167POPC   C1B 2314   4.200   8.330   7.374
  167POPC   C2B 2315   4.193   8.282   6.917
  167POPC   C3B 2316   4.292   8.219   6.494
  167POPC   C4B 2317   4.354   8.525   6.229
  168POPC   NC3 2318   9.955   2.336   8.166
  168POPC   PO4 2319  10.042   1.698   8.100
  168POPC   GL1 2320  10.416   1.788   7.849
  168POPC   GL2 2321  10.262   2.081   7.709
  168POPC   C1A 2322   0.015   1.757   7.402
  168POPC   D2A 2323  10.389   2.006   7.052
  168POPC   C3A 2324  10.458   1.863   6.676
  168POPC   C4A 2325  10.322   1.690   6.305
  168POPC   C1B 2326   9.992   1.941   7.362
  168POPC   C2B 2327   9.878   2.080   6.916
  168POPC   C3B 2328  10.021   2.080   6.487
  168POPC   C4B 2329  10.181   2.334   6.135
  169POPC   NC3 2330   1.289   7.269   8.147
  169POPC   PO4 2331   0.849   7.787   8.089
  169POPC   GL1 2332   0.943   7.582   7.654
  169POPC   GL2 2333   1.313   7.488   7.685
  169POPC   C1A 2334   0.864   7.499   7.181
  169POPC   D2A 2335   0.838   7.384   6.742
  169POPC   C3A 2336   1.183   7.378   6.480
  169POPC   C4A 2337   1.174   7.416   6.052
  169POPC   C1B 2338   1.208   7.193   7.394
  169POPC   C2B 2339   1.198   7.069   6.962
  169POPC   C3B 2340   1.012   6.896   6.607
  169POPC   C4B 2341   1.166   6.940   6.204
  170POPC   NC3 2342  10.344   2.893   8.029
  170POPC   PO4 2343   9.769   2.633   7.872
  170POPC   GL1 2344  10.129   2.586   7.642
  170POPC   GL2 2345  10.475   2.537   7.661
  170POPC   C1A 2346  10.173   2.447   7.238
  170POPC   D2A 2347   9.894   2.595   6.950
  170POPC   C3A 2348  10.031   2.583   6.562
  170POPC   C4A 2349   9.827   2.718   6.194
  170POPC   C1B 2350   0.025   2.840   7.350
  170POPC   C2B 2351  10.344   2.910   6.954
  170POPC   C3B 2352   0.025   2.868   6.594
  170POPC   C4B 2353  10.330   2.826   6.205
  171POPC   NC3 2354  10.081   9.359   7.998
  171POPC   PO4 2355  10.444   8.865   8.016
  171POPC   GL1 2356  10.362   9.166   7.631
  171POPC   GL2 2357  10.364   9.578   7.655
  171POPC   C1A 2358  10.111   9.287   7.269
  171POPC   D2A 2359  10.315   9.226   6.869
  171POPC   C3A 2360  10.145   9.180   6.444
  171POPC   C4A 2361   0.016   9.021   6.231
  171POPC   C1B 2362  10.484   9.625   7.240
  171POPC   C2B 2363  10.178   9.711   6.933
  171POPC   C3B 2364  10.347   9.638   6.549
  171POPC   C4B 2365  10.325   9.517   6.128
  172POPC   NC3 2366  10.468   6.994   7.992
  172POPC   PO4 2367   9.822   7.330   8.149
  172POPC   GL1 2368  10.010   7.157   7.776
  172POPC   GL2 2369  10.241   7.401   7.671
  172POPC   C1A 2370  10.140   6.954   7.360
  172POPC   D2A 2371   9.990   7.046   6.929
  172POPC   C3A 2372  10.293   7.137   6.593
  172POPC   C4A 2373  10.316   6.986   6.202
  172POPC   C1B 2374   9.994   7.454   7.347
  172POPC   C2B 2375   9.886   7.562   6.961
  172POPC   C3B 2376   9.876   7.421   6.571
  172POPC   C4B 2377  10.067   7.441   6.174
  173POPC   NC3 2378   8.616   2.421   8.205
  173POPC   PO4 2379   8.221   3.021   8.237
  173POPC   GL1 2380   8.568   2.877   7.771
  173POPC   GL2 2381   8.486   2.646   7.475
  173POPC   C1A 2382   8.777   2.991   7.308
  173POPC   D2A 2383   8.526   2.750   6.957
  173POPC   C3A 2384   8.453   2.916   6.525
  173POPC   C4A 2385   8.793   2.920   6.189
  173POPC   C1B 2386   8.863   2.461   7.243
  173POPC   C2B 2387   8.984   2.550   6.808
  173POPC   C3B 2388   8.740   2.485   6.452
  173POPC   C4B 2389   8.344   2.450   6.230
  174POPC   NC3 2390   6.380   0.681   4.040
  174POPC   PO4 2391   6.828   0.187   3.959
  174POPC   GL1 2392   6.598   0.327   4.316
  174POPC   GL2 2393   6.256   0.211   4.250
  174POPC   C1A 2394   6.718   0.506   4.723
  174POPC   D2A 2395   6.770   0.213   5.076
  174POPC   C3A 2396   6.613   0.405   5.414
  174POPC   C4A 2397   6.601   0.206   5.787
  174POPC   C1B 2398   6.220   0.444   4.641
  174POPC   C2B 2399   6.250   0.300   5.047
  174POPC   C3B 2400   6.110   0.420   5.458
  174POPC   C4B 2401   6.304   0.632   5.847
  175POPC   NC3 2402   5.604   2.167   3.928
  175POPC   PO4 2403   6.062   1.567   3.892
  175POPC   GL1 2404   6.079   1.715   4.325
  175POPC   GL2 2405   5.731   1.840   4.319
  175POPC   C1A 2406   5.947   1.749   4.782
  175POPC   D2A 2407   5.642   1.826   5.107
  175POPC   C3A 2408   5.832   1.955   5.483
  175POPC   C4A 2409   5.868   1.680   5.814
  175POPC   C1B 2410   5.608   2.110   4.671
  175POPC   C2B 2411   5.284   2.175   4.990
  175POPC   C3B 2412   5.338   2.275   5.394
  175POPC   C4B 2413   5.293   2.362   5.805
  176POPC   NC3 2414   0.027   9.545   3.754
  176POPC   PO4 2415   0.658   9.772   3.682
  176POPC   GL1 2416   0.621   9.509   4.058
  176POPC   GL2 2417   0.368   9.261   4.040
  176POPC   C1A 2418   0.678   9.521   4.506
  176POPC   D2A 2419   0.792   9.608   4.920
  176POPC   C3A 2420   0.655   9.304   5.194
  176POPC   C4A 2421   0.609   9.322   5.622
  176POPC   C1B 2422   0.169   9.389   4.438
  176POPC   C2B 2423   0.206   9.409   4.907
  176POPC   C3B 2424   0.162   9.271   5.346
  176POPC   C4B 2425   0.124   9.348   5.779
  177POPC   NC3 2426   3.544   0.874   3.825
  177POPC   PO4 2427   3.222   0.241   3.903
  177POPC   GL1 2428   3.372   0.466   4.230
  177POPC   GL2 2429   3.621   0.211   4.265
  177POPC   C1A 2430   3.548   0.533   4.671
  177POPC   D2A 2431   3.671   0.513   5.107
  177POPC   C3A 2432   3.635   0.780   5.463
  177POPC   C4A 2433   3.569   0.546   5.871
  177POPC   C1B 2434   3.287   0.101   4.595
  177POPC   C2B 2435   3.219   0.277   5.013
  177POPC   C3B 2436   3.224   0.479   5.416
  177POPC   C4B 2437   3.113   0.318   5.822
  178POPC   NC3 2438   2.945   4.352   3.965
  178POPC   PO4 2439   2.371   4.141   4.000
  178POPC   GL1 2440   2.578   4.252   4.350
  178POPC   GL2 2441   2.920   4.125   4.399
  178POPC   C1A 2442   2.658   4.340   4.776
  178POPC   D2A 2443   2.500   4.163   5.119
  178POPC   C3A 2444   2.611   4.355   5.501
  178POPC   C4A 2445   2.969   4.531   5.725
  178POPC   C1B 2446   3.046   3.824   4.682
  178POPC   C2B 2447   2.961   3.910   5.098
  178POPC   C3B 2448   3.094   4.089   5.487
  178POPC   C4B 2449   3.253   4.049   5.891
  179POPC   NC3 2450   9.478   7.870   3.853
  179POPC   PO4 2451   8.869   8.179   3.713
  179POPC   GL1 2452   9.090   8.182   4.185
  179POPC   GL2 2453   9.453   8.045   4.312
  179POPC   C1A 2454   9.087   8.069   4.650
  179POPC   D2A 2455   9.353   8.002   5.010
  179POPC   C3A 2456   9.130   7.919   5.385
  179POPC   C4A 2457   9.464   7.940   5.670
  179POPC   C1B 2458   9.683   7.819   4.670
  179POPC   C2B 2459  10.014   7.730   4.965
  179POPC   C3B 2460   9.854   7.663   5.389
  179POPC   C4B 2461   9.774   7.513   5.757
  180POPC   NC3 2462   9.574   6.356   3.531
  180POPC   PO4 2463   9.581   6.827   3.989
  180POPC   GL1 2464   9.514   6.629   4.393
  180POPC   GL2 2465   9.397   6.315   4.420
  180POPC   C1A 2466   9.612   6.469   4.829
  180POPC   D2A 2467   9.738   6.356   5.257
  180POPC   C3A 2468   9.679   6.655   5.591
  180POPC   C4A 2469   9.497   6.633   6.008
  180POPC   C1B 2470   9.275   6.075   4.729
  180POPC   C2B 2471   9.241   6.247   5.119
  180POPC   C3B 2472   9.217   6.429   5.504
  180POPC   C4B 2473   9.191   6.228   5.882
  181POPC   NC3 2474   3.239   7.197   4.072
  181POPC   PO4 2475   3.823   7.471   3.935
  181POPC   GL1 2476   3.606   7.384   4.398
  181POPC   GL2 2477   3.206   7.449   4.503
  181POPC   C1A 2478   3.554   7.404   4.878
  181POPC   D2A 2479   3.359   7.267   5.265
  181POPC   C3A 2480   3.602   7.152   5.652
  181POPC   C4A 2481   3.757   6.794   5.926
  181POPC   C1B 2482   3.140   7.050   4.779
  181POPC   C2B 2483   3.143   6.812   5.190
  181POPC   C3B 2484   3.061   7.010   5.596
  181POPC   C4B 2485   3.080   7.458   5.666
  182POPC   NC3 2486   9.712  10.005   4.028
  182POPC   PO4 2487   9.127   9.804   4.230
  182POPC   GL1 2488   9.153  10.085   4.522
  182POPC   GL2 2489   9.373  10.262   4.303
  182POPC   C1A 2490   9.163   9.961   4.957
  182POPC   D2A 2491   9.445   9.859   5.284
  182POPC   C3A 2492   9.413   9.978   5.712
  182POPC   C4A 2493   9.245  10.130   6.140
  182POPC   C1B 2494   9.658  10.409   4.592
  182POPC   C2B 2495   9.525  10.372   5.007
  182POPC   C3B 2496   9.639  10.368   5.418
  182POPC   C4B 2497   9.434  10.467   5.806
  183POPC   NC3 2498   9.568   2.715   3.785
  183POPC   PO4 2499   9.737   2.288   4.337
  183POPC   GL1 2500   9.461   2.664   4.279
  183POPC   GL2 2501   9.177   2.857   4.087
  183POPC   C1A 2502   9.538   2.873   4.655
  183POPC   D2A 2503   9.583   2.583   5.001
  183POPC   C3A 2504   9.427   2.737   5.375
  183POPC   C4A 2505   9.588   2.588   5.764
  183POPC   C1B 2506   9.037   2.853   4.511
  183POPC   C2B 2507   9.109   3.003   4.924
  183POPC   C3B 2508   9.021   3.069   5.346
  183POPC   C4B 2509   9.119   2.868   5.759
  184POPC   NC3 2510   8.720   7.573   3.953
  184POPC   PO4 2511   8.361   8.158   4.042
  184POPC   GL1 2512   8.609   8.044   4.364
  184POPC   GL2 2513   8.730   7.732   4.431
  184POPC   C1A 2514   8.599   8.145   4.773
  184POPC   D2A 2515   8.602   7.952   5.166
  184POPC   C3A 2516   8.574   8.158   5.538
  184POPC   C4A 2517   8.922   8.184   5.782
  184POPC   C1B 2518   8.707   7.538   4.814
  184POPC   C2B 2519   8.460   7.469   5.183
  184POPC   C3B 2520   8.451   7.457   5.606
  184POPC   C4B 2521   8.769   7.701   5.747
  185POPC   NC3 2522   4.700   0.575   3.821
  185POPC   PO4 2523   5.317   0.170   3.897
  185POPC   GL1 2524   5.130   0.323   4.267
  185POPC   GL2 2525   4.814   0.317   4.227
  185POPC   C1A 2526   5.232   0.565   4.662
  185POPC   D2A 2527   5.036   0.662   5.048
  185POPC   C3A 2528   5.033   0.400   5.374
  185POPC   C4A 2529   5.137   0.568   5.749
  185POPC   C1B 2530   4.744   0.452   4.630
  185POPC   C2B 2531   4.582   0.391   5.049
  185POPC   C3B 2532   4.594   0.163   5.455
  185POPC   C4B 2533   4.723   0.163   5.903
  186POPC   NC3 2534   5.727  10.456   3.816
  186POPC   PO4 2535   5.338  10.047   3.578
  186POPC   GL1 2536   5.438  10.239   4.153
  186POPC   GL2 2537   5.757  10.175   4.284
  186POPC   C1A 2538   5.416  10.070   4.627
  186POPC   D2A 2539   5.596  10.074   5.023
  186POPC   C3A 2540   5.341  10.249   5.345
  186POPC   C4A 2541   5.360  10.123   5.763
  186POPC   C1B 2542   5.846  10.414   4.679
  186POPC   C2B 2543   5.844   0.014   5.132
  186POPC   C3B 2544   5.795  10.345   5.545
  186POPC   C4B 2545   5.831  10.180   5.980
  187POPC   NC3 2546  10.384   7.921   3.952
  187POPC   PO4 2547   9.830   7.656   4.075
  187POPC   GL1 2548   9.958   7.989   4.225
  187POPC   GL2 2549  10.180   7.786   4.422
  187POPC   C1A 2550   9.964   8.216   4.585
  187POPC   D2A 2551  10.092   8.223   4.946
  187POPC   C3A 2552   9.848   8.145   5.270
  187POPC   C4A 2553   9.864   8.234   5.699
  187POPC   C1B 2554  10.453   7.993   4.637
  187POPC   C2B 2555   0.032   7.893   5.032
  187POPC   C3B 2556  10.311   7.883   5.394
  187POPC   C4B 2557  10.183   7.804   5.803
  188POPC   NC3 2558   2.839   1.539   3.915
  188POPC   PO4 2559   2.610   0.922   3.832
  188POPC   GL1 2560   2.543   1.198   4.131
  188POPC   GL2 2561   2.908   1.136   4.237
  188POPC   C1A 2562   2.505   1.231   4.552
  188POPC   D2A 2563   2.697   0.977   4.854
  188POPC   C3A 2564   2.395   0.849   5.168
  188POPC   C4A 2565   2.362   1.003   5.599
  188POPC   C1B 2566   3.007   1.409   4.587
  188POPC   C2B 2567   2.930   1.424   5.025
  188POPC   C3B 2568   2.757   1.177   5.337
  188POPC   C4B 2569   2.811   1.246   5.776
  189POPC   NC3 2570   5.625   8.849   3.852
  189POPC   PO4 2571   6.140   8.324   3.814
  189POPC   GL1 2572   5.875   8.411   4.202
  189POPC   GL2 2573   5.727   8.729   4.328
  189POPC   C1A 2574   5.815   8.358   4.657
  189POPC   D2A 2575   6.012   8.441   5.050
  189POPC   C3A 2576   5.812   8.176   5.335
  189POPC   C4A 2577   5.553   8.280   5.650
  189POPC   C1B 2578   5.536   9.000   4.663
  189POPC   C2B 2579   5.669   9.037   5.088
  189POPC   C3B 2580   5.548   8.819   5.463
  189POPC   C4B 2581   5.613   8.972   5.869
  190POPC   NC3 2582   7.366   1.210   3.887
  190POPC   PO4 2583   6.771   0.862   3.884
  190POPC   GL1 2584   7.035   0.954   4.222
  190POPC   GL2 2585   7.075   1.275   4.290
  190POPC   C1A 2586   6.982   0.959   4.685
  190POPC   D2A 2587   7.016   1.118   5.110
  190POPC   C3A 2588   6.879   0.848   5.469
  190POPC   C4A 2589   7.110   0.843   5.914
  190POPC   C1B 2590   7.241   1.411   4.681
  190POPC   C2B 2591   7.052   1.627   4.972
  190POPC   C3B 2592   7.066   1.628   5.375
  190POPC   C4B 2593   7.114   1.266   5.617
  191POPC   NC3 2594   5.845   7.971   3.915
  191POPC   PO4 2595   5.194   8.085   3.914
  191POPC   GL1 2596   5.498   8.085   4.277
  191POPC   GL2 2597   5.811   7.893   4.408
  191POPC   C1A 2598   5.397   7.998   4.696
  191POPC   D2A 2599   5.283   8.154   5.066
  191POPC   C3A 2600   5.164   7.931   5.368
  191POPC   C4A 2601   5.408   7.739   5.634
  191POPC   C1B 2602   5.860   7.890   4.874
  191POPC   C2B 2603   5.740   7.664   5.240
  191POPC   C3B 2604   5.915   7.734   5.637
  191POPC   C4B 2605   6.085   8.111   5.784
  192POPC   NC3 2606   8.092   4.204   3.607
  192POPC   PO4 2607   7.892   4.765   4.026
  192POPC   GL1 2608   7.934   4.478   4.462
  192POPC   GL2 2609   8.090   4.068   4.491
  192POPC   C1A 2610   7.956   4.346   4.889
  192POPC   D2A 2611   8.168   4.026   5.067
  192POPC   C3A 2612   8.065   4.118   5.460
  192POPC   C4A 2613   7.875   4.274   5.842
  192POPC   C1B 2614   7.771   3.874   4.796
  192POPC   C2B 2615   7.699   3.854   5.224
  192POPC   C3B 2616   7.630   3.862   5.666
  192POPC   C4B 2617   7.675   3.842   6.113
  193POPC   NC3 2618   0.278   0.494   3.765
  193POPC   PO4 2619  10.095   0.336   3.823
  193POPC   GL1 2620  10.066   0.285   4.220
  193POPC   GL2 2621  10.118   0.607   4.292
  193POPC   C1A 2622  10.290   0.043   4.582
  193POPC   D2A 2623  10.139  10.483   5.003
  193POPC   C3A 2624  10.230   0.264   5.364
  193POPC   C4A 2625  10.093   0.152   5.778
  193POPC   C1B 2626   9.928   0.375   4.690
  193POPC   C2B 2627   9.755   0.317   5.119
  193POPC   C3B 2628   9.695   0.355   5.576
  193POPC   C4B 2629   9.856   0.586   5.934
  194POPC   NC3 2630   7.159   8.570   4.025
  194POPC   PO4 2631   6.831   9.023   3.684
  194POPC   GL1 2632   6.829   8.885   4.261
  194POPC   GL2 2633   7.137   8.645   4.502
  194POPC   C1A 2634   6.789   8.849   4.747
  194POPC   D2A 2635   7.145   8.765   5.046
  194POPC   C3A 2636   7.079   8.556   5.463
  194POPC   C4A 2637   6.847   8.682   5.835
  194POPC   C1B 2638   7.515   8.435   4.643
  194POPC   C2B 2639   7.750   8.477   5.013
  194POPC   C3B 2640   7.604   8.468   5.434
  194POPC   C4B 2641   7.500   8.779   5.740
  195POPC   NC3 2642   3.824   9.550   3.837
  195POPC   PO4 2643   4.458   9.724   3.866
  195POPC   GL1 2644   4.413   9.384   4.237
  195POPC   GL2 2645   4.212   9.101   4.227
  195POPC   C1A 2646   4.489   9.116   4.651
  195POPC   D2A 2647   4.343   9.280   5.061
  195POPC   C3A 2648   4.448   9.141   5.464
  195POPC   C4A 2649   4.392   9.226   5.918
  195POPC   C1B 2650   4.062   9.394   4.627
  195POPC   C2B 2651   4.016   9.662   5.067
  195POPC   C3B 2652   4.112   9.552   5.514
  195POPC   C4B 2653   3.970   9.144   5.672
  196POPC   NC3 2654   8.807   0.345   3.824
  196POPC   PO4 2655   9.271   0.897   3.895
  196POPC   GL1 2656   9.105   0.702   4.228
  196POPC   GL2 2657   8.937   0.402   4.303
  196POPC   C1A 2658   9.130   0.778   4.646
  196POPC   D2A 2659   8.914   0.905   5.014
  196POPC   C3A 2660   8.980   0.701   5.395
  196POPC   C4A 2661   8.621   0.594   5.602
  196POPC   C1B 2662   8.702   0.490   4.676
  196POPC   C2B 2663   8.673   0.390   5.107
  196POPC   C3B 2664   8.782   0.139   5.459
  196POPC   C4B 2665   8.602   0.167   5.864
  197POPC   NC3 2666  10.247   2.900   4.047
  197POPC   PO4 2667   9.893   2.388   3.751
  197POPC   GL1 2668  10.179   2.424   4.196
  197POPC   GL2 2669  10.435   2.635   4.410
  197POPC   C1A 2670  10.215   2.360   4.733
  197POPC   D2A 2671  10.090   2.725   4.977
  197POPC   C3A 2672   9.938   2.659   5.387
  197POPC   C4A 2673  10.066   2.818   5.765
  197POPC   C1B 2674  10.427   3.029   4.642
  197POPC   C2B 2675  10.488   3.069   5.040
  197POPC   C3B 2676  10.445   2.812   5.378
  197POPC   C4B 2677   0.070   2.924   5.762
  198POPC   NC3 2678   8.325   3.534   3.780
  198POPC   PO4 2679   8.956   3.274   3.791
  198POPC   GL1 2680   8.678   3.351   4.167
  198POPC   GL2 2681   8.735   3.677   4.199
  198POPC   C1A 2682   8.752   3.276   4.625
  198POPC   D2A 2683   8.537   3.181   5.031
  198POPC   C3A 2684   8.565   3.352   5.421
  198POPC   C4A 2685   8.826   3.272   5.774
  198POPC   C1B 2686   8.532   3.758   4.603
  198POPC   C2B 2687   8.573   3.713   5.024
  198POPC   C3B 2688   8.526   3.881   5.408
  198POPC   C4B 2689   8.598   3.712   5.794
  199POPC   NC3 2690   7.789   7.125   4.160
  199POPC   PO4 2691   8.462   7.198   4.071
  199POPC   GL1 2692   8.222   7.315   4.426
  199POPC   GL2 2693   7.868   7.432   4.541
  199POPC   C1A 2694   8.223   7.203   4.838
  199POPC   D2A 2695   7.945   7.059   5.174
  199POPC   C3A 2696   7.963   7.308   5.547
  199POPC   C4A 2697   8.041   7.219   6.005
  199POPC   C1B 2698   7.634   7.270   4.831
  199POPC   C2B 2699   7.567   7.454   5.210
  199POPC   C3B 2700   7.309   7.452   5.540
  199POPC   C4B 2701   7.562   7.280   5.861
  200POPC   NC3 2702   0.413   7.786   3.785
  200POPC   PO4 2703   0.046   8.355   3.921
  200POPC   GL1 2704   0.282   8.051   4.233
  200POPC   GL2 2705   0.213   7.692   4.249
  200POPC   C1A 2706   0.452   8.143   4.669
  200POPC   D2A 2707   0.539   8.016   5.095
  200POPC   C3A 2708   0.269   8.209   5.381
  200POPC   C4A 2709   0.046   8.158   5.767
  200POPC   C1B 2710   0.328   7.643   4.645
  200POPC   C2B 2711   0.357   7.493   5.053
  200POPC   C3B 2712   0.290   7.689   5.448
  200POPC   C4B 2713   0.580   7.969   5.683
  201POPC   NC3 2714   7.502   7.148   3.692
  201POPC   PO4 2715   7.629   6.654   4.168
  201POPC   GL1 2716   7.271   6.908   4.276
  201POPC   GL2 2717   7.180   7.227   4.111
  201POPC   C1A 2718   7.153   6.854   4.716
  201POPC   D2A 2719   7.497   6.819   5.041
  201POPC   C3A 2720   7.519   6.963   5.472
  201POPC   C4A 2721   7.294   6.849   5.881
  201POPC   C1B 2722   7.195   7.336   4.573
  201POPC   C2B 2723   7.148   7.231   5.051
  201POPC   C3B 2724   7.008   7.049   5.464
  201POPC   C4B 2725   6.970   7.239   5.865
  202POPC   NC3 2726   8.898  10.197   4.065
  202POPC   PO4 2727   8.460   9.742   3.909
  202POPC   GL1 2728   8.491  10.058   4.306
  202POPC   GL2 2729   8.602  10.436   4.405
  202POPC   C1A 2730   8.673  10.099   4.753
  202POPC   D2A 2731   8.495  10.410   5.055
  202POPC   C3A 2732   8.458  10.239   5.494
  202POPC   C4A 2733   8.495   9.838   5.752
  202POPC   C1B 2734   8.956   0.038   4.649
  202POPC   C2B 2735   9.014  10.440   5.041
  202POPC   C3B 2736   9.119  10.261   5.416
  202POPC   C4B 2737   8.880  10.219   5.805
  203POPC   NC3 2738   9.522   5.606   3.681
  203POPC   PO4 2739   9.514   6.215   3.959
  203POPC   GL1 2740   9.698   5.947   4.271
  203POPC   GL2 2741   9.562   5.626   4.244
  203POPC   C1A 2742   9.765   5.984   4.695
  203POPC   D2A 2743   9.587   5.837   5.081
  203POPC   C3A 2744   9.492   5.986   5.483
  203POPC   C4A 2745   9.698   6.196   5.820
  203POPC   C1B 2746   9.299   5.552   4.642
  203POPC   C2B 2747   9.415   5.369   5.045
  203POPC   C3B 2748   9.336   5.467   5.455
  203POPC   C4B 2749   9.384   5.658   5.836
  204POPC   NC3 2750   6.425   1.919   3.926
  204POPC   PO4 2751   6.040   2.436   3.856
  204POPC   GL1 2752   6.109   2.217   4.258
  204POPC   GL2 2753   6.450   2.093   4.386
  204POPC   C1A 2754   6.135   2.258   4.729
  204POPC   D2A 2755   6.173   2.055   5.118
  204POPC   C3A 2756   6.238   2.261   5.485
  204POPC   C4A 2757   6.162   2.099   5.887
  204POPC   C1B 2758   6.432   1.826   4.738
  204POPC   C2B 2759   6.607   1.805   5.158
  204POPC   C3B 2760   6.466   1.793   5.584
  204POPC   C4B 2761   6.785   1.597   5.835
  205POPC   NC3 2762   1.602   3.414   3.906
  205POPC   PO4 2763   1.706   2.878   4.096
  205POPC   GL1 2764   1.891   3.185   4.355
  205POPC   GL2 2765   1.773   3.518   4.379
  205POPC   C1A 2766   1.727   3.218   4.779
  205POPC   D2A 2767   1.862   3.031   5.124
  205POPC   C3A 2768   1.827   3.267   5.446
  205POPC   C4A 2769   2.188   3.108   5.627
  205POPC   C1B 2770   2.050   3.618   4.731
  205POPC   C2B 2771   1.958   3.727   5.164
  205POPC   C3B 2772   2.160   3.640   5.543
  205POPC   C4B 2773   1.957   3.491   5.904
  206POPC   NC3 2774   6.302   3.526   3.905
  206POPC   PO4 2775   6.769   3.840   3.924
  206POPC   GL1 2776   6.672   3.661   4.339
  206POPC   GL2 2777   6.383   3.468   4.394
  206POPC   C1A 2778   6.600   3.652   4.817
  206POPC   D2A 2779   6.560   3.381   5.185
  206POPC   C3A 2780   6.507   3.649   5.589
  206POPC   C4A 2781   6.363   3.901   5.981
  206POPC   C1B 2782   6.188   3.334   4.771
  206POPC   C2B 2783   6.105   3.152   5.180
  206POPC   C3B 2784   6.175   3.276   5.597
  206POPC   C4B 2785   5.966   3.586   5.826
  207POPC   NC3 2786   9.866   7.232   3.904
  207POPC   PO4 2787   0.040   7.498   3.789
  207POPC   GL1 2788  10.319   7.369   4.166
  207POPC   GL2 2789  10.105   7.097   4.309
  207POPC   C1A 2790  10.416   7.349   4.627
  207POPC   D2A 2791  10.333   7.104   5.012
  207POPC   C3A 2792  10.255   7.342   5.395
  207POPC   C4A 2793  10.419   7.350   5.813
  207POPC   C1B 2794   9.903   7.330   4.637
  207POPC   C2B 2795   9.786   7.290   5.045
  207POPC   C3B 2796   9.777   7.129   5.417
  207POPC   C4B 2797  10.003   7.064   5.789
  208POPC   NC3 2798   0.773  10.009   4.078
  208POPC   PO4 2799   0.438   0.075   3.898
  208POPC   GL1 2800   0.269  10.361   4.284
  208POPC   GL2 2801   0.323   9.980   4.307
  208POPC   C1A 2802   0.288  10.480   4.719
  208POPC   D2A 2803   0.560  10.433   5.095
  208POPC   C3A 2804   0.528  10.225   5.489
  208POPC   C4A 2805   0.231  10.217   5.812
  208POPC   C1B 2806   0.531  10.026   4.713
  208POPC   C2B 2807   0.375   9.875   5.085
  208POPC   C3B 2808   0.220   9.783   5.481
  208POPC   C4B 2809   0.411   9.744   5.867
  209POPC   NC3 2810   4.056   0.385   3.937
  209POPC   PO4 2811   4.366   0.859   3.686
  209POPC   GL1 2812   4.376   0.651   4.210
  209POPC   GL2 2813   4.319   0.313   4.372
  209POPC   C1A 2814   4.328   0.737   4.674
  209POPC   D2A 2815   4.135   0.698   5.099
  209POPC   C3A 2816   4.353   0.629   5.450
  209POPC   C4A 2817   4.343   0.486   5.835
  209POPC   C1B 2818   4.044   0.288   4.741
  209POPC   C2B 2819   4.109   0.194   5.188
  209POPC   C3B 2820   3.924   0.350   5.563
  209POPC   C4B 2821   3.956   0.208   6.008
  210POPC   NC3 2822   1.907   8.164   3.820
  210POPC   PO4 2823   2.041   7.492   3.666
  210POPC   GL1 2824   2.162   7.701   4.090
  210POPC   GL2 2825   1.992   7.985   4.290
  210POPC   C1A 2826   2.310   7.641   4.550
  210POPC   D2A 2827   2.435   7.775   5.003
  210POPC   C3A 2828   2.264   7.621   5.398
  210POPC   C4A 2829   2.099   7.542   5.804
  210POPC   C1B 2830   1.993   7.991   4.746
  210POPC   C2B 2831   2.034   8.029   5.191
  210POPC   C3B 2832   1.800   7.869   5.509
  210POPC   C4B 2833   1.662   7.836   5.926
  211POPC   NC3 2834   1.700   9.800   4.009
  211POPC   PO4 2835   1.979  10.401   3.787
  211POPC   GL1 2836   1.866  10.307   4.209
  211POPC   GL2 2837   1.544  10.470   4.224
  211POPC   C1A 2838   2.035  10.280   4.656
  211POPC   D2A 2839   2.180  10.354   5.079
  211POPC   C3A 2840   2.047  10.120   5.416
  211POPC   C4A 2841   1.867  10.307   5.756
  211POPC   C1B 2842   1.501  10.298   4.628
  211POPC   C2B 2843   1.642  10.079   4.982
  211POPC   C3B 2844   1.543  10.177   5.394
  211POPC   C4B 2845   1.692   9.845   5.701
  212POPC   NC3 2846   2.325   5.653   3.759
  212POPC   PO4 2847   1.687   5.366   3.696
  212POPC   GL1 2848   1.850   5.409   4.160
  212POPC   GL2 2849   1.552   5.430   4.346
  212POPC   C1A 2850   1.988   5.570   4.640
  212POPC   D2A 2851   2.165   5.854   5.003
  212POPC   C3A 2852   2.320   5.769   5.439
  212POPC   C4A 2853   2.208   5.591   5.848
  212POPC   C1B 2854   1.520   5.782   4.656
  212POPC   C2B 2855   1.688   5.769   5.075
  212POPC   C3B 2856   1.824   5.614   5.510
  212POPC   C4B 2857   1.765   5.795   5.921
  213POPC   NC3 2858   3.131   9.473   3.927
  213POPC   PO4 2859   3.742   9.101   3.750
  213POPC   GL1 2860   3.729   9.228   4.241
  213POPC   GL2 2861   3.594   9.568   4.299
  213POPC   C1A 2862   3.615   9.171   4.702
  213POPC   D2A 2863   3.843   9.123   5.088
  213POPC   C3A 2864   3.649   9.397   5.358
  213POPC   C4A 2865   3.521   9.389   5.787
  213POPC   C1B 2866   3.350   9.610   4.673
  213POPC   C2B 2867   3.214   9.389   5.059
  213POPC   C3B 2868   3.170   9.543   5.474
  213POPC   C4B 2869   3.022   9.815   5.813
  214POPC   NC3 2870   1.717   7.173   3.726
  214POPC   PO4 2871   2.221   6.808   3.890
  214POPC   GL1 2872   2.108   7.025   4.239
  214POPC   GL2 2873   1.789   7.166   4.240
  214POPC   C1A 2874   2.145   7.155   4.657
  214POPC   D2A 2875   2.336   7.277   5.013
  214POPC   C3A 2876   2.192   7.104   5.396
  214POPC   C4A 2877   2.054   7.022   5.825
  214POPC   C1B 2878   1.795   7.526   4.562
  214POPC   C2B 2879   1.879   7.555   5.035
  214POPC   C3B 2880   1.750   7.359   5.457
  214POPC   C4B 2881   1.638   7.323   5.904
  215POPC   NC3 2882   1.778   6.472   3.991
  215POPC   PO4 2883   2.345   6.087   3.911
  215POPC   GL1 2884   2.117   6.165   4.247
  215POPC   GL2 2885   2.215   6.500   4.300
  215POPC   C1A 2886   1.922   6.115   4.642
  215POPC   D2A 2887   1.830   6.308   5.045
  215POPC   C3A 2888   1.887   6.103   5.424
  215POPC   C4A 2889   2.109   6.130   5.779
  215POPC   C1B 2890   2.017   6.639   4.653
  215POPC   C2B 2891   2.168   6.722   5.063
  215POPC   C3B 2892   2.105   6.601   5.520
  215POPC   C4B 2893   1.723   6.509   5.722
  216POPC   NC3 2894   4.619   2.113   4.093
  216POPC   PO4 2895   5.247   1.859   4.027
  216POPC   GL1 2896   5.211   1.976   4.406
  216POPC   GL2 2897   4.896   2.066   4.513
  216POPC   C1A 2898   5.215   1.725   4.773
  216POPC   D2A 2899   4.968   1.779   5.126
  216POPC   C3A 2900   5.245   1.653   5.410
  216POPC   C4A 2901   5.403   1.877   5.704
  216POPC   C1B 2902   4.811   2.377   4.821
  216POPC   C2B 2903   4.846   2.392   5.279
  216POPC   C3B 2904   4.920   2.056   5.584
  216POPC   C4B 2905   4.658   1.804   5.828
  217POPC   NC3 2906   7.951   9.951   3.856
  217POPC   PO4 2907   7.656   0.157   3.856
  217POPC   GL1 2908   7.840   0.192   4.268
  217POPC   GL2 2909   8.106  10.446   4.221
  217POPC   C1A 2910   7.748   0.086   4.706
  217POPC   D2A 2911   7.963  10.446   5.087
  217POPC   C3A 2912   7.677  10.348   5.402
  217POPC   C4A 2913   7.577  10.465   5.806
  217POPC   C1B 2914   8.161  10.255   4.641
  217POPC   C2B 2915   8.229   9.966   4.973
  217POPC   C3B 2916   8.121   9.856   5.372
  217POPC   C4B 2917   8.015  10.093   5.717
  218POPC   NC3 2918   4.975   7.681   3.981
  218POPC   PO4 2919   4.590   8.019   4.269
  218POPC   GL1 2920   4.943   7.885   4.458
  218POPC   GL2 2921   5.034   8.196   4.404
  218POPC   C1A 2922   4.955   7.778   4.908
  218POPC   D2A 2923   4.723   7.634   5.296
  218POPC   C3A 2924   4.907   7.620   5.711
  218POPC   C4A 2925   4.803   7.431   6.156
  218POPC   C1B 2926   4.881   8.314   4.787
  218POPC   C2B 2927   4.688   8.159   5.147
  218POPC   C3B 2928   4.724   8.099   5.556
  218POPC   C4B 2929   5.113   8.110   5.853
  219POPC   NC3 2930   2.643   8.629   4.060
  219POPC   PO4 2931   3.270   9.094   4.140
  219POPC   GL1 2932   3.064   8.721   4.322
  219POPC   GL2 2933   2.750   8.829   4.501
  219POPC   C1A 2934   2.966   8.399   4.674
  219POPC   D2A 2935   2.865   8.602   5.017
  219POPC   C3A 2936   2.966   8.454   5.396
  219POPC   C4A 2937   2.969   8.727   5.735
  219POPC   C1B 2938   2.420   8.751   4.812
  219POPC   C2B 2939   2.339   8.842   5.209
  219POPC   C3B 2940   2.493   8.665   5.542
  219POPC   C4B 2941   2.544   8.438   5.883
  220POPC   NC3 2942   6.306   7.190   4.079
  220POPC   PO4 2943   6.766   7.545   3.804
  220POPC   GL1 2944   6.759   7.454   4.295
  220POPC   GL2 2945   6.730   7.105   4.425
  220POPC   C1A 2946   6.753   7.475   4.787
  220POPC   D2A 2947   6.646   7.189   5.136
  220POPC   C3A 2948   6.548   7.300   5.553
  220POPC   C4A 2949   6.452   7.162   5.969
  220POPC   C1B 2950   6.351   7.096   4.739
  220POPC   C2B 2951   6.178   6.966   5.170
  220POPC   C3B 2952   6.222   6.861   5.616
  220POPC   C4B 2953   5.914   6.959   5.970
  221POPC   NC3 2954   1.027   4.696   3.827
  221POPC   PO4 2955   1.171   5.281   4.007
  221POPC   GL1 2956   1.217   5.040   4.333
  221POPC   GL2 2957   1.203   4.722   4.300
  221POPC   C1A 2958   1.389   4.990   4.696
  221POPC   D2A 2959   1.507   5.313   4.927
  221POPC   C3A 2960   1.502   5.218   5.351
  221POPC   C4A 2961   1.500   4.964   5.745
  221POPC   C1B 2962   0.915   4.735   4.638
  221POPC   C2B 2963   0.996   4.990   5.017
  221POPC   C3B 2964   1.130   4.846   5.417
  221POPC   C4B 2965   1.009   5.132   5.742
  222POPC   NC3 2966   2.883   0.570   3.915
  222POPC   PO4 2967   2.259   0.325   4.081
  222POPC   GL1 2968   2.533   0.267   4.395
  222POPC   GL2 2969   2.887   0.240   4.290
  222POPC   C1A 2970   2.372   0.239   4.806
  222POPC   D2A 2971   2.350   0.321   5.236
  222POPC   C3A 2972   2.321   0.052   5.551
  222POPC   C4A 2973   2.424   0.316   5.868
  222POPC   C1B 2974   2.935   0.517   4.656
  222POPC   C2B 2975   2.792   0.520   5.096
  222POPC   C3B 2976   2.763   0.680   5.524
  222POPC   C4B 2977   2.768   0.670   5.974
  223POPC   NC3 2978   8.375   5.767   3.957
  223POPC   PO4 2979   9.142   5.651   3.958
  223POPC   GL1 2980   8.861   5.702   4.314
  223POPC   GL2 2981   8.658   5.996   4.351
  223POPC   C1A 2982   8.698   5.490   4.661
  223POPC   D2A 2983   8.903   5.308   5.007
  223POPC   C3A 2984   8.841   5.311   5.426
  223POPC   C4A 2985   8.832   5.425   5.822
  223POPC   C1B 2986   8.797   5.973   4.805
  223POPC   C2B 2987   9.061   5.774   5.126
  223POPC   C3B 2988   8.978   5.855   5.557
  223POPC   C4B 2989   8.600   5.969   5.787
  224POPC   NC3 2990   3.325  10.295   3.950
  224POPC   PO4 2991   2.787   9.842   3.940
  224POPC   GL1 2992   3.128   9.860   4.283
  224POPC   GL2 2993   3.454  10.061   4.376
  224POPC   C1A 2994   3.088  10.058   4.702
  224POPC   D2A 2995   3.196  10.279   5.055
  224POPC   C3A 2996   3.256  10.093   5.452
  224POPC   C4A 2997   3.222  10.283   5.871
  224POPC   C1B 2998   3.711  10.350   4.618
  224POPC   C2B 2999   3.659   0.014   5.014
  224POPC   C3B 3000   3.511   0.047   5.448
  224POPC   C4B 3001   3.713  10.327   5.798
  225POPC   NC3 3002   6.696  10.238   3.936
  225POPC   PO4 3003   6.051  10.044   3.888
  225POPC   GL1 3004   6.271  10.203   4.289
  225POPC   GL2 3005   6.625  10.331   4.408
  225POPC   C1A 3006   6.299  10.210   4.757
  225POPC   D2A 3007   6.159  10.111   5.161
  225POPC   C3A 3008   6.328  10.437   5.427
  225POPC   C4A 3009   6.136   0.056   5.829
  225POPC   C1B 3010   6.819  10.172   4.772
  225POPC   C2B 3011   6.679  10.109   5.160
  225POPC   C3B 3012   6.681   9.890   5.533
  225POPC   C4B 3013   6.630  10.206   5.823
  226POPC   NC3 3014   6.510   8.718   3.904
  226POPC   PO4 3015   6.835   8.183   3.999
  226POPC   GL1 3016   6.680   8.404   4.387
  226POPC   GL2 3017   6.349   8.536   4.349
  226POPC   C1A 3018   6.514   8.457   4.837
  226POPC   D2A 3019   6.623   8.667   5.225
  226POPC   C3A 3020   6.400   8.473   5.549
  226POPC   C4A 3021   6.335   8.479   6.017
  226POPC   C1B 3022   6.129   8.781   4.659
  226POPC   C2B 3023   6.214   8.956   5.063
  226POPC   C3B 3024   6.040   9.004   5.477
  226POPC   C4B 3025   5.947   8.618   5.707
  227POPC   NC3 3026   7.128   1.858   3.863
  227POPC   PO4 3027   6.686   2.349   3.974
  227POPC   GL1 3028   6.946   2.159   4.303
  227POPC   GL2 3029   7.013   1.806   4.357
  227POPC   C1A 3030   6.869   2.049   4.756
  227POPC   D2A 3031   7.070   2.119   5.120
  227POPC   C3A 3032   6.871   2.083   5.532
  227POPC   C4A 3033   7.064   2.210   5.908
  227POPC   C1B 3034   7.346   1.949   4.665
  227POPC   C2B 3035   7.515   1.863   5.069
  227POPC   C3B 3036   7.414   2.013   5.471
  227POPC   C4B 3037   7.272   1.766   5.819
  228POPC   NC3 3038   9.475   1.297   3.800
  228POPC   PO4 3039  10.085   1.512   3.811
  228POPC   GL1 3040   9.863   1.413   4.209
  228POPC   GL2 3041   9.771   1.055   4.177
  228POPC   C1A 3042   9.821   1.385   4.697
  228POPC   D2A 3043   9.843   1.110   5.075
  228POPC   C3A 3044   9.721   1.192   5.474
  228POPC   C4A 3045   9.766   1.531   5.719
  228POPC   C1B 3046   9.424   1.162   4.476
  228POPC   C2B 3047   9.349   1.159   4.934
  228POPC   C3B 3048   9.233   1.150   5.371
  228POPC   C4B 3049   9.303   1.319   5.821
  229POPC   NC3 3050   9.265   5.178   4.055
  229POPC   PO4 3051   9.864   5.354   3.893
  229POPC   GL1 3052   9.728   5.133   4.318
  229POPC   GL2 3053   9.518   4.825   4.327
  229POPC   C1A 3054   9.682   5.007   4.776
  229POPC   D2A 3055   9.672   4.769   5.156
  229POPC   C3A 3056   9.708   5.098   5.465
  229POPC   C4A 3057   9.630   5.201   5.916
  229POPC   C1B 3058   9.187   5.008   4.642
  229POPC   C2B 3059   9.211   4.923   5.002
  229POPC   C3B 3060   9.223   4.942   5.382
  229POPC   C4B 3061   9.184   5.071   5.745
  230POPC   NC3 3062   7.087   0.540   3.791
  230POPC   PO4 3063   7.699   0.812   3.942
  230POPC   GL1 3064   7.444   0.548   4.240
  230POPC   GL2 3065   7.077   0.465   4.300
  230POPC   C1A 3066   7.321   0.561   4.701
  230POPC   D2A 3067   7.122   0.600   5.093
  230POPC   C3A 3068   7.384   0.751   5.444
  230POPC   C4A 3069   7.508   0.527   5.821
  230POPC   C1B 3070   7.048   0.127   4.652
  230POPC   C2B 3071   7.290   0.100   5.037
  230POPC   C3B 3072   7.323   0.232   5.430
  230POPC   C4B 3073   7.041   0.412   5.683
  231POPC   NC3 3074   1.946   4.347   4.009
  231POPC   PO4 3075   1.916   3.736   3.934
  231POPC   GL1 3076   2.069   3.928   4.327
  231POPC   GL2 3077   1.747   4.041   4.373
  231POPC   C1A 3078   2.151   4.224   4.688
  231POPC   D2A 3079   2.095   4.460   5.097
  231POPC   C3A 3080   2.120   4.159   5.458
  231POPC   C4A 3081   2.340   4.019   5.845
  231POPC   C1B 3082   1.697   3.989   4.799
  231POPC   C2B 3083   1.634   4.293   5.118
  231POPC   C3B 3084   1.653   4.349   5.569
  231POPC   C4B 3085   1.773   3.948   5.768
  232POPC   NC3 3086   2.389   7.249   3.838
  232POPC   PO4 3087   2.963   7.534   3.894
  232POPC   GL1 3088   2.742   7.301   4.218
  232POPC   GL2 3089   2.616   6.951   4.200
  232POPC   C1A 3090   2.700   7.304   4.647
  232POPC   D2A 3091   2.908   7.467   5.005
  232POPC   C3A 3092   2.699   7.310   5.366
  232POPC   C4A 3093   2.518   7.252   5.743
  232POPC   C1B 3094   2.523   6.810   4.635
  232POPC   C2B 3095   2.649   6.874   5.097
  232POPC   C3B 3096   2.593   6.776   5.575
  232POPC   C4B 3097   2.486   6.874   6.065
  233POPC   NC3 3098   4.014   1.303   3.895
  233POPC   PO4 3099   3.279   1.239   3.874
  233POPC   GL1 3100   3.598   1.232   4.187
  233POPC   GL2 3101   3.567   0.929   4.335
  233POPC   C1A 3102   3.661   1.365   4.606
  233POPC   D2A 3103   3.444   1.350   5.001
  233POPC   C3A 3104   3.647   1.446   5.411
  233POPC   C4A 3105   3.651   1.227   5.794
  233POPC   C1B 3106   3.251   0.960   4.645
  233POPC   C2B 3107   3.165   0.899   5.077
  233POPC   C3B 3108   3.243   1.114   5.450
  233POPC   C4B 3109   3.202   0.876   5.792
  234POPC   NC3 3110   1.956   8.883   3.704
  234POPC   PO4 3111   2.286   8.960   4.240
  234POPC   GL1 3112   1.964   8.793   4.547
  234POPC   GL2 3113   1.756   8.448   4.563
  234POPC   C1A 3114   1.929   8.976   4.942
  234POPC   D2A 3115   1.802   8.989   5.331
  234POPC   C3A 3116   2.126   9.089   5.619
  234POPC   C4A 3117   2.202   8.810   5.942
  234POPC   C1B 3118   1.997   8.471   4.946
  234POPC   C2B 3119   2.004   8.501   5.401
  234POPC   C3B 3120   1.867   8.409   5.820
  234POPC   C4B 3121   2.152   8.365   6.208
  235POPC   NC3 3122   6.826   2.775   4.124
  235POPC   PO4 3123   7.417   3.079   3.893
  235POPC   GL1 3124   7.344   2.851   4.264
  235POPC   GL2 3125   7.372   2.478   4.233
  235POPC   C1A 3126   7.278   2.956   4.684
  235POPC   D2A 3127   7.478   2.918   5.063
  235POPC   C3A 3128   7.263   2.983   5.454
  235POPC   C4A 3129   7.392   2.977   5.877
  235POPC   C1B 3130   7.167   2.456   4.654
  235POPC   C2B 3131   7.042   2.631   5.048
  235POPC   C3B 3132   7.140   2.498   5.468
  235POPC   C4B 3133   6.973   2.703   5.829
  236POPC   NC3 3134   7.138   3.591   3.821
  236POPC   PO4 3135   7.767   3.780   3.903
  236POPC   GL1 3136   7.414   3.522   4.219
  236POPC   GL2 3137   7.066   3.293   4.220
  236POPC   C1A 3138   7.359   3.465   4.644
  236POPC   D2A 3139   7.604   3.399   5.002
  236POPC   C3A 3140   7.465   3.442   5.417
  236POPC   C4A 3141   7.312   3.507   5.850
  236POPC   C1B 3142   6.859   3.247   4.628
  236POPC   C2B 3143   7.061   3.269   5.051
  236POPC   C3B 3144   6.965   3.417   5.481
  236POPC   C4B 3145   6.878   3.217   5.856
  237POPC   NC3 3146   2.382   3.683   3.847
  237POPC   PO4 3147   3.030   3.893   3.909
  237POPC   GL1 3148   2.703   3.692   4.261
  237POPC   GL2 3149   2.355   3.486   4.311
  237POPC   C1A 3150   2.529   3.835   4.676
  237POPC   D2A 3151   2.460   3.666   5.102
  237POPC   C3A 3152   2.642   3.832   5.484
  237POPC   C4A 3153   2.826   3.747   5.878
  237POPC   C1B 3154   2.490   3.313   4.716
  237POPC   C2B 3155   2.399   3.171   5.146
  237POPC   C3B 3156   2.624   3.332   5.521
  237POPC   C4B 3157   2.448   3.422   5.925
  238POPC   NC3 3158   9.644   0.491   3.875
  238POPC   PO4 3159   9.160   0.049   3.936
  238POPC   GL1 3160   9.437   0.265   4.276
  238POPC   GL2 3161   9.596   0.605   4.355
  238POPC   C1A 3162   9.397   0.316   4.713
  238POPC   D2A 3163   9.159   0.423   4.997
  238POPC   C3A 3164   9.267   0.259   5.355
  238POPC   C4A 3165   9.140   0.370   5.755
  238POPC   C1B 3166   9.631   0.770   4.771
  238POPC   C2B 3167   9.497   0.742   5.206
  238POPC   C3B 3168   9.444   0.780   5.637
  238POPC   C4B 3169   9.284   0.778   6.031
  239POPC   NC3 3170   8.495   8.498   3.772
  239POPC   PO4 3171   8.971   8.899   3.743
  239POPC   GL1 3172   8.993   8.676   4.208
  239POPC   GL2 3173   8.698   8.534   4.268
  239POPC   C1A 3174   9.026   8.604   4.678
  239POPC   D2A 3175   8.989   8.356   5.077
  239POPC   C3A 3176   8.957   8.580   5.459
  239POPC   C4A 3177   8.895   8.744   5.883
  239POPC   C1B 3178   8.517   8.665   4.688
  239POPC   C2B 3179   8.495   8.510   5.116
  239POPC   C3B 3180   8.462   8.667   5.509
  239POPC   C4B 3181   8.420   8.946   5.784
  240POPC   NC3 3182   1.806   0.293   3.949
  240POPC   PO4 3183   1.690   0.920   3.787
  240POPC   GL1 3184   1.882   0.711   4.210
  240POPC   GL2 3185   1.686   0.590   4.393
  240POPC   C1A 3186   2.139   0.682   4.635
  240POPC   D2A 3187   1.945   0.547   5.033
  240POPC   C3A 3188   2.030   0.638   5.474
  240POPC   C4A 3189   2.119   0.726   5.934
  240POPC   C1B 3190   1.803   0.239   4.626
  240POPC   C2B 3191   1.662   0.096   5.021
  240POPC   C3B 3192   1.844   0.159   5.393
  240POPC   C4B 3193   1.912   0.287   5.820
  241POPC   NC3 3194   4.250   3.644   3.921
  241POPC   PO4 3195   4.676   3.267   3.913
  241POPC   GL1 3196   4.526   3.186   4.351
  241POPC   GL2 3197   4.173   3.240   4.363
  241POPC   C1A 3198   4.444   3.249   4.825
  241POPC   D2A 3199   4.453   3.338   5.284
  241POPC   C3A 3200   4.413   3.763   5.489
  241POPC   C4A 3201   4.474   4.080   5.876
  241POPC   C1B 3202   3.972   3.056   4.706
  241POPC   C2B 3203   3.948   3.199   5.139
  241POPC   C3B 3204   4.043   3.375   5.568
  241POPC   C4B 3205   4.429   3.355   5.797
  242POPC   NC3 3206   0.318   8.760   3.904
  242POPC   PO4 3207   0.694   8.165   3.839
  242POPC   GL1 3208   0.698   8.360   4.271
  242POPC   GL2 3209   0.359   8.531   4.343
  242POPC   C1A 3210   0.749   8.649   4.640
  242POPC   D2A 3211   0.527   8.621   5.034
  242POPC   C3A 3212   0.640   8.801   5.452
  242POPC   C4A 3213   0.465   8.484   5.757
  242POPC   C1B 3214   0.250   8.885   4.590
  242POPC   C2B 3215   0.087   8.909   4.988
  242POPC   C3B 3216   0.153   8.728   5.372
  242POPC   C4B 3217   0.131   8.859   5.754
  243POPC   NC3 3218   1.320   2.632   4.053
  243POPC   PO4 3219   1.135   3.360   3.891
  243POPC   GL1 3220   1.312   3.259   4.289
  243POPC   GL2 3221   1.273   3.628   4.336
  243POPC   C1A 3222   1.247   3.024   4.665
  243POPC   D2A 3223   0.908   3.181   4.898
  243POPC   C3A 3224   0.897   3.162   5.327
  243POPC   C4A 3225   0.914   3.168   5.765
  243POPC   C1B 3226   1.340   3.560   4.741
  243POPC   C2B 3227   1.348   3.395   5.128
  243POPC   C3B 3228   1.188   3.515   5.507
  243POPC   C4B 3229   1.480   3.479   5.778
  244POPC   NC3 3230   6.036   2.823   4.107
  244POPC   PO4 3231   5.465   2.828   3.911
  244POPC   GL1 3232   5.547   2.839   4.339
  244POPC   GL2 3233   5.681   2.500   4.320
  244POPC   C1A 3234   5.511   3.011   4.797
  244POPC   D2A 3235   5.702   2.841   5.219
  244POPC   C3A 3236   5.702   3.053   5.618
  244POPC   C4A 3237   5.371   3.201   5.902
  244POPC   C1B 3238   5.762   2.584   4.763
  244POPC   C2B 3239   5.765   2.349   5.145
  244POPC   C3B 3240   5.772   2.473   5.604
  244POPC   C4B 3241   6.043   2.584   5.977
  245POPC   NC3 3242   0.255   4.509   3.941
  245POPC   PO4 3243   0.736   5.006   3.691
  245POPC   GL1 3244   0.735   5.000   4.195
  245POPC   GL2 3245   0.439   4.831   4.454
  245POPC   C1A 3246   0.701   5.200   4.633
  245POPC   D2A 3247   0.479   5.006   4.980
  245POPC   C3A 3248   0.636   4.957   5.395
  245POPC   C4A 3249   0.682   4.647   5.690
  245POPC   C1B 3250   0.068   4.771   4.781
  245POPC   C2B 3251   0.065   4.738   5.211
  245POPC   C3B 3252   0.187   4.811   5.606
  245POPC   C4B 3253   0.164   5.117   5.892
  246POPC   NC3 3254   4.314  10.155   3.895
  246POPC   PO4 3255   3.660   9.982   3.896
  246POPC   GL1 3256   3.945  10.037   4.226
  246POPC   GL2 3257   4.035  10.408   4.227
  246POPC   C1A 3258   3.889   9.876   4.622
  246POPC   D2A 3259   3.591   9.971   4.945
  246POPC   C3A 3260   3.774  10.098   5.319
  246POPC   C4A 3261   3.685   9.836   5.642
  246POPC   C1B 3262   4.213  10.286   4.625
  246POPC   C2B 3263   4.409  10.032   4.963
  246POPC   C3B 3264   4.296  10.048   5.399
  246POPC   C4B 3265   4.194  10.424   5.639
  247POPC   NC3 3266   6.231   9.610   3.986
  247POPC   PO4 3267   6.829   9.842   4.104
  247POPC   GL1 3268   6.519   9.798   4.446
  247POPC   GL2 3269   6.304   9.503   4.476
  247POPC   C1A 3270   6.436   9.747   4.901
  247POPC   D2A 3271   6.350   9.433   5.199
  247POPC   C3A 3272   6.218   9.613   5.535
  247POPC   C4A 3273   6.185  10.021   5.670
  247POPC   C1B 3274   6.584   9.290   4.760
  247POPC   C2B 3275   6.768   9.163   5.167
  247POPC   C3B 3276   6.685   9.333   5.597
  247POPC   C4B 3277   6.654   9.289   6.062
  248POPC   NC3 3278   0.810   7.000   4.110
  248POPC   PO4 3279   1.447   6.831   3.923
  248POPC   GL1 3280   1.280   7.061   4.299
  248POPC   GL2 3281   1.072   7.398   4.330
  248POPC   C1A 3282   1.135   7.032   4.722
  248POPC   D2A 3283   1.282   7.042   5.136
  248POPC   C3A 3284   0.937   6.956   5.381
  248POPC   C4A 3285   0.881   7.038   5.795
  248POPC   C1B 3286   1.277   7.535   4.737
  248POPC   C2B 3287   1.370   7.605   5.182
  248POPC   C3B 3288   1.229   7.361   5.542
  248POPC   C4B 3289   1.370   6.929   5.694
  249POPC   NC3 3290   4.130   7.141   3.835
  249POPC   PO4 3291   4.618   7.480   3.787
  249POPC   GL1 3292   4.434   7.431   4.211
  249POPC   GL2 3293   4.112   7.260   4.324
  249POPC   C1A 3294   4.453   7.359   4.680
  249POPC   D2A 3295   4.359   7.078   5.037
  249POPC   C3A 3296   4.278   7.294   5.403
  249POPC   C4A 3297   4.550   7.264   5.730
  249POPC   C1B 3298   3.943   7.086   4.726
  249POPC   C2B 3299   3.863   7.046   5.199
  249POPC   C3B 3300   4.104   6.832   5.555
  249POPC   C4B 3301   4.236   6.611   5.979
  250POPC   NC3 3302   4.785   8.319   3.970
  250POPC   PO4 3303   4.725   8.967   3.970
  250POPC   GL1 3304   4.912   8.714   4.296
  250POPC   GL2 3305   5.243   8.576   4.144
  250POPC   C1A 3306   4.933   8.827   4.735
  250POPC   D2A 3307   4.808   8.685   5.139
  250POPC   C3A 3308   4.818   8.831   5.607
  250POPC   C4A 3309   4.741   8.905   6.067
  250POPC   C1B 3310   5.337   8.525   4.599
  250POPC   C2B 3311   5.337   8.636   5.028
  250POPC   C3B 3312   5.145   8.477   5.447
  250POPC   C4B 3313   5.210   8.621   5.888
  251POPC   NC3 3314   7.757   5.086   4.349
  251POPC   PO4 3315   8.252   5.275   3.984
  251POPC   GL1 3316   8.275   5.176   4.379
  251POPC   GL2 3317   8.276   4.850   4.380
  251POPC   C1A 3318   8.181   5.304   4.785
  251POPC   D2A 3319   7.904   5.084   5.124
  251POPC   C3A 3320   7.832   5.205   5.555
  251POPC   C4A 3321   7.917   5.304   5.978
  251POPC   C1B 3322   8.134   4.810   4.771
  251POPC   C2B 3323   8.255   4.698   5.122
  251POPC   C3B 3324   7.996   4.632   5.453
  251POPC   C4B 3325   7.891   4.780   5.842
  252POPC   NC3 3326   7.545   9.040   3.782
  252POPC   PO4 3327   8.029   8.577   3.657
  252POPC   GL1 3328   7.909   8.630   4.121
  252POPC   GL2 3329   8.228   8.721   4.255
  252POPC   C1A 3330   7.850   8.811   4.576
  252POPC   D2A 3331   8.053   9.007   4.960
  252POPC   C3A 3332   7.974   8.900   5.407
  252POPC   C4A 3333   7.906   9.060   5.865
  252POPC   C1B 3334   8.110   8.370   4.600
  252POPC   C2B 3335   8.138   8.147   5.001
  252POPC   C3B 3336   8.096   8.329   5.398
  252POPC   C4B 3337   8.026   8.569   5.786
  253POPC   NC3 3338   8.885   1.207   3.979
  253POPC   PO4 3339   8.419   0.711   3.821
  253POPC   GL1 3340   8.434   1.054   4.201
  253POPC   GL2 3341   8.687   0.948   4.426
  253POPC   C1A 3342   8.424   1.398   4.584
  253POPC   D2A 3343   8.436   1.636   5.006
  253POPC   C3A 3344   8.417   1.402   5.416
  253POPC   C4A 3345   8.398   1.026   5.711
  253POPC   C1B 3346   8.928   1.292   4.656
  253POPC   C2B 3347   8.954   1.489   5.080
  253POPC   C3B 3348   8.901   1.466   5.537
  253POPC   C4B 3349   8.896   1.034   5.796
  254POPC   NC3 3350   1.345   5.660   3.817
  254POPC   PO4 3351   0.732   5.974   3.751
  254POPC   GL1 3352   0.974   5.999   4.121
  254POPC   GL2 3353   0.952   5.663   4.233
  254POPC   C1A 3354   1.057   6.019   4.587
  254POPC   D2A 3355   0.811   6.055   4.987
  254POPC   C3A 3356   0.961   6.010   5.396
  254POPC   C4A 3357   0.974   5.739   5.781
  254POPC   C1B 3358   1.113   5.484   4.628
  254POPC   C2B 3359   1.118   5.636   5.041
  254POPC   C3B 3360   1.339   5.700   5.421
  254POPC   C4B 3361   1.407   5.469   5.779
  255POPC   NC3 3362   7.230   9.567   3.994
  255POPC   PO4 3363   7.305   8.981   4.165
  255POPC   GL1 3364   7.181   9.287   4.415
  255POPC   GL2 3365   6.859   9.398   4.343
  255POPC   C1A 3366   7.117   9.231   4.797
  255POPC   D2A 3367   7.301   9.296   5.129
  255POPC   C3A 3368   7.166   9.071   5.469
  255POPC   C4A 3369   7.091   9.125   5.862
  255POPC   C1B 3370   6.926   9.679   4.708
  255POPC   C2B 3371   6.924   9.655   5.121
  255POPC   C3B 3372   7.125   9.599   5.502
  255POPC   C4B 3373   6.988   9.632   5.926
  256POPC   NC3 3374   0.330   3.714   4.070
  256POPC   PO4 3375   0.378   3.205   3.539
  256POPC   GL1 3376   0.494   3.231   4.059
  256POPC   GL2 3377   0.758   3.445   4.215
  256POPC   C1A 3378   0.368   3.283   4.545
  256POPC   D2A 3379   0.413   3.474   4.979
  256POPC   C3A 3380   0.221   3.356   5.389
  256POPC   C4A 3381   0.430   3.289   5.762
  256POPC   C1B 3382   0.803   3.634   4.628
  256POPC   C2B 3383   0.895   3.643   5.073
  256POPC   C3B 3384   0.691   3.617   5.442
  256POPC   C4B 3385   0.819   3.694   5.856
  257POPC   NC3 3386   7.269   0.063   4.071
  257POPC   PO4 3387   7.483   9.944   3.961
  257POPC   GL1 3388   7.291   9.854   4.385
  257POPC   GL2 3389   7.117  10.170   4.359
  257POPC   C1A 3390   7.423   9.705   4.807
  257POPC   D2A 3391   7.711   9.938   5.069
  257POPC   C3A 3392   7.603   9.834   5.496
  257POPC   C4A 3393   7.273  10.023   5.756
  257POPC   C1B 3394   7.352  10.198   4.750
  257POPC   C2B 3395   7.220  10.095   5.186
  257POPC   C3B 3396   6.985  10.360   5.482
  257POPC   C4B 3397   7.079  10.468   5.906
  258POPC   NC3 3398   0.146   3.598   3.601
  258POPC   PO4 3399   0.638   4.044   3.944
  258POPC   GL1 3400   0.405   4.166   4.319
  258POPC   GL2 3401   0.140   4.409   4.431
  258POPC   C1A 3402   0.358   3.949   4.690
  258POPC   D2A 3403   0.534   3.993   5.066
  258POPC   C3A 3404   0.255   3.869   5.333
  258POPC   C4A 3405   0.300   3.768   5.731
  258POPC   C1B 3406   0.483   4.456   4.778
  258POPC   C2B 3407   0.733   4.464   5.169
  258POPC   C3B 3408   0.708   4.154   5.533
  258POPC   C4B 3409   0.313   4.274   5.681
  259POPC   NC3 3410   9.235   7.185   3.838
  259POPC   PO4 3411   9.136   7.696   4.120
  259POPC   GL1 3412   9.399   7.528   4.361
  259POPC   GL2 3413   9.511   7.207   4.318
  259POPC   C1A 3414   9.271   7.536   4.769
  259POPC   D2A 3415   9.280   7.278   5.090
  259POPC   C3A 3416   9.382   7.464   5.432
  259POPC   C4A 3417   9.235   7.528   5.819
  259POPC   C1B 3418   9.525   6.981   4.741
  259POPC   C2B 3419   9.365   6.782   5.136
  259POPC   C3B 3420   9.270   6.959   5.520
  259POPC   C4B 3421   9.501   7.099   5.828
  260POPC   NC3 3422   2.810   2.501   3.846
  260POPC   PO4 3423   2.394   3.122   3.885
  260POPC   GL1 3424   2.404   2.940   4.318
  260POPC   GL2 3425   2.585   2.604   4.295
  260POPC   C1A 3426   2.509   2.807   4.740
  260POPC   D2A 3427   2.812   2.892   5.031
  260POPC   C3A 3428   2.646   2.831   5.459
  260POPC   C4A 3429   2.526   2.834   5.885
  260POPC   C1B 3430   2.958   2.569   4.588
  260POPC   C2B 3431   3.246   2.512   4.928
  260POPC   C3B 3432   3.088   2.569   5.328
  260POPC   C4B 3433   2.953   2.559   5.758
  261POPC   NC3 3434   8.919   4.321   3.939
  261POPC   PO4 3435   9.576   3.941   3.910
  261POPC   GL1 3436   9.262   3.991   4.230
  261POPC   GL2 3437   9.269   4.350   4.320
  261POPC   C1A 3438   9.400   4.001   4.675
  261POPC   D2A 3439   9.488   3.769   5.039
  261POPC   C3A 3440   9.374   3.976   5.401
  261POPC   C4A 3441   9.506   3.983   5.810
  261POPC   C1B 3442   9.379   4.524   4.723
  261POPC   C2B 3443   9.224   4.462   5.170
  261POPC   C3B 3444   9.343   4.482   5.611
  261POPC   C4B 3445   9.642   4.443   5.955
  262POPC   NC3 3446   5.045   2.995   3.895
  262POPC   PO4 3447   4.514   2.521   3.871
  262POPC   GL1 3448   4.767   2.591   4.271
  262POPC   GL2 3449   5.120   2.460   4.188
  262POPC   C1A 3450   4.894   2.867   4.652
  262POPC   D2A 3451   4.854   3.051   5.101
  262POPC   C3A 3452   4.741   2.959   5.559
  262POPC   C4A 3453   4.869   3.217   5.991
  262POPC   C1B 3454   5.263   2.510   4.615
  262POPC   C2B 3455   5.229   2.678   5.063
  262POPC   C3B 3456   5.249   2.785   5.526
  262POPC   C4B 3457   5.038   2.752   5.946
  263POPC   NC3 3458   0.298   6.090   3.916
  263POPC   PO4 3459   0.615   6.683   3.847
  263POPC   GL1 3460   0.609   6.391   4.171
  263POPC   GL2 3461   0.233   6.430   4.283
  263POPC   C1A 3462   0.573   6.215   4.573
  263POPC   D2A 3463   0.502   6.475   4.962
  263POPC   C3A 3464   0.544   6.288   5.368
  263POPC   C4A 3465   0.667   6.140   5.780
  263POPC   C1B 3466   0.083   6.310   4.709
  263POPC   C2B 3467  10.467   6.580   5.042
  263POPC   C3B 3468   0.194   6.643   5.377
  263POPC   C4B 3469   0.334   6.509   5.786
  264POPC   NC3 3470   0.453   1.412   4.022
  264POPC   PO4 3471   0.874   0.879   3.758
  264POPC   GL1 3472   0.844   1.011   4.194
  264POPC   GL2 3473   0.503   1.056   4.369
  264POPC   C1A 3474   0.908   1.125   4.633
  264POPC   D2A 3475   0.590   1.058   4.949
  264POPC   C3A 3476   0.653   1.103   5.397
  264POPC   C4A 3477   0.741   0.981   5.785
  264POPC   C1B 3478   0.154   1.019   4.649
  264POPC   C2B 3479   0.138   0.831   5.046
  264POPC   C3B 3480   0.024   0.794   5.454
  264POPC   C4B 3481   0.213   1.112   5.713
  265POPC   NC3 3482   6.486   7.939   3.798
  265POPC   PO4 3483   6.028   7.551   4.034
  265POPC   GL1 3484   6.290   7.674   4.310
  265POPC   GL2 3485   6.538   7.914   4.307
  265POPC   C1A 3486   6.270   7.610   4.735
  265POPC   D2A 3487   6.238   7.513   5.170
  265POPC   C3A 3488   6.408   7.793   5.485
  265POPC   C4A 3489   6.354   7.653   5.890
  265POPC   C1B 3490   6.251   8.100   4.593
  265POPC   C2B 3491   6.331   8.034   5.041
  265POPC   C3B 3492   6.719   8.152   5.266
  265POPC   C4B 3493   6.788   8.198   5.712
  266POPC   NC3 3494   8.086   1.038   3.813
  266POPC   PO4 3495   7.686   1.475   3.662
  266POPC   GL1 3496   7.785   1.270   4.160
  266POPC   GL2 3497   7.531   1.055   4.364
  266POPC   C1A 3498   8.006   1.102   4.519
  266POPC   D2A 3499   8.093   0.929   4.922
  266POPC   C3A 3500   7.819   0.970   5.272
  266POPC   C4A 3501   7.967   1.229   5.615
  266POPC   C1B 3502   7.543   1.018   4.825
  266POPC   C2B 3503   7.472   1.350   5.137
  266POPC   C3B 3504   7.556   1.475   5.530
  266POPC   C4B 3505   7.543   1.089   5.832
  267POPC   NC3 3506   0.618   5.444   3.841
  267POPC   PO4 3507   0.262   4.953   4.019
  267POPC   GL1 3508   0.363   5.345   4.272
  267POPC   GL2 3509   0.440   5.730   4.263
  267POPC   C1A 3510   0.217   5.427   4.684
  267POPC   D2A 3511   0.053   5.271   5.049
  267POPC   C3A 3512   0.276   5.301   5.423
  267POPC   C4A 3513   0.556   5.430   5.781
  267POPC   C1B 3514   0.643   5.706   4.655
  267POPC   C2B 3515   0.559   5.596   5.095
  267POPC   C3B 3516   0.373   5.814   5.477
  267POPC   C4B 3517   0.199   6.006   5.879
  268POPC   NC3 3518   9.083   6.114   4.063
  268POPC   PO4 3519   8.479   6.239   3.843
  268POPC   GL1 3520   8.633   6.489   4.207
  268POPC   GL2 3521   8.949   6.524   4.328
  268POPC   C1A 3522   8.548   6.393   4.650
  268POPC   D2A 3523   8.396   6.250   5.038
  268POPC   C3A 3524   8.613   6.283   5.402
  268POPC   C4A 3525   8.499   6.471   5.798
  268POPC   C1B 3526   9.084   6.578   4.731
  268POPC   C2B 3527   8.867   6.583   5.090
  268POPC   C3B 3528   8.812   6.756   5.496
  268POPC   C4B 3529   8.995   6.704   5.904
  269POPC   NC3 3530   5.598   9.848   3.887
  269POPC   PO4 3531   5.895   9.239   3.961
  269POPC   GL1 3532   5.825   9.619   4.282
  269POPC   GL2 3533   5.484   9.659   4.346
  269POPC   C1A 3534   5.933   9.856   4.671
  269POPC   D2A 3535   5.913   9.668   5.100
  269POPC   C3A 3536   5.719   9.849   5.475
  269POPC   C4A 3537   5.845   9.697   5.879
  269POPC   C1B 3538   5.530   9.552   4.765
  269POPC   C2B 3539   5.439   9.490   5.182
  269POPC   C3B 3540   5.651   9.354   5.530
  269POPC   C4B 3541   5.404   9.473   5.890
  270POPC   NC3 3542   4.327   2.966   3.915
  270POPC   PO4 3543   3.936   2.402   4.006
  270POPC   GL1 3544   4.227   2.431   4.279
  270POPC   GL2 3545   4.256   2.733   4.350
  270POPC   C1A 3546   4.298   2.264   4.653
  270POPC   D2A 3547   4.371   2.335   5.065
  270POPC   C3A 3548   4.053   2.226   5.256
  270POPC   C4A 3549   3.921   2.345   5.632
  270POPC   C1B 3550   4.408   2.749   4.752
  270POPC   C2B 3551   4.364   2.844   5.187
  270POPC   C3B 3552   4.169   2.825   5.601
  270POPC   C4B 3553   4.094   3.045   5.999
  271POPC   NC3 3554   3.471   2.135   4.009
  271POPC   PO4 3555   3.968   1.735   3.725
  271POPC   GL1 3556   3.707   1.732   4.224
  271POPC   GL2 3557   3.334   1.672   4.301
  271POPC   C1A 3558   3.537   1.832   4.731
  271POPC   D2A 3559   3.602   2.040   5.149
  271POPC   C3A 3560   3.476   1.901   5.538
  271POPC   C4A 3561   3.236   1.562   5.750
  271POPC   C1B 3562   3.062   1.960   4.635
  271POPC   C2B 3563   3.082   2.039   5.098
  271POPC   C3B 3564   3.017   2.095   5.546
  271POPC   C4B 3565   3.210   2.050   5.961
  272POPC   NC3 3566   7.818   3.329   4.004
  272POPC   PO4 3567   8.247   3.951   3.958
  272POPC   GL1 3568   8.195   3.590   4.258
  272POPC   GL2 3569   7.876   3.575   4.428
  272POPC   C1A 3570   8.256   3.311   4.615
  272POPC   D2A 3571   8.095   3.500   4.988
  272POPC   C3A 3572   8.104   3.592   5.423
  272POPC   C4A 3573   8.110   3.792   5.835
  272POPC   C1B 3574   7.779   3.130   4.603
  272POPC   C2B 3575   7.985   2.977   4.962
  272POPC   C3B 3576   7.861   3.122   5.374
  272POPC   C4B 3577   7.819   3.350   5.781
  273POPC   NC3 3578   2.149   0.966   3.885
  273POPC   PO4 3579   2.368   1.651   3.870
  273POPC   GL1 3580   2.135   1.495   4.256
  273POPC   GL2 3581   1.989   1.181   4.318
  273POPC   C1A 3582   2.074   1.474   4.711
  273POPC   D2A 3583   2.370   1.372   5.038
  273POPC   C3A 3584   2.189   1.456   5.411
  273POPC   C4A 3585   2.335   1.465   5.805
  273POPC   C1B 3586   1.778   1.026   4.705
  273POPC   C2B 3587   1.926   1.075   5.146
  273POPC   C3B 3588   1.833   1.083   5.605
  273POPC   C4B 3589   1.553   1.275   5.885
  274POPC   NC3 3590   7.102   7.790   3.996
  274POPC   PO4 3591   7.507   8.294   3.970
  274POPC   GL1 3592   7.263   8.138   4.321
  274POPC   GL2 3593   7.365   7.792   4.444
  274POPC   C1A 3594   7.033   8.171   4.696
  274POPC   D2A 3595   7.248   8.258   5.064
  274POPC   C3A 3596   7.201   8.010   5.413
  274POPC   C4A 3597   7.321   8.184   5.759
  274POPC   C1B 3598   7.227   7.737   4.922
  274POPC   C2B 3599   6.892   7.633   5.276
  274POPC   C3B 3600   6.857   7.706   5.743
  274POPC   C4B 3601   6.758   7.569   6.201
  275POPC   NC3 3602   4.220   2.129   3.747
  275POPC   PO4 3603   4.579   1.639   4.076
  275POPC   GL1 3604   4.465   1.771   4.441
  275POPC   GL2 3605   4.171   1.927   4.258
  275POPC   C1A 3606   4.516   1.867   4.879
  275POPC   D2A 3607   4.501   1.892   5.324
  275POPC   C3A 3608   4.430   2.233   5.591
  275POPC   C4A 3609   4.229   2.072   5.948
  275POPC   C1B 3610   4.030   1.812   4.682
  275POPC   C2B 3611   4.038   1.715   5.120
  275POPC   C3B 3612   3.994   1.822   5.559
  275POPC   C4B 3613   3.751   1.737   5.926
  276POPC   NC3 3614   2.470   9.392   4.198
  276POPC   PO4 3615   1.900   9.404   3.792
  276POPC   GL1 3616   1.941   9.353   4.240
  276POPC   GL2 3617   1.720   9.091   4.224
  276POPC   C1A 3618   2.137   9.390   4.716
  276POPC   D2A 3619   2.318   9.342   5.133
  276POPC   C3A 3620   2.128   9.594   5.457
  276POPC   C4A 3621   2.050   9.557   5.884
  276POPC   C1B 3622   1.651   9.255   4.635
  276POPC   C2B 3623   1.758   9.491   5.021
  276POPC   C3B 3624   1.620   9.455   5.407
  276POPC   C4B 3625   1.650   9.237   5.765
  277POPC   NC3 3626   5.012   1.487   4.195
  277POPC   PO4 3627   5.005   0.924   3.785
  277POPC   GL1 3628   4.784   0.910   4.224
  277POPC   GL2 3629   4.581   1.211   4.353
  277POPC   C1A 3630   4.810   0.940   4.698
  277POPC   D2A 3631   4.589   0.918   5.077
  277POPC   C3A 3632   4.801   0.874   5.471
  277POPC   C4A 3633   4.518   1.010   5.785
  277POPC   C1B 3634   4.768   1.434   4.763
  277POPC   C2B 3635   4.951   1.269   5.139
  277POPC   C3B 3636   4.852   1.373   5.568
  277POPC   C4B 3637   5.082   1.537   5.898
  278POPC   NC3 3638   0.831   0.505   4.017
  278POPC   PO4 3639   0.223   0.893   3.976
  278POPC   GL1 3640   0.365   0.570   4.267
  278POPC   GL2 3641   0.091   0.359   4.258
  278POPC   C1A 3642   0.530   0.423   4.671
  278POPC   D2A 3643   0.718   0.400   5.093
  278POPC   C3A 3644   0.512   0.624   5.359
  278POPC   C4A 3645   0.423   0.572   5.761
  278POPC   C1B 3646  10.497   0.498   4.677
  278POPC   C2B 3647   0.167   0.325   5.075
  278POPC   C3B 3648   0.252   0.164   5.475
  278POPC   C4B 3649   0.082   0.205   5.871
  279POPC   NC3 3650   0.486   2.234   3.943
  279POPC   PO4 3651   0.724   1.723   4.221
  279POPC   GL1 3652   0.398   1.767   4.428
  279POPC   GL2 3653   0.555   2.118   4.466
  279POPC   C1A 3654   0.314   1.507   4.799
  279POPC   D2A 3655   0.253   1.358   5.230
  279POPC   C3A 3656   0.453   1.552   5.588
  279POPC   C4A 3657   0.179   1.663   5.934
  279POPC   C1B 3658   0.637   1.966   4.846
  279POPC   C2B 3659   0.383   1.873   5.154
  279POPC   C3B 3660   0.207   1.987   5.493
  279POPC   C4B 3661   0.452   2.052   5.820
  280POPC   NC3 3662   9.887   4.374   3.952
  280POPC   PO4 3663  10.489   3.954   3.862
  280POPC   GL1 3664  10.397   3.977   4.278
  280POPC   GL2 3665  10.050   3.995   4.283
  280POPC   C1A 3666  10.347   4.083   4.710
  280POPC   D2A 3667   0.086   4.250   5.036
  280POPC   C3A 3668  10.369   4.209   5.423
  280POPC   C4A 3669  10.365   4.471   5.789
  280POPC   C1B 3670   9.851   4.224   4.632
  280POPC   C2B 3671   9.657   4.261   5.042
  280POPC   C3B 3672   9.784   4.270   5.455
  280POPC   C4B 3673  10.010   4.109   5.779
  281POPC   NC3 3674   2.560   6.485   3.916
  281POPC   PO4 3675   3.059   6.787   4.001
  281POPC   GL1 3676   2.867   6.516   4.338
  281POPC   GL2 3677   2.639   6.205   4.347
  281POPC   C1A 3678   2.914   6.522   4.791
  281POPC   D2A 3679   2.824   6.390   5.201
  281POPC   C3A 3680   3.045   6.474   5.583
  281POPC   C4A 3681   2.944   6.677   5.967
  281POPC   C1B 3682   2.410   6.297   4.764
  281POPC   C2B 3683   2.337   6.271   5.223
  281POPC   C3B 3684   2.558   6.252   5.611
  281POPC   C4B 3685   2.597   5.901   5.893
  282POPC   NC3 3686   2.372  10.384   4.033
  282POPC   PO4 3687   2.138   9.822   4.181
  282POPC   GL1 3688   2.541   9.944   4.370
  282POPC   GL2 3689   2.781  10.238   4.314
  282POPC   C1A 3690   2.553  10.066   4.776
  282POPC   D2A 3691   2.398   9.883   5.118
  282POPC   C3A 3692   2.563  10.086   5.480
  282POPC   C4A 3693   2.325  10.128   5.871
  282POPC   C1B 3694   2.813  10.489   4.713
  282POPC   C2B 3695   2.706  10.458   5.108
  282POPC   C3B 3696   2.935   0.027   5.439
  282POPC   C4B 3697   2.751  10.439   5.808
  283POPC   NC3 3698   5.370   0.688   4.024
  283POPC   PO4 3699   5.999   0.902   3.898
  283POPC   GL1 3700   5.870   0.548   4.257
  283POPC   GL2 3701   5.672   0.216   4.269
  283POPC   C1A 3702   5.727   0.451   4.727
  283POPC   D2A 3703   5.544   0.712   5.083
  283POPC   C3A 3704   5.705   0.746   5.504
  283POPC   C4A 3705   5.811   0.466   5.865
  283POPC   C1B 3706   5.373   0.070   4.609
  283POPC   C2B 3707   5.374   0.204   5.031
  283POPC   C3B 3708   5.526   0.274   5.446
  283POPC   C4B 3709   5.399   0.124   5.837
  284POPC   NC3 3710   4.613   1.211   3.833
  284POPC   PO4 3711   3.968   0.850   4.008
  284POPC   GL1 3712   4.064   1.050   4.367
  284POPC   GL2 3713   4.102   1.412   4.365
  284POPC   C1A 3714   3.866   0.940   4.756
  284POPC   D2A 3715   3.937   1.193   5.098
  284POPC   C3A 3716   4.075   1.064   5.481
  284POPC   C4A 3717   3.981   0.841   5.841
  284POPC   C1B 3718   4.276   1.333   4.757
  284POPC   C2B 3719   4.446   1.398   5.175
  284POPC   C3B 3720   4.353   1.469   5.598
  284POPC   C4B 3721   4.224   1.564   6.013
  285POPC   NC3 3722   3.228   5.222   4.027
  285POPC   PO4 3723   2.676   5.358   3.783
  285POPC   GL1 3724   2.407   5.322   4.161
  285POPC   GL2 3725   2.314   5.671   4.261
  285POPC   C1A 3726   2.402   5.253   4.620
  285POPC   D2A 3727   2.451   5.432   5.035
  285POPC   C3A 3728   2.725   5.422   5.384
  285POPC   C4A 3729   2.731   5.416   5.816
  285POPC   C1B 3730   2.520   5.784   4.648
  285POPC   C2B 3731   2.675   5.907   5.082
  285POPC   C3B 3732   2.921   5.921   5.479
  285POPC   C4B 3733   3.194   5.670   5.744
  286POPC   NC3 3734   4.799   9.409   3.916
  286POPC   PO4 3735   5.131   9.876   4.062
  286POPC   GL1 3736   4.859   9.647   4.369
  286POPC   GL2 3737   4.904   9.266   4.389
  286POPC   C1A 3738   4.656   9.591   4.788
  286POPC   D2A 3739   4.802   9.459   5.226
  286POPC   C3A 3740   4.611   9.676   5.579
  286POPC   C4A 3741   4.492   9.696   6.020
  286POPC   C1B 3742   5.085   9.313   4.795
  286POPC   C2B 3743   5.148   9.075   5.164
  286POPC   C3B 3744   5.183   9.161   5.570
  286POPC   C4B 3745   4.892   9.340   5.835
  287POPC   NC3 3746   7.860   5.172   3.778
  287POPC   PO4 3747   7.877   5.777   3.952
  287POPC   GL1 3748   7.949   5.579   4.326
  287POPC   GL2 3749   8.255   5.688   4.443
  287POPC   C1A 3750   7.832   5.648   4.772
  287POPC   D2A 3751   8.023   5.568   5.227
  287POPC   C3A 3752   7.728   5.707   5.584
  287POPC   C4A 3753   7.484   5.570   5.972
  287POPC   C1B 3754   8.332   5.782   4.863
  287POPC   C2B 3755   8.549   5.711   5.238
  287POPC   C3B 3756   8.376   5.536   5.609
  287POPC   C4B 3757   8.123   5.753   5.886
  288POPC   NC3 3758   9.860   9.488   3.834
  288POPC   PO4 3759  10.434   9.091   3.788
  288POPC   GL1 3760  10.182   9.209   4.169
  288POPC   GL2 3761  10.084   9.562   4.292
  288POPC   C1A 3762  10.259   9.094   4.616
  288POPC   D2A 3763  10.203   9.238   5.047
  288POPC   C3A 3764  10.232   9.002   5.431
  288POPC   C4A 3765  10.169   9.095   5.861
  288POPC   C1B 3766  10.271   9.614   4.695
  288POPC   C2B 3767  10.344   9.738   5.128
  288POPC   C3B 3768  10.223   9.513   5.497
  288POPC   C4B 3769   9.934   9.567   5.823
  289POPC   NC3 3770   9.191   9.152   4.062
  289POPC   PO4 3771   9.444   9.704   3.805
  289POPC   GL1 3772   9.565   9.494   4.250
  289POPC   GL2 3773   9.576   9.772   4.493
  289POPC   C1A 3774   9.803   9.360   4.688
  289POPC   D2A 3775   9.791   9.497   5.174
  289POPC   C3A 3776   9.759   9.183   5.543
  289POPC   C4A 3777   9.705   9.180   6.067
  289POPC   C1B 3778   9.296   9.427   4.703
  289POPC   C2B 3779   9.104   9.187   5.019
  289POPC   C3B 3780   9.254   9.367   5.387
  289POPC   C4B 3781   9.410   9.470   5.772
  290POPC   NC3 3782   8.913   9.678   3.860
  290POPC   PO4 3783   8.739   9.078   4.152
  290POPC   GL1 3784   8.793   9.444   4.363
  290POPC   GL2 3785   8.473   9.567   4.421
  290POPC   C1A 3786   8.802   9.591   4.809
  290POPC   D2A 3787   8.762   9.530   5.253
  290POPC   C3A 3788   8.974   9.775   5.536
  290POPC   C4A 3789   9.031   9.719   5.973
  290POPC   C1B 3790   8.456   9.191   4.700
  290POPC   C2B 3791   8.583   9.018   5.106
  290POPC   C3B 3792   8.825   9.072   5.476
  290POPC   C4B 3793   8.712   9.376   5.767
  291POPC   NC3 3794   2.499   4.940   3.816
  291POPC   PO4 3795   3.139   4.781   3.953
  291POPC   GL1 3796   2.824   4.977   4.207
  291POPC   GL2 3797   2.556   4.781   4.321
  291POPC   C1A 3798   2.889   5.128   4.619
  291POPC   D2A 3799   2.785   5.026   5.044
  291POPC   C3A 3800   3.069   5.007   5.407
  291POPC   C4A 3801   3.072   5.026   5.865
  291POPC   C1B 3802   2.326   4.735   4.715
  291POPC   C2B 3803   2.313   4.910   5.141
  291POPC   C3B 3804   2.591   4.919   5.546
  291POPC   C4B 3805   2.501   5.003   5.985
  292POPC   NC3 3806  10.082   8.779   3.800
  292POPC   PO4 3807   9.632   8.341   3.814
  292POPC   GL1 3808   9.963   8.508   4.191
  292POPC   GL2 3809  10.317   8.710   4.234
  292POPC   C1A 3810   9.917   8.717   4.613
  292POPC   D2A 3811  10.106   8.724   5.015
  292POPC   C3A 3812   9.853   8.664   5.394
  292POPC   C4A 3813   9.749   8.742   5.808
  292POPC   C1B 3814  10.397   8.503   4.598
  292POPC   C2B 3815   0.056   8.402   4.975
  292POPC   C3B 3816  10.293   8.389   5.373
  292POPC   C4B 3817  10.228   8.579   5.749
  293POPC   NC3 3818   8.376   9.301   3.999
  293POPC   PO4 3819   7.718   9.471   3.796
  293POPC   GL1 3820   7.676   9.348   4.241
  293POPC   GL2 3821   8.014   9.243   4.354
  293POPC   C1A 3822   7.635   9.256   4.715
  293POPC   D2A 3823   7.794   9.437   5.132
  293POPC   C3A 3824   7.639   9.286   5.499
  293POPC   C4A 3825   7.478   9.441   5.849
  293POPC   C1B 3826   8.061   9.540   4.705
  293POPC   C2B 3827   8.297   9.467   5.083
  293POPC   C3B 3828   8.251   9.347   5.497
  293POPC   C4B 3829   7.981   9.564   5.762
  294POPC   NC3 3830   0.970   8.537   3.890
  294POPC   PO4 3831   1.448   8.200   3.960
  294POPC   GL1 3832   1.314   8.438   4.269
  294POPC   GL2 3833   1.327   8.779   4.146
  294POPC   C1A 3834   1.174   8.370   4.688
  294POPC   D2A 3835   1.039   8.511   5.090
  294POPC   C3A 3836   0.893   8.327   5.467
  294POPC   C4A 3837   0.951   8.613   5.810
  294POPC   C1B 3838   1.373   8.838   4.587
  294POPC   C2B 3839   1.522   8.664   4.972
  294POPC   C3B 3840   1.482   8.585   5.405
  294POPC   C4B 3841   1.451   8.771   5.801
  295POPC   NC3 3842   1.373   1.033   4.116
  295POPC   PO4 3843   1.112   1.522   3.736
  295POPC   GL1 3844   1.123   1.449   4.273
  295POPC   GL2 3845   1.370   1.315   4.522
  295POPC   C1A 3846   1.011   1.584   4.767
  295POPC   D2A 3847   0.758   1.529   5.132
  295POPC   C3A 3848   0.970   1.472   5.540
  295POPC   C4A 3849   1.039   1.390   5.963
  295POPC   C1B 3850   1.347   1.202   4.936
  295POPC   C2B 3851   1.436   1.300   5.343
  295POPC   C3B 3852   1.224   1.037   5.597
  295POPC   C4B 3853   1.192   0.849   5.954
  296POPC   NC3 3854   7.996   1.663   3.939
  296POPC   PO4 3855   7.410   1.611   4.113
  296POPC   GL1 3856   7.716   1.761   4.355
  296POPC   GL2 3857   7.781   2.106   4.233
  296POPC   C1A 3858   7.943   1.603   4.708
  296POPC   D2A 3859   7.976   1.438   5.130
  296POPC   C3A 3860   8.017   1.709   5.503
  296POPC   C4A 3861   7.772   1.897   5.801
  296POPC   C1B 3862   7.821   2.125   4.693
  296POPC   C2B 3863   8.003   1.971   5.064
  296POPC   C3B 3864   7.933   2.196   5.428
  296POPC   C4B 3865   8.051   2.346   5.810
  297POPC   NC3 3866   2.548   2.014   3.642
  297POPC   PO4 3867   3.050   1.940   3.992
  297POPC   GL1 3868   2.709   2.024   4.217
  297POPC   GL2 3869   2.605   1.699   4.327
  297POPC   C1A 3870   2.582   2.207   4.627
  297POPC   D2A 3871   2.708   2.394   5.014
  297POPC   C3A 3872   2.592   2.326   5.430
  297POPC   C4A 3873   2.569   2.294   5.886
  297POPC   C1B 3874   2.614   1.709   4.733
  297POPC   C2B 3875   2.596   1.869   5.129
  297POPC   C3B 3876   2.749   1.666   5.465
  297POPC   C4B 3877   2.756   1.788   5.859
  298POPC   NC3 3878  10.436   0.029   3.910
  298POPC   PO4 3879  10.170   9.858   3.882
  298POPC   GL1 3880  10.320  10.061   4.256
  298POPC   GL2 3881  10.062  10.285   4.233
  298POPC   C1A 3882  10.492  10.073   4.728
  298POPC   D2A 3883   0.080  10.282   5.154
  298POPC   C3A 3884  10.317  10.256   5.505
  298POPC   C4A 3885  10.326   9.912   5.797
  298POPC   C1B 3886   9.993  10.041   4.635
  298POPC   C2B 3887   9.906  10.016   5.059
  298POPC   C3B 3888   9.914   9.934   5.478
  298POPC   C4B 3889   9.875  10.182   5.844
  299POPC   NC3 3890   1.023   9.452   3.748
  299POPC   PO4 3891   0.767   8.931   3.972
  299POPC   GL1 3892   1.049   9.216   4.233
  299POPC   GL2 3893   1.347   9.459   4.214
  299POPC   C1A 3894   1.139   9.302   4.679
  299POPC   D2A 3895   1.360   9.156   5.052
  299POPC   C3A 3896   1.131   9.279   5.412
  299POPC   C4A 3897   1.041   9.102   5.798
  299POPC   C1B 3898   1.454   9.712   4.621
  299POPC   C2B 3899   1.286   9.691   5.050
  299POPC   C3B 3900   1.242   9.788   5.466
  299POPC   C4B 3901   1.256   9.557   5.836
  300POPC   NC3 3902   8.023   0.449   3.859
  300POPC   PO4 3903   8.540  10.475   3.913
  300POPC   GL1 3904   8.414   0.359   4.208
  300POPC   GL2 3905   8.156   0.637   4.301
  300POPC   C1A 3906   8.245   0.260   4.635
  300POPC   D2A 3907   8.163   0.430   5.035
  300POPC   C3A 3908   8.283   0.228   5.419
  300POPC   C4A 3909   8.077   0.109   5.783
  300POPC   C1B 3910   7.826   0.598   4.623
  300POPC   C2B 3911   7.657   0.472   5.053
  300POPC   C3B 3912   7.804   0.391   5.434
  300POPC   C4B 3913   7.951   0.717   5.692
  301POPC   NC3 3914   4.054   8.766   3.791
  301POPC   PO4 3915   4.408   8.252   3.704
  301POPC   GL1 3916   4.343   8.472   4.146
  301POPC   GL2 3917   4.067   8.616   4.269
  301POPC   C1A 3918   4.451   8.587   4.617
  301POPC   D2A 3919   4.310   8.779   5.032
  301POPC   C3A 3920   4.423   8.564   5.424
  301POPC   C4A 3921   4.335   8.738   5.779
  301POPC   C1B 3922   3.967   8.811   4.646
  301POPC   C2B 3923   3.782   8.615   5.014
  301POPC   C3B 3924   3.917   8.691   5.444
  301POPC   C4B 3925   3.893   8.494   5.872
  302POPC   NC3 3926   9.952   3.623   3.950
  302POPC   PO4 3927   0.016   3.261   3.908
  302POPC   GL1 3928  10.387   3.464   4.276
  302POPC   GL2 3929  10.049   3.371   4.393
  302POPC   C1A 3930  10.455   3.569   4.728
  302POPC   D2A 3931  10.255   3.501   5.152
  302POPC   C3A 3932  10.327   3.695   5.560
  302POPC   C4A 3933  10.449   3.395   5.886
  302POPC   C1B 3934   9.950   3.714   4.712
  302POPC   C2B 3935  10.012   3.931   5.116
  302POPC   C3B 3936   9.823   3.719   5.473
  302POPC   C4B 3937   9.985   3.315   5.617
  303POPC   NC3 3938   0.951   6.380   3.725
  303POPC   PO4 3939   1.489   6.122   3.889
  303POPC   GL1 3940   1.369   6.309   4.259
  303POPC   GL2 3941   1.104   6.541   4.219
  303POPC   C1A 3942   1.455   6.352   4.681
  303POPC   D2A 3943   1.324   6.116   5.020
  303POPC   C3A 3944   1.403   6.274   5.398
  303POPC   C4A 3945   1.366   6.080   5.774
  303POPC   C1B 3946   0.964   6.531   4.677
  303POPC   C2B 3947   1.000   6.505   5.150
  303POPC   C3B 3948   0.982   6.507   5.626
  303POPC   C4B 3949   0.783   6.612   6.051
  304POPC   NC3 3950  10.030   5.826   3.925
  304POPC   PO4 3951   0.171   5.624   3.856
  304POPC   GL1 3952  10.410   5.573   4.298
  304POPC   GL2 3953  10.077   5.512   4.320
  304POPC   C1A 3954  10.286   5.751   4.712
  304POPC   D2A 3955   0.079   5.819   5.017
  304POPC   C3A 3956  10.378   5.630   5.359
  304POPC   C4A 3957  10.490   5.574   5.748
  304POPC   C1B 3958   9.811   5.493   4.689
  304POPC   C2B 3959   9.925   5.449   5.116
  304POPC   C3B 3960   9.848   5.598   5.515
  304POPC   C4B 3961  10.094   5.912   5.687
  305POPC   NC3 3962   8.411   4.804   3.902
  305POPC   PO4 3963   9.093   4.735   4.039
  305POPC   GL1 3964   8.806   4.669   4.351
  305POPC   GL2 3965   8.764   5.035   4.336
  305POPC   C1A 3966   8.884   4.601   4.796
  305POPC   D2A 3967   8.753   4.800   5.193
  305POPC   C3A 3968   8.773   4.813   5.620
  305POPC   C4A 3969   8.922   4.527   5.890
  305POPC   C1B 3970   8.591   5.004   4.760
  305POPC   C2B 3971   8.418   5.180   5.192
  305POPC   C3B 3972   8.310   5.021   5.595
  305POPC   C4B 3973   8.398   5.174   6.011
  306POPC   NC3 3974   0.737   2.955   3.702
  306POPC   PO4 3975   0.929   2.386   4.075
  306POPC   GL1 3976   0.962   2.467   4.436
  306POPC   GL2 3977   1.292   2.452   4.530
  306POPC   C1A 3978   0.790   2.478   4.788
  306POPC   D2A 3979   0.874   2.720   5.111
  306POPC   C3A 3980   1.064   2.626   5.480
  306POPC   C4A 3981   0.790   2.398   5.669
  306POPC   C1B 3982   1.314   2.517   4.977
  306POPC   C2B 3983   1.375   2.885   5.151
  306POPC   C3B 3984   1.370   3.042   5.529
  306POPC   C4B 3985   1.300   2.899   5.930
  307POPC   NC3 3986   7.941   8.167   3.878
  307POPC   PO4 3987   7.579   7.519   3.971
  307POPC   GL1 3988   7.953   7.767   4.185
  307POPC   GL2 3989   7.803   8.062   4.348
  307POPC   C1A 3990   8.195   7.805   4.613
  307POPC   D2A 3991   8.012   7.632   5.020
  307POPC   C3A 3992   8.144   7.820   5.416
  307POPC   C4A 3993   8.268   7.859   5.856
  307POPC   C1B 3994   7.708   7.969   4.765
  307POPC   C2B 3995   7.664   7.975   5.190
  307POPC   C3B 3996   7.658   7.808   5.576
  307POPC   C4B 3997   7.828   8.107   5.760
  308POPC   NC3 3998   4.349   7.850   3.907
  308POPC   PO4 3999   3.873   8.355   3.862
  308POPC   GL1 4000   3.929   8.122   4.245
  308POPC   GL2 4001   4.050   7.780   4.301
  308POPC   C1A 4002   4.005   8.282   4.658
  308POPC   D2A 4003   4.206   8.292   5.050
  308POPC   C3A 4004   4.088   8.200   5.500
  308POPC   C4A 4005   4.206   8.103   5.971
  308POPC   C1B 4006   4.220   7.819   4.754
  308POPC   C2B 4007   4.258   7.810   5.194
  308POPC   C3B 4008   4.313   7.751   5.616
  308POPC   C4B 4009   3.944   7.520   5.772
  309POPC   NC3 4010   0.761  10.166   3.477
  309POPC   PO4 4011   1.171   9.845   3.928
  309POPC   GL1 4012   1.246  10.039   4.288
  309POPC   GL2 4013   1.051  10.370   4.336
  309POPC   C1A 4014   1.055  10.009   4.708
  309POPC   D2A 4015   0.909  10.071   5.125
  309POPC   C3A 4016   0.749   9.772   5.418
  309POPC   C4A 4017   0.883   9.887   5.813
  309POPC   C1B 4018   0.946   0.016   4.772
  309POPC   C2B 4019   1.114   0.050   5.205
  309POPC   C3B 4020   1.070  10.286   5.578
  309POPC   C4B 4021   1.351  10.125   5.919
  310POPC   NC3 4022   3.411   8.768   3.869
  310POPC   PO4 4023   3.257   8.236   3.628
  310POPC   GL1 4024   3.454   8.360   4.152
  310POPC   GL2 4025   3.574   8.700   4.335
  310POPC   C1A 4026   3.496   8.283   4.607
  310POPC   D2A 4027   3.322   8.309   5.037
  310POPC   C3A 4028   3.550   8.343   5.407
  310POPC   C4A 4029   3.368   8.424   5.786
  310POPC   C1B 4030   3.346   8.743   4.736
  310POPC   C2B 4031   3.292   8.859   5.133
  310POPC   C3B 4032   3.304   9.029   5.507
  310POPC   C4B 4033   3.571   8.881   5.815
  311POPC   NC3 4034   8.677   2.922   3.899
  311POPC   PO4 4035   9.127   2.395   3.846
  311POPC   GL1 4036   8.953   2.413   4.254
  311POPC   GL2 4037   8.611   2.576   4.270
  311POPC   C1A 4038   8.813   2.392   4.696
  311POPC   D2A 4039   9.079   2.498   5.040
  311POPC   C3A 4040   8.956   2.485   5.470
  311POPC   C4A 4041   8.827   2.475   5.935
  311POPC   C1B 4042   8.547   2.818   4.673
  311POPC   C2B 4043   8.586   2.674   5.121
  311POPC   C3B 4044   8.611   2.848   5.547
  311POPC   C4B 4045   8.375   2.824   5.900
  312POPC   NC3 4046   8.878   1.991   3.790
  312POPC   PO4 4047   8.431   1.493   3.910
  312POPC   GL1 4048   8.383   1.793   4.246
  312POPC   GL2 4049   8.681   1.983   4.292
  312POPC   C1A 4050   8.304   1.983   4.638
  312POPC   D2A 4051   8.475   2.167   4.990
  312POPC   C3A 4052   8.419   2.004   5.376
  312POPC   C4A 4053   8.487   2.349   5.596
  312POPC   C1B 4054   8.810   1.833   4.708
  312POPC   C2B 4055   8.949   2.002   5.132
  312POPC   C3B 4056   8.879   1.987   5.582
  312POPC   C4B 4057   8.980   1.766   5.954
  313POPC   NC3 4058   7.883   4.212   4.065
  313POPC   PO4 4059   8.505   4.380   3.722
  313POPC   GL1 4060   8.385   4.386   4.181
  313POPC   GL2 4061   8.591   4.154   4.283
  313POPC   C1A 4062   8.425   4.423   4.661
  313POPC   D2A 4063   8.590   4.296   5.065
  313POPC   C3A 4064   8.475   4.430   5.478
  313POPC   C4A 4065   8.434   4.192   5.804
  313POPC   C1B 4066   8.895   4.128   4.611
  313POPC   C2B 4067   9.010   4.017   5.028
  313POPC   C3B 4068   8.918   4.190   5.449
  313POPC   C4B 4069   8.994   4.030   5.802
  314POPC   NC3 4070   3.587   7.987   3.830
  314POPC   PO4 4071   2.967   8.283   4.070
  314POPC   GL1 4072   3.151   7.958   4.318
  314POPC   GL2 4073   3.479   7.858   4.297
  314POPC   C1A 4074   3.250   7.871   4.774
  314POPC   D2A 4075   3.310   7.762   5.189
  314POPC   C3A 4076   3.263   7.957   5.588
  314POPC   C4A 4077   2.932   8.129   5.787
  314POPC   C1B 4078   3.727   7.834   4.661
  314POPC   C2B 4079   3.763   8.018   5.046
  314POPC   C3B 4080   3.746   7.838   5.437
  314POPC   C4B 4081   3.724   8.026   5.829
  315POPC   NC3 4082   2.858   7.984   3.744
  315POPC   PO4 4083   2.318   8.291   3.999
  315POPC   GL1 4084   2.519   8.130   4.307
  315POPC   GL2 4085   2.655   7.827   4.192
  315POPC   C1A 4086   2.459   8.220   4.731
  315POPC   D2A 4087   2.451   8.350   5.136
  315POPC   C3A 4088   2.466   8.140   5.464
  315POPC   C4A 4089   2.208   8.042   5.776
  315POPC   C1B 4090   2.779   7.831   4.629
  315POPC   C2B 4091   2.862   8.047   5.041
  315POPC   C3B 4092   2.826   7.808   5.382
  315POPC   C4B 4093   2.619   7.735   5.743
  316POPC   NC3 4094   0.083   2.863   3.627
  316POPC   PO4 4095   0.679   2.515   3.612
  316POPC   GL1 4096   0.568   2.724   4.093
  316POPC   GL2 4097   0.427   2.575   4.346
  316POPC   C1A 4098   0.732   2.928   4.499
  316POPC   D2A 4099   0.455   2.922   4.909
  316POPC   C3A 4100   0.475   2.898   5.395
  316POPC   C4A 4101   0.557   2.807   5.861
  316POPC   C1B 4102   0.278   2.447   4.759
  316POPC   C2B 4103   0.448   2.397   5.191
  316POPC   C3B 4104   0.277   2.475   5.599
  316POPC   C4B 4105   0.159   2.502   6.026
  317POPC   NC3 4106   2.119   2.725   3.957
  317POPC   PO4 4107   1.559   2.225   3.996
  317POPC   GL1 4108   1.763   2.445   4.327
  317POPC   GL2 4109   2.086   2.513   4.404
  317POPC   C1A 4110   1.717   2.698   4.736
  317POPC   D2A 4111   1.788   2.529   5.172
  317POPC   C3A 4112   1.580   2.550   5.556
  317POPC   C4A 4113   1.780   2.865   5.777
  317POPC   C1B 4114   2.158   2.449   4.811
  317POPC   C2B 4115   2.273   2.660   5.175
  317POPC   C3B 4116   2.167   2.575   5.594
  317POPC   C4B 4117   2.133   2.491   6.035
  318POPC   NC3 4118  10.213   1.967   3.874
  318POPC   PO4 4119   0.108   2.532   3.948
  318POPC   GL1 4120   0.069   2.136   4.283
  318POPC   GL2 4121  10.210   1.949   4.385
  318POPC   C1A 4122   0.066   1.975   4.745
  318POPC   D2A 4123  10.396   1.729   5.109
  318POPC   C3A 4124  10.216   1.884   5.511
  318POPC   C4A 4125  10.273   2.336   5.636
  318POPC   C1B 4126   9.989   1.896   4.816
  318POPC   C2B 4127   9.911   2.171   5.208
  318POPC   C3B 4128   9.783   2.114   5.665
  318POPC   C4B 4129   9.974   1.894   6.001
  319POPC   NC3 4130   7.745   6.227   3.997
  319POPC   PO4 4131   7.888   6.886   3.780
  319POPC   GL1 4132   8.102   6.781   4.303
  319POPC   GL2 4133   8.136   6.429   4.277
  319POPC   C1A 4134   7.964   6.789   4.717
  319POPC   D2A 4135   7.936   6.530   5.049
  319POPC   C3A 4136   8.144   6.582   5.424
  319POPC   C4A 4137   7.931   6.781   5.777
  319POPC   C1B 4138   8.053   6.157   4.636
  319POPC   C2B 4139   7.936   6.036   5.073
  319POPC   C3B 4140   8.159   6.029   5.456
  319POPC   C4B 4141   8.022   6.265   5.813
  320POPC   NC3 4142   5.031  10.265   3.838
  320POPC   PO4 4143   4.442   0.106   3.899
  320POPC   GL1 4144   4.593  10.363   4.282
  320POPC   GL2 4145   4.964  10.320   4.347
  320POPC   C1A 4146   4.661  10.475   4.735
  320POPC   D2A 4147   4.931  10.451   5.086
  320POPC   C3A 4148   4.819  10.156   5.413
  320POPC   C4A 4149   4.634  10.146   5.815
  320POPC   C1B 4150   4.910  10.038   4.714
  320POPC   C2B 4151   5.104   9.861   5.078
  320POPC   C3B 4152   5.132   9.731   5.533
  320POPC   C4B 4153   5.002   9.815   5.992
  321POPC   NC3 4154   7.704   2.750   3.744
  321POPC   PO4 4155   8.231   3.085   3.890
  321POPC   GL1 4156   8.166   2.895   4.295
  321POPC   GL2 4157   7.848   2.730   4.247
  321POPC   C1A 4158   8.166   2.514   4.594
  321POPC   D2A 4159   8.052   2.472   5.023
  321POPC   C3A 4160   8.135   2.691   5.416
  321POPC   C4A 4161   7.872   2.823   5.789
  321POPC   C1B 4162   7.664   2.617   4.655
  321POPC   C2B 4163   7.531   2.399   5.034
  321POPC   C3B 4164   7.626   2.588   5.414
  321POPC   C4B 4165   7.547   2.395   5.787
  322POPC   NC3 4166   3.762   2.826   3.970
  322POPC   PO4 4167   3.245   2.555   4.010
  322POPC   GL1 4168   3.468   2.437   4.412
  322POPC   GL2 4169   3.751   2.679   4.441
  322POPC   C1A 4170   3.774   2.298   4.744
  322POPC   D2A 4171   3.917   2.644   5.005
  322POPC   C3A 4172   3.625   2.713   5.361
  322POPC   C4A 4173   3.425   2.402   5.651
  322POPC   C1B 4174   3.403   2.907   4.623
  322POPC   C2B 4175   3.301   3.046   5.037
  322POPC   C3B 4176   3.086   3.070   5.425
  322POPC   C4B 4177   3.277   2.925   5.739
  323POPC   NC3 4178   1.072   3.865   3.943
  323POPC   PO4 4179   1.442   4.501   3.913
  323POPC   GL1 4180   1.300   4.228   4.209
  323POPC   GL2 4181   0.936   4.276   4.290
  323POPC   C1A 4182   1.354   4.339   4.628
  323POPC   D2A 4183   1.212   4.534   4.992
  323POPC   C3A 4184   1.177   4.324   5.385
  323POPC   C4A 4185   1.136   4.441   5.805
  323POPC   C1B 4186   0.895   4.145   4.728
  323POPC   C2B 4187   1.228   3.999   4.994
  323POPC   C3B 4188   1.477   3.881   5.348
  323POPC   C4B 4189   1.271   3.950   5.751
  324POPC   NC3 4190   9.193   8.502   3.784
  324POPC   PO4 4191   9.710   9.054   3.915
  324POPC   GL1 4192   9.566   8.867   4.269
  324POPC   GL2 4193   9.466   8.554   4.238
  324POPC   C1A 4194   9.452   8.929   4.681
  324POPC   D2A 4195   9.663   9.010   5.047
  324POPC   C3A 4196   9.383   8.868   5.331
  324POPC   C4A 4197   9.306   8.967   5.709
  324POPC   C1B 4198   9.493   8.408   4.634
  324POPC   C2B 4199   9.577   8.494   5.007
  324POPC   C3B 4200   9.416   8.366   5.396
  324POPC   C4B 4201   9.336   8.449   5.801
  325POPC   NC3 4202   5.679   1.279   3.860
  325POPC   PO4 4203   5.234   1.084   4.238
  325POPC   GL1 4204   5.664   0.997   4.329
  325POPC   GL2 4205   5.959   1.222   4.304
  325POPC   C1A 4206   5.875   0.951   4.737
  325POPC   D2A 4207   6.009   1.278   5.038
  325POPC   C3A 4208   5.840   1.255   5.465
  325POPC   C4A 4209   5.932   0.994   5.875
  325POPC   C1B 4210   5.634   1.404   4.627
  325POPC   C2B 4211   5.464   1.308   5.053
  325POPC   C3B 4212   5.328   1.126   5.470
  325POPC   C4B 4213   5.510   1.284   5.849
  326POPC   NC3 4214  10.383   1.162   3.808
  326POPC   PO4 4215   0.160   1.768   3.916
  326POPC   GL1 4216  10.435   1.507   4.217
  326POPC   GL2 4217  10.299   1.139   4.294
  326POPC   C1A 4218  10.320   1.504   4.645
  326POPC   D2A 4219  10.327   1.229   4.999
  326POPC   C3A 4220  10.209   1.357   5.403
  326POPC   C4A 4221  10.240   1.472   5.835
  326POPC   C1B 4222  10.114   0.934   4.656
  326POPC   C2B 4223  10.141   0.685   5.035
  326POPC   C3B 4224   9.986   0.740   5.432
  326POPC   C4B 4225  10.132   0.993   5.745
  327POPC   NC3 4226   1.088   1.937   3.993
  327POPC   PO4 4227   1.618   1.447   4.111
  327POPC   GL1 4228   1.449   1.818   4.375
  327POPC   GL2 4229   1.115   1.966   4.471
  327POPC   C1A 4230   1.504   1.701   4.816
  327POPC   D2A 4231   1.229   1.755   5.201
  327POPC   C3A 4232   1.307   2.079   5.509
  327POPC   C4A 4233   1.394   1.716   5.732
  327POPC   C1B 4234   1.146   2.082   4.834
  327POPC   C2B 4235   0.934   2.200   5.186
  327POPC   C3B 4236   0.798   1.938   5.472
  327POPC   C4B 4237   0.983   1.964   5.893
  328POPC   NC3 4238   9.322   3.561   3.815
  328POPC   PO4 4239   9.872   3.168   3.882
  328POPC   GL1 4240   9.549   3.226   4.227
  328POPC   GL2 4241   9.191   3.347   4.261
  328POPC   C1A 4242   9.526   3.392   4.669
  328POPC   D2A 4243   9.763   3.339   5.069
  328POPC   C3A 4244   9.506   3.251   5.430
  328POPC   C4A 4245   9.580   3.081   5.853
  328POPC   C1B 4246   9.077   3.639   4.587
  328POPC   C2B 4247   9.034   3.502   5.011
  328POPC   C3B 4248   8.985   3.642   5.414
  328POPC   C4B 4249   9.248   3.561   5.738
  329POPC   NC3 4250   9.524   2.177   3.964
  329POPC   PO4 4251   9.142   1.606   3.912
  329POPC   GL1 4252   9.190   1.914   4.243
  329POPC   GL2 4253   9.530   1.807   4.348
  329POPC   C1A 4254   9.221   2.122   4.653
  329POPC   D2A 4255   9.465   2.057   4.999
  329POPC   C3A 4256   9.382   2.231   5.377
  329POPC   C4A 4257   9.266   2.218   5.809
  329POPC   C1B 4258   9.345   1.628   4.734
  329POPC   C2B 4259   9.467   1.582   5.196
  329POPC   C3B 4260   9.349   1.767   5.593
  329POPC   C4B 4261   9.471   1.767   6.079
  330POPC   NC3 4262   0.281   7.086   3.828
  330POPC   PO4 4263  10.235   6.752   3.943
  330POPC   GL1 4264   0.081   6.921   4.274
  330POPC   GL2 4265   0.322   7.198   4.338
  330POPC   C1A 4266   0.239   6.862   4.706
  330POPC   D2A 4267   0.482   6.985   5.084
  330POPC   C3A 4268   0.237   7.150   5.425
  330POPC   C4A 4269   0.382   7.128   5.836
  330POPC   C1B 4270   0.663   7.259   4.677
  330POPC   C2B 4271   0.877   7.377   5.064
  330POPC   C3B 4272   0.695   7.389   5.470
  330POPC   C4B 4273   0.717   7.523   5.885
  331POPC   NC3 4274   1.509   4.992   3.894
  331POPC   PO4 4275   2.141   4.764   4.020
  331POPC   GL1 4276   2.052   4.983   4.355
  331POPC   GL2 4277   1.726   4.903   4.334
  331POPC   C1A 4278   1.947   5.079   4.784
  331POPC   D2A 4279   1.974   5.337   5.123
  331POPC   C3A 4280   2.203   5.246   5.495
  331POPC   C4A 4281   2.002   5.075   5.875
  331POPC   C1B 4282   1.773   4.617   4.684
  331POPC   C2B 4283   1.646   4.793   5.087
  331POPC   C3B 4284   1.870   4.861   5.411
  331POPC   C4B 4285   2.171   4.652   5.601
  332POPC   NC3 4286   1.081   7.928   3.885
  332POPC   PO4 4287   0.614   7.406   3.977
  332POPC   GL1 4288   0.727   7.785   4.262
  332POPC   GL2 4289   1.074   7.973   4.370
  332POPC   C1A 4290   0.808   7.761   4.716
  332POPC   D2A 4291   1.054   7.971   4.987
  332POPC   C3A 4292   0.939   7.814   5.362
  332POPC   C4A 4293   1.111   7.817   5.750
  332POPC   C1B 4294   1.487   7.982   4.596
  332POPC   C2B 4295   1.561   8.139   5.011
  332POPC   C3B 4296   1.361   8.099   5.402
  332POPC   C4B 4297   1.364   8.256   5.828
  333POPC   NC3 4298   9.891   6.482   4.073
  333POPC   PO4 4299  10.397   6.033   4.135
  333POPC   GL1 4300  10.145   6.223   4.428
  333POPC   GL2 4301  10.246   6.568   4.429
  333POPC   C1A 4302  10.090   6.309   4.859
  333POPC   D2A 4303  10.097   5.998   5.153
  333POPC   C3A 4304  10.457   6.146   5.391
  333POPC   C4A 4305  10.345   6.348   5.727
  333POPC   C1B 4306  10.001   6.799   4.690
  333POPC   C2B 4307   9.924   6.788   5.086
  333POPC   C3B 4308  10.166   6.726   5.438
  333POPC   C4B 4309  10.457   6.843   5.760
  334POPC   NC3 4310   3.381   3.629   3.835
  334POPC   PO4 4311   3.925   3.284   3.934
  334POPC   GL1 4312   3.629   3.230   4.281
  334POPC   GL2 4313   3.279   3.398   4.285
  334POPC   C1A 4314   3.568   3.385   4.717
  334POPC   D2A 4315   3.457   3.537   5.120
  334POPC   C3A 4316   3.556   3.247   5.462
  334POPC   C4A 4317   3.670   3.276   5.899
  334POPC   C1B 4318   3.025   3.304   4.669
  334POPC   C2B 4319   2.907   3.408   5.094
  334POPC   C3B 4320   3.113   3.571   5.495
  334POPC   C4B 4321   3.545   3.734   5.608
  335POPC   NC3 4322  10.410   5.226   3.941
  335POPC   PO4 4323  10.293   4.575   4.006
  335POPC   GL1 4324  10.185   4.876   4.278
  335POPC   GL2 4325  10.455   5.064   4.405
  335POPC   C1A 4326  10.058   4.693   4.657
  335POPC   D2A 4327  10.125   4.458   5.025
  335POPC   C3A 4328  10.101   4.650   5.412
  335POPC   C4A 4329   9.948   4.784   5.772
  335POPC   C1B 4330  10.201   5.187   4.696
  335POPC   C2B 4331  10.129   4.998   5.063
  335POPC   C3B 4332  10.273   5.125   5.464
  335POPC   C4B 4333  10.115   5.265   5.820
  336POPC   NC3 4334   6.349   1.216   3.788
  336POPC   PO4 4335   6.737   1.765   3.600
  336POPC   GL1 4336   6.681   1.517   4.084
  336POPC   GL2 4337   6.549   1.171   4.239
  336POPC   C1A 4338   6.732   1.458   4.595
  336POPC   D2A 4339   6.534   1.306   4.981
  336POPC   C3A 4340   6.649   1.327   5.415
  336POPC   C4A 4341   6.664   1.096   5.842
  336POPC   C1B 4342   6.384   0.969   4.620
  336POPC   C2B 4343   6.304   0.815   5.046
  336POPC   C3B 4344   6.277   0.973   5.469
  336POPC   C4B 4345   6.255   1.360   5.746
  337POPC   NC3 4346   2.332   9.684   3.785
  337POPC   PO4 4347   2.756   9.183   3.893
  337POPC   GL1 4348   2.923   9.368   4.373
  337POPC   GL2 4349   3.105   9.176   4.605
  337POPC   C1A 4350   2.826   9.623   4.731
  337POPC   D2A 4351   2.910   9.828   5.127
  337POPC   C3A 4352   2.678   9.582   5.422
  337POPC   C4A 4353   2.536   9.666   5.802
  337POPC   C1B 4354   2.777   9.130   4.904
  337POPC   C2B 4355   2.807   9.027   5.309
  337POPC   C3B 4356   2.647   9.135   5.668
  337POPC   C4B 4357   2.965   9.297   5.885
  338POPC   NC3 4358   6.435   2.530   3.627
  338POPC   PO4 4359   6.425   3.086   4.020
  338POPC   GL1 4360   6.457   2.955   4.433
  338POPC   GL2 4361   6.409   2.610   4.366
  338POPC   C1A 4362   6.478   2.915   4.882
  338POPC   D2A 4363   6.195   2.638   5.118
  338POPC   C3A 4364   6.184   2.778   5.545
  338POPC   C4A 4365   6.450   2.916   5.933
  338POPC   C1B 4366   6.628   2.473   4.694
  338POPC   C2B 4367   6.607   2.334   5.099
  338POPC   C3B 4368   6.642   2.571   5.449
  338POPC   C4B 4369   6.547   2.436   5.859
  339POPC   NC3 4370   1.278   1.087   3.609
  339POPC   PO4 4371   1.290   0.571   4.064
  339POPC   GL1 4372   1.173   0.645   4.421
  339POPC   GL2 4373   1.286   0.309   4.546
  339POPC   C1A 4374   0.974   0.662   4.770
  339POPC   D2A 4375   1.027   0.854   5.161
  339POPC   C3A 4376   1.014   0.572   5.521
  339POPC   C4A 4377   0.771   0.204   5.573
  339POPC   C1B 4378   1.469   0.609   4.856
  339POPC   C2B 4379   1.532   0.780   5.266
  339POPC   C3B 4380   1.533   0.586   5.654
  339POPC   C4B 4381   1.427   0.127   5.702
  340POPC   NC3 4382   1.876   1.805   3.966
  340POPC   PO4 4383   2.368   2.317   3.939
  340POPC   GL1 4384   2.213   2.029   4.322
  340POPC   GL2 4385   1.917   1.967   4.428
  340POPC   C1A 4386   2.179   1.952   4.835
  340POPC   D2A 4387   2.146   2.151   5.240
  340POPC   C3A 4388   2.323   1.927   5.585
  340POPC   C4A 4389   2.299   1.916   6.034
  340POPC   C1B 4390   1.686   2.178   4.738
  340POPC   C2B 4391   1.627   2.066   5.127
  340POPC   C3B 4392   1.798   1.833   5.451
  340POPC   C4B 4393   1.901   2.146   5.738
  341POPC   NC3 4394   8.343   6.765   3.892
  341POPC   PO4 4395   8.818   7.190   3.574
  341POPC   GL1 4396   8.872   6.955   4.084
  341POPC   GL2 4397   8.950   7.248   4.284
  341POPC   C1A 4398   8.611   6.877   4.571
  341POPC   D2A 4399   8.401   6.757   4.989
  341POPC   C3A 4400   8.407   7.008   5.357
  341POPC   C4A 4401   8.418   6.972   5.788
  341POPC   C1B 4402   9.044   7.093   4.661
  341POPC   C2B 4403   8.812   7.081   5.037
  341POPC   C3B 4404   8.885   7.290   5.410
  341POPC   C4B 4405   8.869   7.198   5.810
  342W        W 4406   1.302   4.697  10.440
  343W        W 4407   6.559   2.884   1.426
  344W        W 4408   6.562   8.588   9.142
  345W        W 4409   2.637   8.757  11.386
  346W        W 4410   6.221   6.138   1.289
  347W        W 4411   8.632   1.952   1.262
  348W        W 4412   3.767   7.521  11.547
  349W        W 4413   3.851   1.808   1.720
  350W        W 4414   6.943   3.259   0.066
  351W        W 4415   3.754   7.482   2.320
  352W        W 4416   7.535   7.394   3.185
  353W        W 4417   7.259   2.889  10.906
  354W        W 4418   6.642   6.080   2.535
  355W        W 4419  10.440   4.086   2.315
  356W        W 4420   0.727   2.892  11.582
  357W        W 4421   2.095   0.964  11.386
  358W        W 4422   0.813   2.595   8.798
  359W        W 4423   3.837   2.362  10.515
  360W        W 4424   7.598   0.741  11.920
  361W        W 4425   7.988   6.279  10.357
  362W        W 4426   9.607   5.004   1.971
  363W        W 4427   2.667   7.880   2.248
  364W        W 4428   3.751   6.452  10.491
  365W        W 4429   3.630   8.939   2.288
  366W        W 4430   5.590   9.697   1.311
  367W        W 4431   2.571   8.907   9.207
  368W        W 4432   4.960   4.812   1.666
  369W        W 4433   6.094   8.012   0.890
  370W        W 4434   9.167   3.284   9.388
  371W        W 4435  10.283   4.662   1.609
  372W        W 4436   8.465   9.324   3.219
  373W        W 4437   9.811   1.690  10.504
  374W        W 4438   4.637   4.391  10.887
  375W        W 4439   2.852   9.520   0.893
  376W        W 4440   3.921   8.622  11.471
  377W        W 4441  10.432   0.155   9.904
  378W        W 4442   8.539   8.373  10.435
  379W        W 4443   2.333   4.483   3.617
  380W        W 4444   3.345   9.671   0.992
  381W        W 4445   1.167   4.491   1.798
  382W        W 4446   6.125   8.577  10.963
  383W        W 4447   1.692   6.035   3.419
  384W        W 4448   1.520   9.248   0.404
  385W        W 4449   0.382   1.217   3.100
  386W        W 4450   2.174   7.854  11.048
  387W        W 4451   6.783   9.052  10.320
  388W        W 4452   3.053   7.708  11.945
  389W        W 4453   6.100   7.773  10.646
  390W        W 4454   2.604   5.230   2.827
  391W        W 4455   6.633   8.439  11.096
  392W        W 4456   9.037   9.544   3.086
  393W        W 4457   4.648  10.248   0.046
  394W        W 4458   7.374   5.898   3.877
  395W        W 4459   3.608   4.124   2.662
  396W        W 4460   1.510   9.623   3.589
  397W        W 4461  10.207   9.598   0.137
  398W        W 4462   3.754   7.711   9.988
  399W        W 4463   7.537  10.487   1.347
  400W        W 4464   5.121   4.571   8.241
  401W        W 4465   0.306   9.558  10.126
  402W        W 4466   9.706   9.525   2.487
  403W        W 4467   6.048   3.963   1.261
  404W        W 4468   7.208   1.320  10.337
  405W        W 4469   8.395   7.653   0.761
  406W        W 4470   3.800   0.263  10.061
  407W        W 4471   9.316   4.410   3.080
  408W        W 4472   2.368   3.241   9.356
  409W        W 4473   7.870   4.468  10.874
  410W        W 4474   8.060   7.429   3.205
  411W        W 4475   5.646   6.988   0.434
  412W        W 4476   9.067   9.170   2.146
  413W        W 4477   5.582   7.322   1.862
  414W        W 4478   8.413   6.255   8.611
  415W        W 4479   1.096   9.236   9.647
  416W        W 4480   8.075  10.163  10.155
  417W        W 4481   1.890  10.381   3.259
  418W        W 4482   7.881   0.964   2.269
  419W        W 4483   6.836   4.664   0.047
  420W        W 4484   8.861   3.516   2.379
  421W        W 4485   1.716   2.017   2.306
  422W        W 4486   9.662   8.358   0.807
  423W        W 4487   5.473   7.490   9.997
  424W        W 4488   1.269   7.438  10.971
  425W        W 4489   6.050   4.773  11.449
  426W        W 4490   0.927   9.560   0.419
  427W        W 4491   1.307   9.879   2.414
  428W        W 4492   4.128   4.507   0.198
  429W        W 4493   4.076   9.462   9.894
  430W        W 4494   4.810   3.211  10.289
  431W        W 4495   5.220   7.951   8.917
  432W        W 4496   6.018  10.037   2.755
  433W        W 4497   8.853   4.802  11.827
  434W        W 4498   0.837   7.577   3.090
  435W        W 4499   0.863   4.924   2.656
  436W        W 4500   4.396  10.407  10.007
  437W        W 4501   3.853   0.439  11.448
  438W        W 4502   0.031   7.009  11.336
  439W        W 4503   8.421   3.132   8.817
  440W        W 4504   3.657   6.427   3.644
  441W        W 4505   4.265   8.468   0.749
  442W        W 4506   4.262   8.838  11.108
  443W        W 4507   1.940   5.605   3.328
  444W        W 4508   7.599   8.604   1.220
  445W        W 4509   5.157   7.206   3.908
  446W        W 4510   6.446   9.793  11.499
  447W        W 4511   7.190   0.898   9.200
  448W        W 4512   4.780  10.450  10.606
  449W        W 4513   9.026   5.514   3.456
  450W        W 4514   1.678   6.631   9.340
  451W        W 4515   8.406   4.028   2.198
  452W        W 4516   9.017   6.534   1.456
  453W        W 4517   7.415   7.641   2.736
  454W        W 4518   7.056   5.952   3.126
  455W        W 4519   1.832   6.657  10.803
  456W        W 4520   8.706   3.403   0.085
  457W        W 4521   7.161   0.803   1.009
  458W        W 4522   1.900   5.282   9.117
  459W        W 4523   9.053   5.469  10.115
  460W        W 4524  10.230   5.022   0.723
  461W        W 4525   2.834   4.678   3.538
  462W        W 4526   0.975   7.016   1.302
  463W        W 4527   0.891   4.439  10.289
  464W        W 4528   6.989   4.893   1.003
  465W        W 4529   6.429   2.056   9.539
  466W        W 4530   7.502   0.507  11.297
  467W        W 4531   5.619   8.481  10.865
  468W        W 4532   3.771   7.075   9.153
  469W        W 4533  10.140   7.551  10.407
  470W        W 4534   9.336   1.840  10.371
  471W        W 4535   1.623   1.962   1.780
  472W        W 4536   7.024   3.110   3.070
  473W        W 4537   4.002   0.367   8.707
  474W        W 4538   4.760   4.903   8.443
  475W        W 4539   5.042   2.584   0.344
  476W        W 4540   6.682   6.680  11.892
  477W        W 4541   7.742   0.484   2.298
  478W        W 4542   4.521   9.600   8.507
  479W        W 4543   8.410   0.810   2.277
  480W        W 4544   5.272   9.154  11.959
  481W        W 4545   4.720   6.609  10.717
  482W        W 4546   6.736   3.087   0.981
  483W        W 4547   0.870   2.099   0.680
  484W        W 4548   8.489   7.596   3.487
  485W        W 4549   1.234  10.266   3.285
  486W        W 4550   6.398   6.978   3.330
  487W        W 4551   3.770   8.491   0.891
  488W        W 4552   5.656   8.427   2.702
  489W        W 4553   2.658   6.135   8.332
  490W        W 4554   3.695   8.656   3.465
  491W        W 4555   2.121   8.539   1.639
  492W        W 4556   7.276   6.504  10.722
  493W        W 4557   1.200   5.637   9.023
  494W        W 4558   7.736   6.851   9.307
  495W        W 4559   4.571   7.123  10.731
  496W        W 4560   5.427   3.688   8.229
  497W        W 4561   3.159   4.111   9.760
  498W        W 4562   8.932   1.326   9.725
  499W        W 4563  10.495   3.155   2.651
  500W        W 4564   5.999   4.745   2.472
  501W        W 4565   7.708   8.986  11.490
  502W        W 4566   4.112   2.594   9.456
  503W        W 4567  10.020   0.183  10.218
  504W        W 4568   7.555   0.110   3.347
  505W        W 4569   0.735   2.527  10.746
  506W        W 4570   3.208   6.737   2.468
  507W        W 4571   1.116   2.360   9.699
  508W        W 4572   4.109   6.236   1.970
  509W        W 4573   3.783   5.043  10.609
  510W        W 4574   9.242   2.774  11.359
  511W        W 4575   5.436   4.913   3.670
  512W        W 4576   8.569   9.880   1.663
  513W        W 4577   2.453   9.207   1.150
  514W        W 4578   4.514   4.539   9.994
  515W        W 4579   6.766   7.553   1.352
  516W        W 4580   4.624   9.283  11.570
  517W        W 4581   5.164   3.646   3.264
  518W        W 4582   8.914   6.001   0.874
  519W        W 4583   2.824   3.696   3.169
  520W        W 4584   6.957   4.376   3.914
  521W        W 4585   4.812   9.856  10.307
  522W        W 4586  10.382   6.070   8.814
  523W        W 4587   5.278   4.057   0.191
  524W        W 4588   9.459   4.253   0.734
  525W        W 4589   5.319   4.124  10.324
  526W        W 4590  10.257   4.253  10.097
  527W        W 4591   4.279  10.121   2.725
  528W        W 4592   2.433   1.458   3.101
  529W        W 4593   6.182   3.480   3.114
  530W        W 4594   6.938   0.365   1.997
  531W        W 4595   2.769   1.414   1.006
  532W        W 4596   5.985   3.128   8.878
  533W        W 4597   3.141   2.202   9.530
  534W        W 4598   9.122   4.173   9.565
  535W        W 4599   8.468   2.448   0.398
  536W        W 4600   5.686   5.461   9.506
  537W        W 4601   2.585   1.556   9.015
  538W        W 4602   8.903   4.287  10.526
  539W        W 4603   2.205   9.920   9.017
  540W        W 4604   5.757   7.162  11.926
  541W        W 4605   8.480   3.826   2.798
  542W        W 4606  10.208   9.576   2.389
  543W        W 4607   9.321   5.086  11.014
  544W        W 4608   7.944   6.454   2.240
  545W        W 4609   6.951   4.750   9.812
  546W        W 4610   1.275   5.118   2.366
  547W        W 4611   9.639   0.432  10.444
  548W        W 4612   9.803   0.366   1.229
  549W        W 4613   4.818   1.783   1.979
  550W        W 4614   5.334   7.366   0.297
  551W        W 4615   0.532   4.004  11.394
  552W        W 4616   8.062   5.649   3.463
  553W        W 4617   4.241   8.278  11.175
  554W        W 4618   4.737   9.868   2.698
  555W        W 4619   1.322   9.762   1.392
  556W        W 4620  10.447   1.258   1.423
  557W        W 4621   7.940   5.448   9.383
  558W        W 4622   3.872   0.673   9.763
  559W        W 4623   0.475   0.907   2.712
  560W        W 4624   3.786   9.535   0.650
  561W        W 4625   1.585   1.989  10.976
  562W        W 4626   5.465   2.623   9.251
  563W        W 4627   3.506   3.381   0.368
  564W        W 4628   4.048   8.245  10.298
  565W        W 4629   9.048   1.423   8.741
  566W        W 4630   8.051   6.256  11.722
  567W        W 4631   8.109   4.631  10.464
  568W        W 4632   3.258   0.907   8.722
  569W        W 4633   2.332   8.204   1.331
  570W        W 4634   0.702   6.051   3.238
  571W        W 4635   3.554   6.734   3.228
  572W        W 4636   8.229   3.407   0.267
  573W        W 4637   3.040   0.111   0.945
  574W        W 4638   2.595  10.218   8.837
  575W        W 4639   3.743   1.410   1.387
  576W        W 4640   2.070   5.092   9.752
  577W        W 4641   4.250   0.233  11.755
  578W        W 4642   9.928   4.878  10.060
  579W        W 4643   5.448   1.283  10.019
  580W        W 4644   9.858   8.574   9.538
  581W        W 4645   0.761   4.042   9.981
  582W        W 4646   9.322   0.480   9.528
  583W        W 4647   3.932   5.924   3.215
  584W        W 4648  10.228   7.342   8.471
  585W        W 4649   5.195   8.208   1.452
  586W        W 4650   7.046   1.535  10.834
  587W        W 4651  10.319   1.609   2.896
  588W        W 4652   2.284   2.682   0.667
  589W        W 4653  10.346   9.388   8.992
  590W        W 4654   1.756   3.333  11.485
  591W        W 4655   7.867   9.332   2.101
  592W        W 4656   9.945   3.766   1.142
  593W        W 4657   1.248   0.042  10.321
  594W        W 4658   1.503   8.972   9.435
  595W        W 4659   7.940   8.537  10.711
  596W        W 4660  10.134   4.304   3.228
  597W        W 4661   5.553   5.010  11.354
  598W        W 4662   1.749   2.713   2.941
  599W        W 4663   0.043   4.333   3.520
  600W        W 4664   8.369   0.494  11.265
  601W        W 4665  10.348  10.365   1.240
  602W        W 4666   1.041   4.728   3.114
  603W        W 4667   4.525   6.209   8.572
  604W        W 4668  10.184   3.350   3.493
  605W        W 4669  10.382   5.178  10.087
  606W        W 4670   8.942   5.179   2.350
  607W        W 4671   9.495   6.071   3.136
  608W        W 4672  10.296   0.622  10.075
  609W        W 4673   4.254   3.834   2.714
  610W        W 4674  10.357  10.080  10.776
  611W        W 4675   7.118   3.295  10.593
  612W        W 4676   4.956   2.124   9.696
  613W        W 4677   6.388   3.599   8.460
  614W        W 4678  10.401   3.761   1.446
  615W        W 4679   9.533   5.854   2.250
  616W        W 4680   5.074   2.594   9.577
  617W        W 4681   1.770  10.266  11.660
  618W        W 4682   3.628   1.313  10.408
  619W        W 4683   8.351  10.024  10.914
  620W        W 4684   2.879   1.285   0.230
  621W        W 4685   2.415   8.420   9.089
  622W        W 4686  10.242  10.191   1.748
  623W        W 4687   9.729   2.670   0.450
  624W        W 4688   0.411   1.197   1.716
  625W        W 4689   2.108   5.553   9.531
  626W        W 4690   8.043   7.000   1.375
  627W        W 4691   0.309   9.507   9.614
  628W        W 4692   5.329   5.025   1.385
  629W        W 4693   5.344   0.205   1.179
  630W        W 4694   9.488   7.930   9.893
  631W        W 4695   9.743   7.821  11.883
  632W        W 4696   3.738   2.252   3.574
  633W        W 4697   9.878   3.820   9.303
  634W        W 4698   6.646   7.450  10.019
  635W        W 4699   7.659   3.173   9.245
  636W        W 4700   3.238   0.575   3.534
  637W        W 4701   0.838   3.987   8.975
  638W        W 4702   8.459   0.353  11.733
  639W        W 4703   0.845   0.462   8.977
  640W        W 4704   7.081   4.111   2.586
  641W        W 4705   9.516   0.067   8.544
  642W        W 4706   5.138   7.202   1.644
  643W        W 4707   6.038   2.051   2.157
  644W        W 4708   9.578   7.009  11.528
  645W        W 4709   5.193   7.602   2.585
  646W        W 4710   7.498   7.655   8.821
  647W        W 4711   3.567   5.157   1.214
  648W        W 4712   7.890   3.958  11.002
  649W        W 4713   6.167   5.991   2.734
  650W        W 4714   6.159   1.884   9.124
  651W        W 4715   7.910   4.344   0.473
  652W        W 4716   5.792   8.379  10.047
  653W        W 4717   7.146   5.964  11.816
  654W        W 4718   0.905   1.409   9.790
  655W        W 4719   9.929   6.236   0.885
  656W        W 4720   8.160   5.628   0.585
  657W        W 4721   2.817   5.038   9.558
  658W        W 4722   0.382   1.249  11.841
  659W        W 4723   8.056   5.447   1.258
  660W        W 4724   4.549   9.872   2.207
  661W        W 4725   2.596   1.982  11.796
  662W        W 4726   1.908   4.697   8.512
  663W        W 4727   6.022   3.235   0.748
  664W        W 4728   0.165   9.284   2.482
  665W        W 4729   6.557   1.388   1.320
  666W        W 4730   7.185   0.401   9.404
  667W        W 4731   2.114   6.595   9.023
  668W        W 4732   7.002   3.199   0.563
  669W        W 4733   2.438   9.637   0.206
  670W        W 4734   4.019   3.272  10.041
  671W        W 4735   5.084   3.550   2.785
  672W        W 4736   8.823   8.426  11.858
  673W        W 4737   4.578   0.605  10.509
  674W        W 4738   4.248   0.925   9.982
  675W        W 4739   5.162   0.845   8.899
  676W        W 4740   9.931   0.311   0.191
  677W        W 4741   6.040   9.653   0.020
  678W        W 4742   6.531   4.718  11.634
  679W        W 4743   2.307   1.290   8.536
  680W        W 4744   1.765   4.672  10.615
  681W        W 4745   4.216   8.008   1.643
  682W        W 4746   4.637   0.528   1.018
  683W        W 4747   7.486   0.148  10.865
  684W        W 4748   0.106   4.945  11.260
  685W        W 4749   4.043   2.880  10.392
  686W        W 4750   7.936   6.795   0.915
  687W        W 4751   7.866   9.047   1.337
  688W        W 4752   5.684   4.520  10.286
  689W        W 4753   2.089   8.589  11.427
  690W        W 4754   5.653   7.574   2.331
  691W        W 4755   7.731   1.890  11.406
  692W        W 4756   0.522   6.962  11.131
  693W        W 4757   2.815   4.510   1.487
  694W        W 4758   9.849   1.202  10.663
  695W        W 4759   6.022   0.657   1.477
  696W        W 4760   0.702   0.672  10.356
  697W        W 4761   9.562   2.619   9.993
  698W        W 4762   3.593   9.191   1.808
  699W        W 4763   1.503   5.578   2.397
  700W        W 4764   4.995   6.609   9.023
  701W        W 4765   6.388   0.709   9.515
  702W        W 4766   2.365   3.069  10.972
  703W        W 4767   4.618   6.022   2.820
  704W        W 4768   5.200   2.220   0.021
  705W        W 4769   3.752   9.804   2.739
  706W        W 4770   3.028   7.985  10.069
  707W        W 4771   3.805   8.221   1.859
  708W        W 4772   2.461   0.945   2.200
  709W        W 4773   3.006   1.110  11.361
  710W        W 4774   0.342   2.385   9.159
  711W        W 4775   8.480   7.148   1.607
  712W        W 4776   2.296   1.193   1.705
  713W        W 4777   4.154   1.769   0.206
  714W        W 4778   5.634   7.912   2.832
  715W        W 4779   2.769   7.013  11.321
  716W        W 4780   7.171   1.716   2.254
  717W        W 4781   7.311   8.568  11.514
  718W        W 4782   1.312   3.298   8.741
  719W        W 4783   0.944   3.703  11.249
  720W        W 4784   1.874   4.159   1.262
  721W        W 4785   8.013   8.364   9.724
  722W        W 4786   2.048   7.625  10.073
  723W        W 4787   6.184   3.035   2.223
  724W        W 4788   1.220  10.019  11.687
  725W        W 4789   6.470   6.973  10.546
  726W        W 4790   5.700   6.631   8.434
  727W        W 4791   0.864   2.615   0.629
  728W        W 4792   9.958   6.122  11.966
  729W        W 4793   9.369   8.742  11.338
  730W        W 4794   9.234   5.227  10.525
  731W        W 4795   8.830   2.699   3.035
  732W        W 4796   0.358   9.502   3.345
  733W        W 4797   1.406   6.711   1.372
  734W        W 4798   6.553   8.005  11.391
  735W        W 4799   6.138   8.402   8.764
  736W        W 4800   0.974  10.174   2.215
  737W        W 4801   2.808   2.200   1.248
  738W        W 4802   5.135   3.599   0.026
  739W        W 4803   7.516   4.571   3.720
  740W        W 4804   6.006   0.563  10.630
  741W        W 4805   0.781   0.134   2.296
  742W        W 4806  10.158  10.235   9.993
  743W        W 4807   3.521   8.849  11.694
  744W        W 4808   2.813   5.061   1.835
  745W        W 4809   1.473   0.970   2.605
  746W        W 4810   6.616   6.540   2.177
  747W        W 4811   2.599   7.016   9.745
  748W        W 4812   4.749   7.529   2.296
  749W        W 4813   0.018   3.442  11.955
  750W        W 4814   3.250   8.952   1.486
  751W        W 4815   4.642  10.238   3.495
  752W        W 4816   9.123   8.812   1.806
  753W        W 4817   6.196  10.500   2.653
  754W        W 4818   6.457   3.415   2.666
  755W        W 4819   4.516   3.085   8.932
  756W        W 4820   4.745   0.766   3.353
  757W        W 4821   2.191   8.040   2.429
  758W        W 4822   8.669   1.812   2.024
  759W        W 4823   9.454   6.997   8.857
  760W        W 4824   7.420   2.270   8.713
  761W        W 4825   2.758   1.687   0.562
  762W        W 4826   7.697   8.620   8.907
  763W        W 4827   3.258   4.537   1.748
  764W        W 4828   9.859   8.751   1.046
  765W        W 4829   0.236   9.862  10.546
  766W        W 4830   9.402   5.112  10.028
  767W        W 4831   7.912   4.568   1.528
  768W        W 4832   3.372   9.463   1.445
  769W        W 4833   0.677   5.642   9.574
  770W        W 4834   4.045   6.634   9.205
  771W        W 4835   5.832   1.662   1.905
  772W        W 4836   7.312  10.043   9.212
  773W        W 4837   6.728   4.682   9.090
  774W        W 4838   2.302   8.213  10.695
  775W        W 4839   4.568   8.250   8.511
  776W        W 4840   5.580   8.836   9.704
  777W        W 4841   8.297   9.484  11.771
  778W        W 4842   7.335   7.852  11.014
  779W        W 4843   6.837   9.826   1.679
  780W        W 4844   7.707   2.652  10.926
  781W        W 4845   7.085   6.896   0.816
  782W        W 4846   0.458  10.302  10.469
  783W        W 4847   1.252   7.944   9.095
  784W        W 4848   1.845   8.379   0.260
  785W        W 4849   1.681   3.810   0.430
  786W        W 4850   8.395   9.049   9.257
  787W        W 4851   2.376   5.722  11.874
  788W        W 4852   6.400   3.999   9.717
  789W        W 4853   9.798   2.819   1.442
  790W        W 4854   3.174   7.479   0.384
  791W        W 4855   1.824   5.712   0.520
  792W        W 4856   6.236   5.563   3.027
  793W        W 4857   9.976   9.985   0.369
  794W        W 4858   4.595  10.413   9.154
  795W        W 4859  10.471   7.933   1.863
  796W        W 4860   3.712   7.067  11.837
  797W        W 4861   8.359   1.273   9.065
  798W        W 4862   9.136   8.054   0.625
  799W        W 4863   1.260   5.517   0.596
  800W        W 4864   2.263  10.050   2.496
  801W        W 4865   3.760   8.441  11.942
  802W        W 4866   0.780   0.180  10.473
  803W        W 4867   9.569   8.961   0.183
  804W        W 4868   4.931   1.606   3.700
  805W        W 4869   3.414  10.358  10.362
  806W        W 4870   3.108   8.519  10.363
  807W        W 4871   4.912   4.167  11.268
  808W        W 4872   6.199   1.404   0.263
  809W        W 4873   9.093   5.533  10.935
  810W        W 4874   0.395   6.046   8.840
  811W        W 4875   7.009   2.722   1.704
  812W        W 4876   2.680   3.215   1.975
  813W        W 4877   1.876   7.993   1.459
  814W        W 4878   1.933  10.418   2.683
  815W        W 4879   8.600   4.684  10.566
  816W        W 4880   9.983   8.422   3.431
  817W        W 4881   3.919   3.387   0.706
  818W        W 4882   5.058   4.567   3.695
  819W        W 4883   3.552   7.862   9.464
  820W        W 4884   5.091   8.478   8.894
  821W        W 4885   4.567   6.826   3.466
  822W        W 4886   6.922   8.044   2.534
  823W        W 4887  10.478   3.635   8.849
  824W        W 4888   8.496   9.962   2.162
  825W        W 4889   0.372   9.889   1.661
  826W        W 4890   6.908  10.483   9.683
  827W        W 4891   6.558   6.536   9.730
  828W        W 4892  10.266   6.032   3.411
  829W        W 4893   7.661   8.873   1.971
  830W        W 4894   9.100   7.577  11.962
  831W        W 4895  10.011   3.286  10.981
  832W        W 4896   6.123   0.057   0.714
  833W        W 4897   1.212   3.629  10.085
  834W        W 4898   9.964   1.988   8.536
  835W        W 4899   0.272   2.709   1.504
  836W        W 4900   9.356   8.358   2.039
  837W        W 4901   2.814   7.447   3.408
  838W        W 4902   0.114   6.570   0.709
  839W        W 4903   8.157   9.434   8.696
  840W        W 4904   2.915   1.618  10.512
  841W        W 4905   2.378   7.003   8.807
  842W        W 4906   3.262   8.442  10.931
  843W        W 4907   4.028   6.146   8.397
  844W        W 4908   5.513   3.907   3.521
  845W        W 4909   1.668   8.023   9.379
  846W        W 4910   7.553   8.379   1.808
  847W        W 4911  10.463   4.209   1.195
  848W        W 4912   7.774   6.426  10.785
  849W        W 4913   7.039   7.505   3.291
  850W        W 4914   9.688   6.475  10.730
  851W        W 4915   3.150   2.619   0.995
  852W        W 4916   2.989   1.771   0.060
  853W        W 4917   3.289   4.879  11.488
  854W        W 4918   5.177   5.748  11.855
  855W        W 4919   1.329   3.329   1.195
  856W        W 4920   9.026   3.570  10.818
  857W        W 4921   8.189   8.816   0.399
  858W        W 4922   2.740   6.970   1.456
  859W        W 4923   9.858   7.353   1.752
  860W        W 4924   5.156  10.472  11.330
  861W        W 4925   5.775   8.083   3.391
  862W        W 4926   3.335   9.435   3.457
  863W        W 4927  10.376   0.870   1.802
  864W        W 4928   7.490   6.573   3.675
  865W        W 4929   7.499   4.898  11.800
  866W        W 4930   6.465   8.846   2.515
  867W        W 4931   7.007   7.477   1.827
  868W        W 4932   1.935   4.782   2.499
  869W        W 4933   7.622   9.150   9.999
  870W        W 4934   0.270   4.265   0.461
  871W        W 4935   7.096   2.684   8.814
  872W        W 4936   8.142   3.234   1.507
  873W        W 4937   1.289   6.242   1.543
  874W        W 4938   4.254   4.685  11.722
  875W        W 4939  10.443   7.516  10.003
  876W        W 4940   9.587   0.663   9.937
  877W        W 4941   9.934   0.713  10.781
  878W        W 4942   4.158   4.528   3.682
  879W        W 4943   3.618   9.054   9.109
  880W        W 4944   3.292   9.262   2.462
  881W        W 4945   5.003   7.643   0.044
  882W        W 4946   8.615   5.053  11.383
  883W        W 4947   0.411   0.494   9.258
  884W        W 4948   0.941   8.518  10.210
  885W        W 4949   4.172   2.410   3.054
  886W        W 4950   0.464   8.331   1.231
  887W        W 4951   1.857   8.883   1.915
  888W        W 4952   5.554   3.204   8.058
  889W        W 4953   3.820   0.380   0.444
  890W        W 4954   1.182   5.165   9.693
  891W        W 4955   8.891   9.323   3.509
  892W        W 4956   1.630   0.921   1.086
  893W        W 4957   7.606   1.061   1.139
  894W        W 4958   9.993  10.013   1.205
  895W        W 4959   1.251   4.992   0.417
  896W        W 4960   1.723   0.710   9.473
  897W        W 4961   1.809   6.690   2.279
  898W        W 4962   7.815   9.001  10.446
  899W        W 4963  10.392   3.131   8.738
  900W        W 4964  10.144   7.832   8.668
  901W        W 4965   9.117   9.592  10.958
  902W        W 4966  10.107   9.949   8.978
  903W        W 4967   2.388   7.265   0.950
  904W        W 4968  10.066   9.080   0.336
  905W        W 4969   0.279   0.705  10.688
  906W        W 4970   4.782   0.824   2.186
  907W        W 4971   4.525   8.722   3.573
  908W        W 4972  10.384   8.588   0.234
  909W        W 4973   3.266   2.090  10.803
  910W        W 4974   6.515   0.738  11.281
  911W        W 4975   0.022   3.269   2.150
  912W        W 4976   5.103   7.192   2.167
  913W        W 4977   1.124   3.795   2.399
  914W        W 4978   7.617   9.275  11.925
  915W        W 4979   9.824   1.242   0.468
  916W        W 4980   5.641   7.690  10.439
  917W        W 4981   2.825   7.432   0.742
  918W        W 4982   8.541   3.588   3.294
  919W        W 4983   0.652   5.598  11.865
  920W        W 4984   2.187   9.530   1.467
  921W        W 4985   5.470   7.646   3.774
  922W        W 4986   0.455   8.447   0.386
  923W        W 4987   5.930   7.537  11.588
  924W        W 4988   6.633   7.197   0.790
  925W        W 4989   8.768   7.299   0.828
  926W        W 4990   4.965   0.773   2.689
  927W        W 4991   4.434   6.938  11.209
  928W        W 4992   7.440   5.049   3.543
  929W        W 4993   3.084   3.031   1.746
  930W        W 4994   8.626   3.281   1.746
  931W        W 4995   1.229   2.750   3.203
  932W        W 4996   7.561   8.554  10.288
  933W        W 4997   4.859   3.095   2.202
  934W        W 4998   5.800   2.244   9.206
  935W        W 4999   6.488   9.348  10.725
  936W        W 5000   7.102   7.390   0.956
  937W        W 5001   5.010   5.486   2.115
  938W        W 5002   4.598   7.587   9.014
  939W        W 5003   0.534   9.914   0.252
  940W        W 5004   3.093   2.836  10.314
  941W        W 5005   0.267   5.566   1.861
  942W        W 5006  10.304   9.949   2.752
  943W        W 5007   9.935   9.568   9.284
  944W        W 5008   7.116   9.874   2.166
  945W        W 5009   5.638   5.964   2.921
  946W        W 5010  10.069   2.508   2.834
  947W        W 5011   8.388   2.942   0.301
  948W        W 5012   3.812   7.059  11.327
  949W        W 5013   6.102   6.593  10.040
  950W        W 5014   8.055   5.559   2.395
  951W        W 5015   5.197   7.673   2.071
  952W        W 5016   6.008   9.573   0.521
  953W        W 5017   9.708  10.475   3.821
  954W        W 5018   6.070   0.019  11.271
  955W        W 5019   6.522   4.028   0.010
  956W        W 5020   7.737   2.476   0.649
  957W        W 5021   1.888   4.815   3.590
  958W        W 5022   6.568   9.142   9.853
  959W        W 5023   1.352   0.513   2.954
  960W        W 5024   9.525   6.974  10.752
  961W        W 5025   9.076   3.071   2.368
  962W        W 5026   9.999   0.831   3.762
  963W        W 5027   0.627   4.726   8.688
  964W        W 5028   3.315   6.149  10.516
  965W        W 5029   6.030   7.107   3.657
  966W        W 5030   2.801   3.700   2.124
  967W        W 5031   3.570   6.473   2.200
  968W        W 5032   5.249   2.094   1.222
  969W        W 5033   3.393   4.987   0.775
  970W        W 5034   2.648   0.198   9.335
  971W        W 5035   4.588   4.573   1.928
  972W        W 5036  10.082   7.226   2.389
  973W        W 5037   7.109   8.332   8.586
  974W        W 5038   5.223   2.220   2.102
  975W        W 5039   1.214   5.204   2.950
  976W        W 5040   8.126   1.790   9.043
  977W        W 5041   6.642   5.404   9.527
  978W        W 5042   6.508   4.129   0.942
  979W        W 5043   4.990   1.412  10.199
  980W        W 5044   2.196   6.015   8.563
  981W        W 5045   0.958   6.811   2.791
  982W        W 5046   7.157   3.110   2.040
  983W        W 5047   7.462   6.596   1.003
  984W        W 5048   2.931   9.544  11.793
  985W        W 5049   0.700   2.351   2.106
  986W        W 5050   4.564   8.221   9.973
  987W        W 5051   2.427   9.368   3.206
  988W        W 5052   4.558   1.236   9.422
  989W        W 5053   3.837   3.625   3.566
  990W        W 5054   6.268   1.549   9.470
  991W        W 5055   4.708   6.493   4.141
  992W        W 5056   6.295   1.478   3.290
  993W        W 5057   9.510   4.136  11.343
  994W        W 5058   2.312   7.936   3.610
  995W        W 5059   1.627   5.541   1.879
  996W        W 5060   8.769   1.510   1.592
  997W        W 5061   1.291   9.462   9.240
  998W        W 5062   0.828   6.846   8.701
  999W        W 5063   2.857   1.492   2.829
 1000W        W 5064   5.578   9.507   9.969
 1001W        W 5065   0.574   1.817   1.355
 1002W        W 5066   5.539   6.928   0.948
 1003W        W 5067   5.510   4.862  10.855
 1004W        W 5068   1.763   9.963  10.833
 1005W        W 5069   3.795   4.936  11.612
 1006W        W 5070   0.022   6.242  10.906
 1007W        W 5071   8.366   2.791  11.434
 1008W        W 5072   6.788   8.500  11.567
 1009W        W 5073   1.320   0.528   1.151
 1010W        W 5074   0.900   7.303   2.659
 1011W        W 5075   1.210   0.612   1.667
 1012W        W 5076   5.200   5.602   9.434
 1013W        W 5077   7.655   4.739   8.750
 1014W        W 5078   3.714   4.606   2.424
 1015W        W 5079   9.558   9.734   9.608
 1016W        W 5080   5.823   3.229   3.920
 1017W        W 5081   9.081   3.119  11.016
 1018W        W 5082   8.168   1.731   1.288
 1019W        W 5083   0.729   9.886  11.763
 1020W        W 5084   8.694   8.995   0.479
 1021W        W 5085   6.957   7.947   9.359
 1022W        W 5086   9.081   2.624  10.888
 1023W        W 5087   7.568   0.987   8.858
 1024W        W 5088   4.097   4.714  10.279
 1025W        W 5089   4.514   8.933   1.647
 1026W        W 5090   3.559   0.018   0.185
 1027W        W 5091   6.746   6.127   1.294
 1028W        W 5092   7.665   1.745   2.332
 1029W        W 5093   8.013   1.938  10.070
 1030W        W 5094   6.034   4.500   3.844
 1031W        W 5095   2.821   6.019   0.563
 1032W        W 5096   4.905  10.501   0.418
 1033W        W 5097   1.892   6.126   8.966
 1034W        W 5098   8.944   9.411   0.815
 1035W        W 5099   6.526   8.926  11.563
 1036W        W 5100   8.655   0.209  10.396
 1037W        W 5101  10.038   2.637  10.119
 1038W        W 5102   1.390   2.361   2.876
 1039W        W 5103   1.989   7.609   2.661
 1040W        W 5104   4.231   9.956   0.151
 1041W        W 5105   0.193   8.599   9.880
 1042W        W 5106   9.429   6.545  11.672
 1043W        W 5107   2.066   7.580   8.700
 1044W        W 5108   7.487   3.145  11.812
 1045W        W 5109   4.069   6.613   0.438
 1046W        W 5110   4.094   6.608   0.951
 1047W        W 5111   8.417  10.025   0.774
 1048W        W 5112   5.027   6.697   3.813
 1049W        W 5113   6.502   3.515   0.069
 1050W        W 5114   0.270   3.719   2.226
 1051W        W 5115   0.699   6.440   9.032
 1052W        W 5116   9.068   5.015   0.362
 1053W        W 5117   9.571   3.131   2.284
 1054W        W 5118   3.454   4.658   9.134
 1055W        W 5119   9.719   7.270  10.366
 1056W        W 5120   6.793   4.018   8.482
 1057W        W 5121   1.289   4.153  10.015
 1058W        W 5122   4.277   4.712  10.762
 1059W        W 5123   8.099   9.526  10.833
 1060W        W 5124   4.507   6.901   9.350
 1061W        W 5125   9.798   9.875   2.126
 1062W        W 5126   7.407   4.671   0.278
 1063W        W 5127   8.563   3.769   0.922
 1064W        W 5128   0.072   1.959  10.710
 1065W        W 5129   4.377   5.242   0.988
 1066W        W 5130   9.280   8.826   9.890
 1067W        W 5131   5.865   0.442   9.096
 1068W        W 5132   9.910   2.197   9.281
 1069W        W 5133   4.096   7.868   9.343
 1070W        W 5134   6.554   2.801   1.933
 1071W        W 5135   3.627   1.403   3.534
 1072W        W 5136   1.787   1.662   9.087
 1073W        W 5137   5.987  10.415   1.171
 1074W        W 5138  10.012   6.144   9.620
 1075W        W 5139   2.777   4.732   3.012
 1076W        W 5140   9.052   0.961   1.745
 1077W        W 5141   2.726   5.505   0.245
 1078W        W 5142   5.876   4.852   1.982
 1079W        W 5143   2.664  10.226   0.215
 1080W        W 5144   5.595   9.744   3.251
 1081W        W 5145   0.016   2.319   0.422
 1082W        W 5146   5.704   1.903   2.547
 1083W        W 5147   5.997  10.084   0.457
 1084W        W 5148   2.654   2.692  11.262
 1085W        W 5149   4.857   8.589   1.478
 1086W        W 5150   7.953   7.814   3.515
 1087W        W 5151   0.995   0.173   3.118
 1088W        W 5152   5.615   5.946   9.475
 1089W        W 5153   2.873   7.886   0.983
 1090W        W 5154   0.268   2.547   3.272
 1091W        W 5155   6.582   1.191  11.515
 1092W        W 5156   5.978   0.840   0.949
 1093W        W 5157   7.911   7.795   0.689
 1094W        W 5158   1.831   5.523   1.386
 1095W        W 5159   2.695   3.397  11.738
 1096W        W 5160   1.408   6.462   3.512
 1097W        W 5161   3.315   8.395   2.110
 1098W        W 5162   6.619   6.698   0.849
 1099W        W 5163   3.315   8.669   1.057
 1100W        W 5164   7.402   0.268   2.869
 1101W        W 5165   0.523   3.381  11.818
 1102W        W 5166   3.776   8.791   2.812
 1103W        W 5167   2.750   4.318   1.016
 1104W        W 5168   6.013   3.672   0.472
 1105W        W 5169   2.318   8.100   0.395
 1106W        W 5170   9.963   6.340  10.315
 1107W        W 5171   9.788   8.951   9.944
 1108W        W 5172   1.644   3.882   2.347
 1109W        W 5173   2.784   9.536   3.537
 1110W        W 5174   9.882   5.430   1.926
 1111W        W 5175   2.179   7.364   9.157
 1112W        W 5176  10.491   1.124   9.860
 1113W        W 5177   3.138  10.269   1.943
 1114W        W 5178   7.015  10.367   1.223
 1115W        W 5179   0.410   9.356   0.992
 1116W        W 5180   4.499   0.476   3.011
 1117W        W 5181   3.399   3.543   0.854
 1118W        W 5182   7.229  10.345  10.530
 1119W        W 5183   5.078  10.485  11.917
 1120W        W 5184   4.778   9.971   9.322
 1121W        W 5185   7.242   8.845   0.812
 1122W        W 5186   5.396   5.762   9.890
 1123W        W 5187   9.298   9.135   2.958
 1124W        W 5188   3.530   3.110  10.099
 1125W        W 5189   1.316   8.138  10.199
 1126W        W 5190   4.123   4.197  10.899
 1127W        W 5191   9.400   3.261   2.773
 1128W        W 5192   5.688  10.034   9.810
 1129W        W 5193   4.618   9.439   1.518
 1130W        W 5194   9.244   8.654   8.868
 1131W        W 5195   3.419   1.804  11.753
 1132W        W 5196   3.498   6.223   3.201
 1133W        W 5197   0.033   4.061  11.309
 1134W        W 5198   6.499   6.146  10.994
 1135W        W 5199   5.627   8.760   1.503
 1136W        W 5200   1.333   6.906  10.534
 1137W        W 5201   4.746   1.685   9.575
 1138W        W 5202   4.546   9.587   9.544
 1139W        W 5203   6.019   1.052   9.467
 1140W        W 5204   9.805   6.772   2.740
 1141W        W 5205   6.701   7.951  10.360
 1142W        W 5206   9.909   2.597   9.603
 1143W        W 5207  10.342   4.702   1.119
 1144W        W 5208   4.336   2.283   2.536
 1145W        W 5209   3.848   9.825  10.870
 1146W        W 5210   7.741   7.090   2.815
 1147W        W 5211   9.017   7.944  10.101
 1148W        W 5212   3.228   7.297  11.683
 1149W        W 5213   7.505   7.375  10.933
 1150W        W 5214  10.432   3.276   9.234
 1151W        W 5215   4.031   6.504   2.433
 1152W        W 5216   3.266   6.224   1.371
 1153W        W 5217   5.538   5.351  11.746
 1154W        W 5218   3.728   4.573   9.896
 1155W        W 5219  10.233   9.367   1.581
 1156W        W 5220   1.274   7.602   1.180
 1157W        W 5221   0.666   1.978  10.893
 1158W        W 5222   9.262   0.357   3.548
 1159W        W 5223  10.351   6.175   9.982
 1160W        W 5224   0.812  10.246   9.572
 1161W        W 5225   9.878   8.590   0.409
 1162W        W 5226   6.052   9.451   1.438
 1163W        W 5227   0.856   1.630   0.956
 1164W        W 5228   0.334   3.705  11.031
 1165W        W 5229   8.115   8.730  11.240
 1166W        W 5230   0.332   7.874   1.447
 1167W        W 5231   4.756   8.599   0.978
 1168W        W 5232   4.694   5.156   0.265
 1169W        W 5233   5.651   2.143   1.846
 1170W        W 5234   5.448   6.496   0.441
 1171W        W 5235   9.305   9.645   0.555
 1172W        W 5236   2.796   8.137   8.931
 1173W        W 5237   3.561   9.388  10.816
 1174W        W 5238   7.609   2.684   9.033
 1175W        W 5239   0.387   6.697  10.397
 1176W        W 5240   9.386   3.927  10.878
 1177W        W 5241   9.748   0.961   2.254
 1178W        W 5242   9.142   4.429   1.270
 1179W        W 5243   8.457   9.976   9.882
 1180W        W 5244   3.795   4.581  10.848
 1181W        W 5245   7.242   0.308   2.392
 1182W        W 5246   2.112   0.276   0.123
 1183W        W 5247   7.592   5.170   0.248
 1184W        W 5248   8.064   0.838   0.955
 1185W        W 5249   6.402  10.286  11.581
 1186W        W 5250   4.995   5.713   8.963
 1187W        W 5251   8.168   0.736  10.865
 1188W        W 5252   0.673   2.407   1.601
 1189W        W 5253   6.512   5.096   9.958
 1190W        W 5254   5.625   3.121  11.406
 1191W        W 5255   9.781   2.578  10.562
 1192W        W 5256   8.316   2.719   3.035
 1193W        W 5257   3.153   8.824  11.269
 1194W        W 5258   4.134   7.991   9.833
 1195W        W 5259   6.026   2.778  11.467
 1196W        W 5260   9.845   5.275   2.404
 1197W        W 5261   2.635   2.405   9.756
 1198W        W 5262   3.637   0.383   2.461
 1199W        W 5263   4.549   3.304   3.122
 1200W        W 5264   0.222   7.923   2.340
 1201W        W 5265   4.252   5.480   3.252
 1202W        W 5266   3.331   5.477   2.745
 1203W        W 5267   3.829   7.446   9.520
 1204W        W 5268   3.930   5.820   7.997
 1205W        W 5269   0.787   3.573   9.761
 1206W        W 5270   9.845   6.260   2.242
 1207W        W 5271   1.678   0.327  11.353
 1208W        W 5272   9.567   3.660  11.943
 1209W        W 5273   2.711   8.789   3.220
 1210W        W 5274   5.167   8.561   2.424
 1211W        W 5275   8.810   4.556   8.644
 1212W        W 5276   2.197   4.173   9.561
 1213W        W 5277   9.824   3.060  10.347
 1214W        W 5278   9.658   2.626   9.135
 1215W        W 5279   8.490   8.604   0.766
 1216W        W 5280   2.129   3.999   3.548
 1217W        W 5281   2.431   7.501   9.592
 1218W        W 5282   3.630   9.012  11.209
 1219W        W 5283   4.356   4.030   2.238
 1220W        W 5284   5.224   7.163  11.832
 1221W        W 5285   0.767   3.275   1.079
 1222W        W 5286   1.442   2.597  11.094
 1223W        W 5287   2.262   7.002  11.471
 1224W        W 5288   5.689   6.415   9.347
 1225W        W 5289   4.324   3.141  10.965
 1226W        W 5290   7.649   5.864  11.816
 1227W        W 5291   1.646   5.363   9.598
 1228W        W 5292   4.224   3.155   9.444
 1229W        W 5293   0.420   2.221   2.919
 1230W        W 5294   0.392   6.394   1.605
 1231W        W 5295   1.415  10.230   8.970
 1232W        W 5296   7.066   4.730  11.068
 1233W        W 5297   9.713   3.656  11.445
 1234W        W 5298   4.437   5.722   8.767
 1235W        W 5299   8.876   8.937   9.103
 1236W        W 5300   4.997   1.301   8.659
 1237W        W 5301   5.497  10.365  11.682
 1238W        W 5302   8.044   2.790   1.210
 1239W        W 5303   9.387  10.488   0.025
 1240W        W 5304   4.175   8.886   9.050
 1241W        W 5305   2.231   1.796   2.472
 1242W        W 5306  10.018   0.414   2.044
 1243W        W 5307   3.477   8.112   9.889
 1244W        W 5308   6.504   6.812   1.738
 1245W        W 5309   6.178   3.262  10.217
 1246W        W 5310   3.302   8.580   0.131
 1247W        W 5311   0.636   9.867   8.444
 1248W        W 5312   8.881   2.700   8.620
 1249W        W 5313   5.473   6.705   4.069
 1250W        W 5314   9.537   1.664   9.009
 1251W        W 5315   9.623   4.246   9.507
 1252W        W 5316   4.574   4.251   2.689
 1253W        W 5317   5.602   5.172   0.217
 1254W        W 5318   1.597   9.126  11.280
 1255W        W 5319   9.271   7.686  11.459
 1256W        W 5320   9.914   0.822   0.742
 1257W        W 5321   3.746   5.987   1.687
 1258W        W 5322   0.347   2.072   3.469
 1259W        W 5323   5.609  10.274  11.181
 1260W        W 5324   6.024  10.434   8.955
 1261W        W 5325   7.821   2.301   9.472
 1262W        W 5326   4.611   1.212   2.494
 1263W        W 5327   6.490   4.404   9.436
 1264W        W 5328   9.613   4.749  10.784
 1265W        W 5329   3.308   5.188  10.816
 1266W        W 5330   4.552   6.430   3.148
 1267W        W 5331   2.186  10.406   0.461
 1268W        W 5332   9.809   5.696   9.433
 1269W        W 5333   4.275   2.194   2.018
 1270W        W 5334  10.205   6.799   3.120
 1271W        W 5335   7.052   1.262  11.259
 1272W        W 5336   7.428   8.292  10.737
 1273W        W 5337   9.699  10.101   9.267
 1274W        W 5338   6.575   2.793   8.950
 1275W        W 5339   0.016  10.372   2.585
 1276W        W 5340   4.507   2.307   9.847
 1277W        W 5341   6.576   2.170   3.293
 1278W        W 5342   9.952   1.376   2.512
 1279W        W 5343   2.416   5.949   9.484
 1280W        W 5344   5.775   3.788   3.115
 1281W        W 5345   8.129   1.791   3.477
 1282W        W 5346   2.706   1.508   2.316
 1283W        W 5347   1.848   2.579  10.057
 1284W        W 5348   8.996   3.648   2.858
 1285W        W 5349   1.203   5.599  11.865
 1286W        W 5350   0.920   1.297  11.228
 1287W        W 5351   0.348   4.488   0.955
 1288W        W 5352   1.230   3.128  10.317
 1289W        W 5353  10.481   4.671   3.124
 1290W        W 5354   7.008   3.564   3.320
 1291W        W 5355   3.728   0.951   9.374
 1292W        W 5356   4.859   1.855  10.584
 1293W        W 5357   5.595  10.388   0.792
 1294W        W 5358   3.626   6.200  10.939
 1295W        W 5359  10.315   8.245   2.247
 1296W        W 5360   4.085   4.692  11.246
 1297W        W 5361  10.341   3.469   3.010
 1298W        W 5362   1.568  10.153  10.390
 1299W        W 5363   8.064  10.372   1.336
 1300W        W 5364   4.757   2.066   2.764
 1301W        W 5365   7.471   4.545   1.814
 1302W        W 5366   3.147   3.817  10.595
 1303W        W 5367   5.169   5.146   0.480
 1304W        W 5368   4.757   4.515  11.623
 1305W        W 5369   8.276   1.318   2.281
 1306W        W 5370   4.682   8.470   0.461
 1307W        W 5371   5.172   1.580   1.282
 1308W        W 5372  10.438   4.834   3.606
 1309W        W 5373   1.350   9.403  10.091
 1310W        W 5374   5.502   3.830  10.715
 1311W        W 5375   3.817  10.305   9.837
 1312W        W 5376   9.211   4.477   0.109
 1313W        W 5377   5.033   4.071   1.129
 1314W        W 5378   4.907   5.581   1.200
 1315W        W 5379   7.510   1.779  10.883
 1316W        W 5380   2.319   9.394   9.152
 1317W        W 5381   2.645   7.930   3.232
 1318W        W 5382   7.529   7.160   8.954
 1319W        W 5383   3.778   6.268   0.716
 1320W        W 5384   0.558   0.344   0.260
 1321W        W 5385   3.153   3.322   2.200
 1322W        W 5386   4.906   2.072   0.405
 1323W        W 5387   6.910   2.206   8.877
 1324W        W 5388   6.501  10.192   2.391
 1325W        W 5389  10.336   6.584   9.563
 1326W        W 5390   4.533   5.018  10.124
 1327W        W 5391   9.496   0.558   0.890
 1328W        W 5392   7.450   3.339   3.166
 1329W        W 5393   3.332   5.789   4.041
 1330W        W 5394   0.033   1.837   0.593
 1331W        W 5395   8.094   1.719  11.063
 1332W        W 5396   7.888   3.448  11.136
 1333W        W 5397   4.793   2.016  11.086
 1334W        W 5398   4.485   5.706   0.215
 1335W        W 5399   8.824   6.076   2.682
 1336W        W 5400   4.007   3.618   0.266
 1337W        W 5401   4.171   2.725   0.700
 1338W        W 5402   7.447   9.848  10.592
 1339W        W 5403   9.954   6.675   3.544
 1340W        W 5404   8.547   1.885   9.324
 1341W        W 5405   3.152   7.842   3.331
 1342W        W 5406   7.499   6.111  10.462
 1343W        W 5407   0.250   2.232   1.795
 1344W        W 5408   3.117   8.482   9.827
 1345W        W 5409   9.817   9.825  10.107
 1346W        W 5410   5.946   1.114   3.420
 1347W        W 5411   3.848   2.672   1.215
 1348W        W 5412   7.285   8.988  10.338
 1349W        W 5413   9.772  10.353   1.903
 1350W        W 5414   9.795   0.360   9.241
 1351W        W 5415   5.970   2.183   9.669
 1352W        W 5416   5.640   0.816   8.673
 1353W        W 5417   0.432   6.790   9.901
 1354W        W 5418   2.559   5.597   0.722
 1355W        W 5419   1.223   3.217   9.784
 1356W        W 5420   0.768   5.686  10.912
 1357W        W 5421   0.353   3.410   0.774
 1358W        W 5422   7.938   4.834   2.958
 1359W        W 5423   7.059   6.969   8.996
 1360W        W 5424   5.575   9.327   0.409
 1361W        W 5425   2.693   3.869   0.740
 1362W        W 5426   8.324   8.534  11.691
 1363W        W 5427   2.464   6.874   0.085
 1364W        W 5428   7.759   8.630   0.738
 1365W        W 5429   1.722   9.951   2.689
 1366W        W 5430   5.080   4.186  10.761
 1367W        W 5431   0.495   5.571   3.187
 1368W        W 5432   7.269   0.302   1.057
 1369W        W 5433   7.559   2.164   2.724
 1370W        W 5434   5.687   2.474   9.998
 1371W        W 5435   0.334   4.191  10.917
 1372W        W 5436   6.962   3.728   1.710
 1373W        W 5437   3.835   9.646   0.169
 1374W        W 5438   3.270   9.300   9.499
 1375W        W 5439   8.150  10.486  11.891
 1376W        W 5440   3.858   5.768   0.662
 1377W        W 5441   8.381   0.238   1.542
 1378W        W 5442   8.841   2.322   9.341
 1379W        W 5443   1.904   2.821  10.914
 1380W        W 5444   7.134   6.534   9.870
 1381W        W 5445   2.441   3.757   1.165
 1382W        W 5446   6.093   7.028   1.497
 1383W        W 5447   1.808   7.470   1.330
 1384W        W 5448   5.957   6.193  10.347
 1385W        W 5449   9.296   1.484   9.406
 1386W        W 5450   9.482   4.197   1.716
 1387W        W 5451   8.908   8.588  11.097
 1388W        W 5452   8.956   4.255   3.444
 1389W        W 5453   3.689   7.169   3.492
 1390W        W 5454   3.144   4.044   1.823
 1391W        W 5455   2.813   7.897  11.520
 1392W        W 5456   3.408   8.035   0.193
 1393W        W 5457   3.845   5.095   8.566
 1394W        W 5458   0.487   7.358   0.546
 1395W        W 5459   2.842   7.626  10.407
 1396W        W 5460   5.934   3.551  10.827
 1397W        W 5461   2.201   6.922   9.406
 1398W        W 5462   5.023   5.503   2.622
 1399W        W 5463   9.346   1.015   0.466
 1400W        W 5464   4.974   8.109  10.827
 1401W        W 5465   0.404   8.128   3.352
 1402W        W 5466   4.639   0.837   0.157
 1403W        W 5467   6.606   4.250   2.790
 1404W        W 5468   0.028   7.069   9.749
 1405W        W 5469   1.292   3.554  10.597
 1406W        W 5470   2.614   5.520   1.718
 1407W        W 5471   0.684   9.843  10.328
 1408W        W 5472   3.104   9.692   2.277
 1409W        W 5473   1.735   8.013   8.815
 1410W        W 5474   8.557   9.496  11.331
 1411W        W 5475   5.902   3.080  10.621
 1412W        W 5476   7.007  10.452   9.184
 1413W        W 5477   0.677   2.253  10.011
 1414W        W 5478   6.009   7.334   3.102
 1415W        W 5479   5.479   6.073  10.276
 1416W        W 5480   5.470   9.410  11.465
 1417W        W 5481   4.225   4.624   3.179
 1418W        W 5482   7.205   5.219   2.366
 1419W        W 5483   3.436   7.014   2.824
 1420W        W 5484   1.878   5.825   3.861
 1421W        W 5485   8.779   6.874  10.260
 1422W        W 5486   1.259   7.643  10.032
 1423W        W 5487   3.970   8.765  10.289
 1424W        W 5488   5.091  10.064   1.377
 1425W        W 5489   6.948   5.607   8.736
 1426W        W 5490   2.907  10.374   9.657
 1427W        W 5491   6.770   2.959  10.800
 1428W        W 5492   2.981  10.329   9.156
 1429W        W 5493   8.085   2.902   9.958
 1430W        W 5494   0.941   5.592   3.456
 1431W        W 5495   3.426   9.768   9.391
 1432W        W 5496   1.640   1.686   8.569
 1433W        W 5497   9.896   4.667   9.593
 1434W        W 5498   1.190   3.458   0.735
 1435W        W 5499   9.750   5.229   3.411
 1436W        W 5500   7.859   2.443  11.404
 1437W        W 5501   7.091   5.786   9.601
 1438W        W 5502   4.208   5.219   1.960
 1439W        W 5503   5.969   4.790  10.653
 1440W        W 5504   8.491   2.876   0.926
 1441W        W 5505   0.927   6.555   3.246
 1442W        W 5506   9.517   1.337  10.265
 1443W        W 5507   3.366   4.333   0.271
 1444W        W 5508   9.379   4.930   2.424
 1445W        W 5509   9.326   3.277  11.448
 1446W        W 5510   9.510   4.698  10.284
 1447W        W 5511   2.815   8.367   2.273
 1448W        W 5512   0.439   5.889   1.502
 1449W        W 5513   8.296   8.196   3.435
 1450W        W 5514   5.336   1.856   3.529
 1451W        W 5515   7.634   5.810   9.614
 1452W        W 5516   3.530   8.002  10.915
 1453W        W 5517   3.167   6.244   2.380
 1454W        W 5518   1.377   0.938  10.381
 1455W        W 5519   5.160   5.189  11.052
 1456W        W 5520   5.692   4.384  11.964
 1457W        W 5521   6.966   6.459   8.945
 1458W        W 5522   7.014   2.799  10.340
 1459W        W 5523   7.951   8.617   1.603
 1460W        W 5524   9.778   9.801  11.916
 1461W        W 5525   1.733   1.155  11.684
 1462W        W 5526  10.375   4.512   0.669
 1463W        W 5527   5.650   4.225   0.474
 1464W        W 5528   9.670   3.045   3.408
 1465W        W 5529   6.031   1.271   1.206
 1466W        W 5530   0.268   1.021   2.249
 1467W        W 5531   3.627   0.749  10.216
 1468W        W 5532   4.427  10.490   1.524
 1469W        W 5533   8.760   3.129   3.330
 1470W        W 5534   4.254   0.830   9.457
 1471W        W 5535   6.468   2.482   0.398
 1472W        W 5536   6.581   0.314  10.929
 1473W        W 5537   2.727  10.312  11.143
 1474W        W 5538   5.304   9.757   1.732
 1475W        W 5539   3.251   1.378   1.189
 1476W        W 5540   2.280   0.036  11.057
 1477W        W 5541   1.370   5.745   1.467
 1478W        W 5542   7.950   0.303  11.547
 1479W        W 5543   9.082   3.738   0.170
 1480W        W 5544   1.733   1.183   9.278
 1481W        W 5545   7.131   1.281   1.217
 1482W        W 5546   9.790   3.303   1.281
 1483W        W 5547   3.617   5.070   3.162
 1484W        W 5548   8.521   5.186   1.243
 1485W        W 5549   8.351   3.650   9.402
 1486W        W 5550   2.672   8.161  10.364
 1487W        W 5551   3.617   7.478   0.696
 1488W        W 5552   5.989   5.100   9.331
 1489W        W 5553   8.350   9.265   0.224
 1490W        W 5554   7.057   9.423   1.452
 1491W        W 5555   6.178   7.503   9.305
 1492W        W 5556   8.106   4.004   0.820
 1493W        W 5557   8.186   9.933   9.453
 1494W        W 5558   0.822   0.587   1.010
 1495W        W 5559   7.305   5.078   0.650
 1496W        W 5560  10.462   1.335  11.385
 1497W        W 5561   3.824   9.299  10.363
 1498W        W 5562   2.760   7.389   2.312
 1499W        W 5563   8.969   3.155   0.924
 1500W        W 5564   4.025   7.455  11.982
 1501W        W 5565   6.682   7.717  10.989
 1502W        W 5566   9.553   4.076   3.411
 1503W        W 5567   1.665   5.141   3.243
 1504W        W 5568   4.711   9.976   9.830
 1505W        W 5569   0.939   8.200   0.396
 1506W        W 5570   9.938   3.641   1.656
 1507W        W 5571   8.814   6.125  11.378
 1508W        W 5572   5.192   8.004   3.298
 1509W        W 5573   1.271   2.114  11.390
 1510W        W 5574   6.465   6.519   2.688
 1511W        W 5575   0.657   5.667   9.053
 1512W        W 5576   1.816   4.372   9.281
 1513W        W 5577   8.515   4.716   0.968
 1514W        W 5578   0.922   9.019  10.862
 1515W        W 5579   6.254   7.921   8.557
 1516W        W 5580   6.023   9.031   1.715
 1517W        W 5581   8.160   5.003   9.544
 1518W        W 5582   2.754   4.245   8.865
 1519W        W 5583   9.482   9.369  10.646
 1520W        W 5584   3.724   7.624   3.206
 1521W        W 5585   0.834   6.002  11.350
 1522W        W 5586   9.945   2.401   1.151
 1523W        W 5587   8.599   1.465   1.108
 1524W        W 5588   3.265   2.924   0.500
 1525W        W 5589   4.055   5.019   3.440
 1526W        W 5590   0.182   7.954   8.712
 1527W        W 5591   3.773   0.884   2.222
 1528W        W 5592  10.254   0.832  11.442
 1529W        W 5593  10.262   1.005   2.291
 1530W        W 5594   3.406   4.267   2.200
 1531W        W 5595   0.839   7.402   9.456
 1532W        W 5596   5.734   6.348  11.630
 1533W        W 5597   1.946   1.556   0.217
 1534W        W 5598   2.805   1.024   3.006
 1535W        W 5599   1.950   2.210   1.435
 1536W        W 5600   2.574   8.008   9.400
 1537W        W 5601   4.200   2.757   9.928
 1538W        W 5602   6.984   7.908   1.048
 1539W        W 5603   6.776  10.036   8.931
 1540W        W 5604   3.196   6.669   1.046
 1541W        W 5605   4.269   7.530   2.043
 1542W        W 5606   6.045   5.767   2.207
 1543W        W 5607   8.812   7.425  11.499
 1544W        W 5608   3.336   0.416   0.654
 1545W        W 5609  10.218   0.458  11.803
 1546W        W 5610   2.437  10.412  10.047
 1547W        W 5611   7.722   6.504   3.218
 1548W        W 5612   9.037   9.858   1.459
 1549W        W 5613   5.131   9.566  10.775
 1550W        W 5614   7.889   5.726  11.222
 1551W        W 5615  10.195   1.763   1.777
 1552W        W 5616   1.746   3.555   0.857
 1553W        W 5617   4.978   5.053   3.437
 1554W        W 5618   3.749   3.626   2.634
 1555W        W 5619   4.177   4.209   0.888
 1556W        W 5620   3.668   0.301  10.543
 1557W        W 5621   6.699   0.640   3.222
 1558W        W 5622   0.756   4.763   0.310
 1559W        W 5623   6.827   2.672   3.275
 1560W        W 5624   0.960   1.748   9.400
 1561W        W 5625   7.670   9.024   8.570
 1562W        W 5626   8.162   3.195   9.260
 1563W        W 5627   5.468   7.999  10.818
 1564W        W 5628   3.583   3.666  10.879
 1565W        W 5629   5.050   7.858   9.892
 1566W        W 5630   3.258   6.197   0.824
 1567W        W 5631   1.147   9.414   2.268
 1568W        W 5632   2.604   8.066   2.738
 1569W        W 5633   5.115  10.405   9.278
 1570W        W 5634   8.423   4.386   2.889
 1571W        W 5635  10.014   4.155   1.477
 1572W        W 5636   2.133   2.728   2.581
 1573W        W 5637   9.235   0.302  11.493
 1574W        W 5638   9.876   7.938  10.627
 1575W        W 5639   5.151   7.597   8.309
 1576W        W 5640   1.623   9.876   9.964
 1577W        W 5641   1.226   5.675   9.547
 1578W        W 5642   6.538   6.000  11.502
 1579W        W 5643   4.500   4.484   0.566
 1580W        W 5644   1.215   4.742   9.369
 1581W        W 5645   8.633   6.256   1.264
 1582W        W 5646   3.567   9.997   1.409
 1583W        W 5647  10.489   2.814  11.143
 1584W        W 5648   6.132   4.678   2.937
 1585W        W 5649  10.377   9.475   1.080
 1586W        W 5650   9.849   9.292  11.918
 1587W        W 5651   4.974   3.709   8.525
 1588W        W 5652   2.648   0.689   9.485
 1589W        W 5653   7.956   5.420  10.765
 1590W        W 5654   5.139   2.352   0.785
 1591W        W 5655   8.326   7.915   2.199
 1592W        W 5656   1.899   2.362  11.168
 1593W        W 5657   3.270   3.793   2.394
 1594W        W 5658   7.052   8.517   2.716
 1595W        W 5659   7.535   3.366   2.670
 1596W        W 5660   1.436   4.663   3.425
 1597W        W 5661   3.184   1.949   2.949
 1598W        W 5662   8.298  10.331   1.844
 1599W        W 5663   2.410   2.464   1.381
 1600W        W 5664   3.464   6.902   1.960
 1601W        W 5665   7.672   0.018   2.508
 1602W        W 5666   1.357   6.963   8.999
 1603W        W 5667   7.196  10.337   2.621
 1604W        W 5668   6.541   2.210   2.303
 1605W        W 5669   1.801   9.153   2.354
 1606W        W 5670   3.682   7.223  10.056
 1607W        W 5671   2.825   2.618   1.918
 1608W        W 5672   4.893   0.259   2.596
 1609W        W 5673   7.717   1.929   3.201
 1610W        W 5674   2.940   3.593   1.098
 1611W        W 5675   3.557   2.621   0.199
 1612W        W 5676   6.742   0.143   1.569
 1613W        W 5677   8.417   4.589   1.957
 1614W        W 5678   8.060   6.102   3.131
 1615W        W 5679   1.074   9.963   9.242
 1616W        W 5680   8.532   9.246  10.438
 1617W        W 5681   8.074   0.498   9.700
 1618W        W 5682   0.203  10.405   1.600
 1619W        W 5683   8.407   0.712   9.058
 1620W        W 5684   4.747   6.423   9.449
 1621W        W 5685   3.208   9.116  11.993
 1622W        W 5686  10.050   9.944   9.589
 1623W        W 5687  10.088   4.743  10.947
 1624W        W 5688   2.164   1.667  11.718
 1625W        W 5689   1.073   0.784  11.168
 1626W        W 5690   8.885   8.030   0.154
 1627W        W 5691   3.888   5.148   0.796
 1628W        W 5692   5.575   5.858   1.008
 1629W        W 5693  10.252   8.850   9.728
 1630W        W 5694   0.246   7.975   9.251
 1631W        W 5695   6.222   6.513   3.146
 1632W        W 5696   3.165   6.050   3.598
 1633W        W 5697   9.493   2.928   9.559
 1634W        W 5698   6.454   1.849   0.480
 1635W        W 5699   0.855   1.288   2.886
 1636W        W 5700   1.749   1.501   2.424
 1637W        W 5701   5.288   7.549   9.296
 1638W        W 5702   8.839   9.979  10.741
 1639W        W 5703   8.247   7.852   0.294
 1640W        W 5704   1.400   1.979   9.553
 1641W        W 5705   4.201   9.944   9.992
 1642W        W 5706   4.929   6.464   1.422
 1643W        W 5707   2.028   8.025   0.944
 1644W        W 5708   1.323   0.759   9.049
 1645W        W 5709   6.957   0.399  10.008
 1646W        W 5710   7.233   1.843   3.347
 1647W        W 5711   3.646   1.748   0.205
 1648W        W 5712   3.261   3.610   2.883
 1649W        W 5713   2.113   3.849   0.165
 1650W        W 5714   9.444   3.244   9.993
 1651W        W 5715   8.284   6.287  10.803
 1652W        W 5716   6.624   4.983   0.424
 1653W        W 5717   1.086   5.158  11.404
 1654W        W 5718   0.456   1.312  10.018
 1655W        W 5719   9.856   7.664   2.683
 1656W        W 5720   0.006   6.950   2.312
 1657W        W 5721   4.227   5.139  11.043
 1658W        W 5722   3.101   8.212  11.826
 1659W        W 5723   1.034  10.005   0.167
 1660W        W 5724   9.628   6.212   9.955
 1661W        W 5725   8.700   5.998   2.208
 1662W        W 5726   7.469   2.402   3.190
 1663W        W 5727   4.108   0.336   2.270
 1664W        W 5728   1.921   1.702  10.648
 1665W        W 5729   1.745   4.051  11.804
 1666W        W 5730   0.481   2.692  10.204
 1667W        W 5731   6.907   2.560   9.283
 1668W        W 5732   6.967   5.865   0.880
 1669W        W 5733   6.218   0.911  11.929
 1670W        W 5734   2.887   5.619   2.951
 1671W        W 5735  10.339   3.714   1.959
 1672W        W 5736   9.195   3.758  11.343
 1673W        W 5737   6.235   4.042   3.093
 1674W        W 5738   6.281  10.101   0.873
 1675W        W 5739   0.678   0.878   1.398
 1676W        W 5740   8.761   4.624   0.321
 1677W        W 5741   4.585   4.775  11.232
 1678W        W 5742   1.422   1.864  10.489
 1679W        W 5743   5.806   9.848   1.753
 1680W        W 5744   5.146   8.512  11.627
 1681W        W 5745   4.055   7.516   0.981
 1682W        W 5746   4.685   5.543   2.984
 1683W        W 5747   4.575   0.342   2.071
 1684W        W 5748   9.428   1.171   9.001
 1685W        W 5749  10.208   1.866  11.060
 1686W        W 5750   6.664   7.587   8.564
 1687W        W 5751   7.930   6.091   2.629
 1688W        W 5752   5.015   3.343   8.953
 1689W        W 5753   3.666   6.349  11.776
 1690W        W 5754   7.889   5.934  10.735
 1691W        W 5755   3.811   5.948   2.700
 1692W        W 5756   4.225   5.189  11.562
 1693W        W 5757   6.618   5.741   3.357
 1694W        W 5758   2.998   4.716   8.948
 1695W        W 5759   2.764   3.743   2.646
 1696W        W 5760   0.668   2.858   3.224
 1697W        W 5761   6.012   9.157   0.202
 1698W        W 5762   5.505   8.907   1.976
 1699W        W 5763   7.019   6.091  11.330
 1700W        W 5764   1.354   9.137  11.757
 1701W        W 5765   3.434   7.996   2.938
 1702W        W 5766   2.644   4.069   9.342
 1703W        W 5767   5.008   3.667   3.762
 1704W        W 5768   7.077   2.833  11.839
 1705W        W 5769   8.192   4.171   1.310
 1706W        W 5770   5.168   3.285  11.235
 1707W        W 5771   5.660   1.868   1.405
 1708W        W 5772   4.030   3.232   1.903
 1709W        W 5773   7.391   0.822   2.126
 1710W        W 5774   7.029   1.439  11.725
 1711W        W 5775   8.023   4.079   2.776
 1712W        W 5776   5.242   1.687   0.506
 1713W        W 5777   9.528   0.814   3.489
 1714W        W 5778   8.364   8.867   1.373
 1715W        W 5779  10.126   7.107  10.073
 1716W        W 5780   0.416   2.253  10.469
 1717W        W 5781   4.048   1.956   3.290
 1718W        W 5782   3.044   1.683   1.979
 1719W        W 5783   8.412   5.970  10.418
 1720W        W 5784   2.195   0.942   9.471
 1721W        W 5785   0.430   3.883  11.892
 1722W        W 5786  10.085   1.803   2.284
 1723W        W 5787   4.211   9.621  10.394
 1724W        W 5788   5.236   6.632   9.479
 1725W        W 5789   9.009   1.311   3.498
 1726W        W 5790   5.394   5.563   1.382
 1727W        W 5791   7.455   6.228   9.360
 1728W        W 5792   5.216   4.791   0.851
 1729W        W 5793   1.706   9.456  11.958
 1730W        W 5794   2.843   8.824   0.213
 1731W        W 5795   0.236   5.116   3.084
 1732W        W 5796   8.896   4.574   1.684
 1733W        W 5797   4.747  10.350   2.968
 1734W        W 5798   5.691   4.526  11.200
 1735W        W 5799   7.726  10.435  10.436
 1736W        W 5800   8.162   6.780  11.552
 1737W        W 5801   0.460   7.231   0.034
 1738W        W 5802   7.409   4.820   9.491
 1739W        W 5803   5.965   7.884  10.095
 1740W        W 5804   0.145   7.527  10.495
 1741W        W 5805   7.950   9.226   9.613
 1742W        W 5806   6.311   7.046  10.062
 1743W        W 5807   8.592   5.133   0.369
 1744W        W 5808   9.397   4.694   0.526
 1745W        W 5809   5.520   4.798   2.352
 1746W        W 5810   5.584   3.625  11.243
 1747W        W 5811   7.988   8.805   9.953
 1748W        W 5812   9.451   0.341   0.431
 1749W        W 5813   8.992   7.211   9.397
 1750W        W 5814   8.901   8.066   9.608
 1751W        W 5815   7.644   5.601  10.416
 1752W        W 5816   5.067   1.273   2.858
 1753W        W 5817   2.201   0.759   0.296
 1754W        W 5818   3.610   3.535   9.842
 1755W        W 5819  10.343   6.075   2.000
 1756W        W 5820   4.254   3.694   0.982
 1757W        W 5821   9.343   7.457   9.089
 1758W        W 5822   2.182   3.796   1.612
 1759W        W 5823   9.044   6.225  11.834
 1760W        W 5824   4.743   1.295   3.330
 1761W        W 5825   0.073   1.896   2.133
 1762W        W 5826   9.737   5.130  10.470
 1763W        W 5827   1.498   1.714   9.993
 1764W        W 5828   1.416   3.201   3.461
 1765W        W 5829   4.688   9.822   0.314
 1766W        W 5830  10.018   8.512   1.461
 1767W        W 5831   2.192   5.046  10.719
 1768W        W 5832   9.619   2.161   8.864
 1769W        W 5833   4.784   7.636  10.734
 1770W        W 5834   8.211   5.383  11.424
 1771W        W 5835   6.917   0.372   2.836
 1772W        W 5836   7.087   9.854   1.196
 1773W        W 5837   2.947   8.364  11.356
 1774W        W 5838   3.310   1.033   3.366
 1775W        W 5839   6.553   5.697   9.091
 1776W        W 5840   7.868   4.533   9.572
 1777W        W 5841   4.276   4.054   0.388
 1778W        W 5842   9.610   0.325   1.711
 1779W        W 5843   9.715   7.973   3.412
 1780W        W 5844   2.199   6.412   2.071
 1781W        W 5845   9.996   6.858  10.513
 1782W        W 5846   2.638   0.793   1.694
 1783W        W 5847   8.316   2.326   9.242
 1784W        W 5848  10.119   7.464  11.809
 1785W        W 5849   7.532   4.396   9.208
 1786W        W 5850   0.462   3.560   3.183
 1787W        W 5851   7.973   7.383   8.721
 1788W        W 5852   1.066   8.373   0.937
 1789W        W 5853   0.917   1.579   2.445
 1790W        W 5854   0.392   1.402   0.713
 1791W        W 5855   9.415   0.759   1.442
 1792W        W 5856   0.483   4.798  11.875
 1793W        W 5857   6.140   2.749   9.973
 1794W        W 5858   6.670   0.877   9.109
 1795W        W 5859   7.226   8.323   9.553
 1796W        W 5860   4.571   9.495  10.044
 1797W        W 5861   7.047   3.675   8.770
 1798W        W 5862   0.846   7.034   0.312
 1799W        W 5863   6.440   8.751   3.417
 1800W        W 5864   8.033  10.439   3.269
 1801W        W 5865   8.332   3.722  11.024
 1802W        W 5866  10.191   6.460   2.696
 1803W        W 5867   7.396   5.720  11.390
 1804W        W 5868   5.999   5.621  10.857
 1805W        W 5869   1.644   7.346   9.898
 1806W        W 5870   3.826   2.699   1.759
 1807W        W 5871   2.129   0.076   1.391
 1808W        W 5872   8.419   7.461   1.992
 1809W        W 5873   4.138   5.173   2.453
 1810W        W 5874   8.853   2.109  10.362
 1811W        W 5875   4.694   5.510   0.700
 1812W        W 5876   4.673   7.890   0.422
 1813W        W 5877   7.442   2.722  11.479
 1814W        W 5878   9.128   7.093  11.742
 1815W        W 5879   0.011   7.057   2.811
 1816W        W 5880   6.472   4.904   9.504
 1817W        W 5881   6.046   5.251  10.430
 1818W        W 5882   1.617   9.643  10.457
 1819W        W 5883   0.193   8.991  10.391
 1820W        W 5884   9.958   9.450   9.794
 1821W        W 5885   2.864   4.726  11.166
 1822W        W 5886   5.411   4.093  11.158
 1823W        W 5887  10.443   0.278   3.448
 1824W        W 5888   3.700   2.827   2.806
 1825W        W 5889   2.374   3.631  11.153
 1826W        W 5890   4.169   7.046   1.232
 1827W        W 5891   6.966   5.423   1.902
 1828W        W 5892   5.931   9.440   9.144
 1829W        W 5893   1.191   6.509   9.158
 1830W        W 5894   4.657   4.044   0.765
 1831W        W 5895  10.222   8.818  11.241
 1832W        W 5896   1.249   1.818   2.127
 1833W        W 5897  10.003   0.947   9.819
 1834W        W 5898   7.112   0.835   2.971
 1835W        W 5899   0.182   0.797   1.397
 1836W        W 5900   2.906   5.784   9.848
 1837W        W 5901   8.054   7.758   1.781
 1838W        W 5902   2.142   9.815   2.944
 1839W        W 5903   0.286   2.588  11.530
 1840W        W 5904   2.974   5.235  11.326
 1841W        W 5905   0.259   5.232  11.688
 1842W        W 5906   2.773   3.178   1.355
 1843W        W 5907   6.723   6.579   3.227
 1844W        W 5908   7.846   5.794   0.947
 1845W        W 5909   7.549   4.655  11.272
 1846W        W 5910   0.253   0.915  11.469
 1847W        W 5911   1.518   1.837   3.589
 1848W        W 5912   8.547   6.372   9.416
 1849W        W 5913   5.153   4.255   0.658
 1850W        W 5914   5.739  10.479   2.873
 1851W        W 5915   5.672   2.886   1.436
 1852W        W 5916   0.234  10.068  11.824
 1853W        W 5917   2.720   2.331   0.773
 1854W        W 5918   4.489   0.268  10.913
 1855W        W 5919   3.374   9.466   2.935
 1856W        W 5920   9.993   9.356  10.307
 1857W        W 5921   9.053   9.370   9.981
 1858W        W 5922   3.637   4.519  11.393
 1859W        W 5923   1.727   1.359   1.933
 1860W        W 5924   6.729   5.098   8.340
 1861W        W 5925   8.565   9.486   9.992
 1862W        W 5926   9.419   1.460   0.210
 1863W        W 5927   6.088   5.434   0.817
 1864W        W 5928   9.213   0.442   2.582
 1865W        W 5929   2.911   5.520  10.831
 1866W        W 5930   4.135   3.614  10.862
 1867W        W 5931   1.433  10.383   2.350
 1868W        W 5932   4.996   2.711  10.559
 1869W        W 5933   4.078   1.268   9.638
 1870W        W 5934   1.782   4.784  11.104
 1871W        W 5935   9.383  10.145   2.268
 1872W        W 5936   3.249   7.534   1.032
 1873W        W 5937   5.633   0.741  10.230
 1874W        W 5938   3.292   2.740   9.824
 1875W        W 5939   3.176   9.114   8.507
 1876W        W 5940   9.929   0.201  10.807
 1877W        W 5941   5.596   5.502   0.639
 1878W        W 5942   2.290   6.894  10.438
 1879W        W 5943   5.811   4.011  10.339
 1880W        W 5944   8.584  10.286  11.705
 1881W        W 5945   3.735   5.042  10.091
 1882W        W 5946   1.922   3.359   0.365
 1883W        W 5947   6.484   3.854   0.493
 1884W        W 5948   8.918   0.193  11.898
 1885W        W 5949   6.481   6.299   9.180
 1886W        W 5950   8.286   4.711   0.494
 1887W        W 5951   6.113   2.333   3.134
 1888W        W 5952   4.531   6.646  11.665
 1889W        W 5953   9.162   1.918  11.997
 1890W        W 5954   1.478   0.751  10.832
 1891W        W 5955   1.680   8.877   8.425
 1892W        W 5956   3.795   5.165   1.665
 1893W        W 5957   2.503   6.250   2.877
 1894W        W 5958  10.230   0.331   8.928
 1895W        W 5959  10.010   2.767  10.989
 1896W        W 5960   6.197   7.449   8.796
 1897W        W 5961   5.493   4.299   9.876
 1898W        W 5962   8.781   8.943  10.093
 1899W        W 5963   8.361   2.693  10.556
 1900W        W 5964   5.444   9.187   1.270
 1901W        W 5965   3.294   2.620  10.870
 1902W        W 5966   9.190   0.970   9.412
 1903W        W 5967   7.417   3.464   8.478
 1904W        W 5968   6.146   7.002   0.982
 1905W        W 5969   5.703   0.228  10.410
 1906W        W 5970   9.680   8.430   9.995
 1907W        W 5971   0.435   7.038   9.436
 1908W        W 5972   2.581   3.336   0.827
 1909W        W 5973   0.730   6.511   9.536
 1910W        W 5974   1.703   8.173   2.340
 1911W        W 5975   7.906   2.895  10.432
 1912W        W 5976   4.699   0.821   9.711
 1913W        W 5977   9.800   1.058   8.670
 1914W        W 5978   5.720   2.958  10.168
 1915W        W 5979   4.281   9.002   9.962
 1916W        W 5980   5.512   8.360   0.202
 1917W        W 5981   1.463   0.456   0.655
 1918W        W 5982   4.170   9.755   1.269
 1919W        W 5983   2.034   5.531  10.514
 1920W        W 5984   7.933   7.504   9.697
 1921W        W 5985   2.303   8.780  11.846
 1922W        W 5986   3.001   1.747   8.738
 1923W        W 5987   5.175   8.930   3.329
 1924W        W 5988   6.054   0.922  10.000
 1925W        W 5989   6.171   7.602   2.178
 1926W        W 5990   2.151   7.755   0.071
 1927W        W 5991   7.536   9.967   2.502
 1928W        W 5992   8.561   2.660   3.482
 1929W        W 5993  10.488   5.154   1.704
 1930W        W 5994   9.831   4.557   1.809
 1931W        W 5995   7.883   7.179  10.616
 1932W        W 5996   8.133   8.153   1.477
 1933W        W 5997   4.688   3.440  11.175
 1934W        W 5998   9.398   0.172   2.166
 1935W        W 5999   7.449   0.834  10.449
 1936W        W 6000   0.083   0.323   1.167
 1937W        W 6001   1.384   3.686  11.592
 1938W        W 6002   9.986   5.459   0.513
 1939W        W 6003   9.887   9.498   3.337
 1940W        W 6004   3.627   4.052  11.224
 1941W        W 6005   4.973   9.068   1.422
 1942W        W 6006   4.634   8.409  11.955
 1943W        W 6007   1.572   5.275  11.295
 1944W        W 6008   1.644   0.852   2.116
 1945W        W 6009   3.828   9.609   1.639
 1946W        W 6010   2.650   1.925   3.117
 1947W        W 6011   1.885   3.931   3.092
 1948W        W 6012   9.970   1.990   2.794
 1949W        W 6013   6.423   8.027   2.337
 1950W        W 6014   2.851   6.429  10.578
 1951W        W 6015   3.079   5.041   2.708
 1952W        W 6016   1.234   9.063  10.456
 1953W        W 6017   2.187   7.045   3.418
 1954W        W 6018   5.113   4.692   9.231
 1955W        W 6019   8.764   6.207   9.884
 1956W        W 6020   2.223   7.365   0.435
 1957W        W 6021   6.866   4.247   9.881
 1958W        W 6022   4.657   6.095  10.961
 1959W        W 6023   7.461   4.508   4.221
 1960W        W 6024   2.761   0.993  11.814
 1961W        W 6025   8.999   8.027  11.091
 1962W        W 6026   8.865   6.354   9.008
 1963W        W 6027   7.632   4.119  11.443
 1964W        W 6028   9.676   6.268   2.710
 1965W        W 6029   9.307   2.348  10.506
 1966W        W 6030   8.072   4.555   2.539
 1967W        W 6031   0.489   7.013   2.463
 1968W        W 6032  10.455   2.242  11.358
 1969W        W 6033   2.683   6.897   3.601
 1970W        W 6034   8.002   9.086   3.524
 1971W        W 6035   5.485   8.851   0.308
 1972W        W 6036   2.556   9.899  11.795
 1973W        W 6037   4.500   3.177   9.883
 1974W        W 6038   2.211  10.281   0.970
 1975W        W 6039   0.858   9.004  11.785
 1976W        W 6040   3.575  10.493   1.198
 1977W        W 6041   8.287   5.145   0.788
 1978W        W 6042   7.539   0.671   8.463
 1979W        W 6043   0.772   1.116   2.347
 1980W        W 6044   9.544   0.163   9.986
 1981W        W 6045   9.078   2.823   3.580
 1982W        W 6046   6.600   7.151  11.010
 1983W        W 6047   5.606   7.958   9.258
 1984W        W 6048   1.983   6.972   0.216
 1985W        W 6049   6.019   4.069   3.556
 1986W        W 6050   2.770  10.013   0.974
 1987W        W 6051   9.683   3.409   9.538
 1988W        W 6052   0.750   8.511   2.534
 1989W        W 6053   0.661   8.669   0.818
 1990W        W 6054   5.888   9.911   8.884
 1991W        W 6055   7.631   3.203  10.752
 1992W        W 6056   3.566   0.290   9.062
 1993W        W 6057   2.898   2.120  10.453
 1994W        W 6058   3.907   1.322   0.321
 1995W        W 6059   0.358   5.858  10.638
 1996W        W 6060   8.316   4.734  11.004
 1997W        W 6061   3.324   9.456  10.363
 1998W        W 6062   5.070   6.183   3.729
 1999W        W 6063   7.164   4.294  11.338
 2000W        W 6064   5.464   0.921   2.664
 2001W        W 6065   7.848   2.758   3.253
 2002W        W 6066   0.359   2.515   9.662
 2003W        W 6067  10.395   7.410   3.234
 2004W        W 6068   5.768   2.712   0.941
 2005W        W 6069   7.470   2.661  10.481
 2006W        W 6070   2.214   2.887   9.024
 2007W        W 6071   6.879   8.074   1.514
 2008W        W 6072   6.520   0.623   1.681
 2009W        W 6073  10.029   8.341   9.104
 2010W        W 6074   7.344   8.726   9.252
 2011W        W 6075   3.359   3.117   3.821
 2012W        W 6076   8.314   1.264   2.831
 2013W        W 6077   9.460   1.472   3.315
 2014W        W 6078   7.257   7.621   1.405
 2015W        W 6079   0.753   1.841   2.847
 2016W        W 6080   1.304   8.044   2.020
 2017W        W 6081   5.776   3.891   2.263
 2018W        W 6082   5.009   0.404   9.674
 2019W        W 6083  10.325   7.462   9.498
 2020W        W 6084   9.638  10.357   3.173
 2021W        W 6085   5.109   8.057   9.420
 2022W        W 6086   0.453   4.527  10.013
 2023W        W 6087   5.208   8.990  11.478
 2024W        W 6088   9.151   8.322  11.471
 2025W        W 6089   2.816   9.228   2.256
 2026W        W 6090   7.782   9.459   3.207
 2027W        W 6091  10.208   8.395   9.984
 2028W        W 6092   2.725   0.716   0.246
 2029W        W 6093   1.482   7.604   0.720
 2030W        W 6094   8.080   1.416  10.376
 2031W        W 6095   3.820   7.590  11.021
 2032W        W 6096   4.175   4.685   2.213
 2033W        W 6097   7.419   7.961   0.740
 2034W        W 6098   9.036   1.604  11.574
 2035W        W 6099   1.158   8.555   3.253
 2036W        W 6100   0.462   1.391  11.360
 2037W        W 6101   9.880   8.356  10.968
 2038W        W 6102   3.796   0.383   0.942
 2039W        W 6103   8.548   1.381   0.592
 2040W        W 6104   5.724   2.886   2.351
 2041W        W 6105   3.380   5.727   3.200
 2042W        W 6106   8.386   2.798   9.528
 2043W        W 6107   8.927   6.205   1.815
 2044W        W 6108   2.420   0.350   3.275
 2045W        W 6109   8.667   9.048   1.771
 2046W        W 6110   6.708   1.797   9.191
 2047W        W 6111   1.508   9.943   9.469
 2048W        W 6112   1.880   8.076  11.461
 2049W        W 6113   1.697   6.173   8.504
 2050W        W 6114   1.303   1.088   1.798
 2051W        W 6115  10.087   6.981  11.602
 2052W        W 6116   3.577   2.266   9.125
 2053W        W 6117   2.340   5.685   2.742
 2054W        W 6118   7.399   2.625   9.490
 2055W        W 6119   2.396   9.674  11.336
 2056W        W 6120   1.233   9.415  11.047
 2057W        W 6121  10.436   5.725  10.890
 2058W        W 6122   9.958   1.369  11.517
 2059W        W 6123   0.314   1.445   9.525
 2060W        W 6124  10.378   2.411   9.527
 2061W        W 6125   6.174   6.501   0.752
 2062W        W 6126   2.363   9.628  10.113
 2063W        W 6127   1.098   7.364  10.444
 2064W        W 6128   4.600   5.149   8.857
 2065W        W 6129   5.140   9.547   2.658
 2066W        W 6130   2.359   2.092   0.511
 2067W        W 6131   3.986   4.121   3.986
 2068W        W 6132   4.698   2.419   3.189
 2069W        W 6133   2.788   4.616   8.494
 2070W        W 6134   5.557   4.406   3.582
 2071W        W 6135   5.239   0.884  11.432
 2072W        W 6136   4.554   4.609   1.419
 2073W        W 6137   5.696   0.772   3.105
 2074W        W 6138   1.514   8.906   1.541
 2075W        W 6139   1.118   8.985  11.326
 2076W        W 6140   2.346   6.029   2.361
 2077W        W 6141   0.772   2.628   9.299
 2078W        W 6142   3.906   1.902  10.254
 2079W        W 6143   0.901   7.669   1.859
 2080W        W 6144   5.283   4.447  11.506
 2081W        W 6145   5.268  10.489  10.814
 2082W        W 6146   2.864   3.998   1.390
 2083W        W 6147   7.456   6.097  11.010
 2084W        W 6148   5.915   3.203   9.771
 2085W        W 6149   8.490   9.502   9.495
 2086W        W 6150   9.610  10.187  11.600
 2087W        W 6151   8.311   5.106  10.496
 2088W        W 6152   2.645   7.127   9.225
 2089W        W 6153   6.322   9.385   8.821
 2090W        W 6154   0.825   5.245   0.520
 2091W        W 6155  10.101   1.418   9.686
 2092W        W 6156   6.511   1.131   1.872
 2093W        W 6157   0.058   9.540   2.930
 2094W        W 6158   9.477   2.893  11.792
 2095W        W 6159   3.672   9.342  11.788
 2096W        W 6160   9.855   5.236   2.916
 2097W        W 6161   6.560   4.344   0.441
 2098W        W 6162   8.288  10.467  11.288
 2099W        W 6163   9.163   6.194   2.285
 2100W        W 6164   0.456   2.054   0.379
 2101W        W 6165   3.023   8.716  11.735
 2102W        W 6166   5.478   2.142   0.447
 2103W        W 6167   8.984   7.524  11.025
 2104W        W 6168   8.753   3.552  11.250
 2105W        W 6169   5.052   5.202   9.099
 2106W        W 6170   8.990   8.327  10.654
 2107W        W 6171   2.363   4.883   8.423
 2108W        W 6172   3.692   0.865   0.187
 2109W        W 6173   4.299   9.225   3.732
 2110W        W 6174   9.160   2.367   8.923
 2111W        W 6175   2.637   0.520   2.453
 2112W        W 6176   8.504   7.946  10.973
 2113W        W 6177   7.033   3.557   2.281
 2114W        W 6178   3.677  10.388   8.745
 2115W        W 6179   6.270   6.740  11.069
 2116W        W 6180   3.555   1.705   2.146
 2117W        W 6181   9.815   1.536  11.035
 2118W        W 6182   3.765   0.398   1.456
 2119W        W 6183  10.101  10.380   3.455
 2120W        W 6184   8.384   8.098   1.027
 2121W        W 6185   8.813   9.266  11.846
 2122W        W 6186   2.954   7.683   2.889
 2123W        W 6187   9.952   9.247  10.801
 2124W        W 6188   5.669   6.715   9.744
 2125W        W 6189   7.954   6.236  11.213
 2126W        W 6190   7.461   0.309   1.912
 2127W        W 6191   6.820   9.397  11.582
 2128W        W 6192   8.154   1.328   0.886
 2129W        W 6193   1.178   2.638  11.557
 2130W        W 6194   8.916   9.978   2.479
 2131W        W 6195   4.968   5.992  10.069
 2132W        W 6196   1.011   4.678   2.240
 2133W        W 6197   2.798   8.900  10.898
 2134W        W 6198   4.268   0.325   0.713
 2135W        W 6199  10.378   0.397  10.527
 2136W        W 6200   4.046   9.848   2.309
 2137W        W 6201   9.107   3.847  10.411
 2138W        W 6202   5.737   0.221   1.484
 2139W        W 6203   3.183   3.361   8.620
 2140W        W 6204   3.648   9.049   0.804
 2141W        W 6205   0.831   0.769   9.385
 2142W        W 6206   2.377   1.231   0.339
 2143W        W 6207   0.859   6.971   9.746
 2144W        W 6208   1.765   2.141   8.789
 2145W        W 6209   3.422   1.410  11.368
 2146W        W 6210   5.784   7.368   1.236
 2147W        W 6211   0.772   5.874   0.775
 2148W        W 6212   6.076   7.967   9.057
 2149W        W 6213   1.936  10.421  10.156
 2150W        W 6214   6.167   1.693   2.486
 2151W        W 6215   1.833   6.715   3.564
 2152W        W 6216   1.382   5.927  10.953
 2153W        W 6217   1.480   2.608   1.773
 2154W        W 6218   7.885   1.699   0.586
 2155W        W 6219   9.747   1.815   0.381
 2156W        W 6220   2.078   5.420   0.917
 2157W        W 6221   4.034   6.494   3.301
 2158W        W 6222   4.267   9.551   1.882
 2159W        W 6223   2.875   5.567  11.721
 2160W        W 6224   9.305   9.914   3.332
 2161W        W 6225   8.025   2.282   2.999
 2162W        W 6226   2.267   2.257   3.283
 2163W        W 6227   8.002  10.158   2.317
 2164W        W 6228   6.913  10.335  11.460
 2165W        W 6229   2.728   3.603   8.741
 2166W        W 6230   7.826   8.508  11.614
 2167W        W 6231   9.104  10.300  11.573
 2168W        W 6232   6.961   2.717   0.340
 2169W        W 6233   3.120   0.880   1.449
 2170W        W 6234   1.031   5.001   8.900
 2171W        W 6235   0.670  10.360   1.392
 2172W        W 6236   7.085   2.311   0.054
 2173W        W 6237   6.520   4.695   2.554
 2174W        W 6238   8.564   2.755  10.031
 2175W        W 6239   3.608   7.974  10.401
 2176W        W 6240   9.055   6.959   1.155
 2177W        W 6241   7.969   4.380   3.159
 2178W        W 6242   1.408   4.652  11.469
 2179W        W 6243   4.721   8.927  10.726
 2180W        W 6244   6.721   7.209  11.898
 2181W        W 6245   8.023   9.898   8.487
 2182W        W 6246   9.505   4.080   2.234
 2183W        W 6247   9.400   7.993  10.445
 2184W        W 6248   4.992   3.280  10.754
 2185W        W 6249   5.665   5.840  11.675
 2186W        W 6250   3.669   9.555   8.992
 2187W        W 6251   4.097  10.468   9.040
 2188W        W 6252   5.661   8.471   2.195
 2189W        W 6253   3.312   6.639  10.863
 2190W        W 6254   1.654   6.620   0.058
 2191W        W 6255   8.059   1.234  10.881
 2192W        W 6256   3.268   6.641  10.337
 2193W        W 6257   9.591   1.830   2.491
 2194W        W 6258   8.973   0.779   3.460
 2195W        W 6259   7.344   4.368  11.839
 2196W        W 6260   1.187   2.745  10.674
 2197W        W 6261   1.160   4.480   0.492
 2198W        W 6262   3.378   2.041   1.822
 2199W        W 6263   2.180   7.028  10.940
 2200W        W 6264   4.496   3.187   0.795
 2201W        W 6265   5.653   6.028   0.552
 2202W        W 6266   5.341   6.825   1.914
 2203W        W 6267   1.760   3.650   1.355
 2204W        W 6268   7.611   4.039   9.578
 2205W        W 6269   9.406   7.629   1.800
 2206W        W 6270   6.976   1.949  11.705
 2207W        W 6271   1.710   5.215  10.796
 2208W        W 6272   2.838   0.569   0.803
 2209W        W 6273   9.518   7.009   9.373
 2210W        W 6274   2.631   4.104   1.839
 2211W        W 6275   2.438   6.265  11.938
 2212W        W 6276   6.177   4.698   1.581
 2213W        W 6277   0.616   8.161   0.791
 2214W        W 6278   8.982   8.358   9.200
 2215W        W 6279   9.695   1.552   8.530
 2216W        W 6280   6.440   5.203   9.100
 2217W        W 6281   3.693   5.721  11.213
 2218W        W 6282   2.549   5.580  10.448
 2219W        W 6283   5.356   1.749  10.386
 2220W        W 6284   5.275   1.284   0.154
 2221W        W 6285   8.837   7.816   0.983
 2222W        W 6286   8.788   5.085  10.330
 2223W        W 6287   6.711   5.699   2.857
 2224W        W 6288   3.169   5.299   0.428
 2225W        W 6289   8.662   2.239   0.819
 2226W        W 6290   0.693   7.933  10.949
 2227W        W 6291   8.558   9.033   8.664
 2228W        W 6292   3.357   3.001   3.168
 2229W        W 6293   2.307   0.276   2.783
 2230W        W 6294   5.243   2.145   2.617
 2231W        W 6295   6.945   8.038   9.879
 2232W        W 6296   1.867   0.128   2.227
 2233W        W 6297   2.876   9.880  10.887
 2234W        W 6298   4.035   9.118  11.485
 2235W        W 6299   1.950   2.221   3.681
 2236W        W 6300   7.039   4.013   3.550
 2237W        W 6301   0.298   0.505   9.770
 2238W        W 6302   9.090   2.303   2.870
 2239W        W 6303   2.880   2.680   1.428
 2240W        W 6304   7.081   7.934   3.004
 2241W        W 6305   3.266   1.807   9.197
 2242W        W 6306   4.632   1.298   2.011
 2243W        W 6307   9.388   9.252   9.605
 2244W        W 6308   0.431   0.736   8.763
 2245W        W 6309  10.307   8.310  11.254
 2246W        W 6310   5.410   0.364   8.857
 2247W        W 6311   0.834  10.315  11.473
 2248W        W 6312   8.466   9.511   0.680
 2249W        W 6313   7.952   2.310   3.505
 2250W        W 6314   3.489   8.916  10.336
 2251W        W 6315   4.202   6.041   0.954
 2252W        W 6316   5.276  10.461   9.762
 2253W        W 6317   7.333   8.359   3.122
 2254W        W 6318   6.648   0.220   2.447
 2255W        W 6319   1.606   9.592   2.127
 2256W        W 6320   4.371   1.962  10.468
 2257W        W 6321   1.524   4.681   2.234
 2258W        W 6322   3.160   9.489   9.034
 2259W        W 6323   8.959   1.120  11.367
 2260W        W 6324   3.065   2.196  11.736
 2261W        W 6325   3.366   8.346   9.357
 2262W        W 6326   1.400   7.563   9.508
 2263W        W 6327   0.924   7.392  11.900
 2264W        W 6328   5.150   9.063   2.828
 2265W        W 6329   6.977   6.928   1.880
 2266W        W 6330   1.868   2.126  10.350
 2267W        W 6331   9.002   0.546   0.295
 2268W        W 6332   7.574   6.828   9.803
 2269W        W 6333   6.660   1.182   0.008
 2270W        W 6334   1.415   5.136  11.785
 2271W        W 6335   4.560   9.292  11.056
 2272W        W 6336   4.733   9.280   3.439
 2273W        W 6337   3.369   7.871  11.561
 2274W        W 6338   1.073  10.483  11.914
 2275W        W 6339   8.921   1.527   0.291
 2276W        W 6340   3.628   5.548   1.955
 2277W        W 6341   6.191   1.866  10.453
 2278W        W 6342   3.046   6.906   3.147
 2279W        W 6343   1.078   1.888   1.354
 2280W        W 6344   7.342   9.660  11.058
 2281W        W 6345   8.141   9.433   2.832
 2282W        W 6346   3.295   4.281   8.801
 2283W        W 6347   2.275   9.091  11.440
 2284W        W 6348   1.532   6.137   2.909
 2285W        W 6349   8.199   2.554  11.020
 2286W        W 6350   5.668   2.042  11.988
 2287W        W 6351   1.576   1.769   1.274
 2288W        W 6352   0.441   7.144  10.651
 2289W        W 6353   0.451   2.106  11.440
 2290W        W 6354   1.278   4.091   8.761
 2291W        W 6355   1.943   7.022   0.987
 2292W        W 6356   0.968   0.280   0.623
 2293W        W 6357   3.684   2.187   3.030
 2294W        W 6358   8.983   4.163   0.440
 2295W        W 6359   2.392   8.585   0.305
 2296W        W 6360   1.770   4.251  10.971
 2297W        W 6361   1.958   8.452   8.591
 2298W        W 6362   4.250   7.049   0.190
 2299W        W 6363   9.211   7.434   2.247
 2300W        W 6364   0.656   3.963   2.929
 2301W        W 6365   2.156   7.984   9.700
 2302W        W 6366   7.208   6.344   4.067
 2303W        W 6367   9.434   6.161   0.707
 2304W        W 6368   7.700   9.720   0.840
 2305W        W 6369   1.040   9.451   2.779
 2306W        W 6370   6.905   1.265   2.203
 2307W        W 6371   2.265   4.784   3.208
 2308W        W 6372   3.841   8.473   1.398
 2309W        W 6373   8.887   8.362   0.968
 2310W        W 6374   3.956   6.717   1.978
 2311W        W 6375   9.216   3.581   8.908
 2312W        W 6376   5.542   9.847   2.184
 2313W        W 6377   0.454   6.163  11.658
 2314W        W 6378   8.804   6.691   0.567
 2315W        W 6379   6.126   1.848  11.551
 2316W        W 6380  10.470   1.347   1.936
 2317W        W 6381   9.877   1.752   9.992
 2318W        W 6382   9.983   1.154  11.988
 2319W        W 6383   8.987   1.985   1.641
 2320W        W 6384   7.975   2.713   1.717
 2321W        W 6385   1.562   5.362   0.217
 2322W        W 6386   0.842   8.110  10.507
 2323W        W 6387   6.695   8.000   0.273
 2324W        W 6388   5.466   5.231   2.683
 2325W        W 6389  10.437   8.520   2.705
 2326W        W 6390   9.823   2.573   3.271
 2327W        W 6391   3.176   3.546   1.751
 2328W        W 6392   9.854   3.240  11.830
 2329W        W 6393   7.178   3.036   9.271
 2330W        W 6394   1.360   0.499   8.589
 2331W        W 6395   3.450   4.210  10.769
 2332W        W 6396   7.641   6.009   8.359
 2333W        W 6397   4.825   2.797   0.934
 2334W        W 6398   1.720   5.852   9.718
 2335W        W 6399   7.402   6.079   1.792
 2336W        W 6400   4.110   8.845   2.419
 2337W        W 6401   4.536   3.632  10.122
 2338W        W 6402   0.751   1.655   0.448
 2339W        W 6403   1.603   6.518   1.842
 2340W        W 6404   4.333   1.005  11.405
 2341W        W 6405   7.090   7.639  10.196
 2342W        W 6406   1.694   0.070   0.363
 2343W        W 6407   4.383   2.644  11.065
 2344W        W 6408   4.236   3.405  11.425
 2345W        W 6409   3.543   1.710   0.872
 2346W        W 6410   6.453   0.214   1.986
 2347W        W 6411   5.059   4.053   8.137
 2348W        W 6412   3.217   4.689  10.049
 2349W        W 6413   1.458   0.772  11.872
 2350W        W 6414   8.976   8.463  10.137
 2351W        W 6415   8.967   7.892   1.477
 2352W        W 6416   2.913   0.264   0.407
 2353W        W 6417   9.964   8.779  11.930
 2354W        W 6418   2.210   6.040  10.994
 2355W        W 6419   3.626   2.598   0.746
 2356W        W 6420  10.149   8.733  10.736
 2357W        W 6421   1.875   7.431  11.168
 2358W        W 6422   0.229   0.247   8.847
 2359W        W 6423   7.468   7.553  11.421
 2360W        W 6424   8.531   6.543  11.789
 2361W        W 6425   9.619   6.645   0.897
 2362W        W 6426   7.245   3.198   1.012
 2363W        W 6427   7.681   9.118   9.079
 2364W        W 6428   8.926   7.819  10.602
 2365W        W 6429   3.363   6.973   8.552
 2366W        W 6430   6.708   1.671  10.261
 2367W        W 6431   3.284   7.883   0.663
 2368W        W 6432   4.563   9.851   3.168
 2369W        W 6433   9.680  10.200   9.803
 2370W        W 6434   9.867   5.437  11.524
 2371W        W 6435   7.936  10.197   0.870
 2372W        W 6436   6.638   8.762   2.968
 2373W        W 6437   0.428   1.448   2.641
 2374W        W 6438   0.142   6.761  10.877
 2375W        W 6439   7.428   5.532   1.715
 2376W        W 6440   6.699   1.668   9.737
 2377W        W 6441   6.434   5.794   1.611
 2378W        W 6442   3.387   9.761  11.632
 2379W        W 6443   4.762   1.240  11.865
 2380W        W 6444   1.193   6.054   3.296
 2381W        W 6445   6.281   3.658   0.929
 2382W        W 6446   8.142   3.075  10.845
 2383W        W 6447   7.157   5.490   2.787
 2384W        W 6448   5.667  10.262   2.428
 2385W        W 6449   1.385   6.547  10.187
 2386W        W 6450   8.063   7.572  10.335
 2387W        W 6451   8.020   2.261   2.482
 2388W        W 6452   7.056   3.352  11.584
 2389W        W 6453   2.750   8.788  10.055
 2390W        W 6454  10.081   0.146   1.601
 2391W        W 6455   1.858   6.439   3.150
 2392W        W 6456   1.648   9.239  10.767
 2393W        W 6457   2.709   4.479   0.044
 2394W        W 6458   4.483   6.604   2.679
 2395W        W 6459   1.394   7.222   1.507
 2396W        W 6460   2.225   6.010  10.450
 2397W        W 6461   7.440   4.531   1.307
 2398W        W 6462   4.694   9.357   0.073
 2399W        W 6463   8.742   5.127   3.222
 2400W        W 6464   9.833   6.974   0.576
 2401W        W 6465   4.854   5.010   1.203
 2402W        W 6466   3.141   6.376   8.356
 2403W        W 6467   2.588   3.860  11.937
 2404W        W 6468   7.556   7.553   1.902
 2405W        W 6469   6.948   0.862   1.898
 2406W        W 6470   9.479   1.499   0.738
 2407W        W 6471   7.497   5.480   1.194
 2408W        W 6472   5.031   9.644   2.166
 2409W        W 6473   1.997   2.834   9.486
 2410W        W 6474   6.908   5.617  11.524
 2411W        W 6475   9.818   5.609   0.038
 2412W        W 6476   4.257   8.357   9.208
 2413W        W 6477   2.385   2.297   2.785
 2414W        W 6478   6.986   4.192   0.184
 2415W        W 6479   0.392   7.500   3.365
 2416W        W 6480   7.009   9.857  11.760
 2417W        W 6481   5.107   5.403  11.495
 2418W        W 6482   3.816   6.474   9.631
 2419W        W 6483   2.945   9.893   9.456
 2420W        W 6484   7.937   3.326  11.628
 2421W        W 6485   3.536   4.321   9.509
 2422W        W 6486   0.799   1.129   0.954
 2423W        W 6487   6.958   5.856   4.159
 2424W        W 6488   3.782   9.891   8.622
 2425W        W 6489   4.211   7.944   0.670
 2426W        W 6490   9.068   2.369   0.553
 2427W        W 6491   8.449   2.836   1.559
 2428W        W 6492   9.397   4.557   2.077
 2429W        W 6493   8.176   1.023   1.848
 2430W        W 6494   2.947   9.246   3.149
 2431W        W 6495   5.002   0.380   3.072
 2432W        W 6496   8.568   8.083   1.790
 2433W        W 6497   8.113   6.600   9.532
 2434W        W 6498   5.222   4.634  10.508
 2435W        W 6499   6.045  10.130   9.399
 2436W        W 6500   8.329   1.713   0.278
 2437W        W 6501   1.955   7.379   1.827
 2438W        W 6502   3.267   9.402   0.579
 2439W        W 6503   3.918   0.991   3.509
 2440W        W 6504   9.875   1.289   9.229
 2441W        W 6505   5.904   4.078  11.375
 2442W        W 6506   7.970   5.650   1.843
 2443W        W 6507   7.458   8.156   2.662
 2444W        W 6508  10.300   8.023   2.687
 2445W        W 6509  10.162   6.722   0.872
 2446W        W 6510   5.738  10.284  10.664
 2447W        W 6511   5.661   0.732  11.700
 2448W        W 6512   4.201  10.332  10.838
 2449W        W 6513   3.716   6.933   2.409
 2450W        W 6514   7.021   9.931   3.657
 2451W        W 6515   3.256   3.820  11.494
 2452W        W 6516   1.197   5.656  11.353
 2453W        W 6517   2.101   3.166   0.787
 2454W        W 6518  10.490   7.028  10.417
 2455W        W 6519   4.011   2.261   9.887
 2456W        W 6520   5.907   2.661   9.532
 2457W        W 6521   3.578   6.573  11.327
 2458W        W 6522   4.731   3.199   9.387
 2459W        W 6523   3.851   2.384   2.593
 2460W        W 6524   6.441   6.698   3.755
 2461W        W 6525   0.181   6.600   2.631
 2462W        W 6526   8.649   6.675   3.473
 2463W        W 6527   4.568   8.030   9.488
 2464W        W 6528   3.660   1.361  11.839
 2465W        W 6529   5.717   8.001   8.697
 2466W        W 6530   0.780   4.997   1.235
 2467W        W 6531   0.979   3.299  10.920
 2468W        W 6532   6.561   4.365   1.400
 2469W        W 6533   6.998   2.011  10.974
 2470W        W 6534   7.609   6.659  10.333
 2471W        W 6535   4.112   9.635   9.248
 2472W        W 6536   5.061   7.711   1.590
 2473W        W 6537   1.045   8.955   3.544
 2474W        W 6538   4.089   3.095   1.068
 2475W        W 6539   1.252   1.478   3.251
 2476W        W 6540   3.852   9.848   9.635
 2477W        W 6541   3.288   1.343   1.692
 2478W        W 6542   8.465  10.258   0.259
 2479W        W 6543   3.257   8.935   2.871
 2480W        W 6544   8.040   8.275   1.989
 2481W        W 6545   0.718   8.990  10.389
 2482W        W 6546   7.332   2.875   3.411
 2483W        W 6547   9.235  10.314   0.567
 2484W        W 6548   5.965   0.359   1.912
 2485W        W 6549   7.181   4.179   1.577
 2486W        W 6550   6.147   9.108   3.199
 2487W        W 6551   8.649   3.579   8.983
 2488W        W 6552  10.471   5.314   0.378
 2489W        W 6553   8.962   2.485   1.528
 2490W        W 6554   6.487   1.928   8.712
 2491W        W 6555   6.173   7.814   3.178
 2492W        W 6556   9.988   9.206   0.833
 2493W        W 6557  10.437   7.988  10.248
 2494W        W 6558   7.985   7.306   0.829
 2495W        W 6559   3.324   9.998   8.927
 2496W        W 6560   5.970   9.123   9.538
 2497W        W 6561   8.833   0.418   3.080
 2498W        W 6562   4.326   7.030   8.406
 2499W        W 6563   1.190   8.512   2.279
 2500W        W 6564   8.631   7.041  11.785
 2501W        W 6565   5.252   8.691   1.159
 2502W        W 6566   3.662   3.816   3.114
 2503W        W 6567   6.038   1.226   1.712
 2504W        W 6568  10.480   5.607   3.150
 2505W        W 6569   3.279   0.258   2.120
 2506W        W 6570  10.400   5.756   0.694
 2507W        W 6571   9.334   2.689   3.181
 2508W        W 6572  10.074   3.039   0.364
 2509W        W 6573   1.684   7.049   3.223
 2510W        W 6574   3.632   6.750   0.698
 2511W        W 6575   8.178   7.069   9.712
 2512W        W 6576   4.201   7.046   2.319
 2513W        W 6577   5.607   8.954   9.186
 2514W        W 6578   9.297   3.295   1.426
 2515W        W 6579   8.800   7.138   2.185
 2516W        W 6580   3.525   7.522   0.022
 2517W        W 6581   2.785   6.450   1.366
 2518W        W 6582   3.054   3.121   0.918
 2519W        W 6583   8.595   3.309   0.618
 2520W        W 6584   7.464   1.371   9.180
 2521W        W 6585   0.483   9.415  10.581
 2522W        W 6586   7.379   6.723   1.521
 2523W        W 6587   5.372   3.879   4.322
 2524W        W 6588   1.298   9.423   1.766
 2525W        W 6589   8.026   3.789   9.800
 2526W        W 6590   8.163   7.104   9.157
 2527W        W 6591   1.254   0.476   9.471
 2528W        W 6592   5.580   3.179   1.015
 2529W        W 6593   1.699   2.190   0.958
 2530W        W 6594   8.449   0.223   3.467
 2531W        W 6595   2.865   8.350   1.236
 2532W        W 6596   5.438   9.875   8.587
 2533W        W 6597   0.776   6.119  10.370
 2534W        W 6598   6.689   0.134   3.318
 2535W        W 6599   2.314   6.255   1.254
 2536W        W 6600   8.452   2.175   3.299
 2537W        W 6601   2.273   0.424  10.739
 2538W        W 6602   3.134   2.778   2.790
 2539W        W 6603   0.356   0.199   2.006
 2540W        W 6604   7.547   7.662   9.976
 2541W        W 6605   7.013   8.380   9.090
 2542W        W 6606   7.328   9.569   3.443
 2543W        W 6607   2.368   0.807  10.424
 2544W        W 6608   4.673   8.371   1.910
 2545W        W 6609   5.550   8.118  11.755
 2546W        W 6610   0.187   3.616  11.509
 2547W        W 6611   8.871   9.127  11.095
 2548W        W 6612  10.394   6.515  10.512
 2549W        W 6613   0.331   2.811   8.829
 2550W        W 6614   0.029   1.651   9.891
 2551W        W 6615   1.434  10.036  11.224
 2552W        W 6616   4.483   5.144   1.525
 2553W        W 6617   6.114   2.542   2.147
 2554W        W 6618   3.257   0.907  11.925
 2555W        W 6619   2.149   6.639   9.851
 2556W        W 6620   8.064   4.126   1.800
 2557W        W 6621   8.002   8.108   2.566
 2558W        W 6622   7.032   8.571  10.521
 2559W        W 6623   7.621   2.301   1.682
 2560W        W 6624   9.304   4.040   2.704
 2561W        W 6625  10.022   4.235   0.957
 2562W        W 6626   7.468   9.459   0.427
 2563W        W 6627   9.041   0.770   0.806
 2564W        W 6628   3.070   5.655  10.350
 2565W        W 6629   6.465   5.426   8.646
 2566W        W 6630   5.680   3.024  11.946
 2567W        W 6631   4.281   0.798   1.402
 2568W        W 6632   2.762   9.280  11.274
 2569W        W 6633   3.617   2.710  11.275
 2570W        W 6634   7.188   9.359   0.926
 2571W        W 6635   5.706   1.877   9.982
 2572W        W 6636   3.679   2.132   0.541
 2573W        W 6637  -0.001   5.194   9.072
 2574W        W 6638   4.667   9.814  11.269
 2575W        W 6639  10.105   4.980   1.960
 2576W        W 6640   7.464   9.320   1.762
 2577W        W 6641   4.287   7.596  10.794
 2578W        W 6642   3.177   4.598  11.885
 2579W        W 6643  10.221   4.971  10.508
 2580W        W 6644   5.600   5.531  11.230
 2581W        W 6645   0.505   4.683   2.946
 2582W        W 6646   8.119   3.887   0.315
 2583W        W 6647   2.427   8.513   2.562
 2584W        W 6648   1.317   4.193   9.280
 2585W        W 6649   7.960   0.798  11.368
 2586W        W 6650   3.375   0.861   1.897
 2587W        W 6651   5.659   5.002   0.695
 2588W        W 6652   1.981   1.630   1.568
 2589W        W 6653   4.055   5.755   9.189
 2590W        W 6654   6.576   8.452   1.283
 2591W        W 6655   3.669   6.673   8.859
 2592W        W 6656   1.812   1.064   0.162
 2593W        W 6657   5.149   7.348   3.056
 2594W        W 6658   6.137   8.664   2.900
 2595W        W 6659   1.388   5.875   0.255
 2596W        W 6660   3.059   6.529  11.354
 2597W        W 6661   0.837   9.315   8.990
 2598W        W 6662   3.104   9.947  10.270
 2599W        W 6663   2.511   7.200   1.910
 2600W        W 6664   0.395   7.761  10.114
 2601W        W 6665   7.265   3.650   0.763
 2602W        W 6666   2.916   1.730   1.448
 2603W        W 6667   1.938   3.126   3.202
 2604W        W 6668   3.726   1.869  10.753
 2605W        W 6669   9.351   2.851  10.410
 2606W        W 6670   0.872   1.388   1.432
 2607W        W 6671   1.299   3.488   2.024
 2608W        W 6672   3.040   8.807   2.420
 2609W        W 6673  10.279   9.872  10.319
 2610W        W 6674   3.793  10.434  11.698
 2611W        W 6675   1.403   5.198   9.189
 2612W        W 6676   1.321   8.303   0.061
 2613W        W 6677   6.081   4.806  10.141
 2614W        W 6678   1.425   2.370   3.512
 2615W        W 6679   3.557   5.012   3.677
 2616W        W 6680   3.979   5.722   0.169
 2617W        W 6681   6.698   3.629  10.515
 2618W        W 6682   8.488   1.865   9.861
 2619W        W 6683   2.718   6.721   2.751
 2620W        W 6684   4.234   9.870   0.728
 2621W        W 6685   8.185   6.509   1.310
 2622W        W 6686   8.939   0.090   9.523
 2623W        W 6687   5.075   9.432  10.254
 2624W        W 6688   6.520  10.310  11.107
 2625W        W 6689   7.236   7.285  11.793
 2626W        W 6690   6.595   1.247  11.015
 2627W        W 6691   2.009   1.845  11.230
 2628W        W 6692   9.573   5.517  10.771
 2629W        W 6693   0.510   4.620   2.349
 2630W        W 6694   9.411   4.738   1.567
 2631W        W 6695   8.474   4.273   8.995
 2632W        W 6696   8.288   8.812  10.399
 2633W        W 6697   6.745   8.458   9.630
 2634W        W 6698   6.474   8.112   9.389
 2635W        W 6699   2.257   3.399  11.981
 2636W        W 6700   6.449   7.928   9.901
 2637W        W 6701   0.746   5.397   2.758
 2638W        W 6702   2.785   0.735   8.593
 2639W        W 6703   8.607   0.478  10.817
 2640W        W 6704   7.502   6.225  11.500
 2641W        W 6705   1.981   0.812  10.905
 2642W        W 6706   6.076   9.973   3.332
 2643W        W 6707   8.948  10.435   2.197
 2644W        W 6708   6.423   5.511  11.659
 2645W        W 6709   7.049   4.423   9.416
 2646W        W 6710   8.619   5.905   0.463
 2647W        W 6711   5.806   9.918   0.887
 2648W        W 6712   2.110   3.899   2.637
 2649W        W 6713   7.385   2.254  11.231
 2650W        W 6714   5.642   7.836   1.890
 2651W        W 6715  10.257   0.808   8.622
 2652W        W 6716   1.455   8.456   8.665
 2653W        W 6717   9.835   3.872   0.651
 2654W        W 6718   0.867   2.226  11.721
 2655W        W 6719   9.711   0.242  11.708
 2656W        W 6720   2.114   0.842   3.375
 2657W        W 6721   4.822   6.859   1.893
 2658W        W 6722   0.263  10.384   0.295
 2659W        W 6723   1.613   0.752   9.962
 2660W        W 6724   9.238   2.718   0.201
 2661W        W 6725   8.898   0.676   2.164
 2662W        W 6726   4.382   6.541   8.194
 2663W        W 6727   4.024   2.893   9.046
 2664W        W 6728   8.573   3.348  10.761
 2665W        W 6729   9.949   3.518  10.534
 2666W        W 6730   8.907   4.530   9.157
 2667W        W 6731   0.524   9.060   1.641
 2668W        W 6732   5.159   0.406   0.209
 2669W        W 6733   8.285   8.047   8.634
 2670W        W 6734   4.444   1.657   3.594
 2671W        W 6735   7.703   0.326   9.400
 2672W        W 6736   8.858   4.629   3.105
 2673W        W 6737   3.818   5.366  11.858
 2674W        W 6738   2.871   2.140   1.752
 2675W        W 6739   7.528  10.482   9.022
 2676W        W 6740   2.518  10.169   9.355
 2677W        W 6741   7.798   5.306   0.788
 2678W        W 6742   6.564   7.718  11.857
 2679W        W 6743   3.091   4.291   9.268
 2680W        W 6744   4.789   7.335   0.382
 2681W        W 6745   7.928   8.051  11.792
 2682W        W 6746   3.800   3.313  10.552
 2683W        W 6747   2.192   5.709   9.052
 2684W        W 6748   0.006   6.106  11.881
 2685W        W 6749  10.211   0.293   2.520
 2686W        W 6750   3.211   9.111   9.961
 2687W        W 6751   9.443   4.750   1.037
 2688W        W 6752   5.994   1.283   2.236
 2689W        W 6753   8.671   6.716   8.636
 2690W        W 6754   2.851   2.876  10.808
 2691W        W 6755   5.089   8.122  11.945
 2692W        W 6756   9.313   2.870   0.667
 2693W        W 6757   1.376   4.184   1.448
 2694W        W 6758   7.341   9.497  10.236
 2695W        W 6759   4.082   0.588  10.369
 2696W        W 6760   4.255   1.914   8.899
 2697W        W 6761   8.966   5.494   2.916
 2698W        W 6762   4.507   2.841  10.587
 2699W        W 6763   2.816   4.566   1.997
 2700W        W 6764   7.656   8.512  11.141
 2701W        W 6765  10.271   2.316   1.963
 2702W        W 6766  10.250  10.424   0.339
 2703W        W 6767  10.163   2.668  11.502
 2704W        W 6768   7.882   2.247   8.967
 2705W        W 6769   8.093   0.923  11.884
 2706W        W 6770   4.073   5.100   2.943
 2707W        W 6771   3.312   4.646   8.438
 2708W        W 6772   8.494  10.223  10.437
 2709W        W 6773   8.142   5.672   9.795
 2710W        W 6774   3.232   3.930   3.414
 2711W        W 6775   9.496   6.244   1.221
 2712W        W 6776   5.008   1.254   9.709
 2713W        W 6777   2.961   8.317   3.232
 2714W        W 6778   0.440   9.986  11.349
 2715W        W 6779   0.714   4.811   9.260
 2716W        W 6780   1.778   4.733   2.980
 2717W        W 6781   8.347  10.135   3.559
 2718W        W 6782   2.443   8.228  11.293
 2719W        W 6783   7.170  10.434   1.718
 2720W        W 6784   2.862   1.853  10.986
 2721W        W 6785   1.161   5.116   0.914
 2722W        W 6786   6.382   5.282  10.817
 2723W        W 6787   5.681   6.546   2.239
 2724W        W 6788   4.543   1.476  10.431
 2725W        W 6789   2.407   1.267   2.632
 2726W        W 6790   4.146   7.409   9.921
 2727W        W 6791   5.453   1.300   8.908
 2728W        W 6792   3.723   5.998   2.207
 2729W        W 6793   6.124   0.823   2.011
 2730W        W 6794   0.268   6.354   9.741
 2731W        W 6795   6.254   8.494  11.459
 2732W        W 6796  10.304   8.977   1.193
 2733W        W 6797   4.105   2.637   3.577
 2734W        W 6798   7.656   1.157  10.074
 2735W        W 6799  10.191   2.626   0.683
 2736W        W 6800   3.656   6.513   1.183
 2737W        W 6801   6.244   6.949   2.848
 2738W        W 6802   9.016   1.294   0.784
 2739W        W 6803   9.055   7.973   1.967
 2740W        W 6804   2.803   8.999   1.711
 2741W        W 6805   2.644   1.480  11.791
 2742W        W 6806   0.310   9.453   1.973
 2743W        W 6807   1.326   6.848   0.421
 2744W        W 6808   4.790   2.097   3.608
 2745W        W 6809  10.224   3.037   1.211
 2746W        W 6810   5.524   3.799   9.964
 2747W        W 6811   7.808   4.195  10.036
 2748W        W 6812   4.876   1.677  11.471
 2749W        W 6813   6.473  10.337   0.407
 2750W        W 6814   2.535   1.877   0.983
 2751W        W 6815   7.004   7.883   8.869
 2752W        W 6816   0.305  10.229  10.937
 2753W        W 6817  10.450   6.107   9.350
 2754W        W 6818   3.799   7.938  11.865
 2755W        W 6819   1.211   0.883   0.816
 2756W        W 6820   5.263   1.316   3.456
 2757W        W 6821   2.282   5.238   1.391
 2758W        W 6822   2.725   4.993   1.336
 2759W        W 6823   0.781   9.593   9.414
 2760W        W 6824   3.342   4.457   4.296
 2761W        W 6825   4.050   9.308  10.963
 2762W        W 6826   3.037   7.121  10.873
 2763W        W 6827   0.977   2.121   3.552
 2764W        W 6828   9.626   5.093   9.568
 2765W        W 6829   8.607   3.799   0.398
 2766W        W 6830   0.404  10.462   9.247
 2767W        W 6831   4.526   5.695  10.062
 2768W        W 6832   3.174  10.486   8.717
 2769W        W 6833   7.096   8.810   3.212
 2770W        W 6834   7.881   2.801   9.499
 2771W        W 6835   9.319   9.088  11.718
 2772W        W 6836   5.598   0.898   9.723
 2773W        W 6837   8.254   4.190  11.773
 2774W        W 6838   8.821   5.511   9.144
 2775W        W 6839   5.087   3.415   4.213
 2776W        W 6840   4.400   4.299  11.344
 2777W        W 6841   9.499   5.933  11.791
 2778W        W 6842   2.744   4.379   9.767
 2779W        W 6843   2.186   6.037   3.226
 2780W        W 6844   5.152   1.077   1.413
 2781W        W 6845   7.763  10.438   9.862
 2782W        W 6846   4.700   2.191   8.852
 2783W        W 6847   0.409   0.002   9.771
 2784W        W 6848   8.469   0.778   2.786
 2785W        W 6849   6.562   7.452  11.427
 2786W        W 6850   4.380   8.773  11.647
 2787W        W 6851   3.769   9.968   0.947
 2788W        W 6852   8.398   2.656   2.025
 2789W        W 6853   9.561   8.632   1.636
 2790W        W 6854   2.082   9.397  10.513
 2791W        W 6855   0.062   4.519   2.627
 2792W        W 6856   8.396   4.681   3.304
 2793W        W 6857   8.532   9.715   8.513
 2794W        W 6858   2.661   7.842  10.854
 2795W        W 6859   4.426   2.000   1.009
 2796W        W 6860   6.063   7.674   2.698
 2797W        W 6861   1.703   6.349   9.847
 2798W        W 6862   7.974   0.326   1.104
 2799W        W 6863   1.826   0.460   1.223
 2800W        W 6864   8.046   1.450   9.872
 2801W        W 6865   7.434   2.660   9.988
 2802W        W 6866   8.851   4.016   2.464
 2803W        W 6867   3.122   0.248   3.173
 2804W        W 6868   9.973   5.649  11.060
 2805W        W 6869   2.892   5.656   3.446
 2806W        W 6870   8.788   4.220   9.986
 2807W        W 6871   9.887   7.054  11.134
 2808W        W 6872   8.382   5.858   2.669
 2809W        W 6873   8.358   3.534   2.343
 2810W        W 6874   4.590   2.754   9.593
 2811W        W 6875   4.509   6.150   9.845
 2812W        W 6876   0.414   9.810   0.755
 2813W        W 6877   0.508   4.644  11.046
 2814W        W 6878   1.726   4.622   1.490
 2815W        W 6879   5.282   8.420   9.881
 2816W        W 6880   5.488   4.631   1.723
 2817W        W 6881   0.979   4.476   8.987
 2818W        W 6882   2.845   8.648   8.852
 2819W        W 6883   0.972   0.983  10.715
 2820W        W 6884   0.342   7.501   9.667
 2821W        W 6885   4.750   4.636   2.971
 2822W        W 6886   5.123   5.899   1.815
 2823W        W 6887   8.419   4.244  10.333
 2824W        W 6888   6.973   9.413   1.955
 2825W        W 6889   2.269   6.467   3.499
 2826W        W 6890   5.255   1.391  11.175
 2827W        W 6891   7.410   4.193   0.481
 2828W        W 6892   0.335   8.819   2.637
 2829W        W 6893   2.456   0.254   1.030
 2830W        W 6894   7.871   1.356   2.595
 2831W        W 6895   8.211   5.995   2.197
 2832W        W 6896  10.197   8.856  10.248
 2833W        W 6897   1.391   8.819  10.893
 2834W        W 6898   4.266   1.252  10.967
 2835W        W 6899   1.887   8.477   1.177
 2836W        W 6900   3.920   8.806   9.504
 2837W        W 6901   5.222   2.369   3.680
 2838W        W 6902   0.812   9.031   1.149
 2839W        W 6903   7.396   1.841   1.820
 2840W        W 6904   7.668   9.545   8.756
 2841W        W 6905   5.872   0.334   8.582
 2842W        W 6906   8.043   3.816  11.469
 2843W        W 6907   1.314   4.463  10.952
 2844W        W 6908   0.423   4.972   0.691
 2845W        W 6909   8.908   5.789   0.065
 2846W        W 6910   6.983   1.350   8.978
 2847W        W 6911   7.823   9.850  11.138
 2848W        W 6912   6.852   8.499   0.411
 2849W        W 6913   5.157   0.825   9.965
 2850W        W 6914   5.597   5.017  10.336
 2851W        W 6915   3.622   8.576   9.968
 2852W        W 6916   8.779  10.385   1.692
 2853W        W 6917   2.570   3.563   0.340
 2854W        W 6918   8.447   1.439   9.559
 2855W        W 6919   5.034   5.700  10.916
 2856W        W 6920   8.582   9.127   1.007
 2857W        W 6921   3.345   2.641  11.704
 2858W        W 6922   0.163   7.417   2.339
 2859W        W 6923   5.693   2.162  10.414
 2860W        W 6924   5.893   6.052   9.035
 2861W        W 6925   9.467   6.625   9.716
 2862W        W 6926   1.159   4.711   9.944
 2863W        W 6927   9.346   2.278   2.424
 2864W        W 6928   4.690   4.622   8.901
 2865W        W 6929   4.201   2.781   2.676
 2866W        W 6930   3.106   5.319   1.415
 2867W        W 6931   0.898   7.116   2.181
 2868W        W 6932   8.413   0.262   0.253
 2869W        W 6933   1.744   1.223  10.743
 2870W        W 6934  10.419   8.123   0.525
 2871W        W 6935   7.198  10.009   9.735
 2872W        W 6936   3.562   2.856  10.530
 2873W        W 6937   4.083   4.602   4.198
 2874W        W 6938   3.938  10.326  10.344
 2875W        W 6939   0.419   9.967   9.374
 2876W        W 6940   6.079  10.440   2.177
 2877W        W 6941   6.515   8.620  10.593
 2878W        W 6942   2.448   0.563   8.986
 2879W        W 6943   5.629   5.969   1.979
 2880W        W 6944   7.569   4.033   1.908
 2881W        W 6945   9.468   8.574  11.827
 2882W        W 6946   1.891   0.335   9.825
 2883W        W 6947   8.898   7.503   1.821
 2884W        W 6948   7.537   4.193   3.369
 2885W        W 6949   3.215   7.875   9.059
 2886W        W 6950   3.709   8.709   0.404
 2887W        W 6951   1.295   2.377   8.680
 2888W        W 6952   1.239   2.418   0.927
 2889W        W 6953   3.748   9.061   9.909
 2890W        W 6954   0.375   3.253   0.295
 2891W        W 6955   4.365   2.624  11.724
 2892W        W 6956   0.234   7.452   9.161
 2893W        W 6957   8.498   7.540  10.601
 2894W        W 6958   5.276   6.186   2.270
 2895W        W 6959  10.411   0.495   0.713
 2896W        W 6960   1.336   1.209   9.961
 2897W        W 6961   7.008   5.692   8.243
 2898W        W 6962   4.206   8.277  11.705
 2899W        W 6963  10.358   5.400   2.176
 2900W        W 6964   4.493   6.516   9.013
 2901W        W 6965   4.227   4.890   9.098
 2902W        W 6966   1.395   8.465   1.309
 2903W        W 6967   3.457   5.358  11.507
 2904W        W 6968   3.240   3.334  10.461
 2905W        W 6969   3.650   4.037   9.921
 2906W        W 6970   1.784   9.842   1.702
 2907W        W 6971   4.037   2.095   9.385
 2908W        W 6972   9.330   7.514  10.119
 2909W        W 6973   7.540   0.554   3.570
 2910W        W 6974   2.026   9.613   2.410
 2911W        W 6975   0.620   5.390   0.960
 2912W        W 6976   0.404   3.313   8.982
 2913W        W 6977   6.577   5.988   8.284
 2914W        W 6978   2.429   1.684  10.782
 2915W        W 6979   9.226   7.532   0.765
 2916W        W 6980   8.958   1.205  11.889
 2917W        W 6981   6.049   4.613   9.554
 2918W        W 6982   3.107   5.661   9.398
 2919W        W 6983   6.731   6.420   0.412
 2920W        W 6984   0.019   0.754   9.069
 2921W        W 6985   5.507   1.808   3.018
 2922W        W 6986   3.766   5.464   9.789
 2923W        W 6987   6.995   9.402   9.495
 2924W        W 6988   5.659   7.512   8.501
 2925W        W 6989   8.435   9.384   1.448
 2926W        W 6990   2.136   8.874  10.551
 2927W        W 6991   1.704   9.378   1.457
 2928W        W 6992   9.966   5.654   3.181
 2929W        W 6993   0.864   9.358   3.261
 2930W        W 6994   6.496   4.229   3.732
 2931W        W 6995   6.516   8.922  11.010
 2932W        W 6996   6.776   3.619   0.851
 2933W        W 6997   1.748   3.564  11.939
 2934W        W 6998   1.516   8.042   1.020
 2935W        W 6999   0.757   5.703   1.902
 2936W        W 7000   1.658   1.815   2.828
 2937W        W 7001   7.242   6.710   9.398
 2938W        W 7002   2.161   5.694  11.382
 2939W        W 7003   4.776   9.957  10.788
 2940W        W 7004   7.821   5.098  10.365
 2941W        W 7005   9.758   5.023   0.439
 2942W        W 7006   3.419   8.818   9.552
 2943W        W 7007  10.406   8.847  11.721
 2944W        W 7008   6.418   5.622   9.934
 2945W        W 7009   1.162   4.027   2.846
 2946W        W 7010   9.517   9.117   1.880
 2947W        W 7011   1.866  10.234   9.244
 2948W        W 7012   8.361   4.659  11.948
 2949W        W 7013   4.064  10.465   0.143
 2950W        W 7014   2.563   1.598   1.815
 2951W        W 7015   0.353   9.086   9.897
 2952W        W 7016   8.493   1.219   0.090
 2953W        W 7017   5.063  10.384   0.910
 2954W        W 7018   7.442   0.352   9.837
 2955W        W 7019   6.048   9.572   2.995
 2956W        W 7020   8.779   4.529  11.010
 2957W        W 7021   8.517   4.703  10.047
 2958W        W 7022   0.975   2.617   0.054
 2959W        W 7023   6.696   2.412   1.307
 2960W        W 7024   3.840   2.217   0.056
 2961W        W 7025   7.046   4.700   2.398
 2962W        W 7026   6.006   6.136  10.855
 2963W        W 7027   2.446   3.136   3.364
 2964W        W 7028   6.668   7.281   9.099
 2965W        W 7029  10.259   8.781   0.708
 2966W        W 7030   4.153   0.024  11.311
 2967W        W 7031   2.644  10.417   0.692
 2968W        W 7032   7.917   6.368   8.599
 2969W        W 7033   2.696   9.008   2.740
 2970W        W 7034   0.691   2.163   9.505
 2971W        W 7035   5.990   3.740   1.813
 2972W        W 7036   2.145   2.883  10.419
 2973W        W 7037   7.649   5.995   7.846
 2974W        W 7038  10.473   3.899   3.254
 2975W        W 7039   1.355   1.200  11.041
 2976W        W 7040   2.631   8.402  11.771
 2977W        W 7041   2.924   4.167   2.314
 2978W        W 7042   1.359   7.099   2.385
 2979W        W 7043   9.356   4.235   9.076
 2980W        W 7044   8.999   7.117   8.606
 2981W        W 7045   9.935   5.728   0.939
 2982W        W 7046   7.595   6.818   2.391
 2983W        W 7047   7.082   5.262   7.963
 2984W        W 7048   4.090   3.666   9.343
 2985W        W 7049   2.178   7.951   2.976
 2986W        W 7050   8.562   0.232   8.864
 2987W        W 7051   0.302   8.442   2.259
 2988W        W 7052   9.612   8.078  11.431
 2989W        W 7053   2.821   9.532  10.321
 2990W        W 7054   3.848   2.676  11.772
 2991W        W 7055   8.860   7.350   2.659
 2992W        W 7056   2.372   2.531   0.199
 2993W        W 7057   8.326   8.728   3.247
 2994W        W 7058   1.784   3.334  10.507
 2995W        W 7059  10.375   0.590  10.995
 2996W        W 7060   1.122   0.687  10.000
 2997W        W 7061   9.437   1.306  11.321
 2998W        W 7062   9.520   6.121   9.463
 2999W        W 7063   6.126   4.217   1.711
 3000W        W 7064   5.378   7.129   8.231
 3001W        W 7065   5.584   9.356   2.849
 3002W        W 7066   0.901   8.155   1.703
 3003W        W 7067   4.630   7.528   0.819
 3004W        W 7068   4.132   3.799  10.378
 3005W        W 7069   0.279   0.739   0.447
 3006W        W 7070   3.672   7.468   1.394
 3007W        W 7071   3.939   5.285   8.088
 3008W        W 7072   1.227   8.541   1.782
 3009W        W 7073   4.744   2.250   1.734
 3010W        W 7074   6.526   2.208  10.969
 3011W        W 7075   8.947   8.216   2.447
 3012W        W 7076   9.059   3.749   3.373
 3013W        W 7077  10.407   3.812   9.341
 3014W        W 7078   6.608   8.184   0.778
 3015W        W 7079   8.865   9.472   0.304
 3016W        W 7080   5.655   8.419   9.011
 3017W        W 7081   2.226   3.734   9.291
 3018W        W 7082   9.117   6.526  10.071
 3019W        W 7083   3.359   3.168   9.590
 3020W        W 7084   5.226   1.772   9.340
 3021W        W 7085   3.993   8.028  10.768
 3022W        W 7086   6.986   4.316  10.797
 3023W        W 7087   0.890   7.997   3.401
 3024W        W 7088   8.330   9.731  10.389
 3025W        W 7089   5.005   7.108  10.434
 3026W        W 7090   0.970   0.923   0.014
 3027W        W 7091   0.893  10.414   9.074
 3028W        W 7092   7.794   4.020   8.978
 3029W        W 7093   3.716   5.430   3.952
 3030W        W 7094   6.530   2.641  11.394
 3031W        W 7095   9.077   7.636   3.616
 3032W        W 7096   6.922   1.769   0.206
 3033W        W 7097   1.244   3.964  10.918
 3034W        W 7098   4.036   2.994   8.517
 3035W        W 7099  10.380   9.732   1.931
 3036W        W 7100   3.040   2.628   0.100
 3037W        W 7101   0.425   0.933   3.520
 3038W        W 7102   0.052   2.624   2.803
 3039W        W 7103   7.596   2.231   2.194
 3040W        W 7104   1.197   8.084   3.013
 3041W        W 7105   9.442   7.325  11.123
 3042W        W 7106   1.906   4.387   3.321
 3043W        W 7107   3.183   1.665   2.494
 3044W        W 7108   4.400   2.015  11.403
 3045W        W 7109   4.526   1.264   8.913
 3046W        W 7110   2.194   0.666   0.905
 3047W        W 7111   9.972   5.847  10.076
 3048W        W 7112   9.364   3.781   9.347
 3049W        W 7113   3.462   4.288   3.122
 3050W        W 7114   6.664   1.141   3.151
 3051W        W 7115   9.394   2.053   9.317
 3052W        W 7116   5.651   0.326   0.476
 3053W        W 7117   8.394   7.342   0.361
 3054W        W 7118   3.668   4.540   3.897
 3055W        W 7119   0.825   6.186   1.767
 3056W        W 7120   0.149   5.596   8.767
 3057W        W 7121   9.024   6.219   0.381
 3058W        W 7122   8.727   3.531  10.235
 3059W        W 7123   8.575   6.949  11.254
 3060W        W 7124   9.869   6.614  11.936
 3061W        W 7125   3.798   4.633   2.907
 3062W        W 7126   4.971   9.035   0.364
 3063W        W 7127   6.709  10.032   9.879
 3064W        W 7128   6.216   5.884   8.669
 3065W        W 7129   8.896   7.410   1.315
 3066W        W 7130   5.556   7.947   0.793
 3067W        W 7131   5.302   3.102  10.398
 3068W        W 7132   5.939   1.390   0.714
 3069W        W 7133   5.782   3.639   0.944
 3070W        W 7134   1.397   6.350   0.432
 3071W        W 7135   3.627   3.107  11.566
 3072W        W 7136   0.566   6.390   2.893
 3073W        W 7137   4.614   6.999   0.925
 3074W        W 7138   0.823   6.912  11.800
 3075W        W 7139   9.432   3.787   0.937
 3076W        W 7140   7.544   1.148   2.934
 3077W        W 7141   7.030   2.136   1.015
 3078W        W 7142   8.895   4.031  10.992
 3079W        W 7143   3.521   7.575   8.740
 3080W        W 7144   3.267   0.761   9.299
 3081W        W 7145   3.687   4.161   1.077
 3082W        W 7146  10.379   7.452   1.738
 3083W        W 7147   6.056   9.943   1.317
 3084W        W 7148  10.406  10.344   9.095
 3085W        W 7149   8.616   8.091   0.585
 3086W        W 7150   7.585   7.574   1.015
 3087W        W 7151   5.215   7.437   8.800
 3088W        W 7152   2.202   1.400   2.158
 3089W        W 7153   6.514   4.085  10.748
 3090W        W 7154   9.932   8.407  10.430
 3091W        W 7155   1.640   4.256   2.764
 3092W        W 7156   2.384   8.151   1.907
 3093W        W 7157   8.368   3.134  11.816
 3094W        W 7158   6.732  10.231  11.950
 3095W        W 7159   9.913   3.515  10.024
 3096W        W 7160   5.255   4.522   1.269
 3097W        W 7161   2.985   1.779   3.480
 3098W        W 7162   0.849   4.283   8.531
 3099W        W 7163   7.144   8.040   3.529
 3100W        W 7164   6.824   8.347   3.192
 3101W        W 7165   5.551   6.375  10.711
 3102W        W 7166   2.152   8.905   3.199
 3103W        W 7167   6.073   8.514   1.365
 3104W        W 7168   1.858   4.532  11.971
 3105W        W 7169   9.971   0.393   9.731
 3106W        W 7170   6.089   8.165   2.813
 3107W        W 7171   3.867   5.903   4.101
 3108W        W 7172   5.028   5.151   9.605
 3109W        W 7173   6.998   9.015  10.781
 3110W        W 7174   8.924   1.711  10.066
 3111W        W 7175   7.334   0.967   1.575
 3112W        W 7176   9.870   4.845   9.099
 3113W        W 7177   2.787   2.785   3.189
 3114W        W 7178   7.885   2.438  10.013
 3115W        W 7179   4.709   1.081  10.704
 3116W        W 7180   7.149   5.714  10.532
 3117W        W 7181   2.725   3.245   2.477
 3118W        W 7182   6.001   5.249   9.877
 3119W        W 7183   1.366   6.588   2.527
 3120W        W 7184   7.831   5.234   3.256
 3121W        W 7185   9.744   1.718   9.479
 3122W        W 7186   6.527   3.152  11.220
 3123W        W 7187   7.039   0.943   3.465
 3124W        W 7188   5.979   0.026   0.240
 3125W        W 7189   7.407   8.529   0.385
 3126W        W 7190   8.452   4.802   8.937
 3127W        W 7191   8.608   5.740   1.264
 3128W        W 7192   8.831   6.548   2.472
 3129W        W 7193   7.441   2.633   2.476
 3130W        W 7194   3.706   5.054  11.125
 3131W        W 7195   3.004   9.382  10.796
 3132W        W 7196   4.035   0.440   9.233
 3133W        W 7197   4.014   1.858   2.316
 3134W        W 7198   8.156   0.518   1.950
 3135W        W 7199   8.140   5.556  10.299
 3136W        W 7200   3.763  10.374   3.217
 3137W        W 7201   5.137   9.022   9.438
 3138W        W 7202   0.188   3.097  11.530
 3139W        W 7203   8.825   5.069  10.886
 3140W        W 7204   0.892   9.997   0.661
 3141W        W 7205   5.452   5.132   3.198
 3142W        W 7206   7.901   0.763   9.180
 3143W        W 7207   9.565   1.221   9.761
 3144W        W 7208   2.290   4.345   9.080
 3145W        W 7209   9.304   8.053  11.863
 3146W        W 7210   5.103   9.966   3.087
 3147W        W 7211   5.577   5.352  10.744
 3148W        W 7212   2.252   6.573   2.546
 3149W        W 7213   5.693   2.142  11.487
 3150W        W 7214   5.917   1.402   9.109
 3151W        W 7215   7.706   5.170   8.449
 3152W        W 7216   9.777   0.304   3.406
 3153W        W 7217   0.430   4.250   8.799
 3154W        W 7218  10.402   2.337  10.378
 3155W        W 7219   4.811   6.919   2.993
 3156W        W 7220   9.433   1.018  10.890
 3157W        W 7221   9.911   9.402   1.989
 3158W        W 7222   3.658   2.636   8.749
 3159W        W 7223   7.912   6.851   8.776
 3160W        W 7224   4.665   5.268  11.294
 3161W        W 7225   1.877   7.556  11.663
 3162W        W 7226   4.602   7.296   3.299
 3163W        W 7227   6.228   6.402  11.881
 3164W        W 7228   8.538   5.513   2.146
 3165W        W 7229   0.801   0.325  11.330
 3166W        W 7230   5.179   2.309  11.510
 3167W        W 7231   4.992   8.449   3.507
 3168W        W 7232   2.640   0.798   9.995
 3169W        W 7233   8.788   7.712   2.303
 3170W        W 7234   1.035   1.903   9.908
 3171W        W 7235   8.396  10.353   9.187
 3172W        W 7236   6.061   3.762   2.689
 3173W        W 7237   9.788  10.029   2.600
 3174W        W 7238   7.433   9.818   2.992
 3175W        W 7239   6.889   5.228  10.734
 3176W        W 7240   9.474   3.710   3.054
 3177W        W 7241   4.180   7.259  10.412
 3178W        W 7242   8.531   7.905  10.247
 3179W        W 7243   9.269   1.062   3.126
 3180W        W 7244   1.349   2.746   9.973
 3181W        W 7245   2.178   3.982  10.824
 3182W        W 7246   2.213   5.438   0.343
 3183W        W 7247   4.749   2.741   1.484
 3184W        W 7248   6.178   5.590   9.489
 3185W        W 7249   6.919   0.229  11.771
 3186W        W 7250   0.651   6.372   8.545
 3187W        W 7251   1.838   3.367   9.310
 3188W        W 7252   5.131   6.106   9.593
 3189W        W 7253   6.412   5.114  11.319
 3190W        W 7254   2.332   5.554  10.909
 3191W        W 7255   8.689   5.526  10.578
 3192W        W 7256   0.732   7.440  11.022
 3193W        W 7257   4.534   1.748   0.555
 3194W        W 7258   1.937   2.759   1.580
 3195W        W 7259   0.739   5.123   3.197
 3196W        W 7260   8.588   7.572  11.946
 3197W        W 7261   9.868   1.208   3.458
 3198W        W 7262   2.427   9.096   0.288
 3199W        W 7263   6.053   6.538   8.999
 3200W        W 7264   4.703   2.446  11.389
 3201W        W 7265   2.326   9.142  10.952
 3202W        W 7266   9.072   0.252  10.982
 3203W        W 7267   1.047   1.254   0.509
 3204W        W 7268   7.210   6.158   8.092
 3205W        W 7269   0.582   0.430   3.353
 3206W        W 7270   9.081   8.383   1.543
 3207W        W 7271   6.954   6.034   3.627
 3208W        W 7272   8.317   7.118  10.238
 3209W        W 7273   1.426   3.539  11.113
 3210W        W 7274   3.720   3.591  11.443
 3211W        W 7275   8.075   1.864   9.556
 3212W        W 7276   1.220   2.369   2.258
 3213W        W 7277   5.235   2.401   1.624
 3214W        W 7278   1.213   1.961   2.615
 3215W        W 7279   8.909   9.789   9.718
 3216W        W 7280   9.846  10.484   2.376
 3217W        W 7281   3.422   9.896   0.526
 3218W        W 7282   4.531   5.552  10.877
 3219W        W 7283   3.799   4.363   0.569
 3220W        W 7284   5.309   2.851   0.709
 3221W        W 7285   7.904   7.926   8.942
 3222W        W 7286   0.182   6.443   0.218
 3223W        W 7287   5.223   6.715  10.935
 3224W        W 7288   3.501   5.447   4.413
 3225W        W 7289   7.839   4.410   0.999
 3226W        W 7290   4.767   5.561   3.478
 3227W        W 7291   9.846   3.583   2.171
 3228W        W 7292   8.011   1.315  11.381
 3229W        W 7293   2.188   5.232   2.497
 3230W        W 7294   5.790   0.349   0.963
 3231W        W 7295   0.252   9.072   3.089
 3232W        W 7296   0.886   8.275   9.277
 3233W        W 7297   3.846   8.291   2.826
 3234W        W 7298   2.752  10.480   2.717
 3235W        W 7299   8.633   5.030   1.749
 3236W        W 7300   3.577   3.063   0.959
 3237W        W 7301  10.048   0.760   2.674
 3238W        W 7302   6.158   4.364  10.481
 3239W        W 7303   8.474   4.091   3.292
 3240W        W 7304   0.006  10.339   8.590
 3241W        W 7305   7.359   3.528   9.469
 3242W        W 7306   9.285   8.110   1.139
 3243W        W 7307   5.534   5.221   8.918
 3244W        W 7308   4.174   8.525  10.713
 3245W        W 7309   1.946   0.220   0.790
 3246W        W 7310   0.997   0.800   2.683
 3247W        W 7311   2.698   0.215   8.714
 3248W        W 7312   8.409   9.028   9.759
 3249W        W 7313   9.923   7.555   0.280
 3250W        W 7314  10.327   9.331  11.737
 3251W        W 7315   0.258   4.730   9.032
 3252W        W 7316   3.778   9.443   1.142
 3253W        W 7317   4.678  10.328  11.120
 3254W        W 7318   2.698   6.000   1.058
 3255W        W 7319   2.424   0.365   0.528
 3256W        W 7320   9.341   0.856  10.394
 3257W        W 7321   5.974   9.531  11.484
 3258W        W 7322   0.728   1.470  10.790
 3259W        W 7323   6.897   7.198  10.388
 3260W        W 7324   6.175   7.501   9.822
 3261W        W 7325  10.063   1.784   0.801
 3262W        W 7326   6.237   3.943   9.244
 3263W        W 7327   8.522   6.659   9.851
 3264W        W 7328   2.139   0.546   2.366
 3265W        W 7329   4.132   8.446   3.305
 3266W        W 7330   4.173   5.601   3.754
 3267W        W 7331   1.315   3.251   9.267
 3268W        W 7332   8.898   3.152   2.830
 3269W        W 7333   9.172   2.274  11.300
 3270W        W 7334   8.932   5.406   1.497
 3271W        W 7335   6.194   4.482  11.027
 3272W        W 7336   0.435   3.253  10.806
 3273W        W 7337   5.599   6.240   3.826
 3274W        W 7338   1.694   8.896   2.829
 3275W        W 7339   8.000   5.616   2.909
 3276W        W 7340   5.663   1.204  11.444
 3277W        W 7341   2.894   5.487   2.463
 3278W        W 7342   0.497  10.249   2.445
 3279W        W 7343   1.915   8.393   9.100
 3280W        W 7344   3.101   6.142  10.985
 3281W        W 7345   3.254   5.310   9.764
 3282W        W 7346   7.820   3.646   1.633
 3283W        W 7347   6.781  10.089   0.800
 3284W        W 7348   1.162   0.505  10.525
 3285W        W 7349   0.229  10.096  10.061
 3286W        W 7350   1.000  10.347   2.693
 3287W        W 7351   3.312   8.938  10.807
 3288W        W 7352   8.100   8.949   8.870
 3289W        W 7353  10.353   8.351  11.766
 3290W        W 7354   2.171   2.751  11.394
 3291W        W 7355   6.393   0.893   1.243
 3292W        W 7356   0.750   9.481   1.392
 3293W        W 7357   6.607   8.213   8.816
 3294W        W 7358   7.532   8.681   9.760
 3295W        W 7359   6.243  10.111   0.015
 3296W        W 7360   9.542   1.943   0.972
 3297W        W 7361   0.859   6.525   1.381
 3298W        W 7362  10.365   2.415  10.872
 3299W        W 7363   6.936  10.378   2.183
 3300W        W 7364   1.895   2.373   1.924
 3301W        W 7365   1.957   4.610   9.925
 3302W        W 7366   5.168   9.452   3.181
 3303W        W 7367   5.508   0.874   3.573
 3304W        W 7368   8.930   3.234   9.853
 3305W        W 7369  10.189   4.906   0.214
 3306W        W 7370   3.878   7.788   2.736
 3307W        W 7371   3.843   8.235   0.442
 3308W        W 7372   8.684   9.942   9.288
 3309W        W 7373   4.612   6.867   1.420
 3310W        W 7374   3.798   5.952  10.522
 3311W        W 7375   9.278   4.434  11.016
 3312W        W 7376   8.390   7.549   9.929
 3313W        W 7377   9.868   4.610   1.286
 3314W        W 7378   9.386   7.631   1.254
 3315W        W 7379   3.163   4.010   0.875
 3316W        W 7380   2.898   4.388   0.532
 3317W        W 7381   0.485   2.838  11.119
 3318W        W 7382   8.811   2.586  11.578
 3319W        W 7383   8.171   6.016   0.200
 3320W        W 7384   3.411   0.274  11.686
 3321W        W 7385   6.465   7.963   1.248
 3322W        W 7386   0.794   3.510   1.544
 3323W        W 7387   9.500   6.648  11.168
 3324W        W 7388   6.485   5.684   0.643
 3325W        W 7389   7.459   9.808   0.015
 3326W        W 7390   4.286   0.863   2.058
 3327W        W 7391   3.677   2.293  11.023
 3328W        W 7392   7.801   4.829   0.637
 3329W        W 7393  10.392   1.384   0.808
 3330W        W 7394   4.595   3.185   1.285
 3331W        W 7395   8.026   0.798   8.663
 3332W        W 7396   2.100   1.780   3.453
 3333W        W 7397   5.985   4.045  10.859
 3334W        W 7398   4.103   8.434   8.717
 3335W        W 7399   8.774   4.284  11.892
 3336W        W 7400   6.013   5.109   8.772
 3337W        W 7401   1.518   9.470   2.620
 3338W        W 7402   2.181   8.932   2.679
 3339W        W 7403   8.057   8.381  10.231
 3340W        W 7404   1.108   0.584   3.421
 3341W        W 7405   7.312   4.005  10.000
 3342W        W 7406   1.763   2.137   3.211
 3343W        W 7407   0.913   5.295   9.290
 3344W        W 7408   8.138   5.054   1.587
 3345W        W 7409   2.482   9.896   3.318
 3346W        W 7410   5.445   4.828  11.825
 3347W        W 7411  10.313   9.805   3.346
 3348W        W 7412  10.465   6.128   1.504
 3349W        W 7413   4.269   7.508   2.539
 3350W        W 7414   6.606   9.751   2.131
 3351W        W 7415  10.404   1.421  11.894
 3352W        W 7416   8.960   7.015   1.655
 3353W        W 7417   0.225   9.427   1.464
 3354W        W 7418   7.865   3.559   2.160
 3355W        W 7419   2.969   5.125  11.989
 3356W        W 7420   5.504   6.565   8.902
 3357W        W 7421   6.058   2.241   8.771
 3358W        W 7422   3.846   7.140   8.649
 3359W        W 7423   3.824   8.907  10.750
 3360W        W 7424   8.123   8.972   0.877
 3361W        W 7425   5.209   2.661  10.102
 3362W        W 7426   0.982   9.484  10.577
 3363W        W 7427   3.143   1.369  11.793
 3364W        W 7428   7.497   5.563   8.129
 3365W        W 7429   6.732  10.456  10.156
 3366W        W 7430   6.714   5.101   2.286
 3367W        W 7431   0.317   0.256   2.497
 3368W        W 7432   6.888   9.420  11.055
 3369W        W 7433   5.983   8.954   2.220
 3370W        W 7434  10.099   4.275   9.328
 3371W        W 7435   9.178   6.393   2.817
 3372W        W 7436   7.166   1.863  10.464
 3373W        W 7437   5.945   5.120  11.033
 3374W        W 7438   2.681   5.515   1.217
 3375W        W 7439   6.933   2.514  11.036
 3376W        W 7440   9.545   1.149   1.772
 3377W        W 7441   1.767   0.331  10.853
 3378W        W 7442   4.955  10.074  11.594
 3379W        W 7443   6.467   3.103   9.818
 3380W        W 7444   1.186   3.958   0.573
 3381W        W 7445   0.454   6.245   1.120
 3382W        W 7446   5.146   5.737   0.749
 3383W        W 7447   2.587   8.641  10.505
 3384W        W 7448   9.549   9.584   2.971
 3385W        W 7449   1.320   7.040  11.939
 3386W        W 7450   2.268   8.056   8.735
 3387W        W 7451   6.450   8.840   1.981
 3388W        W 7452   9.363   8.675   0.561
 3389W        W 7453  10.312   5.018   2.801
 3390W        W 7454   4.717   7.766   3.165
 3391W        W 7455   7.561   8.080  11.428
 3392W        W 7456   4.715   7.053  11.958
 3393W        W 7457   3.349   2.168   0.126
 3394W        W 7458   4.655   9.420   2.460
 3395W        W 7459   4.982   9.063   0.905
 3396W        W 7460   1.124  10.493   1.849
 3397W        W 7461   6.316   9.303  11.797
 3398W        W 7462   4.525   0.876   8.139
 3399W        W 7463   8.102   6.730  11.043
 3400W        W 7464  10.371   2.347   3.533
 3401W        W 7465   8.764   8.110   8.790
 3402W        W 7466   4.670   3.639  10.620
 3403W        W 7467   7.217   4.736   9.011
 3404W        W 7468   4.141   8.138   1.142
 3405W        W 7469   3.526   5.598   1.457
 3406W        W 7470   8.501   2.219   2.782
 3407W        W 7471  10.382   1.780   3.422
 3408W        W 7472   6.525   6.124  10.431
 3409W        W 7473   8.953   2.320   3.367
 3410W        W 7474   4.248   4.915   0.487
 3411W        W 7475   5.058   7.586  11.540
 3412W        W 7476   8.864   0.628  11.264
 3413W        W 7477   5.140   0.489   3.548
 3414W        W 7478   2.050   8.877   9.316
 3415W        W 7479   5.565   1.411   2.545
 3416W        W 7480   5.042   4.307   1.680
 3417W        W 7481   7.094  10.453   3.606
 3418W        W 7482   9.407   4.534  11.648
 3419W        W 7483   4.608   1.507   1.020
 3420W        W 7484   6.595  10.369  10.622
 3421W        W 7485   6.487   3.528   9.500
 3422W        W 7486   6.096   5.112   0.406
 3423W        W 7487   2.873   1.254   3.483
 3424W        W 7488   4.459   8.610  10.299
 3425W        W 7489   3.489   1.867   3.389
 3426W        W 7490   5.747   5.568   3.216
 3427W        W 7491   7.035   7.379  11.175
 3428W        W 7492   7.395   3.390   0.275
 3429W        W 7493   3.672   5.980   1.135
 3430W        W 7494   6.334   6.395   8.594
 3431W        W 7495   5.379   1.733   2.161
 3432W        W 7496   4.750   2.200   2.260
 3433W        W 7497   1.070   7.889   0.767
 3434W        W 7498   7.233   8.333   2.233
 3435W        W 7499   5.960   5.613   1.742
 3436W        W 7500   7.995   0.956   3.294
 3437W        W 7501   5.435   4.308   8.969
 3438W        W 7502   7.714   6.368   1.384
 3439W        W 7503   6.061   6.018   3.250
 3440W        W 7504  10.189   3.177  11.450
 3441W        W 7505   9.897   7.054   1.317
 3442W        W 7506   8.038   6.691  10.036
 3443W        W 7507   9.823   1.869  11.416
 3444W        W 7508   6.399   5.123  11.982
 3445W        W 7509   9.415   5.429  11.767
 3446W        W 7510   4.038   0.440   2.788
 3447W        W 7511  10.301   4.422   0.187
 3448W        W 7512   1.795   2.129   9.294
 3449W        W 7513   0.268   0.407  11.721
 3450W        W 7514   1.310   1.378   1.003
 3451W        W 7515  10.333   5.218  10.919
 3452W        W 7516   4.371   2.591   1.141
 3453W        W 7517   1.758   8.409  10.028
 3454W        W 7518   4.804   4.510   0.979
 3455W        W 7519   1.259   6.755  11.531
 3456W        W 7520   3.276   7.367   3.166
 3457W        W 7521   1.244   1.394  10.554
 3458W        W 7522   1.412  10.381  10.821
 3459W        W 7523   0.421   3.769   0.397
 3460W        W 7524   3.808   7.983   8.575
 3461W        W 7525   2.518   1.223  11.380
 3462W        W 7526   5.126   4.597   2.109
 3463W        W 7527   2.861   9.350   0.284
 3464W        W 7528   3.921   1.881  11.237
 3465W        W 7529   9.345   4.659   8.763
 3466W        W 7530   2.856   8.460   9.358
 3467W        W 7531  10.269   5.194   1.244
 3468W        W 7532   6.081   0.931  11.446
 3469W        W 7533  10.367   7.717  10.861
 3470W        W 7534   3.207   0.342  10.281
 3471W        W 7535   4.728   0.470   0.506
 3472W        W 7536   6.912   5.684  10.086
 3473W        W 7537   7.199   9.031  11.706
 3474W        W 7538   6.499   7.806   1.742
 3475W        W 7539   1.594   9.444   9.642
 3476W        W 7540   4.286   6.063   2.431
 3477W        W 7541   8.502   6.941   2.583
 3478W        W 7542   5.191   0.343   0.712
 3479W        W 7543   8.516   0.402   9.944
 3480W        W 7544   1.438   7.238  11.438
 3481W        W 7545   9.947   6.990   9.055
 3482W        W 7546   7.112   7.360   8.665
 3483W        W 7547   4.122   9.364   8.794
 3484W        W 7548   2.585   6.655   1.829
 3485W        W 7549   6.193   2.313  11.776
 3486W        W 7550   5.013   3.349   1.788
 3487W        W 7551   9.325   6.615   0.483
 3488W        W 7552   8.863   2.831   1.922
 3489W        W 7553  10.241   7.413   8.985
 3490W        W 7554   4.891   6.374   8.236
 3491W        W 7555   9.772   5.738   2.724
 3492W        W 7556   7.916   1.449   3.133
 3493W        W 7557   5.539   6.097   8.662
 3494W        W 7558   0.247   8.094   9.760
 3495W        W 7559   1.005   2.693   1.889
 3496W        W 7560   8.413   8.594   1.818
 3497W        W 7561   6.841   6.416   8.426
 3498W        W 7562   1.065   2.615   1.378
 3499W        W 7563   7.421   0.009  11.389
 3500W        W 7564   9.564   2.022  10.819
 3501W        W 7565   8.358   5.206   9.989
 3502W        W 7566   2.075   7.349  10.535
 3503W        W 7567   0.254   2.745  10.665
 3504W        W 7568   5.737   3.868   0.091
 3505W        W 7569   2.817   7.859   0.453
 3506W        W 7570   7.479   0.498   8.974
 3507W        W 7571   3.263   1.483   3.148
 3508W        W 7572   2.403   0.621  11.830
 3509W        W 7573   4.694   6.378  10.264
 3510W        W 7574   2.135  10.376   1.877
 3511W        W 7575   3.352   5.046   8.765
 3512W        W 7576   9.122   8.355   2.929
 3513W        W 7577   8.466   7.435   9.438
 3514W        W 7578   4.259   0.793   8.941
 3515W        W 7579  10.451   9.773   9.324
 3516W        W 7580   1.361   8.916   9.951
 3517W        W 7581   7.399   3.548   1.920
 3518W        W 7582   1.672   5.732   9.219
 3519W        W 7583   5.636   2.209   0.921
 3520W        W 7584   6.838   9.117   0.614
 3521W        W 7585   6.060   7.491   0.796
 3522W        W 7586   4.195   2.225   0.448
 3523W        W 7587   5.151   5.148  10.558
 3524W        W 7588   9.670  10.390   1.402
 3525W        W 7589   4.053   1.231   9.110
 3526W        W 7590   0.497   1.785   9.170
 3527W        W 7591   2.990   7.362   8.898
 3528W        W 7592   1.473   7.584   1.856
 3529W        W 7593   6.408   4.006   8.139
 3530W        W 7594   7.689   5.867   1.440
 3531W        W 7595   6.889   2.180   0.518
 3532W        W 7596   8.423   4.650   1.457
 3533W        W 7597   9.007   3.637   0.675
 3534W        W 7598   3.288   6.983  11.294
 3535W        W 7599   7.404   7.062  11.327
 3536W        W 7600   5.537   1.253   2.045
 3537W        W 7601  10.397   8.757   2.259
 3538W        W 7602  10.254   1.518  10.701
 3539W        W 7603   0.327   8.874   1.187
 3540W        W 7604   2.890   1.157   1.980
 3541W        W 7605   2.656   3.597   1.629
 3542W        W 7606   3.151   5.767   1.133
 3543W        W 7607   8.447   8.415   0.232
 3544W        W 7608   0.347   0.508  11.184
 3545W        W 7609   9.826   3.726   2.671
 3546W        W 7610   2.357   8.632  10.975
 3547W        W 7611   0.339   6.759  11.686
 3548W        W 7612  10.410   7.050   1.403
 3549W        W 7613   4.107   6.128   3.675
 3550W        W 7614   3.785  10.338   2.692
 3551W        W 7615  10.053  10.446  11.511
 3552W        W 7616   6.038   9.131   2.693
 3553W        W 7617   0.025   9.925   0.370
 3554W        W 7618   8.575   1.895  11.198
 3555W        W 7619   9.102   6.487   0.948
 3556W        W 7620  10.462   5.680  10.123
 3557W        W 7621   4.522   6.431   0.694
 3558W        W 7622   8.120   4.881  11.468
 3559W        W 7623   9.544   5.023  11.473
 3560W        W 7624   9.471   3.574   0.459
 3561W        W 7625   7.650   6.056   3.471
 3562W        W 7626  10.378   1.162   9.350
 3563W        W 7627  10.473   4.779  11.786
 3564W        W 7628   5.299   9.487   3.682
 3565W        W 7629   8.329   9.830   3.122
 3566W        W 7630   5.046   9.524   9.760
 3567W        W 7631   4.695   8.387   2.587
 3568W        W 7632   5.845   4.033   9.594
 3569W        W 7633   6.471   6.226   3.526
 3570W        W 7634   8.773   8.649   2.707
 3571W        W 7635   1.695   6.522  11.549
 3572W        W 7636   5.508   7.824   1.325
 3573W        W 7637   8.853  10.352   3.517
 3574W        W 7638   0.894   3.186   1.939
 3575W        W 7639   2.827  10.292   3.192
 3576W        W 7640  10.331   9.065   2.787
 3577W        W 7641   4.241   3.173   0.359
 3578W        W 7642   5.442   9.897  11.533
 3579W        W 7643   9.799   0.480   8.694
 3580W        W 7644   6.891   0.092   0.264
 3581W        W 7645   3.735   4.617   3.401
 3582W        W 7646   8.568   6.894   9.388
 3583W        W 7647   7.566   6.097   8.864
 3584W        W 7648   8.846   0.071   0.402
 3585W        W 7649   4.437   5.954   3.317
 3586W        W 7650   2.069   5.212  11.197
 3587W        W 7651   7.694   4.097   1.411
 3588W        W 7652   1.626   1.280   1.432
 3589W        W 7653   7.718   8.492   2.338
 3590W        W 7654   6.881   5.115   8.856
 3591W        W 7655   1.815   6.035   1.258
 3592W        W 7656   0.977   2.838  11.112
 3593W        W 7657   5.910   5.152   2.951
 3594W        W 7658   5.502  10.337   8.869
 3595W        W 7659   2.201   3.350  10.206
 3596W        W 7660   9.736   0.308   2.886
 3597W        W 7661   6.153   8.474   2.380
 3598W        W 7662   2.153   1.868   2.959
 3599W        W 7663   6.030   7.951   9.575
 3600W        W 7664   7.612   3.096   2.266
 3601W        W 7665   7.421  10.112   3.418
 3602W        W 7666   4.479   3.613   0.528
 3603W        W 7667   3.846   6.688  10.931
 3604W        W 7668   6.938   1.231   2.708
 3605W        W 7669   1.459   8.306  10.800
 3606W        W 7670   8.273   9.923  11.408
 3607W        W 7671  10.421   0.266  11.382
 3608W        W 7672   9.370   9.166   9.094
 3609W        W 7673   6.442   2.604   9.545
 3610W        W 7674   3.557   1.273   8.955
 3611W        W 7675   5.966   9.019   0.678
 3612W        W 7676   9.330   9.889  11.305
 3613W        W 7677   4.176   6.635   3.764
 3614W        W 7678   4.589   9.114   8.691
 3615W        W 7679   0.144   1.898   2.636
 3616W        W 7680   7.188   9.713   8.857
 3617W        W 7681   6.679   4.419  11.218
 3618W        W 7682   0.937   6.573  10.556
 3619W        W 7683   8.998   4.274  11.426
 3620W        W 7684   6.536   7.683   0.838
 3621W        W 7685   9.738   2.657   2.447
 3622W        W 7686   8.106  10.408   2.760
 3623W        W 7687  10.017  10.499   8.423
 3624W        W 7688   6.400   9.286   2.304
 3625W        W 7689   4.129   4.280   8.541
 3626W        W 7690   1.151   6.431   2.078
 3627W        W 7691   2.012   8.967   1.352
 3628W        W 7692   4.260   7.034   8.933
 3629W        W 7693   2.098   0.777   1.893
 3630W        W 7694  10.012   0.806   9.069
 3631W        W 7695   6.988   4.972   3.331
 3632W        W 7696   5.234   5.286   0.958
 3633W        W 7697   8.787   9.964  11.278
 3634W        W 7698   8.600   5.689  10.033
 3635W        W 7699   4.716   0.825   9.168
 3636W        W 7700   4.283   9.490   0.378
 3637W        W 7701   0.349   9.462   9.114
 3638W        W 7702   5.665   8.287   1.681
 3639W        W 7703   7.062   4.525   2.908
 3640W        W 7704   4.720   8.107   8.998
 3641W        W 7705   2.121   5.580   1.818
 3642W        W 7706  10.293   3.613   2.475
 3643W        W 7707   5.568   2.249  10.981
 3644W        W 7708   7.471   5.628   8.642
 3645W        W 7709   5.125   3.535   2.279
 3646W        W 7710   0.689   9.429  11.992
 3647W        W 7711   0.912   5.978   8.727
 3648W        W 7712   7.338   8.841   2.397
 3649W        W 7713   3.742   7.950   0.879
 3650W        W 7714   1.775   3.400   2.178
 3651W        W 7715   0.816   0.756   0.497
 3652W        W 7716   6.925   3.450   1.294
 3653W        W 7717   3.844   3.192   0.012
 3654W        W 7718   8.043   7.937   9.436
 3655W        W 7719   4.324   0.152  10.444
 3656W        W 7720   0.963   4.695  11.233
 3657W        W 7721   5.310   6.639   8.051
 3658W        W 7722   3.724   4.836   0.406
 3659W        W 7723   2.867   5.937   1.553
 3660W        W 7724   7.198   8.075   0.297
 3661W        W 7725   3.164   1.379   0.688
 3662W        W 7726   5.026   6.670  11.821
 3663W        W 7727   8.023   1.237   1.397
 3664W        W 7728   7.096   3.589   2.796
 3665W        W 7729   1.179   9.851  10.254
 3666W        W 7730   5.088   0.871   0.470
 3667W        W 7731  10.458   6.670  10.049
 3668W        W 7732   6.074   5.975   0.829
 3669W        W 7733   7.139   0.478   1.536
 3670W        W 7734   4.278  10.452   3.150
 3671W        W 7735   4.030   1.774   0.704
 3672W        W 7736   0.463   9.508  11.506
 3673W        W 7737   6.053   3.634   8.869
 3674W        W 7738   0.512   2.811   1.939
 3675W        W 7739   8.872   7.147  10.693
 3676W        W 7740   9.088   2.164   1.120
 3677W        W 7741   6.844   8.041   2.031
 3678W        W 7742   5.715   7.553  10.928
 3679W        W 7743   0.756   0.522  10.855
 3680W        W 7744   5.558   6.914  11.503
 3681W        W 7745   1.941   9.519   3.313
 3682W        W 7746   4.990   8.807   1.916
 3683W        W 7747   2.271   3.308   1.340
 3684W        W 7748   0.687   0.413   2.801
 3685W        W 7749   1.210   6.934   3.489
 3686W        W 7750   5.213   4.117   3.878
 3687W        W 7751   6.279   3.282   1.778
 3688W        W 7752   8.826   7.632   0.447
 3689W        W 7753   5.869   3.043   3.175
 3690W        W 7754   3.080   9.897   1.395
 3691W        W 7755  10.374   8.384   9.500
 3692W        W 7756   7.447   8.159   8.937
 3693W        W 7757   5.932   4.912  11.926
 3694W        W 7758   1.901   3.460   2.809
 3695W        W 7759   0.755   8.348   3.028
 3696W        W 7760   0.066   7.688  11.680
 3697W        W 7761   4.084   3.379   8.905
 3698W        W 7762   8.386   4.571   9.420
 3699W        W 7763   4.554   2.131   9.354
 3700W        W 7764   2.617   4.295  11.023
 3701W        W 7765   2.850   6.661  10.026
 3702W        W 7766   4.975   2.808   9.105
 3703W        W 7767   8.837   4.763   3.596
 3704W        W 7768   3.265  10.159   0.972
 3705W        W 7769   1.893   2.838   0.360
 3706W        W 7770   7.411  10.160  10.994
 3707W        W 7771  10.116   7.831   0.877
 3708W        W 7772   1.478   4.136  11.363
 3709W        W 7773   6.839   5.608   2.373
 3710W        W 7774   9.479   6.316   0.119
 3711W        W 7775   2.370   1.265   3.548
 3712W        W 7776   2.258   2.228  10.033
 3713W        W 7777   8.549   4.550  11.476
 3714W        W 7778   8.520   8.092   9.249
 3715W        W 7779   5.018   6.212   8.705
 3716W        W 7780   5.162  10.043   2.462
 3717W        W 7781   1.110   4.240   3.609
 3718W        W 7782   7.496   1.645   2.827
 3719W        W 7783   7.468   4.771   2.689
 3720W        W 7784   0.666   0.863   9.863
 3721W        W 7785   5.079   2.445  11.028
 3722W        W 7786   7.572   2.195   0.235
 3723W        W 7787   1.383   2.402   0.422
 3724W        W 7788   1.270   8.453   9.801
 3725W        W 7789   8.167   0.974  10.041
 3726W        W 7790   5.968   8.654  10.467
 3727W        W 7791   8.905   8.495   0.445
 3728W        W 7792   3.213   2.230   3.602
 3729W        W 7793   0.938   6.051  11.877
 3730W        W 7794  10.124   7.941  11.573
 3731W        W 7795   5.640   3.894   8.641
 3732W        W 7796   6.921   7.532   2.710
 3733W        W 7797   6.829   5.145  11.733
 3734W        W 7798   9.827   6.476   0.446
 3735W        W 7799   0.975   2.584  10.260
 3736W        W 7800   3.580   0.274   2.948
 3737W        W 7801   8.648   9.723   1.127
 3738W        W 7802   6.087   5.991   3.774
 3739W        W 7803   6.689   7.592   2.213
 3740W        W 7804   5.311   4.066   9.440
 3741W        W 7805   9.488   2.267   0.282
 3742W        W 7806   0.502   7.695   0.969
 3743W        W 7807   7.011   1.747   2.719
 3744W        W 7808   8.209   0.114  10.666
 3745W        W 7809   3.748   1.368  10.927
 3746W        W 7810   7.810   3.603   0.026
 3747W        W 7811   4.117   0.863   3.068
 3748W        W 7812   3.598   5.525   9.316
 3749W        W 7813   2.692   6.620   9.028
 3750W        W 7814   8.903   2.982   1.404
 3751W        W 7815   5.502   2.637  10.533
 3752W        W 7816   5.188   3.061   0.225
 3753W        W 7817   4.265   1.644   9.332
 3754W        W 7818   4.272   5.169  10.538
 3755W        W 7819   1.317   7.663   3.303
 3756W        W 7820  10.191   2.960   3.079
 3757W        W 7821   5.725   7.417   9.042
 3758W        W 7822   4.794   7.895   2.699
 3759W        W 7823   3.741   4.191   9.064
 3760W        W 7824   4.791   2.872  11.910
 3761W        W 7825   4.697   5.078   2.039
 3762W        W 7826   1.422   5.285   8.671
 3763W        W 7827   3.830   3.238  11.081
 3764W        W 7828   5.563   4.133   8.012
 3765W        W 7829   1.474   3.113  10.849
 3766W        W 7830   0.047   4.260   9.116
 3767W        W 7831   2.413   8.888   9.685
 3768W        W 7832   9.909   1.337   0.977
 3769W        W 7833   3.150   1.158  10.594
 3770W        W 7834   6.786   0.438   1.155
 3771W        W 7835   7.895   7.445   0.313
 3772W        W 7836   7.925   1.860  10.575
 3773W        W 7837   1.504   7.731  11.367
 3774W        W 7838  10.484  10.307   3.104
 3775W        W 7839   4.163   1.354   2.800
 3776W        W 7840   0.969   4.956   1.695
 3777W        W 7841   5.564   5.680   0.161
 3778W        W 7842   2.768   7.444   1.266
 3779W        W 7843  10.289   1.830  10.297
 3780W        W 7844   1.522   4.466   9.683
 3781W        W 7845   8.586   8.397   1.380
 3782W        W 7846   7.820   0.453  10.570
 3783W        W 7847   5.162   3.618  10.352
 3784W        W 7848   4.974   5.480   9.974
 3785W        W 7849   1.595   5.649   0.966
 3786W        W 7850   1.935   2.904   2.069
 3787W        W 7851  10.214  10.101   2.274
 3788W        W 7852   1.826   4.103   9.906
 3789W        W 7853   6.177   5.525   3.536
 3790W        W 7854   5.568   6.955   1.469
 3791W        W 7855   7.621   5.025   1.657
 3792W        W 7856   5.673   5.575  10.294
 3793W        W 7857   1.929   4.307   2.332
 3794W        W 7858   7.683   3.766   0.504
 3795W        W 7859   3.007   9.030  10.418
 3796W        W 7860   0.049   4.623  10.824
 3797W        W 7861   3.535   9.980   2.308
 3798W        W 7862   3.282   0.422   1.644
 3799W        W 7863   9.768   7.415   8.755
 3800W        W 7864   2.490   4.785   8.900
 3801W        W 7865   0.211   1.342  10.885
 3802W        W 7866   6.918   5.422   0.513
 3803W        W 7867   0.830   9.941   1.165
 3804W        W 7868   6.411   8.848   0.454
 3805W        W 7869   7.126   7.595   9.685
 3806W        W 7870   7.451   3.203  11.282
 3807W        W 7871   9.698   1.789   1.914
 3808W        W 7872   3.086   7.954  11.103
 3809W        W 7873   0.411   7.389   2.831
 3810W        W 7874   4.479   6.415   1.204
 3811W        W 7875   4.992   3.023   9.822
 3812W        W 7876   0.908   3.926   1.246
 3813W        W 7877   2.007   9.539  10.993
 3814W        W 7878   1.118   2.193   1.781
 3815W        W 7879   7.935   2.382  10.529
 3816W        W 7880   5.716   1.602  11.758
 3817W        W 7881   5.564   1.272   3.053
 3818W        W 7882  10.227   7.709   2.254
 3819W        W 7883   9.370   5.394   2.176
 3820W        W 7884   0.854   4.117   0.199
 3821W        W 7885   0.359   7.235  10.132
 3822W        W 7886   4.707   5.047  10.818
 3823W        W 7887  10.352   3.461   9.722
 3824W        W 7888   9.309   2.692   2.155
 3825W        W 7889   4.961   6.461   2.835
 3826W        W 7890   7.461   6.612   8.938
 3827W        W 7891   8.941   5.612   9.642
 3828W        W 7892   7.339   5.203  10.490
 3829W        W 7893   8.366   4.234  10.857
 3830W        W 7894   8.211   1.814  11.578
 3831W        W 7895  10.466   7.097  11.945
 3832W        W 7896   3.278   7.212   2.322
 3833W        W 7897   6.036   0.409   3.298
 3834W        W 7898   9.398   3.376  10.502
 3835W        W 7899   0.801   0.244   9.466
 3836W        W 7900   8.296   9.878   8.948
 3837W        W 7901   5.911   0.441   2.796
 3838W        W 7902   0.349   0.209  10.763
 3839W        W 7903   9.406   9.219  11.171
 3840W        W 7904   2.007   9.395   1.911
 3841W        W 7905   0.869   6.530  10.047
 3842W        W 7906   7.027   5.638  11.033
 3843W        W 7907   2.115   5.237   3.002
 3844W        W 7908   8.658   7.232   8.997
 3845W        W 7909   4.734  10.306   2.435
 3846W        W 7910   7.594   9.975  10.109
 3847W        W 7911   2.382   8.414   3.077
 3848W        W 7912   8.746   2.000   0.354
 3849W        W 7913   0.172   5.617   0.025
 3850W        W 7914   6.425   8.935   1.421
 3851W        W 7915   9.167   5.768  10.499
 3852W        W 7916   7.792   4.134   0.008
 3853W        W 7917   2.391   6.032   1.786
 3854W        W 7918   4.183   1.876   2.805
 3855W        W 7919   5.989   6.755   4.027
 3856W        W 7920   2.107   7.158   9.853
 3857W        W 7921   3.988   7.944   2.245
 3858W        W 7922   4.679   0.865   8.636
 3859W        W 7923   7.330   9.944   1.652
 3860W        W 7924   7.007   2.186   3.017
 3861W        W 7925   1.923   3.347  11.011
 3862W        W 7926   1.177   9.692   8.812
 3863W        W 7927   7.447   3.696  11.109
 3864W        W 7928   5.946   3.463   1.398
 3865W        W 7929   2.359   3.190   2.859
 3866W        W 7930   7.389  10.488   0.310
 3867W        W 7931   7.908   6.597   2.743
 3868W        W 7932   2.883   6.955  11.832
 3869W        W 7933   4.969   4.667   0.430
 3870W        W 7934   2.389   4.796   2.706
 3871W        W 7935   0.633   0.625   2.304
 3872W        W 7936   9.975   4.527  10.469
 3873W        W 7937   7.143   0.415   3.296
 3874W        W 7938   1.662   1.640  11.795
 3875W        W 7939  10.211   0.607   1.383
 3876W        W 7940   9.393   4.642   9.780
 3877W        W 7941   2.821   7.032   0.417
 3878W        W 7942   8.416   6.486   0.836
 3879W        W 7943   1.441   4.168   3.234
 3880W        W 7944   3.608   6.466   1.696
 3881W        W 7945   1.304   0.230   9.021
 3882W        W 7946  10.255   6.728   0.330
 3883W        W 7947   6.946   3.681   0.350
 3884W        W 7948   4.393   0.106   2.658
 3885W        W 7949   7.471   8.798  10.762
 3886W        W 7950   3.390   1.024  11.026
 3887W        W 7951   4.652   2.353  10.729
 3888W        W 7952   4.937   8.475  10.443
 3889W        W 7953   9.474   8.400   3.324
 3890W        W 7954   4.707   9.389   2.949
 3891W        W 7955   6.143   4.060   8.613
 3892W        W 7956   9.239   7.952   8.900
 3893W        W 7957   8.112   8.359   9.090
 3894W        W 7958   7.152   2.263   1.489
 3895W        W 7959   3.373   0.581   9.793
 3896W        W 7960   2.314   7.801  11.575
 3897W        W 7961   0.442   5.204   0.185
 3898W        W 7962   1.950   4.573   0.879
 3899W        W 7963   2.817   5.964   0.055
 3900W        W 7964   6.164   1.939   3.491
 3901W        W 7965   2.618   2.542  10.284
 3902W        W 7966   6.676   0.312   9.366
 3903W        W 7967   2.948  10.320  10.650
 3904W        W 7968   8.673   4.266   1.240
 3905W        W 7969  10.292   4.588   8.794
 3906W        W 7970   6.737   1.239  10.529
 3907W        W 7971   7.531   5.648   3.095
 3908W        W 7972   5.289   6.157   9.125
 3909W        W 7973   2.357   6.762   1.162
 3910W        W 7974   4.731   3.293   0.215
 3911W        W 7975   6.024   7.546   1.687
 3912W        W 7976   7.010   6.433   1.738
 3913W        W 7977   9.639   3.364   8.600
 3914W        W 7978   4.156   1.254  11.824
 3915W        W 7979   7.925   7.574   2.740
 3916W        W 7980   7.811   9.926   9.095
 3917W        W 7981  10.218   3.659  11.307
 3918W        W 7982   2.656   5.068   2.326
 3919W        W 7983   1.323   1.862   9.035
 3920W        W 7984   5.079   4.635  11.034
 3921W        W 7985   9.416   6.482   1.889
 3922W        W 7986   5.155   8.545  11.104
 3923W        W 7987   3.696  10.453   2.201
 3924W        W 7988   9.413   7.202   1.527
 3925W        W 7989   7.445   2.070   0.708
 3926W        W 7990   5.167   7.686  11.060
 3927W        W 7991  10.361   0.698   9.560
 3928W        W 7992   4.051  10.397   0.886
 3929W        W 7993   7.553   3.572   9.934
 3930W        W 7994   4.719   1.716   9.072
 3931W        W 7995   0.229   8.648  11.388
 3932W        W 7996   0.891   5.698   0.292
 3933W        W 7997   7.099   6.700   2.358
 3934W        W 7998  10.093   3.720  11.802
 3935W        W 7999   5.654   0.779   2.204
 3936W        W 8000   4.277   9.093  10.533
 3937W        W 8001   1.271  10.429   9.439
 3938W        W 8002   6.973   9.961  10.760
 3939W        W 8003   7.901   4.096   2.292
 3940W        W 8004   2.772   0.709   3.403
 3941W        W 8005   1.695   8.346   1.841
 3942W        W 8006   8.974   0.833   2.797
 3943W        W 8007   6.987   9.032   2.731
 3944W        W 8008   2.630   2.791   2.699
 3945W        W 8009   4.618   3.633   1.558
 3946W        W 8010   0.475   0.779  11.985
 3947W        W 8011   0.342   5.361   9.876
 3948W        W 8012   2.311   9.005   1.749
 3949W        W 8013   3.722   8.967   1.335
 3950W        W 8014   8.471   0.321   9.396
 3951W        W 8015   7.013   0.316  11.263
 3952W        W 8016  10.414   4.909   2.337
 3953W        W 8017   4.594   6.885  10.270
 3954W        W 8018   7.210   9.005   0.276
 3955W        W 8019   6.177   4.328  11.741
 3956W        W 8020   4.162   0.993   8.490
 3957W        W 8021   1.951  10.404  10.661
 3958W        W 8022   7.969  10.496   0.382
 3959W        W 8023   4.389   5.791   8.259
 3960W        W 8024   9.900  10.329  11.982
 3961W        W 8025   6.115   2.326  11.265
 3962W        W 8026   8.925   4.715   2.165
 3963W        W 8027   5.180   6.722   8.538
 3964W        W 8028   6.948   2.333  10.554
 3965W        W 8029   1.060   9.104   0.241
 3966W        W 8030   5.470   4.682   0.339
 3967W        W 8031   6.973   7.708   0.584
 3968W        W 8032   9.988   3.199   2.578
 3969W        W 8033   2.409   2.928  11.849
 3970W        W 8034   2.625   6.085   3.502
 3971W        W 8035   9.451   9.094   2.478
 3972W        W 8036   6.852   9.060   1.153
 3973W        W 8037   2.364   7.668   1.744
 3974W        W 8038   9.510   8.314   9.194
 3975W        W 8039   3.680  10.327  10.806
 3976W        W 8040   9.765   4.286  10.904
 3977W        W 8041   6.500   1.467   2.793
 3978W        W 8042   5.669   2.370   2.351
 3979W        W 8043   1.201   9.566  11.982
 3980W        W 8044   6.282   7.472   1.254
 3981W        W 8045   5.599   7.376   2.800
 3982W        W 8046   8.171   0.197   8.509
 3983W        W 8047   1.659   0.497   2.528
 3984W        W 8048   7.391   5.209   8.952
 3985W        W 8049   2.730   3.579   9.255
 3986W        W 8050   2.738   0.267  10.882
 3987W        W 8051   5.090   2.248   9.189
 3988W        W 8052   2.336  10.299   2.984
 3989W        W 8053   4.313   1.693   1.917
 3990W        W 8054   4.343   6.606   9.713
 3991W        W 8055   0.816   8.888   9.893
 3992W        W 8056   6.920   9.877  11.263
 3993W        W 8057   7.246   1.731  11.331
 3994W        W 8058   9.311   5.667   9.275
 3995W        W 8059   6.184   3.127   3.573
 3996W        W 8060   0.749   8.538   2.001
 3997W        W 8061   9.276   1.864   8.641
 3998W        W 8062   4.760   8.868  11.275
 3999W        W 8063   5.252   9.891  10.068
 4000W        W 8064   1.353   7.988   1.516
 4001W        W 8065   1.226   2.908   0.412
 4002W        W 8066   1.750   5.974  10.208
 4003W        W 8067   9.400   0.679   2.007
 4004W        W 8068   2.253   2.237  11.523
 4005W        W 8069   4.544   3.910  11.020
 4006W        W 8070   0.916   7.035  10.793
 4007W        W 8071   1.476   0.197   3.388
 4008W        W 8072   0.544   1.786   9.830
 4009W        W 8073   9.503   7.149   1.020
 4010W        W 8074   0.322   7.357   1.429
 4011W        W 8075   3.195   4.823   1.274
 4012W        W 8076   2.818   5.927   2.087
 4013W        W 8077   4.247   7.955   8.846
 4014W        W 8078   6.004   4.332   8.191
 4015W        W 8079   6.479   3.342   0.564
 4016W        W 8080   2.929   7.773   8.600
 4017W        W 8081   7.107   0.931  11.871
 4018W        W 8082   3.175   0.257   9.412
 4019W        W 8083   2.659   9.935   2.803
 4020W        W 8084   8.684   7.972   3.188
 4021W        W 8085   7.022   9.493   2.958
 4022W        W 8086   6.054   7.126   1.997
 4023W        W 8087   6.529   7.428   3.109
 4024W        W 8088   1.157   0.745   2.208
 4025W        W 8089   4.549   9.776  11.780
 4026W        W 8090   0.019   4.623  10.305
 4027W        W 8091  10.426   7.595   1.234
 4028W        W 8092   2.650   4.349  11.540
 4029W        W 8093   5.222   1.712   9.849
 4030W        W 8094   4.545   0.396   9.430
 4031W        W 8095   5.120   1.183   2.338
 4032W        W 8096   6.137   7.275  10.809
 4033W        W 8097   0.379   0.698   1.855
 4034W        W 8098   5.738   5.180   1.625
 4035W        W 8099   4.945   0.441   8.604
 4036W        W 8100   7.988   9.381   0.574
 4037W        W 8101   4.226   5.673  10.481
 4038W        W 8102   9.724   8.924  10.472
 4039W        W 8103   4.286   6.205  10.531
 4040W        W 8104   8.499   8.997   3.625
 4041W        W 8105   0.733   3.591  10.290
 4042W        W 8106   2.288   7.691   1.238
 4043W        W 8107   1.027   8.744   9.456
 4044W        W 8108   4.598   4.055   8.785
 4045W        W 8109   3.355   3.822   1.331
 4046W        W 8110   7.540   2.768   1.459
 4047W        W 8111   9.571   5.568  10.251
 4048W        W 8112   3.145   6.479   2.904
 4049W        W 8113   9.534   9.370  10.109
 4050W        W 8114   2.557   7.668   8.980
 4051W        W 8115   7.498   3.638  11.615
 4052W        W 8116  10.359   5.703   1.214
 4053W        W 8117   4.624   4.672   3.471
 4054W        W 8118   2.775   1.316  10.927
 4055W        W 8119   7.873   0.264   1.609
 4056W        W 8120   1.546   5.654  10.543
 4057W        W 8121   7.538   7.074   0.172
 4058W        W 8122   0.421   9.001  10.866
 4059W        W 8123   2.875   7.498  11.173
 4060W        W 8124   6.560   9.453   1.334
 4061W        W 8125   5.627  10.440   1.926
 4062W        W 8126   7.437   5.324   9.512
 4063W        W 8127   8.055   2.269   1.405
 4064W        W 8128   6.036   3.695   9.947
 4065W        W 8129   5.827   7.482   0.338
 4066W        W 8130   3.400   7.939   1.901
 4067W        W 8131   5.745   6.908   9.191
 4068W        W 8132   6.059   9.082  10.847
 4069W        W 8133   8.463   6.429   2.122
 4070W        W 8134   0.377   8.570   1.669
 4071W        W 8135   6.927   5.022   2.776
 4072W        W 8136   4.126   3.893   8.895
 4073W        W 8137   9.044   4.002   1.527
 4074W        W 8138   4.805   6.860   8.095
 4075W        W 8139   6.135   1.392  11.245
 4076W        W 8140   7.946   8.992   3.017
 4077W        W 8141   3.256   7.115   0.741
 4078W        W 8142   4.963   0.407  10.785
 4079W        W 8143   4.053   3.943   1.393
 4080W        W 8144   6.535   2.973   0.241
 4081W        W 8145   2.255   3.571   3.190
 4082W        W 8146   1.692   7.169   0.576
 4083W        W 8147   6.036   3.138  11.108
 4084W        W 8148   4.689   3.785   3.009
 4085W        W 8149  10.288   4.051   2.804
 4086W        W 8150   8.009   3.686   3.318
 4087W        W 8151   8.463   0.729   3.301
 4088W        W 8152   8.367   1.722   3.041
 4089W        W 8153   1.369   6.446  10.831
 4090W        W 8154   4.064   5.590   1.623
 4091W        W 8155   3.266   2.438   3.153
 4092W        W 8156   2.675   9.284   9.877
 4093W        W 8157   6.224   1.769   9.941
 4094W        W 8158   0.783   4.107   1.711
 4095W        W 8159   5.543   7.049   8.708
 4096W        W 8160   6.170   8.542   0.826
 4097W        W 8161   9.188   5.951   9.991
 4098W        W 8162   3.782   3.573   1.160
 4099W        W 8163   9.038   4.515   2.631
 4100W        W 8164   9.852   0.922   1.249
 4101W        W 8165   5.016   9.495   9.260
 4102W        W 8166   2.387   2.596  10.777
 4103W        W 8167   1.386   6.585   0.884
 4104W        W 8168   2.916   8.913   9.594
 4105W        W 8169   0.925   3.836   3.326
 4106W        W 8170   4.225   1.233   1.696
 4107W        W 8171   0.690   7.310   8.958
 4108W        W 8172   5.577   3.820   1.415
 4109W        W 8173   9.048   0.329   9.979
 4110W        W 8174   0.959   3.031   2.859
 4111W        W 8175   2.958   7.189   2.729
 4112W        W 8176   3.139   3.830   9.057
 4113W        W 8177   8.355   0.314   2.960
 4114W        W 8178   9.776   9.000  11.506
 4115W        W 8179   5.015   6.680   0.764
 4116W        W 8180  10.483   2.808   1.927
 4117W        W 8181   8.647   6.662  10.790
 4118W        W 8182   4.254   9.118   2.826
 4119W        W 8183   9.965   3.026   9.309
 4120W        W 8184   7.461   9.320  10.692
 4121W        W 8185   5.978   5.294  11.505
 4122W        W 8186   9.422   4.285  10.536
 4123W        W 8187   6.702   4.306   2.304
 4124W        W 8188   3.725   9.844  10.294
 4125W        W 8189   7.307   2.213   9.227
 4126W        W 8190   9.722   0.777   0.232
 4127W        W 8191   5.071   3.732  10.989
 4128W        W 8192   0.472   8.276  10.176
 4129W        W 8193   0.779   7.916   2.717
 4130W        W 8194   5.120   3.095   3.047
 4131W        W 8195   9.930   0.304   0.710
 4132W        W 8196   7.493   6.322   0.010
 4133W        W 8197   3.550   1.098   9.839
 4134W        W 8198   8.276   4.281   9.839
 4135W        W 8199   2.260   3.252  11.473
 4136W        W 8200   4.150   6.152   8.896
 4137W        W 8201   4.602   4.656   0.098
 4138W        W 8202   7.896   1.370   8.844
 4139W        W 8203   9.551   0.871   2.741
 4140W        W 8204   6.648   2.303   1.803
 4141W        W 8205   4.769   1.876   1.395
 4142W        W 8206   5.691  10.302   3.332
 4143W        W 8207   4.339   7.408   9.426
 4144W        W 8208   5.800   3.188   1.881
 4145W        W 8209  10.412   3.287  10.603
 4146W        W 8210   5.166   9.055  10.964
 4147W        W 8211   8.618   2.886  10.991
 4148W        W 8212   5.551   0.682   1.251
 4149W        W 8213   4.218   7.765  10.307
 4150W        W 8214   2.493   5.621   8.409
 4151W        W 8215   1.319   6.062   2.440
 4152W        W 8216   4.714   4.970   0.728
 4153W        W 8217   0.317   8.019  10.590
 4154W        W 8218   7.446   6.092   0.870
 4155W        W 8219   4.613   5.161   2.627
 4156W        W 8220   5.238  10.038  10.564
 4157W        W 8221   5.755   6.241   9.869
 4158W        W 8222  10.476   1.126   2.790
 4159W        W 8223   7.525   1.055   3.433
 4160W        W 8224   5.658   9.028  10.180
 4161W        W 8225   2.714   5.729   9.053
 4162W        W 8226   3.628   1.601   9.936
 4163W        W 8227   5.713   2.389   1.396
 4164W        W 8228   3.407   5.767   9.971
 4165W        W 8229   8.027   2.934   0.675
 4166W        W 8230   3.405   6.111  11.397
 4167W        W 8231   2.433   6.509   8.597
 4168W        W 8232   2.404   1.956   1.490
 4169W        W 8233   4.566   5.567   1.807
 4170W        W 8234   6.930   2.139   9.591
 4171W        W 8235   0.371   0.017  11.363
 4172W        W 8236   8.359   6.916   2.049
 4173W        W 8237   6.442   3.362   1.300
 4174W        W 8238   9.401   6.215  10.402
 4175W        W 8239   8.983   6.842   9.051
 4176W        W 8240   2.438   2.892   1.656
 4177W        W 8241   0.755   8.380   9.757
 4178W        W 8242   1.946   8.430   2.737
 4179W        W 8243   2.750   9.228   8.843
 4180W        W 8244   8.880   9.113   9.581
 4181W        W 8245   6.017   6.747  11.576
 4182W        W 8246   8.688   4.981   9.349
 4183W        W 8247   5.036   2.747   3.407
 4184W        W 8248   1.699   3.249   1.699
 4185W        W 8249   4.301   6.457  11.004
 4186W        W 8250   2.689   9.105  11.794
 4187W        W 8251   0.807   9.426   1.885
 4188W        W 8252   7.443  10.294   2.122
 4189W        W 8253   9.772   4.337  10.004
 4190W        W 8254   4.103   0.413   3.353
 4191W        W 8255   4.534   8.933   0.661
 4192W        W 8256   7.258   5.758   2.163
 4193W        W 8257   0.765   3.741  10.777
 4194W        W 8258   3.108   2.125   2.244
 4195W        W 8259  10.415   9.845   1.423
 4196W        W 8260   5.947   9.553   3.567
 4197W        W 8261   6.940   8.125  10.792
 4198W        W 8262   0.807   5.149   2.152
 4199W        W 8263   0.570   1.929   2.361
 4200W        W 8264   1.163   6.437   8.601
 4201W        W 8265   4.502   1.734   2.402
 4202W        W 8266   0.878   3.076   8.999
 4203W        W 8267   2.744   6.469   0.846
 4204W        W 8268   0.471   7.744  11.364
 4205W        W 8269   3.715   0.435   1.955
 4206W        W 8270   0.847   1.788  11.405
 4207W        W 8271   4.940   4.223   9.119
 4208W        W 8272   7.743   0.753   1.789
 4209W        W 8273   5.484   6.671   3.557
 4210W        W 8274   1.258   6.075   9.924
 4211W        W 8275  10.000   4.026   0.209
 4212W        W 8276   8.375   1.281   3.384
 4213W        W 8277  10.230   5.503   2.693
 4214W        W 8278   5.784   7.088  10.048
 4215W        W 8279   7.463   2.699   1.964
 4216W        W 8280   9.182  10.298   9.880
 4217W        W 8281   0.313   5.434  11.063
 4218W        W 8282   4.796   7.944  10.324
 4219W        W 8283   8.831   1.460   9.213
 4220W        W 8284   1.227   3.997   1.947
 4221W        W 8285   3.735   5.838  11.721
 4222W        W 8286   6.549   8.351   2.721
 4223W        W 8287   3.255   6.965   9.063
 4224W        W 8288   1.356   2.280  11.877
 4225W        W 8289   7.824   9.549  10.386
 4226W        W 8290   6.750   4.001   9.303
 4227W        W 8291   8.394   2.610  11.907
 4228W        W 8292   8.056   9.985   0.416
 4229W        W 8293   7.582   6.613   0.487
 4230W        W 8294   8.744   9.530   2.289
 4231W        W 8295   4.548   4.223   3.215
 4232W        W 8296   6.104   8.443   9.272
 4233W        W 8297   3.757   1.309   1.910
 4234W        W 8298   0.874   6.908   9.218
 4235W        W 8299   7.865   1.812   0.067
 4236W        W 8300   6.668   6.501  11.361
 4237W        W 8301  10.386   8.265   3.142
 4238W        W 8302   9.673   3.843   8.843
 4239W        W 8303   4.225   7.412  11.272
 4240W        W 8304  10.400   9.427   0.576
 4241W        W 8305   4.624   8.898   3.116
 4242W        W 8306   3.185   3.733  10.087
 4243W        W 8307   6.062   9.578  10.975
 4244W        W 8308  10.485   9.697  11.426
 4245W        W 8309   1.460   3.649   3.062
 4246W        W 8310   7.623   1.329  10.622
 4247W        W 8311   8.359   7.088  10.780
 4248W        W 8312   4.342   5.274   8.428
 4249W        W 8313   2.313   3.909   8.811
 4250W        W 8314   4.750   6.030   1.011
 4251W        W 8315   1.901   3.058  11.896
 4252W        W 8316   3.317   7.149  10.456
 4253W        W 8317   9.331   2.829   1.676
 4254W        W 8318   3.541   2.714   2.329
 4255W        W 8319   4.705   7.012   2.441
 4256W        W 8320   6.125   2.244  10.128
 4257W        W 8321   1.817   6.020   1.771
 4258W        W 8322   7.819   9.728  11.644
 4259W        W 8323   6.681   6.157  11.959
 4260W        W 8324   9.355   9.048   1.376
 4261W        W 8325   9.418  10.477   2.667
 4262W        W 8326   1.929   9.750   0.696
 4263W        W 8327   2.061   9.943  10.401
 4264W        W 8328   0.387   2.897   0.692
 4265W        W 8329   2.174   4.514  10.855
 4266W        W 8330   3.280   4.415   3.591
 4267W        W 8331   0.037   2.824   0.333
 4268W        W 8332  10.317   8.205  10.737
 4269W        W 8333   5.243   9.475   0.779
 4270W        W 8334   4.808   2.334   1.186
 4271W        W 8335   1.716   8.477  11.778
 4272W        W 8336   3.219   7.211   1.418
 4273W        W 8337   0.264   5.223   3.559
 4274W        W 8338   8.913   6.218   8.517
 4275W        W 8339   6.949   4.074   0.681
 4276W        W 8340   1.345   7.849   0.295
 4277W        W 8341   2.859   9.837   1.876
 4278W        W 8342   2.113   6.637  11.798
 4279W        W 8343   1.929   9.443  11.489
 4280W        W 8344   5.948   4.321   9.092
 4281W        W 8345   8.005   9.696   9.900
 4282W        W 8346   8.103   8.624   2.680
 4283W        W 8347   9.390   1.705   9.864
 4284W        W 8348   3.636   3.526   2.148
 4285W        W 8349   3.554   9.536   9.912
 4286W        W 8350   1.397   3.187  11.832
 4287W        W 8351   2.196   3.731   9.822
 4288W        W 8352   3.213   8.872   3.400
 4289W        W 8353   8.368   5.243  10.974
 4290W        W 8354   3.228   0.710   2.961
 4291W        W 8355   3.833   4.649   8.303
 4292W        W 8356  10.228   5.984   2.873
 4293W        W 8357   6.555   4.874   1.291
 4294W        W 8358   3.728   4.580   1.933
 4295W        W 8359   2.576   2.046   8.832
 4296W        W 8360   4.403  10.109  10.440
 4297W        W 8361   7.077   2.308  10.059
 4298W        W 8362   9.572   2.986  10.840
 4299W        W 8363   1.694   7.566   9.078
 4300W        W 8364   6.662   6.256   3.999
 4301W        W 8365   1.798   7.048  11.750
 4302W        W 8366   0.008  10.224   9.593
 4303W        W 8367   0.264   3.111   1.189
 4304W        W 8368   9.490   5.639   0.712
 4305W        W 8369   9.009   5.022   8.947
 4306W        W 8370   8.550   6.613   1.660
 4307W        W 8371   0.892   4.762  10.725
 4308W        W 8372   2.351   4.769  11.247
 4309W        W 8373   3.841   8.292   9.527
 4310W        W 8374   2.079   1.005   1.294
 4311W        W 8375   6.346   9.775   9.197
 4312W        W 8376   5.068   4.221   8.623
 4313W        W 8377   6.145   2.229   1.667
 4314W        W 8378   4.685   5.880  10.501
 4315W        W 8379  10.317   2.982  11.899
 4316W        W 8380   8.417   4.266   0.255
 4317W        W 8381   7.814   9.028   2.514
 4318W        W 8382   2.882   8.519   2.792
 4319W        W 8383   3.305  10.344   2.938
 4320W        W 8384   0.024  10.488   0.764
 4321W        W 8385   2.775  10.331  11.667
 4322W        W 8386   8.229   6.635   3.158
 4323W        W 8387   0.252   6.550   9.262
 4324W        W 8388   4.148   9.243   1.437
 4325W        W 8389   3.486   0.378   8.564
 4326W        W 8390   6.563   3.649   2.004
 4327W        W 8391   8.957  10.190   0.066
 4328W        W 8392   0.364   8.948   2.120
 4329W        W 8393   1.338   1.304   0.034
 4330W        W 8394   8.845  10.001   2.986
 4331W        W 8395   0.562   0.976  11.039
 4332W        W 8396   5.987   6.481   3.587
 4333W        W 8397   6.171   0.962  10.940
 4334W        W 8398   7.881   0.840   0.359
 4335W        W 8399   9.563   7.362  11.884
 4336W        W 8400   2.366   1.085   8.995
 4337W        W 8401   2.053   9.821  11.810
 4338W        W 8402   3.370   7.490  11.229
 4339W        W 8403   0.056   2.664   1.041
 4340W        W 8404   2.744   2.190  11.358
 4341W        W 8405   5.226   9.998   0.012
 4342W        W 8406   6.511   8.352   1.785
 4343W        W 8407   4.724   5.509  11.818
 4344W        W 8408   1.665   7.913   9.879
 4345W        W 8409   1.299   2.777   2.597
 4346W        W 8410  10.186   7.245   0.956
 4347W        W 8411   6.545  10.278   9.368
 4348W        W 8412   4.137   8.510   9.880
 4349W        W 8413   5.973  10.499  11.756
 4350W        W 8414   0.107   5.334   0.878
 4351W        W 8415  10.261   6.530   9.059
 4352W        W 8416   8.108   4.110   9.379
 4353W        W 8417   3.347   2.399  10.418
 4354W        W 8418   7.687   5.261  11.387
 4355W        W 8419   6.633   6.916   0.352
 4356W        W 8420   6.133   1.860   0.063
 4357W        W 8421   9.297   0.288   1.301
 4358W        W 8422   5.918   5.765   9.891
 4359W        W 8423   8.990   5.660   2.421
 4360W        W 8424   9.543   0.021   0.921
 4361W        W 8425   0.474   6.082   9.349
 4362W        W 8426   7.517   6.134   2.941
 4363W        W 8427   6.102   6.114   9.495
 4364W        W 8428   6.700   3.042   9.373
 4365W        W 8429   0.802   9.018   2.661
 4366W        W 8430   4.951   2.650   1.976
 4367W        W 8431   3.065   0.193  11.313
 4368W        W 8432   4.241   1.064  10.476
 4369W        W 8433  10.363   6.919   8.729
 4370W        W 8434   3.749   3.307   3.030
 4371W        W 8435   7.547   3.993   4.369
 4372W        W 8436   9.338   6.156  11.366
 4373W        W 8437   2.691   7.414  11.658
 4374W        W 8438   0.528   7.734  11.902
 4375W        W 8439   7.165   4.962   1.920
 4376W        W 8440   0.344   5.017   2.609
 4377W        W 8441   4.155   6.259   2.879
 4378W        W 8442   3.613   3.751  10.357
 4379W        W 8443   5.553   1.677   0.925
 4380W        W 8444   3.738   0.771   8.901
 4381W        W 8445   7.555   1.339  11.126
 4382W        W 8446   2.707   9.747   9.025
 4383W        W 8447   4.707  10.041   0.799
 4384W        W 8448   6.724   8.481   2.256
 4385W        W 8449   5.057   3.995   9.880
 4386W        W 8450   6.894   0.784   9.607
 4387W        W 8451   2.111   6.896   1.922
 4388W        W 8452   8.816   2.913  11.996
 4389W        W 8453   5.095   6.672   2.339
 4390W        W 8454   0.790   2.241   1.140
 4391W        W 8455   8.998   8.865   0.859
 4392W        W 8456   9.892   8.243   2.917
 4393W        W 8457   3.314   7.592  10.220
 4394W        W 8458   4.907   6.212  11.546
 4395W        W 8459   7.030   5.381   0.998
 4396W        W 8460   7.922   6.291   0.906
 4397W        W 8461   8.342   5.932  11.367
 4398W        W 8462   6.331   2.702  10.919
 4399W        W 8463   8.366   6.379   2.633
 4400W        W 8464  10.017   6.156  10.970
 4401W        W 8465   2.107   8.499   2.164
 4402W        W 8466   8.949   2.637   0.999
 4403W        W 8467   9.439   5.498   1.684
 4404W        W 8468   4.095   8.886   0.993
 4405W        W 8469   2.594   9.986  10.438
 4406W        W 8470   5.086   9.557   1.294
 4407W        W 8471   7.154   7.488   9.171
 4408W        W 8472  10.144   6.652  10.960
 4409W        W 8473   4.129   3.766  11.800
 4410W        W 8474   9.909   2.945   8.785
 4411W        W 8475   2.915   9.905  11.417
 4412W        W 8476   5.526   0.744   0.733
 4413W        W 8477   0.173   6.996   3.336
 4414W        W 8478   5.622  10.403   9.378
 4415W        W 8479   7.910   3.294   9.689
 4416W        W 8480   7.394   1.414   8.641
 4417W        W 8481   5.456   5.522   1.871
 4418W        W 8482   9.539   4.471   2.579
 4419W        W 8483   9.953   4.061   1.966
 4420W        W 8484   9.261   8.858  10.828
 4421W        W 8485   5.985   3.524   9.374
 4422W        W 8486   2.861   8.324   0.273
 4423W        W 8487   1.455   4.709   0.870
 4424W        W 8488   9.740   8.843  11.015
 4425W        W 8489   9.813   5.198   0.979
 4426W        W 8490   1.452   6.162   9.427
 4427W        W 8491   8.053   6.092   9.504
 4428W        W 8492   5.200   0.271  10.336
 4429W        W 8493   4.981   3.747   0.506
 4430W        W 8494   2.705   1.187  10.326
 4431W        W 8495   8.541   1.679   2.556
 4432W        W 8496   4.578   3.843  11.531
 4433W        W 8497   5.209   9.985   9.576
 4434W        W 8498   1.390   6.662   3.040
 4435W        W 8499   0.352   8.227   2.732
 4436W        W 8500   6.115   4.268   2.620
 4437W        W 8501   8.084   0.200  10.160
 4438W        W 8502   3.501   9.918   3.186
 4439W        W 8503   5.453   8.566  10.371
 4440W        W 8504   9.474   7.278   0.373
 4441W        W 8505   2.366   7.087   2.509
 4442W        W 8506   2.811   1.760   9.458
 4443W        W 8507   2.347   7.758  10.472
 4444W        W 8508   6.109   4.169   0.251
 4445W        W 8509   4.317   8.057   2.817
 4446W        W 8510   2.680   4.601   9.326
 4447W        W 8511  10.396   8.450   1.804
 4448W        W 8512   1.808   0.305   8.885
 4449W        W 8513   2.250   4.124  11.312
 4450W        W 8514   4.785   6.050   0.002
 4451W        W 8515   6.025   0.878   2.554
 4452W        W 8516   4.670   9.037   9.198
 4453W        W 8517   8.517   1.080   1.440
 4454W        W 8518   8.350   2.660   2.533
 4455W        W 8519   4.675  10.341   1.934
 4456W        W 8520   9.052   0.711  10.799
 4457W        W 8521   0.634   8.564   3.514
 4458W        W 8522   6.127   1.680   1.478
 4459W        W 8523   5.199   8.170   2.799
 4460W        W 8524   0.204   1.703   1.668
 4461W        W 8525   7.397   7.119  10.479
 4462W        W 8526   8.283   5.208   3.021
 4463W        W 8527   7.056   5.468   3.817
 4464W        W 8528  10.303   4.192  11.747
 4465W        W 8529   0.372   7.581   1.890
 4466W        W 8530   9.903   5.531   1.418
 4467W        W 8531   5.651   3.507  11.745
 4468W        W 8532   4.057   2.395  11.371
 4469W        W 8533   6.031   4.094   0.767
 4470W        W 8534   8.010   3.559  10.660
 4471W        W 8535   3.141   0.317   2.634
 4472W        W 8536   5.763   9.162  11.773
 4473W        W 8537   2.836   0.728  10.584
 4474W        W 8538   6.698   1.393   0.474
 4475W        W 8539   7.401   5.539   9.987
 4476W        W 8540   4.176   3.432   1.446
 4477W        W 8541   3.582  10.054   0.005
 4478W        W 8542   4.260   9.622   2.757
 4479W        W 8543   5.636   6.605  10.254
 4480W        W 8544   9.372   1.515  10.771
 4481W        W 8545   8.253   3.746  10.258
 4482W        W 8546   0.698   5.497  11.384
 4483W        W 8547   0.436   1.896   0.879
 4484W        W 8548   4.128   7.054   0.712
 4485W        W 8549   4.234   0.742  11.836
 4486W        W 8550   5.298   8.549   9.361
 4487W        W 8551   1.813   2.111   9.832
 4488W        W 8552   3.302   6.110   9.578
 4489W        W 8553   7.052  10.083   0.312
 4490W        W 8554   1.597   7.747   3.729
 4491W        W 8555   8.413   3.288   9.806
 4492W        W 8556   6.562   2.130  11.480
 4493W        W 8557   1.788   6.983  10.285
 4494W        W 8558   0.365   6.048   1.986
 4495W        W 8559   5.973   7.108   9.586
 4496W        W 8560   2.657   5.124   3.329
 4497W        W 8561   1.889   0.338   1.758
 4498W        W 8562   1.698   7.970  11.936
 4499W        W 8563   6.276   8.263  10.283
 4500W        W 8564   7.068   2.213   2.494
 4501W        W 8565   6.149   8.929   9.077
 4502W        W 8566   8.889   6.187  10.395
 4503W        W 8567   6.320   2.797   3.208
 4504W        W 8568   7.097   2.729   1.194
 4505W        W 8569   9.928   6.501  11.430
 4506W        W 8570   9.501   3.752   1.428
 4507W        W 8571   0.838   6.063   2.264
 4508W        W 8572   7.791   8.147   1.038
 4509W        W 8573   4.243   3.288   3.532
 4510W        W 8574   0.539   8.952   0.219
 4511W        W 8575   5.685   0.275   2.343
 4512W        W 8576   2.151   0.367  10.260
 4513W        W 8577   9.849   6.577   9.380
 4514W        W 8578   3.788   2.973   0.467
 4515W        W 8579   8.864   4.608   9.658
 4516W        W 8580   0.964   9.432  11.534
 4517W        W 8581   1.324   1.443   2.746
 4518W        W 8582   1.849   5.721  12.004
 4519W        W 8583   7.904   7.180  11.187
 4520W        W 8584   9.170   0.037   3.135
 4521W        W 8585   1.490   9.506   0.884
 4522W        W 8586   8.591   0.263   2.027
 4523W        W 8587  10.450   4.185   1.737
 4524W        W 8588   7.151   5.170   1.449
 4525W        W 8589   8.465  10.424   2.383
 4526W        W 8590   3.178   3.331  11.556
 4527W        W 8591   4.640   6.851   0.437
 4528W        W 8592   3.410   5.707  10.770
 4529W        W 8593   9.712   5.687   8.915
 4530W        W 8594   7.849   9.073  10.962
 4531W        W 8595   2.941   0.495  11.775
 4532W        W 8596   9.078   3.752   9.910
 4533W        W 8597   5.719   5.281   2.228
 4534W        W 8598   4.241  10.320   2.243
 4535W        W 8599   0.439   8.105   1.896
 4536W        W 8600   0.917   6.613  11.085
 4537W        W 8601   0.869   3.946   8.169
 4538W        W 8602   5.723   6.885   2.755
 4539W        W 8603   8.356   2.125  10.767
 4540W        W 8604   6.758   0.792  10.849
 4541W        W 8605   5.818   1.514  10.327
 4542W        W 8606   8.272   7.283  11.517
 4543W        W 8607   5.069   9.115   2.321
 4544W        W 8608   7.015   5.260   9.821
 4545W        W 8609   9.833   5.954   0.454
 4546W        W 8610   6.953   3.289   9.745
 4547W        W 8611   4.745   3.806   2.503
 4548W        W 8612   8.669   7.141   9.826
 4549W        W 8613   5.534   7.629   3.245
 4550W        W 8614   3.557   7.150  10.896
 4551W        W 8615   3.025   0.658  11.054
 4552W        W 8616   8.052   8.960  11.896
 4553W        W 8617   9.814   5.099  11.917
 4554W        W 8618   8.983   1.875   9.587
 4555W        W 8619   6.133   3.778  11.783
 4556W        W 8620   7.381   0.331  10.344
 4557W        W 8621   1.124   2.230  10.907
 4558W        W 8622   3.302   3.305   1.327
 4559W        W 8623   8.989   7.849   2.794
 4560W        W 8624   4.735   9.410   0.608
 4561W        W 8625   7.062   1.760   1.394
 4562W        W 8626   2.244   8.619  10.094
 4563W        W 8627   4.343   9.724  10.872
 4564W        W 8628   3.113   5.549   1.871
 4565W        W 8629   5.710   3.089   9.307
 4566W        W 8630   7.204   8.124  10.313
 4567W        W 8631   6.659   5.333   1.504
 4568W        W 8632   9.809   0.750  11.696
 4569W        W 8633   3.930   9.814  11.696
 4570W        W 8634   3.694   6.948   1.509
 4571W        W 8635   1.474   0.202   1.502
 4572W        W 8636   6.068   5.787  11.344
 4573W        W 8637   3.843   3.998   2.193
 4574W        W 8638   4.077   4.295   2.572
 4575W        W 8639   3.242   4.743   3.206
 4576W        W 8640   9.102   6.913   2.741
 4577W        W 8641   2.591   8.394   3.573
 4578W        W 8642   3.859   0.859   1.696
 4579W        W 8643   4.846   6.695   9.869
 4580W        W 8644   2.564   0.228  11.454
 4581W        W 8645   3.363   3.129  10.914
 4582W        W 8646   9.406   9.358   3.430
 4583W        W 8647   6.973   2.917  11.341
 4584W        W 8648   1.302   1.579   1.680
 4585W        W 8649   5.080   6.920   1.216
 4586W        W 8650   7.046   7.220   2.297
 4587W        W 8651   8.027   7.089   2.394
 4588W        W 8652   5.509   3.805   2.684
 4589W        W 8653   8.717   9.800   3.426
 4590W        W 8654   3.651   4.703   1.457
 4591W        W 8655   5.967   8.342  11.932
 4592W        W 8656   1.242   8.054   2.517
 4593W        W 8657   7.880   0.374   2.819
 4594W        W 8658   1.896   8.835  10.996
 4595W        W 8659   1.882   9.461  10.051
 4596W        W 8660   4.648   2.856   2.918
 4597W        W 8661   9.963   1.362   1.511
 4598W        W 8662   6.180   0.427   2.371
 4599W        W 8663   6.595   7.066   1.282
 4600W        W 8664   3.824   4.084   0.142
 4601W        W 8665   3.656   0.668   3.243
 4602W        W 8666   7.833   5.275   9.873
 4603W        W 8667   7.096   8.547  10.011
 4604W        W 8668   4.720   9.042  10.222
 4605W        W 8669   0.827   0.923   1.876
 4606W        W 8670   4.251   7.479   0.474
 4607W        W 8671   2.751   1.045   0.660
 4608W        W 8672   2.760   0.496   2.934
 4609W        W 8673   7.654   3.297   0.713
 4610W        W 8674   4.155   5.350  10.072
 4611W        W 8675   0.546   2.709   2.770
 4612W        W 8676   4.240   4.380   9.031
 4613W        W 8677   7.368   3.865   0.079
 4614W        W 8678   1.925   6.467  10.313
 4615W        W 8679   3.699   4.576  11.951
 4616W        W 8680   8.430   9.006   2.813
 4617W        W 8681   6.413   8.132  10.775
 4618W        W 8682  10.446   6.499  11.349
 4619W        W 8683   6.034   5.546   9.021
 4620W        W 8684   0.732   5.898   2.743
 4621W        W 8685   0.066   6.598   1.219
 4622W        W 8686   8.661  10.453  10.879
 4623W        W 8687   0.020   2.654  10.007
 4624W        W 8688   9.824   5.163  11.051
 4625W        W 8689   5.067   2.816  11.421
 4626W        W 8690   0.611   9.007  11.332
 4627W        W 8691   2.737   2.327   8.444
 4628W        W 8692   8.686   1.012   9.365
 4629W        W 8693   3.501   4.162  11.756
 4630W        W 8694   8.779   8.817  10.620
 4631W        W 8695   8.494   4.990   2.249
 4632W        W 8696   1.127   2.927   0.945
 4633W        W 8697   9.352   6.535   9.219
 4634W        W 8698   7.115   8.352   0.825
 4635W        W 8699   9.875   2.229   1.648
 4636W        W 8700   5.611   4.752   2.860
 4637W        W 8701   2.931  10.420  10.158
 4638W        W 8702   4.506   0.582   2.520
 4639W        W 8703   6.798   6.144   9.931
 4640W        W 8704   5.923   8.629   3.398
 4641W        W 8705   3.074   8.080   2.588
 4642W        W 8706   5.101   9.035   8.916
 4643W        W 8707   6.559   3.605  10.007
 4644W        W 8708   2.558   3.311   9.845
 4645W        W 8709   0.944   6.153  10.863
 4646W        W 8710   9.010   7.468   3.147
 4647W        W 8711   6.950   6.568   3.685
 4648W        W 8712  10.356   4.712   9.833
 4649W        W 8713   5.472   0.443   1.858
 4650W        W 8714   5.485   3.612   1.921
 4651W        W 8715   8.484   7.684   1.486
 4652W        W 8716   6.507   4.612   4.087
 4653W        W 8717   1.799   9.806   1.181
 4654W        W 8718   8.624   4.135   9.478
 4655W        W 8719   0.365   2.886  11.945
 4656W        W 8720   4.998   8.598   2.957
 4657W        W 8721   8.304   5.142   3.509
 4658W        W 8722   8.022  10.309   8.822
 4659W        W 8723  10.432   2.489  11.933
 4660W        W 8724   4.290   8.593   2.835
 4661W        W 8725   9.568  10.070  10.892
 4662W        W 8726   3.904   4.630   9.371
 4663W        W 8727   1.176   7.433   9.066
 4664W        W 8728   4.781   2.095  11.763
 4665W        W 8729   8.763   0.133  11.368
 4666W        W 8730   3.960   5.622   8.486
 4667W        W 8731   3.740   2.266   1.513
 4668W        W 8732   2.200   2.371   8.996
 4669W        W 8733   7.391   4.583   0.809
 4670W        W 8734   5.160   0.844   9.433
 4671W        W 8735   7.027   8.483   1.788
 4672W        W 8736   9.245   3.278   3.270
 4673W        W 8737   0.859   0.993   8.896
 4674W        W 8738   1.175   7.990  11.083
 4675W        W 8739   0.012   0.551   2.182
 4676W        W 8740   5.659   7.033  10.935
 4677W        W 8741   6.566  10.139   3.455
 4678W        W 8742   8.495   1.497  10.833
 4679W        W 8743   7.432   4.700  10.721
 4680W        W 8744   4.711   4.677  10.461
 4681W        W 8745   3.766   0.894  11.681
 4682W        W 8746   9.601   3.838  10.321
 4683W        W 8747   8.661   3.209   9.341
 4684W        W 8748   3.332   5.523  11.991
 4685W        W 8749   5.685   4.810   9.843
 4686W        W 8750   0.249   0.827  10.180
 4687W        W 8751   3.191   5.886   8.528
 4688W        W 8752   1.763   7.951  10.404
 4689W        W 8753   6.561  10.228   1.859
 4690W        W 8754   8.083   9.876   1.876
 4691W        W 8755   4.612   7.871  11.182
 4692W        W 8756   2.607   0.896   1.161
 4693W        W 8757   6.210   7.405   0.013
 4694W        W 8758   9.281   2.470   9.574
 4695W        W 8759   1.821   6.786   2.774
 4696W        W 8760   1.671   6.849   9.802
 4697W        W 8761   0.202   2.007   9.510
 4698W        W 8762   8.536   6.046  11.835
 4699W        W 8763   3.179   2.852   8.904
 4700W        W 8764   9.871   0.779   1.739
 4701W        W 8765   5.477   8.993   0.801
 4702W        W 8766   6.115   3.251  11.664
 4703W        W 8767   9.977   1.712  11.924
 4704W        W 8768   3.011   4.106  11.842
 4705W        W 8769   1.708   1.333  10.265
 4706W        W 8770   3.580   0.062  11.242
 4707W        W 8771   0.364   6.922   8.931
 4708W        W 8772   7.044   5.692   1.382
 4709W        W 8773   5.487   2.860   9.717
 4710W        W 8774   8.513   2.224   1.716
 4711W        W 8775   8.465   9.754   0.228
 4712W        W 8776   6.443   9.347   0.371
 4713W        W 8777   6.975   4.708   4.317
 4714W        W 8778   8.543   3.800   9.849
 4715W        W 8779   3.245   2.324   1.435
 4716W        W 8780   1.390   5.227   1.380
 4717W        W 8781   0.109   0.751   3.170
 4718W        W 8782   7.860   4.972  10.978
 4719W        W 8783   0.700   4.975   9.776
 4720W        W 8784  10.281   5.666   9.632
 4721W        W 8785  10.059   3.650   8.517
 4722W        W 8786   9.120   4.739  10.639
 4723W        W 8787   7.621   0.417   0.356
 4724W        W 8788   5.285   4.045   2.290
 4725W        W 8789   9.914   9.954   3.071
 4726W        W 8790   1.927   8.315  11.019
 4727W        W 8791   9.253   4.051  11.800
 4728W        W 8792   1.395   5.560  10.037
 4729W        W 8793   2.209   8.452   9.560
 4730W        W 8794   8.447   6.444  11.278
 4731W        W 8795   8.443   8.349   2.944
 4732W        W 8796   7.702   9.980   1.303
 4733W        W 8797   7.084   3.573  10.162
 4734W        W 8798   9.396   6.013  10.887
 4735W        W 8799   7.765  10.242   1.738
 4736W        W 8800   4.749   5.775   9.592
 4737W        W 8801   6.168   6.281   2.283
 4738W        W 8802   7.539   2.159  10.254
 4739W        W 8803   6.623   0.216   0.705
 4740W        W 8804   6.109   0.784   8.432
 4741W        W 8805   7.383   0.880   0.390
 4742W        W 8806   9.576   3.844   9.810
 4743W        W 8807  10.379   9.218   2.061
 4744W        W 8808   6.101   8.060   1.905
 4745W        W 8809  10.203   1.557   0.345
 4746W        W 8810   7.099   5.081   0.167
 4747W        W 8811   8.576   3.067   2.311
 4748W        W 8812   2.792   5.202   9.048
 4749W        W 8813   8.261   6.188   9.942
 4750W        W 8814   4.220   6.720  10.563
 4751W        W 8815   3.631   3.664   8.931
 4752W        W 8816   0.839   3.532   8.721
 4753W        W 8817   4.318   3.307  10.462
 4754W        W 8818   3.680   6.722  10.053
 4755W        W 8819   0.758   0.834   3.129
 4756W        W 8820   2.772   8.341  10.873
 4757W        W 8821   4.660   4.936   9.341
 4758W        W 8822   5.520   5.862  10.757
 4759W        W 8823   5.318   5.053   1.946
 4760W        W 8824   7.564   0.796   9.573
 4761W        W 8825   5.153   6.215  11.039
 4762W        W 8826   6.558   6.139   3.035
 4763W        W 8827   5.483   1.327   9.461
 4764W        W 8828  10.436   3.510   0.458
 4765W        W 8829   2.485   5.262  11.495
 4766W        W 8830  10.039   4.004   3.628
 4767W        W 8831   9.385   6.638   2.407
 4768W        W 8832   2.659   1.231   9.439
 4769W        W 8833  10.434   9.122  10.874
 4770W        W 8834   0.892   3.119   0.063
 4771W        W 8835   4.596   6.362   3.649
 4772W        W 8836   2.445   5.145  11.990
 4773W        W 8837   7.769   0.641  10.090
 4774W        W 8838   0.914   0.139   3.638
 4775W        W 8839   3.110  10.429   1.429
 4776W        W 8840   8.380   7.452   2.494
 4777W        W 8841   8.503   7.539   2.977
 4778W        W 8842   0.851   7.674   0.333
 4779W        W 8843   0.954   9.519   0.921
 4780W        W 8844   0.954   9.857  11.259
 4781W        W 8845   8.720   9.787  11.771
 4782W        W 8846   1.054   6.289   2.817
 4783W        W 8847  10.427   9.969   0.881
 4784W        W 8848   4.580   2.987  11.428
 4785W        W 8849   1.843   0.840   2.924
 4786W        W 8850   1.691   2.550   2.357
 4787W        W 8851   5.993   0.524   0.140
 4788W        W 8852   8.027   4.879   1.124
 4789W        W 8853   2.709   2.412   2.381
 4790W        W 8854   0.275   3.654  10.514
 4791W        W 8855   3.619   6.216  10.049
 4792W        W 8856   6.558   5.209   0.890
 4793W        W 8857   6.579   5.926   9.541
 4794W        W 8858   6.696   8.685   0.855
 4795W        W 8859   2.349   0.792   2.815
 4796W        W 8860   6.751   9.113   0.029
 4797W        W 8861   1.767   3.089   8.876
 4798W        W 8862   4.985   7.348   9.945
 4799W        W 8863   1.923  10.009   0.268
 4800W        W 8864   8.837   1.758   8.374
 4801W        W 8865   6.575   0.689   2.201
 4802W        W 8866   9.514   6.607   3.109
 4803W        W 8867   2.243   3.390   8.878
 4804W        W 8868   1.761   7.452   0.168
 4805W        W 8869   1.300   6.111  10.452
 4806W        W 8870   3.839   4.638   8.819
 4807W        W 8871   3.754   8.565   9.081
 4808W        W 8872   4.063   2.387   8.964
 4809W        W 8873   1.179   7.998   9.622
 4810W        W 8874   4.282   4.858   8.114
 4811W        W 8875   3.929   2.751  10.877
 4812W        W 8876   4.030   0.008   1.826
 4813W        W 8877   6.576   9.964   1.267
 4814W        W 8878   7.025   6.218   2.200
 4815W        W 8879   4.298  10.062   9.470
 4816W        W 8880   3.658   0.811   0.688
 4817W        W 8881  10.407   3.574   0.975
 4818W        W 8882   1.236   1.084  11.558
 4819W        W 8883   9.584   7.877   0.810
 4820W        W 8884   5.558   3.446   8.960
 4821W        W 8885   6.998   2.428  11.540
 4822W        W 8886   0.989   4.206  11.328
 4823W        W 8887   9.454   0.023  10.708
 4824W        W 8888   1.245  10.223   9.906
 4825W        W 8889   4.339   0.508  11.338
 4826W        W 8890   2.708   9.983   9.931
 4827W        W 8891   4.126   2.953   3.149
 4828W        W 8892  10.459   9.440  10.500
 4829W        W 8893   3.325   8.396   1.574
 4830W        W 8894   3.393   3.192   2.628
 4831W        W 8895   3.270   5.175  10.276
 4832W        W 8896   5.234   0.023   2.293
 4833W        W 8897   9.466   1.926   1.478
 4834W        W 8898   4.124   8.948   3.305
 4835W        W 8899   2.321   5.273   8.790
 4836W        W 8900   7.937   8.462   0.123
 4837W        W 8901   0.519   4.323   9.291
 4838W        W 8902   4.622   6.990   3.949
 4839W        W 8903   9.867   4.661   0.762
 4840W        W 8904   8.145   9.057   1.782
 4841W        W 8905   0.672   9.887  10.834
 4842W        W 8906   5.185   0.416  11.663
 4843W        W 8907   4.952   7.066   9.516
 4844W        W 8908   9.753   4.153  11.795
 4845W        W 8909   1.346   5.787   8.503
 4846W        W 8910   5.707   9.880  10.326
 4847W        W 8911   2.364   4.641   2.226
 4848W        W 8912   4.134   6.907  10.069
 4849W        W 8913   6.950   4.409   1.055
 4850W        W 8914   5.736  10.077   0.016
 4851W        W 8915   9.386   2.889   8.669
 4852W        W 8916   8.107   4.334  11.299
 4853W        W 8917   6.614   9.934  10.379
 4854W        W 8918   5.485   3.596   3.913
 4855W        W 8919   2.948   6.433  11.874
 4856W        W 8920   6.978   7.090   3.632
 4857W        W 8921   2.348   0.020   2.346
 4858W        W 8922   9.728   2.174  10.248
 4859W        W 8923   6.972   4.618   0.546
 4860W        W 8924   3.676   9.501   2.196
 4861W        W 8925   0.251   4.248   3.031
 4862W        W 8926   3.085   0.454   8.932
 4863W        W 8927   0.698   6.693   1.888
 4864W        W 8928   6.640   2.582  11.903
 4865W        W 8929   6.333   9.186   3.679
 4866W        W 8930   4.708   1.831  10.069
 4867W        W 8931   0.660   3.681   2.522
 4868W        W 8932   4.510   0.355   8.911
 4869W        W 8933   0.909   6.364   0.882
 4870W        W 8934   0.335   2.348  11.010
 4871W        W 8935  10.351   0.923   1.010
 4872W        W 8936   3.596   3.667  11.937
 4873W        W 8937   7.561   8.772  11.951
 4874W        W 8938   8.518   1.374  10.077
 4875W        W 8939   7.073   7.562  10.692
 4876W        W 8940   0.309  10.077   1.189
 4877W        W 8941   5.136   6.909   0.288
 4878W        W 8942   4.918   0.033   1.405
 4879W        W 8943   4.329   6.999   1.810
 4880W        W 8944   6.467   0.288   9.837
 4881W        W 8945   0.776  10.395   0.341
 4882W        W 8946   8.373   3.157  10.326
 4883W        W 8947   2.998   5.292   0.905
 4884W        W 8948   5.986   3.223   2.688
 4885W        W 8949   2.419   6.471   9.439
 4886W        W 8950   4.913   3.252   3.472
 4887W        W 8951   6.940   0.782  10.378
 4888W        W 8952   6.321   4.576   2.075
 4889W        W 8953   1.884   8.443  10.521
 4890W        W 8954   2.649   0.721  11.398
 4891W        W 8955   7.775   1.170   8.380
 4892W        W 8956   9.464   6.730   1.363
 4893W        W 8957   0.981   0.246   1.387
 4894W        W 8958   7.205   7.717   2.264
 4895W        W 8959   5.150   7.588  10.389
 4896W        W 8960   9.429   9.512   1.577
 4897W        W 8961  10.500   8.509   1.308
 4898W        W 8962   7.402   6.654   2.838
 4899W        W 8963   8.644   2.241   8.845
 4900W        W 8964   8.184   9.990  11.895
 4901W        W 8965   2.335   2.692   8.584
 4902W        W 8966   6.656   4.889   1.812
 4903W        W 8967   0.171   8.495   0.817
 4904W        W 8968   9.280   2.745   2.684
 4905W        W 8969   4.413   6.179  11.438
 4906W        W 8970   3.122  10.307   0.478
 4907W        W 8971   8.936   1.182  10.752
 4908W        W 8972   2.818   1.249   8.626
 4909W        W 8973   8.842   2.597  10.446
 4910W        W 8974   7.788   4.974   9.194
 4911W        W 8975   0.831   4.479   9.655
 4912W        W 8976   6.414   2.867  10.437
 4913W        W 8977   0.226   8.989   0.657
 4914W        W 8978   6.451   1.154   2.399
 4915W        W 8979   5.900   3.643   4.229
 4916W        W 8980   6.459   7.369   2.606
 4917W        W 8981   7.595   3.794   2.970
 4918W        W 8982   9.647   3.232   1.785
 4919W        W 8983   9.363   1.804  11.230
 4920W        W 8984   9.439   7.774   0.310
 4921W        W 8985   1.467   8.790   0.127
 4922W        W 8986   7.032   5.475   9.209
 4923W        W 8987   0.037   4.145  10.514
 4924W        W 8988   7.711   8.057  10.392
 4925W        W 8989   0.739   7.098   3.326
 4926W        W 8990   0.603   9.850   2.113
 4927W        W 8991   2.208   1.280  10.976
 4928W        W 8992   3.283   6.009  11.871
 4929W        W 8993   0.027   3.317  11.096
 4930W        W 8994   8.549   3.313   1.191
 4931W        W 8995   4.506   6.449   1.711
 4932W        W 8996   5.988   2.612  10.442
 4933W        W 8997   1.671   7.986   2.830
 4934W        W 8998   6.918   9.555   9.969
 4935W        W 8999   7.207   6.579  11.215
 4936W        W 9000   2.488   7.541   2.743
 4937W        W 9001   7.281   1.672   0.946
 4938W        W 9002   6.244   4.489   3.376
 4939W        W 9003   6.044   0.428  10.100
 4940W        W 9004   0.169   4.706   1.951
 4941W        W 9005   0.439   3.998   3.471
 4942W        W 9006   9.952   3.522   0.266
 4943W        W 9007   7.976   7.213   1.883
 4944W        W 9008   4.694   4.163   3.711
 4945W        W 9009   9.988   9.076   2.389
 4946W        W 9010   8.521   4.946   8.413
 4947W        W 9011   7.456   4.171  10.456
 4948W        W 9012   2.240   1.138  11.852
 4949W        W 9013   0.779   3.688   2.025
 4950W        W 9014   9.084   1.671   1.221
 4951W        W 9015   4.438   4.207  11.887
 4952W        W 9016   5.570   1.389   1.546
 4953W        W 9017   7.481   0.748   2.622
 4954W        W 9018   6.644   4.712   3.601
 4955W        W 9019   1.019   9.000   1.655
 4956W        W 9020   1.981   6.212   9.446
 4957W        W 9021   3.709   2.646   3.270
 4958W        W 9022   2.333   4.276  10.037
 4959W        W 9023   7.637   7.919   3.099
 4960W        W 9024   8.837   8.976   3.131
 4961W        W 9025   0.178   4.765   0.295
 4962W        W 9026   2.764   4.838  11.642
 4963W        W 9027   6.231   8.369   9.775
 4964W        W 9028   0.988   3.542   2.883
 4965W        W 9029   6.877   8.984   2.219
 4966W        W 9030   2.638   8.523   1.659
 4967W        W 9031   6.967   3.822  11.328
 4968W        W 9032  10.414   8.754   3.393
 4969W        W 9033   1.981   2.548  11.861
 4970W        W 9034   5.613   0.886   9.193
 4971W        W 9035   7.587   8.663   2.813
 4972W        W 9036   0.749   4.341   3.252
 4973W        W 9037   5.417   3.307   9.938
 4974W        W 9038   3.111   4.091   2.801
 4975W        W 9039   7.839   4.522  11.687
 4976W        W 9040   1.390   2.990   2.130
 4977W        W 9041   7.615   9.771   2.035
 4978W        W 9042   0.804   3.160   0.577
 4979W        W 9043   3.604   6.425   2.712
 4980W        W 9044   2.743   9.047   0.710
 4981W        W 9045   9.068   6.400   3.318
 4982W        W 9046   5.476   0.599  10.691
 4983W        W 9047   0.793   9.857   2.591
 4984W        W 9048   7.553  10.077   8.693
 4985W        W 9049   4.219   7.775  11.620
 4986W        W 9050   1.985   1.027   2.459
 4987W        W 9051   2.159  10.075   1.451
 4988W        W 9052   3.598   1.942   2.593
 4989W        W 9053   7.452   4.198  10.952
 4990W        W 9054   7.234   1.803   8.936
 4991W        W 9055   8.570   6.831   1.194
 4992W        W 9056   7.919   2.694   2.224
 4993W        W 9057   9.441   5.554   9.758
 4994W        W 9058   4.655   7.855   1.868
 4995W        W 9059   4.821   0.337  11.297
 4996W        W 9060   6.406   0.856  10.477
 4997W        W 9061   1.637   2.826  10.455
 4998W        W 9062   0.744   1.730   3.342
 4999W        W 9063   4.541   7.122   9.819
 5000W        W 9064   1.816   2.631   8.621
 5001W        W 9065   9.799   5.925  10.567
 5002W        W 9066   4.827   7.572   9.488
 5003W        W 9067   3.402   6.547   9.301
 5004W        W 9068   0.491   2.557   0.297
 5005W        W 9069   1.879   4.223   8.783
 5006W        W 9070   2.151   1.750   8.737
 5007W        W 9071   2.710   3.807   9.784
 5008W        W 9072   4.822   1.175  11.368
 5009W        W 9073   1.648   5.186   0.704
 5010W        W 9074   9.931   6.118   9.113
 5011W        W 9075   9.027   4.203   2.021
 5012W        W 9076   9.194  10.069   9.386
 5013W        W 9077   6.490   9.480  10.229
 5014W        W 9078   8.268   4.497   8.553
 5015W        W 9079   8.816   2.079  11.632
 5016W        W 9080   8.132   9.254  10.125
 5017W        W 9081   9.974   2.103   3.320
 5018W        W 9082  10.219   5.675   9.101
 5019W        W 9083   7.088   6.747  10.327
 5020W        W 9084   9.961  10.263  10.523
 5021W        W 9085   2.246   0.775   8.559
 5022W        W 9086   4.749   6.009   0.514
 5023W        W 9087   8.101   6.734  10.537
 5024W        W 9088   1.235   1.966   3.142
 5025W        W 9089   8.416   5.491   1.654
 5026W        W 9090   5.547   3.355   2.928
 5027W        W 9091  10.358   7.529   2.728
 5028W        W 9092   8.872   4.134   2.962
 5029W        W 9093   0.194   5.641   9.289
 5030W        W 9094   7.640   4.615  10.271
 5031W        W 9095   6.250   0.202   1.518
 5032W        W 9096   4.300  10.040   1.752
 5033W        W 9097   7.941   9.596   0.125
 5034W        W 9098   6.479   4.568   9.940
 5035W        W 9099   9.312   8.348   9.667
 5036W        W 9100   4.163   2.231  10.878
 5037W        W 9101   0.273   4.959   1.187
 5038W        W 9102   3.874   7.209   1.912
 5039W        W 9103   1.631  10.369   1.837
 5040W        W 9104   4.725   7.402   2.791
 5041W        W 9105   8.926   9.837   8.848
 5042W        W 9106   2.103   7.189   2.931
 5043W        W 9107   1.690   1.192   3.285
 5044W        W 9108   8.069   2.140   0.422
 5045W        W 9109   7.020   6.248  10.356
 5046W        W 9110   0.716   4.338  11.750
 5047W        W 9111   5.934   7.846   0.000
 5048W        W 9112  10.334   0.925  10.507
 5049W        W 9113   9.970   6.038   1.359
 5050W        W 9114   7.510   3.645  10.475
 5051W        W 9115   1.450   0.061   0.984
 5052W        W 9116   5.955   6.592   0.297
 5053W        W 9117   2.660   7.452   0.176
 5054W        W 9118   0.227   4.055  10.058
 5055W        W 9119   5.945  10.038  11.548
 5056W        W 9120   9.335   7.884   9.401
 5057W        W 9121   4.425   0.437   8.401
 5058W        W 9122   7.937   7.701  11.352
 5059W        W 9123   6.150   5.907  11.848
 5060W        W 9124   1.836   8.972  11.708
 5061W        W 9125   6.452   6.967  11.509
 5062W        W 9126   4.744   3.382  11.702
 5063W        W 9127   8.477   2.220   2.266
 5064W        W 9128   6.903   5.182  11.239
 5065W        W 9129   5.587   7.871  11.320
 5066W        W 9130   9.383   3.710   1.911
 5067W        W 9131   2.935   0.636   2.065
 5068W        W 9132   5.294   0.455  11.154
 5069W        W 9133   2.892   8.560   0.752
 5070W        W 9134   4.070   1.544  10.590
 5071W        W 9135   1.826   4.914  11.596
 5072W        W 9136   2.821   0.110   2.224
 5073W        W 9137   4.150   0.794   0.905
 5074W        W 9138   6.159   6.776   2.360
 5075W        W 9139   3.685   6.118   0.234
 5076W        W 9140   8.811   5.978  10.866
 5077W        W 9141   7.882   9.949   3.334
 5078W        W 9142   4.138   7.524   3.525
 5079W        W 9143   2.588   7.113   3.084
 5080W        W 9144   2.776   1.251   1.492
 5081W        W 9145   1.960   7.527   0.846
 5082W        W 9146   1.215   5.723   2.829
 5083W        W 9147   8.487   7.447  11.097
 5084W        W 9148   3.945   6.768   2.869
 5085W        W 9149   7.011   7.634   0.081
 5086W        W 9150   7.930   0.084   2.076
 5087W        W 9151   0.294   2.347   2.423
 5088W        W 9152   7.965   0.877   2.778
 5089W        W 9153   5.794   3.401   8.487
 5090W        W 9154   5.237   4.646   3.205
 5091W        W 9155   6.528   1.974   2.770
 5092W        W 9156   6.646   0.675  11.775
 5093W        W 9157   1.921   9.914  11.321
 5094W        W 9158   4.715   0.912   1.684
 5095W        W 9159   9.889   8.353   1.945
 5096W        W 9160   7.575   5.731   2.592
 5097W        W 9161   0.356  10.488   3.417
 5098W        W 9162   8.157   1.813   2.201
 5099W        W 9163   9.030   1.167   1.278
 5100W        W 9164   3.838   6.434   4.120
 5101W        W 9165   6.887   3.177   8.803
 5102W        W 9166   8.705   0.388   2.545
 5103W        W 9167   1.152   6.863   1.785
 5104W        W 9168   7.933   0.946  10.479
 5105W        W 9169   9.054   9.484  11.460
 5106W        W 9170   5.060   1.264   0.902
 5107W        W 9171   9.937   0.443  11.277
 5108W        W 9172   5.944   1.055  10.494
 5109W        W 9173   9.959   6.549   1.304
 5110W        W 9174   5.585  10.211   1.433
 5111W        W 9175   7.448   2.900   0.453
 5112W        W 9176   8.580   1.707   8.817
 5113W        W 9177   6.096   9.938   2.185
 5114W        W 9178   2.279   4.663   0.239
 5115W        W 9179   1.694   8.764   0.603
 5116W        W 9180   0.317   1.204   9.041
 5117W        W 9181  10.289   5.274  11.877
 5118W        W 9182   4.037   6.664  11.932
 5119W        W 9183   8.211   0.975   9.531
 5120W        W 9184   4.331   1.770  10.954
 5121W        W 9185   5.715   5.281   1.115
 5122W        W 9186   1.688   3.118  10.049
 5123W        W 9187  10.111   7.815   3.112
 5124W        W 9188   5.607   8.877  11.195
 5125W        W 9189   4.739   0.303  10.114
 5126W        W 9190   3.635   2.450   9.597
 5127W        W 9191   3.628   2.231  11.578
 5128W        W 9192   0.493   6.356  10.752
 5129W        W 9193   9.033   0.391   1.742
 5130W        W 9194   7.125   6.698   0.212
 5131W        W 9195   7.541   9.500   1.275
 5132W        W 9196   1.609   2.506   9.599
 5133W        W 9197   1.387   6.094   8.920
 5134W        W 9198   2.481   4.144   0.368
 5135W        W 9199   0.885   8.987   2.163
 5136W        W 9200   2.285   0.554   1.436
 5137W        W 9201   6.421   9.351  11.257
 5138W        W 9202   1.489   8.634   3.665
 5139W        W 9203  10.200   7.004   1.915
 5140W        W 9204  10.348   9.297   9.494
 5141W        W 9205   0.719   9.432  11.062
 5142W        W 9206   2.498   5.117   0.904
 5143W        W 9207   0.799   2.402  11.253
 5144W        W 9208   4.180   1.237   1.185
 5145W        W 9209   6.014   5.708   0.397
 5146W        W 9210   2.254   4.236  11.859
 5147W        W 9211   9.070   8.825   0.085
 5148W        W 9212   9.458  10.009   0.237
 5149W        W 9213   4.791   6.566  11.215
 5150W        W 9214   9.409   2.289   1.860
 5151W        W 9215   1.749   7.146   9.381
 5152W        W 9216   3.904   5.486  10.821
 5153W        W 9217   4.624   3.759   0.045
 5154W        W 9218   4.363   4.285  10.449
 5155W        W 9219   2.836   0.902   9.063
 5156W        W 9220   5.302   6.241  11.874
 5157W        W 9221   4.210   0.323   1.224
 5158W        W 9222   3.190   2.387   0.550
 5159W        W 9223   8.903   1.645  10.567
 5160W        W 9224  10.351   3.711  10.227
 5161W        W 9225   6.279   9.033  10.367
 5162W        W 9226   9.543   3.189   9.072
 5163W        W 9227   1.729   9.034  10.297
 5164W        W 9228   6.118   3.614  11.294
 5165W        W 9229   0.816   1.245   3.410
 5166W        W 9230   3.542  10.475   1.706
 5167W        W 9231   4.989   9.535   8.751
 5168W        W 9232   0.351   9.093  11.769
 5169W        W 9233   2.238   8.818   8.816
 5170W        W 9234   0.403   1.334   1.218
 5171W        W 9235   6.462   3.815   1.506
 5172W        W 9236   2.809   5.968   2.600
 5173W        W 9237   0.238   5.492   2.732
 5174W        W 9238   0.863   4.409   2.693
 5175W        W 9239   3.529   2.156  10.014
 5176W        W 9240   4.638   6.037   9.125
 5177W        W 9241   7.014   6.375   0.870
 5178W        W 9242   8.125   8.769   2.194
 5179W        W 9243   5.184   7.221  10.891
 5180W        W 9244   8.946   1.560  11.080
 5181W        W 9245   9.810   4.379   8.921
 5182W        W 9246   0.424   1.502   2.130
 5183W        W 9247   1.277   7.631   2.792
 5184W        W 9248   0.483   6.005   0.152
 5185W        W 9249   6.248   6.514  10.609
 5186W        W 9250   8.286   3.655   1.843
 5187W        W 9251   9.007   6.089   9.430
 5188W        W 9252   0.631   5.369  10.516
 5189W        W 9253   2.214   0.253   8.562
 5190W        W 9254   1.666   8.672   2.353
 5191W        W 9255   5.627   8.502   0.701
 5192W        W 9256   5.219   6.024   0.318
 5193W        W 9257   4.537   1.938   3.195
 5194W        W 9258   4.089   3.753   9.856
 5195W        W 9259   2.907   6.061  11.517
 5196W        W 9260   0.871   1.380  11.748
 5197W        W 9261   6.276   1.675   0.964
 5198W        W 9262   8.211   0.359   2.441
 5199W        W 9263   9.504   7.100   3.011
 5200W        W 9264   3.123   8.052  10.586
 5201W        W 9265  10.161   2.184   9.936
 5202W        W 9266   7.713   8.997   0.378
 5203W        W 9267   5.872   6.521   1.394
 5204W        W 9268   4.583  10.062   1.306
 5205W        W 9269   7.122   8.562  11.037
 5206W        W 9270   1.459   6.138  11.814
 5207W        W 9271   8.682   5.577  11.198
 5208W        W 9272   2.119   7.885   9.184
 5209W        W 9273   4.206   4.016   3.535
 5210W        W 9274   1.635   9.942   3.196
 5211W        W 9275   7.386   4.037   8.653
 5212W        W 9276   8.055   9.476   9.188
 5213W        W 9277   1.940   5.029   0.103
 5214W        W 9278   4.283   8.388   2.276
 5215W        W 9279   0.407   4.148   2.533
 5216W        W 9280   5.499   6.393   1.750
 5217W        W 9281   7.344   9.028   1.320
 5218W        W 9282   7.709   3.731   1.016
 5219W        W 9283   1.340   4.708   2.702
 5220W        W 9284   4.229   6.194   9.414
 5221W        W 9285   6.089   3.028   1.206
 5222W        W 9286   6.151   9.968  10.574
 5223W        W 9287   7.656   1.844   9.247
 5224W        W 9288   8.076   7.584  11.864
 5225W        W 9289  10.218   1.885   9.530
 5226W        W 9290   5.072   5.045   2.397
 5227W        W 9291   5.817   8.173  10.505
 5228W        W 9292   9.200   5.574   8.777
 5229W        W 9293   1.711  10.281   1.317
 5230W        W 9294   2.654   2.223   9.301
 5231W        W 9295   7.727   6.059   0.447
 5232W        W 9296   4.361   8.570   1.301
 5233W        W 9297   6.892   3.946   1.232
 5234W        W 9298   9.444   5.565   3.153
 5235W        W 9299   5.077   8.596   0.134
 5236W        W 9300   4.824   2.285  10.257
 5237W        W 9301   9.417   1.886   2.982
 5238W        W 9302   2.439   2.810   2.186
 5239W        W 9303   8.720   1.172   2.511
 5240W        W 9304   1.432   9.476   3.117
 5241W        W 9305   7.220   0.567  10.843
 5242W        W 9306   0.820   4.185   2.223
 5243W        W 9307  10.235   4.488   2.108
 5244W        W 9308   5.432   6.023   3.381
 5245W        W 9309   8.635   0.484   0.656
 5246W        W 9310   4.503   4.037   9.317
 5247W        W 9311   6.601   7.443   0.343
 5248W        W 9312   1.490  10.207   0.080
 5249W        W 9313   0.811   2.179   8.502
 5250W        W 9314   2.935   8.125   1.850
 5251W        W 9315   8.474   6.471  10.323
 5252W        W 9316   2.143   4.246   1.865
 5253W        W 9317   5.005  10.093   8.437
 5254W        W 9318   2.043   1.832   1.092
 5255W        W 9319   0.353   3.427   9.482
 5256W        W 9320   9.460   3.295   0.891
 5257W        W 9321   4.967   7.795   1.111
 5258W        W 9322   6.487   3.767   3.481
 5259W        W 9323   9.909   3.047   9.834
 5260W        W 9324   0.480   5.054   1.663
 5261W        W 9325   2.201   2.216   8.488
 5262W        W 9326   9.139   8.707   2.358
 5263W        W 9327   9.474   0.008   9.481
 5264W        W 9328   6.440   8.197  11.851
 5265W        W 9329  10.421   9.746   9.845
 5266W        W 9330   9.677   2.158   9.738
 5267W        W 9331   8.914   0.672   1.307
 5268W        W 9332   9.416   7.441   9.625
 5269W        W 9333   4.864   1.349   0.447
 5270W        W 9334   2.017   6.141   2.742
 5271W        W 9335   6.111   2.232   2.623
 5272W        W 9336   9.765   9.492   0.396
 5273W        W 9337   9.987   1.183   2.964
 5274W        W 9338   3.396   2.802   1.415
 5275W        W 9339   1.780   5.164   2.185
 5276W        W 9340   4.582   3.671   3.497
 5277W        W 9341   4.618   0.944   0.674
 5278W        W 9342   7.616   8.757   3.341
 5279W        W 9343   1.669   5.739  11.519
 5280W        W 9344   4.860   4.373   9.592
 5281W        W 9345   5.550   7.425   0.764
 5282W        W 9346   7.812   8.039  10.950
 5283W        W 9347   3.201   5.525   8.917
 5284W        W 9348   3.918   6.156  11.364
 5285W        W 9349   9.272  10.437   1.737
 5286W        W 9350   7.007   0.781   2.443
 5287W        W 9351   5.195   7.057   2.652
 5288W        W 9352   0.452   6.868   1.445
 5289W        W 9353   2.949   3.212   3.471
 5290W        W 9354   0.833   2.318   2.602
 5291W        W 9355  10.005   4.115  11.349
 5292W        W 9356   0.195   6.117   8.343
 5293W        W 9357   5.031   7.037   3.445
 5294W        W 9358   9.718   2.886   2.895
 5295W        W 9359   7.411  10.002  11.479
 5296W        W 9360  10.421   3.096   0.755
 5297W        W 9361   9.382   9.491   1.058
 5298W        W 9362   4.634   8.112   0.893
 5299W        W 9363   8.860   9.946   0.503
 5300W        W 9364   4.292   0.416   9.901
 5301W        W 9365   8.474   5.402   9.518
 5302W        W 9366  10.391   2.137   9.090
 5303W        W 9367   2.560   9.666   2.293
 5304W        W 9368   5.276   7.390   1.193
 5305W        W 9369   1.753   6.171   0.756
 5306W        W 9370   9.511   0.502  10.973
 5307W        W 9371  10.044   8.855   1.893
 5308W        W 9372   9.684   0.832   9.446
 5309W        W 9373   9.300   5.895   2.718
 5310W        W 9374   5.226   8.348   1.942
 5311W        W 9375   2.154   0.440   9.377
 5312W        W 9376   4.003  10.251   1.374
 5313W        W 9377   0.316   0.290  10.247
 5314W        W 9378   4.046   5.003   1.272
 5315W        W 9379   3.186   0.871   0.438
 5316W        W 9380  10.050   2.437   8.824
 5317W        W 9381  10.255   5.167   3.272
 5318W        W 9382   9.074   3.224   0.401
 5319W        W 9383   6.985  10.437  10.954
 5320W        W 9384   4.069   4.444   1.333
 5321W        W 9385   6.064   9.002  11.364
 5322W        W 9386   1.969   4.243  10.410
 5323W        W 9387   7.581   1.453  11.638
 5324W        W 9388   2.904   9.829   0.469
 5325W        W 9389   7.664   5.247   2.660
 5326W        W 9390   0.970   8.526   8.827
 5327W        W 9391  10.305   4.529  11.353
 5328W        W 9392   0.779   4.487   1.337
 5329W        W 9393   3.026   0.976   9.704
 5330W        W 9394   1.196   8.951   9.020
 5331W        W 9395   7.480   3.824   2.422
 5332W        W 9396   5.236   5.866  11.375
 5333W        W 9397   4.347   7.077   2.829
 5334W        W 9398   7.494   3.714   3.485
 5335W        W 9399   0.195   3.037   3.105
 5336W        W 9400   7.478   7.047   1.925
 5337W        W 9401   2.720   6.528   3.246
 5338W        W 9402   5.093   2.600   2.871
 5339W        W 9403   2.356   6.878   0.613
 5340W        W 9404   9.103   6.896   3.260
 5341W        W 9405   8.356   0.891   0.510
 5342W        W 9406   5.387   6.509   1.250
 5343W        W 9407   2.267   7.547   2.235
 5344W        W 9408   5.013   9.444  11.257
 5345W        W 9409   9.875   0.736   3.152
 5346W        W 9410   9.364   2.872   1.169
 5347W        W 9411   0.798   7.438   9.980
 5348W        W 9412   5.191   4.725   8.735
 5349W        W 9413   6.434   1.386   9.005
 5350W        W 9414   1.527   2.750   1.257
 5351W        W 9415   9.410   8.523  10.436
 5352W        W 9416   0.643   6.483   0.019
 5353W        W 9417   1.368   8.458   9.176
 5354W        W 9418   7.554   7.079   1.179
 5355W        W 9419   4.259   6.756   4.249
 5356W        W 9420   0.489   0.363   1.466
 5357W        W 9421   8.178   8.027  10.592
 5358W        W 9422   4.130   6.154  11.897
 5359W        W 9423   7.981   5.863   9.076
 5360W        W 9424   9.950   7.858   1.792
 5361W        W 9425   5.607   8.950  10.681
 5362W        W 9426   7.844   1.400   1.987
 5363W        W 9427   0.219   0.265   2.998
 5364W        W 9428   1.276   3.683   1.551
 5365W        W 9429   8.386   6.984   0.731
 5366W        W 9430   1.279   7.061   9.502
 5367W        W 9431   4.124   5.349   8.902
 5368W        W 9432   6.140   3.525   2.253
 5369W        W 9433   9.790   2.676   1.932
 5370W        W 9434   6.548   6.161   0.825
 5371W        W 9435   9.389   4.723   9.277
 5372W        W 9436   1.562   1.320   0.540
 5373W        W 9437   9.470   5.632  11.273
 5374W        W 9438   0.767   2.993  10.537
 5375W        W 9439   2.442   5.584   3.240
 5376W        W 9440   0.643   9.406   2.366
 5377W        W 9441   2.411   0.369   9.816
 5378W        W 9442   9.944   1.837   1.299
 5379W        W 9443   2.244   7.292  11.896
 5380W        W 9444   6.930   3.773  11.843
 5381W        W 9445   4.623   8.305   3.171
 5382W        W 9446   5.616   9.835  10.858
 5383W        W 9447   8.340   6.616   9.010
 5384W        W 9448   8.831   9.880  10.231
 5385W        W 9449   4.542   9.067   1.154
 5386W        W 9450   3.205   9.174   1.029
 5387W        W 9451   3.723   8.065   9.049
 5388W        W 9452   5.920   3.575   3.560
 5389W        W 9453   8.353   0.055   0.855
 5390W        W 9454   2.006   9.378   0.370
 5391W        W 9455   4.741   1.505  11.001
 5392W        W 9456   2.308   9.193   2.257
 5393W        W 9457   6.585   4.821  10.924
 5394W        W 9458   0.224   7.399  11.055
 5395W        W 9459   9.248   1.886   0.509
 5396W        W 9460   4.188   0.465   1.757
 5397W        W 9461   2.327   4.373   8.555
 5398W        W 9462   4.142   3.552   2.306
 5399W        W 9463   7.401   6.486   8.448
 5400W        W 9464   2.914   0.370   9.843
 5401W        W 9465   4.781   7.085   8.965
 5402W        W 9466   0.777   3.121   9.505
 5403W        W 9467   0.040   1.172   0.350
 5404W        W 9468   7.506   5.676   9.147
 5405W        W 9469   1.291   1.893   0.869
 5406W        W 9470   5.161   8.976  10.459
 5407W        W 9471  10.398   0.058  10.926
 5408W        W 9472   3.158   7.697   2.266
 5409W        W 9473   2.850   6.167   9.317
 5410W        W 9474   7.074   6.974  10.857
 5411W        W 9475   0.341   5.024  10.762
 5412W        W 9476   3.772   1.268   0.861
 5413W        W 9477   9.086   0.259   0.819
 5414W        W 9478   7.920   3.354  10.200
 5415W        W 9479   8.132   2.738   9.027
 5416W        W 9480   9.860   9.755  10.611
 5417W        W 9481   4.366   8.692   8.343
 5418W        W 9482   6.289  10.310   9.815
 5419W        W 9483  10.331   4.739   9.311
 5420W        W 9484   3.191   6.257   0.292
 5421W        W 9485   5.019   3.849   1.893
 5422W        W 9486  10.209   5.743  11.725
 5423W        W 9487   3.303   5.259   2.268
 5424W        W 9488   1.239   6.572   9.681
 5425W        W 9489   1.680   7.842  10.903
 5426W        W 9490   7.256   7.191   9.987
 5427W        W 9491   5.749   1.785  10.754
 5428W        W 9492   3.050   3.265   9.983
 5429W        W 9493   7.315   6.054   9.974
 5430W        W 9494   6.406   1.200   0.842
 5431W        W 9495   7.565   0.211  11.870
 5432W        W 9496   1.934   9.339   2.857
 5433W        W 9497   8.318   7.081   3.488
 5434W        W 9498   0.477   6.877   2.955
 5435W        W 9499   6.180   0.145   9.405
 5436W        W 9500   1.920   7.580   9.551
 5437W        W 9501   7.138   4.531  10.266
 5438W        W 9502   5.246   2.651   2.384
 5439W        W 9503   5.699   3.893   9.142
 5440W        W 9504   4.240   9.982   8.897
 5441W        W 9505   3.399   7.424   1.859
 5442W        W 9506   5.672   0.290  11.446
 5443W        W 9507   1.259   7.055  10.048
 5444W        W 9508   7.468   8.271  11.908
 5445W        W 9509   2.866   1.031   2.493
 5446W        W 9510   0.088   7.555   0.188
 5447W        W 9511   5.055   7.540   3.502
 5448W        W 9512   1.263   3.694   9.571
 5449W        W 9513   4.707   4.687   2.413
 5450W        W 9514   4.223   9.366   0.878
 5451W        W 9515   3.204   1.431   9.585
 5452W        W 9516   3.166   7.095   3.590
 5453W        W 9517   1.153   5.399   1.844
 5454W        W 9518  10.033   7.033   9.565
 5455W        W 9519   9.682   7.776   8.367
 5456W        W 9520   7.552   8.180   9.910
 5457W        W 9521   9.950   6.335   3.149
 5458W        W 9522   6.530   0.246  11.433
 5459W        W 9523   1.991   4.779   9.004
 5460W        W 9524   5.645   0.901   1.694
 5461W        W 9525   2.448  10.457  10.567
 5462W        W 9526   0.176   9.786   2.392
 5463W        W 9527   2.637   4.281   2.753
 5464W        W 9528   6.115   8.811  11.847
 5465W        W 9529   4.711   6.002   1.520
 5466W        W 9530   7.538   4.282   2.825
 5467W        W 9531   5.270   3.600   0.949
 5468W        W 9532   4.587   5.900   3.829
 5469W        W 9533   9.792   9.972   3.541
 5470W        W 9534   3.425   1.826   1.372
 5471W        W 9535   4.418   5.666   1.267
 5472W        W 9536   7.689   9.987   9.592
 5473W        W 9537   6.026   9.475  10.477
 5474W        W 9538   8.478   7.223   8.517
 5475W        W 9539   8.508   7.943   2.663
 5476W        W 9540   2.879   7.586   1.835
 5477W        W 9541   1.902   1.380   3.701
 5478W        W 9542   3.623   9.191   0.282
 5479W        W 9543   1.407   7.111   0.998
 5480W        W 9544   1.695   0.205   9.370
 5481W        W 9545   6.747   6.569  10.755
 5482W        W 9546   5.617   9.859   9.308
 5483W        W 9547   0.329   0.941   9.489
 5484W        W 9548  10.429   6.168   0.990
 5485W        W 9549   5.082   6.156  10.560
 5486W        W 9550   0.112   9.175  11.331
 5487W        W 9551   7.088   7.134   1.414
 5488W        W 9552   4.988  10.465   8.790
 5489W        W 9553   3.738   6.197   9.170
 5490W        W 9554   3.342   0.482   1.152
 5491W        W 9555   4.811   2.891  10.996
 5492W        W 9556   2.749   3.230  11.259
 5493W        W 9557   6.465   9.959   2.993
 5494W        W 9558   4.245   9.555  11.380
 5495W        W 9559   0.718   9.143   0.646
 5496W        W 9560   9.004   2.228   8.451
 5497W        W 9561   9.956   6.632   9.897
 5498W        W 9562   5.166   9.993  11.106
 5499W        W 9563   7.020   2.650   2.784
 5500W        W 9564   3.803   2.949   9.681
 5501W        W 9565   3.211   2.364  11.283
 5502W        W 9566   6.565   3.796   8.885
 5503W        W 9567   1.038   7.900  11.890
 5504W        W 9568  10.330   3.132  10.118
 5505W        W 9569   3.031   2.842   2.308
 5506W        W 9570   0.492   5.653   2.331
 5507W        W 9571   7.748   1.551   1.057
 5508W        W 9572   1.137   9.739   9.749
 5509W        W 9573   2.166   6.120   9.928
 5510W        W 9574   9.258   6.537   8.717
 5511W        W 9575   0.258   5.941   3.442
 5512W        W 9576   8.085   6.467   0.442
 5513W        W 9577   7.549   1.923   1.333
 5514W        W 9578   9.840   3.350   3.044
 5515W        W 9579   5.433   2.964   8.878
 5516W        W 9580   6.044   6.621   1.870
 5517W        W 9581   6.205   0.855   3.043
 5518W        W 9582   7.591   1.592   9.698
 5519W        W 9583   0.441   6.471  11.246
 5520W        W 9584   6.294   6.134   0.345
 5521W        W 9585   3.852   3.120   2.395
 5522W        W 9586   2.846   0.456   1.301
 5523W        W 9587   3.733   9.525  11.307
 5524W        W 9588   0.683   3.581   3.708
 5525W        W 9589   7.894   6.705   1.773
 5526W        W 9590   9.188   2.810   9.156
 5527W        W 9591   1.280   0.983   9.517
 5528W        W 9592   1.378   1.480   9.532
 5529W        W 9593   1.849   3.802  11.264
 5530W        W 9594   9.067   5.284  11.417
 5531W        W 9595   4.239   8.024   0.149
 5532W        W 9596   5.076   4.093   2.800
 5533W        W 9597   3.741   3.305   9.297
 5534W        W 9598   6.078   3.256   0.190
 5535W        W 9599   3.534   8.010   2.418
 5536W        W 9600   3.332   0.685  10.630
 5537W        W 9601   0.139   7.055   0.881
 5538W        W 9602   4.498   7.593   0.052
 5539W        W 9603   1.870   0.839  10.405
 5540W        W 9604   7.501   5.429   4.074
 5541W        W 9605   1.805   6.666   0.599
 5542W        W 9606   3.938   5.530   1.127
 5543W        W 9607   8.647   8.866   2.253
 5544W        W 9608   5.058   4.903  11.476
 5545W        W 9609   9.072   5.758  11.581
 5546W        W 9610   5.267   6.418   9.958
 5547W        W 9611   5.712   6.389   0.898
 5548W        W 9612   2.391  10.377   3.494
 5549W        W 9613   2.496   0.856  10.941
 5550W        W 9614   1.035   5.672  10.449
 5551W        W 9615   7.136   2.267   1.989
 5552W        W 9616   3.984   0.309  10.932
 5553W        W 9617   7.475   6.311   2.461
 5554W        W 9618   2.251   1.914   9.226
 5555W        W 9619   5.930   7.593   3.551
 5556W        W 9620   4.405  10.340   0.505
 5557W        W 9621   4.137   6.609   8.649
 5558W        W 9622   5.739   2.525  11.830
 5559W        W 9623   6.984   7.140   9.505
 5560W        W 9624   7.412   2.246  10.737
 5561W        W 9625   6.448   5.627   0.151
 5562W        W 9626   3.325   9.614   8.564
 5563W        W 9627   2.182   5.914   0.874
 5564W        W 9628   5.991   2.815   0.439
 5565W        W 9629   6.502   2.449   8.569
 5566W        W 9630   0.829   2.809   2.357
 5567W        W 9631   2.092   8.464   0.703
 5568W        W 9632   4.207   6.103   0.431
 5569W        W 9633   5.722   1.278  10.921
 5570W        W 9634   6.405   9.127   0.914
 5571W        W 9635   0.025   6.390   3.098
 5572W        W 9636   5.151   1.808   8.811
 5573W        W 9637   5.908   0.960   0.445
 5574W        W 9638   1.969   9.950   3.574
 5575W        W 9639   4.668   9.437  10.574
 5576W        W 9640   7.062   8.601   1.275
 5577W        W 9641   1.706   8.517   9.541
 5578W        W 9642   8.153   7.923   3.036
 5579W        W 9643   6.108   0.490  11.128
 5580W        W 9644   1.194   0.424   0.178
 5581W        W 9645   1.525   4.249   0.240
 5582W        W 9646   9.338   4.566   3.598
 5583W        W 9647   3.141   3.624   9.569
 5584W        W 9648   8.903   8.830  11.557
 5585W        W 9649   9.789   7.446   0.746
 5586W        W 9650   3.281   1.564  10.875
 5587W        W 9651   7.407   1.632   0.452
 5588W        W 9652   5.905   8.025   2.362
 5589W        W 9653   6.986   2.783   9.747
 5590W        W 9654   2.652   2.811   0.999
 5591W        W 9655   3.001   9.782   3.157
 5592W        W 9656   9.569   7.138   2.480
 5593W        W 9657   8.043   6.418   3.610
 5594W        W 9658   4.720   0.349  11.961
 5595W        W 9659   0.264   5.428   1.367
 5596W        W 9660   5.985   7.981   1.407
 5597W        W 9661   6.567   3.656  11.032
 5598W        W 9662   7.146   1.364   3.167
 5599W        W 9663   9.997   7.219   2.897
 5600W        W 9664   9.817   0.967  11.215
 5601W        W 9665   5.226   3.155   9.386
 5602W        W 9666   9.344   6.081   8.961
 5603W        W 9667   1.331   9.968   1.902
 5604W        W 9668   6.966   8.112  11.841
 5605W        W 9669   3.143   6.669   0.545
 5606W        W 9670   7.272  10.414  10.038
 5607W        W 9671   7.523   2.378   1.133
 5608W        W 9672   6.609   2.107  10.023
 5609W        W 9673   9.445   1.050   0.973
 5610W        W 9674   2.246   9.121  10.106
 5611W        W 9675   8.092   1.422  11.866
 5612W        W 9676   5.632   3.404   2.372
 5613W        W 9677   3.786   5.947   9.611
 5614W        W 9678  10.439   1.950   0.044
 5615W        W 9679   4.140   1.342   2.261
 5616W        W 9680   4.682   9.273   1.989
 5617W        W 9681   7.843   5.607   0.200
 5618W        W 9682   5.547   8.913   2.503
 5619W        W 9683   0.787   5.177  10.984
 5620W        W 9684   8.984   4.574   0.798
 5621W        W 9685   5.196   9.947   9.033
 5622W        W 9686   0.234   6.939   0.375
 5623W        W 9687   8.017   4.517   9.056
 5624W        W 9688   0.261   2.844   2.370
 5625W        W 9689   7.448   3.133  10.240
 5626W        W 9690   1.451   9.145   3.795
 5627W        W 9691   2.278  10.039  10.926
 5628W        W 9692   8.880   8.822   1.347
 5629W        W 9693   6.539   7.857   2.824
 5630W        W 9694   0.924   8.628   0.122
 5631W        W 9695   4.197   6.083   1.478
 5632W        W 9696   6.565   8.649   0.008
 5633W        W 9697   2.435   1.709   0.183
 5634W        W 9698   0.181   9.942   8.895
 5635W        W 9699   7.642   7.996   2.183
 5636W        W 9700   2.284   5.121   1.982
 5637W        W 9701   2.723   3.573  10.278
 5638W        W 9702   5.282   2.647   1.180
 5639W        W 9703   5.953   9.005   1.188
 5640W        W 9704   7.786   3.222   3.517
 5641W        W 9705   4.689   7.933  11.705
 5642W        W 9706   1.963   8.896   0.201
 5643W        W 9707  10.485   0.239   9.397
 5644W        W 9708   5.001   4.450  10.094
 5645W        W 9709   0.575  10.388   2.968
 5646W        W 9710   4.547   2.873   3.450
 5647W        W 9711   7.256   3.177   1.542
 5648W        W 9712   8.432   8.074   9.768
 5649W        W 9713   1.566   8.569  11.300
 5650W        W 9714   0.874   8.005   1.225
 5651W        W 9715   8.150   3.664   1.239
 5652W        W 9716   1.921   7.877   1.980
 5653W        W 9717   2.869   9.398   1.395
 5654W        W 9718   8.520   2.456   1.248
 5655W        W 9719   1.818   1.191   9.775
 5656W        W 9720   3.328   5.043   1.787
 5657W        W 9721   7.084   5.969   9.092
 5658W        W 9722   0.114   5.402  10.515
 5659W        W 9723   6.064  10.279   1.697
 5660W        W 9724   4.081   2.915  11.386
 5661W        W 9725   6.443   9.267   9.341
 5662W        W 9726   6.931   8.947  11.292
 5663W        W 9727   3.477   2.196   1.011
 5664W        W 9728   3.337   6.739  11.749
 5665W        W 9729   0.597   4.984  11.419
 5666W        W 9730  10.370   5.431  11.364
 5667W        W 9731   5.526   4.118   1.833
 5668W        W 9732   0.876   2.374   3.113
 5669W        W 9733   5.264   7.035   9.122
 5670W        W 9734   3.248   5.132   9.270
 5671W        W 9735   0.514   8.302   8.920
 5672W        W 9736   0.995   7.387   0.769
 5673W        W 9737   0.990   2.129   0.207
 5674W        W 9738   7.868   6.661   0.006
 5675W        W 9739   9.336   0.550   3.084
 5676W        W 9740   4.577   4.647   3.976
 5677W        W 9741   6.421   0.150  11.960
 5678W        W 9742  10.492   3.926   0.145
 5679W        W 9743   6.070   9.328   9.990
 5680W        W 9744   4.539   5.297   9.705
 5681W        W 9745   8.528   5.896   9.556
 5682W        W 9746   9.887   8.287  11.976
 5683W        W 9747   5.626   1.807   8.995
 5684W        W 9748   1.239   0.317  11.029
 5685W        W 9749   3.298   8.344   8.847
 5686W        W 9750   9.472   7.840  10.975
 5687W        W 9751   9.924   9.794   1.651
 5688W        W 9752   5.705   3.484  10.347
 5689W        W 9753   7.387   3.098   8.813
 5690W        W 9754   1.838   7.895   0.471
 5691W        W 9755   1.372   3.838   1.052
 5692W        W 9756   5.139   8.644   0.640
 5693W        W 9757   0.750   0.891  11.545
 5694W        W 9758   1.396   0.234   9.882
 5695W        W 9759   8.158   5.991   1.339
 5696W        W 9760   9.492   5.734   1.219
 5697W        W 9761   0.875   5.429  10.012
 5698W        W 9762   3.646   5.903   3.639
 5699W        W 9763   3.437  10.305   9.402
 5700W        W 9764   7.706   1.830   8.705
 5701W        W 9765   1.306   4.958  10.959
 5702W        W 9766   7.720   6.342   9.806
 5703W        W 9767   5.094   3.668   1.414
 5704W        W 9768   1.200  10.259   1.404
 5705W        W 9769   6.595   3.256   3.296
 5706W        W 9770   0.881   4.006   9.479
 5707W        W 9771   1.265   7.824  10.596
 5708W        W 9772   3.415   7.539   2.702
 5709W        W 9773   2.811   4.076  10.205
 5710W        W 9774   1.677   2.779  11.516
 5711W        W 9775   0.852   6.464  11.563
 5712W        W 9776   5.443   8.446   3.193
 5713W        W 9777   2.190   3.320   1.852
 5714W        W 9778   5.989   5.433  11.983
 5715W        W 9779   7.644   0.113   0.767
 5716W        W 9780   2.133   9.309   9.628
 5717W        W 9781   7.667   1.217   0.658
 5718W        W 9782   3.710   3.631   1.661
 5719W        W 9783   7.123  10.430   3.109
 5720W        W 9784   5.684   0.788  11.130
 5721W        W 9785   7.994   2.621   0.247
 5722W        W 9786   3.329   0.722  11.462
 5723W        W 9787   8.779   2.305   9.862
 5724W        W 9788   2.770   1.473   9.885
 5725W        W 9789   6.925   5.000  10.265
 5726W        W 9790   4.496   5.149   3.656
 5727W        W 9791   1.238   9.269   1.272
 5728W        W 9792   2.407   5.671   9.959
 5729W        W 9793   3.219   3.324   9.130
 5730W        W 9794   9.125   3.274   1.910
 5731W        W 9795   5.498   3.721   0.516
 5732W        W 9796   0.202   9.584  11.958
 5733W        W 9797   5.092   3.164   1.182
 5734W        W 9798   5.687   6.412   3.156
 5735W        W 9799  10.297   7.180  10.853
 5736W        W 9800   9.854   9.042   1.466
 5737W        W 9801   6.873   9.930   2.641
 5738W        W 9802   4.612   2.385   0.701
 5739W        W 9803   1.357   0.884   0.348
 5740W        W 9804   6.156   0.070  10.771
 5741W        W 9805   3.748   5.044   2.150
 5742W        W 9806   1.251   0.995   3.091
 5743W        W 9807   3.879   0.899  11.188
 5744W        W 9808   7.452   9.571   9.761
 5745W        W 9809   7.048   8.141  11.316
 5746W        W 9810  10.054  10.408   2.849
 5747W        W 9811   1.842   1.676   9.593
 5748W        W 9812   4.751  10.455   9.646
 5749W        W 9813   6.362   9.881   8.652
 5750W        W 9814   2.896   7.579   9.366
 5751W        W 9815   2.410   6.118  11.461
 5752W        W 9816   7.629   5.415   2.165
 5753W        W 9817   4.544   3.156   1.795
 5754W        W 9818   8.946   0.453   9.141
 5755W        W 9819   8.376   2.284  10.242
 5756W        W 9820   9.161  10.308   1.247
 5757W        W 9821   6.975   6.106  10.829
 5758W        W 9822   4.444   7.738   1.236
 5759W        W 9823   9.469   2.261   3.449
 5760W        W 9824   4.132   7.037   3.292
 5761W        W 9825   4.531   8.812   2.143
 5762W        W 9826   2.180   2.356   9.532
 5763W        W 9827   4.675   8.382  11.442
 5764W        W 9828   4.526   5.494   9.227
 5765W        W 9829   5.181   0.946  10.930
 5766W        W 9830   9.533   4.851   2.918
 5767W        W 9831  10.097   2.831   3.576
 5768W        W 9832   4.638   0.441   1.530
 5769W        W 9833   3.504   5.625   8.211
 5770W        W 9834   8.603   0.985   0.940
 5771W        W 9835   1.502   9.290   8.761
 5772W        W 9836   2.231   6.409   0.779
 5773W        W 9837   2.908   4.790   0.856
 5774W        W 9838   8.112   8.523   1.112
 5775W        W 9839   8.837   7.417  10.237
 5776W        W 9840   0.967  10.207  10.564
 5777W        W 9841   7.358   4.101   1.016
 5778W        W 9842   1.150   6.535   0.004
 5779W        W 9843   2.485   9.591  10.769
 5780W        W 9844   7.092   9.956  10.234
 5781W        W 9845   3.058   8.010   9.570
 5782W        W 9846   0.427   5.205   9.391
 5783W        W 9847   9.173   8.004   3.306
 5784W        W 9848   0.305   8.597  11.916
 5785W        W 9849   7.559   5.542   3.580
 5786W        W 9850   0.515   8.550  10.602
 5787W        W 9851   8.381   9.478   1.944
 5788W        W 9852   8.945   6.638  11.509
 5789W        W 9853   0.869   2.130   9.026
 5790W        W 9854   7.453   6.531   1.998
 5791W        W 9855   4.529   4.098   1.262
 5792W        W 9856   0.464   4.566  10.536
 5793W        W 9857   3.684   0.811   2.735
 5794W        W 9858   5.490   3.332  10.823
 5795W        W 9859   2.495   1.731  11.327
 5796W        W 9860   2.385   0.353   1.951
 5797W        W 9861   3.140   5.251   3.196
 5798W        W 9862   4.252  10.211  11.716
 5799W        W 9863   0.408   4.700   3.449
 5800W        W 9864   9.147   6.636  10.583
 5801W        W 9865  10.292   7.221   0.454
 5802W        W 9866   0.720   6.080   9.837
 5803W        W 9867   0.185   8.112   0.075
 5804W        W 9868   2.129   2.087   0.029
 5805W        W 9869   3.620   4.947   4.205
 5806W        W 9870   4.580   5.620   2.361
 5807W        W 9871   7.524   2.649   0.007
 5808W        W 9872   8.988   9.453  10.481
 5809W        W 9873   9.994  10.242  11.066
 5810W        W 9874   3.354   8.381   0.607
 5811W        W 9875   0.964  10.410   0.970
 5812W        W 9876   8.436   1.785  10.380
 5813W        W 9877   3.160   4.792   0.364
 5814W        W 9878   5.653   2.312   2.889
 5815W        W 9879   0.498   1.128  10.510
 5816W        W 9880   3.721   8.132   3.353
 5817W        W 9881   9.361   9.448   0.075
 5818W        W 9882   1.669   3.797  10.278
 5819W        W 9883   6.185   7.667  11.152
 5820W        W 9884   2.607  10.359   1.321
 5821W        W 9885   9.102   9.904   0.947
 5822W        W 9886   0.666   8.224  11.963
 5823W        W 9887   9.981   4.615  11.784
 5824W        W 9888   1.449   3.460   2.570
 5825W        W 9889   3.783   9.286   2.671
 5826W        W 9890   3.059   9.607   9.863
 5827W        W 9891   0.397   3.917   9.610
 5828W        W 9892   1.300   3.707   9.068
 5829W        W 9893   0.874   8.576   1.395
 5830W        W 9894   4.006   7.506   8.996
 5831W        W 9895   3.331   0.468   0.153
 5832W        W 9896   9.451   9.976   1.770
 5833W        W 9897   2.318   5.971   0.362
 5834W        W 9898   3.822   0.424  11.950
 5835W        W 9899   1.105   9.798   3.392
 5836W        W 9900   9.505   3.452  11.010
 5837W        W 9901   2.128   4.381   2.830
 5838W        W 9902   4.903   7.173   8.477
 5839W        W 9903   4.238   1.800   9.822
 5840W        W 9904   0.501  10.319   0.773
 5841W        W 9905   2.661   5.965  10.775
 5842W        W 9906   0.771   0.320   9.972
 5843W        W 9907   6.563   1.659  11.813
 5844W        W 9908   4.540   5.067   3.143
 5845W        W 9909   4.058   5.044   3.937
 5846W        W 9910   1.941   4.712   1.962
 5847W        W 9911   1.862   7.044   8.893
 5848W        W 9912   8.286   2.330   9.739
 5849W        W 9913   4.656   5.015  11.755
 5850W        W 9914   5.041   4.972  10.107
 5851W        W 9915   0.231   7.057   1.866
 5852W        W 9916  10.364   0.057   2.089
 5853W        W 9917   6.806   6.945   9.941
 5854W        W 9918   1.050   3.976  10.430
 5855W        W 9919   6.984   4.495   1.943
 5856W        W 9920   5.959   6.452   2.719
 5857W        W 9921   1.974   9.756   9.446
 5858W        W 9922   3.059  10.010  11.979
 5859W        W 9923   2.577   6.601  11.564
 5860W        W 9924   4.724   0.736  11.622
 5861W        W 9925   7.151   1.717   9.967
 5862W        W 9926   2.623  10.278   1.836
 5863W        W 9927  10.067   9.521   2.868
 5864W        W 9928   2.195   2.291   2.320
 5865W        W 9929   1.328   3.098  11.336
 5866W        W 9930   3.767   9.352   9.485
 5867W        W 9931   0.540  10.481  11.868
 5868W        W 9932   0.981   3.349  11.606
 5869W        W 9933  10.276   7.921   9.739
 5870W        W 9934   6.127   6.633   9.503
 5871W        W 9935   0.498   5.737  10.172
 5872W        W 9936   6.740   5.143   4.115
 5873W        W 9937   7.837   3.104   0.192
 5874W        W 9938   3.763   7.138   0.347
 5875W        W 9939   6.471   4.077  10.203
 5876W        W 9940   7.644   8.248   3.490
 5877W        W 9941   6.623   2.614  10.051
 5878W        W 9942   5.997   5.691   1.249
 5879W        W 9943   4.119   4.273   1.831
 5880W        W 9944  10.459  10.406  10.390
 5881W        W 9945   5.540   9.594  11.953
 5882W        W 9946   5.512   0.292   3.237
 5883W        W 9947   6.439   4.017  11.414
 5884W        W 9948   9.499   1.418   2.218
 5885W        W 9949   8.332   5.758  10.883
 5886W        W 9950   5.708   2.162   3.397
 5887W        W 9951   3.106   9.372   1.869
 5888W        W 9952   5.028   5.067   2.918
 5889W        W 9953   2.516   2.759   9.423
 5890W        W 9954   0.335   3.032   9.823
 5891W        W 9955   4.109   3.883  11.300
 5892W        W 9956   1.290   8.988   2.530
 5893W        W 9957   1.970   0.346   3.487
 5894W        W 9958   7.935   8.401   3.107
 5895W        W 9959   6.495   7.311   1.736
 5896W        W 9960   7.253   0.830   9.980
 5897W        W 9961   1.374   8.155   3.476
 5898W        W 9962   6.558   5.735   3.856
 5899W        W 9963   2.326   5.193  10.204
 5900W        W 9964   5.006   3.431   8.068
 5901W        W 9965   1.146   4.309   0.993
 5902W        W 9966   1.588   4.971   9.922
 5903W        W 9967   8.656   1.691   3.463
 5904W        W 9968   3.539   3.070   1.948
 5905W        W 9969   2.185   5.215   3.529
 5906W        W 9970   5.527   2.640   3.307
 5907W        W 9971   7.227   6.228   0.427
 5908W        W 9972   5.227   1.345  11.671
 5909W        W 9973   9.157   7.035   0.667
 5910W        W 9974   2.297   2.799   9.917
 5911W        W 9975  10.030   4.025  10.510
 5912W        W 9976  10.074   1.326  10.204
 5913W        W 9977   7.666   9.492   2.670
 5914W        W 9978   0.841   1.619  10.289
 5915W        W 9979   3.767   8.459  11.025
 5916W        W 9980   3.089   0.027   0.001
 5917W        W 9981   1.980   9.354   1.006
 5918W        W 9982   5.348   6.841   3.091
 5919W        W 9983   9.714  10.414   0.439
 5920W        W 9984   4.308   2.438  10.319
 5921W        W 9985   7.721   8.016   0.282
 5922W        W 9986   4.705   1.394   1.515
 5923W        W 9987   6.586   9.695  11.992
 5924W        W 9988   3.290   5.763   2.310
 5925W        W 9989   6.038   4.301   9.976
 5926W        W 9990   5.016   1.298   9.188
 5927W        W 9991   6.938   9.505  10.533
 5928W        W 9992   0.603   6.590   0.507
 5929W        W 9993   8.907  10.370   9.052
 5930W        W 9994   9.152   7.020   9.842
 5931W        W 9995   9.348   5.161   0.757
 5932W        W 9996   9.906   7.532   9.839
 5933W        W 9997   9.696   0.485   2.421
 5934W        W 9998   2.308   9.775   1.047
 5935W        W 9999   8.170   3.137   2.002
 5936W        W10000   3.336   1.247   2.234
 5937W        W10001   6.038   1.832   2.979
 5938W        W10002   6.061   7.406  10.315
 5939W        W10003   2.405   9.432   2.707
 5940W        W10004   7.241   1.213   9.630
 5941W        W10005   2.710   1.980  10.000
 5942W        W10006   8.612   9.542  10.836
 5943W        W10007   9.342   7.000   2.019
 5944W        W10008   5.736   6.081   2.455
 5945W        W10009   3.925   1.367  11.394
 5946W        W10010   3.251   4.322   1.282
 5947W        W10011   4.540   4.055   9.838
 5948W        W10012   5.219   5.595   3.092
 5949W        W10013   7.988   3.595   2.682
 5950W        W10014   2.785   3.367  10.746
 5951W        W10015   4.729   9.984   8.826
 5952W        W10016   1.900  10.305   8.733
 5953W        W10017   7.411   4.985   9.999
 5954W        W10018   1.910   2.324   0.469
 5955W        W10019   1.092   5.589   1.070
 5956W        W10020  10.277   8.053   1.408
 5957W        W10021   0.826   8.095  11.463
 5958W        W10022   0.970   0.134   8.605
 5959W        W10023   5.395   7.582   4.274
 5960W        W10024   0.016   5.847   2.433
 5961W        W10025   5.442   0.397   9.387
 5962W        W10026  10.445   6.997   9.242
 5963W        W10027   4.598   7.404  11.611
 5964W        W10028   1.296   2.357   9.206
 5965W        W10029   6.995   7.693  11.565
 5966W        W10030   5.288   2.161  10.086
 5967W        W10031   5.487   3.997  11.668
 5968W        W10032   3.320   5.487   3.626
 5969W        W10033   1.810   7.556   3.167
 5970W        W10034   8.989   1.446   2.175
 5971W        W10035   4.385   4.524   9.498
 5972W        W10036   6.587   2.111   0.047
 5973W        W10037   4.660  10.484  11.598
 5974W        W10038   3.194   7.043   9.989
 5975W        W10039   4.627   4.409   8.403
 5976W        W10040   3.218   9.909   2.714
 5977W        W10041   3.387   3.454   3.363
 5978W        W10042   5.767   5.584   8.593
 5979W        W10043   6.064  10.075  11.052
 5980W        W10044   2.556   9.437   1.830
 5981W        W10045   2.959   6.079   3.130
 5982W        W10046  10.004   9.711   0.793
 5983W        W10047   9.903   1.637   3.173
 5984W        W10048   5.552   4.375   8.474
 5985W        W10049   2.545   9.160  10.503
 5986W        W10050   1.263  10.339   0.534
 5987W        W10051   9.219   1.017   2.371
 5988W        W10052   5.103   8.170   0.450
 5989W        W10053  10.219   8.859   9.185
 5990W        W10054   9.536   1.397   2.807
 5991W        W10055  10.027   1.764   9.006
 5992W        W10056   2.519   8.229   0.852
 5993W        W10057   8.463   1.074  10.518
 5994W        W10058   3.695   7.110   1.033
 5995W        W10059   6.604   6.579  10.234
 5996W        W10060   3.030   2.670   9.368
 5997W        W10061   8.999   5.933   3.138
 5998W        W10062   8.707   3.886   3.727
 5999W        W10063   9.127  10.270  11.045
 6000W        W10064   9.821   8.971   3.387
 6001W        W10065   5.697   4.756   9.002
 6002W        W10066   0.295   2.247   1.261
 6003W        W10067   2.664   3.858  10.742
 6004W        W10068  10.261   2.613   1.510
 6005W        W10069   3.386   8.487   2.607
 6006W        W10070   5.475   2.260   8.799
 6007W        W10071   3.705   4.123   3.548
 6008W        W10072   5.620   4.893   8.499
 6009W        W10073   3.356   7.483   9.730
 6010W        W10074   4.678   8.132   1.422
 6011W        W10075   9.087   1.596   2.659
 6012W        W10076   9.511   9.924   1.271
 6013W        W10077   8.662   2.737   9.088
 6014W        W10078   2.628   3.068  10.335
 6015W        W10079   2.282   3.846  10.317
 6016W        W10080   0.661   7.610  10.524
 6017W        W10081   6.708   1.670  11.292
 6018W        W10082   8.560   8.856  11.998
 6019W        W10083   2.270   9.869   1.921
 6020W        W10084   6.361   0.474   8.995
 6021W        W10085   7.345   5.746   0.229
 6022W        W10086   9.859   9.223   8.922
 6023W        W10087   6.675   7.874   3.331
 6024W        W10088   1.852   6.536   1.122
 6025W        W10089   8.081   9.441   1.075
 6026W        W10090   7.394   5.605   0.704
 6027W        W10091   0.295   4.723   9.557
 6028W        W10092   1.641   1.990   0.173
 6029W        W10093   2.227  10.297  11.951
 6030W        W10094   5.702   1.589   0.277
 6031W        W10095   0.762   1.275   9.320
 6032W        W10096   2.630   5.496   9.515
 6033W        W10097   2.890   4.270   3.229
 6034W        W10098   8.882  10.443   2.720
 6035W        W10099   1.821   3.726   8.938
 6036W        W10100   7.912  10.369   9.345
 6037W        W10101   5.223   1.888   1.691
 6038W        W10102   6.602   3.060  11.726
 6039W        W10103   6.371   3.287  10.724
 6040W        W10104   8.125   5.723  11.778
 6041W        W10105   8.944   5.296  11.958
 6042W        W10106   1.871   1.252   8.787
 6043W        W10107   8.797   0.173   1.250
 6044W        W10108   3.319   8.150   1.104
 6045W        W10109   0.686   9.841   8.952
 6046W        W10110   4.248   7.551   3.031
 6047W        W10111   5.479   5.014   9.399
 6048W        W10112   2.402   9.965   0.588
 6049W        W10113   1.789   5.673   2.836
 6050W        W10114   6.515  10.464   1.135
 6051W        W10115   5.069   0.779  10.457
 6052W        W10116   6.041   2.247  10.772
 6053W        W10117   8.099   9.680   2.382
 6054W        W10118   7.279   7.958   1.804
 6055W        W10119   4.109   1.421   3.302
 6056W        W10120   4.055   2.658   2.212
 6057W        W10121   0.247   9.608  11.000
 6058W        W10122   6.928   1.350   1.680
 6059W        W10123   5.158   9.283   1.831
 6060W        W10124   8.199   2.450   0.843
 6061W        W10125   3.793   0.894  10.688
 6062W        W10126   5.995   7.228   2.497
 6063W        W10127   3.325   5.793   0.449
 6064W        W10128   6.877   8.911   9.417
 6065W        W10129   7.565   7.593  10.484
 6066W        W10130   3.477   5.496   0.847
 6067W        W10131   2.026   5.351  11.719
 6068W        W10132   8.553   0.716   0.072
 6069W        W10133   0.404   2.387   0.774
 6070W        W10134   9.744   7.870   9.034
 6071W        W10135   1.796   2.669   0.837
 6072W        W10136   7.893  10.339  10.985
 6073W        W10137   9.142   0.343  10.472
 6074W        W10138   5.826   8.414   8.360
 6075W        W10139   5.108   5.182  11.965
 6076W        W10140   4.693   7.355   1.810
 6077W        W10141   4.304   4.732   2.701
 6078W        W10142   1.006   5.587   2.349
 6079W        W10143   6.130   0.471  11.648
 6080W        W10144   7.916   5.225  11.842
 6081W        W10145   7.151   1.697   9.439
 6082W        W10146   5.730   7.555   9.557
 6083W        W10147   9.290   8.765   9.383
 6084W        W10148   7.520   4.986   1.110
 6085W        W10149   8.817   0.718  10.319
 6086W        W10150   1.747   1.794   0.643
 6087W        W10151   1.682   0.791   1.589
 6088W        W10152   1.204   5.139   3.493
 6089W        W10153  10.245   2.755   2.394
 6090W        W10154   0.018   8.935   1.657
 6091W        W10155   5.682   1.691  11.251
 6092W        W10156   8.079   1.293   0.367
 6093W        W10157   2.181  10.470   9.586
 6094W        W10158   2.647   6.366  11.093
 6095W        W10159   4.254   9.441   3.249
 6096W        W10160   8.844   5.084   0.826
 6097W        W10161   9.497   9.049   0.867
 6098W        W10162   9.307   9.829  10.036
 6099W        W10163   2.870   3.146   9.476
 6100W        W10164   3.114   6.204  10.061
 6101W        W10165   6.673   3.191   2.250
 6102W        W10166   6.872   7.050   3.122
 6103W        W10167   8.688   2.385  11.109
 6104W        W10168   3.152   4.373  11.420
 6105W        W10169   4.188   0.049   9.550
 6106W        W10170   6.627   7.607   9.528
 6107W        W10171   2.465   1.652  10.273
 6108W        W10172   0.246   5.718  11.541
 6109W        W10173   8.412   7.775  11.472
 6110W        W10174   0.195   1.778  11.170
 6111W        W10175   4.557   9.530   9.030
 6112W        W10176   3.550   2.813   9.247
 6113W        W10177   0.064   1.346  10.337
 6114W        W10178   7.612   0.646   0.807
 6115W        W10179   2.180   8.136  10.181
 6116W        W10180   8.986   1.229  10.247
 6117W        W10181   3.828   8.025  11.347
 6118W        W10182   9.001   5.516   0.494
 6119W        W10183   6.471   4.431   8.427
 6120W        W10184   7.941   2.818  11.766
 6121W        W10185   6.400   0.969   0.389
 6122W        W10186   7.094   5.482   3.315
 6123W        W10187   3.462   5.027   0.002
 6124W        W10188   4.656   0.241   3.433
 6125W        W10189   1.515  10.183   3.706
 6126W        W10190   3.616   3.146   8.822
 6127W        W10191   2.846   4.642   2.496
 6128W        W10192   7.097   4.025   2.092
 6129W        W10193   9.675   7.547   3.150
 6130W        W10194   2.678   4.998   0.428
 6131W        W10195   8.873   7.698   9.213
 6132W        W10196   6.863   1.214   9.987
 6133W        W10197   5.884   8.136   0.438
 6134W        W10198   7.079   4.871   3.838
 6135W        W10199   4.562   0.002   1.004
 6136W        W10200   8.535   4.041  11.364
 6137W        W10201   3.173   5.694  11.243
 6138W        W10202   5.608   2.656   1.900
 6139W        W10203   6.367   8.801   9.547
 6140W        W10204   2.596   1.979   2.142
 6141W        W10205   3.375   9.801   1.844
 6142W        W10206   0.688   7.365   8.434
 6143W        W10207   5.634   8.312   1.170
 6144W        W10208   2.473   4.809   9.877
 6145W        W10209   0.248   4.354  11.962
 6146W        W10210   3.706   0.872   1.203
 6147W        W10211   0.379   3.822   9.115
 6148W        W10212   5.886   9.587   2.498
 6149W        W10213   1.705   3.790   1.840
 6150W        W10214   4.783   6.262   2.403
 6151W        W10215   1.843   8.036   3.337
 6152W        W10216   1.737   3.889   9.423
 6153W        W10217   4.718   0.768  11.088
 6154W        W10218   9.888   8.500  11.491
 6155W        W10219   0.392   6.173   2.470
 6156W        W10220   2.343   1.779   9.715
 6157W        W10221   8.029   5.117   2.067
 6158W        W10222   5.478  10.331  10.209
 6159W        W10223   3.330   2.354   2.640
 6160W        W10224   1.819   3.567   3.452
 6161W        W10225   5.129   9.551   0.277
 6162W        W10226   6.018   1.315   2.827
 6163W        W10227   8.897   2.037   2.479
 6164W        W10228   9.127   5.077   1.842
 6165W        W10229   0.719   7.194   1.726
 6166W        W10230   2.261   4.159   0.886
 6167W        W10231   7.143   1.234   0.707
 6168W        W10232   7.596   2.848   0.958
 6169W        W10233   6.750   6.943   2.644
 6170W        W10234   9.479   8.363   2.541
 6171W        W10235   1.211   2.806   9.472
 6172W        W10236   2.204   9.309  11.892
 6173W        W10237   7.508   5.606  10.897
 6174W        W10238   0.370   0.857   0.930
 6175W        W10239   5.597   4.310   2.604
 6176W        W10240   1.411   3.376   0.297
 6177W        W10241   8.904   9.501   1.799
 6178W        W10242   4.719   5.765  11.359
 6179W        W10243   7.239   2.532   0.731
 6180W        W10244   3.697   7.980   1.412
 6181W        W10245   7.734  10.224   0.009
 6182W        W10246   0.381   5.968  11.131
 6183W        W10247   0.808   0.434  11.825
 6184W        W10248   3.102   3.561   0.013
 6185W        W10249   0.298   8.572   3.105
 6186W        W10250   4.249   9.194   9.467
 6187W        W10251   2.371   3.072   0.355
 6188W        W10252   3.155   2.736   3.544
 6189W        W10253   5.221   3.832   8.955
 6190W        W10254   2.836   8.864   1.202
 6191W        W10255  10.295   5.656   1.716
 6192W        W10256   0.953   2.106  10.436
 6193W        W10257   5.544   2.637   0.297
 6194W        W10258   6.456   4.297   8.925
 6195W        W10259   3.256   9.276  11.486
 6196W        W10260   3.783   4.680   0.964
 6197W        W10261   0.896   1.425   1.947
 6198W        W10262   9.519   1.599  11.731
 6199W        W10263   8.108   8.271   0.604
 6200W        W10264   1.847   5.083  10.327
 6201W        W10265   9.991   6.406   1.783
 6202W        W10266   4.947   6.444   0.304
 6203W        W10267   3.374   9.901  10.689
 6204W        W10268   6.545   2.464   2.872
 6205W        W10269   5.279   3.282   8.504
 6206W        W10270   8.940   3.153   8.892
 6207W        W10271   3.198   1.362  10.124
 6208W        W10272   9.748   6.547   8.875
 6209W        W10273   9.871   6.949   8.532
 6210W        W10274   4.622   1.551   2.877
 6211W        W10275   4.660   2.679   2.424
 6212W        W10276   3.987   4.248  11.651
 6213W        W10277   4.422   8.728   9.534
 6214W        W10278   6.241   6.907   0.001
 6215W        W10279   6.113   4.930   0.911
 6216W        W10280   2.778  10.117   2.326
 6217W        W10281   2.131  10.021   9.865
 6218W        W10282   4.699   0.993  10.197
 6219W        W10283   6.568   1.921   1.386
 6220W        W10284   6.114  10.408  10.286
 6221W        W10285   9.349   9.596   2.104
 6222W        W10286   8.643   5.785   8.521
 6223W        W10287   5.476   1.228   0.595
 6224W        W10288   0.630   9.852   9.832
 6225W        W10289   6.856   0.901   1.406
 6226W        W10290   5.225   3.197  11.732
 6227W        W10291   6.083   2.662   9.058
 6228W        W10292   0.517   9.077   3.552
 6229W        W10293   8.113   3.582   8.906
 6230W        W10294   0.683   1.807  11.962
 6231W        W10295   0.973   6.044   9.270
 6232W        W10296   8.045   7.589  10.860
 6233W        W10297   7.937   9.488   1.597
 6234W        W10298   6.961   3.784   9.696
 6235W        W10299   6.063   2.074   1.165
 6236W        W10300   9.325   7.478  10.636
 6237W        W10301   6.609   2.975   2.838
 6238W        W10302   5.632   9.356   1.712
 6239W        W10303   7.077   8.606  11.974
 6240W        W10304   2.839   2.370  10.891
 6241W        W10305   8.575   9.453   8.990
 6242W        W10306   1.323   6.082   1.033
 6243W        W10307   5.256   1.845  10.943
 6244W        W10308   9.084   6.964  11.131
 6245W        W10309   0.035   1.732   1.166
 6246W        W10310   6.570   0.761  10.010
 6247W        W10311   5.940   3.805   8.211
 6248W        W10312   9.245   2.189  10.011
 6249W        W10313   4.078   6.601   1.487
 6250W        W10314   5.178   9.031   9.949
 6251W        W10315   6.100   2.786   1.692
 6252W        W10316   5.218   4.701   9.721
 6253W        W10317   1.640   4.090   3.689
 6254W        W10318   7.361   5.138  11.008
 6255W        W10319   4.516   3.602   9.602
 6256W        W10320   1.958   1.369   2.878
 6257W        W10321   3.070   2.257   8.990
 6258W        W10322   9.465   8.281   0.282
 6259W        W10323   0.880   1.578   8.902
 6260W        W10324   3.837   7.703   1.825
 6261W        W10325   5.603   9.348  10.988
 6262W        W10326   0.728   2.986   1.509
 6263W        W10327   6.910   5.932   1.790
 6264W        W10328   3.060   4.037  11.062
 6265W        W10329   3.110   8.971   9.131
 6266W        W10330   9.866   2.227   0.680
 6267W        W10331   7.971   6.188   1.783
 6268W        W10332  10.220   0.757   0.316
 6269W        W10333   7.521   3.577   8.959
 6270W        W10334   5.914   0.526   9.612
 6271W        W10335   7.920   4.561   2.049
 6272W        W10336   6.922   0.272  10.543
 6273W        W10337   2.176   0.494  11.245
 6274W        W10338   3.292   0.757   2.409
 6275W        W10339   5.824   0.032   9.846
 6276W        W10340  10.376   1.269   3.296
 6277W        W10341   1.231   4.262  11.799
 6278W        W10342   6.688   6.062   8.774
 6279W        W10343   7.996   0.446   3.335
 6280W        W10344   1.443   0.346   2.047
 6281W        W10345   0.342   3.794   1.730
 6282W        W10346   7.935   9.991  10.619
 6283W        W10347   4.141   2.686   0.189
 6284W        W10348   9.517   5.222   9.063
 6285W        W10349   4.183   3.749   1.845
 6286W        W10350   6.645   3.836   2.476
 6287W        W10351   7.706   3.153   1.775
 6288W        W10352   5.393   0.415   2.748
 6289W        W10353   4.895   9.787   3.565
 6290W        W10354   3.771   2.122   8.618
 6291W        W10355   5.442   5.254   9.907
 6292W        W10356   3.123   4.773  10.563
 6293W        W10357   6.954   4.047  10.358
 6294W        W10358   0.288   1.725   3.088
 6295W        W10359   5.586   0.278  11.962
 6296W        W10360   3.284  10.348   3.450
 6297W        W10361   3.403   7.551   3.651
 6298W        W10362   1.260   1.714   0.378
 6299W        W10363   1.817   8.586   4.086
 6300W        W10364   3.703   1.173   3.073
 6301W        W10365   6.048   8.027  11.525
 6302W        W10366   2.846   3.133   0.161
 6303W        W10367   4.242   5.710   9.646
 6304W        W10368   3.681   8.701   1.829
 6305W        W10369   5.554   9.831   0.438
 6306W        W10370   2.276   4.731  11.739
 6307W        W10371   4.152   0.918   2.558
 6308W        W10372   6.777   3.239   1.734
 6309W        W10373   2.471   7.324  10.186
 6310W        W10374   7.925   0.340  11.051
 6311W        W10375   7.363   3.693   1.390
 6312W        W10376   9.850   5.982  11.434
 6313W        W10377   6.247   7.002   9.157
 6314W        W10378   9.145   0.882   9.913
 6315W        W10379   2.781   5.137  10.493
 6316W        W10380   7.461   2.898   2.912
 6317W        W10381   2.274   5.764   1.359
 6318W        W10382   1.232   0.479  11.545
 6319W        W10383   9.453   1.077  11.849
 6320W        W10384   6.062   8.812   9.957
 6321W        W10385   1.345   3.705   3.554
 6322W        W10386   4.842   8.899  11.816
 6323W        W10387   3.310   5.985   2.777
 6324W        W10388   9.074   2.719  10.010
 6325W        W10389   5.235   3.121   2.562
 6326W        W10390   8.956   4.911   1.303
 6327W        W10391   3.761   3.142   1.470
 6328W        W10392   3.205   7.770   1.470
 6329W        W10393  10.091   3.933   9.750
 6330W        W10394   0.016   0.376   1.693
 6331W        W10395   7.075   3.808  10.796
 6332W        W10396   7.892   3.118   8.787
 6333W        W10397   0.181   7.822   2.991
 6334W        W10398   8.426   5.141  11.862
 6335W        W10399   9.067   5.525   1.020
 6336W        W10400   5.775   1.600   3.424
 6337W        W10401   4.061   1.398  10.120
 6338W        W10402   3.219   8.876   1.974
 6339W        W10403   3.346   0.053   9.875
 6340W        W10404   2.440   6.449  10.231
 6341W        W10405   9.363   5.849   0.272
 6342W        W10406   3.154   6.561   3.527
 6343W        W10407   3.811  10.056   1.882
 6344W        W10408   3.355  10.035   9.834
 6345W        W10409   5.019   0.232   1.871
 6346W        W10410   5.318   8.076  10.299
 6347W        W10411   1.379   8.987   2.035
 6348W        W10412   1.394   2.238  10.111
 6349W        W10413   1.889   2.662   3.444
 6350W        W10414   0.206   3.733   2.765
 6351W        W10415   5.761   6.581  11.144
 6352W        W10416   8.041   9.371  11.337
 6353W        W10417   6.166   1.852  11.051
 6354W        W10418   5.095   8.078  11.372
 6355W        W10419   4.528   1.369   9.912
 6356W        W10420   6.166   7.100   0.471
 6357W        W10421   3.061   1.854   0.973
 6358W        W10422   6.994   4.684   1.482
 6359W        W10423   1.013  10.135   8.650
 6360W        W10424   6.314   8.291   3.258
 6361W        W10425   2.468   4.273  10.525
 6362W        W10426   2.124   0.787   9.952
 6363W        W10427   7.201   9.806   0.711
 6364W        W10428   9.226   1.887   2.113
 6365W        W10429   1.805   9.314   9.190
 6366W        W10430   5.589   8.686  11.812
 6367W        W10431   9.771   4.596  11.305
 6368W        W10432   7.129   5.965   2.626
 6369W        W10433   1.825   5.670  10.995
 6370W        W10434   9.337   4.946  11.944
 6371W        W10435   3.061   1.348   9.096
 6372W        W10436   7.868  10.254  11.509
 6373W        W10437   1.571   0.212  11.863
 6374W        W10438   6.365   5.568   2.526
 6375W        W10439   8.555   1.005  11.053
 6376W        W10440   0.660   4.590   1.853
 6377W        W10441   7.520   7.140   0.674
 6378W        W10442   6.619   4.725   3.075
 6379W        W10443   8.508  10.348   3.098
 6380W        W10444   7.985   1.828   2.738
 6381W        W10445   7.068   0.480   0.614
 6382W        W10446   2.216   3.244   2.372
 6383W        W10447   3.180   4.695   9.554
 6384W        W10448   9.295   9.853  10.537
 6385W        W10449   5.347   3.085   2.069
 6386W        W10450   4.258   7.961   3.325
 6387W        W10451   2.422   4.144   2.312
 6388W        W10452   0.727   4.218   0.702
 6389W        W10453   9.449   9.680   9.095
 6390W        W10454   5.754   1.151  11.986
 6391W        W10455   8.927   2.319   2.031
 6392W        W10456   6.944   0.425   8.943
 6393W        W10457   9.010   5.701   1.908
 6394W        W10458   1.719   3.780  10.772
 6395W        W10459   9.707   3.561   3.501
 6396W        W10460   8.432   8.470  10.927
 6397W        W10461   8.088   0.444   0.614
 6398W        W10462   0.780   3.150  10.052
 6399W        W10463   6.226   9.604   0.974
 6400W        W10464   5.314   9.942   0.948
 6401W        W10465  10.052   3.108   2.065
 6402W        W10466  10.395   9.264  10.011
 6403W        W10467   6.013   7.155  11.281
 6404W        W10468   2.348   1.461   1.267
 6405W        W10469   6.736   3.199  10.242
 6406W        W10470   3.645   9.107   3.200
 6407W        W10471   2.843   6.159   8.790
 6408W        W10472   3.266   4.760   2.223
 6409W        W10473   3.572  10.463   0.692
 6410W        W10474   8.880   7.611   8.686
 6411W        W10475   9.713   8.761   9.073
 6412W        W10476  10.420   2.150   3.037
 6413W        W10477   2.381   2.121  10.512
 6414W        W10478   2.063   3.246   9.747
 6415W        W10479   6.875   1.839   1.860
 6416W        W10480   9.972   1.348   2.011
 6417W        W10481   9.797   9.116   2.874
 6418W        W10482   2.960   4.307  10.642
 6419W        W10483   5.578   4.497   9.419
 6420W        W10484   5.483   3.282   3.475
 6421W        W10485   0.484   7.267  11.533
 6422W        W10486   2.172   3.753  11.645
 6423W        W10487  10.004   3.435   8.984
 6424W        W10488   2.718   3.116   8.978
 6425W        W10489   8.614   3.850  10.612
 6426W        W10490   3.760   3.094   3.498
 6427W        W10491   7.240   7.137   2.774
 6428W        W10492   1.851   5.013   1.151
 6429W        W10493   6.843   9.873   9.406
 6430W        W10494   3.614   5.053   2.652
 6431W        W10495   0.393   7.867   0.460
 6432W        W10496   8.947   9.345   1.322
 6433W        W10497   5.772   1.759   9.480
 6434W        W10498   2.180   6.507   0.291
 6435W        W10499   5.332   2.877  10.955
 6436W        W10500   9.001   9.512   9.281
 6437W        W10501   7.201   5.234   8.466
 6438W        W10502   5.147   6.627  10.415
 6439W        W10503   9.488   4.061   0.265
 6440W        W10504   8.340   1.830   0.794
 6441W        W10505   9.223   5.993   3.583
 6442W        W10506   8.817   8.510   3.335
 6443W        W10507   1.724   0.557   0.231
 6444W        W10508   1.320  10.480  11.445
 6445W        W10509   9.972   8.552   2.508
 6446W        W10510   8.468   6.009   1.740
 6447W        W10511   1.204   7.192   3.058
 6448W        W10512   5.714   8.365   9.556
 6449W        W10513   4.284   4.777   8.612
 6450W        W10514   9.970   7.882  11.113
 6451W        W10515   7.373   5.129   3.048
 6452W        W10516   8.058   2.266   1.959
 6453W        W10517   6.455   9.837   0.473
 6454W        W10518   4.975   3.674   9.376
 6455W        W10519   6.154   6.302  11.346
 6456W        W10520   1.838   0.332   2.995
 6457W        W10521   2.195   4.670   9.471
 6458W        W10522   6.475   9.623   9.702
 6459W        W10523   4.932   8.076   2.249
 6460W        W10524   4.450   2.658   1.900
 6461W        W10525  10.242   9.637  10.947
 6462W        W10526   6.205   5.152   2.282
 6463W        W10527   5.461   3.332   1.502
 6464W        W10528   0.717   7.821   9.051
 6465W        W10529   6.221  10.427   3.153
 6466W        W10530   6.332   2.838   0.801
 6467W        W10531   5.450   1.121  10.504
 6468W        W10532   4.682   2.743  10.111
 6469W        W10533   1.794   6.163   2.273
 6470W        W10534   6.267   5.031   3.315
 6471W        W10535   1.624   6.558   8.833
 6472W        W10536   6.070   6.116   1.797
 6473W        W10537   5.712   4.316   1.384
 6474W        W10538   3.836   7.751   0.350
 6475W        W10539   0.440   6.479   3.402
 6476W        W10540   0.868   4.975  10.268
 6477W        W10541   0.176  10.163   2.053
 6478W        W10542   5.270   2.697  11.864
 6479W        W10543   9.570   3.123   0.255
 6480W        W10544  10.143   6.455   8.556
 6481W        W10545   5.236  10.417   2.823
 6482W        W10546   7.440   9.128   9.522
 6483W        W10547   4.468   6.457   0.145
 6484W        W10548   8.633   9.558   2.781
 6485W        W10549   2.383   4.234   1.396
 6486W        W10550  10.379   2.190   0.931
 6487W        W10551   8.002   7.925   9.986
 6488W        W10552   1.447   9.595  11.499
 6489W        W10553   5.524   7.189   3.501
 6490W        W10554   2.854   6.877   8.608
 6491W        W10555   3.019   3.467   0.538
 6492W        W10556   0.289   9.992   3.369
 6493W        W10557   5.516   9.350   2.233
 6494W        W10558   7.696   3.270   1.258
 6495W        W10559   6.243   4.009   4.104
 6496W        W10560   8.118   0.706   1.452
 6497W        W10561   0.438   4.101   1.330
 6498W        W10562   3.547   0.532  11.049
 6499W        W10563   4.793   9.857   1.750
 6500W        W10564   5.022   6.528   3.337
 6501W        W10565   1.845   1.381   0.974
 6502W        W10566   6.225   5.158   1.778
 6503W        W10567  10.034   5.774   2.292
 6504W        W10568   8.627   1.654  11.865
 6505W        W10569   6.042   8.561   1.877
 6506W        W10570   7.436   9.138   2.979
 6507W        W10571   8.847   8.448   2.012
 6508W        W10572   7.387   1.249   2.456
 6509W        W10573   9.568   9.509  11.560
 6510W        W10574   0.968   6.877   0.795
 6511W        W10575   7.003   0.788  11.393
 6512W        W10576   1.296   1.290   2.253
 6513W        W10577   1.658   9.057   3.322
 6514W        W10578   4.014   5.873  10.065
 6515W        W10579   2.644   2.487  11.768
 6516W        W10580   1.595   7.466  10.391
 6517W        W10581   1.175   0.992   1.318
 6518W        W10582   6.137   4.462   1.115
 6519W        W10583   3.335   2.562   1.885
 6520W        W10584   5.825   2.692  10.949
 6521W        W10585   8.380   7.314   1.146
 6522W        W10586   6.249   7.795   0.413
 6523W        W10587   0.549   4.075  10.449
 6524W        W10588   6.512   2.707   2.431
 6525W        W10589   2.173   2.826   1.147
 6526W        W10590   0.636  10.312   1.884
 6527W        W10591   6.304   1.341  10.243
 6528W        W10592   8.917   4.004   9.077
 6529W        W10593   8.817   2.808   0.526
 6530W        W10594   3.200   6.724   1.542
 6531W        W10595   5.191   0.887   1.902
 6532W        W10596   8.073   7.725   1.170
 6533W        W10597   8.265  10.455   9.717
 6534W        W10598   1.741   3.041   2.536
 6535W        W10599   1.784   6.131  10.698
 6536W        W10600   9.467   2.421   1.377
 6537W        W10601   4.974   6.378   1.919
 6538W        W10602   9.403   5.372   2.681
 6539W        W10603   4.814   8.655   9.879
 6540W        W10604   2.153   6.530  11.238
 6541W        W10605   4.672   3.306   2.620
 6542W        W10606   5.707   0.227  10.941
 6543W        W10607   1.383   8.493   2.760
 6544W        W10608   2.703   6.019  10.268
 6545W        W10609   2.790   2.204   0.246
 6546W        W10610   3.787   5.454   3.449
 6547W        W10611   4.581   6.027   2.010
 6548W        W10612   6.462   2.307   9.098
 6549W        W10613   1.887   2.264   2.732
 6550W        W10614   8.790   1.359   3.024
 6551W        W10615   7.193   1.067  10.809
 6552W        W10616   2.398   2.361   1.864
 6553W        W10617   0.917   1.122  10.226
 6554W        W10618   6.602   0.799   2.734
 6555W        W10619   0.306   9.976   2.842
 6556W        W10620   4.502   2.602   9.116
 6557W        W10621   2.194   1.426   9.340
 6558W        W10622   3.680   5.358   0.369
 6559W        W10623   8.555   6.359   0.258
 6560W        W10624   7.238  10.309  11.862
 6561W        W10625   3.619   8.461  10.536
 6562W        W10626   4.689   8.914   2.615
 6563W        W10627   7.884   2.699   2.739
 6564W        W10628   3.200   0.927   0.944
 6565W        W10629   1.576   3.105   0.723
 6566W        W10630   5.414   8.047   2.357
 6567W        W10631   9.368   3.613   2.417
 6568W        W10632   4.254   5.683  11.747
 6569W        W10633   1.117   2.868   8.507
 6570W        W10634   9.045   6.428  11.034
 6571W        W10635   3.779   6.957  10.486
 6572W        W10636   8.816   3.738   1.922
 6573W        W10637  10.056   7.638   3.613
 6574W        W10638   6.605   0.511   0.267
 6575W        W10639   3.296   6.578   9.788
 6576W        W10640  10.094   9.319  11.295
 6577W        W10641   5.787   4.311   3.110
 6578W        W10642   5.614   3.208   0.457
 6579W        W10643   0.730   8.868   3.127
 6580W        W10644   7.790   7.187  10.104
 6581W        W10645   8.501   5.993   9.051
 6582W        W10646   1.461  10.490   2.880
 6583W        W10647   0.431   0.342   0.762
 6584W        W10648   3.693   5.495  10.329
 6585W        W10649   8.819  10.328   0.856
 6586W        W10650   8.545   8.573   8.939
 6587W        W10651   5.838   4.378   2.147
 6588W        W10652   0.171   6.498   8.712
 6589W        W10653   6.581   6.811   8.796
 6590W        W10654   0.103   8.607  10.902
 6591W        W10655   7.845   3.652   9.339
 6592W        W10656   3.006   7.087   1.879
 6593W        W10657   7.950   7.587   2.240
 6594W        W10658   5.167  10.225   1.869
 6595W        W10659   5.726   4.073   3.976
 6596W        W10660   5.487   7.608  11.827
 6597W        W10661   6.163   2.795  11.954
 6598W        W10662   4.882   8.740   8.473
 6599W        W10663   5.522   0.754   0.206
 6600W        W10664   8.355   5.990   0.882
 6601W        W10665   5.150   5.991   2.736
 6602W        W10666   8.577   4.170   1.734
 6603W        W10667   6.208   3.723  10.448
 6604W        W10668   2.200   2.291   0.960
 6605W        W10669   9.433   5.353   0.266
 6606W        W10670   7.441   3.092   9.721
 6607W        W10671   5.813   4.782   3.339
 6608W        W10672   1.977   6.127  11.719
 6609W        W10673   4.143   4.894   9.781
 6610W        W10674   5.904   1.390   9.826
 6611W        W10675   1.841   6.953   1.483
 6612W        W10676   5.004   1.669   2.514
 6613W        W10677   3.748   2.256   2.090
 6614W        W10678   6.935   6.295   9.453
 6615W        W10679   3.410   1.899  11.245
 6616W        W10680   1.812   0.869   0.630
 6617W        W10681   3.338   4.481   0.788
 6618W        W10682   9.747   4.174   2.927
 6619W        W10683   4.478  10.410   8.629
 6620W        W10684   0.272   6.210  10.261
 6621W        W10685   3.286   1.174   2.748
 6622W        W10686   1.806   5.670   8.703
 6623W        W10687   8.553   8.437   8.424
 6624W        W10688   5.108   1.416  10.688
 6625W        W10689   0.782   5.463   1.459
 6626W        W10690   9.481   7.970   2.904
 6627W        W10691   6.524   5.607  11.176
 6628W        W10692  10.368   5.990  11.322
 6629W        W10693   9.456   6.874   0.068
 6630W        W10694   9.670   2.498  11.516
 6631W        W10695   7.600   8.383   8.458
 6632W        W10696   7.948   1.394   9.363
 6633W        W10697   0.804   7.529   1.363
 6634W        W10698   0.895   3.591   0.288
 6635W        W10699   1.604   0.821  11.319
 6636W        W10700  10.250   7.453  11.301
 6637W        W10701   8.432   8.069  11.874
 6638W        W10702   7.009   2.267   3.557
 6639W        W10703   3.121   3.541  11.084
 6640W        W10704   0.312   5.787   1.005
 6641W        W10705   4.255   0.742  10.878
 6642W        W10706   7.970   6.962   0.433
 6643W        W10707   1.397   7.553  11.840
 6644W        W10708   4.954   3.511   9.865
 6645W        W10709   1.889   7.205   2.331
 6646W        W10710   1.274   6.277  11.322
 6647W        W10711   4.194   8.548   1.792
 6648W        W10712   4.947  10.325  10.137
 6649W        W10713   7.965   4.093  10.520
 6650W        W10714   8.891   2.808   9.558
 6651W        W10715   2.401   6.174   9.021
 6652W        W10716   1.010   8.542  10.707
 6653W        W10717   8.982   9.975   1.970
 6654W        W10718   1.217   9.017   3.034
 6655W        W10719   7.258   3.950   9.202
 6656W        W10720   7.175   0.490   0.117
 6657W        W10721   8.705  10.413   9.987
 6658W        W10722   2.764   6.888   2.269
 6659W        W10723   4.755   7.356  11.147
 6660W        W10724   2.198   3.699   0.663
 6661W        W10725   4.760   3.600   1.012
 6662W        W10726   9.168   1.848   3.426
 6663W        W10727   9.875   3.799  10.959
 6664W        W10728   6.435   9.586   3.352
 6665W        W10729   3.301   4.568   2.718
 6666W        W10730   3.283   7.040   0.167
 6667W        W10731   6.726   9.577   0.871
 6668W        W10732   5.627   9.218   3.363
 6669W        W10733   4.259   1.307   0.699
 6670W        W10734   8.820   3.781  11.719
 6671W        W10735  10.036   2.227   0.213
 6672W        W10736   6.099   0.922   8.969
 6673W        W10737   6.339   0.776   3.534
 6674W        W10738   9.247   1.542   1.735
 6675W        W10739   2.308  10.215  11.452
 6676W        W10740   0.672   7.887   9.560
 6677W        W10741   4.355   3.080   2.276
 6678W        W10742   2.469   9.699   9.578
 6679W        W10743   0.689   1.894   1.850
 6680W        W10744   5.533   9.877   2.763
 6681W        W10745   0.047   0.643   2.675
 6682W        W10746   0.356   5.002  10.240
 6683W        W10747   2.880   7.450   9.894
 6684W        W10748   8.645   1.154   1.963
 6685W        W10749   9.937   4.775   3.235
 6686W        W10750  10.068   8.702   3.013
 6687W        W10751   2.672   6.242   9.807
 6688W        W10752   6.644   5.728  10.708
 6689W        W10753   2.166   8.239  11.871
 6690W        W10754   5.285   6.939  10.027
 6691W        W10755   0.256   5.971   2.921
 6692W        W10756   1.005   7.614  11.436
 6693W        W10757   8.126   3.491   0.756
 6694W        W10758  10.456  10.202  11.321
 6695W        W10759   0.538   9.426   2.855
 6696W        W10760   6.452   2.358  10.486
 6697W        W10761   4.213   7.076  11.672
 6698W        W10762   6.375   5.117   2.763
 6699W        W10763   2.231   1.619   0.657
 6700W        W10764   8.993   1.904   9.053
 6701W        W10765   2.265   2.725   3.073
 6702W        W10766   0.379   3.601   1.252
 6703W        W10767   8.863   8.606   9.648
 6704W        W10768   5.988   2.332   0.252
 6705W        W10769   6.319   9.796   1.717
 6706W        W10770   2.565   7.329  10.733
 6707W        W10771   3.232   8.895   0.544
 6708W        W10772   3.312   4.212  10.267
 6709W        W10773   0.042   8.469   9.028
 6710W        W10774   7.420  10.188   0.948
 6711W        W10775   3.169   1.830   9.885
 6712W        W10776   8.075   3.118   2.504
 6713W        W10777   6.014   4.570   8.642
 6714W        W10778   4.583   4.087   1.773
 6715W        W10779   0.180   8.975   8.922
 6716W        W10780   4.177   3.302   2.756
 6717W        W10781   2.663   5.695  11.257
 6718W        W10782   7.083  10.476   0.715
 6719W        W10783   2.289   1.157   0.844
 6720W        W10784   3.754   5.510   2.439
 6721W        W10785   4.026   4.145   9.507
 6722W        W10786   9.855   5.920   1.837
 6723W        W10787   3.230  10.216  11.080
 6724W        W10788   0.045   7.580   0.724
 6725W        W10789   4.117   5.963  10.932
 6726W        W10790   6.994   3.363  11.076
 6727W        W10791   1.216   9.921   2.905
 6728W        W10792   7.397  10.434   9.522
 6729W        W10793   2.326   7.532   3.247
 6730W        W10794  10.252   1.267   8.864
 6731W        W10795   5.185   6.027   1.307
 6732W        W10796   8.261   3.121   3.370
 6733W        W10797   9.964   7.179   3.401
 6734W        W10798   6.956   9.959   3.155
 6735W        W10799   4.287   1.679   1.410
 6736W        W10800   6.567   3.544  11.554
 6737W        W10801   1.328  10.013   0.947
 6738W        W10802   3.660   5.762   8.861
 6739W        W10803   9.965   3.373   0.771
 6740W        W10804   4.464   7.934   2.334
 6741W        W10805   6.523   5.677   1.135
 6742W        W10806   0.914   6.203   0.378
 6743W        W10807   0.887   5.998   1.290
 6744W        W10808  10.337   3.991   0.632
 6745W        W10809   6.551   7.075   2.187
 6746W        W10810   9.519  10.238  10.284
 6747W        W10811   9.593   2.354   2.871
 6748W        W10812   6.376   1.779   1.904
 6749W        W10813   2.175   8.970   0.723
 6750W        W10814   5.091   7.184   0.760
 6751W        W10815   3.283   6.077   1.889
 6752W        W10816   7.566  10.049   0.468
 6753W        W10817   0.385   9.434   0.410
 6754W        W10818   6.976   4.257   8.912
 6755W        W10819   5.687   6.025   1.467
 6756W        W10820   9.182   3.295  11.920
 6757W        W10821   6.559   8.659  10.069
 6758W        W10822   4.649   8.484  10.941
 6759W        W10823   9.987   3.810   3.165
 6760W        W10824   5.112   0.856  11.930
 6761W        W10825   0.240   5.859   9.748
 6762W        W10826   5.544   1.163   1.085
 6763W        W10827   4.158   3.645   3.168
 6764W        W10828   2.277   6.705   3.038
 6765W        W10829   7.664   0.856  10.931
 6766W        W10830   6.865   9.451   2.461
 6767W        W10831  10.239   7.886   9.214
 6768W        W10832   2.575   8.780   2.130
 6769W        W10833   8.964   6.678   0.063
 6770W        W10834   1.611   8.990   1.045
 6771W        W10835   8.010   0.451   0.038
 6772W        W10836   2.320   4.714   1.195
 6773W        W10837   2.593   9.837   1.458
 6774W        W10838   6.585   5.395  10.351
 6775W        W10839   7.588   2.730   8.512
 6776W        W10840   8.850   1.772   0.790
 6777W        W10841   1.228   5.445  10.889
 6778W        W10842   5.300   6.502  11.414
 6779W        W10843   2.374   8.669   1.117
 6780W        W10844   5.480   0.405   9.902
 6781W        W10845   8.851   2.583   2.460
 6782W        W10846   6.694   9.027   8.935
 6783W        W10847   5.449   7.142   9.589
 6784W        W10848   0.215   8.511   8.528
 6785W        W10849   8.559   4.258   0.736
 6786W        W10850   8.906   3.098  10.408
 6787W        W10851   5.198   0.870   3.151
 6788W        W10852   7.640   1.252   0.110
 6789W        W10853   7.647   9.158   0.882
 6790W        W10854   5.585   4.343  10.739
 6791W        W10855   9.809   2.888   0.914
 6792W        W10856   1.751  10.222   0.739
 6793W        W10857   2.393   4.702   1.703
 6794W        W10858   6.341   8.341   0.359
 6795W        W10859   0.272   4.549   1.484
 6796W        W10860   5.205   2.908   1.620
 6797W        W10861   6.764   9.525   9.039
 6798W        W10862   3.417   8.487   3.099
 6799W        W10863   1.423   8.605  10.376
 6800W        W10864   8.942   6.666   2.008
 6801W        W10865   1.680   8.519   3.188
 6802W        W10866   5.073   4.158   3.345
 6803W        W10867   8.167   9.573   3.544
 6804W        W10868   6.164   9.861  10.060
 6805W        W10869   7.809   5.916  10.073
 6806W        W10870   4.166   0.878   0.395
 6807W        W10871   9.831   7.448   9.314
 6808W        W10872   4.292   0.417   0.225
 6809W        W10873   7.159   6.049   8.585
 6810W        W10874   1.259   9.860  10.780
 6811W        W10875   9.383   0.532  11.947
 6812W        W10876  10.256   5.790   0.222
 6813W        W10877   1.606   0.691   3.352
 6814W        W10878   2.450   4.602   0.706
 6815W        W10879   5.540   7.966   9.807
 6816W        W10880   5.177   5.656  10.414
 6817W        W10881   4.714   9.129   9.706
 6818W        W10882   8.340   3.270  11.291
 6819W        W10883  10.038  10.449   9.473
 6820W        W10884   6.885   8.973   1.672
 6821W        W10885   3.253   0.186  10.817
 6822W        W10886   4.476   8.083  10.681
 6823W        W10887   6.817   4.277  11.697
 6824W        W10888   9.873   4.759   2.347
 6825W        W10889   5.775   6.158   0.091
 6826W        W10890   5.112   1.396   1.821
 6827W        W10891   3.581   4.639  10.391
 6828W        W10892   5.725   8.411  11.375
 6829W        W10893   4.580   1.004   2.938
 6830W        W10894   0.509   3.253   2.763
 6831W        W10895   0.170   8.891   9.432
 6832W        W10896   4.968   1.693   0.040
 6833W        W10897  10.339   3.275   1.654
 6834W        W10898   8.964   0.937   8.937
 6835W        W10899   6.440   0.335  10.400
 6836W        W10900   3.328   9.597   0.116
 6837W        W10901   9.954   4.196   2.450
 6838W        W10902  10.295   2.237   2.471
 6839W        W10903   1.246   3.048   1.604
 6840W        W10904   2.981   1.739  11.484
 6841W        W10905   5.427   5.686   2.374
 6842W        W10906   8.861   3.675   9.462
 6843W        W10907   0.910   3.303   3.336
 6844W        W10908   3.961   8.927  11.967
 6845W        W10909   9.532   6.939   3.502
 6846W        W10910   6.480   5.496   2.024
 6847W        W10911   7.595   0.587   1.325
 6848W        W10912   5.574   7.051   2.300
 6849W        W10913   7.136   1.307   0.198
 6850W        W10914   5.433  10.396   0.291
 6851W        W10915   8.546  10.232   8.688
 6852W        W10916   8.890   7.164   0.234
 6853W        W10917   4.072   7.133  10.883
 6854W        W10918   8.842   5.099   9.827
 6855W        W10919   3.742   5.076   9.092
 6856W        W10920   0.371   2.232  11.917
 6857W        W10921   7.235   8.797   8.745
 6858W        W10922  10.338   9.271   3.313
 6859W        W10923   0.270   1.724  11.701
 6860W        W10924   1.766   2.110  11.622
 6861W        W10925   7.905   2.249   8.448
 6862W        W10926   4.015   4.173   3.075
 6863W        W10927   3.291  10.276  11.592
 6864W        W10928   7.606   1.650  10.219
 6865W        W10929   9.251   5.048   3.318
 6866W        W10930   9.598  10.016   0.771
 6867W        W10931   0.581   3.325  11.290
 6868W        W10932   1.754   2.602   9.113
 6869W        W10933   4.935   6.031   3.227
 6870W        W10934   9.843   6.781   2.231
 6871W        W10935   2.469   5.556   2.208
 6872W        W10936   5.012   1.718   3.157
 6873W        W10937   6.755   2.584   0.825
 6874W        W10938   5.457   2.210   9.593
 6875W        W10939   6.411   1.188   9.774
 6876W        W10940   7.955   2.283  11.872
 6877W        W10941   1.322   2.817   8.964
 6878W        W10942   1.261   7.353   0.326
 6879W        W10943   4.934   1.875   0.886
 6880W        W10944   0.838   4.270  10.829
 6881W        W10945   7.364   9.142  11.155
 6882W        W10946  10.044   5.255   9.341
 6883W        W10947   4.325   3.120  11.859
 6884W        W10948   3.392   1.304   0.254
 6885W        W10949   9.928   5.369   9.888
 6886W        W10950   7.390   4.102   3.888
 6887W        W10951   6.262   4.042   2.182
 6888W        W10952   2.121   1.903   1.967
 6889W        W10953   0.642   7.591   2.327
 6890W        W10954   6.444   3.324   9.016
 6891W        W10955   9.747   6.851   1.748
 6892W        W10956   5.666   8.867   2.997
 6893W        W10957  10.462   1.470   2.418
 6894W        W10958   0.355   4.217   2.027
 6895W        W10959   3.955   1.774  11.734
 6896W        W10960   0.349   1.765  10.313
 6897W        W10961   6.656   3.766   2.997
 6898W        W10962   8.603   5.533   0.808
 6899W        W10963   7.938   4.756   3.502
 6900W        W10964   7.137   9.430  11.998
 6901W        W10965   1.771   6.152  11.217
 6902W        W10966   2.609   7.948  11.989
 6903W        W10967   8.509   0.911  11.573
 6904W        W10968  10.100   5.504  10.496
 6905W        W10969   8.515   5.666   3.137
 6906W        W10970   3.696   0.234   9.554
 6907W        W10971   6.023   9.457   2.014
 6908W        W10972   0.870   0.637   8.472
 6909W        W10973   0.520  10.316   8.725
 6910W        W10974   9.005   9.306   8.762
 6911W        W10975   6.157   1.371  11.750
 6912W        W10976   0.040   8.491  10.383
 6913W        W10977   6.516   9.816  10.940
 6914W        W10978   2.674   2.592   8.963
 6915W        W10979   7.901   2.951  11.278
 6916W        W10980   0.828   3.547   9.242
 6917W        W10981   6.665   4.482  10.437
 6918W        W10982   2.605   5.145  11.000
 6919W        W10983   8.615   5.571  11.683
 6920W        W10984   4.422   1.324   0.231
 6921W        W10985   5.219   6.225   0.822
 6922W        W10986   6.491  10.052   8.174
 6923W        W10987   4.230   5.627   2.737
 6924W        W10988   9.936   7.972  10.123
 6925W        W10989   2.414   7.738   0.741
 6926W        W10990   8.999   3.610   1.182
 6927W        W10991   7.374   5.407  11.813
 6928W        W10992   8.331   3.684  11.860
 6929W        W10993   6.479   7.125   9.589
 6930W        W10994   9.943   7.081   0.093
 6931W        W10995   3.785   5.508   2.952
 6932W        W10996  10.479   0.903  11.904
 6933W        W10997   7.620  10.294   2.959
 6934W        W10998   5.115  10.457   3.353
 6935W        W10999   9.580   4.199   1.214
 6936W        W11000   7.518   4.668   3.195
 6937W        W11001   3.225  10.356   2.441
 6938W        W11002   6.932   3.120   3.673
 6939W        W11003   9.379   8.366  10.982
 6940W        W11004   7.846   6.980   3.294
 6941W        W11005   7.494   7.851   9.390
 6942W        W11006   8.408   3.303   2.865
 6943W        W11007   4.616   3.565   2.083
 6944W        W11008   6.446   4.925  10.453
 6945W        W11009   7.551   1.441   1.515
 6946W        W11010   6.042   4.587   0.545
 6947W        W11011   3.869   7.278   2.807
 6948W        W11012   8.592   0.681   1.732
 6949W        W11013   8.526   1.417  11.396
 6950W        W11014   1.239   4.721   1.328
 6951W        W11015   7.482   7.754  11.894
 6952W        W11016  10.367   2.744   9.116
 6953W        W11017   7.932   9.914   2.817
 6954W        W11018   4.464   6.612   2.176
 6955W        W11019   0.850   4.707   0.830
 6956W        W11020   7.064   4.730  11.576
 6957W        W11021   5.209   2.224  10.591
 6958W        W11022   1.705   4.708   0.434
 6959W        W11023   8.549  10.222   1.267
 6960W        W11024   0.103   8.026   1.001
 6961W        W11025   4.632   7.427  10.301
 6962W        W11026   8.429   9.034  11.513
 6963W        W11027   7.175   9.202   9.059
 6964W        W11028   6.292   6.123   9.966
 6965W        W11029   9.871  10.450   8.932
 6966W        W11030   5.945   1.908   0.606
 6967W        W11031   2.771   2.761   0.506
 6968W        W11032   0.310   5.159   2.137
 6969W        W11033   4.078   9.043   1.923
 6970W        W11034   1.881   5.114   1.665
 6971W        W11035   9.013   4.067   0.940
 6972W        W11036   0.399   5.605   0.514
 6973W        W11037   6.689   4.240   3.272
 6974W        W11038  10.487   7.876   3.459
 6975W        W11039   2.004   1.701  10.092
 6976W        W11040   7.592   0.674   3.102
 6977W        W11041   7.615   1.980   3.729
 6978W        W11042   1.218   8.642  11.690
 6979W        W11043   2.794   5.306  10.009
 6980W        W11044   2.418   2.667   3.557
 6981W        W11045  10.349   2.120   1.457
 6982W        W11046   6.008   1.727   8.667
 6983W        W11047   9.350   8.608   1.135
 6984W        W11048   0.760   3.717   0.797
 6985W        W11049   4.187   7.439   1.550
 6986W        W11050   6.322   4.643   0.118
 6987W        W11051   3.591   1.942   9.559
 6988W        W11052   3.300   6.321   4.013
 6989W        W11053   8.561   4.864   2.753
 6990W        W11054   9.358   0.158   9.020
 6991W        W11055   3.636   4.172   1.623
 6992W        W11056   1.606   4.207   0.770
 6993W        W11057   3.399   7.425   9.226
 6994W        W11058   9.846   9.088   9.447
 6995W        W11059   5.661   4.532   0.886
 6996W        W11060   2.236   4.698  10.348
 6997W        W11061  10.033   2.119  10.653
 6998W        W11062   9.241   9.853  11.799
 6999W        W11063   5.107  10.045   0.499
 7000W        W11064   1.180   0.318   2.525
 7001W        W11065   7.472   0.984  11.479
 7002W        W11066   9.975   2.291  11.173
 7003W        W11067   3.378   1.806  10.372
 7004W        W11068   8.017   4.793   9.985
 7005W        W11069   9.351   7.503   2.744
 7006W        W11070   6.405   0.363   2.919
 7007W        W11071   1.720   4.872   9.430
 7008W        W11072   3.677   1.464   9.419
 7009W        W11073   9.904   8.053   0.446
 7010W        W11074   8.843   1.013   0.390
 7011W        W11075   5.509   7.192  10.464
 7012W        W11076   2.400   9.440   0.680
 7013W        W11077   3.843   4.216  10.444
 7014W        W11078   4.820   4.218   2.221
 7015W        W11079   4.605   2.419   0.151
 7016W        W11080   8.426   5.561   0.154
 7017W        W11081   3.671  10.056  11.308
 7018W        W11082   9.066   4.782  11.349
 7019W        W11083   9.647   7.073   9.902
 7020W        W11084   4.580   8.617   8.879
 7021W        W11085   4.799   4.042  10.330
 7022W        W11086   1.953   0.780   9.015
 7023W        W11087   8.420  10.008   2.663
 7024W        W11088  10.245   5.545   3.588
 7025W        W11089   5.200   2.212   3.179
 7026W        W11090   6.921   5.550   0.021
 7027W        W11091   2.246   0.043   9.051
 7028W        W11092   8.122   5.080   2.562
 7029W        W11093   8.306   0.596  10.386
 7030W        W11094  10.025   5.275   8.818
 7031W        W11095   9.221   9.016  10.351
 7032W        W11096  10.065   4.566   2.783
 7033W        W11097   9.019   4.663  10.146
 7034W        W11098   5.778   4.808   1.288
 7035W        W11099   7.214   6.404   3.272
 7036W        W11100   1.686   3.577   9.822
 7037W        W11101   7.578   4.896   2.211
 7038W        W11102   3.773   1.786   9.039
 7039W        W11103   8.557   5.377   2.634
 7040W        W11104   4.046   9.934   3.153
 7041W        W11105   4.219   2.902   1.514
 7042W        W11106   7.100   4.496   3.429
 7043W        W11107   6.948   6.942  11.496
 7044W        W11108   9.781   4.509   0.246
 7045W        W11109   6.647   4.135   1.839
 7046W        W11110   2.634   6.817  10.857
 7047W        W11111   6.895   9.582   0.393
 7048W        W11112   1.874   3.444   8.510
 7049W        W11113  10.351   4.074   8.265
 7050W        W11114   5.452   9.484   8.969
 7051W        W11115   8.926   7.577   9.747
 7052W        W11116   1.303   3.825   0.075
 7053W        W11117   1.107   4.710   8.505
 7054W        W11118   4.549   3.589   9.069
 7055W        W11119   5.546   1.619   8.502
 7056W        W11120   0.859   7.958  10.030
 7057W        W11121  10.448  10.487  11.841
 7058W        W11122   1.437   2.257   1.388
 7059W        W11123   7.364   9.358   2.283
 7060W        W11124   5.535   6.698  11.974
 7061W        W11125   8.847   2.400   0.067
 7062W        W11126   6.427   3.089   8.546
 7063W        W11127   8.956   0.706  11.754
 7064W        W11128   0.301   4.489  11.476
 7065W        W11129   4.679   6.709   8.591
 7066W        W11130   6.700   6.757   9.297
 7067W        W11131   0.581   1.171   0.302
 7068W        W11132   9.257   2.409  11.789
 7069W        W11133   5.299   1.852  11.666
 7070W        W11134   1.179   1.798  11.851
 7071W        W11135   0.021   4.270   9.630
 7072W        W11136   1.001   3.290   2.421
 7073W        W11137   2.710   7.909   1.463
 7074W        W11138   3.268   6.036   9.051
 7075W        W11139   9.808   2.220   2.192
 7076W        W11140   4.271   2.200   1.479
 7077W        W11141   6.514   6.319   1.695
 7078W        W11142   3.073   6.555   1.994
 7079W        W11143   5.444   6.449   2.694
 7080W        W11144   0.714   9.837   3.094
 7081W        W11145   2.817   0.179   3.576
 7082W        W11146   7.895   2.052   0.958
 7083W        W11147   0.526   6.712   0.982
 7084W        W11148   2.181   1.278  10.456
 7085W        W11149   8.452   0.528   1.121
 7086W        W11150   7.897   1.844   1.718
 7087W        W11151   6.509   5.987   2.077
 7088W        W11152   6.683  10.395   2.847
 7089W        W11153   6.959   6.413   2.792
 7090W        W11154   4.287   2.147  11.874
 7091W        W11155   6.485   9.316   1.806
 7092W        W11156   6.082   2.725   2.740
 7093W        W11157   0.704   8.570  11.592
 7094W        W11158   2.280   7.215   1.449
 7095W        W11159   4.181  10.028  11.247
 7096W        W11160  10.280   6.527   2.201
 7097W        W11161  10.305   1.789  11.547
 7098W        W11162   9.286   4.209  10.059
 7099W        W11163   1.335   6.904  11.051
 7100W        W11164   3.739   7.489  10.519
 7101W        W11165   1.329   1.573  11.414
 7102W        W11166   9.582   0.033  11.212
 7103W        W11167   1.144   1.715  10.957
 7104W        W11168   0.359   3.273   1.736
 7105W        W11169   6.538   4.656   0.834
 7106W        W11170   0.041   9.109   0.172
 7107W        W11171   1.803   3.162   1.200
 7108W        W11172   9.848   7.465  10.834
 7109W        W11173   1.434   9.813   0.452
 7110W        W11174   1.633   4.298   1.904
 7111W        W11175   4.678   1.018   1.174
 7112W        W11176   6.903   6.648   1.290
 7113W        W11177   2.824   7.000  10.404
 7114W        W11178   3.546   6.988   9.602
 7115W        W11179   5.120   0.568   1.490
 7116W        W11180   1.997   4.275   0.439
 7117W        W11181   2.786   9.358   9.369
 7118W        W11182   9.302   8.859   3.376
 7119W        W11183   8.369   7.663   8.979
 7120W        W11184   4.055   6.998   9.579
 7121W        W11185   4.295   6.204   4.145
 7122W        W11186   0.807   0.398   1.866
 7123W        W11187   9.461   2.445   0.874
 7124W        W11188   9.842   5.047   1.523
 7125W        W11189   2.543   7.816   9.991
 7126W        W11190  10.222   0.389   3.016
 7127W        W11191   2.828   0.232   1.742
 7128W        W11192   3.335   4.676  11.010
 7129W        W11193   3.572   6.219   8.642
 7130W        W11194   9.549   2.504  11.015
 7131W        W11195   9.550   8.684   2.917
 7132W        W11196   5.507   9.380   9.481
 7133W        W11197   8.458   8.555   9.965
 7134W        W11198   7.869   5.393   8.877
 7135W        W11199   6.980   2.680   2.244
 7136W        W11200   2.747   1.941   2.616
 7137W        W11201   9.767   7.542  11.440
 7138W        W11202   6.913   3.502   9.226
 7139W        W11203   2.285   3.486  10.677
 7140W        W11204   9.199   9.143   0.468
 7141W        W11205   6.569   0.014   8.912
 7142W        W11206   9.031   2.051  10.858
 7143W        W11207   0.954   7.110  11.340
 7144W        W11208   1.428   5.591   3.285
 7145W        W11209   0.322   2.915   9.328
 7146W        W11210  10.315   6.004  10.485
 7147W        W11211   9.151   5.188   9.429
 7148W        W11212   0.516   3.264   2.250
 7149W        W11213   7.465   2.215  11.722
 7150W        W11214   0.299   1.455   3.537
 7151W        W11215  10.257   4.234  10.924
 7152W        W11216  10.368   2.931   9.613
 7153W        W11217   5.469   7.859   0.271
 7154W        W11218   4.768   7.343   1.296
 7155W        W11219   4.622   2.843   0.440
 7156W        W11220   2.385   7.422  11.221
 7157W        W11221   9.318  10.001   2.807
 7158W        W11222   6.631   5.251   3.625
 7159W        W11223   3.631   0.246   3.560
 7160W        W11224   6.185   5.739  10.381
 7161W        W11225   2.593   0.185   0.004
 7162W        W11226   1.443   4.955   1.831
 7163W        W11227   1.875   8.908   9.818
 7164W        W11228  10.256   1.094  10.986
 7165W        W11229   4.319   4.719   0.968
 7166W        W11230   1.811  10.384  11.159
 7167W        W11231   0.322   6.121   0.619
 7168W        W11232   6.778   1.671   0.914
 7169W        W11233   0.910   3.846  11.743
 7170W        W11234   6.156   3.330   8.089
 7171W        W11235   3.587   6.629   0.205
 7172W        W11236   6.960   5.014   9.374
 7173W        W11237   7.350   9.498  11.540
 7174W        W11238   4.633   9.610   1.052
 7175W        W11239   2.616   4.718  10.723
 7176W        W11240   5.663   7.191   4.008
 7177W        W11241   9.721   7.564   2.202
 7178W        W11242   9.727   2.987  11.344
 7179W        W11243   6.198   5.240   1.293
 7180W        W11244   0.319   3.161  10.319
 7181W        W11245   0.397   8.437   9.410
 7182W        W11246   3.791   8.452   2.314
 7183W        W11247   9.638   8.737   2.183
 7184W        W11248   8.350   2.290  11.487
 7185W        W11249   0.176   2.145   9.998
 7186W        W11250   4.979   0.384   9.141
 7187W        W11251   5.111   7.690   0.632
 7188W        W11252  10.040  10.305   0.804
 7189W        W11253   2.296   6.455  10.719
 7190W        W11254   4.991   5.328   1.633
 7191W        W11255   9.514   1.430   1.301
 7192W        W11256   1.891   4.430  11.468
 7193W        W11257   7.706   6.664  11.368
 7194W        W11258   6.664   5.285   3.125
 7195W        W11259   1.250   5.906   1.955
 7196W        W11260   7.137   4.029   3.071
 7197W        W11261   1.827   6.163   0.233
 7198W        W11262   7.546   7.320   2.372
 7199W        W11263   5.522   9.424  10.485
 7200W        W11264   2.686   6.396   2.314
 7201W        W11265   4.073   9.042   0.485
 7202W        W11266   6.098   2.381   0.746
 7203W        W11267   0.823   8.074   2.226
 7204W        W11268   3.179   6.522   8.839
 7205W        W11269   1.697   8.833   8.947
 7206W        W11270   1.316   5.207  10.422
 7207W        W11271   5.560   2.824   2.824
 7208W        W11272   3.233   1.858   0.498
 7209W        W11273   1.603   7.031   1.938
 7210W        W11274   6.205   3.051   9.373
 7211W        W11275   4.788   7.960   3.610
 7212W        W11276   7.495   9.565   9.257
 7213W        W11277   6.658   1.698   2.337
 7214W        W11278   2.801   2.847   9.885
 7215W        W11279  10.258   2.810  10.540
 7216W        W11280   1.799   6.920  11.254
 7217W        W11281   5.942   8.097  11.015
 7218W        W11282   4.128   5.699   2.117
 7219W        W11283   9.903   7.575   1.279
 7220W        W11284   0.813   9.406  10.060
 7221W        W11285   4.202   5.603  11.261
 7222W        W11286   1.342   8.167  11.556
 7223W        W11287   8.594   3.763   1.444
 7224W        W11288   6.891   0.905   0.388
 7225W        W11289   4.724   5.383  10.419
 7226W        W11290   9.851   8.057   2.365
 7227W        W11291   7.111  10.353   8.695
 7228W        W11292   8.129   8.201  11.318
 7229W        W11293   3.050   2.356  10.023
 7230W        W11294   7.590   6.870  10.897
 7231W        W11295   4.103   4.249  10.007
 7232W        W11296  10.286   6.230   0.487
 7233W        W11297   6.379   9.705   2.578
 7234W        W11298   5.045   9.579  11.751
 7235W        W11299   8.574   4.458   2.419
 7236W        W11300   1.625   7.270   2.769
 7237W        W11301   7.337   6.906   3.275
 7238W        W11302   9.388   5.201   1.283
 7239W        W11303   8.306   9.222   2.377
 7240W        W11304   0.315   8.179  11.584
 7241W        W11305   9.684   1.803   3.644
 7242W        W11306   8.448   8.387   2.360
 7243W        W11307   6.915   4.661   8.592
 7244W        W11308   0.598   7.202   1.027
 7245W        W11309   0.772  10.461  10.965
 7246W        W11310   4.168   9.341   2.333
 7247W        W11311   6.516   2.137   0.904
 7248W        W11312   0.793   6.992  10.274
 7249W        W11313   2.805   5.848   3.938
 7250W        W11314   4.076   6.631  11.427
 7251W        W11315   5.956   6.916  10.497
 7252W        W11316   8.396   8.571   9.452
 7253W        W11317   9.429   0.665   9.024
 7254W        W11318   8.094   5.178   0.322
 7255W        W11319   4.788   4.185   0.274
 7256W        W11320   9.868   0.863  10.297
 7257W        W11321   2.894   6.647   9.495
 7258W        W11322   6.840   5.915   0.375
 7259W        W11323  10.454   6.616   1.717
 7260W        W11324   7.403   4.463   9.829
 7261W        W11325   7.912   3.191   2.993
 7262W        W11326   1.383   4.694   0.029
 7263W        W11327   6.279   0.417   1.075
 7264W        W11328   3.124   0.846  10.179
 7265W        W11329   9.495   8.096   1.628
 7266W        W11330   2.113   4.991   0.602
 7267W        W11331   4.203   9.389  11.885
 7268W        W11332   2.799   6.966   0.944
 7269W        W11333   2.745   3.835  11.438
 7270W        W11334   1.706  10.336   9.724
 7271W        W11335   0.923   5.459   8.645
 7272W        W11336   5.865   6.872   3.245
 7273W        W11337   7.422   7.577   0.393
 7274W        W11338   5.202   0.542   2.287
 7275W        W11339   3.278   9.677  11.139
 7276W        W11340   9.242   7.068  10.334
 7277W        W11341   4.983   5.580   0.282
 7278W        W11342   1.787   1.387  11.242
 7279W        W11343   0.527   5.193   8.891
 7280W        W11344   5.745   9.412   0.923
 7281W        W11345   5.055   6.996  11.371
 7282W        W11346   0.888   9.910   1.674
 7283W        W11347   1.670   9.779   9.006
 7284W        W11348   8.971   6.619   9.562
 7285W        W11349   9.908   2.664  11.963
 7286W        W11350   8.099   8.525   8.613
 7287W        W11351   1.984   5.672   2.318
 7288W        W11352   7.837   7.497   9.203
 7289W        W11353   5.519   5.705   9.038
 7290W        W11354   0.307   3.548   9.986
 7291W        W11355  10.363   6.601  11.838
 7292W        W11356   3.330   3.068  11.994
 7293W        W11357   4.556   7.703   9.891
 7294W        W11358   8.416   2.109  11.977
 7295W        W11359   6.526   7.500  10.547
 7296W        W11360   2.860   2.357   2.888
 7297W        W11361   7.439   2.094   9.739
 7298W        W11362   3.632   4.997   9.590
 7299W        W11363   9.354   7.894   2.392
 7300W        W11364   5.947   8.654   0.324
 7301W        W11365   3.595   3.822   9.419
 7302W        W11366   0.282   6.546   2.120
 7303W        W11367   2.350   5.119   9.301
 7304W        W11368   9.801   8.086   1.228
 7305W        W11369   9.360  10.159   8.880
 7306W        W11370   7.370   1.768  11.966
 7307W        W11371   1.460   3.142   2.958
 7308W        W11372   0.779  10.304  10.085
 7309W        W11373   0.911   7.518   3.591
 7310W        W11374   1.267   1.289   9.074
 7311W        W11375   8.071   0.282   9.040
 7312W        W11376   5.093   0.761   0.999
 7313ION    NA+11377   6.448   4.862   8.707
 7314ION    NA+11378   1.835  10.063   2.193
 7315ION    NA+11379   7.767   7.071  11.706
 7316ION    NA+11380   9.056   5.953   1.382
 7317ION    NA+11381   5.488   3.577   9.493
 7318ION    NA+11382   7.893   4.750   0.132
 7319ION    NA+11383   5.521   4.061   0.960
 7320ION    NA+11384   6.203   1.442  10.734
 7321ION    NA+11385   2.622   8.312   9.846
 7322ION    NA+11386   2.751   4.597  10.245
 7323ION    NA+11387   1.499   2.361  10.603
 7324ION    NA+11388  10.106   4.991  11.451
 7325ION    NA+11389   2.662   0.346  10.299
 7326ION    NA+11390   0.630   9.111   9.450
 7327ION    NA+11391   5.154   4.593   2.657
 7328ION    NA+11392   4.200   8.546   0.228
 7329ION    NA+11393   7.448   4.374   2.307
 7330ION    NA+11394   1.156   7.587   2.291
 7331ION    NA+11395   8.837   0.609   9.612
 7332ION    NA+11396   3.715   2.629  10.089
 7333ION    NA+11397   7.343   1.316   1.959
 7334ION    NA+11398   4.988   3.252   0.671
 7335ION    NA+11399   4.211   5.416   0.514
 7336ION    NA+11400   0.618   8.412  11.105
 7337ION    NA+11401   0.630   2.723   1.097
 7338ION    NA+11402   8.303   1.522   1.771
 7339ION    NA+11403   0.798   2.721   9.802
 7340ION    NA+11404   1.510   2.732   0.021
 7341ION    NA+11405   7.084   9.059   9.881
 7342ION    NA+11406   8.577   6.218   3.096
 7343ION    NA+11407   2.905   9.493   2.706
 7344ION    NA+11408   8.910   9.152   2.628
 7345ION    NA+11409   2.380   2.143  11.024
 7346ION    NA+11410   0.924   5.158  11.986
 7347ION    NA+11411   9.656   2.095  11.844
 7348ION    NA+11412   7.062   7.195   0.371
 7349ION    NA+11413   2.305   1.275   9.922
 7350ION    NA+11414   4.993   4.082  11.775
 7351ION    NA+11415   6.535   7.767   9.034
 7352ION    NA+11416   8.641   8.239  11.401
 7353ION    NA+11417   2.700   6.483   0.333
 7354ION    NA+11418   1.677   5.178   2.706
 7355ION    NA+11419   5.152   8.235   0.947
 7356ION    NA+11420   5.651   6.083  11.205
 7357ION    NA+11421   3.063   7.124   9.509
 7358ION    NA+11422   6.719   9.168   3.233
 7359ION    NA+11423   1.687   7.156  10.792
 7360ION    NA+11424  10.496   1.630   9.171
 7361ION    NA+11425   1.428   8.280   0.562
 7362ION    NA+11426   7.892   8.745   9.382
 7363ION    NA+11427   8.371   9.062  10.901
 7364ION    NA+11428   4.405   1.507  11.413
 7365ION    NA+11429   3.130   2.882  11.296
 7366ION    NA+11430   3.816   3.871   0.671
 7367ION    NA+11431   7.671   7.877   1.463
 7368ION    NA+11432   9.054   5.005   2.821
 7369ION    NA+11433   6.764   1.721   3.139
 7370ION    NA+11434   3.451   8.389  11.452
 7371ION    NA+11435   9.861   9.503   1.241
 7372ION    NA+11436   7.097   3.104   2.555
 7373ION    NA+11437   6.204   2.545   1.233
 7374ION    NA+11438   3.998   2.270   0.935
 7375ION    NA+11439   5.973   9.650   9.608
 7376ION    NA+11440   9.968   9.831  11.408
 7377ION    NA+11441   9.027  10.336  10.420
 7378ION    NA+11442   1.193   9.086   0.764
 7379ION    NA+11443   8.682   7.074   3.087
 7380ION    NA+11444   3.746   1.662   3.001
 7381ION    NA+11445   6.040   6.961   8.701
 7382ION    NA+11446   6.585   0.717   0.778
 7383ION    NA+11447   8.450   6.855   0.227
 7384ION    NA+11448   7.086   6.455  11.699
 7385ION    NA+11449   1.496   4.546   8.926
 7386ION    NA+11450   1.640   0.378  10.336
 7387ION    NA+11451   2.984   3.939   0.324
 7388ION    NA+11452   2.080   0.184  11.631
 7389ION    NA+11453   3.868  10.118   0.458
 7390ION    CL-11454   5.857   5.576   2.656
 7391ION    CL-11455   8.188   9.865   1.333
 7392ION    CL-11456   6.211   0.547   0.597
 7393ION    CL-11457   6.566   1.703  10.766
 7394ION    CL-11458   7.494   7.266   9.516
 7395ION    CL-11459  10.167   8.340   0.962
 7396ION    CL-11460   4.084   5.269   9.426
 7397ION    CL-11461   1.590   7.662   2.358
 7398ION    CL-11462   1.916   5.499  10.025
 7399ION    CL-11463   9.553   7.442   3.629
 7400ION    CL-11464   5.541   2.622  11.363
 7401ION    CL-11465   2.877   9.884   8.405
 7402ION    CL-11466   4.100   6.392  10.101
 7403ION    CL-11467   2.400   4.043   3.114
 7404ION    CL-11468   1.202   8.678   0.564
 7405ION    CL-11469  10.466   5.162   9.590
 7406ION    CL-11470   9.168   9.517   2.591
 7407ION    CL-11471   2.078   8.479   3.510
 7408ION    CL-11472  10.230   7.904   0.063
 7409ION    CL-11473   0.282   1.597   0.216
 7410ION    CL-11474   7.791   7.438   1.468
 7411ION    CL-11475   7.684   8.348   9.353
 7412ION    CL-11476   2.905   2.919  11.679
 7413ION    CL-11477   4.241   5.260   0.094
 7414ION    CL-11478   0.629   8.798   9.134
 7415ION    CL-11479   2.049   6.491   1.598
 7416ION    CL-11480   7.894   6.387   9.115
 7417ION    CL-11481   7.372   6.803  11.772
 7418ION    CL-11482   5.476   7.370  11.340
 7419ION    CL-11483   2.773   2.328   3.409
 7420ION    CL-11484   0.978   4.785  11.746
 7421ION    CL-11485   0.289   3.941   0.869
 7422ION    CL-11486   8.703   6.631   2.951
 7423ION    CL-11487   1.055   8.494  11.208
 7424ION    CL-11488  10.221   9.998  11.750
 7425ION    CL-11489   7.247   6.180   1.318
 7426ION    CL-11490   9.782   5.956   3.541
 7427ION    CL-11491   3.903   1.913   1.184
 7428ION    CL-11492   2.932   3.213   2.944
 7429ION    CL-11493   6.227   4.737   9.075
 7430ION    CL-11494   4.481   1.670  11.820
 7431ION    CL-11495   1.913   0.591  11.723
 7432ION    CL-11496   7.858   2.161  10.985
 7433ION    CL-11497   9.830   8.051   9.526
 7434ION    CL-11498   9.722   9.621  11.085
 7435ION    CL-11499   6.523   9.281   2.840
 7436ION    CL-11500  10.065   2.209  11.708
 7437ION    CL-11501   3.417   3.871   0.450
 7438ION    CL-11502   2.142   3.761   2.132
 7439ION    CL-11503   8.862   7.930  11.636
 7440ION    CL-11504   3.701   1.447   2.608
 7441ION    CL-11505  10.365   3.746  10.814
 7442ION    CL-11506   7.353   8.175   1.334
 7443ION    CL-11507   6.766   1.273   9.427
 7444ION    CL-11508   4.150   4.778   1.713
 7445ION    CL-11509   9.384   6.011   1.679
 7446ION    CL-11510   0.247   8.148  11.076
 7447ION    CL-11511   6.351   6.622   1.278
 7448ION    CL-11512   8.637   0.914   9.869
 7449ION    CL-11513   8.818   3.100  11.500
 7450ION    CL-11514   9.364   0.789  11.401
 7451ION    CL-11515   4.801   8.484   9.337
 7452ION    CL-11516   0.033   0.351   0.208
 7453ION    CL-11517   5.100   4.478  11.983
 7454ION    CL-11518   3.802  10.046   9.150
 7455ION    CL-11519   1.295   4.270   2.390
 7456ION    CL-11520   8.153   7.084  11.970
 7457ION    CL-11521   8.836   1.900   3.027
 7458ION    CL-11522   3.256   7.582  10.743
 7459ION    CL-11523   9.577   6.688  10.252
 7460ION    CL-11524   4.460   8.901   0.154
 7461ION    CL-11525   7.719   5.962   2.173
 7462ION    CL-11526   1.481   4.217  10.528
 7463ION    CL-11527   0.742   6.555   2.403
 7464ION    CL-11528   8.362   5.535   8.881
 7465ION    CL-11529  10.206   4.070   8.777
 7466ION    CL-11530   5.081   3.720  11.511
  10.50000  10.50000  12.00000
