Protein in INSANE! Membrane UpperLeaflet>POPC=1.0 LowerLeaflet>POPC=1.0
10365
    1AU     AUC    1   3.447   2.239   6.359  0.0352 -0.0454 -0.0436
    1AU     AUC    2   3.691   2.136   6.216  0.0473 -0.0638  0.0776
    1AU     AUC    3   3.524   2.469   6.135 -0.0999 -0.0312 -0.1059
    1AU     AUC    4   3.316   2.052   6.627 -0.0182  0.0672  0.1695
    1AU     AUC    5   3.136   2.304   6.492 -0.0164 -0.0553  0.0114
    1AU     AUC    6   3.180   2.050   6.311  0.0096 -0.0630  0.0853
    1AU     AUC    7   3.422   2.153   6.034  0.0771  0.0382 -0.0648
    1AU     AUC    8   3.447   2.347   6.675  0.0141 -0.0299 -0.0090
    1AU     AUC    9   3.703   2.440   6.467  0.0854 -0.0193 -0.1365
    1AU     AUC   10   3.373   2.549   6.396  0.0273  0.0087 -0.0328
    1AU     AUC   11   3.189   2.369   6.173 -0.0155  0.0211 -0.0393
    1AU     AUC   12   3.643   2.112   6.528  0.0582 -0.0978  0.0427
    1AU     AUC   13   3.508   1.927   6.308 -0.0236  0.0567 -0.0349
    1AU     AUC   14   3.990   2.085   6.024 -0.0896 -0.0130 -0.0134
    1AU     AUC   15   3.829   2.404   5.962  0.0285  0.0060  0.0427
    1AU     AUC   16   3.639   2.687   5.930  0.0192  0.1249  0.0591
    1AU     AUC   17   3.199   1.794   6.870 -0.0593 -0.0153 -0.0709
    1AU     AUC   18   2.982   2.082   6.769 -0.1112 -0.0093 -0.0436
    1AU     AUC   19   2.805   2.386   6.624  0.0623  0.0533  0.0400
    1AU     AUC   20   2.934   1.836   6.227 -0.0626 -0.1284 -0.0259
    1AU     AUC   21   3.159   1.869   5.965 -0.0045  0.0450  0.0479
    1AU     AUC   22   3.395   2.032   5.729  0.0338  0.0838  0.0014
    1AU     AUC   23   3.442   2.462   6.996 -0.0039 -0.0566  0.0469
    1AU     AUC   24   3.738   2.537   6.782 -0.0585 -0.0431 -0.0626
    1AU     AUC   25   3.973   2.637   6.565  0.0532  0.0250 -0.0271
    1AU     AUC   26   3.282   2.884   6.460 -0.0878  0.0937  0.0530
    1AU     AUC   27   3.109   2.725   6.176  0.0077  0.0513 -0.0571
    1AU     AUC   28   2.930   2.481   5.956  0.0755  0.0340 -0.0332
    1AU     AUC   29   3.885   1.981   6.729 -0.0661 -0.0212  0.0028
    1AU     AUC   30   3.746   1.723   6.511 -0.0086  0.0339  0.0083
    1AU     AUC   31   3.534   1.590   6.302  0.0908 -0.0412  0.0296
    1AU     AUC   32   3.459   2.788   6.198 -0.0223  0.0121  0.0933
    1AU     AUC   33   3.296   2.620   5.910  0.0906 -0.0199  0.1031
    1AU     AUC   34   3.969   1.969   6.353 -0.0335  0.0040  0.0477
    1AU     AUC   35   3.766   1.827   6.126 -0.0390  0.0361  0.0468
    1AU     AUC   36   3.019   2.650   6.556 -0.0027 -0.0104  0.0288
    1AU     AUC   37   2.854   2.435   6.293 -0.0707 -0.0734 -0.0625
    1AU     AUC   38   3.554   1.907   6.813  0.0364 -0.0348  0.0749
    1AU     AUC   39   3.408   1.693   6.634 -0.0438  0.0251  0.0771
    1AU     AUC   40   3.709   2.103   5.818  0.0317  0.0504 -0.0385
    1AU     AUC   41   3.501   2.356   5.753  0.0861 -0.0935  0.0145
    1AU     AUC   42   3.044   1.823   6.565  0.1061 -0.0364  0.0389
    1AU     AUC   43   2.828   2.089   6.443 -0.0126 -0.0488  0.0641
    1AU     AUC   44   3.979   2.362   6.287 -0.0360 -0.0436 -0.0539
    1AU     AUC   45   3.815   2.690   6.266  0.0052  0.0842 -0.1189
    1AU     AUC   46   3.302   2.158   6.961  0.0328  0.0909  0.0811
    1AU     AUC   47   3.117   2.435   6.822 -0.1013  0.0140  0.0057
    1AU     AUC   48   2.896   2.151   6.072  0.0463  0.0419  0.0115
    1AU     AUC   49   3.159   2.247   5.840 -0.0299 -0.0424  0.0209
    1AU     AUC   50   3.366   2.691   6.738 -0.0147  0.0089 -0.0479
    1AU     AUC   51   3.632   2.777   6.542 -0.0601  0.0500 -0.0132
    1AU     AUC   52   3.250   1.706   6.283 -0.1055 -0.1326 -0.0165
    1AU     AUC   53   3.467   1.783   5.979  0.0450 -0.0943  0.1037
    1AU     AUC   54   3.682   2.217   6.897 -0.0222  0.0239 -0.0848
    1AU     AUC   55   3.942   2.292   6.614 -0.0104  0.0616  0.0686
    1AU    AUSL   56   3.472   2.936   5.895 -0.0141  0.0339  0.1539
    1AU    AUSL   57   3.521   3.108   6.321 -0.1113  0.0461 -0.0366
    1AU     AUL   58   3.580   3.240   5.999 -0.0288 -0.0065 -0.0120
    1AU       S   59   3.856   3.472   6.325 -0.0907 -0.1368  0.2007
    1AU     LIG   60   3.520   3.664   6.162 -0.0296  0.1403  0.0862
    1AU     LIG   61   3.160   3.956   6.172  0.3138  0.1501 -0.0471
    1AU     LIG   62   3.052   4.279   6.336  0.1534 -0.3394  0.4567
    1AU       S   63   3.245   3.428   5.773  0.1417  0.0196  0.2705
    1AU     LIG   64   3.299   3.788   5.579  0.1111 -0.1584 -0.0999
    1AU     LIG   65   3.478   4.067   5.719  0.3764  0.5196 -0.0120
    1AU     LIG   66   3.361   4.515   5.739 -0.0568 -0.2164  0.4525
    1AU    AUSL   67   3.143   3.044   6.155  0.0562  0.0794 -0.0192
    1AU    AUSL   68   2.829   2.737   6.091 -0.0888 -0.0268 -0.0091
    1AU     AUL   69   2.710   3.086   5.998  0.0110 -0.0066  0.0796
    1AU       S   70   3.128   3.264   6.069 -0.2556  0.1989 -0.3814
    1AU     LIG   71   2.865   3.540   6.098  0.1621 -0.0462  0.3982
    1AU     LIG   72   2.398   3.566   6.007  0.2202  0.4345  0.1454
    1AU     LIG   73   2.253   3.873   5.790  0.0371  0.0087 -0.1567
    1AU       S   74   2.721   3.194   6.440  0.1105 -0.0807  0.1192
    1AU     LIG   75   2.573   3.577   6.469  0.1170  0.1002 -0.1844
    1AU     LIG   76   2.227   3.904   6.359  0.1114  0.0547  0.0832
    1AU     LIG   77   1.938   3.833   6.131  0.2649  0.0857  0.1610
    1AU    AUSL   78   3.071   2.898   5.762 -0.0039 -0.0558  0.0985
    1AU    AUSL   79   3.379   2.671   5.555  0.0364 -0.0954 -0.0658
    1AU     AUL   80   3.453   3.019   5.570 -0.0115  0.0270 -0.0310
    1AU       S   81   3.026   3.105   5.668  0.0725 -0.1845  0.1618
    1AU     LIG   82   2.771   3.455   5.646 -0.3359 -0.0214 -0.0813
    1AU     LIG   83   2.769   3.885   5.693 -0.0431 -0.4372 -0.1929
    1AU     LIG   84   2.675   3.994   6.080  0.0613  0.0180  0.2919
    1AU       S   85   3.106   2.718   5.288 -0.5362 -0.2892  0.0202
    1AU     LIG   86   2.953   2.992   4.994 -0.0338 -0.1605 -0.1389
    1AU     LIG   87   2.600   3.233   4.832 -0.2358  0.3392 -0.0773
    1AU     LIG   88   2.399   3.286   4.477  0.2886 -0.4231  0.4045
    1AU    AUSL   89   4.073   1.673   6.049 -0.0978  0.0866 -0.0488
    1AU    AUSL   90   3.660   1.621   5.939  0.0406  0.1673 -0.0059
    1AU     AUL   91   3.871   1.305   5.885  0.0271 -0.1348 -0.0520
    1AU       S   92   4.171   1.264   6.199 -0.1401 -0.3824 -0.0019
    1AU     LIG   93   4.433   1.251   5.858 -0.1007 -0.2171  0.4317
    1AU     LIG   94   4.780   1.573   5.758 -0.2643  0.0684 -0.4977
    1AU     LIG   95   5.148   1.833   5.594 -0.0345  0.0947 -0.5097
    1AU       S   96   3.939   1.511   5.472 -0.2876  0.0878  0.1789
    1AU     LIG   97   4.133   1.075   5.465  0.0535  0.1442  0.2740
    1AU     LIG   98   4.435   0.776   5.532 -0.2498 -0.2174  0.0920
    1AU     LIG   99   4.747   0.795   5.882 -0.2080  0.0215 -0.2581
    1AU    AUSL  100   4.179   1.649   6.480 -0.0186  0.0207 -0.0339
    1AU    AUSL  101   4.273   2.006   6.185 -0.0142 -0.0346 -0.0317
    1AU     AUL  102   4.419   1.646   6.130  0.1102 -0.0181  0.0926
    1AU       S  103   4.621   1.991   6.346  0.3657 -0.0937 -0.0125
    1AU     LIG  104   4.883   1.844   6.146  0.0930 -0.1020 -0.3279
    1AU     LIG  105   5.267   1.985   6.037  0.4230  0.1467 -0.1699
    1AU     LIG  106   5.699   1.837   6.021 -0.1824  0.0494 -0.0982
    1AU       S  107   4.269   1.260   6.361  0.1964 -0.1747 -0.0956
    1AU     LIG  108   4.312   0.735   6.276  0.1843  0.1314 -0.1473
    1AU     LIG  109   4.637   0.483   6.301  0.2062  0.1978 -0.0510
    1AU     LIG  110   4.793   0.084   6.596  0.0395 -0.0235  0.1954
    1AU    AUSL  111   3.798   1.512   6.340 -0.0684  0.0030 -0.0317
    1AU    AUSL  112   3.859   1.713   6.759  0.0925  0.1264 -0.0096
    1AU     AUL  113   4.122   1.494   6.719 -0.0354 -0.0626 -0.1303
    1AU       S  114   3.924   1.177   7.000 -0.3119 -0.0695 -0.2025
    1AU     LIG  115   4.356   1.085   6.857  0.0252  0.1550  0.0585
    1AU     LIG  116   4.686   0.891   6.651  0.0273  0.2963 -0.1677
    1AU     LIG  117   5.003   0.731   6.874  0.0574  0.2733 -0.1205
    1AU       S  118   3.936   1.280   6.341 -0.3446 -0.4290 -0.2609
    1AU     LIG  119   3.732   0.906   6.246 -0.0361  0.0684  0.0222
    1AU     LIG  120   3.885   0.466   6.297  0.0562  0.0462 -0.2831
    1AU     LIG  121   3.844  -0.024   6.275  0.0780 -0.0702 -0.1750
    1AU    AUSL  122   2.616   2.666   6.459  0.0705 -0.0214  0.0708
    1AU    AUSL  123   2.579   2.406   6.068  0.0768  0.0822 -0.1086
    1AU     AUL  124   2.456   2.717   6.148  0.0335 -0.0494  0.0425
    1AU       S  125   2.464   3.109   6.396  0.5023  0.2830 -0.0884
    1AU     LIG  126   2.051   3.287   6.329 -0.2385 -0.1422  0.1854
    1AU     LIG  127   1.645   3.388   6.236  0.1051  0.2854  0.6023
    1AU     LIG  128   1.540   3.645   6.633 -0.0735  0.1289 -0.2438
    1AU       S  129   2.148   2.363   6.181 -0.1372  0.2681 -0.5223
    1AU     LIG  130   1.694   2.399   6.146  0.2026 -0.0177 -0.3012
    1AU     LIG  131   1.322   2.490   6.152  0.1705 -0.0932  0.1930
    1AU     LIG  132   1.062   2.679   5.851  0.4485  0.0617  0.2909
    1AU    AUSL  133   3.007   2.815   6.474 -0.0046  0.0722 -0.0752
    1AU    AUSL  134   2.802   2.751   6.857  0.1288  0.0942 -0.0363
    1AU     AUL  135   2.540   2.784   6.716 -0.1539 -0.0349  0.0918
    1AU       S  136   2.753   3.052   7.043  0.1408  0.1383 -0.2364
    1AU     LIG  137   2.405   3.309   6.897 -0.1491  0.0744  0.1954
    1AU     LIG  138   2.039   3.611   6.772 -0.0979  0.0260 -0.1038
    1AU     LIG  139   1.919   3.946   6.761 -0.0527  0.0703  0.1187
    1AU       S  140   2.796   3.082   6.464 -0.2455  0.1384  0.0521
    1AU     LIG  141   3.118   3.532   6.517  0.1253  0.3230  0.2523
    1AU     LIG  142   3.340   3.832   6.649  0.0054  0.0234  0.2220
    1AU     LIG  143   3.536   3.953   7.086  0.0614  0.0357  0.0667
    1AU    AUSL  144   3.528   1.589   7.025  0.1082 -0.0455 -0.0975
    1AU    AUSL  145   3.742   1.956   7.077  0.0607 -0.1162  0.0022
    1AU     AUL  146   3.906   1.650   7.116 -0.0292 -0.0355  0.0090
    1AU       S  147   3.789   1.223   7.140 -0.4987 -0.2361 -0.4422
    1AU     LIG  148   3.683   1.295   7.487 -0.1375 -0.0009 -0.3002
    1AU     LIG  149   3.469   1.172   7.916 -0.2130  0.1649 -0.0555
    1AU     LIG  150   3.450   0.875   8.282 -0.0962 -0.1717  0.2198
    1AU       S  151   3.668   1.830   7.431 -0.0312 -0.0998 -0.1848
    1AU     LIG  152   3.840   1.718   7.795 -0.1559 -0.1915  0.4402
    1AU     LIG  153   4.135   1.413   8.009 -0.0693  0.3858  0.3226
    1AU     LIG  154   4.547   1.225   8.170  0.0811 -0.4190 -0.3950
    1AU    AUSL  155   3.619   1.353   6.689  0.0217  0.0622  0.0262
    1AU    AUSL  156   3.167   1.448   6.814  0.0235 -0.0535  0.0275
    1AU     AUL  157   3.337   1.276   7.035  0.0491  0.0123 -0.0094
    1AU       S  158   3.101   1.085   6.667 -0.1682  0.5348 -0.1507
    1AU     LIG  159   2.789   1.091   6.992  0.0368  0.1053 -0.1630
    1AU     LIG  160   2.371   1.076   7.009  0.0930  0.0106 -0.1271
    1AU     LIG  161   2.134   0.602   6.972  0.1185 -0.1601 -0.0513
    1AU       S  162   3.729   1.192   6.774 -0.0858  0.1702 -0.1511
    1AU     LIG  163   3.991   0.860   6.665 -0.0265 -0.0058  0.6535
    1AU     LIG  164   4.278   0.572   6.750  0.3435  0.2209 -0.1642
    1AU     LIG  165   4.590   0.486   6.934  0.0306 -0.3072 -0.0976
    1AU    AUSL  166   3.678   2.228   5.512 -0.0323 -0.0158 -0.0184
    1AU    AUSL  167   3.915   1.957   5.778  0.0743  0.0244 -0.0868
    1AU     AUL  168   3.931   2.043   5.341  0.0116 -0.0528  0.0506
    1AU       S  169   4.072   1.675   5.587 -0.0482 -0.0048  0.0003
    1AU     LIG  170   4.390   1.849   5.653  0.0793 -0.3744  0.0162
    1AU     LIG  171   4.715   1.837   5.332 -0.2755 -0.2444 -0.0966
    1AU     LIG  172   4.972   1.856   5.164 -0.0656  0.2386 -0.0384
    1AU       S  173   3.967   2.503   5.276 -0.0698  0.0453  0.3228
    1AU     LIG  174   3.937   2.706   4.914 -0.0401 -0.2276 -0.0919
    1AU     LIG  175   3.683   2.585   4.548  0.0631  0.2672 -0.1304
    1AU     LIG  176   3.694   2.821   4.075  0.0633 -0.0293 -0.0772
    1AU    AUSL  177   4.099   2.312   5.693  0.0294  0.1089  0.0440
    1AU    AUSL  178   4.111   2.715   5.891 -0.0888  0.0454  0.0872
    1AU     AUL  179   4.390   2.523   5.670  0.0141  0.0586 -0.0365
    1AU       S  180   4.057   2.472   5.400  0.2025 -0.1590  0.2016
    1AU     LIG  181   4.362   2.860   5.285  0.0414  0.0280  0.1332
    1AU     LIG  182   4.440   2.970   4.886 -0.3021  0.0140  0.1153
    1AU     LIG  183   4.277   3.368   4.692  0.0009  0.1388  0.1782
    1AU       S  184   4.532   2.885   5.985 -0.0870  0.2038 -0.1445
    1AU     LIG  185   4.452   3.177   5.625  0.2339 -0.0629 -0.0938
    1AU     LIG  186   4.373   3.543   5.868 -0.0590 -0.0452 -0.0807
    1AU     LIG  187   4.703   3.731   6.137 -0.2625 -0.3493  0.2461
    1AU    AUSL  188   3.745   2.578   5.743 -0.0118  0.0148 -0.0451
    1AU    AUSL  189   3.273   2.269   5.407 -0.0145  0.1383  0.0346
    1AU     AUL  190   3.523   2.511   5.334 -0.0623 -0.0608  0.1262
    1AU       S  191   3.105   2.502   5.136  0.3875 -0.3468  0.0534
    1AU     LIG  192   3.305   2.334   4.851 -0.3589 -0.0291  0.3741
    1AU     LIG  193   3.659   2.213   4.932 -0.1806  0.1390  0.0008
    1AU     LIG  194   4.068   2.232   4.737  0.2246  0.3834  0.1756
    1AU       S  195   3.895   2.741   5.453 -0.1952  0.0239  0.0404
    1AU     LIG  196   3.938   3.146   5.561 -0.4653 -0.3222 -0.2215
    1AU     LIG  197   3.887   3.583   5.755  0.0557  0.2652 -0.0209
    1AU     LIG  198   4.088   3.880   6.107  0.0318 -0.2442  0.1960
    1AU    AUSL  199   2.623   1.758   6.467 -0.0072  0.1028 -0.0190
    1AU    AUSL  200   2.622   2.245   6.465 -0.0157 -0.0075 -0.0008
    1AU     AUL  201   2.338   1.851   6.306  0.0532  0.1121 -0.0178
    1AU       S  202   2.274   2.352   6.467  0.4371 -0.2835  0.1922
    1AU     LIG  203   2.098   2.766   6.476 -0.3824  0.1759 -0.2339
    1AU     LIG  204   1.640   2.897   6.439  0.1370 -0.0827 -0.3483
    1AU     LIG  205   1.238   2.915   6.452  0.3921 -0.1089  0.2903
    1AU       S  206   2.326   1.664   6.710 -0.4955 -0.2254  0.1825
    1AU     LIG  207   1.964   1.564   6.433  0.0345 -0.1998  0.2786
    1AU     LIG  208   1.492   1.643   6.414  0.5864 -0.2586 -0.4479
    1AU     LIG  209   1.265   1.795   6.846  0.0050  0.0425 -0.2725
    1AU    AUSL  210   2.927   1.791   6.772 -0.0342 -0.0341 -0.0369
    1AU    AUSL  211   2.920   1.452   6.457  0.0431  0.0051  0.0664
    1AU     AUL  212   2.784   1.466   6.691 -0.0635  0.0336 -0.0344
    1AU       S  213   2.361   1.597   6.921 -0.2574  0.0778 -0.0227
    1AU     LIG  214   2.197   1.404   7.333  0.0554 -0.1162  0.0263
    1AU     LIG  215   2.322   1.551   7.681  0.1108  0.5014 -0.2147
    1AU     LIG  216   2.707   1.848   7.696 -0.0718 -0.0135 -0.1550
    1AU       S  217   2.926   1.057   6.556 -0.0039 -0.0311 -0.0372
    1AU     LIG  218   2.681   0.971   6.182 -0.1111  0.2310  0.1112
    1AU     LIG  219   2.330   0.761   6.041 -0.3057 -0.0705  0.1352
    1AU     LIG  220   1.897   0.609   6.157  0.0851  0.0673 -0.0459
    1AU    AUSL  221   2.588   2.022   6.834  0.0332 -0.0280  0.0864
    1AU    AUSL  222   2.901   1.989   7.142 -0.1232 -0.0863 -0.0598
    1AU     AUL  223   2.766   1.738   7.083  0.0960  0.0018  0.1520
    1AU       S  224   2.638   2.202   7.273  0.0774 -0.0189  0.2246
    1AU     LIG  225   2.369   1.929   7.350  0.0404  0.0712 -0.1552
    1AU     LIG  226   1.957   1.808   7.058 -0.2212  0.2647 -0.3021
    1AU     LIG  227   1.723   1.542   6.853  0.0536  0.0809 -0.1351
    1AU       S  228   2.366   1.993   6.837 -0.0571 -0.1840 -0.0795
    1AU     LIG  229   1.888   2.121   6.666  0.1793  0.0176 -0.0850
    1AU     LIG  230   1.508   2.228   6.577  0.0712 -0.3014  0.2330
    1AU     LIG  231   1.205   2.401   6.861  0.2474 -0.0132 -0.3967
    1AU    AUSL  232   4.143   2.699   6.329 -0.1246  0.0330 -0.0805
    1AU    AUSL  233   3.802   2.846   6.125  0.0798 -0.0361  0.0170
    1AU     AUL  234   4.056   2.968   5.971 -0.1307 -0.0469 -0.0741
    1AU       S  235   4.352   2.824   6.329  0.2126 -0.0221 -0.3256
    1AU     LIG  236   4.389   3.033   6.711  0.2103  0.4274 -0.1522
    1AU     LIG  237   4.704   3.512   6.707  0.1063 -0.0213 -0.2292
    1AU     LIG  238   5.155   3.598   6.684 -0.1074  0.1181 -0.0865
    1AU       S  239   3.993   3.361   6.224  0.3996 -0.4544 -0.2714
    1AU     LIG  240   4.235   3.621   6.575 -0.1763 -0.2177  0.0789
    1AU     LIG  241   4.449   3.933   6.462 -0.3915  0.0224 -0.1673
    1AU     LIG  242   4.903   3.998   6.572 -0.1693 -0.2505 -0.3543
    1AU    AUSL  243   4.046   2.350   6.101 -0.0326 -0.0327  0.0055
    1AU    AUSL  244   4.370   2.358   6.433 -0.0273  0.0614 -0.0643
    1AU     AUL  245   4.377   2.362   6.087 -0.1148  0.0277 -0.0085
    1AU       S  246   4.557   2.778   6.141  0.0335  0.1118 -0.2410
    1AU     LIG  247   5.054   2.850   6.235  0.3148 -0.1702 -0.1039
    1AU     LIG  248   5.503   2.825   6.063 -0.1129  0.0299 -0.1345
    1AU     LIG  249   5.914   2.683   6.219  0.0779 -0.1284 -0.2003
    1AU       S  250   4.640   2.185   6.400 -0.1995 -0.0135 -0.3183
    1AU     LIG  251   4.938   2.361   6.072 -0.1286  0.0491 -0.2696
    1AU     LIG  252   4.958   2.677   5.748  0.0239  0.1069  0.1596
    1AU     LIG  253   4.878   2.933   5.420  0.0578 -0.0015 -0.1635
    1AU    AUSL  254   3.120   2.366   7.221  0.0720  0.0414  0.0229
    1AU    AUSL  255   3.314   1.950   7.081  0.0078 -0.1494  0.0242
    1AU     AUL  256   3.096   2.072   7.413  0.0235 -0.1207 -0.0194
    1AU       S  257   3.473   1.795   7.459  0.3488  0.1350  0.0325
    1AU     LIG  258   3.187   1.558   7.375  0.0191  0.0874 -0.4189
    1AU     LIG  259   3.190   1.155   7.475 -0.0708 -0.1594 -0.2060
    1AU     LIG  260   3.152   0.750   7.048  0.0542 -0.0286 -0.0879
    1AU       S  261   2.743   2.340   7.444 -0.1953 -0.1876 -0.2598
    1AU     LIG  262   2.608   2.561   7.660  0.3399 -0.2175 -0.4900
    1AU     LIG  263   2.430   2.821   7.280  0.5016  0.0217 -0.0795
    1AU     LIG  264   2.098   2.899   7.069  0.0398 -0.3562  0.1387
    1AU    AUSL  265   2.872   2.342   6.877  0.0059 -0.0691  0.0137
    1AU    AUSL  266   3.203   2.663   6.943  0.0815  0.0356  0.1143
    1AU     AUL  267   2.941   2.654   7.188 -0.0722 -0.0758  0.0483
    1AU       S  268   2.898   3.090   7.160  0.5448 -0.1691  0.1638
    1AU     LIG  269   2.838   3.489   7.364 -0.1484  0.0636  0.6589
    1AU     LIG  270   2.646   3.822   7.525  0.0576  0.2463 -0.1545
    1AU     LIG  271   2.422   4.279   7.418 -0.0083 -0.0652  0.0283
    1AU       S  272   2.611   2.375   7.111  0.1695 -0.3268  0.1023
    1AU     LIG  273   2.192   2.418   6.903 -0.1705 -0.0726 -0.1965
    1AU     LIG  274   1.771   2.546   6.863 -0.1987 -0.5199  0.0152
    1AU     LIG  275   1.452   2.796   6.910  0.1755  0.1079  0.0833
    1AU    AUSL  276   2.737   2.196   5.732 -0.0050 -0.0669  0.0136
    1AU    AUSL  277   2.715   2.001   6.134 -0.1296 -0.0340  0.0243
    1AU     AUL  278   2.446   2.097   5.948  0.0269  0.0891 -0.0100
    1AU       S  279   2.161   2.262   6.316 -0.3006  0.1420 -0.2459
    1AU     LIG  280   1.792   1.966   6.233 -0.0467  0.1225  0.0372
    1AU     LIG  281   1.467   2.030   5.964  0.2384  0.2408 -0.0998
    1AU     LIG  282   1.412   1.989   5.464  0.1390  0.1955  0.1778
    1AU       S  283   2.488   1.976   5.517 -0.2066 -0.2024  0.0768
    1AU     LIG  284   2.322   2.368   5.483  0.1715 -0.1765 -0.0367
    1AU     LIG  285   2.089   2.633   5.734  0.1682  0.0572  0.0097
    1AU     LIG  286   1.868   2.963   6.017 -0.4102 -0.0290 -0.2886
    1AU    AUSL  287   2.806   1.767   5.783  0.0113  0.0734  0.0087
    1AU    AUSL  288   3.223   1.632   5.731 -0.0379  0.0085  0.0063
    1AU     AUL  289   2.996   1.690   5.438 -0.0206 -0.0112 -0.0273
    1AU       S  290   2.570   1.691   5.651 -0.0124 -0.2751 -0.2389
    1AU     LIG  291   2.220   1.636   5.880 -0.0040  0.2729  0.0022
    1AU     LIG  292   1.818   1.600   5.943 -0.1112 -0.4142  0.1566
    1AU     LIG  293   1.464   1.509   5.718  0.1651 -0.1683 -0.0353
    1AU       S  294   3.022   1.301   5.694  0.2798  0.2724  0.0873
    1AU     LIG  295   2.747   1.271   5.280  0.3746 -0.2014 -0.1521
    1AU     LIG  296   2.836   1.341   4.913  0.0296 -0.1719 -0.6048
    1AU     LIG  297   2.819   1.488   4.498  0.3912 -0.3711 -0.0493
    1AU    AUSL  298   3.137   2.039   5.719  0.0260 -0.0370 -0.0471
    1AU    AUSL  299   3.045   2.474   5.746 -0.1774 -0.0284  0.0168
    1AU     AUL  300   2.950   2.204   5.451 -0.0524 -0.0048 -0.0024
    1AU       S  301   2.892   2.650   5.418 -0.2833 -0.0437  0.1131
    1AU     LIG  302   2.594   2.730   5.638 -0.1192 -0.0253  0.0794
    1AU     LIG  303   2.286   3.082   5.725 -0.1053  0.1272 -0.0732
    1AU     LIG  304   1.980   3.399   5.814 -0.0131 -0.3261  0.3206
    1AU       S  305   2.590   1.931   5.380 -0.0634 -0.0207  0.1886
    1AU     LIG  306   2.609   2.277   5.072  0.2905 -0.0742  0.0151
    1AU     LIG  307   2.529   2.697   5.033 -0.1315 -0.0657 -0.2591
    1AU     LIG  308   2.631   3.114   5.311 -0.6131  0.0658 -0.1641
    1AU    AUSL  309   3.522   2.921   6.721  0.0895 -0.0568  0.0245
    1AU    AUSL  310   3.903   3.005   6.510 -0.0126 -0.0786 -0.0342
    1AU     AUL  311   3.563   3.262   6.598 -0.0227 -0.0531  0.0249
    1AU       S  312   3.772   3.231   6.982  0.4631 -0.0558 -0.5861
    1AU     LIG  313   3.808   3.641   6.798  0.2413 -0.2921 -0.0552
    1AU     LIG  314   3.777   3.992   6.512  0.2083  0.1396 -0.2747
    1AU     LIG  315   3.612   4.267   6.135  0.2287 -0.0990 -0.1041
    1AU       S  316   4.022   3.198   6.419 -0.1540 -0.0272 -0.1197
    1AU     LIG  317   4.458   3.317   6.294  0.0864  0.2218  0.1195
    1AU     LIG  318   4.899   3.287   6.341  0.0650 -0.2526  0.1311
    1AU     LIG  319   5.304   3.201   6.424 -0.2165 -0.3890  0.1106
    1AU    AUSL  320   3.560   2.773   7.136  0.0651 -0.0152 -0.0173
    1AU    AUSL  321   3.139   3.076   6.765  0.0512 -0.0082  0.0587
    1AU     AUL  322   3.330   2.980   7.105  0.0090  0.0068  0.0233
    1AU       S  323   3.762   3.156   7.212 -0.2267 -0.2009 -0.4667
    1AU     LIG  324   3.701   3.538   7.423  0.3259 -0.3135 -0.1913
    1AU     LIG  325   3.944   3.837   7.572  0.2133 -0.0919 -0.0723
    1AU     LIG  326   4.212   4.183   7.453 -0.3061  0.3861  0.1317
    1AU       S  327   2.973   3.242   6.908  0.3490  0.0215  0.1213
    1AU     LIG  328   2.888   3.734   6.883  0.1760  0.2411  0.2825
    1AU     LIG  329   2.661   4.050   6.598  0.1342 -0.2319  0.1801
    1AU     LIG  330   2.507   4.398   6.352  0.1438  0.0924 -0.1951
    1AU    AUSL  331   3.920   2.834   6.892  0.0120 -0.0185  0.0321
    1AU    AUSL  332   3.789   2.440   7.030  0.0993 -0.0308  0.0057
    1AU     AUL  333   3.794   2.695   7.281  0.0142 -0.0885 -0.0515
    1AU       S  334   4.223   2.605   7.222  0.3508 -0.0287  0.2185
    1AU     LIG  335   4.257   2.793   7.515 -0.0031 -0.0562  0.0271
    1AU     LIG  336   4.344   2.766   7.974  0.1655 -0.1156  0.2166
    1AU     LIG  337   4.150   2.874   8.328  0.0501 -0.0664  0.1050
    1AU       S  338   3.988   3.083   6.971  0.2298 -0.0371  0.3060
    1AU     LIG  339   4.268   3.407   7.009  0.2564  0.1884 -0.1798
    1AU     LIG  340   4.130   3.728   7.143 -0.2241 -0.3618  0.3414
    1AU     LIG  341   3.952   4.168   7.008  0.4037  0.2273 -0.0026
    1AU    AUSL  342   3.357   1.343   6.033 -0.0301  0.0115 -0.0781
    1AU    AUSL  343   3.567   1.811   5.569  0.0420  0.0706 -0.0668
    1AU     AUL  344   3.468   1.428   5.678 -0.0465 -0.0060 -0.0322
    1AU       S  345   3.183   1.043   5.836 -0.3141  0.0054 -0.0044
    1AU     LIG  346   3.113   0.894   5.418 -0.1667 -0.1357 -0.0562
    1AU     LIG  347   3.182   0.837   4.977  0.5846  0.0885  0.1854
    1AU     LIG  348   2.935   0.493   4.785 -0.1418  0.1004 -0.1425
    1AU       S  349   3.782   1.629   5.424  0.2833  0.1375 -0.1956
    1AU     LIG  350   3.569   1.404   5.147 -0.3848 -0.4192  0.1685
    1AU     LIG  351   3.307   1.374   4.746  0.2269  0.1231  0.0649
    1AU     LIG  352   3.252   1.383   4.350 -0.0289  0.1435 -0.4114
    1AU    AUSL  353   3.042   1.657   6.122 -0.0133  0.0464  0.0083
    1AU    AUSL  354   3.348   1.502   6.412 -0.0066  0.0658 -0.0094
    1AU     AUL  355   3.060   1.296   6.196  0.0232 -0.0907 -0.0100
    1AU       S  356   2.858   1.276   5.812 -0.0137 -0.0288 -0.3044
    1AU     LIG  357   2.582   1.442   6.135 -0.0279 -0.4097 -0.0120
    1AU     LIG  358   2.366   1.232   6.451 -0.1015  0.0045  0.3230
    1AU     LIG  359   2.093   0.950   6.533 -0.1679  0.0662 -0.0227
    1AU       S  360   3.337   1.088   6.481 -0.0038  0.2746  0.0487
    1AU     LIG  361   3.244   0.733   6.264  0.1060 -0.0499 -0.2567
    1AU     LIG  362   3.346   0.271   6.226 -0.2271  0.0707 -0.1122
    1AU     LIG  363   3.338  -0.146   6.520  0.0478 -0.4518 -0.1035
    1AU    AUSL  364   4.094   2.160   7.001 -0.0028 -0.0929  0.0575
    1AU    AUSL  365   3.531   2.260   7.289 -0.0117 -0.0283 -0.0733
    1AU     AUL  366   3.915   2.255   7.306 -0.1058  0.0420 -0.0773
    1AU       S  367   3.525   2.005   7.535  0.1107  0.3046  0.2211
    1AU     LIG  368   3.319   2.172   7.848 -0.1611  0.0401 -0.1079
    1AU     LIG  369   3.028   2.441   7.916 -0.1058 -0.2136  0.1037
    1AU     LIG  370   2.749   2.211   7.953  0.1381  0.0803 -0.2489
    1AU       S  371   4.340   2.405   7.195  0.1090  0.1103  0.2107
    1AU     LIG  372   4.669   2.124   7.349 -0.2297 -0.0896  0.0918
    1AU     LIG  373   4.820   1.746   7.369  0.2244 -0.1891  0.1913
    1AU     LIG  374   5.122   1.595   7.503  0.4104 -0.1575 -0.4596
    1AU    AUSL  375   4.121   2.514   6.730 -0.0785  0.0277  0.0161
    1AU    AUSL  376   4.091   2.066   6.585 -0.0721  0.0712  0.0074
    1AU     AUL  377   4.356   2.198   6.787  0.0736 -0.0181  0.0182
    1AU       S  378   4.349   2.648   6.991  0.2285 -0.1252  0.1301
    1AU     LIG  379   4.566   3.031   7.196  0.1310 -0.0264 -0.4372
    1AU     LIG  380   4.721   3.338   7.200  0.0906  0.4618 -0.2552
    1AU     LIG  381   4.985   3.665   7.132 -0.2191  0.0389 -0.0165
    1AU       S  382   4.592   1.877   6.537  0.0396 -0.2366 -0.1712
    1AU     LIG  383   4.510   1.743   6.919  0.4751 -0.2923 -0.0771
    1AU     LIG  384   4.370   1.476   7.179 -0.5427  0.0543  0.0212
    1AU     LIG  385   4.117   1.437   7.523 -0.2138 -0.0271 -0.1212
    2POPC   NC3  386   5.245   5.396   8.437  0.0899  0.1071 -0.0633
    2POPC   PO4  387   5.196   4.998   8.526  0.0671  0.3542 -0.1500
    2POPC   GL1  388   5.244   5.001   8.041 -0.0477 -0.1462  0.2476
    2POPC   GL2  389   5.342   5.357   7.966  0.1373 -0.1001  0.2571
    2POPC   C1A  390   5.105   5.043   7.638  0.0051 -0.2948  0.1848
    2POPC   D2A  391   5.199   4.723   7.275  0.1068 -0.2218 -0.3003
    2POPC   C3A  392   5.364   4.913   6.853  0.1743  0.0225  0.1978
    2POPC   C4A  393   5.284   4.904   6.379 -0.1155  0.0417  0.1279
    2POPC   C1B  394   5.286   5.577   7.482 -0.0650 -0.3829 -0.1003
    2POPC   C2B  395   5.210   5.301   7.108  0.0546  0.1663  0.0078
    2POPC   C3B  396   5.075   5.230   6.660 -0.0677 -0.0802  0.0064
    2POPC   C4B  397   4.849   5.557   6.402 -0.2341 -0.2801  0.3207
    3POPC   NC3  398   3.892   8.520   8.423 -0.2832 -0.0765  0.2354
    3POPC   PO4  399   4.219   8.216   8.490  0.0625  0.0337  0.0961
    3POPC   GL1  400   4.309   7.958   8.180  0.2062  0.2463 -0.2057
    3POPC   GL2  401   4.536   8.025   8.038  0.3000 -0.2668 -0.0156
    3POPC   C1A  402   4.152   7.746   7.822  0.3717 -0.1975 -0.1730
    3POPC   D2A  403   3.897   7.849   7.483 -0.3843 -0.1902 -0.0061
    3POPC   C3A  404   3.694   7.564   7.121 -0.0573  0.0302  0.2312
    3POPC   C4A  405   3.758   7.597   6.702  0.0982  0.2215  0.1723
    3POPC   C1B  406   4.615   7.981   7.633 -0.0799 -0.0315  0.1125
    3POPC   C2B  407   4.703   7.869   7.246  0.1247 -0.1863 -0.0187
    3POPC   C3B  408   4.996   7.836   7.086  0.2109  0.2214  0.1865
    3POPC   C4B  409   5.387   7.948   6.847 -0.2368  0.1078  0.1348
    4POPC   NC3  410   3.666   5.378   8.327  0.0171  0.2427 -0.0964
    4POPC   PO4  411   3.244   5.295   8.296 -0.0195  0.1385 -0.3903
    4POPC   GL1  412   2.913   5.167   7.970  0.0330  0.3369  0.3802
    4POPC   GL2  413   2.690   4.852   8.077  0.1537  0.0136  0.0175
    4POPC   C1A  414   2.878   5.077   7.589 -0.2577 -0.1429  0.0531
    4POPC   D2A  415   2.931   5.221   7.229 -0.3125 -0.1079  0.2374
    4POPC   C3A  416   2.837   4.932   6.892  0.3730 -0.0358 -0.2698
    4POPC   C4A  417   2.706   4.556   6.744 -0.4092 -0.2540  0.0874
    4POPC   C1B  418   2.626   4.696   7.616  0.0108  0.2090 -0.1230
    4POPC   C2B  419   2.845   4.567   7.253 -0.2641 -0.0426 -0.1114
    4POPC   C3B  420   3.284   4.369   7.267 -0.3246  0.3868  0.0665
    4POPC   C4B  421   3.689   4.364   7.468  0.1330  0.0196 -0.0643
    5POPC   NC3  422   2.001   0.955   9.148 -0.3380 -0.2289 -0.0422
    5POPC   PO4  423   1.622   1.294   9.095  0.2295 -0.0188 -0.1373
    5POPC   GL1  424   1.948   1.325   8.792 -0.3583 -0.0478  0.0036
    5POPC   GL2  425   1.696   1.224   8.584  0.2013  0.0802  0.0683
    5POPC   C1A  426   2.199   1.098   8.513 -0.1700 -0.0393  0.0783
    5POPC   D2A  427   2.382   0.929   8.240  0.0294  0.0522 -0.1130
    5POPC   C3A  428   2.496   1.045   7.767 -0.1468 -0.1450  0.2498
    5POPC   C4A  429   2.711   1.352   7.419  0.4074  0.1833 -0.3167
    5POPC   C1B  430   1.576   1.383   8.199 -0.0776  0.1286  0.0229
    5POPC   C2B  431   1.331   1.458   7.772  0.4906 -0.0886  0.0335
    5POPC   C3B  432   1.079   1.486   7.385 -0.1323  0.0604 -0.0679
    5POPC   C4B  433   0.783   1.652   7.029  0.0672  0.0931  0.1880
    6POPC   NC3  434   1.087   3.849   8.692  0.0903 -0.1816 -0.4980
    6POPC   PO4  435   0.800   3.568   8.481 -0.0713 -0.0654  0.0722
    6POPC   GL1  436   0.733   3.504   7.985  0.2616  0.1422 -0.0459
    6POPC   GL2  437   0.348   3.548   7.850  0.3185  0.0874  0.1416
    6POPC   C1A  438   1.166   3.494   7.653  0.3986 -0.0955 -0.0736
    6POPC   D2A  439   1.253   3.726   7.345  0.0953  0.0183  0.1819
    6POPC   C3A  440   1.686   3.598   7.146  0.0324  0.1314 -0.0296
    6POPC   C4A  441   1.693   3.210   6.871 -0.0035 -0.3302  0.1161
    6POPC   C1B  442   0.564   3.517   7.461  0.2211 -0.2860  0.1534
    6POPC   C2B  443   0.862   3.334   7.142 -0.0746  0.2214 -0.3411
    6POPC   C3B  444   1.163   3.235   6.800  0.0242 -0.1283  0.1307
    6POPC   C4B  445   1.065   3.502   6.288 -0.0540 -0.0779 -0.3704
    7POPC   NC3  446   2.254   6.202   7.750 -0.1317  0.1457  0.0061
    7POPC   PO4  447   1.870   5.931   7.794 -0.1024 -0.1653 -0.0573
    7POPC   GL1  448   2.312   5.738   7.688  0.0453  0.3526 -0.2583
    7POPC   GL2  449   2.420   5.551   7.938  0.1795 -0.0240  0.0022
    7POPC   C1A  450   2.564   5.575   7.339 -0.0929 -0.1567 -0.0076
    7POPC   D2A  451   2.609   5.379   6.894 -0.3112  0.0144 -0.1891
    7POPC   C3A  452   2.432   5.206   6.554 -0.1416 -0.1244 -0.0364
    7POPC   C4A  453   2.361   4.906   6.260 -0.0153 -0.2805 -0.3368
    7POPC   C1B  454   2.244   5.250   7.701  0.1159  0.2293  0.1440
    7POPC   C2B  455   2.457   5.055   7.314 -0.0649  0.2272  0.0701
    7POPC   C3B  456   2.346   4.688   7.112  0.0496 -0.3099 -0.1020
    7POPC   C4B  457   2.249   4.260   6.923  0.1164 -0.1614 -0.0401
    8POPC   NC3  458   8.031   4.732   8.339 -0.0750  0.1259 -0.1206
    8POPC   PO4  459   7.586   4.844   8.302  0.0038 -0.0166 -0.3319
    8POPC   GL1  460   7.785   5.102   8.029  0.1511  0.2315 -0.0623
    8POPC   GL2  461   7.929   4.760   7.840 -0.1666  0.1693  0.0159
    8POPC   C1A  462   8.137   5.193   7.821  0.0159 -0.0231  0.3883
    8POPC   D2A  463   8.472   5.453   7.774  0.1982 -0.2095  0.1387
    8POPC   C3A  464   8.867   5.557   7.520 -0.2541  0.1525 -0.0238
    8POPC   C4A  465   8.987   5.994   7.435  0.1203 -0.0948 -0.0233
    8POPC   C1B  466   7.658   4.898   7.581 -0.0751  0.0304 -0.1344
    8POPC   C2B  467   7.348   5.084   7.621  0.3693 -0.0861 -0.0224
    8POPC   C3B  468   7.018   5.028   7.330 -0.2555 -0.0608 -0.1834
    8POPC   C4B  469   6.633   5.174   7.133 -0.3840 -0.0654  0.0601
    9POPC   NC3  470   3.005   0.336   9.034 -0.0777 -0.1738 -0.1237
    9POPC   PO4  471   2.772   0.673   8.951 -0.2328 -0.0119  0.0934
    9POPC   GL1  472   2.758   0.853   8.637  0.0613 -0.2385 -0.2042
    9POPC   GL2  473   2.659   1.259   8.521 -0.1061 -0.1773  0.0280
    9POPC   C1A  474   2.844   0.791   8.234  0.1373 -0.0401  0.0172
    9POPC   D2A  475   2.724   0.501   7.982  0.0255 -0.0697  0.0264
    9POPC   C3A  476   2.903   0.231   7.814 -0.1260  0.2011  0.3406
    9POPC   C4A  477   3.240   0.327   7.519  0.2027  0.0262 -0.1909
    9POPC   C1B  478   2.483   1.500   8.130  0.0134 -0.1353 -0.1606
    9POPC   C2B  479   2.335   1.903   8.082 -0.0309 -0.5492 -0.1127
    9POPC   C3B  480   2.338   2.183   7.742 -0.0805  0.1608 -0.1107
    9POPC   C4B  481   2.151   2.360   7.429 -0.0479  0.0336  0.1112
   10POPC   NC3  482   7.373   6.221   8.945 -0.2850  0.1546 -0.2374
   10POPC   PO4  483   7.639   5.902   8.568  0.1486  0.0192 -0.3478
   10POPC   GL1  484   7.858   5.918   8.110  0.0110  0.1897  0.2608
   10POPC   GL2  485   7.798   5.570   7.933 -0.0487 -0.1626 -0.1454
   10POPC   C1A  486   7.818   5.913   7.618  0.1257 -0.1528  0.1565
   10POPC   D2A  487   8.023   5.589   7.496 -0.3334 -0.0951  0.0557
   10POPC   C3A  488   7.933   5.207   7.236 -0.1232 -0.2475 -0.4760
   10POPC   C4A  489   7.853   4.649   7.117  0.0889  0.0877  0.0073
   10POPC   C1B  490   7.593   5.433   7.467 -0.0605  0.0865 -0.0554
   10POPC   C2B  491   7.355   5.312   7.155 -0.0332  0.0656  0.2027
   10POPC   C3B  492   7.181   5.227   6.808 -0.0627 -0.0677  0.1370
   10POPC   C4B  493   7.065   5.268   6.339 -0.0243  0.1081  0.3217
   11POPC   NC3  494   7.596   2.140   8.636  0.0989  0.3927 -0.0662
   11POPC   PO4  495   7.228   2.115   8.310  0.0046 -0.0312  0.1802
   11POPC   GL1  496   7.170   2.223   7.809 -0.0198  0.0206 -0.2096
   11POPC   GL2  497   7.528   2.205   7.748  0.0553  0.1529  0.0865
   11POPC   C1A  498   6.927   2.291   7.408  0.0889  0.2283 -0.1501
   11POPC   D2A  499   6.765   2.124   6.968  0.0333 -0.1055 -0.2389
   11POPC   C3A  500   6.844   1.983   6.484  0.1750 -0.2939 -0.2189
   11POPC   C4A  501   7.063   1.697   6.200  0.2057 -0.3318  0.0564
   11POPC   C1B  502   7.387   2.000   7.355  0.1950  0.0968  0.3818
   11POPC   C2B  503   7.373   1.973   6.938 -0.0273  0.4318  0.0735
   11POPC   C3B  504   7.709   1.879   6.589  0.0105  0.4743  0.0763
   11POPC   C4B  505   8.000   1.959   6.359 -0.0840  0.1011  0.0885
   12POPC   NC3  506   5.943   1.374   8.238 -0.1190  0.0619  0.0161
   12POPC   PO4  507   5.657   1.044   8.333  0.1402 -0.2049  0.1465
   12POPC   GL1  508   5.473   1.176   8.006 -0.2123 -0.1750  0.0430
   12POPC   GL2  509   5.452   1.542   8.016 -0.0726  0.3282  0.4942
   12POPC   C1A  510   5.343   1.124   7.661 -0.1837  0.0736 -0.1354
   12POPC   D2A  511   5.077   1.185   7.259  0.3706 -0.3830  0.0803
   12POPC   C3A  512   4.784   1.291   6.881  0.3081 -0.0519  0.1419
   12POPC   C4A  513   4.711   1.411   6.473  0.2255 -0.1745 -0.3398
   12POPC   C1B  514   5.620   1.487   7.659 -0.0817 -0.2458 -0.0294
   12POPC   C2B  515   5.529   1.485   7.238 -0.0926 -0.4943  0.0490
   12POPC   C3B  516   5.736   1.403   6.898 -0.0263  0.1634 -0.0068
   12POPC   C4B  517   5.737   1.627   6.479 -0.0753  0.1175 -0.1268
   13POPC   NC3  518   1.672   9.425   8.390  0.1228 -0.2745 -0.2809
   13POPC   PO4  519   1.989   9.500   8.137  0.0131  0.1411 -0.0170
   13POPC   GL1  520   2.170   9.835   7.817 -0.0962 -0.0304  0.2486
   13POPC   GL2  521   2.122   9.620   7.580 -0.3940  0.0642  0.1078
   13POPC   C1A  522   1.916  10.029   7.344 -0.1407 -0.0004 -0.2519
   13POPC   D2A  523   1.749   9.901   6.947 -0.3435 -0.3107  0.1895
   13POPC   C3A  524   2.086   9.627   6.768  0.0549 -0.0953  0.4788
   13POPC   C4A  525   1.968   9.316   6.362  0.1631  0.0993  0.1607
   13POPC   C1B  526   1.836   9.528   7.214 -0.1202 -0.1145  0.0538
   13POPC   C2B  527   1.615   9.444   6.729  0.0389 -0.1610 -0.2790
   13POPC   C3B  528   1.319   9.525   6.352 -0.0362 -0.3049 -0.2140
   13POPC   C4B  529   1.175   9.595   6.052 -0.2797 -0.2327  0.0284
   14POPC   NC3  530   3.217   9.212   8.809 -0.0674 -0.1137  0.0359
   14POPC   PO4  531   3.178   9.616   8.738  0.1581  0.0453 -0.1338
   14POPC   GL1  532   3.183   9.707   8.287  0.1187 -0.2755  0.0581
   14POPC   GL2  533   3.152   9.444   8.173  0.1546  0.0008 -0.1248
   14POPC   C1A  534   3.234  10.152   8.108  0.0178 -0.0187 -0.1154
   14POPC   D2A  535   3.184  10.416   7.810 -0.0311  0.1426 -0.0892
   14POPC   C3A  536   2.834  10.401   7.512  0.1059  0.1636 -0.1233
   14POPC   C4A  537   2.467  10.226   7.476  0.1511 -0.0360 -0.0024
   14POPC   C1B  538   3.267   9.502   7.741  0.2976 -0.0004 -0.1798
   14POPC   C2B  539   3.184   9.508   7.335  0.1330  0.0958 -0.4827
   14POPC   C3B  540   3.011   9.479   6.895  0.0551  0.0165 -0.0985
   14POPC   C4B  541   2.868   9.170   6.571 -0.2229  0.0911 -0.4662
   15POPC   NC3  542   4.284   1.292   9.256  0.1886  0.0202 -0.0889
   15POPC   PO4  543   4.428   1.099   8.929 -0.2468  0.0362  0.1017
   15POPC   GL1  544   4.270   1.095   8.565  0.2348 -0.0504 -0.1773
   15POPC   GL2  545   3.930   1.019   8.746 -0.2965 -0.0043  0.0083
   15POPC   C1A  546   4.149   0.925   8.120 -0.2916  0.2493 -0.0318
   15POPC   D2A  547   4.005   0.901   7.690 -0.0138  0.2240  0.1052
   15POPC   C3A  548   4.175   0.876   7.326  0.0728 -0.0571 -0.1330
   15POPC   C4A  549   4.096   0.405   7.305 -0.3830 -0.5065 -0.0920
   15POPC   C1B  550   3.496   1.097   8.822 -0.4467  0.1090 -0.0110
   15POPC   C2B  551   3.305   1.346   8.598  0.2164  0.2199 -0.1240
   15POPC   C3B  552   3.076   1.309   8.254  0.2077 -0.0744  0.0037
   15POPC   C4B  553   2.898   1.199   7.922  0.1169  0.1143 -0.1247
   16POPC   NC3  554   6.217   9.218   8.105  0.2751  0.1335  0.1215
   16POPC   PO4  555   6.144   8.923   8.416  0.1895  0.2538  0.1525
   16POPC   GL1  556   6.393   8.724   8.089  0.2810 -0.1568  0.1672
   16POPC   GL2  557   6.644   8.554   7.998  0.2342 -0.1390 -0.0201
   16POPC   C1A  558   6.299   8.723   7.621  0.1121 -0.1634 -0.3337
   16POPC   D2A  559   6.071   8.581   7.177 -0.1807  0.0882 -0.2254
   16POPC   C3A  560   5.955   8.762   6.893 -0.3113  0.0902  0.0972
   16POPC   C4A  561   5.592   9.117   6.904 -0.2391 -0.1058  0.1911
   16POPC   C1B  562   6.781   8.468   7.601 -0.0350 -0.2575 -0.4195
   16POPC   C2B  563   6.627   8.353   7.257 -0.1715  0.1827  0.2404
   16POPC   C3B  564   6.773   8.336   6.785  0.2639  0.0964  0.2611
   16POPC   C4B  565   6.733   8.363   6.266  0.1744 -0.1850 -0.3529
   17POPC   NC3  566   8.981   0.701   8.274 -0.1223 -0.1574 -0.1821
   17POPC   PO4  567   9.443   0.632   8.416  0.1353 -0.0142  0.0025
   17POPC   GL1  568   9.457   0.585   8.000 -0.0831  0.0022 -0.1136
   17POPC   GL2  569   9.568   0.937   7.788  0.1336 -0.0072  0.1221
   17POPC   C1A  570   9.310   0.228   7.800  0.0989 -0.1148 -0.2309
   17POPC   D2A  571   9.015  -0.045   7.648 -0.0391 -0.1484 -0.2285
   17POPC   C3A  572   8.708   0.093   7.487  0.2671 -0.0305  0.0135
   17POPC   C4A  573   8.709  -0.032   7.113 -0.2603  0.2272 -0.2359
   17POPC   C1B  574   9.238   1.108   7.418 -0.2199  0.1917 -0.1716
   17POPC   C2B  575   9.300   0.849   7.037 -0.0439  0.1223  0.4271
   17POPC   C3B  576   9.538   0.814   6.607 -0.0962  0.0918  0.4747
   17POPC   C4B  577   9.423   0.607   6.189 -0.1156 -0.1188 -0.2749
   18POPC   NC3  578   0.286   4.994   8.711  0.1811  0.1534 -0.0345
   18POPC   PO4  579   0.381   5.164   8.404 -0.2259  0.0311 -0.0790
   18POPC   GL1  580   0.412   4.932   7.981 -0.1953 -0.4099 -0.2222
   18POPC   GL2  581   0.748   4.835   7.946 -0.1217  0.1071 -0.0072
   18POPC   C1A  582   0.357   4.627   7.668 -0.0492 -0.0458 -0.0733
   18POPC   D2A  583   0.260   4.641   7.277  0.0352  0.2430 -0.2692
   18POPC   C3A  584   0.043   4.232   7.112 -0.1767 -0.0166 -0.1684
   18POPC   C4A  585  -0.175   3.829   7.113 -0.4958 -0.1192  0.1075
   18POPC   C1B  586   0.989   4.458   7.694  0.0178  0.0926 -0.0260
   18POPC   C2B  587   1.130   4.170   7.320  0.0386  0.1064 -0.0649
   18POPC   C3B  588   1.440   4.005   6.957 -0.1284  0.0991 -0.2038
   18POPC   C4B  589   1.602   4.291   6.654  0.0721 -0.2916  0.0276
   19POPC   NC3  590   0.533   1.589   9.164 -0.2396  0.0773  0.2663
   19POPC   PO4  591   1.054   1.427   9.132 -0.2478  0.3651 -0.1631
   19POPC   GL1  592   1.312   1.549   8.775 -0.1738  0.0316  0.0649
   19POPC   GL2  593   1.161   1.484   8.460 -0.0290 -0.0822  0.2820
   19POPC   C1A  594   1.578   1.835   8.474 -0.0273  0.2824  0.1114
   19POPC   D2A  595   1.359   1.945   8.111  0.0207 -0.1150 -0.3002
   19POPC   C3A  596   1.272   1.917   7.713  0.1936 -0.2337 -0.1520
   19POPC   C4A  597   1.266   2.084   7.272 -0.3037  0.0573  0.0638
   19POPC   C1B  598   0.971   1.567   8.072  0.1353 -0.1344 -0.0031
   19POPC   C2B  599   0.680   1.578   7.797  0.5328 -0.1327  0.2835
   19POPC   C3B  600   0.447   1.471   7.340  0.1581  0.0282 -0.1036
   19POPC   C4B  601   0.679   1.150   7.078 -0.1074  0.0070 -0.0523
   20POPC   NC3  602   4.590   5.068   8.395  0.1702 -0.3690 -0.1293
   20POPC   PO4  603   4.584   4.632   8.599 -0.1699 -0.3020 -0.0515
   20POPC   GL1  604   4.623   4.676   8.100 -0.3401 -0.0151 -0.2418
   20POPC   GL2  605   4.787   4.408   7.810 -0.2735 -0.1184  0.0116
   20POPC   C1A  606   4.293   4.516   7.788 -0.2676  0.0110 -0.1861
   20POPC   D2A  607   4.213   4.708   7.351 -0.2830  0.0030 -0.1750
   20POPC   C3A  608   4.244   5.108   7.417  0.2944 -0.0798  0.1011
   20POPC   C4A  609   4.313   5.461   7.557 -0.0947 -0.1068 -0.1238
   20POPC   C1B  610   4.675   4.474   7.306 -0.0113  0.0424  0.3189
   20POPC   C2B  611   4.461   4.442   6.888 -0.3995 -0.0566  0.0240
   20POPC   C3B  612   4.541   4.432   6.401 -0.0400  0.0697  0.1346
   20POPC   C4B  613   4.322   4.430   6.124  0.0281 -0.0903  0.1284
   21POPC   NC3  614   9.130   1.431   8.296  0.1799 -0.2670 -0.0504
   21POPC   PO4  615   9.309   1.122   8.202  0.1138  0.0991  0.3007
   21POPC   GL1  616   9.044   1.228   7.875 -0.0038  0.1765 -0.0379
   21POPC   GL2  617   9.189   1.580   7.768 -0.0360 -0.0705 -0.0287
   21POPC   C1A  618   8.752   1.262   7.548  0.1913  0.1223 -0.0912
   21POPC   D2A  619   8.784   1.132   7.122  0.1919 -0.4098  0.1088
   21POPC   C3A  620   8.887   1.359   6.660 -0.1451 -0.2143 -0.1815
   21POPC   C4A  621   9.020   1.607   6.436  0.2691  0.0051 -0.4698
   21POPC   C1B  622   9.343   1.922   7.551 -0.0669  0.2183 -0.0402
   21POPC   C2B  623   9.477   2.007   7.187 -0.0761  0.2470 -0.0626
   21POPC   C3B  624   9.755   2.255   6.832  0.3784 -0.0010 -0.4134
   21POPC   C4B  625   9.926   2.623   6.577  0.0956  0.0183  0.5441
   22POPC   NC3  626   8.996   3.033   8.180 -0.0631  0.0084  0.2073
   22POPC   PO4  627   8.697   3.379   8.265 -0.2569  0.0592  0.1533
   22POPC   GL1  628   8.599   3.419   7.797  0.2455  0.0821 -0.0817
   22POPC   GL2  629   8.777   3.037   7.723  0.0800  0.3119 -0.0607
   22POPC   C1A  630   8.958   3.427   7.457 -0.2126 -0.1358  0.0046
   22POPC   D2A  631   9.233   3.373   7.107  0.1051 -0.0267 -0.0348
   22POPC   C3A  632   9.176   3.004   6.784 -0.1901 -0.0719 -0.2281
   22POPC   C4A  633   8.895   3.089   6.372 -0.1623 -0.0205  0.0004
   22POPC   C1B  634   8.874   2.686   7.603  0.5040 -0.0262 -0.0509
   22POPC   C2B  635   8.989   2.231   7.467  0.1392 -0.2425  0.1161
   22POPC   C3B  636   8.862   2.106   7.172 -0.1317 -0.0727  0.0463
   22POPC   C4B  637   8.717   1.752   7.025 -0.0744  0.1569  0.2943
   23POPC   NC3  638   5.249   6.353   8.007 -0.0342 -0.1238  0.2087
   23POPC   PO4  639   5.275   5.856   8.123  0.1855  0.0771 -0.0659
   23POPC   GL1  640   4.893   5.962   7.888 -0.1885  0.0206  0.1362
   23POPC   GL2  641   4.836   5.603   7.660  0.1996 -0.0222  0.0233
   23POPC   C1A  642   4.757   6.015   7.445 -0.2216  0.0922  0.0949
   23POPC   D2A  643   4.809   5.945   7.047  0.5098 -0.0115 -0.0951
   23POPC   C3A  644   5.219   5.779   6.758  0.0316  0.0399 -0.2352
   23POPC   C4A  645   5.572   5.590   6.561 -0.1726  0.0902  0.0717
   23POPC   C1B  646   4.833   5.559   7.268 -0.0325  0.2203  0.0942
   23POPC   C2B  647   4.626   5.293   6.942  0.2141  0.0658 -0.0888
   23POPC   C3B  648   4.396   5.286   6.498 -0.0576 -0.1949 -0.0303
   23POPC   C4B  649   4.281   4.932   6.167 -0.3252  0.3830  0.1035
   24POPC   NC3  650   4.286   3.133   9.196  0.1844  0.1520 -0.1618
   24POPC   PO4  651   4.205   2.697   9.027  0.0528  0.0659  0.3441
   24POPC   GL1  652   4.202   2.427   8.662 -0.1894  0.1917 -0.1964
   24POPC   GL2  653   4.094   2.076   8.743  0.2363 -0.0312  0.0152
   24POPC   C1A  654   4.120   2.345   8.220 -0.1959 -0.3681 -0.0328
   24POPC   D2A  655   4.422   1.959   8.109 -0.0789 -0.0110 -0.0384
   24POPC   C3A  656   4.588   1.768   7.764  0.0919  0.2968  0.0033
   24POPC   C4A  657   4.636   1.265   7.651  0.1159  0.1781 -0.0099
   24POPC   C1B  658   3.627   2.162   8.552  0.0629 -0.4155 -0.0866
   24POPC   C2B  659   3.279   2.386   8.725  0.1987 -0.2996  0.1151
   24POPC   C3B  660   3.112   2.670   8.379  0.0182  0.0210  0.2234
   24POPC   C4B  661   2.708   2.784   8.145 -0.1578 -0.0410  0.0175
   25POPC   NC3  662   5.850   3.853   8.394 -0.1776  0.1839 -0.3760
   25POPC   PO4  663   6.143   3.548   8.167  0.1731  0.0813  0.0138
   25POPC   GL1  664   6.140   3.784   7.794 -0.3798  0.1861 -0.1086
   25POPC   GL2  665   6.112   4.095   7.999 -0.1516 -0.1763  0.1092
   25POPC   C1A  666   5.957   3.895   7.450  0.1235  0.1544  0.1782
   25POPC   D2A  667   6.046   3.684   6.951 -0.0359 -0.0407 -0.0779
   25POPC   C3A  668   6.271   3.890   6.636 -0.0407  0.1227  0.0327
   25POPC   C4A  669   6.414   3.841   6.252  0.0584 -0.2638 -0.3737
   25POPC   C1B  670   5.801   4.296   7.770 -0.0537 -0.0729  0.0972
   25POPC   C2B  671   5.615   4.256   7.347  0.2323 -0.1015 -0.0476
   25POPC   C3B  672   5.633   3.934   6.968  0.1295 -0.1820  0.3510
   25POPC   C4B  673   5.668   3.745   6.563 -0.0729  0.0518 -0.1940
   26POPC   NC3  674   6.784   2.326   8.412  0.2461  0.2787 -0.2786
   26POPC   PO4  675   6.804   1.943   8.067 -0.1444  0.0071 -0.0971
   26POPC   GL1  676   6.740   1.844   7.680  0.2171 -0.1468 -0.1488
   26POPC   GL2  677   6.398   1.986   7.471  0.0706 -0.3010 -0.1951
   26POPC   C1A  678   6.931   1.720   7.260 -0.0569 -0.0181  0.1154
   26POPC   D2A  679   6.934   1.558   6.855  0.2786  0.2671  0.0642
   26POPC   C3A  680   7.131   1.327   6.655  0.2148 -0.0816 -0.3491
   26POPC   C4A  681   7.507   1.412   6.433 -0.1122  0.2161 -0.0089
   26POPC   C1B  682   6.310   2.073   7.168 -0.3551 -0.1111 -0.0944
   26POPC   C2B  683   6.329   2.283   6.759  0.2493 -0.0154 -0.1036
   26POPC   C3B  684   6.461   2.422   6.301 -0.0064  0.2317 -0.1581
   26POPC   C4B  685   6.585   2.870   6.258 -0.2461 -0.0176 -0.0044
   27POPC   NC3  686   7.426   3.513   7.922 -0.0096  0.2014 -0.0998
   27POPC   PO4  687   7.109   3.159   8.142  0.0179  0.0188 -0.1390
   27POPC   GL1  688   7.252   3.091   7.760  0.2203  0.1382 -0.0998
   27POPC   GL2  689   6.996   2.836   7.689  0.0259 -0.3201 -0.1051
   27POPC   C1A  690   7.432   3.123   7.346 -0.1045 -0.1316 -0.0708
   27POPC   D2A  691   7.674   3.199   6.941 -0.0601 -0.0136  0.1659
   27POPC   C3A  692   8.008   2.940   6.709 -0.1475 -0.1390  0.2010
   27POPC   C4A  693   8.306   2.889   6.393  0.0214 -0.1230  0.0550
   27POPC   C1B  694   6.967   2.773   7.262 -0.0479 -0.2245 -0.0235
   27POPC   C2B  695   7.225   2.470   6.895 -0.3310 -0.0749 -0.3918
   27POPC   C3B  696   7.398   2.817   6.669  0.4530  0.0309 -0.0975
   27POPC   C4B  697   7.693   3.055   6.300 -0.1667  0.0084 -0.1796
   28POPC   NC3  698   9.194   3.830   8.348 -0.2008  0.0361  0.2089
   28POPC   PO4  699   8.942   4.179   8.453 -0.0516  0.1614  0.0970
   28POPC   GL1  700   8.995   4.323   8.007 -0.0272 -0.0530  0.1464
   28POPC   GL2  701   9.181   4.086   7.895 -0.3402 -0.0152  0.3751
   28POPC   C1A  702   9.005   4.518   7.565  0.0790  0.0598  0.0566
   28POPC   D2A  703   8.766   4.685   7.232 -0.2518 -0.0183 -0.2035
   28POPC   C3A  704   8.738   4.317   6.962 -0.0695  0.0055 -0.1956
   28POPC   C4A  705   8.954   3.884   6.984  0.0424 -0.2973  0.1869
   28POPC   C1B  706   9.218   4.013   7.465  0.0048  0.4911  0.0832
   28POPC   C2B  707   9.236   4.286   7.061  0.2959  0.0783  0.3276
   28POPC   C3B  708   9.225   4.425   6.705  0.1093 -0.3977 -0.1469
   28POPC   C4B  709   8.947   4.287   6.267  0.1565 -0.1936 -0.1779
   29POPC   NC3  710   7.051   1.481   8.131 -0.0426  0.3243  0.1409
   29POPC   PO4  711   7.404   1.326   8.110 -0.0641 -0.0326 -0.1727
   29POPC   GL1  712   7.380   1.118   7.703 -0.1665 -0.0067 -0.0269
   29POPC   GL2  713   7.244   1.265   7.434  0.2468 -0.0081 -0.0752
   29POPC   C1A  714   7.314   0.698   7.511 -0.1319  0.1244 -0.0711
   29POPC   D2A  715   7.472   0.454   7.278  0.3125  0.1565  0.0952
   29POPC   C3A  716   7.493   0.488   6.859  0.0880 -0.3665 -0.1345
   29POPC   C4A  717   7.588   0.415   6.471  0.1361  0.0852 -0.1682
   29POPC   C1B  718   7.198   0.938   7.086  0.0542  0.2005 -0.4236
   29POPC   C2B  719   7.159   0.846   6.724 -0.0279 -0.0697 -0.2378
   29POPC   C3B  720   7.320   0.928   6.339 -0.1362  0.0517 -0.2729
   29POPC   C4B  721   7.505   0.697   6.026 -0.1189  0.0233 -0.0355
   30POPC   NC3  722   5.443   7.451   8.135  0.0623 -0.3153 -0.0924
   30POPC   PO4  723   5.501   6.957   8.063 -0.0503 -0.0800 -0.2339
   30POPC   GL1  724   5.233   6.802   7.743 -0.0239  0.1376  0.2333
   30POPC   GL2  725   4.977   6.950   7.689  0.4427  0.0105  0.1189
   30POPC   C1A  726   5.376   6.509   7.355 -0.0436 -0.1380 -0.3276
   30POPC   D2A  727   5.216   6.276   7.067  0.1667 -0.0681 -0.1700
   30POPC   C3A  728   5.011   6.295   6.718  0.0020 -0.1405 -0.1413
   30POPC   C4A  729   4.713   6.058   6.540  0.0127  0.2653 -0.0263
   30POPC   C1B  730   5.185   6.982   7.270  0.1185 -0.0059  0.1980
   30POPC   C2B  731   5.377   6.788   6.861  0.1377  0.0240  0.1281
   30POPC   C3B  732   5.557   6.862   6.505 -0.0696 -0.0069 -0.0959
   30POPC   C4B  733   5.891   6.928   6.295  0.2651  0.1425  0.2301
   31POPC   NC3  734   3.402   6.194   8.139  0.1847  0.1049  0.1877
   31POPC   PO4  735   3.392   5.698   8.000 -0.0457  0.2576 -0.1572
   31POPC   GL1  736   3.408   5.672   7.609  0.0708  0.0430  0.1101
   31POPC   GL2  737   3.386   5.395   7.322  0.2477 -0.0237 -0.1473
   31POPC   C1A  738   3.519   5.884   7.226  0.2303 -0.1364  0.0143
   31POPC   D2A  739   3.467   5.917   6.793 -0.1088  0.0633  0.0346
   31POPC   C3A  740   3.658   6.360   6.677  0.3470  0.4875  0.2450
   31POPC   C4A  741   3.621   6.740   6.475  0.1274  0.1497  0.2099
   31POPC   C1B  742   3.574   5.445   6.916  0.0552  0.3305  0.1843
   31POPC   C2B  743   3.676   5.063   6.670  0.2032  0.3643  0.0066
   31POPC   C3B  744   3.896   4.758   6.499 -0.1053 -0.1356  0.0107
   31POPC   C4B  745   4.089   4.336   6.554  0.0319 -0.2334  0.2938
   32POPC   NC3  746   9.453   5.735   8.198 -0.0249 -0.0079  0.0524
   32POPC   PO4  747   9.391   6.038   7.960 -0.2828  0.2756  0.0019
   32POPC   GL1  748   9.552   6.208   7.679  0.2035 -0.0649 -0.0533
   32POPC   GL2  749   9.646   6.021   7.448 -0.0768  0.0040  0.0371
   32POPC   C1A  750   9.836   6.527   7.518 -0.0107 -0.0964 -0.0194
   32POPC   D2A  751  10.232   6.799   7.540  0.0427  0.2518  0.3981
   32POPC   C3A  752  10.499   6.909   7.206 -0.2737 -0.2310 -0.0745
   32POPC   C4A  753  10.865   6.976   7.051 -0.2306  0.3073 -0.0733
   32POPC   C1B  754   9.824   5.679   7.255  0.0675 -0.3270 -0.3825
   32POPC   C2B  755   9.799   5.482   7.023  0.3033 -0.2180  0.1932
   32POPC   C3B  756   9.534   5.233   6.748 -0.3758 -0.0935  0.0852
   32POPC   C4B  757   9.390   4.997   6.380 -0.2358 -0.0020 -0.0011
   33POPC   NC3  758   4.354   9.239   8.573  0.0863 -0.2956 -0.0482
   33POPC   PO4  759   4.079   9.568   8.562  0.0411  0.0124 -0.0060
   33POPC   GL1  760   4.264   9.593   8.129 -0.1393  0.0923  0.0145
   33POPC   GL2  761   4.206   9.276   8.057 -0.1573 -0.1103  0.0446
   33POPC   C1A  762   4.550   9.666   7.766  0.0751  0.2561 -0.0951
   33POPC   D2A  763   4.451   9.807   7.464  0.2114 -0.3058 -0.2369
   33POPC   C3A  764   4.608  10.127   7.473 -0.2380  0.3624  0.0030
   33POPC   C4A  765   4.648  10.540   7.227 -0.1276  0.2951 -0.0822
   33POPC   C1B  766   4.091   9.405   7.580  0.3447  0.1798  0.1034
   33POPC   C2B  767   4.088   9.601   7.167  0.1539 -0.1990 -0.1486
   33POPC   C3B  768   4.353   9.693   6.820  0.0817  0.0707 -0.0379
   33POPC   C4B  769   4.275   9.860   6.418 -0.2471  0.2671 -0.0311
   34POPC   NC3  770   1.156   1.055   8.654  0.1264 -0.0556 -0.0132
   34POPC   PO4  771   0.806   0.986   8.429 -0.0235 -0.0772  0.0605
   34POPC   GL1  772   0.634   1.101   7.988  0.1959  0.2734  0.0330
   34POPC   GL2  773   1.023   1.055   7.758 -0.0226 -0.0853  0.1005
   34POPC   C1A  774   0.350   1.055   7.612  0.3263  0.0837 -0.0719
   34POPC   D2A  775   0.049   0.935   7.302  0.0813 -0.0659 -0.1570
   34POPC   C3A  776   0.056   0.520   7.042 -0.1525 -0.2067  0.0170
   34POPC   C4A  777   0.304   0.254   6.758  0.1556 -0.0650  0.2736
   34POPC   C1B  778   1.051   0.893   7.292 -0.0694  0.0342  0.0432
   34POPC   C2B  779   1.068   0.799   6.834 -0.0129  0.0740  0.2044
   34POPC   C3B  780   0.856   0.857   6.445  0.2842  0.3982  0.1581
   34POPC   C4B  781   0.733   0.769   6.084 -0.2069  0.0147 -0.0175
   35POPC   NC3  782   7.457   6.717   8.070  0.1781  0.1258 -0.2258
   35POPC   PO4  783   7.635   7.049   8.100  0.2921 -0.0387  0.1373
   35POPC   GL1  784   7.784   7.024   7.736  0.1809 -0.4594 -0.1667
   35POPC   GL2  785   7.922   7.353   7.659 -0.1205 -0.1864  0.2227
   35POPC   C1A  786   7.681   6.714   7.371 -0.1770 -0.1639  0.0658
   35POPC   D2A  787   7.700   6.249   7.251 -0.0508  0.2033  0.0344
   35POPC   C3A  788   7.787   6.175   6.820 -0.0942  0.2498 -0.2201
   35POPC   C4A  789   7.845   6.402   6.412 -0.0077  0.3240 -0.2873
   35POPC   C1B  790   7.878   7.645   7.288 -0.1883 -0.1050  0.0827
   35POPC   C2B  791   7.723   7.820   6.948  0.1553 -0.0539  0.1378
   35POPC   C3B  792   7.295   7.705   6.621  0.2439  0.1863  0.2052
   35POPC   C4B  793   6.820   7.874   6.577  0.2082  0.0035 -0.1152
   36POPC   NC3  794   5.842   3.178   8.319 -0.2182  0.3527 -0.1538
   36POPC   PO4  795   5.707   3.404   8.646 -0.2009  0.2369  0.0385
   36POPC   GL1  796   5.432   3.480   8.274  0.1621 -0.2712  0.3421
   36POPC   GL2  797   5.676   3.550   7.972  0.5905 -0.0880 -0.0040
   36POPC   C1A  798   5.100   3.397   8.038 -0.1341  0.2235  0.3323
   36POPC   D2A  799   4.908   3.674   7.720 -0.2846  0.0010  0.0942
   36POPC   C3A  800   4.514   3.542   7.612  0.0107  0.0854 -0.1102
   36POPC   C4A  801   4.187   3.271   7.467 -0.4843 -0.0453 -0.0058
   36POPC   C1B  802   5.791   3.361   7.632 -0.0282  0.1105  0.1043
   36POPC   C2B  803   6.077   3.280   7.268  0.0250 -0.3190 -0.0850
   36POPC   C3B  804   6.151   2.918   7.017  0.1080 -0.2568  0.0116
   36POPC   C4B  805   6.214   2.857   6.647  0.3467 -0.1180  0.1029
   37POPC   NC3  806   2.372   0.093   8.281 -0.0850 -0.0849  0.2297
   37POPC   PO4  807   2.679  -0.220   8.377  0.0197  0.1743 -0.1746
   37POPC   GL1  808   2.660  -0.289   8.033  0.1261  0.1804 -0.2523
   37POPC   GL2  809   2.394  -0.383   7.935 -0.3141 -0.0826  0.1436
   37POPC   C1A  810   2.698  -0.151   7.523 -0.0830  0.0817 -0.1379
   37POPC   D2A  811   2.771   0.150   7.239  0.3012  0.3525 -0.2353
   37POPC   C3A  812   2.666   0.566   7.007 -0.2156 -0.2055  0.1861
   37POPC   C4A  813   2.556   0.731   6.708  0.1732 -0.2980  0.0136
   37POPC   C1B  814   2.405  -0.520   7.436 -0.0587 -0.3857 -0.0408
   37POPC   C2B  815   2.392  -0.184   7.128  0.1246  0.0048 -0.2134
   37POPC   C3B  816   2.582   0.060   6.791 -0.3497  0.0428 -0.1674
   37POPC   C4B  817   2.356   0.316   6.432  0.0089 -0.1026 -0.1172
   38POPC   NC3  818   2.197   6.457   8.174  0.1552  0.4013 -0.1824
   38POPC   PO4  819   1.866   6.461   7.805  0.1724 -0.0877  0.1477
   38POPC   GL1  820   1.833   6.327   7.454 -0.1488  0.1858  0.0843
   38POPC   GL2  821   2.014   6.414   7.304  0.0426  0.0963 -0.0765
   38POPC   C1A  822   1.871   6.212   6.914 -0.0073  0.3826 -0.1980
   38POPC   D2A  823   1.879   6.034   6.514  0.0198  0.0148 -0.3401
   38POPC   C3A  824   1.631   6.221   6.213 -0.0826  0.1299 -0.1035
   38POPC   C4A  825   1.499   6.234   5.764  0.2978 -0.0632  0.3433
   38POPC   C1B  826   2.071   6.702   6.931  0.1193  0.0301 -0.0945
   38POPC   C2B  827   1.863   6.866   6.572 -0.1845 -0.2568  0.0200
   38POPC   C3B  828   1.534   7.214   6.589  0.0107  0.0084 -0.3684
   38POPC   C4B  829   1.268   7.536   6.609  0.1263  0.0862  0.2012
   39POPC   NC3  830   0.218   6.604   8.435  0.2403 -0.2071 -0.3279
   39POPC   PO4  831  -0.003   6.943   8.231 -0.1606 -0.0364  0.2521
   39POPC   GL1  832   0.081   6.935   7.822  0.1062 -0.1434  0.1010
   39POPC   GL2  833   0.312   7.205   7.686 -0.3142  0.0029 -0.1627
   39POPC   C1A  834  -0.068   6.979   7.474  0.3225  0.1553  0.1026
   39POPC   D2A  835  -0.199   6.904   6.999  0.2974  0.0215 -0.1806
   39POPC   C3A  836   0.046   6.577   6.793  0.1413  0.0282 -0.1514
   39POPC   C4A  837   0.114   6.527   6.267 -0.3011  0.0718  0.0688
   39POPC   C1B  838   0.420   7.236   7.269 -0.0025  0.1823  0.0354
   39POPC   C2B  839   0.334   7.356   6.846 -0.2252  0.1413  0.2801
   39POPC   C3B  840   0.376   7.613   6.453  0.1036 -0.0146  0.0146
   39POPC   C4B  841   0.253   7.847   6.052 -0.0422 -0.3343 -0.0707
   40POPC   NC3  842   3.560   1.512   9.925 -0.3449 -0.1089  0.1597
   40POPC   PO4  843   3.766   1.571   9.503  0.1506 -0.1182  0.0086
   40POPC   GL1  844   3.964   1.651   9.081 -0.0187  0.0522 -0.0442
   40POPC   GL2  845   3.650   1.848   8.973 -0.2076 -0.0479 -0.1557
   40POPC   C1A  846   3.870   1.546   8.696  0.2008  0.2835 -0.0559
   40POPC   D2A  847   3.733   1.380   8.332  0.1532 -0.0100 -0.2394
   40POPC   C3A  848   3.437   1.775   8.274 -0.0654  0.4060 -0.0119
   40POPC   C4A  849   3.215   2.145   8.322 -0.0805 -0.1924  0.3740
   40POPC   C1B  850   3.198   1.888   8.735 -0.4647 -0.1429  0.1822
   40POPC   C2B  851   2.782   1.717   8.694  0.2136 -0.0151 -0.0486
   40POPC   C3B  852   2.439   1.668   8.650 -0.1114 -0.0383 -0.2912
   40POPC   C4B  853   2.068   1.586   8.431 -0.0151 -0.0596 -0.0641
   41POPC   NC3  854   8.431   2.298   8.197  0.0071 -0.2875 -0.0179
   41POPC   PO4  855   8.742   2.033   8.223 -0.5525 -0.0180 -0.2463
   41POPC   GL1  856   8.675   2.041   7.750  0.2570 -0.1467  0.0247
   41POPC   GL2  857   8.701   1.811   7.557 -0.2137 -0.0775  0.1132
   41POPC   C1A  858   8.376   2.063   7.345  0.2206 -0.0104  0.0840
   41POPC   D2A  859   8.454   2.197   6.870 -0.0598  0.4003 -0.0034
   41POPC   C3A  860   8.176   2.393   6.573 -0.0003 -0.1232  0.2723
   41POPC   C4A  861   7.791   2.519   6.278  0.0522  0.0256  0.2044
   41POPC   C1B  862   9.112   1.581   7.276 -0.3324  0.0685  0.1245
   41POPC   C2B  863   9.239   1.709   6.891 -0.0804  0.0810  0.0344
   41POPC   C3B  864   9.533   1.848   6.596 -0.1274 -0.1389  0.0393
   41POPC   C4B  865   9.825   1.617   6.408  0.1567  0.0197  0.2246
   42POPC   NC3  866   5.222   2.312   9.202  0.0819  0.0900  0.1744
   42POPC   PO4  867   5.413   2.060   8.855  0.1478  0.1526  0.1216
   42POPC   GL1  868   5.239   1.950   8.432 -0.1554 -0.0094 -0.0653
   42POPC   GL2  869   5.502   1.955   8.186  0.0642 -0.1420 -0.0136
   42POPC   C1A  870   4.999   2.077   8.106 -0.1427 -0.0431 -0.2855
   42POPC   D2A  871   5.057   2.109   7.718 -0.1455  0.3531 -0.2410
   42POPC   C3A  872   5.132   2.365   7.504 -0.1830 -0.0862 -0.0258
   42POPC   C4A  873   5.200   2.771   7.349  0.0876  0.1817  0.1434
   42POPC   C1B  874   5.495   2.027   7.754  0.0596  0.0451 -0.0020
   42POPC   C2B  875   5.371   1.974   7.252  0.1801 -0.3936 -0.1388
   42POPC   C3B  876   5.103   1.668   6.967  0.1289  0.2082  0.0908
   42POPC   C4B  877   5.167   1.545   6.564  0.2853  0.0575  0.0873
   43POPC   NC3  878   7.943   0.003   8.742  0.1643  0.0279 -0.0685
   43POPC   PO4  879   8.111  -0.419   8.598 -0.2318  0.0857  0.2454
   43POPC   GL1  880   8.124  -0.473   8.251  0.0710  0.2290 -0.2951
   43POPC   GL2  881   7.831  -0.527   8.180 -0.2198  0.1409 -0.0754
   43POPC   C1A  882   8.196  -0.411   7.865 -0.2465  0.1365 -0.3828
   43POPC   D2A  883   8.299  -0.023   7.646  0.2320 -0.1140 -0.1585
   43POPC   C3A  884   8.212  -0.106   7.186 -0.0344  0.1732  0.3158
   43POPC   C4A  885   8.365  -0.189   6.713  0.0242  0.0212 -0.2700
   43POPC   C1B  886   7.793  -0.166   7.789 -0.2388  0.1954  0.0533
   43POPC   C2B  887   7.852   0.203   7.505 -0.0524 -0.0969  0.0289
   43POPC   C3B  888   7.922   0.513   7.125 -0.0399 -0.0408  0.0629
   43POPC   C4B  889   7.965   0.652   6.718  0.1102  0.0518  0.0805
   44POPC   NC3  890   5.684   8.913   8.504 -0.1163 -0.0175 -0.1532
   44POPC   PO4  891   5.189   9.079   8.619 -0.1742 -0.1605 -0.3964
   44POPC   GL1  892   5.253   8.987   8.126  0.1051 -0.1503 -0.1274
   44POPC   GL2  893   5.091   8.716   8.159  0.0274  0.0468 -0.1256
   44POPC   C1A  894   5.485   9.008   7.710  0.0297  0.2627 -0.2660
   44POPC   D2A  895   5.889   8.999   7.485 -0.0826 -0.0083 -0.3587
   44POPC   C3A  896   6.118   9.113   7.192 -0.0118  0.4157 -0.1517
   44POPC   C4A  897   6.104   9.537   7.209 -0.2688 -0.0897 -0.0588
   44POPC   C1B  898   4.850   8.895   7.774 -0.1492 -0.1247  0.0734
   44POPC   C2B  899   4.513   9.186   7.632  0.1868 -0.0928  0.0304
   44POPC   C3B  900   4.542   9.338   7.202 -0.3069  0.0382 -0.1169
   44POPC   C4B  901   4.743   9.603   7.137 -0.0041 -0.2676 -0.1035
   45POPC   NC3  902   7.744   8.501   8.654 -0.1350 -0.0391  0.0722
   45POPC   PO4  903   7.965   8.770   8.507  0.0652  0.0696 -0.2681
   45POPC   GL1  904   7.960   8.600   8.154 -0.4112  0.0416  0.0260
   45POPC   GL2  905   8.122   8.763   7.939 -0.0099 -0.1401 -0.2696
   45POPC   C1A  906   7.727   8.577   7.820  0.2174 -0.1072  0.2180
   45POPC   D2A  907   7.646   8.601   7.329 -0.1143  0.0533  0.2032
   45POPC   C3A  908   7.757   8.274   7.238 -0.1275 -0.0771  0.3416
   45POPC   C4A  909   8.179   8.164   6.967  0.2835 -0.0302  0.0842
   45POPC   C1B  910   8.106   8.826   7.571  0.1718 -0.1988  0.0108
   45POPC   C2B  911   8.009   9.106   7.292  0.1310 -0.4927 -0.1900
   45POPC   C3B  912   7.973   9.198   6.844  0.3249  0.1498  0.1561
   45POPC   C4B  913   7.678   9.352   6.565 -0.0312 -0.0104 -0.3033
   46POPC   NC3  914   1.624   0.265   8.591 -0.0039  0.0041 -0.0307
   46POPC   PO4  915   1.979   0.199   8.651 -0.0462 -0.0131 -0.0854
   46POPC   GL1  916   1.898   0.380   8.216 -0.1320  0.4653  0.5261
   46POPC   GL2  917   2.093   0.592   8.084 -0.0510 -0.4677 -0.2133
   46POPC   C1A  918   1.642   0.534   7.840  0.1093  0.1960  0.0258
   46POPC   D2A  919   1.348   0.620   7.503 -0.0121  0.1418 -0.0022
   46POPC   C3A  920   1.550   0.706   7.105  0.2477  0.1131 -0.1771
   46POPC   C4A  921   1.670   0.672   6.700  0.0839 -0.0768 -0.0740
   46POPC   C1B  922   2.090   0.708   7.703  0.1375  0.0307 -0.0937
   46POPC   C2B  923   1.926   0.968   7.373  0.0082  0.3962  0.0751
   46POPC   C3B  924   1.850   1.056   6.946 -0.0095  0.0143  0.3271
   46POPC   C4B  925   1.649   1.149   6.508 -0.1773  0.2498 -0.2728
   47POPC   NC3  926   4.478   1.556   9.597  0.2990 -0.0736 -0.0754
   47POPC   PO4  927   4.450   1.741   9.292 -0.1321 -0.0222 -0.0527
   47POPC   GL1  928   4.434   1.625   8.809  0.2772  0.1013 -0.0053
   47POPC   GL2  929   4.668   1.469   8.701 -0.4006  0.0160 -0.2377
   47POPC   C1A  930   4.260   1.643   8.392  0.0768 -0.2072 -0.3152
   47POPC   D2A  931   3.943   1.856   8.259  0.1235 -0.1131  0.0138
   47POPC   C3A  932   3.707   2.151   8.061  0.1181 -0.2027 -0.1343
   47POPC   C4A  933   3.759   2.440   7.743 -0.1643  0.1198  0.0920
   47POPC   C1B  934   4.829   1.651   8.361  0.4426 -0.1542  0.1512
   47POPC   C2B  935   4.976   1.498   7.985 -0.2618 -0.0753 -0.0203
   47POPC   C3B  936   4.976   0.969   7.963 -0.0160 -0.0571 -0.2303
   47POPC   C4B  937   5.036   0.740   7.572  0.2912  0.0090 -0.0529
   48POPC   NC3  938   5.901   4.774   8.485 -0.3434 -0.3048  0.1221
   48POPC   PO4  939   5.670   5.129   8.609  0.0859 -0.1447  0.3193
   48POPC   GL1  940   5.674   5.102   8.213 -0.0834 -0.2381 -0.2942
   48POPC   GL2  941   5.909   5.295   7.980 -0.1817 -0.1977 -0.1176
   48POPC   C1A  942   5.639   4.795   7.767  0.0421 -0.0856 -0.1244
   48POPC   D2A  943   5.297   4.451   7.791 -0.0778 -0.1501  0.3253
   48POPC   C3A  944   5.092   4.189   7.446 -0.0740  0.1863  0.1240
   48POPC   C4A  945   5.115   4.149   7.064  0.2684  0.1025 -0.0002
   48POPC   C1B  946   5.822   5.522   7.518  0.0943  0.2038  0.2227
   48POPC   C2B  947   5.581   5.827   7.103  0.1611  0.2426 -0.2536
   48POPC   C3B  948   5.617   6.018   6.726  0.0428  0.1424 -0.0794
   48POPC   C4B  949   5.440   6.380   6.460  0.0504  0.1475  0.0169
   49POPC   NC3  950   8.273   3.228   8.122 -0.1431  0.1329 -0.0493
   49POPC   PO4  951   7.868   3.437   8.230 -0.1506  0.1269  0.0764
   49POPC   GL1  952   7.951   3.695   7.880 -0.1214  0.0561 -0.2589
   49POPC   GL2  953   8.257   3.815   7.704  0.2190  0.1450 -0.0969
   49POPC   C1A  954   7.845   3.888   7.460 -0.1736 -0.3368  0.0085
   49POPC   D2A  955   7.635   4.105   7.053  0.1069 -0.0368  0.0890
   49POPC   C3A  956   7.593   3.942   6.639  0.0094 -0.1884 -0.1546
   49POPC   C4A  957   7.568   3.483   6.558 -0.0797 -0.1506  0.1053
   49POPC   C1B  958   8.019   3.444   7.433  0.0104 -0.1594  0.0873
   49POPC   C2B  959   7.946   2.961   7.340 -0.1929  0.0736 -0.0706
   49POPC   C3B  960   7.616   2.713   7.099  0.0910  0.4506 -0.2108
   49POPC   C4B  961   7.395   2.502   7.392  0.0267  0.0182  0.1156
   50POPC   NC3  962   1.632   7.204   8.923 -0.1763  0.0915 -0.2046
   50POPC   PO4  963   2.063   7.313   8.750  0.1709  0.0449  0.0866
   50POPC   GL1  964   2.037   7.320   8.290 -0.0852 -0.1307  0.1416
   50POPC   GL2  965   1.744   7.499   8.105 -0.2227 -0.0994  0.1274
   50POPC   C1A  966   2.127   7.286   7.768  0.0256  0.3669  0.2305
   50POPC   D2A  967   2.497   7.367   7.460 -0.1768  0.0371  0.1831
   50POPC   C3A  968   2.781   7.724   7.270  0.3182 -0.1840 -0.1112
   50POPC   C4A  969   3.315   7.675   7.404  0.1388 -0.1034 -0.0366
   50POPC   C1B  970   1.576   7.260   7.770 -0.2758  0.1200 -0.2830
   50POPC   C2B  971   1.633   6.977   7.436  0.0630 -0.3401  0.0082
   50POPC   C3B  972   1.645   6.955   7.010 -0.4043  0.0003 -0.0201
   50POPC   C4B  973   1.496   6.590   6.707  0.3999  0.2641 -0.3725
   51POPC   NC3  974   9.642   0.079   8.524 -0.2266  0.1190  0.1191
   51POPC   PO4  975   9.293  -0.283   8.426  0.0672  0.3345 -0.0649
   51POPC   GL1  976   9.219  -0.265   8.085  0.1758  0.1114 -0.1311
   51POPC   GL2  977   8.826  -0.142   8.120  0.1575  0.1362  0.0809
   51POPC   C1A  978   9.218  -0.505   7.713 -0.1625  0.4728  0.0741
   51POPC   D2A  979   9.098  -0.431   7.231 -0.0064 -0.3118  0.1845
   51POPC   C3A  980   9.133  -0.818   7.003  0.0167  0.1598 -0.2534
   51POPC   C4A  981   9.186  -1.083   6.742 -0.0508 -0.0581 -0.2695
   51POPC   C1B  982   8.699  -0.398   7.836 -0.1470  0.1063 -0.2967
   51POPC   C2B  983   8.566  -0.474   7.425 -0.1656 -0.2297  0.0635
   51POPC   C3B  984   8.637  -0.566   6.983  0.1606  0.1436 -0.1056
   51POPC   C4B  985   8.753  -0.496   6.527 -0.0876  0.0577 -0.1625
   52POPC   NC3  986   0.903   0.112   8.736 -0.0189 -0.1138  0.0867
   52POPC   PO4  987   1.225   0.009   8.509  0.0902  0.0259  0.1828
   52POPC   GL1  988   1.369   0.244   8.133 -0.1594 -0.0613 -0.0062
   52POPC   GL2  989   1.610   0.039   7.947  0.0576  0.1142 -0.1489
   52POPC   C1A  990   1.046   0.429   7.811  0.2759 -0.0202  0.0504
   52POPC   D2A  991   0.718   0.717   7.625 -0.1244 -0.0566 -0.0126
   52POPC   C3A  992   0.533   0.733   7.233  0.0705  0.4063 -0.1849
   52POPC   C4A  993   0.347   0.804   6.797  0.0628  0.1838 -0.0553
   52POPC   C1B  994   1.570   0.097   7.560 -0.4084 -0.6746  0.0371
   52POPC   C2B  995   1.295   0.253   7.146  0.0007 -0.2513  0.2440
   52POPC   C3B  996   1.335   0.195   6.731 -0.1110 -0.1136 -0.3150
   52POPC   C4B  997   1.155   0.334   6.378  0.1208  0.1297 -0.1222
   53POPC   NC3  998   2.171   8.309   9.149 -0.1580 -0.0385 -0.0489
   53POPC   PO4  999   2.239   8.317   8.592  0.1737 -0.2200  0.1884
   53POPC   GL1 1000   2.552   8.459   8.210  0.1600 -0.0238  0.3758
   53POPC   GL2 1001   2.320   8.669   7.919  0.0298  0.1600  0.1864
   53POPC   C1A 1002   2.797   8.366   7.809 -0.0355 -0.1065  0.2643
   53POPC   D2A 1003   2.885   8.195   7.435 -0.0486  0.0079 -0.0637
   53POPC   C3A 1004   2.988   8.414   7.058  0.1073 -0.0173  0.1227
   53POPC   C4A 1005   3.018   8.310   6.604  0.1258  0.1591  0.3960
   53POPC   C1B 1006   2.240   8.343   7.826  0.1976  0.0473  0.0066
   53POPC   C2B 1007   1.939   8.115   7.542  0.1268  0.3361  0.1456
   53POPC   C3B 1008   1.482   8.305   7.402  0.1520 -0.3992  0.0090
   53POPC   C4B 1009   1.314   8.401   7.024 -0.1595 -0.1307  0.1251
   54POPC   NC3 1010   2.585   7.145   8.881 -0.0333  0.3673 -0.1555
   54POPC   PO4 1011   2.590   7.254   8.354  0.2854  0.4155 -0.1074
   54POPC   GL1 1012   2.602   7.511   8.056 -0.0310  0.1142 -0.0590
   54POPC   GL2 1013   2.344   7.664   8.027  0.0645  0.0511  0.2576
   54POPC   C1A 1014   2.955   7.547   7.704 -0.1005  0.0350  0.2953
   54POPC   D2A 1015   2.968   7.300   7.317  0.2378  0.2710  0.0343
   54POPC   C3A 1016   3.173   7.271   6.962 -0.0055 -0.0743  0.1626
   54POPC   C4A 1017   3.226   7.067   6.570 -0.0095  0.1818  0.0114
   54POPC   C1B 1018   2.538   7.956   7.722  0.1475  0.0410 -0.0745
   54POPC   C2B 1019   2.422   8.119   7.279 -0.1440 -0.2569  0.0080
   54POPC   C3B 1020   2.402   8.315   6.863 -0.0246 -0.1272  0.0055
   54POPC   C4B 1021   2.424   8.314   6.430  0.0316 -0.0174 -0.1010
   55POPC   NC3 1022   9.661   7.727   8.191  0.1372 -0.2350  0.0624
   55POPC   PO4 1023   9.514   7.386   8.031 -0.0804 -0.2097 -0.1675
   55POPC   GL1 1024   9.518   7.662   7.684 -0.1200 -0.1087  0.0451
   55POPC   GL2 1025   9.809   7.883   7.650  0.0413  0.4093 -0.0781
   55POPC   C1A 1026   9.581   7.479   7.316 -0.1956 -0.0669 -0.1979
   55POPC   D2A 1027   9.514   7.542   6.864  0.0395 -0.1547 -0.1519
   55POPC   C3A 1028   9.594   7.242   6.591 -0.0575 -0.0215 -0.0656
   55POPC   C4A 1029   9.775   6.954   6.524 -0.3988 -0.3701 -0.0770
   55POPC   C1B 1030   9.607   8.075   7.259 -0.0469 -0.0574 -0.4409
   55POPC   C2B 1031   9.548   8.109   6.795 -0.0218 -0.3336 -0.1730
   55POPC   C3B 1032   9.617   7.885   6.481 -0.1532 -0.0306  0.0726
   55POPC   C4B 1033   9.629   7.461   6.128 -0.0439  0.0694 -0.3707
   56POPC   NC3 1034   9.536   1.145   8.646  0.0814  0.1016 -0.1204
   56POPC   PO4 1035   9.606   1.559   8.387 -0.1637 -0.3266 -0.1173
   56POPC   GL1 1036   9.645   1.433   7.982  0.1805  0.0496  0.2225
   56POPC   GL2 1037   9.754   1.752   7.855 -0.0317 -0.1793  0.1412
   56POPC   C1A 1038   9.603   1.378   7.576 -0.5089 -0.0965  0.3361
   56POPC   D2A 1039   9.602   1.393   7.069 -0.0538  0.0876 -0.1779
   56POPC   C3A 1040   9.864   1.314   6.851 -0.0658 -0.0465 -0.3026
   56POPC   C4A 1041  10.184   1.255   6.456 -0.0102  0.0796 -0.0799
   56POPC   C1B 1042   9.870   1.886   7.421 -0.0617  0.0039  0.1267
   56POPC   C2B 1043  10.030   1.885   7.025 -0.0036  0.0796  0.1960
   56POPC   C3B 1044  10.242   1.805   6.601  0.1897  0.0685 -0.0267
   56POPC   C4B 1045  10.648   2.050   6.442 -0.0888 -0.3024  0.2211
   57POPC   NC3 1046   6.856   4.794   8.154 -0.0983  0.1617 -0.2488
   57POPC   PO4 1047   6.721   4.419   8.280 -0.1642  0.0452 -0.1021
   57POPC   GL1 1048   6.880   4.344   7.925  0.0974  0.0556 -0.1183
   57POPC   GL2 1049   6.634   4.122   7.842 -0.2696  0.1114 -0.1415
   57POPC   C1A 1050   6.996   4.506   7.532  0.3588 -0.4864  0.0858
   57POPC   D2A 1051   6.941   4.419   7.069 -0.0253  0.0422 -0.0190
   57POPC   C3A 1052   6.859   4.812   6.856 -0.0041  0.1315  0.0741
   57POPC   C4A 1053   6.564   5.064   6.570 -0.0260 -0.0056  0.0901
   57POPC   C1B 1054   6.366   4.185   7.576  0.2348 -0.1552  0.1473
   57POPC   C2B 1055   6.126   4.233   7.202 -0.4254  0.1123  0.2191
   57POPC   C3B 1056   6.090   4.289   6.781 -0.1517  0.0264  0.1609
   57POPC   C4B 1057   5.913   4.227   6.416  0.1767 -0.0147  0.0413
   58POPC   NC3 1058   8.699   0.330   8.443 -0.2106  0.2098 -0.1985
   58POPC   PO4 1059   8.365   0.603   8.259  0.1576  0.2592  0.2776
   58POPC   GL1 1060   8.154   0.582   7.912  0.0171 -0.1453  0.0035
   58POPC   GL2 1061   7.806   0.597   7.865  0.0712  0.4040 -0.2854
   58POPC   C1A 1062   8.361   0.545   7.570  0.0277 -0.4118 -0.0200
   58POPC   D2A 1063   8.382   0.359   7.223  0.0724 -0.0154  0.3454
   58POPC   C3A 1064   8.512   0.410   6.835  0.0003  0.0331 -0.0307
   58POPC   C4A 1065   8.794   0.143   6.606 -0.0454  0.0883  0.0208
   58POPC   C1B 1066   7.855   0.833   7.573  0.0394 -0.0080  0.0767
   58POPC   C2B 1067   7.779   1.013   7.234 -0.3019  0.1941  0.0857
   58POPC   C3B 1068   7.910   1.335   6.962 -0.4484 -0.1243 -0.0077
   58POPC   C4B 1069   8.009   1.476   6.439  0.2403 -0.3028  0.0244
   59POPC   NC3 1070   8.051   3.026   8.566 -0.3798  0.1323 -0.1911
   59POPC   PO4 1071   8.056   2.745   8.140  0.2236 -0.4521 -0.0847
   59POPC   GL1 1072   8.263   2.830   7.773 -0.0274  0.0056 -0.0697
   59POPC   GL2 1073   8.421   2.534   7.728  0.1226 -0.1713 -0.0859
   59POPC   C1A 1074   8.479   2.978   7.346  0.3614  0.0528  0.3388
   59POPC   D2A 1075   8.913   2.990   7.240  0.0827 -0.0213 -0.0959
   59POPC   C3A 1076   8.971   2.602   7.034  0.0654  0.0484  0.2226
   59POPC   C4A 1077   8.754   2.447   6.575 -0.1108  0.1821 -0.2483
   59POPC   C1B 1078   8.540   2.514   7.302  0.0646  0.3042  0.3553
   59POPC   C2B 1079   8.488   2.708   6.948  0.2185 -0.2083 -0.1126
   59POPC   C3B 1080   8.576   3.053   6.755  0.2289  0.1833 -0.4043
   59POPC   C4B 1081   8.802   3.429   6.827 -0.2977  0.0557  0.0661
   60POPC   NC3 1082   1.552   4.755   8.559 -0.0266 -0.3307 -0.1184
   60POPC   PO4 1083   1.477   5.017   8.084  0.1506  0.1068  0.2111
   60POPC   GL1 1084   1.653   5.007   7.714  0.1849 -0.0762  0.0462
   60POPC   GL2 1085   1.367   4.876   7.577  0.0403  0.3646 -0.1093
   60POPC   C1A 1086   1.824   4.877   7.354 -0.0506 -0.3952 -0.2697
   60POPC   D2A 1087   2.069   5.019   6.888  0.1641  0.2220 -0.1166
   60POPC   C3A 1088   2.202   4.639   6.636 -0.1947  0.0506 -0.0552
   60POPC   C4A 1089   1.996   4.307   6.439  0.0194 -0.0918  0.0214
   60POPC   C1B 1090   1.098   5.257   7.605 -0.0102  0.2408  0.0539
   60POPC   C2B 1091   1.112   5.638   7.385 -0.0671 -0.0463 -0.0814
   60POPC   C3B 1092   1.398   5.856   7.106  0.0208 -0.0260 -0.1574
   60POPC   C4B 1093   1.350   6.028   6.669 -0.0116  0.0142  0.0632
   61POPC   NC3 1094   0.924   7.838   8.286 -0.2512 -0.2252  0.1756
   61POPC   PO4 1095   1.214   8.275   8.209 -0.3116 -0.2213  0.0683
   61POPC   GL1 1096   1.485   8.493   7.928 -0.2463  0.4208 -0.1465
   61POPC   GL2 1097   1.339   8.705   7.763  0.0059 -0.0183 -0.1925
   61POPC   C1A 1098   1.852   8.642   7.578  0.2375  0.1497  0.3929
   61POPC   D2A 1099   2.183   8.565   7.392  0.0133  0.1582 -0.0067
   61POPC   C3A 1100   2.701   8.664   7.427  0.2280 -0.2462  0.1390
   61POPC   C4A 1101   2.971   9.089   7.613  0.0963 -0.0378  0.1388
   61POPC   C1B 1102   1.431   8.794   7.336  0.2513 -0.0813 -0.1235
   61POPC   C2B 1103   1.432   8.857   6.800 -0.2459  0.0416  0.0245
   61POPC   C3B 1104   1.082   9.050   6.519  0.2973 -0.0336 -0.0592
   61POPC   C4B 1105   0.766   9.278   6.219 -0.3145  0.0811  0.0606
   62POPC   NC3 1106   2.050   2.970   9.146 -0.1102 -0.1144 -0.2431
   62POPC   PO4 1107   1.580   3.116   9.109  0.1238  0.0300 -0.1073
   62POPC   GL1 1108   1.792   3.281   8.745 -0.4480  0.2151 -0.0068
   62POPC   GL2 1109   1.856   2.887   8.689 -0.0545 -0.1893  0.0948
   62POPC   C1A 1110   1.952   3.247   8.294  0.1711  0.0788 -0.1896
   62POPC   D2A 1111   2.137   3.162   7.821 -0.0835 -0.1599 -0.1342
   62POPC   C3A 1112   2.602   3.087   7.780 -0.0426  0.0767 -0.0168
   62POPC   C4A 1113   2.956   2.912   7.589 -0.0705 -0.0988  0.2885
   62POPC   C1B 1114   1.914   2.639   8.357 -0.1391  0.2646  0.2375
   62POPC   C2B 1115   2.063   2.647   7.902 -0.1328  0.0063  0.2057
   62POPC   C3B 1116   1.857   2.722   7.623  0.1428 -0.1734 -0.0638
   62POPC   C4B 1117   1.413   2.661   7.374 -0.1233 -0.0875 -0.0189
   63POPC   NC3 1118   0.244   7.325   8.382 -0.0213  0.0372  0.0340
   63POPC   PO4 1119   0.710   7.429   8.551  0.0753  0.0793  0.2038
   63POPC   GL1 1120   0.698   7.308   8.143 -0.0698  0.2962 -0.3095
   63POPC   GL2 1121   0.530   7.595   8.057  0.0268  0.0382  0.0620
   63POPC   C1A 1122   0.894   7.237   7.732 -0.3732  0.0784  0.0232
   63POPC   D2A 1123   0.867   7.452   7.200  0.2396 -0.0682 -0.0923
   63POPC   C3A 1124   0.905   7.253   6.805  0.1816 -0.1283  0.2368
   63POPC   C4A 1125   0.797   7.385   6.333 -0.1327  0.1507 -0.1335
   63POPC   C1B 1126   0.616   7.608   7.659  0.2663 -0.1600 -0.0637
   63POPC   C2B 1127   0.496   7.811   7.285  0.2998  0.0477 -0.0802
   63POPC   C3B 1128   0.271   7.865   6.884 -0.0545  0.2411 -0.5252
   63POPC   C4B 1129   0.405   8.185   6.532  0.0499  0.1348 -0.0903
   64POPC   NC3 1130   5.841   2.190   8.530 -0.2829  0.0643 -0.0482
   64POPC   PO4 1131   5.988   1.895   8.304 -0.0596 -0.1544  0.1061
   64POPC   GL1 1132   5.956   1.786   7.896 -0.3670 -0.0223 -0.0488
   64POPC   GL2 1133   6.205   1.594   7.730 -0.3136  0.1300 -0.2902
   64POPC   C1A 1134   5.960   2.166   7.509  0.0403 -0.2837  0.1391
   64POPC   D2A 1135   6.035   2.462   7.141  0.2789 -0.2084 -0.1870
   64POPC   C3A 1136   5.814   2.374   6.751 -0.1621 -0.0678 -0.2294
   64POPC   C4A 1137   5.717   2.238   6.324  0.0050 -0.1097 -0.1582
   64POPC   C1B 1138   5.999   1.710   7.338  0.2207  0.1699  0.1618
   64POPC   C2B 1139   5.867   1.877   6.954 -0.1700  0.3255 -0.3384
   64POPC   C3B 1140   5.435   2.019   6.663  0.0431 -0.1413  0.1037
   64POPC   C4B 1141   5.132   2.214   6.488 -0.3011  0.0345  0.0221
   65POPC   NC3 1142   1.088   2.932   9.041 -0.0929  0.1904  0.3564
   65POPC   PO4 1143   0.687   2.807   8.813 -0.0323  0.0389 -0.0951
   65POPC   GL1 1144   1.009   2.901   8.539  0.1013 -0.2057 -0.0299
   65POPC   GL2 1145   0.951   3.080   8.246 -0.3053  0.1918 -0.2110
   65POPC   C1A 1146   1.448   2.829   8.406 -0.1516 -0.3583  0.2478
   65POPC   D2A 1147   1.654   2.930   8.033  0.1258 -0.1489  0.1684
   65POPC   C3A 1148   1.249   3.010   7.843 -0.2513 -0.2256  0.3641
   65POPC   C4A 1149   0.761   2.942   7.698  0.0962 -0.1057 -0.0347
   65POPC   C1B 1150   1.059   2.617   8.036  0.4620  0.0911  0.0231
   65POPC   C2B 1151   0.988   2.527   7.605 -0.0446  0.1789 -0.0663
   65POPC   C3B 1152   0.918   2.776   7.187  0.1731  0.3240 -0.0499
   65POPC   C4B 1153   0.829   2.795   6.834 -0.0339 -0.1398  0.2057
   66POPC   NC3 1154   5.047   3.259   8.713 -0.1345  0.3185 -0.0938
   66POPC   PO4 1155   4.706   3.050   8.953  0.0679 -0.2129 -0.2193
   66POPC   GL1 1156   4.634   2.765   8.614  0.0765  0.1815  0.2836
   66POPC   GL2 1157   4.961   2.829   8.425 -0.0691 -0.0900 -0.1038
   66POPC   C1A 1158   4.644   2.450   8.317 -0.0103  0.0472  0.0140
   66POPC   D2A 1159   4.592   2.287   7.856  0.1141 -0.1642  0.0522
   66POPC   C3A 1160   4.242   2.167   7.635  0.0430  0.0309 -0.0332
   66POPC   C4A 1161   4.225   1.887   7.350 -0.0095  0.0834  0.1576
   66POPC   C1B 1162   4.927   2.673   7.946  0.1113  0.1673 -0.3027
   66POPC   C2B 1163   4.692   2.611   7.518 -0.0151  0.1023  0.1248
   66POPC   C3B 1164   4.832   2.596   7.104 -0.3137 -0.0687 -0.1774
   66POPC   C4B 1165   4.742   2.567   6.699 -0.2087  0.2884  0.1179
   67POPC   NC3 1166   6.660   3.602   8.046 -0.3024 -0.0457  0.1163
   67POPC   PO4 1167   7.018   3.826   8.011  0.0400  0.1024 -0.0722
   67POPC   GL1 1168   6.983   3.747   7.634 -0.1887 -0.0328  0.1686
   67POPC   GL2 1169   7.203   3.545   7.477 -0.1246 -0.0447  0.2697
   67POPC   C1A 1170   6.826   3.591   7.171 -0.0554 -0.1250  0.1879
   67POPC   D2A 1171   6.717   3.660   6.713  0.0528 -0.0322  0.1312
   67POPC   C3A 1172   6.735   3.374   6.387 -0.4262  0.0976  0.0371
   67POPC   C4A 1173   7.033   3.043   6.137 -0.0638 -0.1095 -0.2477
   67POPC   C1B 1174   7.528   3.588   7.225  0.2240  0.0936  0.1602
   67POPC   C2B 1175   7.865   3.675   6.965 -0.2588  0.3474  0.0986
   67POPC   C3B 1176   8.060   3.452   6.575  0.1181 -0.2447 -0.0874
   67POPC   C4B 1177   8.528   3.427   6.434  0.0183  0.2159 -0.0511
   68POPC   NC3 1178   0.425   3.289   8.303 -0.1047 -0.2956 -0.0537
   68POPC   PO4 1179   0.050   3.641   8.350  0.0070  0.2132 -0.1309
   68POPC   GL1 1180  -0.102   3.719   8.002 -0.2799 -0.0414  0.1613
   68POPC   GL2 1181  -0.002   3.994   7.887 -0.0931  0.0541 -0.1752
   68POPC   C1A 1182  -0.191   3.579   7.571 -0.0531 -0.3126  0.4042
   68POPC   D2A 1183   0.055   3.397   7.218  0.0070  0.1151 -0.2192
   68POPC   C3A 1184   0.004   3.407   6.810  0.0151  0.0523  0.1064
   68POPC   C4A 1185  -0.042   3.176   6.470 -0.1005  0.2952 -0.1152
   68POPC   C1B 1186   0.202   3.911   7.458  0.0472 -0.0428  0.1343
   68POPC   C2B 1187   0.349   3.763   7.058  0.0734 -0.0280  0.0048
   68POPC   C3B 1188   0.505   4.087   6.730  0.1963 -0.3848  0.3223
   68POPC   C4B 1189   0.366   4.496   6.775  0.2292  0.2356 -0.2365
   69POPC   NC3 1190   8.615   8.021   7.883  0.0480 -0.2741  0.0815
   69POPC   PO4 1191   8.369   8.284   8.235 -0.1246 -0.0561  0.0422
   69POPC   GL1 1192   8.472   8.466   7.830 -0.2498  0.0745  0.2013
   69POPC   GL2 1193   8.701   8.682   7.723 -0.0867  0.2536 -0.1511
   69POPC   C1A 1194   8.314   8.432   7.368  0.0433  0.1045  0.4533
   69POPC   D2A 1195   8.101   8.640   7.101  0.0352  0.1830 -0.4424
   69POPC   C3A 1196   8.259   8.814   6.771 -0.2122 -0.0635  0.0342
   69POPC   C4A 1197   8.096   8.938   6.389  0.0227  0.1038  0.3087
   69POPC   C1B 1198   8.750   8.707   7.325  0.0295 -0.2447 -0.0290
   69POPC   C2B 1199   8.649   8.509   6.945  0.0796  0.1992  0.3048
   69POPC   C3B 1200   8.630   8.644   6.485 -0.0823  0.0168  0.2504
   69POPC   C4B 1201   8.546   8.897   6.179  0.1251 -0.0077 -0.0914
   70POPC   NC3 1202   5.972   0.175   8.698 -0.0140  0.1484 -0.0395
   70POPC   PO4 1203   5.785  -0.315   8.412 -0.3673 -0.2885 -0.2490
   70POPC   GL1 1204   5.613  -0.195   8.100 -0.2617  0.0639  0.0801
   70POPC   GL2 1205   5.821  -0.290   7.836 -0.2311  0.2272  0.0107
   70POPC   C1A 1206   5.599   0.126   7.810  0.0673 -0.1029  0.0506
   70POPC   D2A 1207   5.699   0.272   7.385  0.3579 -0.0831  0.0074
   70POPC   C3A 1208   6.031   0.628   7.330 -0.0605 -0.1060 -0.2421
   70POPC   C4A 1209   6.410   0.804   7.499  0.0426  0.2241 -0.3581
   70POPC   C1B 1210   5.611  -0.221   7.382  0.0021 -0.2265  0.2532
   70POPC   C2B 1211   5.249  -0.218   7.087  0.1656 -0.0363 -0.4965
   70POPC   C3B 1212   5.055  -0.472   6.884  0.1415  0.1210 -0.3117
   70POPC   C4B 1213   4.688  -0.491   6.634 -0.3852 -0.1061  0.0163
   71POPC   NC3 1214   6.879   0.374   8.294 -0.1287 -0.2727  0.1802
   71POPC   PO4 1215   6.381   0.256   8.468 -0.4285  0.1881  0.1996
   71POPC   GL1 1216   6.451   0.004   8.159  0.1190  0.1048  0.2240
   71POPC   GL2 1217   6.813   0.006   7.939 -0.0698  0.1769 -0.4142
   71POPC   C1A 1218   6.337   0.070   7.715  0.1451 -0.1752  0.2187
   71POPC   D2A 1219   6.366   0.264   7.350  0.0983  0.0235  0.0457
   71POPC   C3A 1220   6.123   0.304   6.950  0.1086  0.0611 -0.0826
   71POPC   C4A 1221   6.273   0.151   6.540 -0.0676 -0.1409 -0.0517
   71POPC   C1B 1222   6.791   0.121   7.542 -0.0970  0.2018 -0.2224
   71POPC   C2B 1223   7.067   0.184   7.121 -0.1308  0.1803 -0.2541
   71POPC   C3B 1224   7.272   0.004   6.808 -0.5633  0.2515 -0.1164
   71POPC   C4B 1225   7.148  -0.184   6.400  0.0585 -0.0940  0.1264
   72POPC   NC3 1226   2.841   6.881   8.292  0.1649 -0.4581 -0.2079
   72POPC   PO4 1227   2.708   6.567   8.222  0.1130 -0.5184  0.2363
   72POPC   GL1 1228   2.660   6.557   7.764  0.2139 -0.1876  0.0802
   72POPC   GL2 1229   2.246   6.731   7.620 -0.2051 -0.0841 -0.1909
   72POPC   C1A 1230   2.659   6.912   7.405  0.0047 -0.1785  0.2044
   72POPC   D2A 1231   2.480   7.129   7.027  0.0212  0.0688  0.1008
   72POPC   C3A 1232   2.720   7.325   6.766  0.4470  0.1419  0.2066
   72POPC   C4A 1233   2.873   7.294   6.395  0.0709 -0.2056  0.2811
   72POPC   C1B 1234   2.086   7.025   7.325  0.0809 -0.2335  0.1876
   72POPC   C2B 1235   2.054   7.226   6.823 -0.1373 -0.2220  0.0403
   72POPC   C3B 1236   2.342   7.427   6.509 -0.0552  0.0822  0.2916
   72POPC   C4B 1237   2.230   7.518   5.981 -0.0733  0.2534 -0.1142
   73POPC   NC3 1238   0.209   5.880   7.875 -0.0544 -0.0402  0.0336
   73POPC   PO4 1239   0.095   5.443   8.033 -0.0224 -0.1674  0.3419
   73POPC   GL1 1240   0.266   5.328   7.686  0.1095  0.1332 -0.1542
   73POPC   GL2 1241  -0.020   5.100   7.689 -0.1746  0.0030 -0.2192
   73POPC   C1A 1242   0.548   5.054   7.454  0.1660  0.1297  0.0026
   73POPC   D2A 1243   0.929   4.863   7.328  0.0013  0.1421  0.0477
   73POPC   C3A 1244   1.056   4.925   6.882  0.3634 -0.0287  0.0287
   73POPC   C4A 1245   1.251   5.139   6.509  0.1481  0.2018  0.0822
   73POPC   C1B 1246   0.099   5.083   7.300  0.1245 -0.4284 -0.0021
   73POPC   C2B 1247   0.444   4.978   6.976 -0.1582 -0.0328  0.1333
   73POPC   C3B 1248   0.485   5.318   6.696 -0.2218  0.1430 -0.0363
   73POPC   C4B 1249   0.353   5.478   6.272  0.0309  0.1534 -0.0865
   74POPC   NC3 1250   6.009   0.674   8.098 -0.0071 -0.1361 -0.1012
   74POPC   PO4 1251   6.307   1.044   8.257  0.1065 -0.1176  0.2355
   74POPC   GL1 1252   6.285   1.067   7.887 -0.1266  0.1523  0.3389
   74POPC   GL2 1253   5.897   1.071   7.741  0.2105  0.0191  0.1928
   74POPC   C1A 1254   6.149   1.188   7.346  0.0259 -0.0374 -0.0813
   74POPC   D2A 1255   6.297   0.962   7.022  0.0661  0.1325 -0.3763
   74POPC   C3A 1256   5.976   0.954   6.860  0.1197  0.1675  0.0320
   74POPC   C4A 1257   5.686   1.098   6.475  0.2656  0.1272  0.0827
   74POPC   C1B 1258   5.673   1.037   7.283 -0.0496  0.0447  0.5148
   74POPC   C2B 1259   5.354   1.113   6.893 -0.0415 -0.1719  0.2492
   74POPC   C3B 1260   5.169   1.053   6.582  0.3889  0.2154  0.0017
   74POPC   C4B 1261   5.285   0.806   6.243 -0.2201 -0.1642  0.0446
   75POPC   NC3 1262   9.552   1.954   8.631 -0.0502  0.2161  0.0062
   75POPC   PO4 1263   9.989   1.734   8.728 -0.0736 -0.0001 -0.1552
   75POPC   GL1 1264  10.421   1.921   8.450 -0.1290 -0.1224  0.1866
   75POPC   GL2 1265  10.744   2.035   8.550  0.2028  0.1286 -0.1177
   75POPC   C1A 1266  10.531   2.121   8.025 -0.2070  0.1491  0.1438
   75POPC   D2A 1267  10.495   1.965   7.493  0.3320 -0.0560 -0.3729
   75POPC   C3A 1268  10.473   2.317   7.177  0.0123 -0.1373 -0.5809
   75POPC   C4A 1269  10.315   2.234   6.759  0.0634 -0.1313  0.0654
   75POPC   C1B 1270  11.100   2.334   8.416  0.2576  0.0406  0.5029
   75POPC   C2B 1271  11.154   2.401   7.922 -0.2521 -0.2169  0.2131
   75POPC   C3B 1272  11.374   2.174   7.712 -0.2998 -0.0767 -0.3546
   75POPC   C4B 1273  11.416   2.130   7.268  0.1264 -0.1646 -0.0804
   76POPC   NC3 1274   4.004   4.493   9.416 -0.0702 -0.0384 -0.2331
   76POPC   PO4 1275   4.239   4.240   9.195 -0.1650  0.0706 -0.1323
   76POPC   GL1 1276   4.153   3.870   8.958 -0.0016  0.0996  0.0617
   76POPC   GL2 1277   3.999   3.592   9.026  0.2239  0.0341 -0.2788
   76POPC   C1A 1278   4.345   3.697   8.685 -0.1894  0.1535 -0.0242
   76POPC   D2A 1279   4.548   3.283   8.548  0.1244 -0.0398 -0.2428
   76POPC   C3A 1280   4.710   3.137   8.117  0.1365 -0.2179 -0.1742
   76POPC   C4A 1281   4.690   3.085   7.690 -0.1572  0.3897  0.1286
   76POPC   C1B 1282   4.010   3.343   8.578 -0.2105  0.2705  0.0753
   76POPC   C2B 1283   3.752   3.219   8.366 -0.0183 -0.1388  0.0637
   76POPC   C3B 1284   3.462   3.358   8.028 -0.3905  0.1448 -0.0248
   76POPC   C4B 1285   3.316   3.284   7.560 -0.1212  0.0106  0.0537
   77POPC   NC3 1286   3.638   6.919   8.574  0.1294 -0.0127  0.1296
   77POPC   PO4 1287   3.723   6.532   8.330  0.1919 -0.0851  0.1101
   77POPC   GL1 1288   3.630   6.586   7.910 -0.0287 -0.2646  0.1012
   77POPC   GL2 1289   3.628   6.242   7.658 -0.0121  0.0222 -0.3940
   77POPC   C1A 1290   3.636   6.872   7.539  0.1648 -0.0392  0.2511
   77POPC   D2A 1291   3.502   7.075   7.239 -0.0741 -0.1272  0.3426
   77POPC   C3A 1292   3.771   7.116   6.884 -0.3491 -0.2125  0.1451
   77POPC   C4A 1293   3.879   7.134   6.399  0.0759  0.1282 -0.3488
   77POPC   C1B 1294   3.837   6.347   7.490 -0.1375 -0.1053 -0.0102
   77POPC   C2B 1295   3.516   6.553   7.086 -0.2324  0.1839 -0.0800
   77POPC   C3B 1296   3.200   6.769   6.989  0.0711 -0.2006  0.1953
   77POPC   C4B 1297   2.828   6.762   6.888 -0.2656  0.0244 -0.2126
   78POPC   NC3 1298   8.322   3.753   8.219 -0.3545 -0.2942  0.1938
   78POPC   PO4 1299   8.079   4.106   8.157 -0.0276 -0.2207  0.2186
   78POPC   GL1 1300   8.151   4.310   7.800  0.2884 -0.3079  0.1177
   78POPC   GL2 1301   7.983   4.394   7.487  0.0183  0.0914  0.1957
   78POPC   C1A 1302   8.527   4.337   7.633  0.1812 -0.0665 -0.0897
   78POPC   D2A 1303   8.664   3.968   7.395 -0.2640  0.0065  0.3019
   78POPC   C3A 1304   8.452   3.638   7.197 -0.3027 -0.1258 -0.2935
   78POPC   C4A 1305   8.264   3.340   7.047 -0.1103  0.0793  0.2035
   78POPC   C1B 1306   8.234   4.255   7.201 -0.2375  0.3016 -0.0757
   78POPC   C2B 1307   8.165   4.019   6.862 -0.1342 -0.1356 -0.3285
   78POPC   C3B 1308   8.517   3.892   6.715 -0.1863  0.0969 -0.0093
   78POPC   C4B 1309   8.791   3.817   6.401  0.0730  0.0585  0.1329
   79POPC   NC3 1310   9.623   4.068   8.399 -0.1833 -0.1406  0.3561
   79POPC   PO4 1311   9.361   4.465   8.304  0.3714  0.3125  0.1832
   79POPC   GL1 1312   9.556   4.486   7.964 -0.2732  0.0686  0.1446
   79POPC   GL2 1313   9.902   4.436   8.113  0.0642  0.0918 -0.3139
   79POPC   C1A 1314   9.526   4.663   7.561  0.2918  0.2404  0.3027
   79POPC   D2A 1315   9.378   4.713   7.278 -0.2232  0.1763  0.2574
   79POPC   C3A 1316   9.606   4.753   6.848 -0.3345  0.0567  0.0696
   79POPC   C4A 1317   9.890   4.938   6.494  0.0848 -0.0849 -0.0824
   79POPC   C1B 1318  10.119   4.202   7.816  0.0082  0.2727 -0.2140
   79POPC   C2B 1319  10.234   4.278   7.372 -0.0157  0.0378 -0.1934
   79POPC   C3B 1320  10.475   4.404   7.018 -0.0730 -0.0873  0.0070
   79POPC   C4B 1321  10.705   4.212   6.780  0.2098 -0.0826 -0.0701
   80POPC   NC3 1322   0.025   9.089   8.670  0.2942 -0.5023  0.2015
   80POPC   PO4 1323   0.385   9.037   8.382  0.0544 -0.1697 -0.1489
   80POPC   GL1 1324   0.357   9.427   8.163  0.1775 -0.1889  0.0287
   80POPC   GL2 1325   0.540   9.272   7.933  0.0606 -0.1560  0.1348
   80POPC   C1A 1326   0.010   9.547   7.918 -0.1688  0.4147 -0.1837
   80POPC   D2A 1327  -0.176   9.470   7.457  0.3098  0.1418  0.3134
   80POPC   C3A 1328  -0.103   9.813   7.318  0.3279 -0.0957  0.2262
   80POPC   C4A 1329  -0.407  10.239   7.421 -0.2464 -0.3530  0.1269
   80POPC   C1B 1330   0.842   9.149   7.732  0.1807 -0.2265  0.1519
   80POPC   C2B 1331   0.729   9.251   7.329  0.1712 -0.1179  0.0289
   80POPC   C3B 1332   0.621   9.654   7.054 -0.1682  0.0940 -0.2894
   80POPC   C4B 1333   0.801  10.028   6.917  0.0497  0.1056  0.2951
   81POPC   NC3 1334   9.046   7.512   8.019 -0.0355 -0.0986 -0.0638
   81POPC   PO4 1335   9.131   7.967   7.926 -0.2552  0.0568 -0.1554
   81POPC   GL1 1336   9.131   8.301   7.728  0.0033 -0.3446  0.2695
   81POPC   GL2 1337   8.784   8.196   7.490  0.0737 -0.3209 -0.1134
   81POPC   C1A 1338   9.287   8.684   7.547  0.0799  0.0411  0.0214
   81POPC   D2A 1339   9.557   8.982   7.263  0.1552 -0.2494 -0.1330
   81POPC   C3A 1340   9.588   9.007   6.799  0.3286  0.0852  0.1309
   81POPC   C4A 1341   9.236   9.179   6.612 -0.1227  0.1431  0.2414
   81POPC   C1B 1342   8.640   8.004   7.181 -0.2771 -0.3229 -0.1606
   81POPC   C2B 1343   8.651   7.651   7.058  0.1893 -0.0147 -0.0271
   81POPC   C3B 1344   8.790   7.505   6.698 -0.2302 -0.0634 -0.1106
   81POPC   C4B 1345   8.710   7.589   6.275 -0.1607  0.1024  0.1898
   82POPC   NC3 1346   2.344   5.024   8.815  0.0280 -0.2727 -0.1398
   82POPC   PO4 1347   2.365   4.680   8.522  0.0319 -0.1370  0.2273
   82POPC   GL1 1348   2.491   4.324   8.326  0.2532 -0.0415 -0.0011
   82POPC   GL2 1349   2.485   3.946   8.331 -0.1724 -0.2060 -0.2183
   82POPC   C1A 1350   2.603   4.236   7.906  0.0784  0.2329 -0.2358
   82POPC   D2A 1351   2.938   4.219   7.593  0.2426 -0.0831 -0.0682
   82POPC   C3A 1352   2.920   4.065   7.210 -0.1178 -0.1303  0.3722
   82POPC   C4A 1353   3.101   4.270   6.816 -0.1012  0.2364 -0.1930
   82POPC   C1B 1354   2.934   3.942   8.181 -0.2596  0.1988  0.2313
   82POPC   C2B 1355   3.329   3.824   8.152 -0.0135 -0.1179 -0.1700
   82POPC   C3B 1356   3.428   3.576   8.457 -0.2605  0.1046 -0.1933
   82POPC   C4B 1357   3.251   3.189   8.498 -0.1069 -0.0969 -0.3539
   83POPC   NC3 1358   9.159   3.294   8.757 -0.3372  0.1101 -0.0883
   83POPC   PO4 1359   9.234   3.371   8.441 -0.0199 -0.0564  0.3190
   83POPC   GL1 1360   9.497   3.217   8.140 -0.0299  0.1542 -0.1701
   83POPC   GL2 1361   9.256   3.136   7.735 -0.2155  0.0253  0.1128
   83POPC   C1A 1362   9.696   3.138   7.763 -0.0528  0.0779 -0.0502
   83POPC   D2A 1363   9.909   2.862   7.545  0.0872 -0.1038  0.1092
   83POPC   C3A 1364  10.072   3.007   7.238 -0.2004  0.1390  0.1654
   83POPC   C4A 1365  10.084   2.570   7.164  0.1244  0.2982 -0.3771
   83POPC   C1B 1366   9.494   3.010   7.327  0.1370 -0.1025  0.2186
   83POPC   C2B 1367   9.741   2.923   6.918  0.1379 -0.2264 -0.1014
   83POPC   C3B 1368  10.076   3.082   6.732  0.0709  0.0669  0.2066
   83POPC   C4B 1369  10.370   3.010   6.405 -0.0477  0.0799 -0.0520
   84POPC   NC3 1370   0.863   9.001   8.505  0.1494  0.2724  0.1077
   84POPC   PO4 1371   0.708   9.324   8.693  0.0093 -0.0402  0.5228
   84POPC   GL1 1372   0.860   9.426   8.263 -0.0899  0.1866  0.1621
   84POPC   GL2 1373   0.798   9.772   8.174 -0.1760 -0.1009  0.1747
   84POPC   C1A 1374   1.096   9.586   7.872  0.2388 -0.0334  0.1506
   84POPC   D2A 1375   1.002   9.641   7.456  0.0425 -0.3097  0.0647
   84POPC   C3A 1376   0.726   9.926   7.470  0.6132 -0.0382 -0.1792
   84POPC   C4A 1377   0.313  10.161   7.611 -0.2531 -0.0892  0.1900
   84POPC   C1B 1378   0.537   9.749   7.863  0.1986  0.0524  0.2415
   84POPC   C2B 1379   0.299   9.492   7.478  0.0185 -0.0567 -0.1236
   84POPC   C3B 1380   0.275   9.271   7.147 -0.1085  0.2376  0.1268
   84POPC   C4B 1381   0.028   9.528   6.881 -0.4082 -0.0702  0.0573
   85POPC   NC3 1382   4.881   7.564   8.889  0.0127  0.2809  0.0628
   85POPC   PO4 1383   5.018   7.490   8.486  0.3337 -0.1086  0.0111
   85POPC   GL1 1384   5.045   7.723   8.060  0.2066  0.0062  0.3662
   85POPC   GL2 1385   4.973   7.464   7.885 -0.2675 -0.1239  0.2574
   85POPC   C1A 1386   5.056   7.843   7.586 -0.5038  0.0874  0.0256
   85POPC   D2A 1387   5.042   8.263   7.356  0.2303 -0.1133 -0.0909
   85POPC   C3A 1388   4.952   8.295   6.890  0.2453  0.4998  0.2511
   85POPC   C4A 1389   4.618   8.335   6.457 -0.0847 -0.2016 -0.0645
   85POPC   C1B 1390   4.891   7.380   7.423  0.3877 -0.0194 -0.2575
   85POPC   C2B 1391   4.908   7.377   6.964  0.2193  0.1952  0.2169
   85POPC   C3B 1392   4.699   7.423   6.614 -0.1435  0.1812  0.0372
   85POPC   C4B 1393   4.294   7.499   6.454  0.4236 -0.2191 -0.1697
   86POPC   NC3 1394   7.250   4.310   8.317  0.2237 -0.0939 -0.2431
   86POPC   PO4 1395   7.699   4.390   8.163  0.1603  0.4458 -0.1062
   86POPC   GL1 1396   7.622   4.243   7.790  0.2841 -0.0031  0.1253
   86POPC   GL2 1397   7.386   4.041   7.766  0.1224  0.3709 -0.1234
   86POPC   C1A 1398   7.507   4.432   7.394 -0.4397  0.0061 -0.0503
   86POPC   D2A 1399   7.310   4.718   7.105  0.0175  0.0328  0.1526
   86POPC   C3A 1400   7.613   5.015   6.901  0.0807  0.1425  0.3501
   86POPC   C4A 1401   7.938   4.835   6.560 -0.0599 -0.3239 -0.3511
   86POPC   C1B 1402   7.221   4.033   7.347  0.0053 -0.2747 -0.3141
   86POPC   C2B 1403   7.188   3.819   6.897  0.2135  0.1444  0.2724
   86POPC   C3B 1404   7.188   4.205   6.503  0.1336  0.0765 -0.2460
   86POPC   C4B 1405   7.294   4.441   6.293 -0.0927  0.0677  0.1895
   87POPC   NC3 1406   5.799   4.317   8.696 -0.0695 -0.0057  0.1269
   87POPC   PO4 1407   6.136   4.347   8.448  0.2176  0.2419  0.1478
   87POPC   GL1 1408   6.072   4.673   8.008  0.3134 -0.0148  0.1020
   87POPC   GL2 1409   6.451   4.577   7.896  0.0987 -0.1357  0.0975
   87POPC   C1A 1410   5.993   4.641   7.504 -0.0639  0.0563 -0.2908
   87POPC   D2A 1411   5.871   4.757   7.060  0.0209  0.0268 -0.1290
   87POPC   C3A 1412   5.610   4.446   6.803  0.0140 -0.2461  0.1455
   87POPC   C4A 1413   5.370   4.200   6.548 -0.1983 -0.0549 -0.2077
   87POPC   C1B 1414   6.532   4.687   7.429  0.0211  0.3159 -0.0206
   87POPC   C2B 1415   6.422   4.658   6.939  0.0077  0.0579 -0.1594
   87POPC   C3B 1416   6.176   4.746   6.564 -0.0694 -0.0707 -0.2737
   87POPC   C4B 1417   6.366   4.753   6.199  0.0236  0.2592 -0.0891
   88POPC   NC3 1418   4.048   0.294   8.894  0.1959  0.1279  0.1561
   88POPC   PO4 1419   3.620   0.221   8.628 -0.0400 -0.0866 -0.0352
   88POPC   GL1 1420   3.772   0.166   8.165  0.4702 -0.1842 -0.1349
   88POPC   GL2 1421   3.634   0.078   7.941  0.0946  0.0899 -0.0628
   88POPC   C1A 1422   3.714   0.513   7.802 -0.1191 -0.1308  0.0910
   88POPC   D2A 1423   3.531   0.695   7.431  0.1677  0.3898  0.3766
   88POPC   C3A 1424   3.761   0.698   7.052 -0.0611  0.3040 -0.0995
   88POPC   C4A 1425   3.529   0.632   6.648  0.1017  0.2499  0.1486
   88POPC   C1B 1426   3.678   0.047   7.544  0.1487  0.0601  0.4789
   88POPC   C2B 1427   3.481   0.256   7.111 -0.1614 -0.2254 -0.2069
   88POPC   C3B 1428   3.108   0.280   6.916  0.2691 -0.0618 -0.1032
   88POPC   C4B 1429   2.921   0.427   6.571 -0.1851  0.0208 -0.2348
   89POPC   NC3 1430   7.337   0.855   8.183 -0.0561  0.0371 -0.1813
   89POPC   PO4 1431   6.908   0.963   8.112  0.1315 -0.1654  0.0651
   89POPC   GL1 1432   6.859   0.990   7.640 -0.2972  0.0906  0.2284
   89POPC   GL2 1433   6.817   1.322   7.672 -0.2258 -0.2115 -0.1732
   89POPC   C1A 1434   6.757   1.135   7.143  0.2090 -0.0969  0.2660
   89POPC   D2A 1435   6.662   1.087   6.686 -0.3254 -0.0080  0.2389
   89POPC   C3A 1436   6.826   0.783   6.393 -0.0405 -0.2392  0.0676
   89POPC   C4A 1437   6.606   0.415   6.216  0.2179 -0.1370 -0.1430
   89POPC   C1B 1438   6.499   1.534   7.367  0.0324  0.0094 -0.1670
   89POPC   C2B 1439   6.333   1.602   6.993  0.0394  0.2368  0.1704
   89POPC   C3B 1440   6.378   1.771   6.607  0.0956 -0.3719 -0.1336
   89POPC   C4B 1441   6.148   1.992   6.262  0.4331 -0.0149 -0.1281
   90POPC   NC3 1442   8.202   7.768   8.082 -0.5453  0.0393 -0.2223
   90POPC   PO4 1443   8.588   7.562   7.995  0.3074  0.3687 -0.1392
   90POPC   GL1 1444   8.404   7.446   7.656 -0.0425 -0.2278 -0.3017
   90POPC   GL2 1445   8.657   7.258   7.522 -0.1367  0.1662 -0.2384
   90POPC   C1A 1446   8.298   7.381   7.244  0.1591 -0.2820  0.1315
   90POPC   D2A 1447   8.214   7.716   6.803 -0.0223 -0.0165 -0.1230
   90POPC   C3A 1448   8.581   8.093   6.655  0.3020  0.0660  0.2667
   90POPC   C4A 1449   9.031   8.048   6.643  0.1326 -0.0087  0.0776
   90POPC   C1B 1450   8.677   7.056   7.109  0.0407  0.1263  0.3779
   90POPC   C2B 1451   9.046   7.074   6.747  0.0292 -0.2202 -0.0220
   90POPC   C3B 1452   8.941   7.137   6.297 -0.1513 -0.0354  0.2034
   90POPC   C4B 1453   8.879   6.910   5.870  0.0122 -0.0605 -0.0230
   91POPC   NC3 1454   1.032   5.167   8.208 -0.2010 -0.0362 -0.2038
   91POPC   PO4 1455   1.087   4.856   8.369  0.0757  0.0396  0.0137
   91POPC   GL1 1456   1.280   4.535   8.088  0.1588  0.0635 -0.0594
   91POPC   GL2 1457   1.307   4.122   8.288 -0.0258  0.2237 -0.2840
   91POPC   C1A 1458   1.533   4.293   7.882  0.1473  0.0133  0.2802
   91POPC   D2A 1459   1.658   3.929   7.614  0.4086 -0.2106  0.0928
   91POPC   C3A 1460   1.996   3.930   7.260 -0.1381  0.0893 -0.0264
   91POPC   C4A 1461   2.431   3.732   7.105  0.0620 -0.1536  0.1032
   91POPC   C1B 1462   1.065   3.962   7.925 -0.0070 -0.1726 -0.1627
   91POPC   C2B 1463   0.838   3.919   7.614  0.0695 -0.1729  0.3298
   91POPC   C3B 1464   0.788   3.851   7.157 -0.0936 -0.0777  0.0240
   91POPC   C4B 1465   1.058   3.723   6.806  0.0484 -0.3615 -0.0841
   92POPC   NC3 1466   9.341   2.388   9.260  0.0007  0.0841  0.1360
   92POPC   PO4 1467   9.340   2.357   8.771 -0.2927 -0.1255 -0.0821
   92POPC   GL1 1468   9.424   2.398   8.318 -0.6874  0.0902 -0.1757
   92POPC   GL2 1469   9.469   2.726   8.053 -0.0069 -0.1121 -0.2138
   92POPC   C1A 1470   9.642   2.231   7.916  0.3868  0.0101 -0.1724
   92POPC   D2A 1471   9.844   2.360   7.569  0.3331  0.0865 -0.0727
   92POPC   C3A 1472  10.168   2.314   7.721  0.2403 -0.1472  0.2716
   92POPC   C4A 1473  10.117   2.513   8.092 -0.0918 -0.0178 -0.1322
   92POPC   C1B 1474   9.381   2.631   7.646 -0.2965  0.0736 -0.3353
   92POPC   C2B 1475   9.536   2.481   7.195  0.0227 -0.1136 -0.0341
   92POPC   C3B 1476   9.383   2.543   6.770  0.0672  0.1781  0.0090
   92POPC   C4B 1477   9.170   2.181   6.423 -0.1880  0.1680 -0.2020
   93POPC   NC3 1478   6.991   7.797   8.743 -0.0189  0.0850  0.3228
   93POPC   PO4 1479   6.832   8.057   8.367 -0.1028 -0.2432  0.0238
   93POPC   GL1 1480   6.853   7.846   7.944 -0.0200  0.0025 -0.3462
   93POPC   GL2 1481   6.908   7.969   7.560  0.0469  0.0120  0.2150
   93POPC   C1A 1482   6.899   7.470   7.447 -0.0086 -0.1177  0.0298
   93POPC   D2A 1483   6.666   7.222   7.257  0.3585  0.2524 -0.4091
   93POPC   C3A 1484   6.174   7.311   7.184 -0.1262  0.1441  0.0930
   93POPC   C4A 1485   5.752   7.164   6.935 -0.0015 -0.1124 -0.1680
   93POPC   C1B 1486   7.093   7.950   7.060 -0.0770  0.2550 -0.0062
   93POPC   C2B 1487   7.247   8.223   6.719 -0.0071  0.2921 -0.2967
   93POPC   C3B 1488   7.309   8.498   6.433  0.0987  0.1583  0.0932
   93POPC   C4B 1489   7.581   8.857   6.353 -0.1423  0.0001  0.1320
   94POPC   NC3 1490   7.607   9.019   8.614 -0.0083 -0.0825 -0.0461
   94POPC   PO4 1491   7.146   9.119   8.551  0.0246  0.3770 -0.0680
   94POPC   GL1 1492   7.316   9.164   8.136  0.1147  0.0903 -0.1010
   94POPC   GL2 1493   7.188   9.365   7.946  0.2874 -0.2131 -0.0522
   94POPC   C1A 1494   7.518   9.009   7.607 -0.3598 -0.0859 -0.3956
   94POPC   D2A 1495   7.541   9.019   7.086  0.0411 -0.0011  0.2615
   94POPC   C3A 1496   7.546   8.632   6.852  0.0225  0.0293 -0.2792
   94POPC   C4A 1497   7.910   8.471   6.641 -0.1038  0.1240 -0.0811
   94POPC   C1B 1498   7.039   9.249   7.558  0.3136  0.1879  0.0260
   94POPC   C2B 1499   7.091   9.277   7.087  0.2561  0.2248 -0.1179
   94POPC   C3B 1500   6.763   9.293   6.759  0.0832 -0.0930 -0.1924
   94POPC   C4B 1501   6.277   9.328   6.779 -0.1025  0.1154  0.0550
   95POPC   NC3 1502   4.597   6.179   8.207 -0.0404  0.3167  0.1627
   95POPC   PO4 1503   4.110   6.275   8.070  0.1911 -0.1762 -0.1329
   95POPC   GL1 1504   4.092   5.977   7.818  0.0165 -0.0758  0.2995
   95POPC   GL2 1505   4.397   5.916   7.692 -0.1718  0.1045  0.2626
   95POPC   C1A 1506   3.907   5.800   7.480  0.0149  0.0134  0.0225
   95POPC   D2A 1507   3.878   5.432   7.329 -0.2913 -0.1893 -0.3175
   95POPC   C3A 1508   4.059   5.237   6.894 -0.0810  0.4581  0.1017
   95POPC   C4A 1509   4.228   4.915   6.855 -0.1841 -0.1251  0.1110
   95POPC   C1B 1510   4.362   5.802   7.215  0.1174 -0.2140  0.2690
   95POPC   C2B 1511   3.962   5.733   6.940  0.0047 -0.1356 -0.1666
   95POPC   C3B 1512   3.886   5.652   6.601  0.0523 -0.1653 -0.1115
   95POPC   C4B 1513   3.775   5.879   6.252 -0.2921 -0.1232 -0.0901
   96POPC   NC3 1514   4.799   9.592   9.151  0.4092  0.1501 -0.1166
   96POPC   PO4 1515   4.604   9.694   8.737 -0.2629 -0.2182  0.2162
   96POPC   GL1 1516   4.728   9.525   8.329 -0.1386 -0.0095  0.0727
   96POPC   GL2 1517   4.911   9.752   8.245  0.0042  0.3585 -0.1847
   96POPC   C1A 1518   4.836   9.314   8.025 -0.2220  0.1798 -0.2106
   96POPC   D2A 1519   5.107   9.238   7.554  0.1476  0.0510  0.0755
   96POPC   C3A 1520   4.909   8.910   7.270  0.1075 -0.0785  0.2542
   96POPC   C4A 1521   4.731   8.765   6.925  0.0515  0.0181  0.1445
   96POPC   C1B 1522   5.131   9.649   7.817  0.1040  0.3677 -0.1086
   96POPC   C2B 1523   5.082   9.885   7.458 -0.0492  0.1621  0.3520
   96POPC   C3B 1524   5.155   9.933   6.918  0.0696  0.2720  0.0446
   96POPC   C4B 1525   5.141  10.028   6.436 -0.0834  0.0332  0.2542
   97POPC   NC3 1526   7.591   1.840   8.143 -0.0449  0.0344 -0.0695
   97POPC   PO4 1527   7.864   1.555   8.308  0.1472 -0.0655 -0.5329
   97POPC   GL1 1528   7.912   1.555   7.834  0.3411 -0.1386  0.2316
   97POPC   GL2 1529   8.230   1.490   7.772 -0.0509 -0.2194  0.0199
   97POPC   C1A 1530   7.661   1.486   7.403 -0.2346 -0.0755  0.2119
   97POPC   D2A 1531   7.433   1.485   7.006  0.3081  0.4335  0.1095
   97POPC   C3A 1532   7.620   1.007   6.725 -0.0149  0.0291 -0.2641
   97POPC   C4A 1533   7.866   1.008   6.342  0.0547  0.0168  0.2400
   97POPC   C1B 1534   8.280   1.560   7.242 -0.1066 -0.1728  0.3659
   97POPC   C2B 1535   8.411   1.351   6.825 -0.2785 -0.0204  0.4415
   97POPC   C3B 1536   8.359   1.066   6.471  0.2039  0.0335 -0.0142
   97POPC   C4B 1537   8.437   0.627   6.404  0.1882 -0.2737  0.3383
   98POPC   NC3 1538   8.779   6.019   8.445  0.0280 -0.0638 -0.2564
   98POPC   PO4 1539   8.991   6.195   8.148 -0.1582  0.1624 -0.2840
   98POPC   GL1 1540   9.053   6.364   7.754  0.1310 -0.1494  0.4039
   98POPC   GL2 1541   9.278   6.583   7.685 -0.0490 -0.0729 -0.1014
   98POPC   C1A 1542   9.209   6.400   7.233 -0.1452 -0.1787 -0.1410
   98POPC   D2A 1543   9.087   6.531   6.856 -0.2783  0.1874 -0.0945
   98POPC   C3A 1544   9.208   6.172   6.489  0.4683 -0.0986  0.1064
   98POPC   C4A 1545   8.929   5.770   6.459  0.1977 -0.1226 -0.3071
   98POPC   C1B 1546   9.074   6.902   7.332  0.0500  0.0010  0.4128
   98POPC   C2B 1547   9.055   7.337   7.161 -0.2279  0.2710  0.1361
   98POPC   C3B 1548   9.153   7.878   7.156 -0.1466  0.3052  0.0243
   98POPC   C4B 1549   9.060   8.360   7.155 -0.2963 -0.0219  0.0858
   99POPC   NC3 1550   3.284   4.291   8.978 -0.0990  0.1908  0.0521
   99POPC   PO4 1551   3.674   4.633   8.898 -0.1649 -0.2685  0.0599
   99POPC   GL1 1552   3.879   4.241   8.721  0.1854 -0.0950  0.2099
   99POPC   GL2 1553   3.787   4.319   8.440 -0.0213 -0.1847 -0.0923
   99POPC   C1A 1554   3.831   3.848   8.429 -0.0272  0.0493 -0.0657
   99POPC   D2A 1555   3.865   3.750   8.067  0.0131 -0.0650 -0.2529
   99POPC   C3A 1556   3.864   4.200   7.969  0.1814 -0.3610  0.0498
   99POPC   C4A 1557   3.757   4.643   8.059 -0.0134 -0.0710  0.0426
   99POPC   C1B 1558   4.235   4.127   8.242 -0.0594  0.1288 -0.3570
   99POPC   C2B 1559   4.433   3.997   7.841 -0.0274  0.3044  0.2343
   99POPC   C3B 1560   4.637   3.937   7.393  0.0942  0.0749 -0.0675
   99POPC   C4B 1561   4.592   3.938   6.978  0.1591  0.1241  0.2541
  100POPC   NC3 1562   8.985   8.655   9.040 -0.1844  0.1263 -0.1981
  100POPC   PO4 1563   9.148   8.800   8.695  0.2113 -0.0958  0.0220
  100POPC   GL1 1564   9.356   8.664   8.425 -0.1039  0.1010  0.1518
  100POPC   GL2 1565   9.501   8.918   8.212  0.0279 -0.0751 -0.2050
  100POPC   C1A 1566   9.508   8.514   7.957  0.2717  0.1475 -0.1192
  100POPC   D2A 1567   9.814   8.533   7.643 -0.1283  0.0488  0.1407
  100POPC   C3A 1568   9.632   8.551   7.118  0.1790  0.0860 -0.1550
  100POPC   C4A 1569   9.850   8.547   6.752  0.1040 -0.2171  0.4423
  100POPC   C1B 1570   9.732   8.978   7.837 -0.3680  0.2059  0.0164
  100POPC   C2B 1571  10.047   8.919   7.493  0.2956  0.0191  0.0806
  100POPC   C3B 1572  10.138   8.678   7.155 -0.4823  0.0628 -0.2597
  100POPC   C4B 1573  10.242   8.272   7.162 -0.0676 -0.0148 -0.0100
  101POPC   NC3 1574   1.282   6.655   8.461 -0.2371  0.0051  0.4237
  101POPC   PO4 1575   1.415   6.593   8.104 -0.0476  0.3873 -0.0333
  101POPC   GL1 1576   1.427   6.614   7.667 -0.1588  0.0925 -0.2701
  101POPC   GL2 1577   1.188   6.835   7.611 -0.0532 -0.3569 -0.1736
  101POPC   C1A 1578   1.399   6.552   7.259  0.0724 -0.1302 -0.1118
  101POPC   D2A 1579   1.195   6.372   6.980 -0.0486 -0.4004  0.0488
  101POPC   C3A 1580   1.029   6.698   6.609  0.2944  0.0871  0.2241
  101POPC   C4A 1581   0.604   6.842   6.525 -0.1128  0.1780 -0.3290
  101POPC   C1B 1582   1.261   7.345   7.422 -0.1868  0.2116  0.0568
  101POPC   C2B 1583   1.313   7.671   7.161 -0.1047 -0.0136 -0.2190
  101POPC   C3B 1584   0.996   7.914   6.999  0.1030 -0.2869  0.0354
  101POPC   C4B 1585   0.832   7.762   6.639 -0.0786  0.1926  0.1944
  102POPC   NC3 1586   8.368   1.297   8.303  0.0312  0.0155  0.0873
  102POPC   PO4 1587   8.712   1.089   8.320  0.1417  0.0431 -0.4200
  102POPC   GL1 1588   8.640   0.865   7.971  0.3875 -0.0422 -0.1013
  102POPC   GL2 1589   8.372   1.028   7.906 -0.0136  0.0219 -0.1241
  102POPC   C1A 1590   8.844   0.818   7.479  0.0209 -0.3386  0.0227
  102POPC   D2A 1591   8.833   0.538   7.213 -0.1557 -0.0567 -0.1034
  102POPC   C3A 1592   9.105   0.334   6.965  0.0972  0.1428  0.2049
  102POPC   C4A 1593   9.128  -0.099   6.855  0.1746 -0.1026 -0.4493
  102POPC   C1B 1594   8.260   1.091   7.444 -0.0827 -0.0540 -0.1917
  102POPC   C2B 1595   8.376   0.860   7.015  0.2002  0.0090 -0.3695
  102POPC   C3B 1596   8.811   0.796   6.751  0.1072  0.1723  0.1802
  102POPC   C4B 1597   9.070   0.532   6.475 -0.0427  0.4259 -0.1280
  103POPC   NC3 1598   4.970   4.300   8.731  0.2068  0.0087  0.3246
  103POPC   PO4 1599   5.311   4.065   8.722 -0.0210  0.0647  0.1507
  103POPC   GL1 1600   5.389   4.072   8.298 -0.2664  0.1211  0.0543
  103POPC   GL2 1601   5.092   3.874   8.221 -0.0308  0.1093 -0.2835
  103POPC   C1A 1602   5.357   3.927   7.804  0.4362  0.0220 -0.0708
  103POPC   D2A 1603   5.437   3.791   7.457  0.0794  0.1142  0.2037
  103POPC   C3A 1604   5.625   3.473   7.173 -0.0197 -0.2188 -0.0661
  103POPC   C4A 1605   5.721   3.218   6.740  0.1472 -0.1131 -0.3515
  103POPC   C1B 1606   4.683   3.631   8.140 -0.3852 -0.2418 -0.0746
  103POPC   C2B 1607   4.259   3.492   8.093  0.1581 -0.1690  0.0347
  103POPC   C3B 1608   4.022   3.230   7.944  0.1210 -0.1802 -0.0275
  103POPC   C4B 1609   3.752   2.929   7.692 -0.0862 -0.0634  0.0311
  104POPC   NC3 1610   1.815   8.995   8.633  0.2880 -0.2102 -0.0919
  104POPC   PO4 1611   1.311   9.165   8.565  0.0339 -0.0062 -0.0530
  104POPC   GL1 1612   1.309   9.092   8.101  0.1803 -0.2459 -0.3788
  104POPC   GL2 1613   1.679   8.984   8.003  0.0298  0.0480 -0.0970
  104POPC   C1A 1614   1.451   9.273   7.630  0.0541 -0.1151  0.1513
  104POPC   D2A 1615   1.360   9.287   7.185 -0.0838 -0.2825  0.1296
  104POPC   C3A 1616   1.090   9.482   6.900 -0.0750 -0.1103 -0.0071
  104POPC   C4A 1617   0.820   9.515   6.630 -0.0372  0.1943 -0.0239
  104POPC   C1B 1618   1.901   9.131   7.608  0.0321  0.3197  0.0498
  104POPC   C2B 1619   1.823   8.954   7.101 -0.0295  0.1339  0.1229
  104POPC   C3B 1620   1.810   8.529   7.059  0.1021 -0.0883 -0.0748
  104POPC   C4B 1621   1.717   8.157   6.941  0.0806 -0.1510 -0.0370
  105POPC   NC3 1622   3.907   7.821   8.555  0.0277 -0.0829 -0.1527
  105POPC   PO4 1623   3.487   7.616   8.560  0.2050  0.1132 -0.1443
  105POPC   GL1 1624   3.705   7.408   8.233  0.0151  0.0669 -0.0058
  105POPC   GL2 1625   3.603   7.650   8.012 -0.0394  0.0932 -0.1513
  105POPC   C1A 1626   3.804   7.364   7.673 -0.2427  0.0593  0.0576
  105POPC   D2A 1627   4.018   7.151   7.324  0.4962 -0.1253  0.2960
  105POPC   C3A 1628   4.053   6.743   7.193 -0.1484  0.2726 -0.0551
  105POPC   C4A 1629   4.069   6.289   7.026 -0.0518 -0.0839  0.0758
  105POPC   C1B 1630   3.331   7.279   7.781  0.0124  0.3036 -0.0111
  105POPC   C2B 1631   3.143   6.862   7.554  0.0042  0.0766  0.2128
  105POPC   C3B 1632   3.093   6.426   7.385  0.3032 -0.0857 -0.3398
  105POPC   C4B 1633   3.147   6.235   7.032  0.0623 -0.0765  0.0360
  106POPC   NC3 1634   8.670   6.857   8.853  0.0393  0.2109 -0.1649
  106POPC   PO4 1635   8.585   7.046   8.472 -0.3298 -0.1845  0.1132
  106POPC   GL1 1636   8.647   7.000   8.082 -0.1669  0.0379  0.2428
  106POPC   GL2 1637   8.843   6.742   7.972  0.0791  0.0263  0.0572
  106POPC   C1A 1638   8.302   6.850   7.687 -0.2847  0.2260  0.0389
  106POPC   D2A 1639   8.200   6.865   7.278 -0.0127  0.0611 -0.0498
  106POPC   C3A 1640   7.846   7.061   7.056 -0.2474  0.1018 -0.0410
  106POPC   C4A 1641   7.857   7.356   6.769  0.0031  0.3005  0.0420
  106POPC   C1B 1642   8.734   6.602   7.511  0.3905 -0.2731  0.2032
  106POPC   C2B 1643   8.706   6.390   7.217  0.0465  0.0698 -0.0619
  106POPC   C3B 1644   8.538   6.636   6.884 -0.2161 -0.1642  0.0740
  106POPC   C4B 1645   8.366   7.086   6.720  0.0742 -0.0739  0.1165
  107POPC   NC3 1646   2.810   3.498   9.458 -0.4752 -0.1902 -0.2038
  107POPC   PO4 1647   2.588   3.667   8.976  0.0981  0.2877  0.0925
  107POPC   GL1 1648   2.556   3.546   8.669  0.2042 -0.0325  0.0448
  107POPC   GL2 1649   2.174   3.670   8.611 -0.1309  0.0555 -0.1905
  107POPC   C1A 1650   2.830   3.486   8.302 -0.1325  0.3043 -0.0040
  107POPC   D2A 1651   3.020   3.171   8.083 -0.2030  0.2508 -0.0675
  107POPC   C3A 1652   3.293   2.923   7.963  0.0451 -0.0964  0.0332
  107POPC   C4A 1653   3.353   2.623   7.565  0.1451 -0.1577  0.1518
  107POPC   C1B 1654   1.985   3.797   8.224 -0.2184  0.2053  0.0827
  107POPC   C2B 1655   1.714   3.597   7.994  0.3236 -0.2891 -0.1503
  107POPC   C3B 1656   1.651   3.331   7.591 -0.2759  0.0514 -0.0106
  107POPC   C4B 1657   1.345   3.158   7.285 -0.0704 -0.2837 -0.1300
  108POPC   NC3 1658   6.245   5.595   8.195  0.2071  0.3768  0.0323
  108POPC   PO4 1659   6.708   5.189   8.374 -0.1651 -0.2012  0.3648
  108POPC   GL1 1660   6.818   5.507   7.956  0.1794 -0.2428 -0.2086
  108POPC   GL2 1661   7.066   5.432   7.761 -0.0665  0.1060  0.1386
  108POPC   C1A 1662   6.554   5.261   7.643  0.1012  0.2324  0.1319
  108POPC   D2A 1663   6.179   5.139   7.318  0.2788 -0.2224  0.0537
  108POPC   C3A 1664   6.166   5.163   6.843  0.2356  0.2236 -0.0401
  108POPC   C4A 1665   6.055   5.488   6.450 -0.1813 -0.2387 -0.0406
  108POPC   C1B 1666   6.982   5.567   7.419 -0.0011  0.0400 -0.3785
  108POPC   C2B 1667   6.703   5.812   7.031  0.0902  0.1872 -0.0377
  108POPC   C3B 1668   6.568   5.551   6.753 -0.0170  0.3124  0.1708
  108POPC   C4B 1669   6.603   5.481   6.252  0.1930 -0.0343  0.1108
  109POPC   NC3 1670   5.723   8.030   8.268 -0.1362 -0.0708 -0.0958
  109POPC   PO4 1671   5.311   8.046   8.312  0.2776  0.3764  0.1044
  109POPC   GL1 1672   5.319   8.298   7.922 -0.4359 -0.0935 -0.3182
  109POPC   GL2 1673   4.952   8.249   7.889 -0.1010  0.0603  0.3111
  109POPC   C1A 1674   5.264   8.593   7.698 -0.1769  0.0726  0.0603
  109POPC   D2A 1675   5.444   8.754   7.309 -0.0532 -0.0588 -0.0855
  109POPC   C3A 1676   5.295   8.652   6.877  0.1876 -0.2148 -0.2461
  109POPC   C4A 1677   5.044   8.565   6.521  0.2740  0.0880  0.2972
  109POPC   C1B 1678   4.628   8.443   7.734  0.0327  0.0926 -0.0572
  109POPC   C2B 1679   4.491   8.570   7.302  0.2673  0.0721 -0.2106
  109POPC   C3B 1680   4.228   8.564   6.909  0.2716  0.3860  0.1488
  109POPC   C4B 1681   4.380   8.764   6.492 -0.0076  0.0895  0.1028
  110POPC   NC3 1682   6.339   8.045   8.259  0.1046  0.0046 -0.0341
  110POPC   PO4 1683   6.109   7.620   8.354  0.1944 -0.0336  0.0186
  110POPC   GL1 1684   6.299   7.663   7.963  0.1154 -0.0289  0.0439
  110POPC   GL2 1685   6.021   7.647   7.754 -0.2935 -0.0565 -0.0663
  110POPC   C1A 1686   6.432   7.709   7.528  0.0620  0.1849  0.0896
  110POPC   D2A 1687   6.497   7.834   7.076  0.1908  0.0301  0.1488
  110POPC   C3A 1688   6.234   7.745   6.715 -0.1395 -0.4118 -0.1848
  110POPC   C4A 1689   6.028   7.334   6.473 -0.1467 -0.0160  0.2245
  110POPC   C1B 1690   5.800   7.662   7.304 -0.0963 -0.1990 -0.1936
  110POPC   C2B 1691   5.819   7.670   6.861 -0.1592 -0.0685  0.2328
  110POPC   C3B 1692   5.595   7.691   6.462 -0.4083 -0.1566 -0.1022
  110POPC   C4B 1693   5.354   7.779   6.160 -0.1588  0.0716 -0.4440
  111POPC   NC3 1694   2.711   1.945   9.922 -0.1091  0.0056 -0.3317
  111POPC   PO4 1695   2.876   2.062   9.590  0.4428  0.1788  0.1501
  111POPC   GL1 1696   2.963   2.222   9.323  0.2662  0.0805  0.2176
  111POPC   GL2 1697   2.969   2.438   9.116  0.0401  0.1876 -0.1356
  111POPC   C1A 1698   3.424   2.276   9.198  0.1856  0.1432  0.1054
  111POPC   D2A 1699   3.754   2.442   8.984  0.0678 -0.2176 -0.0232
  111POPC   C3A 1700   3.737   2.681   8.620  0.0520  0.2134 -0.0439
  111POPC   C4A 1701   3.631   2.704   8.212 -0.1060 -0.1246  0.3158
  111POPC   C1B 1702   2.688   2.207   8.854  0.2150  0.2543 -0.2348
  111POPC   C2B 1703   2.682   2.087   8.397 -0.0093 -0.0295 -0.2004
  111POPC   C3B 1704   2.895   1.776   8.152  0.0755  0.1864 -0.2027
  111POPC   C4B 1705   3.281   1.643   7.865 -0.4461  0.2382  0.0529
  112POPC   NC3 1706   6.655   9.045   8.503  0.3436  0.2932  0.0360
  112POPC   PO4 1707   6.784   9.159   8.144 -0.1718 -0.2046 -0.0578
  112POPC   GL1 1708   6.703   9.033   7.793  0.1893  0.0182 -0.0288
  112POPC   GL2 1709   6.493   9.297   7.642  0.2638  0.0529  0.3372
  112POPC   C1A 1710   6.716   8.886   7.318 -0.0752 -0.0590  0.0893
  112POPC   D2A 1711   6.470   8.728   6.931  0.0253  0.1963 -0.0280
  112POPC   C3A 1712   6.656   8.813   6.481 -0.0949 -0.2931 -0.2272
  112POPC   C4A 1713   6.941   8.837   6.176  0.1922 -0.2866 -0.1501
  112POPC   C1B 1714   6.588   9.369   7.251 -0.4511 -0.0398 -0.0476
  112POPC   C2B 1715   6.631   9.720   6.950 -0.1181 -0.0138  0.1594
  112POPC   C3B 1716   6.786   9.860   6.661 -0.1715  0.0361  0.1170
  112POPC   C4B 1717   7.118   9.966   6.383 -0.0508 -0.2145  0.1685
  113POPC   NC3 1718   8.819   5.209   8.215 -0.0214 -0.2152 -0.2992
  113POPC   PO4 1719   9.229   5.264   8.195  0.1428  0.0750 -0.0792
  113POPC   GL1 1720   9.205   5.319   7.814 -0.0409 -0.1039  0.0841
  113POPC   GL2 1721   9.435   5.619   7.727  0.0343  0.0670  0.0727
  113POPC   C1A 1722   9.284   5.150   7.429  0.0751  0.0816  0.2355
  113POPC   D2A 1723   9.115   5.158   7.072  0.1514 -0.1868 -0.2961
  113POPC   C3A 1724   8.942   4.802   6.782 -0.0214 -0.2877  0.0620
  113POPC   C4A 1725   8.692   4.820   6.456  0.2460  0.1018  0.2442
  113POPC   C1B 1726   9.288   5.662   7.220 -0.1124  0.3724  0.2111
  113POPC   C2B 1727   9.376   5.685   6.715 -0.0600 -0.0786 -0.1068
  113POPC   C3B 1728   9.539   5.484   6.265  0.0959 -0.1862 -0.0561
  113POPC   C4B 1729   9.710   5.705   5.887 -0.0650 -0.0173 -0.2091
  114POPC   NC3 1730   4.958   0.474   8.609 -0.0941 -0.1162  0.0584
  114POPC   PO4 1731   5.266   0.696   8.507 -0.0161  0.0980 -0.0260
  114POPC   GL1 1732   5.401   0.623   8.124 -0.1278 -0.0397  0.0894
  114POPC   GL2 1733   5.225   0.419   7.958 -0.0289  0.1672 -0.1973
  114POPC   C1A 1734   5.579   0.641   7.646  0.0049  0.2057 -0.0752
  114POPC   D2A 1735   5.391   0.649   7.254  0.0553  0.2383 -0.2535
  114POPC   C3A 1736   5.487   0.605   6.739 -0.0226  0.2808 -0.0616
  114POPC   C4A 1737   5.827   0.382   6.532  0.0389  0.0104  0.3360
  114POPC   C1B 1738   4.814   0.458   7.915  0.0870 -0.0496 -0.0649
  114POPC   C2B 1739   4.546   0.719   7.951 -0.0149 -0.1341 -0.1951
  114POPC   C3B 1740   4.261   0.483   7.831 -0.0661 -0.3819  0.2190
  114POPC   C4B 1741   4.068   0.166   7.755 -0.2690  0.1782 -0.2110
  115POPC   NC3 1742   5.769   6.794   8.610 -0.0248 -0.2140 -0.0462
  115POPC   PO4 1743   5.901   7.101   8.360 -0.1076  0.1950 -0.0235
  115POPC   GL1 1744   5.915   7.152   7.913  0.1061 -0.0648  0.0329
  115POPC   GL2 1745   5.636   7.279   7.612  0.1337  0.1544  0.0170
  115POPC   C1A 1746   6.027   6.936   7.529 -0.0899 -0.3604  0.1661
  115POPC   D2A 1747   5.664   6.864   7.301  0.2517  0.1051 -0.1255
  115POPC   C3A 1748   5.763   6.593   7.014 -0.2379 -0.4175 -0.0300
  115POPC   C4A 1749   5.920   6.512   6.699 -0.0656  0.1686  0.1097
  115POPC   C1B 1750   5.343   7.475   7.399 -0.1203  0.0072 -0.0522
  115POPC   C2B 1751   5.366   7.495   6.949  0.1066  0.2446 -0.0049
  115POPC   C3B 1752   5.254   7.402   6.572 -0.2335  0.1003  0.1087
  115POPC   C4B 1753   4.981   7.389   6.228 -0.0615 -0.0268 -0.3281
  116POPC   NC3 1754   6.726   5.875   8.306  0.0849  0.2621  0.2347
  116POPC   PO4 1755   6.878   6.238   8.137 -0.1147  0.1251 -0.0786
  116POPC   GL1 1756   6.670   6.048   7.812 -0.1655 -0.1659 -0.1353
  116POPC   GL2 1757   6.473   5.824   7.749  0.0261  0.0550 -0.2274
  116POPC   C1A 1758   6.459   6.193   7.469  0.0009 -0.0063 -0.1978
  116POPC   D2A 1759   6.543   6.253   6.967 -0.2537  0.0665  0.0322
  116POPC   C3A 1760   6.480   6.431   6.448  0.4504  0.3572 -0.3172
  116POPC   C4A 1761   6.582   6.476   5.964  0.1425 -0.2204  0.4019
  116POPC   C1B 1762   6.306   5.662   7.377  0.0782 -0.0142  0.2568
  116POPC   C2B 1763   6.071   5.623   6.955  0.2988 -0.0195  0.2339
  116POPC   C3B 1764   5.671   5.303   6.951  0.2942 -0.0097  0.0788
  116POPC   C4B 1765   5.569   5.058   7.335 -0.3075 -0.3207 -0.1082
  117POPC   NC3 1766   1.584   5.407   8.386  0.0288  0.0161  0.0157
  117POPC   PO4 1767   1.516   5.735   8.122 -0.3473 -0.2276 -0.0223
  117POPC   GL1 1768   1.459   5.521   7.700  0.3229  0.2089 -0.3337
  117POPC   GL2 1769   1.809   5.468   7.623  0.0836  0.1438 -0.1023
  117POPC   C1A 1770   1.481   5.249   7.290  0.2267 -0.0638  0.2102
  117POPC   D2A 1771   1.585   5.106   6.905 -0.3113 -0.0960 -0.2473
  117POPC   C3A 1772   1.631   4.798   6.721  0.1176  0.2170 -0.1146
  117POPC   C4A 1773   1.599   4.726   6.300 -0.2657  0.0267  0.0499
  117POPC   C1B 1774   1.934   5.459   7.249  0.1832 -0.4448  0.1034
  117POPC   C2B 1775   2.136   5.816   7.233 -0.0743  0.0043 -0.0838
  117POPC   C3B 1776   2.330   5.916   6.920 -0.1270  0.1962  0.4197
  117POPC   C4B 1777   2.748   6.084   6.867 -0.0098  0.1750 -0.3336
  118POPC   NC3 1778   6.776   6.811   8.258 -0.2116  0.2561 -0.0393
  118POPC   PO4 1779   7.130   7.046   8.260  0.1760  0.0982 -0.1345
  118POPC   GL1 1780   7.068   6.910   7.831  0.1757  0.1246 -0.0962
  118POPC   GL2 1781   7.234   7.071   7.701  0.0611  0.1176  0.2399
  118POPC   C1A 1782   6.890   6.770   7.351  0.0495  0.0227 -0.2599
  118POPC   D2A 1783   6.961   6.804   6.861 -0.1075 -0.4151 -0.1304
  118POPC   C3A 1784   6.849   6.846   6.470  0.0160 -0.0025  0.4578
  118POPC   C4A 1785   6.902   6.835   6.092 -0.1314  0.1073  0.4716
  118POPC   C1B 1786   7.328   7.014   7.154  0.0959 -0.0725 -0.1823
  118POPC   C2B 1787   7.398   7.157   6.772 -0.0723 -0.2655  0.0479
  118POPC   C3B 1788   7.296   7.004   6.305 -0.2215  0.0067  0.1400
  118POPC   C4B 1789   7.495   6.648   6.229  0.0670  0.2123 -0.0376
  119POPC   NC3 1790   7.616   5.458   8.420 -0.0476  0.2017 -0.0528
  119POPC   PO4 1791   7.209   5.721   8.179 -0.0321 -0.2618  0.1111
  119POPC   GL1 1792   7.169   5.906   7.790  0.0962 -0.2632 -0.1095
  119POPC   GL2 1793   7.393   5.872   7.410 -0.3108  0.1365 -0.1992
  119POPC   C1A 1794   6.938   6.076   7.412  0.0971  0.2584 -0.2250
  119POPC   D2A 1795   7.146   6.270   7.083  0.0227  0.0401 -0.1260
  119POPC   C3A 1796   6.924   6.182   6.682 -0.2171  0.0817 -0.0712
  119POPC   C4A 1797   6.614   5.947   6.484  0.4543 -0.1495  0.1413
  119POPC   C1B 1798   7.217   5.752   6.983 -0.3851  0.1574 -0.0675
  119POPC   C2B 1799   6.996   5.693   6.549 -0.2399 -0.1136  0.0481
  119POPC   C3B 1800   7.044   5.683   6.081 -0.0073 -0.0782 -0.0701
  119POPC   C4B 1801   6.772   5.479   5.782 -0.1698  0.3550 -0.1780
  120POPC   NC3 1802   1.040   5.740   8.047  0.1320  0.3459 -0.0928
  120POPC   PO4 1803   0.740   5.894   7.881  0.2665 -0.2141 -0.2625
  120POPC   GL1 1804   0.589   5.706   7.583  0.1901  0.3174  0.1539
  120POPC   GL2 1805   0.456   6.061   7.468  0.1091 -0.1302 -0.1155
  120POPC   C1A 1806   0.739   5.454   7.155 -0.0781 -0.5405 -0.5162
  120POPC   D2A 1807   1.170   5.405   6.912  0.0948 -0.0246  0.1904
  120POPC   C3A 1808   1.520   5.589   6.633  0.1851 -0.1622  0.0143
  120POPC   C4A 1809   2.006   5.527   6.773  0.0412 -0.4126  0.0218
  120POPC   C1B 1810   0.181   6.148   7.068 -0.0334  0.2336 -0.0401
  120POPC   C2B 1811  -0.146   6.122   6.867  0.1681  0.2751 -0.1478
  120POPC   C3B 1812  -0.578   6.037   6.936 -0.0215 -0.0531  0.1321
  120POPC   C4B 1813  -1.028   5.997   6.984 -0.0783 -0.0686  0.1869
  121POPC   NC3 1814   2.780   4.964   8.522  0.1424 -0.0686  0.2324
  121POPC   PO4 1815   2.436   5.205   8.345 -0.0902  0.3108 -0.2625
  121POPC   GL1 1816   2.173   4.933   8.037 -0.2036  0.1799 -0.1694
  121POPC   GL2 1817   1.916   4.698   8.160 -0.2678  0.1548 -0.2218
  121POPC   C1A 1818   2.107   4.674   7.682 -0.0384  0.1736 -0.0950
  121POPC   D2A 1819   1.870   4.390   7.456 -0.2414  0.1146 -0.1846
  121POPC   C3A 1820   1.795   4.462   7.087 -0.1968  0.1161  0.0371
  121POPC   C4A 1821   1.329   4.635   7.137  0.1639 -0.0701 -0.2451
  121POPC   C1B 1822   1.996   4.292   8.010  0.1323 -0.0984 -0.0604
  121POPC   C2B 1823   2.121   4.026   7.741  0.1767 -0.1824  0.0899
  121POPC   C3B 1824   2.149   3.588   7.640 -0.0436 -0.1727 -0.0698
  121POPC   C4B 1825   2.293   3.321   7.365 -0.2036  0.1282  0.0246
  122POPC   NC3 1826   2.398   4.087   8.791 -0.0450 -0.0119  0.0449
  122POPC   PO4 1827   2.868   4.296   8.676  0.0841  0.1660  0.2227
  122POPC   GL1 1828   3.014   4.483   8.246 -0.1467 -0.1349  0.1170
  122POPC   GL2 1829   3.265   4.772   8.158  0.0820 -0.1791  0.4382
  122POPC   C1A 1830   3.310   4.284   7.953 -0.1925  0.0062  0.2848
  122POPC   D2A 1831   3.440   4.018   7.713  0.0787  0.3582 -0.0008
  122POPC   C3A 1832   3.231   3.770   7.444  0.0028 -0.0714 -0.1359
  122POPC   C4A 1833   3.376   3.510   7.067 -0.0835 -0.1448  0.0899
  122POPC   C1B 1834   3.268   4.790   7.595  0.0865  0.0218  0.0847
  122POPC   C2B 1835   3.262   4.857   7.096 -0.0610 -0.1252  0.3445
  122POPC   C3B 1836   3.235   4.761   6.657  0.1750 -0.0802 -0.1706
  122POPC   C4B 1837   3.385   4.742   6.251  0.2567  0.3615 -0.0205
  123POPC   NC3 1838   2.873   9.032   8.506 -0.0511  0.2021 -0.0792
  123POPC   PO4 1839   3.263   8.906   8.381  0.2438 -0.3425 -0.2539
  123POPC   GL1 1840   3.570   8.910   8.024  0.0028 -0.0112  0.2780
  123POPC   GL2 1841   3.657   9.244   7.963 -0.0090 -0.1872  0.0670
  123POPC   C1A 1842   3.723   8.593   7.734 -0.3071  0.3374  0.2216
  123POPC   D2A 1843   3.909   8.521   7.302 -0.0623  0.2210 -0.2082
  123POPC   C3A 1844   3.705   8.794   7.001  0.0602  0.0870 -0.1330
  123POPC   C4A 1845   3.658   9.044   6.690  0.1084 -0.1101 -0.3179
  123POPC   C1B 1846   3.542   9.146   7.536  0.0186  0.0683  0.1306
  123POPC   C2B 1847   3.582   9.406   7.049 -0.0524  0.0662 -0.3658
  123POPC   C3B 1848   3.800   9.592   6.750  0.3676  0.0100 -0.1069
  123POPC   C4B 1849   3.888   9.964   6.769 -0.1956  0.0711  0.3915
  124POPC   NC3 1850   0.859   8.607   8.151  0.1966 -0.0552 -0.0983
  124POPC   PO4 1851   0.558   8.259   8.265 -0.3548  0.0218  0.0055
  124POPC   GL1 1852   0.550   8.219   7.838 -0.3092 -0.0642  0.0191
  124POPC   GL2 1853   0.656   8.503   7.706  0.4372  0.2288 -0.1958
  124POPC   C1A 1854   0.858   7.987   7.554 -0.5890 -0.3237  0.1355
  124POPC   D2A 1855   1.271   7.874   7.799 -0.2349  0.2218 -0.0130
  124POPC   C3A 1856   1.622   7.760   7.585  0.0914  0.4619  0.4271
  124POPC   C4A 1857   1.881   7.471   7.293  0.2732  0.0581  0.0307
  124POPC   C1B 1858   0.950   8.495   7.393  0.2091 -0.2257  0.2057
  124POPC   C2B 1859   1.009   8.806   7.078 -0.1614 -0.2096  0.0488
  124POPC   C3B 1860   0.672   9.084   6.835 -0.1856 -0.0785 -0.7363
  124POPC   C4B 1861   0.397   8.935   6.553  0.0066  0.2215 -0.0146
  125POPC   NC3 1862   1.177   0.918   9.188 -0.0889  0.2991 -0.1658
  125POPC   PO4 1863   1.387   0.653   8.780 -0.1477 -0.0993 -0.4002
  125POPC   GL1 1864   1.572   0.775   8.398 -0.5004 -0.4010  0.3239
  125POPC   GL2 1865   1.304   0.892   8.198 -0.3331 -0.0717 -0.1828
  125POPC   C1A 1866   1.838   0.975   8.122  0.0717 -0.3544 -0.0872
  125POPC   D2A 1867   2.032   1.254   7.954  0.2235 -0.0190 -0.0283
  125POPC   C3A 1868   1.825   1.452   7.680 -0.0728  0.0882 -0.0525
  125POPC   C4A 1869   1.653   1.623   7.447  0.0695 -0.2375 -0.0028
  125POPC   C1B 1870   1.575   1.025   7.781  0.3098 -0.6015  0.1516
  125POPC   C2B 1871   1.496   1.149   7.314 -0.1293  0.0765  0.0446
  125POPC   C3B 1872   1.313   1.204   6.995  0.3654 -0.0421  0.2511
  125POPC   C4B 1873   1.034   1.400   6.690  0.1689 -0.0114 -0.0641
  126POPC   NC3 1874   7.502   9.496   8.458 -0.0699 -0.1735 -0.1590
  126POPC   PO4 1875   7.423   9.982   8.368 -0.0880 -0.0223 -0.0256
  126POPC   GL1 1876   7.270  10.098   7.918  0.1000 -0.0168 -0.1106
  126POPC   GL2 1877   6.949  10.164   7.765  0.1805 -0.2665  0.0242
  126POPC   C1A 1878   7.340   9.771   7.652 -0.0834  0.1916  0.1374
  126POPC   D2A 1879   7.536   9.498   7.376 -0.0899  0.0015  0.2117
  126POPC   C3A 1880   7.731   9.661   7.093  0.1144 -0.0929  0.1861
  126POPC   C4A 1881   7.954   9.788   6.667 -0.2233 -0.3952  0.1382
  126POPC   C1B 1882   6.884  10.268   7.322 -0.0291 -0.0197  0.2429
  126POPC   C2B 1883   6.712  10.214   6.971  0.2501  0.1263  0.1703
  126POPC   C3B 1884   6.343  10.322   6.594  0.0766 -0.2333 -0.0867
  126POPC   C4B 1885   6.113  10.557   6.229  0.0234 -0.2172  0.2177
  127POPC   NC3 1886   2.757   2.562   9.618  0.1117  0.0974 -0.1159
  127POPC   PO4 1887   2.451   2.772   9.353  0.3727  0.0306  0.1866
  127POPC   GL1 1888   2.550   2.732   9.021  0.1592 -0.1665 -0.1059
  127POPC   GL2 1889   2.851   2.726   8.782  0.3340 -0.1030 -0.1222
  127POPC   C1A 1890   2.386   2.652   8.611 -0.1062  0.3994  0.0684
  127POPC   D2A 1891   2.386   2.442   8.219  0.1805 -0.1934  0.1066
  127POPC   C3A 1892   1.935   2.177   8.284  0.0280  0.5083  0.1360
  127POPC   C4A 1893   1.859   1.792   8.059 -0.0954  0.3573 -0.1226
  127POPC   C1B 1894   2.660   3.070   8.572  0.0805 -0.1425  0.0847
  127POPC   C2B 1895   2.468   3.200   8.233  0.1967  0.2540 -0.0676
  127POPC   C3B 1896   2.534   3.579   7.966  0.2875 -0.0369 -0.1265
  127POPC   C4B 1897   2.984   3.589   7.859 -0.1196  0.1371 -0.0411
  128POPC   NC3 1898   4.631   7.533   8.209 -0.2063 -0.0276  0.0916
  128POPC   PO4 1899   4.208   7.400   8.366  0.2224 -0.3687 -0.0252
  128POPC   GL1 1900   4.257   7.261   7.985  0.1212  0.1976  0.0933
  128POPC   GL2 1901   4.579   7.114   7.942  0.0091  0.1141  0.1528
  128POPC   C1A 1902   4.357   7.496   7.469 -0.5197 -0.1887 -0.0205
  128POPC   D2A 1903   4.302   7.594   6.995  0.1774  0.2169 -0.2159
  128POPC   C3A 1904   4.621   7.907   6.742  0.0292 -0.3058 -0.0116
  128POPC   C4A 1905   5.001   7.857   6.523 -0.0464  0.1529  0.1034
  128POPC   C1B 1906   4.470   6.930   7.530 -0.2917 -0.0553  0.0314
  128POPC   C2B 1907   4.461   7.088   7.148 -0.2722 -0.1831  0.2806
  128POPC   C3B 1908   4.334   7.033   6.722  0.0187  0.0532  0.0095
  128POPC   C4B 1909   4.148   6.663   6.547 -0.0467  0.0794  0.1195
  129POPC   NC3 1910   5.969   2.978   8.755 -0.0193 -0.0611 -0.0240
  129POPC   PO4 1911   5.466   2.886   8.565 -0.2525 -0.1801  0.1011
  129POPC   GL1 1912   5.431   2.793   8.159  0.0573  0.0255 -0.0711
  129POPC   GL2 1913   5.359   2.382   8.061 -0.1204 -0.3596  0.1116
  129POPC   C1A 1914   5.333   3.017   7.784 -0.3376 -0.1862  0.1723
  129POPC   D2A 1915   5.200   3.314   7.475  0.0798 -0.1393 -0.1401
  129POPC   C3A 1916   5.251   3.187   7.069 -0.0650 -0.0646 -0.2670
  129POPC   C4A 1917   4.895   3.035   6.796  0.3623  0.0394  0.2953
  129POPC   C1B 1918   5.560   2.523   7.743  0.0412  0.2769  0.0704
  129POPC   C2B 1919   5.591   2.432   7.331 -0.0800 -0.1504 -0.1546
  129POPC   C3B 1920   5.294   2.437   6.960 -0.0911  0.1542 -0.2655
  129POPC   C4B 1921   4.926   2.116   6.925 -0.1470  0.1499 -0.3316
  130POPC   NC3 1922   3.852   5.148   8.895  0.0275  0.2884 -0.0656
  130POPC   PO4 1923   4.127   5.283   8.518 -0.0439 -0.1276  0.0191
  130POPC   GL1 1924   4.082   5.077   8.097 -0.1940  0.2405 -0.1019
  130POPC   GL2 1925   4.375   5.066   7.904 -0.0868 -0.0841  0.1392
  130POPC   C1A 1926   3.858   4.996   7.736 -0.1160  0.1005  0.0417
  130POPC   D2A 1927   3.702   5.013   7.253  0.0393  0.1425 -0.1192
  130POPC   C3A 1928   3.707   4.635   7.027 -0.0730 -0.0434  0.0916
  130POPC   C4A 1929   3.564   4.400   6.625  0.0759 -0.0977 -0.2060
  130POPC   C1B 1930   4.591   4.904   7.661 -0.1986 -0.1196  0.0780
  130POPC   C2B 1931   4.750   5.047   7.362  0.0000  0.0630 -0.0993
  130POPC   C3B 1932   4.831   4.885   6.946 -0.1299 -0.1206 -0.0357
  130POPC   C4B 1933   4.944   4.541   6.673  0.1558 -0.0160 -0.0115
  131POPC   NC3 1934   7.443   7.487   7.874  0.1218  0.0376 -0.1858
  131POPC   PO4 1935   7.746   7.759   7.970  0.0300 -0.0474  0.5075
  131POPC   GL1 1936   7.585   8.060   7.657 -0.2014  0.2592  0.2525
  131POPC   GL2 1937   7.458   7.844   7.478 -0.1033 -0.3618  0.0151
  131POPC   C1A 1938   7.278   8.321   7.353  0.1221 -0.1876  0.1516
  131POPC   D2A 1939   7.157   8.739   7.277 -0.0666 -0.0417  0.0894
  131POPC   C3A 1940   7.036   8.772   6.904 -0.1894  0.1824  0.1597
  131POPC   C4A 1941   7.181   8.944   6.607  0.1672  0.2957  0.0474
  131POPC   C1B 1942   7.425   7.506   7.162  0.1987 -0.1768 -0.0036
  131POPC   C2B 1943   7.005   7.431   6.879 -0.0311  0.1590  0.0671
  131POPC   C3B 1944   6.626   7.382   6.704 -0.3704 -0.1338  0.1873
  131POPC   C4B 1945   6.474   7.549   6.258  0.2315 -0.1663  0.2278
  132POPC   NC3 1946   6.154   6.701   8.181  0.2204  0.1695  0.1421
  132POPC   PO4 1947   6.316   6.245   8.195 -0.1807 -0.2271  0.0891
  132POPC   GL1 1948   6.090   6.132   7.809  0.2340  0.1031 -0.4825
  132POPC   GL2 1949   6.082   6.490   7.684  0.1191 -0.2766 -0.0659
  132POPC   C1A 1950   5.953   6.057   7.404 -0.2355 -0.0784 -0.1215
  132POPC   D2A 1951   6.045   6.159   7.044 -0.1163  0.2850  0.0319
  132POPC   C3A 1952   6.097   6.070   6.563  0.1488  0.1926 -0.0802
  132POPC   C4A 1953   5.859   5.907   6.232 -0.2354 -0.0178 -0.0368
  132POPC   C1B 1954   6.197   6.524   7.287 -0.0875 -0.0231 -0.1353
  132POPC   C2B 1955   6.393   6.757   7.100  0.0082 -0.0293 -0.1371
  132POPC   C3B 1956   6.395   6.916   6.628  0.3511 -0.1107 -0.2163
  132POPC   C4B 1957   6.412   7.022   6.198 -0.1695  0.0058  0.2414
  133POPC   NC3 1958   1.397   6.131   7.761  0.0605 -0.6418 -0.0053
  133POPC   PO4 1959   0.997   6.431   7.878 -0.2589 -0.0752  0.0092
  133POPC   GL1 1960   0.891   6.377   7.453  0.0950 -0.3370 -0.0907
  133POPC   GL2 1961   0.976   6.104   7.397  0.0311 -0.2730 -0.0344
  133POPC   C1A 1962   0.702   6.464   6.989 -0.0970  0.1117  0.2030
  133POPC   D2A 1963   0.715   6.281   6.588  0.0036 -0.0661 -0.0469
  133POPC   C3A 1964   0.635   6.466   6.203 -0.0010  0.2319  0.2388
  133POPC   C4A 1965   0.698   6.802   5.898 -0.3479  0.1372  0.2189
  133POPC   C1B 1966   0.707   5.954   7.058  0.0595  0.0412 -0.0766
  133POPC   C2B 1967   0.863   5.842   6.731  0.1353  0.1146 -0.1832
  133POPC   C3B 1968   1.087   5.780   6.349 -0.1074 -0.1098  0.1167
  133POPC   C4B 1969   1.531   5.745   6.158 -0.1126  0.3854  0.0071
  134POPC   NC3 1970   4.423   6.719   8.224  0.4543 -0.0898 -0.3290
  134POPC   PO4 1971   4.826   6.591   8.115  0.3676 -0.1526 -0.1532
  134POPC   GL1 1972   4.882   6.473   7.704  0.0825  0.1476  0.1554
  134POPC   GL2 1973   4.554   6.385   7.723 -0.0030  0.2259  0.1759
  134POPC   C1A 1974   4.849   6.650   7.340 -0.1085  0.0504 -0.3911
  134POPC   D2A 1975   4.837   6.882   6.924 -0.1908  0.1744  0.1984
  134POPC   C3A 1976   5.038   6.875   6.461  0.4782 -0.1022  0.1829
  134POPC   C4A 1977   5.005   6.521   6.250 -0.3683 -0.2220  0.0870
  134POPC   C1B 1978   4.419   6.358   7.308  0.1636  0.3953  0.3789
  134POPC   C2B 1979   4.487   6.498   6.898  0.0362 -0.0269 -0.1386
  134POPC   C3B 1980   4.624   6.575   6.554  0.0843 -0.1922 -0.1587
  134POPC   C4B 1981   4.364   6.585   6.114 -0.1520  0.0745  0.1574
  135POPC   NC3 1982   4.156   8.578   8.838 -0.0382  0.0802  0.1208
  135POPC   PO4 1983   4.321   8.782   8.574 -0.1257  0.3817  0.3066
  135POPC   GL1 1984   4.301   8.804   8.071  0.0837 -0.0313 -0.1964
  135POPC   GL2 1985   4.231   8.470   8.055  0.1317 -0.0812 -0.3239
  135POPC   C1A 1986   4.188   8.747   7.682  0.1777  0.0358  0.0929
  135POPC   D2A 1987   4.099   8.978   7.296 -0.2526 -0.3283  0.3523
  135POPC   C3A 1988   4.231   9.069   6.945  0.1191 -0.1737  0.1488
  135POPC   C4A 1989   4.088   9.270   6.569 -0.1575  0.1492  0.1585
  135POPC   C1B 1990   4.190   8.271   7.634  0.0588 -0.0235  0.3315
  135POPC   C2B 1991   4.269   8.111   7.236  0.1552 -0.0831  0.2272
  135POPC   C3B 1992   4.090   8.046   6.819 -0.5000  0.1895 -0.1403
  135POPC   C4B 1993   4.090   8.383   6.404 -0.0525  0.1339  0.0391
  136POPC   NC3 1994   6.066   8.502   8.817  0.0681 -0.0935 -0.1208
  136POPC   PO4 1995   6.045   8.424   8.400  0.1356 -0.0242  0.1604
  136POPC   GL1 1996   6.003   8.426   7.949  0.0777  0.0917  0.0042
  136POPC   GL2 1997   6.144   8.140   7.760  0.0289  0.1273 -0.2123
  136POPC   C1A 1998   5.694   8.400   7.639 -0.1413 -0.1132  0.1733
  136POPC   D2A 1999   5.534   8.260   7.274  0.0258 -0.1068  0.2615
  136POPC   C3A 2000   5.746   8.313   6.873 -0.1945  0.0868  0.1120
  136POPC   C4A 2001   5.882   8.173   6.480  0.2264 -0.0892  0.3268
  136POPC   C1B 2002   6.068   8.054   7.257  0.2897  0.2139  0.1886
  136POPC   C2B 2003   6.258   8.268   6.827  0.0212 -0.0551  0.2011
  136POPC   C3B 2004   6.212   8.549   6.456 -0.2749  0.0356  0.0667
  136POPC   C4B 2005   6.326   8.741   6.114  0.1725  0.2533 -0.1313
  137POPC   NC3 2006   8.461   6.536   8.174 -0.1159 -0.0073 -0.0060
  137POPC   PO4 2007   8.238   6.181   8.328 -0.0868  0.1241  0.3299
  137POPC   GL1 2008   8.231   6.052   7.860  0.0180  0.2378 -0.0323
  137POPC   GL2 2009   8.608   6.178   7.842  0.1147 -0.4620  0.2177
  137POPC   C1A 2010   8.226   6.359   7.496  0.3540 -0.2550 -0.0687
  137POPC   D2A 2011   8.209   6.337   7.097 -0.0692  0.0671 -0.0130
  137POPC   C3A 2012   7.951   6.655   6.887  0.1411  0.1534  0.2832
  137POPC   C4A 2013   7.508   6.670   6.726 -0.1371  0.1298 -0.0236
  137POPC   C1B 2014   8.386   5.919   7.425 -0.1894 -0.1158 -0.1529
  137POPC   C2B 2015   8.120   5.865   7.047 -0.4993  0.0374 -0.1312
  137POPC   C3B 2016   7.818   5.639   7.004  0.2704 -0.0205 -0.1148
  137POPC   C4B 2017   7.498   5.595   6.620  0.0771 -0.3174 -0.2358
  138POPC   NC3 2018   8.266   1.802   8.228 -0.0626 -0.3706  0.1464
  138POPC   PO4 2019   7.992   2.074   8.337 -0.0203  0.0003 -0.1899
  138POPC   GL1 2020   8.009   2.247   7.940 -0.2129 -0.0074 -0.1687
  138POPC   GL2 2021   8.130   2.031   7.799 -0.0704  0.0833  0.0614
  138POPC   C1A 2022   8.007   2.448   7.515  0.1787  0.1504 -0.0788
  138POPC   D2A 2023   8.085   2.456   7.049 -0.0466  0.4373 -0.0128
  138POPC   C3A 2024   7.683   2.407   6.715 -0.1857  0.0962 -0.3645
  138POPC   C4A 2025   7.360   2.249   6.488  0.0451 -0.0584 -0.2624
  138POPC   C1B 2026   7.894   1.989   7.452  0.0777 -0.0917 -0.1445
  138POPC   C2B 2027   7.848   1.885   7.071 -0.2248  0.0454  0.0036
  138POPC   C3B 2028   8.145   1.809   6.817 -0.0696  0.2307 -0.1786
  138POPC   C4B 2029   8.516   1.763   6.532 -0.3264 -0.0522 -0.1232
  139POPC   NC3 2030   2.926   5.692   8.153  0.1377 -0.1365 -0.3129
  139POPC   PO4 2031   2.615   6.075   8.035  0.0837 -0.1629 -0.2488
  139POPC   GL1 2032   2.865   6.113   7.671 -0.0057 -0.1164 -0.4121
  139POPC   GL2 2033   2.638   6.094   7.427  0.0195  0.1638 -0.4979
  139POPC   C1A 2034   3.050   5.875   7.288  0.4278  0.2329 -0.2121
  139POPC   D2A 2035   3.102   5.592   6.849  0.0667  0.0465  0.2230
  139POPC   C3A 2036   2.861   5.473   6.436 -0.0330 -0.0364  0.0350
  139POPC   C4A 2037   2.715   5.311   6.095  0.2972 -0.2781 -0.2525
  139POPC   C1B 2038   2.522   6.448   7.178  0.1456  0.3634  0.1927
  139POPC   C2B 2039   2.359   6.384   6.665 -0.1198  0.1720 -0.1934
  139POPC   C3B 2040   2.119   6.546   6.299 -0.1146  0.0392 -0.1102
  139POPC   C4B 2041   2.219   7.009   6.138 -0.1095  0.2251 -0.0674
  140POPC   NC3 2042   6.350   2.076   7.975 -0.1480 -0.1051 -0.1108
  140POPC   PO4 2043   6.309   2.507   8.149  0.0536  0.0826 -0.1149
  140POPC   GL1 2044   6.306   2.502   7.646  0.2617  0.0344  0.1411
  140POPC   GL2 2045   6.489   2.814   7.569  0.2644 -0.2180  0.0344
  140POPC   C1A 2046   6.521   2.568   7.153  0.0567  0.0472 -0.2355
  140POPC   D2A 2047   6.722   2.683   6.785 -0.4218  0.2247  0.3382
  140POPC   C3A 2048   6.888   3.018   6.807  0.1715 -0.0715  0.2993
  140POPC   C4A 2049   7.209   3.345   6.819 -0.3986 -0.1054 -0.2219
  140POPC   C1B 2050   6.601   3.162   7.289  0.2655  0.1494 -0.2268
  140POPC   C2B 2051   6.466   3.275   6.951 -0.0160  0.1540  0.0345
  140POPC   C3B 2052   6.205   3.364   6.556 -0.0554  0.1832  0.0350
  140POPC   C4B 2053   5.827   3.188   6.261 -0.0098  0.1662 -0.1936
  141POPC   NC3 2054   6.655   2.954   8.091  0.1604 -0.3715 -0.1597
  141POPC   PO4 2055   6.298   3.079   8.395 -0.0404  0.3609  0.0261
  141POPC   GL1 2056   6.210   3.074   7.940  0.1994  0.0441  0.2143
  141POPC   GL2 2057   6.345   3.302   7.711 -0.3474 -0.1663 -0.1801
  141POPC   C1A 2058   5.950   2.824   7.578  0.1189  0.1147 -0.1704
  141POPC   D2A 2059   5.667   2.995   7.330  0.1536  0.1069 -0.1649
  141POPC   C3A 2060   5.649   2.825   7.000 -0.1741  0.0330  0.2380
  141POPC   C4A 2061   5.493   2.703   6.598 -0.0080 -0.2010  0.1730
  141POPC   C1B 2062   6.415   3.706   7.410 -0.4970  0.1004  0.1949
  141POPC   C2B 2063   6.582   4.045   7.150  0.0068 -0.0135  0.1887
  141POPC   C3B 2064   6.638   4.207   6.680  0.0175 -0.1849 -0.3133
  141POPC   C4B 2065   6.783   4.517   6.407 -0.0550  0.0512  0.0542
  142POPC   NC3 2066   3.071   7.928   8.616 -0.2104  0.1162  0.1830
  142POPC   PO4 2067   3.505   8.188   8.597 -0.0500 -0.1168  0.0165
  142POPC   GL1 2068   3.393   8.092   8.199 -0.1226 -0.1174  0.2542
  142POPC   GL2 2069   3.364   8.452   8.068 -0.0861  0.0211 -0.3402
  142POPC   C1A 2070   3.431   8.054   7.778 -0.2308  0.2340  0.2514
  142POPC   D2A 2071   3.454   8.209   7.352  0.5148 -0.1016  0.1721
  142POPC   C3A 2072   3.278   8.008   7.000  0.1599 -0.3187 -0.3217
  142POPC   C4A 2073   3.155   7.743   6.605  0.1708 -0.0749  0.0640
  142POPC   C1B 2074   3.225   8.570   7.642 -0.1546 -0.3290 -0.1001
  142POPC   C2B 2075   3.323   8.754   7.374  0.1826 -0.3416 -0.4586
  142POPC   C3B 2076   3.104   9.035   7.167 -0.1787 -0.2578 -0.4343
  142POPC   C4B 2077   2.678   9.076   7.021 -0.0293  0.1749  0.2740
  143POPC   NC3 2078   8.623   4.518   8.650  0.2725  0.0845  0.1438
  143POPC   PO4 2079   8.541   4.849   8.393  0.1651 -0.0693 -0.3875
  143POPC   GL1 2080   8.494   4.914   7.937 -0.4665 -0.1541  0.0511
  143POPC   GL2 2081   8.750   4.949   7.757  0.1154  0.3998 -0.0672
  143POPC   C1A 2082   8.312   4.759   7.510  0.3075  0.0108 -0.2196
  143POPC   D2A 2083   8.315   4.886   7.029 -0.0370  0.3248 -0.3140
  143POPC   C3A 2084   8.613   5.136   6.883  0.0104  0.0789  0.0379
  143POPC   C4A 2085   8.884   5.547   6.894  0.1977 -0.1752 -0.1486
  143POPC   C1B 2086   8.602   5.136   7.423 -0.3057 -0.3521  0.0126
  143POPC   C2B 2087   8.385   5.414   7.214 -0.2423 -0.1121 -0.2359
  143POPC   C3B 2088   8.146   5.295   6.787 -0.0130 -0.1042 -0.0306
  143POPC   C4B 2089   7.969   5.445   6.498 -0.2885  0.4210  0.1009
  144POPC   NC3 2090   7.055   2.647   4.224  0.2694 -0.2167  0.0525
  144POPC   PO4 2091   7.438   2.517   4.327  0.1406  0.1799 -0.0711
  144POPC   GL1 2092   7.361   2.509   4.792 -0.4568 -0.0680  0.1574
  144POPC   GL2 2093   7.090   2.521   4.950  0.2683 -0.2481  0.1463
  144POPC   C1A 2094   7.521   2.372   5.185  0.0362 -0.0864 -0.2166
  144POPC   D2A 2095   7.293   2.399   5.575 -0.1139  0.0009  0.4122
  144POPC   C3A 2096   7.179   2.836   5.656 -0.3556  0.0156  0.2046
  144POPC   C4A 2097   7.354   3.154   5.420 -0.1659 -0.0718  0.1045
  144POPC   C1B 2098   6.985   2.200   5.152 -0.0430 -0.2530 -0.0357
  144POPC   C2B 2099   6.876   1.999   5.586 -0.0331  0.1607  0.3108
  144POPC   C3B 2100   7.228   2.113   5.933 -0.1366  0.0333 -0.1140
  144POPC   C4B 2101   7.380   2.521   6.033 -0.0990  0.1451  0.0105
  145POPC   NC3 2102   3.514   0.667   2.990  0.2280 -0.2252  0.2333
  145POPC   PO4 2103   3.179   0.708   3.252 -0.1799 -0.0486  0.0992
  145POPC   GL1 2104   3.332   0.961   3.710  0.1204 -0.0408  0.1867
  145POPC   GL2 2105   3.348   0.820   4.039  0.1145 -0.1024 -0.2228
  145POPC   C1A 2106   3.447   1.386   3.880 -0.2231 -0.2251  0.0461
  145POPC   D2A 2107   3.653   1.677   4.170 -0.0668 -0.1955 -0.2403
  145POPC   C3A 2108   3.663   1.732   4.711  0.1667 -0.0202  0.0877
  145POPC   C4A 2109   4.023   1.692   4.931 -0.5618 -0.1918  0.0795
  145POPC   C1B 2110   3.700   1.113   4.301  0.1156  0.1671  0.0124
  145POPC   C2B 2111   4.027   1.291   4.427  0.1544 -0.3770 -0.1601
  145POPC   C3B 2112   4.061   1.731   4.462 -0.0419 -0.0333  0.1349
  145POPC   C4B 2113   4.384   1.951   4.410  0.1287  0.2638 -0.0617
  146POPC   NC3 2114   5.471   5.575   4.452  0.2651 -0.1022 -0.1924
  146POPC   PO4 2115   5.879   5.691   4.208  0.0277  0.1343 -0.2923
  146POPC   GL1 2116   5.813   5.758   4.747 -0.2262  0.0322  0.1018
  146POPC   GL2 2117   5.596   5.969   4.866 -0.0071  0.0869 -0.2603
  146POPC   C1A 2118   6.074   5.705   5.128 -0.0757  0.0655  0.2649
  146POPC   D2A 2119   6.425   5.788   5.422  0.3068 -0.2189  0.0928
  146POPC   C3A 2120   6.802   5.575   5.259 -0.0921 -0.1569 -0.0767
  146POPC   C4A 2121   7.240   5.575   5.242 -0.0101 -0.0854 -0.1517
  146POPC   C1B 2122   5.624   5.973   5.321 -0.2385  0.2423 -0.0620
  146POPC   C2B 2123   5.929   5.936   5.690 -0.0884 -0.1103  0.1686
  146POPC   C3B 2124   6.303   6.020   5.903  0.0605 -0.0525  0.0440
  146POPC   C4B 2125   6.645   5.999   6.001  0.1018  0.2912  0.0226
  147POPC   NC3 2126   1.585   4.653   3.850  0.2030 -0.0297 -0.0091
  147POPC   PO4 2127   1.110   4.483   4.068 -0.1978  0.0870  0.2462
  147POPC   GL1 2128   1.286   4.698   4.491  0.2080 -0.1331 -0.1165
  147POPC   GL2 2129   1.637   4.757   4.543  0.0634  0.0820  0.1022
  147POPC   C1A 2130   1.051   5.022   4.807  0.1827  0.0553  0.0020
  147POPC   D2A 2131   0.985   5.180   5.143  0.3275  0.0204 -0.0786
  147POPC   C3A 2132   0.976   5.287   5.612 -0.0189 -0.1547 -0.0301
  147POPC   C4A 2133   0.756   5.568   5.871 -0.0350 -0.2358  0.0802
  147POPC   C1B 2134   1.495   4.606   4.920  0.0742  0.1766  0.0866
  147POPC   C2B 2135   1.555   4.347   5.297  0.1924  0.1017 -0.1500
  147POPC   C3B 2136   1.915   4.278   5.488 -0.2102 -0.1672  0.0473
  147POPC   C4B 2137   2.150   4.336   5.959  0.2289  0.0014 -0.2849
  148POPC   NC3 2138   7.222   6.245   4.719  0.2205 -0.1118  0.0770
  148POPC   PO4 2139   6.761   6.253   4.922 -0.1523  0.1543  0.0901
  148POPC   GL1 2140   6.493   6.545   4.864  0.0202  0.1236  0.0291
  148POPC   GL2 2141   6.541   6.874   4.934  0.4881  0.0291 -0.0756
  148POPC   C1A 2142   6.048   6.735   4.940  0.1074  0.5116  0.1333
  148POPC   D2A 2143   5.882   6.618   5.351  0.2052 -0.2353 -0.3896
  148POPC   C3A 2144   5.843   6.382   5.774 -0.2176 -0.1428 -0.2395
  148POPC   C4A 2145   5.985   6.365   6.123  0.1685 -0.0512 -0.3803
  148POPC   C1B 2146   6.131   7.186   5.083  0.0069  0.0027 -0.0308
  148POPC   C2B 2147   5.952   7.097   5.410 -0.1099  0.0461 -0.1500
  148POPC   C3B 2148   5.624   6.918   5.740  0.4385  0.3659 -0.1741
  148POPC   C4B 2149   5.529   6.707   6.046 -0.1880  0.2582 -0.1471
  149POPC   NC3 2150   1.933   7.568   4.753 -0.2163 -0.2779 -0.3413
  149POPC   PO4 2151   1.815   7.272   4.989  0.2090 -0.2949 -0.0243
  149POPC   GL1 2152   1.883   6.903   5.192  0.1723  0.0275 -0.1128
  149POPC   GL2 2153   1.924   6.602   5.064  0.1900  0.1349 -0.0989
  149POPC   C1A 2154   1.514   6.695   5.347  0.0787  0.1818  0.2365
  149POPC   D2A 2155   1.237   6.823   5.605 -0.0214  0.2978 -0.1225
  149POPC   C3A 2156   1.119   6.448   5.942 -0.1640 -0.0708  0.0032
  149POPC   C4A 2157   1.139   6.301   6.247  0.0264 -0.0559  0.0224
  149POPC   C1B 2158   1.938   6.384   5.436  0.0489 -0.3045  0.1187
  149POPC   C2B 2159   2.344   6.368   5.655  0.0022 -0.3801 -0.0313
  149POPC   C3B 2160   2.296   6.138   6.022 -0.1080 -0.0665  0.4192
  149POPC   C4B 2161   2.460   5.826   6.402  0.3505  0.0147  0.1944
  150POPC   NC3 2162   5.097   7.492   4.561 -0.0780 -0.0167  0.1119
  150POPC   PO4 2163   5.089   7.880   4.483  0.2272  0.0276 -0.1891
  150POPC   GL1 2164   5.303   8.025   4.781 -0.0561 -0.0016 -0.1795
  150POPC   GL2 2165   5.555   8.226   4.791 -0.2255  0.4272 -0.0085
  150POPC   C1A 2166   5.185   8.028   5.274  0.3248 -0.4165  0.0689
  150POPC   D2A 2167   5.338   7.880   5.619  0.0517 -0.2724 -0.0288
  150POPC   C3A 2168   5.299   7.413   5.876 -0.0549 -0.5912  0.0131
  150POPC   C4A 2169   5.506   7.238   6.183  0.2136  0.0020  0.1474
  150POPC   C1B 2170   5.582   8.427   5.182 -0.2835 -0.2936 -0.2093
  150POPC   C2B 2171   5.512   8.401   5.593 -0.1439 -0.0819 -0.1481
  150POPC   C3B 2172   5.075   8.267   5.747 -0.1012  0.3245 -0.1272
  150POPC   C4B 2173   4.982   8.193   6.161  0.1211 -0.0514 -0.2560
  151POPC   NC3 2174   7.752   0.450   4.429 -0.1426 -0.2393  0.1883
  151POPC   PO4 2175   8.053   0.807   4.466 -0.0492  0.0277 -0.1003
  151POPC   GL1 2176   8.057   0.634   4.839 -0.0078  0.0460 -0.1227
  151POPC   GL2 2177   7.857   0.398   4.940  0.2432  0.0176 -0.0391
  151POPC   C1A 2178   8.175   0.603   5.305  0.3021  0.1358  0.0160
  151POPC   D2A 2179   8.251   0.862   5.603  0.1906  0.1134  0.2909
  151POPC   C3A 2180   7.799   0.906   5.663 -0.3017 -0.0751 -0.1288
  151POPC   C4A 2181   7.364   0.774   5.559  0.0630  0.2187  0.1283
  151POPC   C1B 2182   7.669   0.410   5.256 -0.0828  0.0662  0.1304
  151POPC   C2B 2183   7.749   0.393   5.717 -0.4100 -0.0338  0.2392
  151POPC   C3B 2184   7.837   0.173   6.092  0.1802  0.1017  0.0031
  151POPC   C4B 2185   8.076  -0.223   6.292 -0.3116  0.0212 -0.2576
  152POPC   NC3 2186   0.818   3.325   3.824 -0.2596  0.0877  0.0992
  152POPC   PO4 2187   0.937   3.016   4.044  0.1344  0.3200  0.1742
  152POPC   GL1 2188   1.123   2.793   4.271 -0.0967 -0.3365  0.0075
  152POPC   GL2 2189   0.866   2.759   4.487 -0.0797 -0.2117  0.0157
  152POPC   C1A 2190   1.422   2.944   4.576 -0.0729 -0.0379  0.1295
  152POPC   D2A 2191   1.664   2.817   4.893  0.1986 -0.1370  0.1805
  152POPC   C3A 2192   1.547   2.470   5.169  0.1100  0.0451 -0.2009
  152POPC   C4A 2193   1.834   2.251   5.302  0.1012 -0.5767  0.3786
  152POPC   C1B 2194   1.138   2.765   4.913 -0.1103 -0.2887  0.0519
  152POPC   C2B 2195   1.015   2.407   5.279 -0.0331 -0.1893 -0.2414
  152POPC   C3B 2196   1.041   2.256   5.617  0.0604 -0.1113 -0.0341
  152POPC   C4B 2197   0.822   2.268   5.972 -0.0852  0.1342 -0.1249
  153POPC   NC3 2198   5.370   5.090   4.292  0.1889 -0.1462 -0.2392
  153POPC   PO4 2199   5.045   5.271   4.504  0.1093 -0.1777  0.1521
  153POPC   GL1 2200   4.773   5.295   4.790  0.0806  0.0028  0.2433
  153POPC   GL2 2201   4.538   5.543   4.972 -0.1201  0.1386 -0.1725
  153POPC   C1A 2202   4.601   5.054   5.122 -0.2785 -0.0962 -0.1686
  153POPC   D2A 2203   4.572   4.786   5.460  0.0931 -0.4623  0.3567
  153POPC   C3A 2204   4.593   4.397   5.617  0.0352  0.0139 -0.2649
  153POPC   C4A 2205   4.491   4.070   5.896 -0.1159 -0.1719 -0.0251
  153POPC   C1B 2206   4.729   5.663   5.207 -0.0821  0.2575 -0.0712
  153POPC   C2B 2207   4.996   5.495   5.401  0.2049 -0.3128  0.2843
  153POPC   C3B 2208   5.357   5.317   5.615  0.0067  0.2619 -0.0827
  153POPC   C4B 2209   5.476   4.964   5.857 -0.2611  0.1110 -0.1611
  154POPC   NC3 2210   7.729   8.511   3.768  0.0662 -0.0514 -0.0322
  154POPC   PO4 2211   7.575   8.578   4.193  0.0164  0.0257  0.0411
  154POPC   GL1 2212   7.345   8.603   4.444 -0.0809  0.0284  0.2027
  154POPC   GL2 2213   7.321   8.187   4.607 -0.3325  0.1300  0.1035
  154POPC   C1A 2214   7.261   8.655   4.903 -0.0921  0.1554 -0.2013
  154POPC   D2A 2215   7.509   8.407   5.159 -0.1621  0.2414  0.2679
  154POPC   C3A 2216   7.620   8.413   5.542  0.1072  0.1523 -0.2444
  154POPC   C4A 2217   7.408   8.595   5.919 -0.1095  0.1625  0.2743
  154POPC   C1B 2218   7.131   8.117   5.132 -0.2122 -0.0302  0.1817
  154POPC   C2B 2219   7.187   8.123   5.546 -0.0208 -0.0631 -0.2035
  154POPC   C3B 2220   6.965   8.355   5.835  0.2174 -0.0426 -0.2094
  154POPC   C4B 2221   6.666   8.579   5.816  0.0839  0.1152 -0.1504
  155POPC   NC3 2222   7.477   3.325   4.021  0.0542  0.1468  0.0909
  155POPC   PO4 2223   7.175   3.094   4.170 -0.0285 -0.2695  0.2947
  155POPC   GL1 2224   6.984   2.952   4.612 -0.3035  0.1422 -0.1674
  155POPC   GL2 2225   6.704   2.725   4.628  0.0654 -0.2192 -0.1765
  155POPC   C1A 2226   6.922   2.981   5.180  0.0586 -0.1128  0.3652
  155POPC   D2A 2227   6.866   3.352   5.432 -0.1923  0.1442  0.1204
  155POPC   C3A 2228   6.962   3.444   5.938  0.1672 -0.0304 -0.1447
  155POPC   C4A 2229   7.135   3.627   6.367  0.3031 -0.3246 -0.3134
  155POPC   C1B 2230   6.605   2.568   5.082 -0.2040 -0.1904  0.3160
  155POPC   C2B 2231   6.761   2.493   5.528  0.0927 -0.2042  0.0161
  155POPC   C3B 2232   6.838   2.507   5.927  0.0510  0.2418 -0.2855
  155POPC   C4B 2233   6.954   2.519   6.254  0.0703  0.1475 -0.0601
  156POPC   NC3 2234   4.461   0.133   3.473  0.0346 -0.1904  0.0441
  156POPC   PO4 2235   4.690  -0.263   3.534 -0.2996 -0.0928  0.2005
  156POPC   GL1 2236   4.321  -0.188   3.963 -0.3375 -0.2245 -0.2098
  156POPC   GL2 2237   4.134   0.011   3.813 -0.0493 -0.1125 -0.2123
  156POPC   C1A 2238   4.380  -0.102   4.424 -0.1547 -0.0597 -0.3940
  156POPC   D2A 2239   4.441   0.156   4.731 -0.1123  0.2286  0.1700
  156POPC   C3A 2240   4.210   0.066   5.105  0.0549 -0.3059  0.1751
  156POPC   C4A 2241   4.052   0.349   5.472  0.3681 -0.0762  0.1230
  156POPC   C1B 2242   4.090   0.564   3.952  0.0361 -0.0091  0.1366
  156POPC   C2B 2243   4.030   1.092   3.922  0.0023 -0.2483 -0.2212
  156POPC   C3B 2244   3.989   1.453   3.794  0.1852 -0.0929 -0.2706
  156POPC   C4B 2245   3.958   1.867   3.885 -0.2207  0.0262  0.0380
  157POPC   NC3 2246   6.877   6.147   4.409  0.0213 -0.3436  0.0522
  157POPC   PO4 2247   6.830   6.542   4.494  0.0939  0.2899  0.4604
  157POPC   GL1 2248   7.041   6.812   4.823  0.3188 -0.1187 -0.0202
  157POPC   GL2 2249   7.063   6.630   5.100  0.1306  0.0379 -0.2079
  157POPC   C1A 2250   7.081   7.208   4.949  0.3178 -0.0451 -0.0446
  157POPC   D2A 2251   7.069   7.405   5.358 -0.2469 -0.3717 -0.3954
  157POPC   C3A 2252   7.048   7.716   5.725  0.2940 -0.0039  0.1420
  157POPC   C4A 2253   6.719   7.918   5.976 -0.2951 -0.0953 -0.0246
  157POPC   C1B 2254   6.953   6.545   5.482 -0.0279  0.0722 -0.3071
  157POPC   C2B 2255   7.036   6.351   5.857 -0.0318 -0.5875 -0.2040
  157POPC   C3B 2256   7.029   6.386   6.266  0.2716  0.5497 -0.2940
  157POPC   C4B 2257   7.411   6.218   6.533  0.2663 -0.3745  0.3705
  158POPC   NC3 2258   7.249   4.999   3.752  0.1256 -0.3370 -0.3977
  158POPC   PO4 2259   7.113   4.692   4.114 -0.0735  0.0315  0.2083
  158POPC   GL1 2260   6.995   4.535   4.440  0.3052  0.1025  0.1200
  158POPC   GL2 2261   7.173   4.386   4.637  0.0720 -0.4342  0.0590
  158POPC   C1A 2262   6.786   4.588   4.862  0.2642 -0.0782  0.0165
  158POPC   D2A 2263   6.758   4.460   5.219  0.2051 -0.0121 -0.1360
  158POPC   C3A 2264   6.850   4.521   5.732 -0.4977 -0.0549  0.0450
  158POPC   C4A 2265   6.843   4.906   5.989  0.3754 -0.0700  0.0535
  158POPC   C1B 2266   7.189   4.337   5.028 -0.1751 -0.5601 -0.1112
  158POPC   C2B 2267   7.091   4.189   5.463  0.0276 -0.0247 -0.1632
  158POPC   C3B 2268   7.235   4.155   5.823 -0.2581 -0.0665  0.0235
  158POPC   C4B 2269   7.478   3.951   6.136 -0.0699  0.0661  0.0410
  159POPC   NC3 2270   4.299   7.396   4.309 -0.1882  0.1364  0.2737
  159POPC   PO4 2271   3.938   7.284   4.524 -0.1146 -0.0486  0.1168
  159POPC   GL1 2272   4.232   7.240   4.823  0.2169  0.0303  0.0777
  159POPC   GL2 2273   4.058   7.177   5.139 -0.0749  0.2159 -0.0520
  159POPC   C1A 2274   4.317   7.615   5.163 -0.2299  0.0670  0.5015
  159POPC   D2A 2275   4.476   7.992   5.189  0.0493  0.1994  0.0991
  159POPC   C3A 2276   4.735   8.017   5.484 -0.1755 -0.1129  0.4290
  159POPC   C4A 2277   4.901   7.767   5.816 -0.1113  0.3233 -0.1988
  159POPC   C1B 2278   3.984   6.842   5.503  0.0966 -0.2690  0.0184
  159POPC   C2B 2279   3.813   6.702   5.968 -0.2083 -0.0033 -0.3632
  159POPC   C3B 2280   3.931   6.346   6.192 -0.3659  0.0441 -0.0284
  159POPC   C4B 2281   4.230   6.201   6.500 -0.1196  0.4035  0.4061
  160POPC   NC3 2282   5.866   9.426   4.477  0.0980 -0.0891 -0.2962
  160POPC   PO4 2283   5.760   9.889   4.557  0.1734  0.1954 -0.1483
  160POPC   GL1 2284   5.608   9.932   4.987  0.1308 -0.0926  0.1863
  160POPC   GL2 2285   5.771  10.083   5.132 -0.1375 -0.0199  0.4674
  160POPC   C1A 2286   5.673   9.642   5.384  0.1829 -0.1761  0.2153
  160POPC   D2A 2287   5.700   9.433   5.777  0.3136 -0.1496  0.3487
  160POPC   C3A 2288   5.696   9.589   6.246  0.3448 -0.0398  0.0074
  160POPC   C4A 2289   5.833   9.589   6.767  0.1974  0.0752  0.1356
  160POPC   C1B 2290   5.282  10.151   5.210  0.1869  0.3443  0.1781
  160POPC   C2B 2291   4.941  10.226   5.492 -0.3356 -0.2365  0.2949
  160POPC   C3B 2292   4.815   9.983   5.869 -0.2483  0.0117 -0.0098
  160POPC   C4B 2293   4.664   9.645   6.156  0.0951  0.1465  0.0832
  161POPC   NC3 2294   7.162   2.089   4.037 -0.1929  0.0793  0.1347
  161POPC   PO4 2295   7.138   1.856   4.375 -0.2642 -0.2502  0.0471
  161POPC   GL1 2296   6.941   1.961   4.703 -0.0996  0.2620  0.1284
  161POPC   GL2 2297   6.695   1.735   4.718  0.0648 -0.2142 -0.4509
  161POPC   C1A 2298   6.474   2.200   4.776  0.0567 -0.0754  0.2267
  161POPC   D2A 2299   6.269   2.152   5.251 -0.1902 -0.0798  0.2717
  161POPC   C3A 2300   6.371   2.117   5.674  0.2427  0.2687 -0.3290
  161POPC   C4A 2301   6.582   2.034   6.008 -0.0377  0.0776 -0.1375
  161POPC   C1B 2302   6.538   1.783   5.074  0.2031 -0.0951 -0.1466
  161POPC   C2B 2303   6.319   1.649   5.387 -0.1846 -0.0799  0.1171
  161POPC   C3B 2304   6.282   1.684   5.848  0.2953  0.1345 -0.0110
  161POPC   C4B 2305   5.946   1.381   6.078  0.1594 -0.0871 -0.0908
  162POPC   NC3 2306   8.729   7.733   4.556 -0.2540 -0.4818  0.2457
  162POPC   PO4 2307   8.353   7.509   4.577  0.0959  0.2476  0.2211
  162POPC   GL1 2308   8.445   7.363   5.013  0.0302  0.1515 -0.1292
  162POPC   GL2 2309   8.726   7.240   5.008 -0.2999  0.1243 -0.0932
  162POPC   C1A 2310   8.341   7.168   5.435 -0.0050  0.1461  0.1501
  162POPC   D2A 2311   8.263   6.816   5.767 -0.1495 -0.4953 -0.2457
  162POPC   C3A 2312   7.905   6.744   5.971 -0.0726  0.0094  0.1745
  162POPC   C4A 2313   7.414   6.909   5.824 -0.3706  0.3264  0.1991
  162POPC   C1B 2314   8.934   7.225   5.407  0.0912  0.0039  0.2068
  162POPC   C2B 2315   8.752   7.346   5.762  0.3794 -0.0767 -0.0329
  162POPC   C3B 2316   8.460   7.250   6.077  0.0902  0.0744 -0.0362
  162POPC   C4B 2317   8.195   7.491   6.333  0.0477 -0.1800 -0.1585
  163POPC   NC3 2318   6.604   4.264   4.061  0.0275 -0.2491 -0.2662
  163POPC   PO4 2319   6.216   4.439   4.060  0.2623 -0.3629  0.1608
  163POPC   GL1 2320   6.274   4.365   4.505  0.0255 -0.4553 -0.1471
  163POPC   GL2 2321   6.103   4.154   4.607  0.1176 -0.3061  0.3343
  163POPC   C1A 2322   6.367   4.220   4.994  0.0116  0.0623  0.1113
  163POPC   D2A 2323   6.288   4.336   5.452 -0.1392 -0.0781 -0.0194
  163POPC   C3A 2324   6.144   3.973   5.732 -0.0171  0.2651  0.0387
  163POPC   C4A 2325   6.000   3.666   6.058 -0.1124 -0.1222  0.0166
  163POPC   C1B 2326   5.905   4.017   4.972 -0.0472  0.1373 -0.0589
  163POPC   C2B 2327   5.929   3.873   5.338  0.1118 -0.3594  0.0835
  163POPC   C3B 2328   5.774   3.490   5.553 -0.3792  0.0431 -0.0346
  163POPC   C4B 2329   5.920   3.066   5.766  0.1346  0.5715  0.0474
  164POPC   NC3 2330   6.275   5.945   4.440  0.1781 -0.0066  0.4243
  164POPC   PO4 2331   6.210   5.462   4.567 -0.2100 -0.0920 -0.0414
  164POPC   GL1 2332   5.981   5.273   4.892 -0.1234  0.0173 -0.0022
  164POPC   GL2 2333   5.676   5.159   4.770  0.1650  0.0591  0.0272
  164POPC   C1A 2334   6.194   5.094   5.397  0.2394 -0.2086  0.1870
  164POPC   D2A 2335   5.943   4.993   5.697  0.0123 -0.3056  0.1030
  164POPC   C3A 2336   5.986   5.011   6.114 -0.0090 -0.3035  0.2862
  164POPC   C4A 2337   5.766   5.019   6.542  0.1330  0.0443  0.2044
  164POPC   C1B 2338   5.629   5.065   5.146 -0.2658  0.2441 -0.4135
  164POPC   C2B 2339   5.436   4.719   5.413 -0.0267 -0.0906  0.1561
  164POPC   C3B 2340   5.310   4.446   5.780  0.1048 -0.2079 -0.3531
  164POPC   C4B 2341   5.535   4.523   6.217 -0.1656 -0.0524  0.0237
  165POPC   NC3 2342   3.726   7.585   4.937  0.0619  0.2769  0.1760
  165POPC   PO4 2343   3.462   7.948   4.782  0.2179  0.0555  0.0235
  165POPC   GL1 2344   3.489   8.126   5.193 -0.1422  0.0412  0.0298
  165POPC   GL2 2345   3.841   8.030   5.221  0.2632 -0.1053  0.1101
  165POPC   C1A 2346   3.621   8.105   5.658  0.2852  0.0465  0.0778
  165POPC   D2A 2347   3.908   8.036   6.043 -0.1264  0.2926 -0.1731
  165POPC   C3A 2348   3.672   8.020   6.346 -0.2534 -0.0361  0.2026
  165POPC   C4A 2349   3.537   8.335   6.632  0.0001  0.1873  0.2632
  165POPC   C1B 2350   4.163   7.998   5.603 -0.0995  0.1533 -0.1176
  165POPC   C2B 2351   4.413   7.737   5.773 -0.2356  0.1901 -0.0380
  165POPC   C3B 2352   4.519   7.364   6.002 -0.0735 -0.0301  0.0642
  165POPC   C4B 2353   4.516   7.046   6.283  0.0035 -0.1543 -0.0637
  166POPC   NC3 2354   3.797   8.850   3.780  0.2787  0.0969 -0.3729
  166POPC   PO4 2355   3.985   9.151   4.125 -0.3387  0.1153  0.1852
  166POPC   GL1 2356   3.882   9.275   4.523 -0.0203  0.1445  0.0530
  166POPC   GL2 2357   3.778   9.043   4.801 -0.0604  0.1608  0.0607
  166POPC   C1A 2358   3.798   9.613   4.750 -0.3147 -0.2295 -0.0463
  166POPC   D2A 2359   3.733   9.815   5.184 -0.0686 -0.0597  0.0157
  166POPC   C3A 2360   3.567  10.223   5.420 -0.0856  0.3059  0.1583
  166POPC   C4A 2361   3.616  10.633   5.516  0.0805 -0.2041 -0.1077
  166POPC   C1B 2362   3.990   9.244   5.055  0.1708  0.0291 -0.0241
  166POPC   C2B 2363   4.099   9.432   5.510  0.1459  0.1252 -0.2960
  166POPC   C3B 2364   4.226   9.627   5.852  0.2046  0.0989 -0.1461
  166POPC   C4B 2365   4.284  10.004   5.959 -0.1925 -0.1351 -0.2665
  167POPC   NC3 2366   8.009   3.832   4.509 -0.1875  0.1002  0.3784
  167POPC   PO4 2367   7.967   3.441   4.334  0.0663 -0.0978  0.3393
  167POPC   GL1 2368   7.775   3.429   4.732 -0.0978  0.0961  0.1466
  167POPC   GL2 2369   7.793   3.683   4.939  0.0654 -0.2855 -0.2563
  167POPC   C1A 2370   7.903   3.183   5.087  0.2393 -0.0149  0.4543
  167POPC   D2A 2371   7.693   2.838   5.356 -0.2273 -0.2048  0.0487
  167POPC   C3A 2372   7.699   2.862   5.809  0.0816  0.2495  0.2460
  167POPC   C4A 2373   8.086   2.874   5.965 -0.0624 -0.0034 -0.1603
  167POPC   C1B 2374   7.690   3.517   5.289 -0.3852 -0.1259  0.0992
  167POPC   C2B 2375   7.866   3.281   5.575 -0.2065 -0.0542  0.2730
  167POPC   C3B 2376   8.171   2.989   5.502 -0.2066 -0.1471 -0.2739
  167POPC   C4B 2377   8.691   3.138   5.452  0.2750 -0.1650 -0.2375
  168POPC   NC3 2378   1.066   6.935   4.520 -0.4445 -0.0270 -0.0811
  168POPC   PO4 2379   1.363   6.822   4.286  0.1318  0.3562 -0.2082
  168POPC   GL1 2380   1.304   6.506   4.552 -0.3984  0.0505 -0.2541
  168POPC   GL2 2381   1.026   6.320   4.579 -0.3766  0.2618  0.2055
  168POPC   C1A 2382   1.458   6.378   4.972  0.0511  0.3663 -0.1359
  168POPC   D2A 2383   1.255   6.225   5.304 -0.0085  0.3259 -0.0089
  168POPC   C3A 2384   0.778   6.334   5.458 -0.3265  0.2514  0.1052
  168POPC   C4A 2385   0.460   6.575   5.377  0.1314 -0.1280 -0.1246
  168POPC   C1B 2386   0.854   6.058   4.982 -0.2272  0.0707 -0.0223
  168POPC   C2B 2387   0.545   5.824   5.287  0.2033 -0.1125  0.0428
  168POPC   C3B 2388   0.277   5.984   5.510  0.5240  0.3194 -0.1947
  168POPC   C4B 2389   0.281   6.243   5.903  0.3239  0.0204 -0.0302
  169POPC   NC3 2390   1.437   8.893   4.687 -0.1139 -0.0265  0.2481
  169POPC   PO4 2391   1.987   8.993   4.740 -0.0864  0.1268  0.4105
  169POPC   GL1 2392   1.970   9.012   5.126 -0.0807  0.3720  0.0438
  169POPC   GL2 2393   1.716   9.181   5.210 -0.1485  0.2259  0.1725
  169POPC   C1A 2394   2.063   8.801   5.562  0.0084  0.2399 -0.0880
  169POPC   D2A 2395   2.420   8.807   5.926  0.0020 -0.0228  0.2026
  169POPC   C3A 2396   2.282   8.848   6.363 -0.0726 -0.1367  0.2067
  169POPC   C4A 2397   2.103   8.677   6.616 -0.0221 -0.0671  0.0570
  169POPC   C1B 2398   1.470   9.437   5.395 -0.1145  0.1985  0.0942
  169POPC   C2B 2399   1.312   9.842   5.633  0.2689 -0.1110  0.1620
  169POPC   C3B 2400   1.453  10.100   5.934  0.1129 -0.1059  0.0233
  169POPC   C4B 2401   1.380  10.435   6.332 -0.4943  0.0501  0.0277
  170POPC   NC3 2402   8.725   3.819   4.639 -0.0988  0.3073  0.1113
  170POPC   PO4 2403   8.448   3.640   4.363  0.2105  0.3058  0.2648
  170POPC   GL1 2404   8.322   3.473   4.748  0.1914 -0.2373 -0.0805
  170POPC   GL2 2405   8.270   3.586   5.122 -0.3263  0.0183 -0.2594
  170POPC   C1A 2406   8.420   3.083   5.022  0.2237  0.0257 -0.1786
  170POPC   D2A 2407   8.552   2.724   5.237  0.0516  0.1992  0.2710
  170POPC   C3A 2408   8.496   2.601   5.651  0.1380 -0.0102  0.1569
  170POPC   C4A 2409   8.586   2.615   6.116 -0.4849 -0.0557 -0.0354
  170POPC   C1B 2410   8.413   3.551   5.465 -0.0185  0.1777 -0.1250
  170POPC   C2B 2411   8.530   3.683   5.949 -0.3146 -0.0268 -0.1485
  170POPC   C3B 2412   8.250   3.845   6.288 -0.1001  0.2068  0.1536
  170POPC   C4B 2413   7.988   4.202   6.467  0.1125 -0.3075 -0.2347
  171POPC   NC3 2414   5.723   7.094   4.080  0.1236 -0.1220 -0.3763
  171POPC   PO4 2415   5.668   7.482   4.306  0.1700 -0.0784 -0.1511
  171POPC   GL1 2416   5.681   7.599   4.704  0.4087 -0.0368  0.1926
  171POPC   GL2 2417   5.863   7.847   4.812  0.4190 -0.2736  0.1532
  171POPC   C1A 2418   5.676   7.494   5.129 -0.0581  0.1846  0.1102
  171POPC   D2A 2419   5.715   7.500   5.589 -0.1698  0.0915 -0.3601
  171POPC   C3A 2420   5.971   7.226   5.877 -0.2729  0.2284 -0.1043
  171POPC   C4A 2421   6.151   6.779   5.756 -0.1509 -0.0708 -0.0351
  171POPC   C1B 2422   5.746   7.965   5.233  0.0842 -0.2163 -0.1172
  171POPC   C2B 2423   5.809   8.038   5.756  0.1101  0.0038 -0.1385
  171POPC   C3B 2424   5.585   8.178   6.038  0.0227  0.0073 -0.0397
  171POPC   C4B 2425   5.396   8.230   6.463  0.1877  0.0834  0.0185
  172POPC   NC3 2426   3.831   8.326   4.787 -0.0742 -0.0770  0.0192
  172POPC   PO4 2427   4.280   8.393   4.937 -0.2489 -0.0312 -0.1710
  172POPC   GL1 2428   4.060   8.757   5.152 -0.0564  0.2829  0.4638
  172POPC   GL2 2429   3.867   8.514   5.337 -0.1603  0.2468 -0.0531
  172POPC   C1A 2430   4.160   8.898   5.548  0.0192 -0.3946 -0.1761
  172POPC   D2A 2431   4.000   9.057   5.868  0.1247 -0.0457  0.0348
  172POPC   C3A 2432   4.411   9.119   6.072 -0.4462  0.2229  0.3478
  172POPC   C4A 2433   4.914   9.122   6.062  0.3556 -0.3721 -0.0597
  172POPC   C1B 2434   4.012   8.494   5.770 -0.2103  0.1284 -0.0467
  172POPC   C2B 2435   4.347   8.649   5.929  0.2139 -0.3908  0.1171
  172POPC   C3B 2436   4.771   8.690   6.081  0.2002  0.0595 -0.0159
  172POPC   C4B 2437   5.301   8.616   6.058 -0.0859 -0.2617 -0.0074
  173POPC   NC3 2438   7.099   6.933   4.297 -0.0817  0.0199  0.2291
  173POPC   PO4 2439   7.370   6.675   4.409 -0.0552  0.2775 -0.1050
  173POPC   GL1 2440   7.573   6.560   4.848 -0.0670 -0.0962 -0.0136
  173POPC   GL2 2441   7.652   6.842   4.870  0.0641  0.2059  0.1151
  173POPC   C1A 2442   7.531   6.538   5.300 -0.3505  0.4080  0.0127
  173POPC   D2A 2443   7.320   6.162   5.433 -0.0063 -0.2180 -0.3714
  173POPC   C3A 2444   7.359   5.742   5.696  0.1338 -0.1921 -0.2043
  173POPC   C4A 2445   7.636   5.613   6.099 -0.1185  0.0316  0.1382
  173POPC   C1B 2446   7.901   6.949   5.180  0.0988 -0.1119  0.1491
  173POPC   C2B 2447   7.865   7.020   5.550  0.1036  0.0102 -0.3006
  173POPC   C3B 2448   8.009   7.290   5.937  0.0933  0.3985 -0.1587
  173POPC   C4B 2449   7.782   7.062   6.357 -0.0281 -0.0405 -0.0343
  174POPC   NC3 2450   0.410   2.836   4.219 -0.1047  0.0937  0.0034
  174POPC   PO4 2451  -0.023   2.945   4.332 -0.0761 -0.0723 -0.0821
  174POPC   GL1 2452   0.203   2.903   4.731 -0.1594 -0.0286 -0.1120
  174POPC   GL2 2453   0.455   2.757   4.790  0.5226 -0.0142 -0.0146
  174POPC   C1A 2454   0.269   3.024   5.149  0.3275 -0.0693 -0.3631
  174POPC   D2A 2455   0.129   2.935   5.436  0.1987 -0.3408  0.0090
  174POPC   C3A 2456  -0.256   3.019   5.553  0.0818  0.0258 -0.3773
  174POPC   C4A 2457  -0.311   3.043   6.019 -0.0532  0.0629 -0.1124
  174POPC   C1B 2458   0.614   2.645   5.129 -0.1140 -0.2574  0.1198
  174POPC   C2B 2459   0.543   2.574   5.512  0.0592  0.1669  0.1536
  174POPC   C3B 2460   0.599   2.693   6.025  0.1592  0.0896  0.1407
  174POPC   C4B 2461   0.806   2.482   6.392 -0.1368 -0.1631 -0.2462
  175POPC   NC3 2462   2.021   8.496   4.664  0.0046  0.1450  0.0768
  175POPC   PO4 2463   1.857   8.085   4.891 -0.0694 -0.2496  0.0403
  175POPC   GL1 2464   1.830   8.211   5.330 -0.3357  0.2242  0.2032
  175POPC   GL2 2465   1.872   8.033   5.524  0.3092 -0.2323  0.3054
  175POPC   C1A 2466   1.653   8.516   5.549 -0.0253 -0.1361 -0.1389
  175POPC   D2A 2467   1.590   8.979   5.617  0.1178 -0.1303 -0.4306
  175POPC   C3A 2468   1.509   9.237   5.975 -0.2670 -0.4577  0.0755
  175POPC   C4A 2469   1.564   9.082   6.373  0.0778  0.0482 -0.1155
  175POPC   C1B 2470   2.077   8.337   5.863  0.0445 -0.1373 -0.0175
  175POPC   C2B 2471   1.979   8.340   6.283 -0.3631 -0.2554 -0.2814
  175POPC   C3B 2472   1.657   8.402   6.528  0.0191 -0.2842  0.0537
  175POPC   C4B 2473   1.371   8.069   6.610  0.3595  0.2841 -0.1540
  176POPC   NC3 2474   2.136   3.436   3.534  0.1723  0.1336  0.1370
  176POPC   PO4 2475   2.486   3.698   3.609 -0.3973  0.0883 -0.0735
  176POPC   GL1 2476   2.894   3.629   3.726 -0.2182  0.0039  0.3872
  176POPC   GL2 2477   3.146   3.874   3.780  0.2033  0.1053 -0.0539
  176POPC   C1A 2478   3.219   3.306   3.933  0.0615 -0.1980 -0.1209
  176POPC   D2A 2479   3.165   2.979   4.250 -0.2131  0.2857 -0.1600
  176POPC   C3A 2480   3.266   2.971   4.540  0.4189  0.2837 -0.0265
  176POPC   C4A 2481   3.486   2.888   4.980  0.2164 -0.2616 -0.0333
  176POPC   C1B 2482   3.471   3.861   4.101  0.2668 -0.1693  0.1907
  176POPC   C2B 2483   3.482   3.862   4.653  0.2148  0.1938  0.0939
  176POPC   C3B 2484   3.524   3.884   5.116 -0.0581 -0.0835 -0.1038
  176POPC   C4B 2485   3.851   3.968   5.375  0.0628  0.1615  0.0395
  177POPC   NC3 2486   7.885   6.675   4.381  0.4115 -0.0843  0.0027
  177POPC   PO4 2487   7.700   7.052   4.334  0.0167 -0.1098 -0.0210
  177POPC   GL1 2488   7.534   7.332   4.642  0.1960 -0.4724 -0.0058
  177POPC   GL2 2489   7.845   7.491   4.766  0.4671 -0.0604  0.1628
  177POPC   C1A 2490   7.538   7.281   5.082 -0.0940  0.1877  0.1568
  177POPC   D2A 2491   7.335   6.981   5.344  0.2745  0.1510 -0.1591
  177POPC   C3A 2492   6.872   6.989   5.612  0.0980  0.2074 -0.0872
  177POPC   C4A 2493   6.451   6.729   5.407 -0.2120  0.1857 -0.3266
  177POPC   C1B 2494   7.602   7.816   5.039 -0.1354  0.2541  0.0829
  177POPC   C2B 2495   7.670   7.936   5.478  0.0637 -0.3117  0.1592
  177POPC   C3B 2496   7.433   7.904   5.948  0.1278  0.2405 -0.2244
  177POPC   C4B 2497   7.162   8.039   6.189  0.1169 -0.4308  0.2832
  178POPC   NC3 2498   2.488   4.435   4.005  0.2550 -0.0232  0.3722
  178POPC   PO4 2499   2.787   4.845   4.034  0.2042  0.2155 -0.0293
  178POPC   GL1 2500   2.894   4.582   4.371 -0.1041 -0.0581  0.0119
  178POPC   GL2 2501   3.126   4.483   4.547  0.2696 -0.0622 -0.2605
  178POPC   C1A 2502   2.591   4.242   4.594 -0.1548 -0.0651  0.1139
  178POPC   D2A 2503   2.342   3.994   4.935 -0.0941  0.1049 -0.0374
  178POPC   C3A 2504   2.396   4.046   5.376 -0.1199 -0.0108  0.0528
  178POPC   C4A 2505   2.536   4.307   5.638  0.0729 -0.0071  0.1559
  178POPC   C1B 2506   3.549   4.326   4.821 -0.4038 -0.2019  0.1327
  178POPC   C2B 2507   3.972   4.201   4.879  0.0942  0.2220 -0.0029
  178POPC   C3B 2508   4.355   4.064   4.758 -0.0277 -0.1991 -0.2345
  178POPC   C4B 2509   4.467   3.759   4.966  0.0172 -0.2831 -0.0942
  179POPC   NC3 2510   3.892   3.066   2.954  0.3262 -0.1694  0.0736
  179POPC   PO4 2511   3.505   3.193   3.158 -0.1770 -0.0791 -0.1863
  179POPC   GL1 2512   3.441   2.912   3.242 -0.0884  0.2093 -0.1299
  179POPC   GL2 2513   3.664   2.805   3.507 -0.2995  0.3807  0.0291
  179POPC   C1A 2514   3.368   2.437   3.333  0.0293 -0.2908  0.1402
  179POPC   D2A 2515   3.186   2.056   3.232  0.4441  0.1322  0.2325
  179POPC   C3A 2516   3.027   1.777   3.477  0.3834  0.0778 -0.1296
  179POPC   C4A 2517   3.106   1.380   3.559  0.1429  0.0311  0.3648
  179POPC   C1B 2518   3.703   3.216   3.736 -0.1117  0.0825  0.0193
  179POPC   C2B 2519   3.725   3.415   4.045  0.0906 -0.0604 -0.0012
  179POPC   C3B 2520   3.860   3.471   4.499  0.0057  0.0166 -0.1276
  179POPC   C4B 2521   3.952   3.676   4.878  0.0702 -0.1121  0.1277
  180POPC   NC3 2522   5.629   8.520   4.406  0.3556  0.1567 -0.0063
  180POPC   PO4 2523   5.938   8.948   4.372  0.2385  0.3142  0.0589
  180POPC   GL1 2524   6.105   8.576   4.524  0.1819 -0.1473  0.2746
  180POPC   GL2 2525   6.008   8.281   4.558  0.2954  0.0513 -0.0823
  180POPC   C1A 2526   6.347   8.607   4.887  0.2952  0.0670  0.1665
  180POPC   D2A 2527   6.488   8.527   5.326  0.1923 -0.2163  0.3236
  180POPC   C3A 2528   6.647   8.198   5.507  0.0663  0.2143  0.0707
  180POPC   C4A 2529   6.654   7.779   5.391 -0.4759  0.2056  0.0653
  180POPC   C1B 2530   6.058   8.258   4.963  0.0162  0.2020 -0.0636
  180POPC   C2B 2531   6.184   8.138   5.431 -0.0745  0.2232 -0.0511
  180POPC   C3B 2532   6.277   8.164   5.918 -0.0083 -0.1148  0.1146
  180POPC   C4B 2533   6.381   8.046   6.374 -0.1724  0.0222  0.1160
  181POPC   NC3 2534   0.658   1.925   3.558  0.3395 -0.3148 -0.1002
  181POPC   PO4 2535   0.595   2.086   3.981  0.0907  0.1772  0.0573
  181POPC   GL1 2536   0.596   1.917   4.415  0.1168 -0.0297  0.2004
  181POPC   GL2 2537   0.471   2.203   4.550  0.0549  0.2039 -0.0204
  181POPC   C1A 2538   0.579   1.745   4.809  0.2794  0.0561 -0.0882
  181POPC   D2A 2539   0.867   1.472   5.153 -0.0502 -0.4145  0.1038
  181POPC   C3A 2540   0.980   1.643   5.604  0.4812  0.0315  0.0743
  181POPC   C4A 2541   1.065   1.641   6.078 -0.0580  0.1662  0.0886
  181POPC   C1B 2542   0.314   2.273   5.009 -0.2345 -0.1632  0.0902
  181POPC   C2B 2543   0.202   2.219   5.391  0.1483  0.0050  0.0886
  181POPC   C3B 2544   0.259   2.282   5.880 -0.1030 -0.1610  0.2437
  181POPC   C4B 2545   0.300   2.164   6.372  0.0871  0.1530  0.2499
  182POPC   NC3 2546   1.629   9.276   4.437  0.3524  0.4750  0.0090
  182POPC   PO4 2547   1.410   9.465   4.625 -0.3139 -0.0809 -0.2981
  182POPC   GL1 2548   1.288   9.694   4.948 -0.0552 -0.0863 -0.0076
  182POPC   GL2 2549   1.325   9.991   4.776 -0.1169  0.3224 -0.1878
  182POPC   C1A 2550   1.023   9.681   5.284  0.0361  0.1536  0.1708
  182POPC   D2A 2551   0.755   9.546   5.678 -0.0338  0.0043  0.1603
  182POPC   C3A 2552   0.578   9.139   5.719  0.1289 -0.1705 -0.1991
  182POPC   C4A 2553   0.387   8.953   6.062  0.1787 -0.1211  0.4031
  182POPC   C1B 2554   1.370  10.190   5.101  0.1777 -0.0145  0.1188
  182POPC   C2B 2555   1.310  10.401   5.474  0.3465 -0.0010 -0.0985
  182POPC   C3B 2556   1.586  10.537   5.820 -0.4661 -0.1845  0.0604
  182POPC   C4B 2557   1.874  10.759   6.049  0.0470  0.0134  0.2777
  183POPC   NC3 2558   0.131   3.555   4.358 -0.1158  0.1747 -0.0073
  183POPC   PO4 2559   0.476   3.330   4.261  0.3645 -0.0551 -0.1332
  183POPC   GL1 2560   0.665   3.226   4.636  0.1050  0.1485  0.3048
  183POPC   GL2 2561   1.002   3.288   4.668 -0.4805  0.0755 -0.4118
  183POPC   C1A 2562   0.837   3.095   5.137  0.0463  0.1473 -0.1956
  183POPC   D2A 2563   1.153   3.018   5.525 -0.1177 -0.2966  0.4414
  183POPC   C3A 2564   1.510   2.842   5.516 -0.0810  0.0152 -0.0202
  183POPC   C4A 2565   1.524   2.450   5.661  0.1258 -0.0727 -0.0622
  183POPC   C1B 2566   1.325   3.185   5.044 -0.3728  0.0526 -0.0070
  183POPC   C2B 2567   1.524   3.350   5.399 -0.0070 -0.0907 -0.0853
  183POPC   C3B 2568   1.429   3.399   5.727  0.1955  0.1665  0.2536
  183POPC   C4B 2569   1.352   3.042   6.000 -0.1418 -0.1063  0.1709
  184POPC   NC3 2570   2.819   6.501   5.047 -0.1977 -0.2099 -0.0532
  184POPC   PO4 2571   3.118   6.214   4.836  0.1778  0.2152 -0.0169
  184POPC   GL1 2572   2.868   6.019   5.152  0.0097 -0.1404  0.0745
  184POPC   GL2 2573   2.577   5.916   5.106  0.3714  0.2507  0.0402
  184POPC   C1A 2574   2.591   5.857   5.617  0.2817 -0.0263 -0.1347
  184POPC   D2A 2575   2.782   5.832   6.040 -0.0157 -0.1038  0.1068
  184POPC   C3A 2576   2.772   6.178   6.300 -0.0042 -0.0361 -0.1644
  184POPC   C4A 2577   2.966   6.428   6.521 -0.3400 -0.0488 -0.0591
  184POPC   C1B 2578   2.366   5.570   5.313 -0.5899 -0.0912  0.2122
  184POPC   C2B 2579   2.314   5.181   5.289  0.2050 -0.2110 -0.0502
  184POPC   C3B 2580   2.372   4.957   4.967  0.0459  0.0136  0.1711
  184POPC   C4B 2581   2.686   4.775   4.840  0.1576  0.1666 -0.0666
  185POPC   NC3 2582   6.371   8.822   4.201  0.0336  0.0042  0.0213
  185POPC   PO4 2583   6.340   9.340   4.210 -0.0714  0.1962 -0.0379
  185POPC   GL1 2584   6.492   9.264   4.649  0.1211 -0.1849 -0.1516
  185POPC   GL2 2585   6.220   9.049   4.750  0.1514  0.0715  0.0628
  185POPC   C1A 2586   6.258   9.424   5.040  0.3153 -0.0028 -0.0337
  185POPC   D2A 2587   6.069   9.406   5.485 -0.1287 -0.0893  0.1429
  185POPC   C3A 2588   5.976   9.818   5.757  0.2744 -0.2109  0.0712
  185POPC   C4A 2589   6.061   9.964   6.090 -0.1408  0.0965  0.1686
  185POPC   C1B 2590   6.331   9.025   5.232  0.2825 -0.0930  0.2599
  185POPC   C2B 2591   6.294   8.972   5.593  0.0506 -0.1673 -0.1315
  185POPC   C3B 2592   5.952   9.030   5.944 -0.3555 -0.2828 -0.1845
  185POPC   C4B 2593   5.924   9.102   6.434  0.1374  0.1147 -0.2402
  186POPC   NC3 2594   9.291   9.533   4.259 -0.1334 -0.3884 -0.0374
  186POPC   PO4 2595   9.088   9.626   4.638  0.0074  0.0580 -0.0043
  186POPC   GL1 2596   9.173   9.392   5.130 -0.1071  0.0146 -0.2167
  186POPC   GL2 2597   9.015   9.096   5.225  0.1016  0.0093 -0.1441
  186POPC   C1A 2598   9.087   9.502   5.610  0.2724  0.0645  0.3356
  186POPC   D2A 2599   8.957   9.569   6.063 -0.2507 -0.0937  0.0054
  186POPC   C3A 2600   8.547   9.581   6.165 -0.0984 -0.0116 -0.0959
  186POPC   C4A 2601   8.298   9.838   6.341 -0.0337 -0.0481  0.2549
  186POPC   C1B 2602   9.432   9.132   5.475 -0.1878  0.0523  0.1016
  186POPC   C2B 2603   9.514   9.342   6.000  0.2398 -0.2112  0.2186
  186POPC   C3B 2604   9.449   9.750   6.304 -0.3013  0.2695  0.0776
  186POPC   C4B 2605   9.535   9.962   6.627 -0.2014 -0.4686  0.3889
  187POPC   NC3 2606   5.639   6.321   3.778  0.3249 -0.1779  0.1815
  187POPC   PO4 2607   6.074   6.262   4.065 -0.1777 -0.1491 -0.1361
  187POPC   GL1 2608   5.983   6.341   4.600  0.0103  0.4213  0.1963
  187POPC   GL2 2609   5.657   6.473   4.797  0.1832  0.0129 -0.0063
  187POPC   C1A 2610   6.056   6.215   5.052  0.0636  0.0628 -0.1214
  187POPC   D2A 2611   6.257   6.294   5.435 -0.0085  0.0312  0.1339
  187POPC   C3A 2612   6.562   6.263   5.519  0.1779  0.0820 -0.2432
  187POPC   C4A 2613   6.925   5.908   5.573  0.0699  0.0730 -0.0307
  187POPC   C1B 2614   5.434   6.421   5.242  0.2109  0.0988  0.2561
  187POPC   C2B 2615   5.456   6.400   5.549  0.1162  0.1032 -0.1640
  187POPC   C3B 2616   5.351   6.248   5.905 -0.0242 -0.0469  0.1456
  187POPC   C4B 2617   5.363   5.895   6.275  0.1913 -0.1685 -0.1750
  188POPC   NC3 2618   1.275   7.802   4.148  0.0496  0.1219 -0.0516
  188POPC   PO4 2619   1.122   8.095   4.425  0.1592 -0.1589 -0.0896
  188POPC   GL1 2620   0.934   8.049   4.779 -0.1102 -0.0217  0.1702
  188POPC   GL2 2621   0.681   8.227   4.788  0.1555  0.2871  0.3970
  188POPC   C1A 2622   1.069   7.803   5.106  0.1922 -0.1984  0.0966
  188POPC   D2A 2623   1.210   7.645   5.491  0.1453 -0.0936 -0.1298
  188POPC   C3A 2624   1.027   7.759   5.880 -0.3600 -0.1364 -0.1156
  188POPC   C4A 2625   1.351   7.619   6.159 -0.1169  0.1689  0.0664
  188POPC   C1B 2626   0.398   8.388   5.052 -0.1910  0.4349  0.0339
  188POPC   C2B 2627   0.084   8.333   5.347  0.1570 -0.1849  0.2793
  188POPC   C3B 2628  -0.261   8.155   5.273  0.0586  0.0347 -0.0080
  188POPC   C4B 2629  -0.641   8.167   5.484  0.1870  0.1597  0.1139
  189POPC   NC3 2630   3.141   4.458   3.920  0.0714  0.0007 -0.1597
  189POPC   PO4 2631   2.736   4.133   3.720  0.3177  0.0408  0.0911
  189POPC   GL1 2632   2.843   4.041   4.123 -0.1551 -0.3255  0.1398
  189POPC   GL2 2633   2.655   3.692   4.184  0.0873 -0.0976 -0.1566
  189POPC   C1A 2634   3.079   3.798   4.391 -0.0447  0.0681  0.1466
  189POPC   D2A 2635   3.373   3.410   4.449 -0.0446 -0.0507  0.2463
  189POPC   C3A 2636   3.574   3.356   4.856  0.3192  0.4340  0.0829
  189POPC   C4A 2637   3.961   3.217   5.025 -0.2796  0.0453 -0.3799
  189POPC   C1B 2638   2.632   3.722   4.627  0.0562  0.1235  0.0905
  189POPC   C2B 2639   2.728   3.651   5.092  0.0972 -0.0105 -0.0058
  189POPC   C3B 2640   3.113   3.388   5.265  0.1533 -0.2260 -0.4963
  189POPC   C4B 2641   3.609   3.454   5.342 -0.2451 -0.1823  0.2468
  190POPC   NC3 2642   5.360   9.569   4.273  0.0259  0.1405  0.0755
  190POPC   PO4 2643   5.421   9.091   4.518 -0.0414 -0.0408 -0.3729
  190POPC   GL1 2644   5.691   9.104   4.862 -0.1327  0.2173  0.0830
  190POPC   GL2 2645   5.811   8.734   4.870  0.1951  0.2844 -0.1862
  190POPC   C1A 2646   5.627   9.110   5.272 -0.3944 -0.2471 -0.2349
  190POPC   D2A 2647   5.543   8.927   5.683  0.1680  0.0246 -0.0225
  190POPC   C3A 2648   5.477   9.101   6.089  0.0243 -0.2303 -0.0584
  190POPC   C4A 2649   5.325   9.103   6.433 -0.0799  0.1215 -0.1245
  190POPC   C1B 2650   5.969   8.642   5.299 -0.3712  0.0946  0.1180
  190POPC   C2B 2651   5.974   8.568   5.676  0.1367 -0.0831 -0.0987
  190POPC   C3B 2652   5.817   8.618   6.093 -0.0541  0.1780 -0.1170
  190POPC   C4B 2653   5.627   8.653   6.464  0.0331  0.1263  0.2480
  191POPC   NC3 2654   7.869   7.550   4.260  0.8578 -0.0407 -0.0590
  191POPC   PO4 2655   7.806   7.984   4.418  0.0567  0.2214 -0.0321
  191POPC   GL1 2656   7.840   8.229   4.778 -0.2959  0.3643 -0.0216
  191POPC   GL2 2657   7.758   8.693   4.704  0.0133 -0.2885  0.0276
  191POPC   C1A 2658   8.010   8.274   5.237 -0.3161  0.0838 -0.0592
  191POPC   D2A 2659   8.091   8.171   5.635  0.0655  0.1262  0.1741
  191POPC   C3A 2660   7.860   8.267   5.990  0.1627 -0.0166  0.3158
  191POPC   C4A 2661   7.627   8.099   6.357  0.1691  0.2875  0.1063
  191POPC   C1B 2662   7.829   8.819   5.197 -0.0487 -0.1443  0.1458
  191POPC   C2B 2663   8.173   8.721   5.442 -0.1755 -0.1195 -0.0316
  191POPC   C3B 2664   8.313   8.615   5.788  0.1407 -0.0876 -0.3832
  191POPC   C4B 2665   8.254   8.467   6.259 -0.0337 -0.1818 -0.0885
  192POPC   NC3 2666   4.787   6.357   4.433  0.1577 -0.0768 -0.0608
  192POPC   PO4 2667   4.589   6.050   4.710  0.1946 -0.1660 -0.0179
  192POPC   GL1 2668   4.354   6.094   5.103 -0.1393  0.2728  0.2948
  192POPC   GL2 2669   4.194   6.460   5.155  0.1189  0.4054 -0.0465
  192POPC   C1A 2670   4.527   6.104   5.539 -0.2549  0.2130 -0.0817
  192POPC   D2A 2671   4.581   5.732   5.802  0.1961  0.2400  0.0393
  192POPC   C3A 2672   5.024   5.567   5.911  0.0225  0.2435 -0.1944
  192POPC   C4A 2673   5.290   5.327   6.174  0.1539 -0.2018  0.0419
  192POPC   C1B 2674   4.137   6.377   5.641 -0.1152 -0.0143  0.1823
  192POPC   C2B 2675   4.299   6.100   5.964  0.3222 -0.0722  0.1000
  192POPC   C3B 2676   4.340   5.740   6.263  0.0654  0.0131  0.3596
  192POPC   C4B 2677   4.399   5.707   6.694  0.0321 -0.2153  0.1356
  193POPC   NC3 2678   8.841   4.902   4.563  0.1425 -0.1524  0.2255
  193POPC   PO4 2679   9.057   4.628   4.386  0.1136 -0.0801 -0.1827
  193POPC   GL1 2680   9.159   4.680   4.960  0.0744 -0.0281  0.0913
  193POPC   GL2 2681   8.892   4.691   5.087 -0.2550 -0.1692 -0.0537
  193POPC   C1A 2682   9.315   4.659   5.395  0.4405  0.0827  0.3401
  193POPC   D2A 2683   9.122   4.390   5.755 -0.2367 -0.2342  0.0041
  193POPC   C3A 2684   9.381   4.445   6.105 -0.2162  0.0552 -0.1795
  193POPC   C4A 2685   9.581   4.526   6.395 -0.1154  0.0211  0.0914
  193POPC   C1B 2686   8.747   4.430   5.456  0.1965 -0.1607 -0.1790
  193POPC   C2B 2687   8.599   4.288   5.884  0.0286  0.1566 -0.0832
  193POPC   C3B 2688   8.446   4.261   6.303  0.0271  0.0777 -0.0789
  193POPC   C4B 2689   8.345   4.465   6.703  0.0292 -0.0947  0.1107
  194POPC   NC3 2690   4.031   6.425   4.267 -0.1986  0.0396  0.1726
  194POPC   PO4 2691   3.657   6.314   4.529  0.0315  0.0093 -0.0499
  194POPC   GL1 2692   3.757   6.089   4.971  0.0160 -0.0034  0.4030
  194POPC   GL2 2693   3.743   5.716   5.055 -0.2783 -0.3579  0.0050
  194POPC   C1A 2694   3.823   6.095   5.342  0.2393 -0.2038 -0.1032
  194POPC   D2A 2695   4.090   5.832   5.581  0.1434  0.4010 -0.0500
  194POPC   C3A 2696   4.137   5.481   5.959  0.2064  0.0552  0.0885
  194POPC   C4A 2697   3.864   5.238   6.228  0.0752 -0.0082 -0.1158
  194POPC   C1B 2698   3.567   5.652   5.409  0.0309  0.4002 -0.3306
  194POPC   C2B 2699   3.605   5.459   5.882  0.1781  0.3069  0.1360
  194POPC   C3B 2700   3.262   5.287   6.134  0.1421  0.1565  0.5479
  194POPC   C4B 2701   2.850   4.849   6.261  0.0459  0.1660 -0.0523
  195POPC   NC3 2702   9.548   7.475   4.510  0.1394 -0.0799 -0.0620
  195POPC   PO4 2703   9.199   7.780   4.387 -0.3580  0.0764  0.0933
  195POPC   GL1 2704   9.182   7.659   4.839 -0.0366 -0.3529  0.0719
  195POPC   GL2 2705   9.461   7.816   4.867  0.1040 -0.1817 -0.2371
  195POPC   C1A 2706   9.146   7.724   5.302  0.2045 -0.1392 -0.0240
  195POPC   D2A 2707   9.331   7.792   5.692  0.1171 -0.1835  0.1681
  195POPC   C3A 2708   9.022   7.795   5.901 -0.0986  0.1576 -0.2043
  195POPC   C4A 2709   8.896   8.124   6.148  0.1727  0.0839 -0.4572
  195POPC   C1B 2710   9.842   7.984   4.918 -0.1448  0.3101  0.2072
  195POPC   C2B 2711  10.198   7.892   5.140 -0.1740  0.1997 -0.0820
  195POPC   C3B 2712  10.345   7.692   5.476 -0.0196  0.0393 -0.0895
  195POPC   C4B 2713  10.106   7.529   5.739  0.2437  0.0835  0.2146
  196POPC   NC3 2714   6.864   8.024   4.279 -0.3788  0.0145  0.1271
  196POPC   PO4 2715   6.601   7.663   4.246 -0.1151 -0.0765  0.4910
  196POPC   GL1 2716   6.460   7.744   4.618 -0.2283 -0.0659 -0.2322
  196POPC   GL2 2717   6.613   7.449   4.687 -0.0547 -0.1480 -0.0541
  196POPC   C1A 2718   6.306   7.843   4.999 -0.0345 -0.0247  0.0273
  196POPC   D2A 2719   6.141   7.634   5.324 -0.1956  0.0929 -0.1990
  196POPC   C3A 2720   6.186   7.707   5.712 -0.1609  0.1776 -0.1511
  196POPC   C4A 2721   6.014   7.787   6.145  0.2864  0.0787 -0.0315
  196POPC   C1B 2722   6.562   7.345   5.199 -0.0241  0.3224  0.1615
  196POPC   C2B 2723   6.427   7.225   5.573 -0.1653  0.0958  0.0678
  196POPC   C3B 2724   6.755   7.351   5.907  0.3503  0.0686 -0.0600
  196POPC   C4B 2725   6.978   7.427   6.354 -0.1472 -0.0789  0.0846
  197POPC   NC3 2726   8.646   0.051   4.409 -0.2524 -0.1907  0.0976
  197POPC   PO4 2727   8.239   0.327   4.257 -0.4042  0.3101  0.0235
  197POPC   GL1 2728   8.428   0.350   4.670 -0.3181 -0.0917  0.1825
  197POPC   GL2 2729   8.778   0.248   4.857  0.1375 -0.3250  0.1575
  197POPC   C1A 2730   8.316   0.165   5.078  0.3870 -0.0761 -0.2887
  197POPC   D2A 2731   8.088   0.138   5.417  0.0097 -0.0303  0.0116
  197POPC   C3A 2732   8.097  -0.064   5.792  0.0511  0.0911 -0.0418
  197POPC   C4A 2733   8.183  -0.511   5.908  0.4437 -0.2028 -0.1909
  197POPC   C1B 2734   8.697   0.523   5.114 -0.3105 -0.1809 -0.4168
  197POPC   C2B 2735   8.720   0.679   5.607  0.0613 -0.0262  0.2540
  197POPC   C3B 2736   8.605   0.970   5.973 -0.0309  0.2039 -0.2651
  197POPC   C4B 2737   8.110   1.145   5.972 -0.0907 -0.0156 -0.1209
  198POPC   NC3 2738   5.702   3.086   3.092 -0.4040 -0.0587  0.0941
  198POPC   PO4 2739   5.434   3.286   3.362  0.0756  0.1143 -0.0876
  198POPC   GL1 2740   5.214   3.313   3.817 -0.0030 -0.2680 -0.0680
  198POPC   GL2 2741   5.345   3.072   3.989  0.2544 -0.0266  0.1657
  198POPC   C1A 2742   5.099   3.441   4.250  0.1255 -0.2464 -0.2459
  198POPC   D2A 2743   5.338   3.576   4.619 -0.3609  0.1593 -0.0509
  198POPC   C3A 2744   5.190   3.938   4.852  0.1048 -0.0922 -0.2757
  198POPC   C4A 2745   5.008   3.686   5.041 -0.1369 -0.1194  0.0284
  198POPC   C1B 2746   5.064   2.952   4.289  0.0760 -0.0192 -0.0690
  198POPC   C2B 2747   4.875   2.793   4.567 -0.3575  0.2118  0.0856
  198POPC   C3B 2748   4.795   2.563   4.954 -0.0192 -0.0924 -0.1121
  198POPC   C4B 2749   4.477   2.241   5.173 -0.0274  0.0957  0.0582
  199POPC   NC3 2750   7.693   9.309   4.363  0.2089  0.4242  0.3208
  199POPC   PO4 2751   7.857   9.621   4.560 -0.3708 -0.0150 -0.4772
  199POPC   GL1 2752   7.521   9.482   4.832  0.0543  0.1230 -0.3494
  199POPC   GL2 2753   7.738   9.544   5.176  0.0360  0.3826  0.2202
  199POPC   C1A 2754   7.267   9.678   5.112 -0.0629 -0.0641 -0.0534
  199POPC   D2A 2755   7.121   9.490   5.508 -0.0066  0.4122 -0.1365
  199POPC   C3A 2756   7.340   9.220   5.753 -0.0747  0.3990 -0.1999
  199POPC   C4A 2757   7.699   9.268   6.041  0.0957  0.0341  0.1125
  199POPC   C1B 2758   7.660   9.556   5.576 -0.1776  0.0567 -0.2116
  199POPC   C2B 2759   7.399   9.698   5.903  0.0822 -0.0336 -0.3799
  199POPC   C3B 2760   6.884   9.683   5.920  0.1879  0.1178  0.0370
  199POPC   C4B 2761   6.492   9.842   5.755 -0.0121 -0.0806  0.0271
  200POPC   NC3 2762   2.302   2.850   3.205  0.1596  0.2999 -0.2838
  200POPC   PO4 2763   1.946   3.069   3.240 -0.1853  0.0683  0.0584
  200POPC   GL1 2764   1.729   2.821   3.544 -0.1176  0.0210  0.0634
  200POPC   GL2 2765   2.030   2.714   3.818  0.3663 -0.0333  0.1900
  200POPC   C1A 2766   1.579   2.634   4.011  0.1630 -0.4309  0.2679
  200POPC   D2A 2767   1.566   2.499   4.479 -0.0129  0.1157  0.0920
  200POPC   C3A 2768   1.264   2.266   4.671  0.0698  0.2923 -0.0640
  200POPC   C4A 2769   0.864   2.377   4.778  0.1126  0.0214 -0.2740
  200POPC   C1B 2770   2.317   2.935   4.021 -0.5287 -0.0645 -0.0763
  200POPC   C2B 2771   2.744   3.159   4.013  0.1180 -0.1523 -0.2128
  200POPC   C3B 2772   2.881   3.355   4.416  0.1855 -0.2927 -0.0464
  200POPC   C4B 2773   3.125   3.584   4.789 -0.1820  0.2042 -0.1354
  201POPC   NC3 2774   1.691   5.932   4.114 -0.2697  0.4003 -0.0036
  201POPC   PO4 2775   1.744   6.295   4.160 -0.0649 -0.1208  0.2004
  201POPC   GL1 2776   1.655   6.130   4.595 -0.0304 -0.2106 -0.1205
  201POPC   GL2 2777   1.888   6.148   4.852 -0.1935 -0.0292  0.1772
  201POPC   C1A 2778   1.527   5.865   5.023 -0.1909  0.0460  0.0678
  201POPC   D2A 2779   1.559   5.719   5.525  0.1411  0.0718 -0.0647
  201POPC   C3A 2780   1.484   5.365   5.701  0.0138  0.0356 -0.1684
  201POPC   C4A 2781   1.211   5.082   6.005  0.3955 -0.0001 -0.0992
  201POPC   C1B 2782   1.965   5.902   5.274 -0.1909 -0.1525 -0.0646
  201POPC   C2B 2783   2.029   5.822   5.746  0.3381 -0.1690 -0.1133
  201POPC   C3B 2784   1.993   5.505   6.151  0.0977  0.2078  0.2750
  201POPC   C4B 2785   1.878   5.112   6.398  0.1701  0.0103 -0.2383
  202POPC   NC3 2786   0.200   2.433   3.949  0.3230 -0.0048 -0.1993
  202POPC   PO4 2787   0.046   2.059   4.189  0.3762  0.2457  0.0754
  202POPC   GL1 2788   0.001   1.976   4.616  0.0404  0.1861 -0.0672
  202POPC   GL2 2789  -0.322   1.876   4.625  0.0859  0.0219  0.1368
  202POPC   C1A 2790   0.057   1.850   5.012 -0.0643 -0.3356 -0.1374
  202POPC   D2A 2791  -0.039   1.740   5.348  0.3567  0.0953  0.0562
  202POPC   C3A 2792  -0.373   1.811   5.684  0.1955 -0.2295 -0.2353
  202POPC   C4A 2793  -0.647   1.928   6.020  0.2882  0.2723  0.1891
  202POPC   C1B 2794  -0.448   1.555   4.937 -0.0192 -0.0459  0.3995
  202POPC   C2B 2795  -0.469   1.462   5.383 -0.1390  0.0375  0.0990
  202POPC   C3B 2796  -0.655   1.334   5.826  0.1561 -0.1418 -0.0804
  202POPC   C4B 2797  -1.047   1.537   6.074 -0.0974  0.1973  0.1616
  203POPC   NC3 2798   0.244   0.791   4.096  0.0200 -0.1370  0.0092
  203POPC   PO4 2799   0.597   0.484   4.277  0.0939  0.1905 -0.0756
  203POPC   GL1 2800   0.852   0.510   4.635  0.1033  0.1341  0.0250
  203POPC   GL2 2801   1.044   0.749   4.651  0.2030 -0.2832 -0.1808
  203POPC   C1A 2802   0.875   0.456   5.136  0.1177  0.0447  0.2207
  203POPC   D2A 2803   0.831   0.575   5.643  0.0404  0.1900 -0.2941
  203POPC   C3A 2804   0.817   0.286   5.952  0.0132 -0.0631 -0.1706
  203POPC   C4A 2805   0.625   0.259   6.367  0.2347 -0.1784 -0.3349
  203POPC   C1B 2806   1.182   1.139   4.900 -0.1067  0.0820  0.1170
  203POPC   C2B 2807   1.323   1.547   5.139 -0.0952 -0.1927  0.0035
  203POPC   C3B 2808   1.509   1.915   4.965  0.0770  0.2184 -0.1070
  203POPC   C4B 2809   1.730   2.157   4.807  0.3202  0.1225  0.1082
  204POPC   NC3 2810   4.908   2.364   3.265  0.0001 -0.0207 -0.3437
  204POPC   PO4 2811   5.313   2.335   3.538 -0.1674  0.1545 -0.1292
  204POPC   GL1 2812   5.248   2.099   3.905  0.1773 -0.0103 -0.0648
  204POPC   GL2 2813   4.853   2.149   3.815 -0.0561  0.2796 -0.1897
  204POPC   C1A 2814   5.330   2.065   4.309  0.1285  0.0684 -0.1438
  204POPC   D2A 2815   5.172   2.202   4.670 -0.1107  0.0410  0.2942
  204POPC   C3A 2816   5.394   2.031   4.901 -0.0723 -0.1396 -0.0288
  204POPC   C4A 2817   5.472   2.096   5.348  0.2135  0.2896 -0.3835
  204POPC   C1B 2818   4.459   1.828   3.806 -0.0442 -0.0952 -0.0256
  204POPC   C2B 2819   4.352   1.487   4.092  0.0901  0.2235  0.2381
  204POPC   C3B 2820   4.489   1.355   4.501  0.1079 -0.2024  0.2008
  204POPC   C4B 2821   4.472   1.646   4.763 -0.1827  0.1367  0.0908
  205POPC   NC3 2822   2.052   9.545   4.318  0.1799 -0.1684  0.4049
  205POPC   PO4 2823   1.620   9.759   4.267  0.0587  0.0315 -0.0399
  205POPC   GL1 2824   1.788   9.780   4.668  0.1477  0.2469  0.0359
  205POPC   GL2 2825   1.932   9.513   4.797  0.1889  0.0971 -0.0094
  205POPC   C1A 2826   1.945  10.047   4.883  0.2402 -0.1052  0.2544
  205POPC   D2A 2827   2.028  10.341   5.107 -0.1563  0.1617  0.1091
  205POPC   C3A 2828   2.132  10.843   5.097  0.2459  0.1369  0.1127
  205POPC   C4A 2829   2.278  11.167   5.320 -0.3304  0.1165  0.0126
  205POPC   C1B 2830   1.881   9.701   5.225  0.0443  0.1817 -0.2673
  205POPC   C2B 2831   1.890   9.619   5.638 -0.0101 -0.0491  0.1805
  205POPC   C3B 2832   1.717   9.709   6.003 -0.1180 -0.3299 -0.0512
  205POPC   C4B 2833   1.712   9.913   6.452  0.1779  0.0798  0.2496
  206POPC   NC3 2834   3.006   9.552   3.470  0.0247  0.0299  0.2223
  206POPC   PO4 2835   3.411   9.433   3.516 -0.2605  0.0928  0.0172
  206POPC   GL1 2836   3.523   9.746   3.819 -0.0103  0.1129  0.3718
  206POPC   GL2 2837   3.687   9.618   4.114  0.2377  0.3516 -0.1429
  206POPC   C1A 2838   3.552  10.084   4.236  0.2324  0.1536  0.1670
  206POPC   D2A 2839   3.826  10.300   4.431  0.1015 -0.1435 -0.4792
  206POPC   C3A 2840   4.000  10.172   4.757 -0.1434  0.0211  0.0354
  206POPC   C4A 2841   4.055  10.400   5.164  0.0993  0.0871 -0.0074
  206POPC   C1B 2842   4.033   9.858   4.311 -0.0885  0.3546 -0.0983
  206POPC   C2B 2843   4.377  10.162   4.360 -0.0171 -0.3508  0.0547
  206POPC   C3B 2844   4.508  10.592   4.179  0.0336 -0.3115 -0.0440
  206POPC   C4B 2845   4.909  10.892   4.296 -0.0966 -0.2610  0.0912
  207POPC   NC3 2846   3.748   8.794   4.355 -0.0741  0.3096  0.1520
  207POPC   PO4 2847   3.381   9.090   4.498  0.1418  0.1511 -0.0628
  207POPC   GL1 2848   3.303   9.135   4.812  0.0313  0.1629  0.2251
  207POPC   GL2 2849   2.925   9.196   4.855  0.0244 -0.0313 -0.0188
  207POPC   C1A 2850   3.381   9.474   5.055 -0.0369  0.0311  0.1201
  207POPC   D2A 2851   3.223   9.815   5.281  0.0225 -0.1330  0.0521
  207POPC   C3A 2852   2.776   9.596   5.433  0.2236 -0.0616  0.0023
  207POPC   C4A 2853   2.662   9.688   5.856  0.1149 -0.0211 -0.4565
  207POPC   C1B 2854   3.030   9.082   5.261  0.0641  0.0429 -0.0564
  207POPC   C2B 2855   3.210   9.357   5.596  0.1268 -0.1878  0.2610
  207POPC   C3B 2856   3.169   9.751   5.805  0.2355 -0.0484  0.3212
  207POPC   C4B 2857   3.257  10.206   5.810  0.1227 -0.1016  0.2996
  208POPC   NC3 2858   0.924   9.604   4.600  0.0274 -0.0738 -0.1692
  208POPC   PO4 2859   0.546   9.745   4.681 -0.2716  0.1327  0.1344
  208POPC   GL1 2860   0.400  10.075   4.947  0.0567 -0.2136  0.1375
  208POPC   GL2 2861   0.180  10.014   5.229 -0.0405 -0.5586  0.0397
  208POPC   C1A 2862   0.390  10.490   5.130  0.4811 -0.1570  0.1893
  208POPC   D2A 2863   0.540  10.639   5.568 -0.2112  0.0322  0.0146
  208POPC   C3A 2864   0.594  10.970   5.898  0.1066  0.0808 -0.2125
  208POPC   C4A 2865   0.617  11.404   6.122  0.0452  0.1252 -0.0293
  208POPC   C1B 2866   0.313  10.197   5.640 -0.0195 -0.0823 -0.1920
  208POPC   C2B 2867   0.054  10.537   5.797  0.1154  0.1877  0.0418
  208POPC   C3B 2868  -0.071  10.762   6.226  0.0736 -0.0057 -0.1693
  208POPC   C4B 2869  -0.255  10.944   6.610  0.0837  0.0142 -0.0922
  209POPC   NC3 2870   0.507   9.203   4.538  0.0020 -0.1668  0.1771
  209POPC   PO4 2871   0.916   9.094   4.450  0.0604  0.1415 -0.1357
  209POPC   GL1 2872   1.035   9.133   4.838  0.1271  0.1763 -0.1606
  209POPC   GL2 2873   0.721   9.242   4.994  0.0735 -0.0934  0.0032
  209POPC   C1A 2874   1.034   9.108   5.385 -0.1686 -0.1259  0.2389
  209POPC   D2A 2875   1.069   9.195   5.748  0.2121  0.0500  0.1211
  209POPC   C3A 2876   1.006   8.849   6.043  0.1153  0.1201 -0.1160
  209POPC   C4A 2877   0.759   8.699   6.326  0.2337  0.0359  0.0713
  209POPC   C1B 2878   0.580   8.875   5.240  0.0827  0.0396  0.1779
  209POPC   C2B 2879   0.626   8.663   5.613 -0.4065  0.2693  0.2112
  209POPC   C3B 2880   0.511   8.431   6.002  0.1186 -0.0360  0.0697
  209POPC   C4B 2881   0.113   8.332   6.176  0.0486 -0.1674  0.1485
  210POPC   NC3 2882   6.349   3.064   3.840  0.0608  0.2596  0.1824
  210POPC   PO4 2883   5.833   3.029   4.006  0.0550 -0.1105 -0.0656
  210POPC   GL1 2884   5.701   3.102   4.538 -0.0415  0.0593 -0.0306
  210POPC   GL2 2885   5.349   3.060   4.721  0.0564  0.2171  0.1222
  210POPC   C1A 2886   5.804   2.948   4.925  0.1707 -0.0094 -0.0760
  210POPC   D2A 2887   5.793   3.001   5.268 -0.0888 -0.2612  0.2354
  210POPC   C3A 2888   5.550   2.646   5.531  0.4833 -0.1003 -0.0678
  210POPC   C4A 2889   5.399   2.383   5.789 -0.2193 -0.2088 -0.3450
  210POPC   C1B 2890   5.187   3.167   5.133 -0.1550  0.2556  0.2261
  210POPC   C2B 2891   5.338   3.079   5.572  0.0700 -0.3023 -0.0661
  210POPC   C3B 2892   5.426   3.413   5.941 -0.2471  0.0683 -0.2582
  210POPC   C4B 2893   5.146   3.862   5.938  0.2791  0.0462 -0.1586
  211POPC   NC3 2894   1.314   3.488   3.990  0.0962  0.5845  0.1761
  211POPC   PO4 2895   1.646   3.387   3.695 -0.0671 -0.0641 -0.0020
  211POPC   GL1 2896   1.818   3.166   4.056  0.0153  0.1437 -0.0804
  211POPC   GL2 2897   2.097   3.433   4.083 -0.0934 -0.1434 -0.3704
  211POPC   C1A 2898   1.957   2.918   4.391  0.0110 -0.1451 -0.1059
  211POPC   D2A 2899   2.145   2.751   4.719  0.0388  0.0242 -0.0662
  211POPC   C3A 2900   2.160   2.406   4.923  0.0645 -0.0362 -0.0527
  211POPC   C4A 2901   2.148   1.985   5.073 -0.0445 -0.0119 -0.0385
  211POPC   C1B 2902   1.819   3.412   4.537 -0.3242  0.3457  0.2660
  211POPC   C2B 2903   1.594   3.595   4.944  0.2305  0.2700  0.0236
  211POPC   C3B 2904   1.121   3.663   5.057 -0.0416  0.4530  0.0963
  211POPC   C4B 2905   0.947   3.475   5.426  0.3640 -0.3550 -0.1548
  212POPC   NC3 2906   4.515   4.886   3.871 -0.0748  0.0725 -0.0190
  212POPC   PO4 2907   4.127   4.708   3.660  0.0852  0.0323  0.1225
  212POPC   GL1 2908   4.118   4.735   4.160 -0.0695 -0.2795 -0.0215
  212POPC   GL2 2909   4.342   4.965   4.397  0.1587  0.0780 -0.1589
  212POPC   C1A 2910   3.960   4.493   4.476 -0.1674  0.1336 -0.0975
  212POPC   D2A 2911   3.881   4.064   4.340 -0.2361  0.1343  0.1473
  212POPC   C3A 2912   4.230   3.770   4.412 -0.0945  0.2178 -0.2772
  212POPC   C4A 2913   4.666   3.754   4.486  0.2467  0.0315  0.2797
  212POPC   C1B 2914   4.116   4.899   4.746  0.0520  0.4113  0.1463
  212POPC   C2B 2915   4.140   4.939   5.202  0.0157  0.0776  0.1006
  212POPC   C3B 2916   4.124   4.752   5.634  0.0298  0.1045  0.0752
  212POPC   C4B 2917   3.883   4.656   6.005 -0.3491 -0.0043  0.0403
  213POPC   NC3 2918   3.995   5.241   4.097  0.0735  0.2850 -0.0927
  213POPC   PO4 2919   3.823   5.608   4.355 -0.3270 -0.2506 -0.1448
  213POPC   GL1 2920   3.817   5.338   4.642 -0.4264  0.0692  0.0442
  213POPC   GL2 2921   4.063   5.344   4.968 -0.1854 -0.0517 -0.2238
  213POPC   C1A 2922   3.571   4.975   4.799  0.1628 -0.1498 -0.1428
  213POPC   D2A 2923   3.232   4.959   4.896  0.1576 -0.1504  0.2759
  213POPC   C3A 2924   3.074   4.535   5.043 -0.1468 -0.1780 -0.0382
  213POPC   C4A 2925   3.060   4.070   5.004 -0.1384  0.1324 -0.0204
  213POPC   C1B 2926   4.293   5.404   5.370  0.0563  0.4900  0.1978
  213POPC   C2B 2927   4.567   5.266   5.634 -0.1222  0.0988 -0.0734
  213POPC   C3B 2928   4.768   5.145   6.049  0.1505  0.0483  0.3249
  213POPC   C4B 2929   4.769   4.888   6.335  0.0482  0.2550  0.0578
  214POPC   NC3 2930   3.243   7.115   4.681 -0.1226  0.0517 -0.2350
  214POPC   PO4 2931   3.623   7.091   4.929  0.1952 -0.0193  0.0452
  214POPC   GL1 2932   3.540   7.112   5.327  0.1129  0.0560 -0.0291
  214POPC   GL2 2933   3.226   7.184   5.467 -0.0586 -0.1888 -0.1508
  214POPC   C1A 2934   3.635   7.213   5.755  0.0703  0.1370 -0.2926
  214POPC   D2A 2935   3.547   7.662   5.913 -0.0309  0.2072 -0.0902
  214POPC   C3A 2936   3.295   7.877   5.947  0.2331 -0.1228 -0.0732
  214POPC   C4A 2937   3.220   8.077   6.245  0.0656  0.1364  0.1800
  214POPC   C1B 2938   3.094   7.456   5.772 -0.0900 -0.1342 -0.0165
  214POPC   C2B 2939   2.827   7.759   6.119  0.1708 -0.1065  0.0737
  214POPC   C3B 2940   2.711   7.817   6.391 -0.0430  0.1379  0.3219
  214POPC   C4B 2941   2.751   7.912   6.837 -0.1574 -0.0341  0.1567
  215POPC   NC3 2942   1.363   5.022   4.150 -0.0839  0.1486  0.2544
  215POPC   PO4 2943   1.600   5.307   4.286 -0.3332 -0.0679 -0.2694
  215POPC   GL1 2944   1.517   5.229   4.718 -0.2717  0.0181 -0.0605
  215POPC   GL2 2945   1.337   5.441   4.855  0.2286 -0.0843 -0.0747
  215POPC   C1A 2946   1.831   5.006   4.973 -0.0021  0.1763 -0.2879
  215POPC   D2A 2947   1.972   4.876   5.408  0.1313  0.0722 -0.0475
  215POPC   C3A 2948   2.320   4.749   5.512 -0.1372 -0.0640  0.2322
  215POPC   C4A 2949   2.533   4.812   5.833  0.2634 -0.1275  0.3481
  215POPC   C1B 2950   1.398   5.330   5.238 -0.2508  0.2454 -0.1475
  215POPC   C2B 2951   1.440   4.950   5.369 -0.0150 -0.0032  0.2616
  215POPC   C3B 2952   1.584   4.730   5.725 -0.1765  0.3976  0.3785
  215POPC   C4B 2953   1.785   4.964   5.907  0.0426  0.1336  0.0045
  216POPC   NC3 2954   8.295   7.833   4.171  0.4272  0.3236 -0.0177
  216POPC   PO4 2955   8.425   8.204   4.566 -0.0835 -0.1778 -0.0522
  216POPC   GL1 2956   8.322   7.944   4.812  0.2918 -0.2479 -0.4539
  216POPC   GL2 2957   8.592   7.861   5.002  0.1938  0.1466 -0.2277
  216POPC   C1A 2958   8.104   7.754   5.170 -0.1557 -0.0092  0.1034
  216POPC   D2A 2959   7.919   7.499   5.418  0.2121 -0.0235 -0.0552
  216POPC   C3A 2960   7.535   7.436   5.606 -0.1179 -0.1067 -0.1148
  216POPC   C4A 2961   7.326   7.391   5.957 -0.0255  0.0630 -0.0684
  216POPC   C1B 2962   8.593   7.760   5.399 -0.1516  0.4825 -0.0447
  216POPC   C2B 2963   8.299   7.689   5.706 -0.0062  0.4422 -0.1991
  216POPC   C3B 2964   7.918   7.732   5.948  0.2188 -0.1530 -0.0573
  216POPC   C4B 2965   7.706   7.555   6.273  0.1225 -0.2216 -0.2927
  217POPC   NC3 2966   5.677   3.507   3.728  0.1585  0.2990 -0.0508
  217POPC   PO4 2967   6.157   3.469   3.904  0.1002 -0.0573  0.2223
  217POPC   GL1 2968   6.121   3.238   4.309 -0.1362 -0.0078  0.1013
  217POPC   GL2 2969   5.987   3.563   4.373 -0.3136  0.1098 -0.2606
  217POPC   C1A 2970   6.467   3.210   4.637  0.2575 -0.0799 -0.1016
  217POPC   D2A 2971   6.769   3.439   4.927 -0.4069  0.0494 -0.0677
  217POPC   C3A 2972   7.183   3.308   4.954 -0.0421 -0.0900  0.0358
  217POPC   C4A 2973   7.497   2.998   4.902 -0.0074 -0.0511 -0.1810
  217POPC   C1B 2974   5.833   3.461   4.902 -0.0405 -0.0235 -0.1729
  217POPC   C2B 2975   5.501   3.636   5.157  0.3564 -0.1053 -0.1569
  217POPC   C3B 2976   5.165   3.567   5.516 -0.0486  0.0646 -0.1057
  217POPC   C4B 2977   4.953   3.265   5.829 -0.0836  0.1405 -0.0750
  218POPC   NC3 2978   7.111   5.437   4.552 -0.0327  0.0287 -0.0387
  218POPC   PO4 2979   7.395   5.028   4.391  0.1848  0.2339  0.0560
  218POPC   GL1 2980   7.261   4.873   4.741  0.2305 -0.1903  0.0147
  218POPC   GL2 2981   7.566   4.754   4.865 -0.1649 -0.0999 -0.0329
  218POPC   C1A 2982   7.151   4.796   5.114  0.2061 -0.2058 -0.0819
  218POPC   D2A 2983   6.886   5.016   5.493  0.1078  0.3487  0.0961
  218POPC   C3A 2984   7.203   5.247   5.785  0.3222  0.0270 -0.0882
  218POPC   C4A 2985   7.603   5.264   5.696  0.3387  0.2354  0.1141
  218POPC   C1B 2986   7.483   5.119   5.235  0.0200  0.0720  0.0208
  218POPC   C2B 2987   7.712   5.523   5.288  0.1699 -0.0221 -0.0118
  218POPC   C3B 2988   7.805   5.839   5.415 -0.0792  0.4433 -0.3533
  218POPC   C4B 2989   7.925   5.999   5.826 -0.0641  0.1069  0.0273
  219POPC   NC3 2990   4.390   3.489   3.453 -0.1128  0.0800 -0.1257
  219POPC   PO4 2991   4.866   3.613   3.612 -0.2507  0.3642 -0.2381
  219POPC   GL1 2992   4.663   3.499   3.990 -0.0344 -0.0514  0.1859
  219POPC   GL2 2993   4.318   3.456   4.028  0.0306  0.1834 -0.0391
  219POPC   C1A 2994   4.665   3.262   4.332 -0.0268 -0.0354 -0.0492
  219POPC   D2A 2995   4.783   3.312   4.753 -0.3446  0.2205 -0.0433
  219POPC   C3A 2996   4.711   3.344   5.194  0.1424 -0.0800 -0.1197
  219POPC   C4A 2997   4.228   3.525   5.352  0.3029  0.2059  0.2301
  219POPC   C1B 2998   4.111   3.124   4.228 -0.1397  0.0892  0.0029
  219POPC   C2B 2999   4.169   2.785   4.455  0.1422 -0.1505  0.2104
  219POPC   C3B 3000   4.462   2.486   4.592  0.0668 -0.0829  0.1296
  219POPC   C4B 3001   4.697   2.135   4.706 -0.0682  0.2506  0.1737
  220POPC   NC3 3002   9.070   3.058   4.272 -0.1826  0.3572  0.0858
  220POPC   PO4 3003   8.911   3.393   4.498 -0.1464 -0.0691 -0.2612
  220POPC   GL1 3004   8.794   3.353   4.910  0.0541  0.1198 -0.1347
  220POPC   GL2 3005   8.778   3.681   5.137  0.1596  0.3039 -0.2801
  220POPC   C1A 3006   9.026   3.107   5.085 -0.1347  0.1440  0.1247
  220POPC   D2A 3007   9.424   3.004   5.063 -0.0279 -0.0457 -0.1393
  220POPC   C3A 3008   9.583   2.662   5.029 -0.1128  0.0760  0.1301
  220POPC   C4A 3009   9.398   2.338   4.902 -0.1712  0.0802  0.1074
  220POPC   C1B 3010   8.825   3.910   5.503 -0.3107  0.4044  0.0059
  220POPC   C2B 3011   9.078   3.934   5.973 -0.0091 -0.0230 -0.3511
  220POPC   C3B 3012   9.335   3.969   6.302 -0.1442 -0.1088 -0.0826
  220POPC   C4B 3013   9.584   4.040   6.639 -0.1659  0.2077 -0.2558
  221POPC   NC3 3014   6.520   0.380   4.289 -0.3491 -0.0869 -0.1516
  221POPC   PO4 3015   6.595   0.825   4.317 -0.0010 -0.1749  0.2316
  221POPC   GL1 3016   6.347   1.087   4.593 -0.0278 -0.1982 -0.0012
  221POPC   GL2 3017   6.349   1.436   4.544 -0.0856  0.0241  0.0273
  221POPC   C1A 3018   6.096   1.216   5.050 -0.0052 -0.0702 -0.2919
  221POPC   D2A 3019   5.900   1.447   5.290  0.0318 -0.1921 -0.0227
  221POPC   C3A 3020   5.582   1.531   5.611 -0.0979  0.1509  0.0081
  221POPC   C4A 3021   5.448   1.406   6.137 -0.1244  0.0044  0.1103
  221POPC   C1B 3022   6.567   1.290   4.959 -0.0620  0.1967  0.0376
  221POPC   C2B 3023   6.468   1.169   5.464  0.1224 -0.1198  0.2989
  221POPC   C3B 3024   6.045   1.087   5.684 -0.0413 -0.0055  0.2165
  221POPC   C4B 3025   5.672   0.952   5.948 -0.1192 -0.0088 -0.1401
  222POPC   NC3 3026   7.463   4.324   3.954 -0.3416 -0.1258  0.3200
  222POPC   PO4 3027   7.569   3.930   4.142 -0.4653 -0.0517  0.3278
  222POPC   GL1 3028   7.502   4.050   4.590 -0.0887 -0.0405 -0.4379
  222POPC   GL2 3029   7.734   4.184   4.860 -0.1176  0.0012  0.0809
  222POPC   C1A 3030   7.356   3.816   4.900 -0.1675  0.0431 -0.2319
  222POPC   D2A 3031   7.214   3.721   5.328  0.0906 -0.2448 -0.2447
  222POPC   C3A 3032   7.409   3.696   5.704  0.2912 -0.2852  0.0888
  222POPC   C4A 3033   7.477   3.396   5.910  0.0294  0.1075 -0.0710
  222POPC   C1B 3034   7.576   4.112   5.327  0.3768 -0.0446 -0.3011
  222POPC   C2B 3035   7.732   4.173   5.734 -0.1927  0.0062 -0.1021
  222POPC   C3B 3036   8.104   4.226   5.931 -0.1682  0.0125  0.0531
  222POPC   C4B 3037   8.242   4.538   5.671  0.1942 -0.3870  0.2616
  223POPC   NC3 3038   9.145   7.069   4.078 -0.0083 -0.1841  0.2286
  223POPC   PO4 3039   9.374   6.923   4.473  0.1321 -0.1360  0.1062
  223POPC   GL1 3040   9.400   6.764   4.857  0.1131 -0.0733  0.1658
  223POPC   GL2 3041   9.239   6.947   5.051 -0.1846 -0.3047  0.1601
  223POPC   C1A 3042   9.706   6.714   5.156  0.0306  0.2222  0.2704
  223POPC   D2A 3043   9.675   6.614   5.542  0.5686 -0.2052  0.0612
  223POPC   C3A 3044   9.867   6.860   5.780  0.0889  0.1303  0.1361
  223POPC   C4A 3045   9.989   7.094   6.106 -0.0530 -0.0784  0.0992
  223POPC   C1B 3046   9.410   7.314   5.233  0.0744 -0.0625  0.0127
  223POPC   C2B 3047   9.649   7.654   5.331 -0.0251  0.0074  0.0667
  223POPC   C3B 3048   9.875   7.923   5.529 -0.4890 -0.0337  0.2610
  223POPC   C4B 3049  10.214   8.170   5.625  0.0827 -0.1558 -0.0106
  224POPC   NC3 3050   2.908   9.258   4.280 -0.0216  0.1584  0.0174
  224POPC   PO4 3051   2.483   9.331   4.472  0.0026 -0.4355 -0.1757
  224POPC   GL1 3052   2.430   9.292   4.863 -0.1005 -0.0361 -0.3181
  224POPC   GL2 3053   2.504   8.896   4.950 -0.1238 -0.1055 -0.0658
  224POPC   C1A 3054   2.267   9.393   5.378 -0.0794 -0.1871  0.1136
  224POPC   D2A 3055   2.092   9.251   5.824 -0.1762 -0.0477 -0.1459
  224POPC   C3A 3056   1.883   8.910   6.052 -0.0077  0.0806  0.3532
  224POPC   C4A 3057   1.488   8.658   6.001  0.1681 -0.3306  0.0706
  224POPC   C1B 3058   2.523   8.933   5.342  0.4070 -0.1477 -0.0644
  224POPC   C2B 3059   2.703   9.215   5.689  0.0015 -0.2376 -0.0652
  224POPC   C3B 3060   2.534   9.257   6.135  0.0308  0.1808  0.0229
  224POPC   C4B 3061   2.388   9.264   6.601 -0.3706  0.0222  0.0503
  225POPC   NC3 3062   0.388   4.807   4.199  0.1063  0.2665 -0.1815
  225POPC   PO4 3063   0.100   5.150   4.552 -0.3914  0.0899  0.2372
  225POPC   GL1 3064   0.015   5.152   4.997 -0.0723 -0.2100 -0.0091
  225POPC   GL2 3065  -0.031   4.781   5.100 -0.4705  0.0408 -0.3243
  225POPC   C1A 3066  -0.058   5.309   5.448  0.3831  0.3740 -0.1203
  225POPC   D2A 3067  -0.372   5.550   5.653 -0.0576 -0.0855 -0.1168
  225POPC   C3A 3068  -0.584   5.491   6.094  0.1563  0.0040 -0.0836
  225POPC   C4A 3069  -0.680   5.283   6.462 -0.3146 -0.1047 -0.1616
  225POPC   C1B 3070   0.084   4.843   5.574  0.0469 -0.4238 -0.0522
  225POPC   C2B 3071   0.214   4.604   5.945 -0.0338  0.0256  0.2347
  225POPC   C3B 3072   0.477   4.541   6.274 -0.2611 -0.2467 -0.0901
  225POPC   C4B 3073   0.746   4.707   6.608  0.1817 -0.2886 -0.0251
  226POPC   NC3 3074   0.691   4.219   4.188  0.0569  0.2462 -0.0151
  226POPC   PO4 3075   0.401   3.947   4.220 -0.3098  0.1728  0.0794
  226POPC   GL1 3076   0.575   3.859   4.611  0.0707  0.0754 -0.1470
  226POPC   GL2 3077   0.606   4.112   4.753  0.0640  0.0750 -0.3815
  226POPC   C1A 3078   0.552   3.613   4.969  0.1101 -0.1569 -0.1596
  226POPC   D2A 3079   0.470   3.429   5.335 -0.0086 -0.0194  0.0210
  226POPC   C3A 3080   0.646   3.124   5.608 -0.1570 -0.3487  0.1289
  226POPC   C4A 3081   0.863   3.172   5.948 -0.1369  0.0166 -0.0290
  226POPC   C1B 3082   0.661   4.099   5.145  0.0711  0.1197  0.0457
  226POPC   C2B 3083   0.958   4.087   5.502  0.1387 -0.1944  0.1260
  226POPC   C3B 3084   1.044   3.830   5.834 -0.0193  0.2330 -0.1096
  226POPC   C4B 3085   1.403   3.854   6.202 -0.0028 -0.2931 -0.2880
  227POPC   NC3 3086   6.366   1.352   4.045 -0.0377  0.0670  0.0872
  227POPC   PO4 3087   6.669   1.768   4.118  0.0160  0.3463 -0.2370
  227POPC   GL1 3088   6.366   1.898   4.395 -0.0062  0.2046 -0.0872
  227POPC   GL2 3089   6.175   2.254   4.342  0.0124  0.1133  0.1880
  227POPC   C1A 3090   6.092   1.801   4.751  0.0171 -0.1417 -0.0214
  227POPC   D2A 3091   5.842   1.892   5.126 -0.0310  0.0089  0.0901
  227POPC   C3A 3092   5.936   1.899   5.557  0.0103 -0.1833 -0.1385
  227POPC   C4A 3093   5.855   2.292   5.826  0.1182 -0.1188  0.0391
  227POPC   C1B 3094   5.997   2.324   4.716  0.0279  0.1243  0.0304
  227POPC   C2B 3095   5.844   2.409   5.204 -0.2221  0.2544  0.2240
  227POPC   C3B 3096   6.215   2.584   5.448 -0.1393 -0.3935 -0.1875
  227POPC   C4B 3097   6.306   2.607   5.896 -0.1175 -0.1382  0.3458
  228POPC   NC3 3098   2.802   7.364   5.197 -0.0468  0.0463  0.0164
  228POPC   PO4 3099   3.215   7.490   4.976  0.0998  0.1587 -0.4254
  228POPC   GL1 3100   3.308   7.663   5.352  0.0794 -0.4241  0.0132
  228POPC   GL2 3101   3.563   7.641   5.460 -0.3674  0.2599  0.0318
  228POPC   C1A 3102   3.124   8.087   5.553  0.1188 -0.1529  0.0005
  228POPC   D2A 3103   3.242   8.428   5.851 -0.3953  0.2277 -0.3803
  228POPC   C3A 3104   3.660   8.474   6.104 -0.3640  0.2472 -0.1434
  228POPC   C4A 3105   3.894   8.786   6.386  0.0793  0.0421  0.4888
  228POPC   C1B 3106   3.981   7.481   5.514 -0.0169  0.1376 -0.1515
  228POPC   C2B 3107   4.354   7.272   5.527 -0.0298 -0.0656 -0.1108
  228POPC   C3B 3108   4.804   7.359   5.590 -0.2429  0.0321 -0.1880
  228POPC   C4B 3109   5.262   7.457   5.387 -0.0762  0.2621 -0.1196
  229POPC   NC3 3110   3.525   3.102   2.616 -0.0717  0.0493  0.1007
  229POPC   PO4 3111   3.700   2.680   2.611  0.3242 -0.3649  0.3078
  229POPC   GL1 3112   3.917   2.588   3.035 -0.1244 -0.0911 -0.1016
  229POPC   GL2 3113   4.132   2.265   3.047 -0.0726  0.0243 -0.1423
  229POPC   C1A 3114   4.062   2.510   3.498  0.3058 -0.0982 -0.1181
  229POPC   D2A 3115   4.126   2.775   3.829 -0.0370  0.0429 -0.0496
  229POPC   C3A 3116   4.519   2.615   4.065  0.3567 -0.2343 -0.0689
  229POPC   C4A 3117   4.791   2.293   4.278  0.1280 -0.2700  0.0710
  229POPC   C1B 3118   3.833   2.081   3.353 -0.2286  0.3770  0.2310
  229POPC   C2B 3119   3.496   1.836   3.611 -0.1227 -0.0051 -0.2748
  229POPC   C3B 3120   3.218   1.916   3.937 -0.0102 -0.0632 -0.0871
  229POPC   C4B 3121   2.912   1.751   4.037  0.0306  0.0018 -0.0630
  230POPC   NC3 3122   4.994   4.146   3.579  0.0364  0.0789  0.1372
  230POPC   PO4 3123   4.848   4.472   3.952 -0.0829 -0.0374  0.0223
  230POPC   GL1 3124   4.835   4.534   4.374  0.0751  0.1596  0.1780
  230POPC   GL2 3125   4.781   4.793   4.620  0.1776  0.0267 -0.0039
  230POPC   C1A 3126   4.810   4.238   4.672 -0.0452  0.1005 -0.4502
  230POPC   D2A 3127   4.716   4.187   5.090  0.1396  0.1865 -0.0233
  230POPC   C3A 3128   4.371   4.051   5.386  0.1620 -0.0157 -0.0204
  230POPC   C4A 3129   4.071   4.246   5.727  0.0093 -0.0757  0.0020
  230POPC   C1B 3130   4.480   4.606   4.868 -0.1782  0.1901  0.2526
  230POPC   C2B 3131   4.220   4.492   5.191 -0.2621 -0.1102 -0.0507
  230POPC   C3B 3132   3.814   4.503   5.301  0.1502  0.0374 -0.1013
  230POPC   C4B 3133   3.463   4.737   5.319  0.1052 -0.3045  0.0266
  231POPC   NC3 3134   2.252   7.051   4.876  0.1220  0.1558 -0.0330
  231POPC   PO4 3135   2.475   6.849   5.121 -0.2284 -0.1737 -0.2931
  231POPC   GL1 3136   2.315   7.135   5.417  0.1567 -0.1855  0.1011
  231POPC   GL2 3137   1.993   7.347   5.440  0.1186 -0.2126 -0.0455
  231POPC   C1A 3138   2.026   6.918   5.653 -0.2991  0.0637  0.0621
  231POPC   D2A 3139   1.738   6.754   5.803  0.1448  0.0696  0.1595
  231POPC   C3A 3140   1.514   6.774   6.166  0.1581 -0.0383 -0.1258
  231POPC   C4A 3141   1.149   6.995   6.227  0.0809 -0.0432  0.1506
  231POPC   C1B 3142   1.704   7.621   5.692 -0.0581 -0.1945 -0.0804
  231POPC   C2B 3143   1.757   7.865   6.043 -0.0878  0.1065  0.0825
  231POPC   C3B 3144   1.763   7.822   6.418 -0.0619  0.1849 -0.1741
  231POPC   C4B 3145   1.756   7.645   6.845 -0.1334  0.4948 -0.1680
  232POPC   NC3 3146   7.986   5.718   4.780  0.0065 -0.0995  0.3528
  232POPC   PO4 3147   8.196   6.039   4.666  0.1079  0.0666  0.2568
  232POPC   GL1 3148   8.279   5.922   5.075  0.2443 -0.0061  0.0421
  232POPC   GL2 3149   8.642   5.767   5.152  0.1784 -0.3120 -0.2983
  232POPC   C1A 3150   8.333   6.048   5.443  0.1615 -0.0260  0.0525
  232POPC   D2A 3151   8.451   5.924   5.810 -0.0243  0.1013  0.0709
  232POPC   C3A 3152   8.390   5.900   6.173  0.1494  0.1052  0.1857
  232POPC   C4A 3153   7.938   5.944   6.354  0.0186  0.1235 -0.1333
  232POPC   C1B 3154   8.866   5.533   5.478  0.0893  0.1212  0.2995
  232POPC   C2B 3155   8.646   5.440   5.851 -0.2185 -0.0960  0.0320
  232POPC   C3B 3156   8.420   5.336   6.253 -0.1545  0.0909 -0.0196
  232POPC   C4B 3157   8.395   5.697   6.595  0.1027  0.0541 -0.1655
  233POPC   NC3 3158   0.538   5.282   4.354  0.0974  0.3624  0.2052
  233POPC   PO4 3159   0.879   4.928   4.106  0.0477  0.1178  0.2138
  233POPC   GL1 3160   0.828   4.791   4.466  0.3013  0.1734  0.1522
  233POPC   GL2 3161   0.479   4.679   4.727  0.0047 -0.1780  0.1029
  233POPC   C1A 3162   0.934   4.546   4.966  0.2135  0.1941  0.0954
  233POPC   D2A 3163   1.053   4.587   5.417  0.2739 -0.0887 -0.0789
  233POPC   C3A 3164   1.313   4.302   5.731  0.0154  0.1349  0.0178
  233POPC   C4A 3165   1.636   4.297   6.011  0.1246  0.1804 -0.0284
  233POPC   C1B 3166   0.499   4.704   5.245  0.0534 -0.0473 -0.0173
  233POPC   C2B 3167   0.576   4.854   5.670  0.0757  0.1971  0.3014
  233POPC   C3B 3168   0.598   5.031   6.163 -0.0665  0.0860 -0.1549
  233POPC   C4B 3169   0.822   5.340   6.312  0.0286 -0.0027  0.0460
  234POPC   NC3 3170   0.175   0.363   4.415 -0.1509 -0.3311  0.1120
  234POPC   PO4 3171   0.072  -0.024   4.489 -0.0710 -0.1683 -0.0740
  234POPC   GL1 3172   0.100  -0.056   4.938 -0.2071  0.1273  0.4209
  234POPC   GL2 3173   0.276  -0.303   4.940 -0.0206 -0.3753  0.0805
  234POPC   C1A 3174  -0.119  -0.003   5.266 -0.3250 -0.0184 -0.0044
  234POPC   D2A 3175  -0.172   0.215   5.779  0.0587  0.3563  0.3643
  234POPC   C3A 3176   0.171   0.368   6.095  0.0672  0.0664  0.0214
  234POPC   C4A 3177   0.273   0.602   6.336 -0.4040 -0.0111 -0.0416
  234POPC   C1B 3178   0.299  -0.322   5.337 -0.2213 -0.0460  0.2060
  234POPC   C2B 3179   0.227  -0.038   5.659 -0.1473  0.1277  0.1736
  234POPC   C3B 3180   0.307  -0.189   6.020  0.1607 -0.1865 -0.0077
  234POPC   C4B 3181   0.303  -0.226   6.430  0.0175 -0.2450 -0.0147
  235POPC   NC3 3182   7.929   2.593   4.430  0.0398  0.0390 -0.0069
  235POPC   PO4 3183   8.402   2.613   4.520  0.3143 -0.0363 -0.1849
  235POPC   GL1 3184   8.331   2.429   4.874  0.2719 -0.2892  0.0044
  235POPC   GL2 3185   8.400   2.054   4.891  0.1347 -0.2255 -0.0968
  235POPC   C1A 3186   8.121   2.460   5.326 -0.1604 -0.0550  0.2938
  235POPC   D2A 3187   7.923   2.459   5.611  0.1003  0.0166 -0.1920
  235POPC   C3A 3188   7.724   2.174   5.856 -0.0826 -0.0967  0.2656
  235POPC   C4A 3189   7.603   1.793   6.079 -0.2207 -0.0715  0.4260
  235POPC   C1B 3190   8.612   2.212   5.319  0.2676  0.1460  0.0807
  235POPC   C2B 3191   8.919   2.352   5.632  0.2493 -0.0014 -0.0331
  235POPC   C3B 3192   9.016   2.394   6.010  0.0379 -0.2083 -0.0948
  235POPC   C4B 3193   9.136   2.676   6.245 -0.0010 -0.0842 -0.2780
  236POPC   NC3 3194   1.781   3.978   3.926 -0.1133  0.1725 -0.4534
  236POPC   PO4 3195   1.996   4.405   3.826 -0.1371  0.3339  0.0025
  236POPC   GL1 3196   1.972   4.348   4.220 -0.1801 -0.1982 -0.1007
  236POPC   GL2 3197   2.047   4.051   4.462  0.1266 -0.1537  0.0978
  236POPC   C1A 3198   2.046   4.443   4.736  0.3028  0.0135  0.4308
  236POPC   D2A 3199   2.172   4.474   5.128 -0.1487  0.2135 -0.0863
  236POPC   C3A 3200   2.629   4.397   5.128 -0.3959 -0.2437  0.1030
  236POPC   C4A 3201   3.025   4.265   5.463 -0.0550 -0.2911 -0.0028
  236POPC   C1B 3202   2.187   3.762   4.449  0.0599 -0.0771 -0.1496
  236POPC   C2B 3203   2.215   3.532   4.837  0.0174 -0.0437 -0.2663
  236POPC   C3B 3204   2.071   3.237   5.064 -0.0549 -0.4932  0.1603
  236POPC   C4B 3205   2.081   2.920   5.249 -0.0038 -0.1778 -0.0150
  237POPC   NC3 3206   9.510   9.205   4.750 -0.5222 -0.1985  0.5086
  237POPC   PO4 3207   9.811   8.892   4.636 -0.2588 -0.0073 -0.1911
  237POPC   GL1 3208   9.784   8.789   5.075 -0.0261  0.2211 -0.1665
  237POPC   GL2 3209   9.460   8.782   5.082 -0.0510 -0.2231  0.2495
  237POPC   C1A 3210   9.804   8.879   5.586  0.0002  0.2606  0.1508
  237POPC   D2A 3211   9.536   8.746   5.836 -0.1363 -0.0003  0.2721
  237POPC   C3A 3212   9.136   9.047   5.908  0.1892 -0.0721 -0.0910
  237POPC   C4A 3213   8.638   9.205   5.844 -0.0432  0.1710 -0.1470
  237POPC   C1B 3214   9.236   8.630   5.376 -0.1504 -0.1244  0.1495
  237POPC   C2B 3215   9.374   8.292   5.798 -0.1195 -0.5245  0.1237
  237POPC   C3B 3216   9.368   8.011   6.118 -0.1252 -0.1120  0.1445
  237POPC   C4B 3217   9.202   7.569   6.396  0.3806  0.2982  0.1343
  238POPC   NC3 3218   1.536   1.355   3.621  0.1000  0.0766  0.3016
  238POPC   PO4 3219   1.620   1.115   4.002  0.0620 -0.0009 -0.0832
  238POPC   GL1 3220   1.734   0.850   4.324  0.0914 -0.1071 -0.4367
  238POPC   GL2 3221   1.562   0.637   4.522  0.0578  0.0813 -0.0170
  238POPC   C1A 3222   2.052   0.866   4.650  0.0506 -0.0828 -0.0423
  238POPC   D2A 3223   2.421   1.032   4.510 -0.1564  0.0453 -0.2519
  238POPC   C3A 3224   2.865   0.952   4.535 -0.1198 -0.0422  0.4796
  238POPC   C4A 3225   3.297   0.775   4.516  0.4471 -0.0115  0.0614
  238POPC   C1B 3226   1.627   0.880   4.911 -0.1040 -0.0004 -0.0975
  238POPC   C2B 3227   1.616   1.061   5.264  0.0356 -0.4114 -0.0652
  238POPC   C3B 3228   1.861   1.220   5.562 -0.0392 -0.1343 -0.2997
  238POPC   C4B 3229   2.317   1.164   5.740  0.0228  0.1519  0.2223
  239POPC   NC3 3230   1.125   5.804   3.986 -0.3847  0.1290 -0.1119
  239POPC   PO4 3231   0.767   5.743   4.243 -0.2018 -0.4325 -0.1609
  239POPC   GL1 3232   0.856   5.633   4.705 -0.0894  0.0231 -0.0105
  239POPC   GL2 3233   0.599   5.421   4.902  0.1850  0.1154  0.1457
  239POPC   C1A 3234   1.014   5.698   5.231  0.1768 -0.3212 -0.0677
  239POPC   D2A 3235   1.100   5.909   5.584  0.1417  0.1715 -0.4631
  239POPC   C3A 3236   0.781   6.088   5.921 -0.1564  0.0436 -0.2068
  239POPC   C4A 3237   0.540   5.932   6.240 -0.0664  0.1332  0.0050
  239POPC   C1B 3238   0.448   5.231   5.222 -0.3745 -0.0103 -0.1902
  239POPC   C2B 3239   0.384   5.394   5.604 -0.2336 -0.1254  0.3154
  239POPC   C3B 3240   0.123   5.205   5.906  0.0583 -0.6967 -0.0007
  239POPC   C4B 3241  -0.291   4.948   5.885 -0.4425 -0.2096 -0.0324
  240POPC   NC3 3242   2.855   0.382   4.083 -0.5301  0.2042 -0.1206
  240POPC   PO4 3243   2.866   0.009   3.970 -0.0735  0.0893 -0.4244
  240POPC   GL1 3244   3.154   0.012   4.272 -0.0068 -0.2041 -0.1883
  240POPC   GL2 3245   2.927  -0.007   4.529  0.0201  0.1242 -0.2267
  240POPC   C1A 3246   3.374   0.215   4.688  0.1063  0.2884 -0.1180
  240POPC   D2A 3247   3.445   0.426   4.919  0.0950 -0.1172 -0.1672
  240POPC   C3A 3248   3.674   0.882   4.849  0.1996 -0.0412  0.1337
  240POPC   C4A 3249   3.958   1.147   4.992 -0.1356  0.0937  0.1459
  240POPC   C1B 3250   2.868   0.044   4.946 -0.0569  0.0462  0.1233
  240POPC   C2B 3251   2.821   0.460   5.269 -0.3399  0.0536  0.0649
  240POPC   C3B 3252   2.746   0.527   5.702  0.0934  0.0088 -0.0365
  240POPC   C4B 3253   2.812   0.422   6.103 -0.2613 -0.0710  0.0102
  241POPC   NC3 3254   8.433   4.132   4.411  0.3395  0.4135 -0.1637
  241POPC   PO4 3255   8.686   4.425   4.706  0.0711 -0.1548  0.0344
  241POPC   GL1 3256   8.729   4.170   5.027 -0.1164 -0.0538  0.0629
  241POPC   GL2 3257   9.090   4.209   5.108  0.0482 -0.1650  0.0661
  241POPC   C1A 3258   8.385   4.126   5.373 -0.4324 -0.0270 -0.1130
  241POPC   D2A 3259   8.025   3.884   5.414 -0.1646  0.0675  0.1407
  241POPC   C3A 3260   7.986   3.760   5.797 -0.1950 -0.0133 -0.0699
  241POPC   C4A 3261   7.959   3.446   6.087  0.3613 -0.4255  0.0588
  241POPC   C1B 3262   9.372   4.117   5.444 -0.0710 -0.0018 -0.0779
  241POPC   C2B 3263   9.593   3.979   5.776  0.1270 -0.1800  0.1131
  241POPC   C3B 3264   9.828   4.088   6.039 -0.0941  0.3548 -0.2625
  241POPC   C4B 3265  10.245   3.958   6.264  0.0092 -0.3277 -0.0870
  242POPC   NC3 3266   2.418   5.180   4.164 -0.0505 -0.0383 -0.0096
  242POPC   PO4 3267   2.523   5.558   4.311 -0.0040  0.2088  0.5063
  242POPC   GL1 3268   2.367   5.589   4.629 -0.2969  0.0463  0.0254
  242POPC   GL2 3269   2.598   5.497   4.825  0.0159  0.0008 -0.3563
  242POPC   C1A 3270   2.038   5.445   4.964  0.1866  0.2499  0.0482
  242POPC   D2A 3271   1.918   5.361   5.458  0.0005  0.4218  0.2655
  242POPC   C3A 3272   2.263   5.272   5.749 -0.0268 -0.0198 -0.0434
  242POPC   C4A 3273   2.675   5.252   5.604  0.2506  0.1201 -0.1098
  242POPC   C1B 3274   2.767   5.274   5.107 -0.1502 -0.0894 -0.0309
  242POPC   C2B 3275   3.116   5.127   5.355  0.3591 -0.1234  0.4483
  242POPC   C3B 3276   2.896   4.726   5.468  0.1760 -0.0383  0.0684
  242POPC   C4B 3277   2.924   4.471   5.906  0.3664 -0.0472 -0.0285
  243POPC   NC3 3278   9.148   6.380   4.654  0.1198 -0.1132 -0.0337
  243POPC   PO4 3279   8.955   6.735   4.356  0.0272  0.1229  0.1497
  243POPC   GL1 3280   8.839   6.737   4.778  0.0926  0.0049 -0.2274
  243POPC   GL2 3281   8.509   6.771   4.921  0.0184 -0.1805  0.0446
  243POPC   C1A 3282   8.878   6.569   5.156  0.2825 -0.1949  0.0083
  243POPC   D2A 3283   8.669   6.796   5.418 -0.0764  0.2582 -0.1068
  243POPC   C3A 3284   8.612   6.438   5.746  0.0679 -0.1189  0.2751
  243POPC   C4A 3285   8.301   6.361   5.993 -0.1276  0.2951 -0.0693
  243POPC   C1B 3286   8.242   6.553   5.300 -0.0089  0.2727 -0.0477
  243POPC   C2B 3287   7.973   6.427   5.601  0.0984 -0.0145 -0.0050
  243POPC   C3B 3288   7.558   6.339   5.844  0.0458  0.0940  0.2191
  243POPC   C4B 3289   7.439   6.067   6.066  0.1331  0.0620 -0.2521
  244POPC   NC3 3290   9.017   1.388   4.036  0.2465 -0.0653 -0.1141
  244POPC   PO4 3291   8.951   1.668   4.358  0.0241 -0.0420  0.1221
  244POPC   GL1 3292   8.924   1.953   4.819  0.4027  0.2778  0.0934
  244POPC   GL2 3293   8.861   2.263   4.851  0.0171 -0.1637  0.0728
  244POPC   C1A 3294   9.165   1.983   5.175 -0.4727  0.0806 -0.5665
  244POPC   D2A 3295   9.416   2.350   5.411  0.0723 -0.2622 -0.2501
  244POPC   C3A 3296   9.511   2.551   5.738  0.3285 -0.0187 -0.1520
  244POPC   C4A 3297   9.646   2.736   6.223 -0.0317  0.0722 -0.4685
  244POPC   C1B 3298   9.028   2.455   5.168  0.1857 -0.2118  0.4042
  244POPC   C2B 3299   9.064   2.753   5.406 -0.0484  0.2031  0.0016
  244POPC   C3B 3300   8.903   2.889   5.838 -0.0196  0.0640  0.3900
  244POPC   C4B 3301   8.497   3.163   5.955  0.0933  0.2326  0.1645
  245POPC   NC3 3302   9.505   1.098   4.066  0.2796  0.1776 -0.0846
  245POPC   PO4 3303   9.515   0.752   4.415 -0.0254  0.0615 -0.0948
  245POPC   GL1 3304   9.600   0.613   4.816 -0.1706 -0.0081  0.2777
  245POPC   GL2 3305   9.446   0.362   4.807  0.2658 -0.2164 -0.2248
  245POPC   C1A 3306   9.552   0.761   5.300 -0.1825  0.0436  0.3852
  245POPC   D2A 3307   9.192   0.991   5.476  0.0888 -0.2240 -0.0290
  245POPC   C3A 3308   9.149   0.884   5.937  0.0596  0.1097 -0.1676
  245POPC   C4A 3309   9.020   0.973   6.331 -0.0745  0.0443  0.1882
  245POPC   C1B 3310   9.206   0.371   5.047 -0.0467  0.0183 -0.1473
  245POPC   C2B 3311   9.120   0.350   5.472 -0.0671  0.0954 -0.1570
  245POPC   C3B 3312   9.083   0.382   5.939 -0.0887  0.2743 -0.0225
  245POPC   C4B 3313   8.755   0.476   6.045  0.2384  0.1849 -0.0602
  246POPC   NC3 3314   7.974   4.838   4.502 -0.1090  0.1034  0.2891
  246POPC   PO4 3315   8.084   4.411   4.617  0.0964 -0.1514  0.0828
  246POPC   GL1 3316   8.087   4.565   4.959 -0.1204  0.3173  0.1982
  246POPC   GL2 3317   7.967   4.399   5.206  0.1847 -0.0830 -0.0586
  246POPC   C1A 3318   8.317   4.703   5.224 -0.0252 -0.3279 -0.2895
  246POPC   D2A 3319   8.467   5.116   5.423 -0.3468  0.1032 -0.3008
  246POPC   C3A 3320   8.274   4.984   5.861 -0.2554 -0.1437  0.1015
  246POPC   C4A 3321   8.265   4.720   6.191  0.0150 -0.0264 -0.1298
  246POPC   C1B 3322   7.609   4.564   5.342  0.2440 -0.3297  0.0032
  246POPC   C2B 3323   7.324   4.733   5.646 -0.0035  0.1093 -0.0582
  246POPC   C3B 3324   7.317   4.852   6.072 -0.2620  0.1617 -0.0224
  246POPC   C4B 3325   7.293   4.847   6.510  0.1430  0.0162 -0.2433
  247POPC   NC3 3326   6.029   2.512   3.868 -0.2787 -0.0701  0.1942
  247POPC   PO4 3327   6.464   2.617   4.115  0.2855  0.2194  0.2746
  247POPC   GL1 3328   6.273   2.742   4.369  0.3345  0.1432  0.1389
  247POPC   GL2 3329   5.947   2.740   4.349 -0.2591 -0.1280 -0.0418
  247POPC   C1A 3330   6.221   2.801   4.812  0.0746 -0.0880  0.0090
  247POPC   D2A 3331   6.335   3.000   5.136 -0.2606 -0.4829 -0.1595
  247POPC   C3A 3332   6.492   2.959   5.543 -0.3279 -0.1221 -0.1598
  247POPC   C4A 3333   6.710   3.029   5.813  0.0193  0.2448 -0.0655
  247POPC   C1B 3334   5.534   2.565   4.695  0.0584 -0.1660 -0.0530
  247POPC   C2B 3335   5.334   2.645   5.077 -0.0996 -0.1556  0.0568
  247POPC   C3B 3336   5.104   2.442   5.335 -0.1707 -0.0911  0.0339
  247POPC   C4B 3337   4.773   2.212   5.644  0.0824  0.2793  0.1239
  248POPC   NC3 3338   9.426   5.890   4.057  0.0576  0.3173 -0.0499
  248POPC   PO4 3339   9.110   5.828   4.346  0.1012 -0.1043 -0.0275
  248POPC   GL1 3340   9.182   5.853   4.843 -0.3547 -0.0071  0.0834
  248POPC   GL2 3341   9.055   6.025   5.068 -0.1980 -0.0406 -0.1228
  248POPC   C1A 3342   9.245   5.515   5.157 -0.1729  0.0094 -0.0484
  248POPC   D2A 3343   9.191   5.146   5.251  0.1888  0.2191  0.1727
  248POPC   C3A 3344   8.915   4.951   5.555  0.0258  0.2697  0.1868
  248POPC   C4A 3345   8.720   4.841   5.891 -0.4868  0.2382  0.0677
  248POPC   C1B 3346   8.913   6.039   5.484 -0.0159 -0.0739  0.1066
  248POPC   C2B 3347   8.925   5.996   6.051  0.3026  0.2168 -0.2136
  248POPC   C3B 3348   8.695   6.223   6.367 -0.1975 -0.0414 -0.2709
  248POPC   C4B 3349   8.310   6.235   6.642 -0.2647  0.3168 -0.0303
  249POPC   NC3 3350   2.929   8.766   4.513 -0.0027 -0.3103  0.1659
  249POPC   PO4 3351   2.594   8.363   4.589  0.1276  0.0020 -0.2741
  249POPC   GL1 3352   2.679   8.429   5.027  0.3489  0.1532  0.1687
  249POPC   GL2 3353   2.960   8.596   5.121  0.0460 -0.3154 -0.1495
  249POPC   C1A 3354   2.570   8.358   5.522  0.1340  0.1491  0.2654
  249POPC   D2A 3355   2.664   8.315   5.987 -0.2547  0.1559 -0.0532
  249POPC   C3A 3356   2.817   8.604   6.271  0.0017 -0.0311 -0.1106
  249POPC   C4A 3357   2.765   8.732   6.686 -0.0229  0.3313 -0.1937
  249POPC   C1B 3358   2.908   8.702   5.630 -0.0878 -0.1062 -0.0469
  249POPC   C2B 3359   3.127   8.956   5.910  0.1452  0.3829 -0.1355
  249POPC   C3B 3360   3.077   9.359   6.057 -0.0356 -0.1302 -0.3062
  249POPC   C4B 3361   2.768   9.641   6.344 -0.0668  0.2570 -0.0889
  250POPC   NC3 3362   4.857   8.132   4.153  0.1957 -0.2258 -0.1286
  250POPC   PO4 3363   5.102   8.409   4.452 -0.3322  0.1472 -0.0713
  250POPC   GL1 3364   5.046   8.487   4.880 -0.1076 -0.1586  0.1814
  250POPC   GL2 3365   5.189   8.818   4.933  0.1037 -0.1000 -0.3163
  250POPC   C1A 3366   4.842   8.457   5.324 -0.0319 -0.1277 -0.0007
  250POPC   D2A 3367   4.356   8.401   5.476  0.2077 -0.1794  0.0164
  250POPC   C3A 3368   4.484   8.211   5.934 -0.3023  0.0104  0.1838
  250POPC   C4A 3369   4.431   7.950   6.262  0.1365 -0.2164  0.0618
  250POPC   C1B 3370   5.060   9.171   5.332  0.1859  0.2342  0.2490
  250POPC   C2B 3371   5.217   9.322   5.716 -0.0499  0.1633 -0.1656
  250POPC   C3B 3372   5.193   9.525   6.117  0.0571 -0.2344 -0.1551
  250POPC   C4B 3373   5.326   9.621   6.572  0.3038 -0.0418  0.0557
  251POPC   NC3 3374   4.867   9.599   3.963 -0.1293 -0.1319  0.0536
  251POPC   PO4 3375   5.064   9.967   3.995 -0.0275 -0.2631 -0.0583
  251POPC   GL1 3376   5.114  10.265   4.369 -0.2614  0.3139  0.3191
  251POPC   GL2 3377   5.177  10.070   4.620 -0.2164 -0.1660 -0.4000
  251POPC   C1A 3378   4.780  10.494   4.567  0.1060 -0.0769 -0.1232
  251POPC   D2A 3379   4.859  10.960   4.837  0.2889 -0.1184 -0.1418
  251POPC   C3A 3380   4.953  11.380   4.587  0.2021 -0.3910  0.0951
  251POPC   C4A 3381   4.802  11.475   4.193  0.0378 -0.1743 -0.3475
  251POPC   C1B 3382   4.848  10.075   4.916 -0.0734  0.1141 -0.0392
  251POPC   C2B 3383   4.524  10.099   5.197 -0.2402  0.2515  0.3085
  251POPC   C3B 3384   4.506   9.828   5.478 -0.1052  0.0752  0.3085
  251POPC   C4B 3385   4.696   9.448   5.678 -0.0074  0.1621  0.2511
  252POPC   NC3 3386   3.103   8.246   4.840 -0.0854  0.2177  0.1325
  252POPC   PO4 3387   3.376   8.596   4.854 -0.2901 -0.4173  0.1834
  252POPC   GL1 3388   3.499   8.822   5.171 -0.3661  0.1431 -0.1061
  252POPC   GL2 3389   3.392   8.631   5.381 -0.3840 -0.0531 -0.0042
  252POPC   C1A 3390   3.610   9.149   5.393 -0.0785 -0.0361  0.1210
  252POPC   D2A 3391   3.646   9.455   5.789 -0.1130  0.0328  0.1982
  252POPC   C3A 3392   3.750   9.943   5.856 -0.5103  0.1812  0.1063
  252POPC   C4A 3393   4.014  10.419   5.863  0.0788  0.0873 -0.1892
  252POPC   C1B 3394   3.565   8.795   5.757 -0.2791  0.0943  0.1185
  252POPC   C2B 3395   3.542   9.049   6.130 -0.3147 -0.2354  0.0114
  252POPC   C3B 3396   3.258   8.921   6.418  0.0322 -0.0130 -0.0076
  252POPC   C4B 3397   3.264   8.719   6.791  0.0553  0.0598  0.1192
  253POPC   NC3 3398   4.940   8.922   4.520  0.2986  0.2029 -0.1875
  253POPC   PO4 3399   5.051   9.238   4.216  0.1442 -0.0290 -0.0350
  253POPC   GL1 3400   4.819   9.341   4.583 -0.0365 -0.1461 -0.0403
  253POPC   GL2 3401   4.860   9.656   4.494 -0.0966  0.1346  0.0405
  253POPC   C1A 3402   4.416   9.266   4.819  0.3922 -0.0620 -0.1803
  253POPC   D2A 3403   4.511   9.268   5.248  0.0488 -0.0568  0.0745
  253POPC   C3A 3404   4.629   8.957   5.606 -0.3614 -0.0086  0.0201
  253POPC   C4A 3405   5.079   8.732   5.646  0.2250  0.0879 -0.0656
  253POPC   C1B 3406   4.863   9.580   4.982  0.1095 -0.0642 -0.2424
  253POPC   C2B 3407   5.031   9.717   5.394  0.4102 -0.1252 -0.3357
  253POPC   C3B 3408   5.369   9.867   5.698  0.0060  0.0527 -0.2144
  253POPC   C4B 3409   5.575  10.030   6.066  0.0177 -0.1316 -0.4225
  254POPC   NC3 3410   2.717   2.182   2.836 -0.1271 -0.1763 -0.2224
  254POPC   PO4 3411   2.780   2.567   2.564  0.0207  0.2485 -0.3693
  254POPC   GL1 3412   2.733   2.602   3.111 -0.2306 -0.2679  0.0829
  254POPC   GL2 3413   2.891   2.795   3.352  0.0227  0.2210  0.1063
  254POPC   C1A 3414   2.875   2.330   3.489 -0.0220  0.1646  0.1104
  254POPC   D2A 3415   2.868   2.237   3.901  0.2257 -0.1557 -0.0583
  254POPC   C3A 3416   2.909   2.556   4.150 -0.1947 -0.0807 -0.1012
  254POPC   C4A 3417   2.770   2.797   4.546  0.2094  0.4363 -0.2000
  254POPC   C1B 3418   3.186   2.841   3.692  0.1725  0.1137 -0.2120
  254POPC   C2B 3419   3.334   2.462   3.841 -0.1215 -0.0445  0.1662
  254POPC   C3B 3420   3.751   2.294   3.845  0.0404 -0.1979  0.3991
  254POPC   C4B 3421   4.092   2.301   4.175 -0.1735 -0.1706  0.1263
  255POPC   NC3 3422   3.897   6.763   4.718 -0.0545 -0.1355 -0.1660
  255POPC   PO4 3423   4.270   6.856   4.513 -0.0751 -0.0830 -0.0706
  255POPC   GL1 3424   4.540   6.825   4.898  0.2175 -0.1028  0.0479
  255POPC   GL2 3425   4.698   6.464   5.009 -0.4704  0.1799  0.0706
  255POPC   C1A 3426   4.522   6.809   5.373 -0.1477 -0.0596  0.3429
  255POPC   D2A 3427   4.568   6.907   5.806  0.1015  0.0205  0.2501
  255POPC   C3A 3428   4.164   7.081   5.940 -0.0193  0.0637 -0.1381
  255POPC   C4A 3429   4.029   7.470   6.001 -0.3456 -0.2425  0.2359
  255POPC   C1B 3430   4.908   6.514   5.273  0.1060  0.2186  0.0270
  255POPC   C2B 3431   4.876   6.483   5.610  0.3129 -0.0781 -0.3710
  255POPC   C3B 3432   4.781   6.330   5.900 -0.2772  0.0025  0.2283
  255POPC   C4B 3433   4.913   6.031   6.116  0.0778  0.3087  0.0599
  256POPC   NC3 3434   9.086   4.160   4.602 -0.2392 -0.0697  0.0227
  256POPC   PO4 3435   9.161   3.723   4.780 -0.2223 -0.0428  0.3889
  256POPC   GL1 3436   9.308   3.508   5.137 -0.3634  0.0913  0.1548
  256POPC   GL2 3437   9.714   3.486   5.167  0.0732  0.1738 -0.0725
  256POPC   C1A 3438   9.080   3.440   5.512  0.3382 -0.2271 -0.0591
  256POPC   D2A 3439   8.944   3.339   5.869  0.1686 -0.3374  0.0054
  256POPC   C3A 3440   9.162   3.471   6.254 -0.3868  0.2469 -0.3032
  256POPC   C4A 3441   9.226   3.608   6.653 -0.3515  0.1737  0.1192
  256POPC   C1B 3442   9.572   3.491   5.596 -0.1561 -0.2559 -0.0525
  256POPC   C2B 3443   9.601   3.547   6.096 -0.3074  0.0689  0.1076
  256POPC   C3B 3444   9.901   3.632   6.385 -0.0332 -0.0616  0.1884
  256POPC   C4B 3445  10.274   3.492   6.737 -0.0684 -0.1022 -0.3162
  257POPC   NC3 3446   5.540   1.662   3.855 -0.3673  0.2033 -0.2792
  257POPC   PO4 3447   5.697   1.313   4.126 -0.0432  0.0846 -0.2289
  257POPC   GL1 3448   5.577   1.202   4.448  0.1841  0.0448  0.1760
  257POPC   GL2 3449   5.845   1.300   4.659 -0.0139 -0.0021  0.1133
  257POPC   C1A 3450   5.249   1.041   4.677  0.0893  0.0798 -0.4174
  257POPC   D2A 3451   4.960   0.901   5.111 -0.0010 -0.2985  0.2153
  257POPC   C3A 3452   4.506   0.942   5.034 -0.1693  0.1460 -0.1216
  257POPC   C4A 3453   4.227   0.879   4.631  0.2316  0.0593  0.1284
  257POPC   C1B 3454   5.493   1.447   4.953 -0.0372  0.2006  0.0422
  257POPC   C2B 3455   5.209   1.421   5.233  0.3093 -0.1585  0.2088
  257POPC   C3B 3456   4.779   1.259   5.413  0.0216 -0.3986  0.2327
  257POPC   C4B 3457   4.418   1.456   5.280 -0.3110 -0.1081  0.0630
  258POPC   NC3 3458   9.084   8.710   4.251  0.3397 -0.1056  0.0908
  258POPC   PO4 3459   9.128   8.687   4.704  0.0982  0.1954  0.0289
  258POPC   GL1 3460   8.881   8.684   5.045  0.0764  0.2799  0.3687
  258POPC   GL2 3461   8.637   8.644   5.106 -0.0071  0.0662  0.0812
  258POPC   C1A 3462   8.801   8.836   5.548 -0.3247  0.1414 -0.1227
  258POPC   D2A 3463   8.914   8.624   5.861 -0.0602 -0.2345 -0.0163
  258POPC   C3A 3464   9.154   8.620   6.287  0.2402  0.2116  0.2336
  258POPC   C4A 3465   9.639   8.751   6.366  0.0900 -0.0898  0.1481
  258POPC   C1B 3466   8.549   8.228   5.294  0.0504 -0.2542  0.2219
  258POPC   C2B 3467   8.572   8.160   5.769 -0.2206 -0.2639  0.1757
  258POPC   C3B 3468   8.380   8.040   6.067  0.0111  0.0302  0.3682
  258POPC   C4B 3469   8.131   8.037   6.434  0.0361  0.0305  0.1920
  259POPC   NC3 3470   4.943   6.878   3.632 -0.0744  0.1881 -0.3029
  259POPC   PO4 3471   4.958   6.665   4.056 -0.0650 -0.0460  0.1907
  259POPC   GL1 3472   5.284   6.714   4.461  0.1736 -0.0677  0.0312
  259POPC   GL2 3473   5.468   6.979   4.451 -0.2143  0.1744 -0.1279
  259POPC   C1A 3474   5.092   6.822   4.856  0.1444  0.3122  0.3877
  259POPC   D2A 3475   5.069   7.138   5.004 -0.0135 -0.0921  0.1285
  259POPC   C3A 3476   4.737   7.288   5.103 -0.2012 -0.1292  0.0595
  259POPC   C4A 3477   4.811   7.693   5.074 -0.0939  0.0187 -0.1736
  259POPC   C1B 3478   5.626   7.000   4.840  0.3443  0.1663 -0.0072
  259POPC   C2B 3479   5.487   6.900   5.151  0.0325 -0.2423  0.0252
  259POPC   C3B 3480   5.090   6.985   5.540 -0.2007 -0.0911 -0.2448
  259POPC   C4B 3481   5.092   6.964   5.958  0.0876 -0.1428  0.3559
  260POPC   NC3 3482   7.358   0.608   4.191 -0.2563  0.1392 -0.1605
  260POPC   PO4 3483   7.018   0.420   4.204  0.1021  0.0202  0.3531
  260POPC   GL1 3484   7.069   0.533   4.605  0.0925  0.0177 -0.1089
  260POPC   GL2 3485   6.907   0.870   4.740 -0.3322 -0.0948 -0.0370
  260POPC   C1A 3486   7.237   0.521   5.050  0.2314  0.1716  0.0806
  260POPC   D2A 3487   7.143   0.342   5.493 -0.2071  0.1846  0.1124
  260POPC   C3A 3488   7.074   0.488   5.874  0.0203 -0.0009 -0.1621
  260POPC   C4A 3489   6.969   0.952   5.931  0.0459  0.0503  0.2518
  260POPC   C1B 3490   6.491   0.808   4.970  0.4066  0.0185  0.0500
  260POPC   C2B 3491   6.069   0.772   5.296  0.0945  0.1199  0.2686
  260POPC   C3B 3492   5.753   0.605   5.653 -0.1089  0.2718  0.0270
  260POPC   C4B 3493   5.315   0.687   5.747 -0.1232  0.3067 -0.2163
  261POPC   NC3 3494   8.014   1.768   3.993  0.2774 -0.0014 -0.1001
  261POPC   PO4 3495   7.712   2.006   4.222  0.5444  0.0363  0.3402
  261POPC   GL1 3496   7.567   2.012   4.618 -0.0165  0.0479 -0.1143
  261POPC   GL2 3497   7.778   2.237   4.766 -0.1656 -0.1138  0.2669
  261POPC   C1A 3498   7.411   1.883   5.006  0.2163  0.1297 -0.1018
  261POPC   D2A 3499   7.336   1.907   5.388 -0.0206  0.2312 -0.0808
  261POPC   C3A 3500   7.355   1.520   5.631  0.0291  0.0641 -0.1334
  261POPC   C4A 3501   7.449   1.281   5.940  0.2517 -0.1002  0.4426
  261POPC   C1B 3502   7.901   2.059   5.027 -0.2557  0.3786 -0.1347
  261POPC   C2B 3503   7.801   1.703   5.259 -0.2391 -0.3607 -0.1511
  261POPC   C3B 3504   7.554   1.290   5.262  0.0476  0.0868 -0.0227
  261POPC   C4B 3505   7.694   0.873   5.133  0.4072 -0.0864  0.0129
  262POPC   NC3 3506   2.890   5.861   4.028  0.1897  0.0900  0.1219
  262POPC   PO4 3507   2.896   5.800   4.468 -0.3256  0.2104 -0.0074
  262POPC   GL1 3508   3.106   5.666   4.911 -0.0965 -0.0249 -0.1967
  262POPC   GL2 3509   3.313   5.441   4.931 -0.2082 -0.1912 -0.0530
  262POPC   C1A 3510   2.954   5.605   5.381 -0.0530  0.1376 -0.1724
  262POPC   D2A 3511   3.111   5.555   5.793  0.0932  0.1718 -0.0409
  262POPC   C3A 3512   3.397   5.933   5.818 -0.1289 -0.0822 -0.3796
  262POPC   C4A 3513   3.716   6.208   5.804 -0.0741  0.0203 -0.0223
  262POPC   C1B 3514   3.646   5.211   5.191 -0.2034 -0.0138 -0.0252
  262POPC   C2B 3515   3.829   5.138   5.556  0.2094  0.0123  0.1055
  262POPC   C3B 3516   3.489   4.958   5.805  0.3045 -0.3349  0.2221
  262POPC   C4B 3517   3.039   4.980   5.841 -0.1077  0.0999  0.1571
  263POPC   NC3 3518   5.395   4.387   3.873  0.0621 -0.0136 -0.1450
  263POPC   PO4 3519   5.323   4.622   4.194 -0.0566 -0.0230 -0.0220
  263POPC   GL1 3520   5.297   4.744   4.697  0.3142 -0.2022 -0.0491
  263POPC   GL2 3521   5.229   5.003   4.865  0.0565 -0.0379  0.2328
  263POPC   C1A 3522   5.132   4.534   4.976 -0.1827  0.1338 -0.4030
  263POPC   D2A 3523   5.027   4.441   5.360  0.2815  0.2114 -0.2573
  263POPC   C3A 3524   4.927   4.035   5.489 -0.4501 -0.2602  0.1883
  263POPC   C4A 3525   4.705   3.729   5.541 -0.0262 -0.2284  0.0838
  263POPC   C1B 3526   5.120   5.080   5.203  0.1954 -0.3164 -0.0747
  263POPC   C2B 3527   5.008   4.961   5.664  0.0252  0.0309  0.4788
  263POPC   C3B 3528   4.900   4.652   5.946 -0.1796  0.1569  0.1897
  263POPC   C4B 3529   4.965   4.281   6.169  0.3455 -0.1123 -0.3402
  264POPC   NC3 3530   2.394   8.016   5.005  0.2369  0.1935 -0.0616
  264POPC   PO4 3531   2.330   7.528   5.038 -0.0397  0.2524  0.1265
  264POPC   GL1 3532   2.360   7.675   5.430 -0.0683  0.0987  0.2003
  264POPC   GL2 3533   2.609   7.536   5.578  0.3109 -0.0004 -0.1923
  264POPC   C1A 3534   2.399   7.936   5.850 -0.0288 -0.0823  0.5279
  264POPC   D2A 3535   2.209   7.950   6.246 -0.2212  0.3468  0.2081
  264POPC   C3A 3536   2.193   7.917   6.672 -0.0702 -0.3726  0.0582
  264POPC   C4A 3537   2.349   7.716   6.960 -0.1617  0.1685  0.0260
  264POPC   C1B 3538   2.673   7.237   5.890  0.0937  0.0180 -0.0278
  264POPC   C2B 3539   3.017   6.983   5.925 -0.2094  0.2484  0.5426
  264POPC   C3B 3540   3.375   7.050   6.122 -0.0990 -0.3087 -0.0312
  264POPC   C4B 3541   3.428   7.430   6.310  0.0919  0.0024  0.0012
  265POPC   NC3 3542   8.750   5.764   4.670 -0.0022 -0.1762  0.0397
  265POPC   PO4 3543   8.407   5.451   4.667  0.0749 -0.3277 -0.2280
  265POPC   GL1 3544   8.206   5.398   5.085  0.1655  0.2760  0.3638
  265POPC   GL2 3545   7.951   5.102   4.968  0.0853 -0.0992 -0.4422
  265POPC   C1A 3546   8.254   5.581   5.473 -0.1304  0.1853  0.0882
  265POPC   D2A 3547   8.048   5.490   5.912  0.0849 -0.5216  0.1799
  265POPC   C3A 3548   7.911   5.159   6.128  0.1296  0.2458 -0.1675
  265POPC   C4A 3549   7.557   5.197   6.349 -0.0279  0.2052 -0.1597
  265POPC   C1B 3550   7.918   5.020   5.442 -0.0992 -0.1762 -0.1585
  265POPC   C2B 3551   7.795   4.728   5.793 -0.2042  0.1098  0.0267
  265POPC   C3B 3552   7.778   4.552   6.183  0.2513 -0.0013  0.1156
  265POPC   C4B 3553   7.616   4.489   6.712 -0.0493 -0.0694  0.2301
  266POPC   NC3 3554   8.644   8.693   4.616 -0.0711 -0.0670  0.1143
  266POPC   PO4 3555   8.650   9.012   4.343  0.0051 -0.0468 -0.2963
  266POPC   GL1 3556   8.633   9.088   4.859 -0.2481  0.0432 -0.1488
  266POPC   GL2 3557   8.732   9.338   4.914 -0.0938 -0.2617 -0.2097
  266POPC   C1A 3558   8.413   9.146   5.314  0.0669 -0.1620  0.0505
  266POPC   D2A 3559   8.002   9.198   5.462  0.0465  0.0005 -0.2155
  266POPC   C3A 3560   7.770   8.941   5.660 -0.0580 -0.1099  0.2004
  266POPC   C4A 3561   7.902   8.714   5.997  0.3861  0.3872 -0.0973
  266POPC   C1B 3562   8.689   9.607   5.313  0.3321 -0.0550  0.3769
  266POPC   C2B 3563   8.601   9.764   5.711 -0.1088 -0.1021 -0.1430
  266POPC   C3B 3564   8.309  10.026   5.853  0.1603  0.1226 -0.1719
  266POPC   C4B 3565   8.075  10.326   6.062 -0.1352  0.2592  0.1134
  267POPC   NC3 3566   8.915   0.800   3.827  0.2311 -0.0557 -0.0928
  267POPC   PO4 3567   9.074   0.912   4.206 -0.0034  0.0588  0.2586
  267POPC   GL1 3568   9.115   1.172   4.535  0.1608 -0.0977 -0.0909
  267POPC   GL2 3569   9.394   1.163   4.661 -0.0896 -0.0268 -0.3272
  267POPC   C1A 3570   9.036   1.063   4.983  0.1413  0.2581  0.0526
  267POPC   D2A 3571   8.639   1.119   5.271  0.1982  0.1410  0.0165
  267POPC   C3A 3572   8.408   1.446   5.579 -0.2710 -0.1863  0.1220
  267POPC   C4A 3573   8.246   1.900   5.426  0.1032  0.1175 -0.3483
  267POPC   C1B 3574   9.531   1.193   5.029 -0.0999  0.0170 -0.1211
  267POPC   C2B 3575   9.666   1.196   5.450  0.1436  0.0719 -0.2580
  267POPC   C3B 3576   9.510   1.357   5.741 -0.4087  0.1631 -0.2089
  267POPC   C4B 3577   9.369   1.520   6.127 -0.4517 -0.2532 -0.1927
  268POPC   NC3 3578   0.646   7.038   4.123  0.1033 -0.2545 -0.3723
  268POPC   PO4 3579   0.641   7.211   4.559  0.0311 -0.4731 -0.1256
  268POPC   GL1 3580   0.819   7.094   5.011 -0.0380 -0.0464  0.2971
  268POPC   GL2 3581   0.693   7.383   5.073  0.1251  0.1235  0.1074
  268POPC   C1A 3582   0.765   7.054   5.496  0.2355  0.0165 -0.1189
  268POPC   D2A 3583   1.043   7.274   5.803  0.2461  0.0798  0.0973
  268POPC   C3A 3584   1.468   7.227   5.896 -0.0551 -0.2000  0.0650
  268POPC   C4A 3585   1.798   7.325   6.227  0.1467  0.0496  0.0713
  268POPC   C1B 3586   0.272   7.181   5.308 -0.0484 -0.1194  0.1302
  268POPC   C2B 3587  -0.025   7.268   5.684 -0.0542 -0.0953  0.0530
  268POPC   C3B 3588  -0.246   7.013   6.116 -0.1384 -0.0760 -0.0559
  268POPC   C4B 3589  -0.350   6.812   6.466  0.1353  0.1904  0.0039
  269POPC   NC3 3590   7.342   1.441   4.523  0.0767  0.4747  0.4263
  269POPC   PO4 3591   7.367   1.007   4.596 -0.1959 -0.2891 -0.2220
  269POPC   GL1 3592   7.173   1.180   4.985  0.2832 -0.3328 -0.1828
  269POPC   GL2 3593   7.135   1.497   4.985  0.1735  0.0887 -0.0218
  269POPC   C1A 3594   6.934   0.994   5.230 -0.3001 -0.3091 -0.0092
  269POPC   D2A 3595   6.722   0.779   5.535 -0.1947  0.2530 -0.2894
  269POPC   C3A 3596   6.694   0.326   5.223  0.1781 -0.0482 -0.3005
  269POPC   C4A 3597   6.743   0.320   4.882  0.0383 -0.0296  0.1973
  269POPC   C1B 3598   6.962   1.569   5.328 -0.0462  0.2277  0.1407
  269POPC   C2B 3599   6.705   1.490   5.780  0.1770  0.4019  0.2317
  269POPC   C3B 3600   6.571   1.310   6.207  0.2250  0.0930 -0.0496
  269POPC   C4B 3601   6.217   1.304   6.534 -0.2966  0.0757 -0.1556
  270POPC   NC3 3602   9.522   4.552   4.605 -0.0585  0.1795 -0.1626
  270POPC   PO4 3603   9.872   4.349   4.417  0.0260 -0.1352 -0.0371
  270POPC   GL1 3604   9.840   4.312   4.917 -0.0872 -0.1962  0.0998
  270POPC   GL2 3605   9.595   4.296   5.007  0.0731  0.0879 -0.0851
  270POPC   C1A 3606   9.823   4.356   5.432  0.2436 -0.3324 -0.0941
  270POPC   D2A 3607  10.197   4.323   5.622 -0.1443  0.2814  0.3062
  270POPC   C3A 3608  10.575   4.400   6.016 -0.0949 -0.0135 -0.1714
  270POPC   C4A 3609  10.830   4.540   6.344 -0.0990  0.0325 -0.1738
  270POPC   C1B 3610   9.879   3.915   5.282 -0.1701  0.0592  0.4443
  270POPC   C2B 3611  10.220   3.804   5.628  0.3081  0.1319  0.1483
  270POPC   C3B 3612  10.119   3.541   5.904 -0.0156  0.3854  0.2999
  270POPC   C4B 3613   9.920   3.142   5.990 -0.1939 -0.2592  0.0545
  271POPC   NC3 3614   0.567   8.769   4.251 -0.0069  0.0765 -0.0830
  271POPC   PO4 3615   0.995   8.583   4.495  0.1342 -0.3642 -0.1365
  271POPC   GL1 3616   1.066   8.568   4.932  0.0457  0.1430 -0.0336
  271POPC   GL2 3617   1.012   8.702   5.141  0.0435  0.0261 -0.2629
  271POPC   C1A 3618   0.961   8.213   5.331  0.1990 -0.1310 -0.0438
  271POPC   D2A 3619   1.353   8.114   5.650 -0.0041 -0.0209  0.2681
  271POPC   C3A 3620   1.402   8.207   6.127  0.1069  0.0284  0.1922
  271POPC   C4A 3621   1.218   8.568   6.437  0.0406 -0.1434  0.2858
  271POPC   C1B 3622   1.142   8.623   5.600  0.0413  0.3675 -0.0199
  271POPC   C2B 3623   0.980   8.310   5.902  0.2179  0.2263 -0.0056
  271POPC   C3B 3624   0.925   8.219   6.310  0.0571  0.0538  0.1069
  271POPC   C4B 3625   0.834   8.431   6.753 -0.0021  0.0173 -0.0232
  272POPC   NC3 3626   1.256   0.794   4.149 -0.1010  0.3545  0.1317
  272POPC   PO4 3627   1.100   1.222   3.894 -0.2656  0.0190 -0.2273
  272POPC   GL1 3628   1.178   1.258   4.355  0.1655 -0.0929  0.4233
  272POPC   GL2 3629   1.461   1.214   4.519 -0.0415 -0.0354  0.3835
  272POPC   C1A 3630   0.958   1.499   4.690  0.2326  0.0119  0.3405
  272POPC   D2A 3631   1.042   1.897   4.849 -0.0075  0.2017 -0.1722
  272POPC   C3A 3632   0.756   2.026   5.232  0.2216 -0.1535  0.1269
  272POPC   C4A 3633   0.570   2.009   5.619 -0.0551  0.3749  0.1648
  272POPC   C1B 3634   1.755   1.443   4.790  0.1134 -0.1035  0.1348
  272POPC   C2B 3635   1.839   1.601   5.125 -0.3223 -0.2011  0.2587
  272POPC   C3B 3636   1.872   1.736   5.412 -0.2770 -0.0188 -0.1984
  272POPC   C4B 3637   1.926   2.027   5.695 -0.0937 -0.4137 -0.1891
  273POPC   NC3 3638   6.905   3.875   3.387  0.1957  0.0064 -0.1285
  273POPC   PO4 3639   7.049   4.017   3.886  0.0298 -0.2635  0.0643
  273POPC   GL1 3640   6.973   4.049   4.324 -0.2560  0.1685 -0.2565
  273POPC   GL2 3641   6.686   3.656   4.450  0.1396  0.1812 -0.0110
  273POPC   C1A 3642   6.810   4.037   4.778  0.1913 -0.0257 -0.0709
  273POPC   D2A 3643   6.726   3.827   5.270 -0.2735  0.3908  0.1939
  273POPC   C3A 3644   6.641   4.026   5.695 -0.3515 -0.0816 -0.2247
  273POPC   C4A 3645   6.862   4.011   6.046 -0.1391  0.0286 -0.1374
  273POPC   C1B 3646   6.390   3.740   4.842  0.4327  0.1925  0.0249
  273POPC   C2B 3647   6.343   3.510   5.225 -0.1780 -0.0989  0.0659
  273POPC   C3B 3648   6.381   3.514   5.632  0.1193 -0.1411  0.1350
  273POPC   C4B 3649   6.309   3.273   6.031 -0.3200 -0.2976 -0.1393
  274POPC   NC3 3650   5.802   4.685   4.244 -0.0527 -0.1232 -0.1066
  274POPC   PO4 3651   5.764   4.180   4.263  0.1071 -0.1225 -0.1474
  274POPC   GL1 3652   5.669   4.450   4.683 -0.0175 -0.1188  0.1762
  274POPC   GL2 3653   5.882   4.705   4.792  0.0567  0.1520  0.1162
  274POPC   C1A 3654   5.537   4.310   5.087  0.0212  0.0326  0.0802
  274POPC   D2A 3655   5.426   4.030   5.430 -0.1326  0.1863  0.0673
  274POPC   C3A 3656   5.612   4.029   5.756 -0.0541  0.1643 -0.1533
  274POPC   C4A 3657   5.606   3.968   6.113  0.0399  0.2334 -0.0825
  274POPC   C1B 3658   5.888   4.558   5.232 -0.3824 -0.0702 -0.3764
  274POPC   C2B 3659   5.809   4.503   5.668 -0.1239 -0.0704  0.1620
  274POPC   C3B 3660   6.002   4.381   5.976 -0.2990 -0.1149  0.3109
  274POPC   C4B 3661   6.445   4.309   6.053 -0.0973  0.2875  0.2209
  275POPC   NC3 3662   8.594   1.066   4.322  0.0108 -0.2707  0.0864
  275POPC   PO4 3663   8.481   1.571   4.166 -0.2598 -0.1357  0.0971
  275POPC   GL1 3664   8.510   1.651   4.609 -0.1000 -0.0238 -0.0420
  275POPC   GL2 3665   8.678   1.421   4.703  0.0030 -0.1712  0.0543
  275POPC   C1A 3666   8.216   1.516   4.979 -0.0587 -0.1448 -0.1287
  275POPC   D2A 3667   8.055   1.213   5.230  0.0982  0.2059 -0.2734
  275POPC   C3A 3668   7.926   1.439   5.639  0.4684  0.0720  0.0053
  275POPC   C4A 3669   8.132   1.754   5.953 -0.2650 -0.4559 -0.0030
  275POPC   C1B 3670   8.700   1.656   5.162  0.2739 -0.1922 -0.0626
  275POPC   C2B 3671   8.794   1.795   5.560 -0.0068  0.0840  0.0177
  275POPC   C3B 3672   8.590   2.048   5.813  0.3414  0.1261  0.1700
  275POPC   C4B 3673   8.220   2.311   5.966 -0.1350  0.2600 -0.0495
  276POPC   NC3 3674   5.544   0.362   4.127 -0.1711  0.1582 -0.0795
  276POPC   PO4 3675   6.020   0.402   4.160 -0.0676  0.0302  0.2408
  276POPC   GL1 3676   6.156   0.544   4.584  0.0250  0.0745 -0.2108
  276POPC   GL2 3677   5.946   0.782   4.731  0.1003 -0.2021  0.0471
  276POPC   C1A 3678   6.269   0.288   4.985 -0.0339 -0.1526  0.0776
  276POPC   D2A 3679   6.186   0.256   5.360 -0.0348 -0.0082 -0.0459
  276POPC   C3A 3680   6.288   0.610   5.721  0.1347 -0.0073 -0.3862
  276POPC   C4A 3681   6.533   0.819   5.985 -0.2980  0.1089  0.2930
  276POPC   C1B 3682   5.667   0.948   4.984 -0.1197 -0.1877 -0.0385
  276POPC   C2B 3683   5.432   1.009   5.347  0.0113 -0.2781 -0.1750
  276POPC   C3B 3684   5.208   1.158   5.626 -0.1803  0.1116 -0.3763
  276POPC   C4B 3685   4.930   1.233   6.092 -0.3280  0.0145  0.0480
  277POPC   NC3 3686   0.919   1.969   3.018 -0.0068  0.0341  0.0577
  277POPC   PO4 3687   1.114   2.086   3.457  0.3389 -0.1250  0.0690
  277POPC   GL1 3688   1.244   2.008   3.878  0.0248 -0.1595 -0.2429
  277POPC   GL2 3689   1.148   1.794   4.203  0.1764 -0.1227  0.1520
  277POPC   C1A 3690   1.639   2.173   4.159  0.1227  0.2667  0.1213
  277POPC   D2A 3691   1.987   2.335   4.314 -0.1197  0.4094 -0.1262
  277POPC   C3A 3692   2.346   2.462   4.123 -0.0250  0.0380  0.2293
  277POPC   C4A 3693   2.640   2.654   3.744 -0.0759  0.0518  0.0590
  277POPC   C1B 3694   1.444   1.790   4.481  0.2943  0.3028  0.1241
  277POPC   C2B 3695   1.919   1.853   4.473 -0.1080  0.1605  0.1190
  277POPC   C3B 3696   2.250   2.059   4.602  0.1406  0.0097  0.2302
  277POPC   C4B 3697   2.489   2.409   4.588 -0.3167  0.0572  0.1389
  278POPC   NC3 3698   2.422   1.413   3.406 -0.0070  0.3427  0.1146
  278POPC   PO4 3699   2.078   1.394   3.721  0.1442  0.0580  0.1709
  278POPC   GL1 3700   2.066   1.566   4.038 -0.1139  0.0855  0.2650
  278POPC   GL2 3701   1.908   1.380   4.299  0.2844  0.0039 -0.1567
  278POPC   C1A 3702   2.371   1.708   4.312  0.3882 -0.0436 -0.0139
  278POPC   D2A 3703   2.736   1.988   4.488 -0.1317  0.0043  0.1439
  278POPC   C3A 3704   3.196   1.893   4.495  0.1042 -0.2459  0.1466
  278POPC   C4A 3705   3.611   2.136   4.330 -0.2670  0.1902 -0.2337
  278POPC   C1B 3706   2.204   1.437   4.636  0.0707  0.0652 -0.2567
  278POPC   C2B 3707   2.495   1.679   4.900  0.0316 -0.2285 -0.0451
  278POPC   C3B 3708   2.954   1.924   5.009  0.1837 -0.4825  0.0638
  278POPC   C4B 3709   3.335   1.837   5.138 -0.2211 -0.1037  0.2135
  279POPC   NC3 3710   7.272   8.245   3.938 -0.0044 -0.0673  0.1504
  279POPC   PO4 3711   7.072   8.647   4.000  0.0793 -0.2189  0.0844
  279POPC   GL1 3712   6.894   8.502   4.357 -0.1918  0.1007 -0.4262
  279POPC   GL2 3713   6.731   8.788   4.564  0.1759  0.2910  0.0890
  279POPC   C1A 3714   6.872   8.383   4.812  0.2047  0.0780  0.2660
  279POPC   D2A 3715   6.671   8.164   5.039  0.0018 -0.2437 -0.0901
  279POPC   C3A 3716   6.853   7.754   4.947 -0.1176  0.1550 -0.0280
  279POPC   C4A 3717   7.162   7.676   4.789  0.0871  0.1045  0.1214
  279POPC   C1B 3718   6.794   8.908   4.965 -0.1567  0.0798 -0.1299
  279POPC   C2B 3719   6.794   8.970   5.400  0.1797 -0.1337 -0.3466
  279POPC   C3B 3720   6.837   9.189   5.817 -0.0206  0.3478 -0.1502
  279POPC   C4B 3721   6.690   9.248   6.280 -0.2735 -0.0688 -0.2978
  280POPC   NC3 3722   1.579   3.782   3.302 -0.4164  0.1134 -0.1326
  280POPC   PO4 3723   1.263   3.873   3.676 -0.1481  0.1639  0.1688
  280POPC   GL1 3724   1.230   3.973   4.100  0.2075  0.1559 -0.0212
  280POPC   GL2 3725   1.482   4.249   4.305 -0.0193  0.0866  0.1114
  280POPC   C1A 3726   1.236   3.824   4.601 -0.0242  0.0576 -0.2413
  280POPC   D2A 3727   1.228   4.105   5.004  0.0374 -0.0284 -0.0370
  280POPC   C3A 3728   1.477   3.868   5.341  0.0769  0.0193  0.1927
  280POPC   C4A 3729   1.670   3.855   5.716  0.2936 -0.0763  0.2312
  280POPC   C1B 3730   1.553   4.163   4.644  0.0298  0.0516  0.1249
  280POPC   C2B 3731   1.806   4.082   5.009  0.1375 -0.0449  0.3022
  280POPC   C3B 3732   1.962   3.730   5.290  0.0969 -0.3465 -0.1391
  280POPC   C4B 3733   2.309   3.507   5.457  0.0385  0.0521  0.1614
  281POPC   NC3 3734   0.034   6.567   4.497 -0.1475  0.3454 -0.0646
  281POPC   PO4 3735  -0.045   6.142   4.740 -0.1210  0.0367  0.1011
  281POPC   GL1 3736  -0.084   6.190   5.144  0.2464 -0.0237 -0.0465
  281POPC   GL2 3737  -0.376   6.425   5.225 -0.2120  0.1720  0.0479
  281POPC   C1A 3738  -0.245   5.997   5.549  0.4257 -0.0550  0.1154
  281POPC   D2A 3739  -0.301   6.106   5.959  0.1462 -0.3087  0.2319
  281POPC   C3A 3740   0.005   5.968   6.298  0.0294  0.2571  0.0662
  281POPC   C4A 3741   0.201   5.778   6.668  0.2238 -0.1241  0.1025
  281POPC   C1B 3742  -0.523   6.522   5.666  0.0856  0.0061 -0.0241
  281POPC   C2B 3743  -0.543   6.535   6.043 -0.5142 -0.4326 -0.0594
  281POPC   C3B 3744  -0.934   6.704   6.353 -0.2806  0.2148 -0.0847
  281POPC   C4B 3745  -1.340   6.742   6.376 -0.2538 -0.0054 -0.1296
  282POPC   NC3 3746   0.291   1.653   4.109  0.2233  0.1471 -0.1348
  282POPC   PO4 3747   0.270   1.271   4.111  0.2073 -0.1801 -0.0298
  282POPC   GL1 3748   0.525   1.315   4.484  0.0966 -0.0468 -0.0938
  282POPC   GL2 3749   0.294   1.362   4.687 -0.3577  0.1156 -0.3025
  282POPC   C1A 3750   0.700   1.096   4.798  0.1965 -0.1897  0.0651
  282POPC   D2A 3751   0.858   0.942   5.211  0.0357  0.0455 -0.0501
  282POPC   C3A 3752   1.021   1.133   5.635 -0.0631 -0.0962 -0.1430
  282POPC   C4A 3753   1.164   1.159   6.102  0.1300 -0.1308  0.1082
  282POPC   C1B 3754   0.407   1.375   5.112 -0.3299  0.2268 -0.2093
  282POPC   C2B 3755   0.382   1.574   5.535 -0.2537 -0.0130 -0.1962
  282POPC   C3B 3756   0.129   1.714   5.884  0.0307  0.3886 -0.0854
  282POPC   C4B 3757  -0.132   2.075   6.018  0.2945  0.0171 -0.2464
  283POPC   NC3 3758   2.083   0.936   3.942 -0.0796 -0.0409 -0.2431
  283POPC   PO4 3759   2.440   0.590   3.998 -0.0691 -0.2288  0.3132
  283POPC   GL1 3760   2.503   0.402   4.451  0.1212  0.1560  0.1572
  283POPC   GL2 3761   2.376   0.149   4.629 -0.2314 -0.1188  0.1092
  283POPC   C1A 3762   2.454   0.619   4.905  0.1976 -0.2747 -0.0509
  283POPC   D2A 3763   2.462   0.819   5.347  0.1278 -0.1751  0.1865
  283POPC   C3A 3764   2.036   0.775   5.608 -0.2802 -0.1217 -0.0952
  283POPC   C4A 3765   1.761   0.473   5.510  0.1775  0.1433  0.0022
  283POPC   C1B 3766   2.389   0.105   5.027  0.0786  0.0395 -0.2039
  283POPC   C2B 3767   2.357   0.251   5.407  0.1015  0.2440  0.1703
  283POPC   C3B 3768   2.259   0.294   5.790 -0.0890  0.1595 -0.1343
  283POPC   C4B 3769   2.246  -0.022   6.142  0.0274 -0.1297 -0.0034
  284POPC   NC3 3770   3.387   6.660   4.813 -0.0276 -0.1509  0.2030
  284POPC   PO4 3771   3.073   6.954   5.088  0.2431  0.2558 -0.2020
  284POPC   GL1 3772   3.263   6.576   5.369  0.1341  0.0329  0.5376
  284POPC   GL2 3773   3.387   6.297   5.354 -0.0494  0.2725  0.2527
  284POPC   C1A 3774   3.435   6.641   5.658 -0.0604  0.0886  0.0163
  284POPC   D2A 3775   3.308   6.594   6.102 -0.0580  0.3404 -0.0676
  284POPC   C3A 3776   3.379   6.167   6.292 -0.0535  0.0619 -0.0614
  284POPC   C4A 3777   3.244   5.766   6.347 -0.1081 -0.2774 -0.2537
  284POPC   C1B 3778   2.969   6.245   5.667  0.0952 -0.1148  0.3414
  284POPC   C2B 3779   2.791   6.504   5.911 -0.0280 -0.1110 -0.1307
  284POPC   C3B 3780   2.657   6.831   6.243 -0.1407 -0.1169  0.3241
  284POPC   C4B 3781   2.455   6.880   6.561 -0.0117 -0.1275 -0.1339
  285POPC   NC3 3782   6.751   9.123   4.144 -0.0312 -0.0680  0.1390
  285POPC   PO4 3783   7.173   9.051   4.256  0.0909 -0.2529  0.2367
  285POPC   GL1 3784   7.044   9.199   4.625 -0.1000 -0.1015  0.3352
  285POPC   GL2 3785   6.982   9.561   4.658 -0.0800 -0.1066 -0.0207
  285POPC   C1A 3786   7.195   9.182   4.979  0.2800 -0.0957  0.0641
  285POPC   D2A 3787   7.456   9.159   5.242 -0.1967  0.2649 -0.1545
  285POPC   C3A 3788   7.302   8.823   5.432  0.2137  0.2321 -0.1214
  285POPC   C4A 3789   7.006   8.548   5.339 -0.2147 -0.0369 -0.0327
  285POPC   C1B 3790   6.806   9.443   5.111  0.1872  0.1488  0.1750
  285POPC   C2B 3791   6.578   9.398   5.461 -0.3572  0.1586  0.2352
  285POPC   C3B 3792   6.375   9.383   5.876 -0.0839  0.0057 -0.0312
  285POPC   C4B 3793   6.237   9.489   6.174  0.0252 -0.0885 -0.1570
  286POPC   NC3 3794   4.704   5.695   4.375 -0.2259  0.1167 -0.1274
  286POPC   PO4 3795   5.082   5.867   4.371  0.1080  0.4119  0.2096
  286POPC   GL1 3796   4.999   5.762   4.762  0.0590  0.0046  0.1845
  286POPC   GL2 3797   5.277   5.486   4.901  0.1815 -0.0940 -0.1352
  286POPC   C1A 3798   5.176   5.970   5.124  0.0326 -0.2202  0.2369
  286POPC   D2A 3799   5.033   5.966   5.632  0.0263 -0.0792  0.2068
  286POPC   C3A 3800   5.453   5.790   5.754 -0.0153 -0.1505 -0.2417
  286POPC   C4A 3801   5.734   5.505   5.974  0.0098 -0.1134 -0.0652
  286POPC   C1B 3802   5.562   5.523   5.176  0.0304  0.1809 -0.0094
  286POPC   C2B 3803   5.830   5.462   5.516 -0.0603 -0.0233  0.0455
  286POPC   C3B 3804   6.274   5.415   5.742 -0.0356  0.1691 -0.0766
  286POPC   C4B 3805   6.462   5.086   5.778 -0.0271  0.1531 -0.0909
  287W        W 3806   9.528   7.567   1.664 -0.1269  0.1226  0.1925
  288W        W 3807   2.859   2.111   2.280  0.1339 -0.0748 -0.2505
  289W        W 3808   3.182   1.103  10.878  0.3140 -0.1408 -0.2101
  290W        W 3809   3.725   3.326  10.496 -0.1118 -0.0246 -0.1676
  291W        W 3810   8.653   5.527  10.997 -0.1504 -0.2844  0.0810
  292W        W 3811   7.863   3.643   0.707  0.0222  0.0040  0.0573
  293W        W 3812   7.715   5.341   3.064  0.0092  0.0325  0.0499
  294W        W 3813   1.041   4.578   0.392 -0.1072 -0.0720  0.2554
  295W        W 3814   3.251   5.315   4.491  0.2560 -0.0787  0.2590
  296W        W 3815   8.147   2.679  10.520 -0.0767 -0.0753  0.1534
  297W        W 3816   1.841   3.764  11.610  0.2667  0.0245 -0.1645
  298W        W 3817   2.611   8.737   9.186  0.2812 -0.0284 -0.0430
  299W        W 3818   5.220   7.931   8.817  0.2315  0.0337 -0.1099
  300W        W 3819   5.701   2.535   8.934  0.1558  0.2598 -0.1682
  301W        W 3820   2.757   8.284   3.338 -0.1003 -0.2235 -0.0324
  302W        W 3821   4.995   6.630   2.694 -0.3008  0.1807 -0.0349
  303W        W 3822   4.420   4.821   9.328 -0.0438  0.0269  0.1908
  304W        W 3823   0.679   0.561   0.366  0.4170  0.0726  0.2565
  305W        W 3824   3.774   6.132   3.948 -0.0114  0.0803 -0.1282
  306W        W 3825   6.499   4.408  12.027  0.3029  0.0166  0.2540
  307W        W 3826   8.575   9.317   1.193  0.1035  0.3861 -0.1913
  308W        W 3827   8.270   2.200  10.502 -0.3201 -0.0112 -0.4443
  309W        W 3828   5.466   5.843   3.410  0.0894  0.1339 -0.1246
  310W        W 3829   5.168   1.547   0.082  0.0066  0.0096  0.2367
  311W        W 3830   7.622   1.933   1.636  0.1845 -0.0223  0.0459
  312W        W 3831   3.267   8.631  12.295 -0.1058 -0.2482  0.3096
  313W        W 3832   8.502   9.217   3.457  0.1311 -0.0417  0.0893
  314W        W 3833   6.856   7.191  12.138  0.2241 -0.0637  0.0472
  315W        W 3834   4.781   0.971   0.040 -0.2044  0.3876  0.1151
  316W        W 3835   2.132   5.984   0.200  0.2486 -0.1844  0.1524
  317W        W 3836   4.284   5.885   8.436  0.1411 -0.4527  0.2451
  318W        W 3837   7.420   7.387   8.526 -0.2631  0.1021  0.1256
  319W        W 3838   3.761   8.478  12.503  0.1849  0.0414  0.1153
  320W        W 3839   7.190   4.896  10.024  0.1251  0.2237  0.0500
  321W        W 3840   6.791   6.306  11.719 -0.3256  0.0676 -0.0559
  322W        W 3841   4.593   5.976  11.027 -0.0230  0.0505  0.4269
  323W        W 3842   5.185   4.344   2.083 -0.0435  0.2097 -0.0242
  324W        W 3843   0.672   8.800   2.483 -0.1157  0.3067 -0.3383
  325W        W 3844   3.725   0.677  10.578 -0.3173  0.1497  0.1002
  326W        W 3845   7.331   8.875  12.130 -0.2212 -0.3562  0.2863
  327W        W 3846   7.553   9.006   3.368  0.1676  0.1648  0.1105
  328W        W 3847   2.047   8.447   0.958  0.0073  0.2316  0.1268
  329W        W 3848   1.302   2.326  11.535 -0.0263  0.0962  0.1037
  330W        W 3849   9.295   1.098   3.611 -0.0452  0.3125 -0.0532
  331W        W 3850   6.298   3.259  10.112 -0.2057  0.0345 -0.2366
  332W        W 3851   3.076   6.215   2.673 -0.1813  0.2715  0.0772
  333W        W 3852   9.034   5.018   2.870  0.0072 -0.1145 -0.1157
  334W        W 3853   8.182   8.871   4.489 -0.1358  0.0414  0.1139
  335W        W 3854   6.582   7.641   9.558 -0.1023  0.0556 -0.2242
  336W        W 3855   0.491   4.901  11.973 -0.0866 -0.1181  0.0432
  337W        W 3856   3.657   5.661   3.379  0.1001 -0.1336  0.2029
  338W        W 3857   5.831   0.850   3.711 -0.0865 -0.0230 -0.0029
  339W        W 3858   0.271   1.828   1.145 -0.3731  0.2758 -0.0708
  340W        W 3859   1.600   9.127   2.093  0.1546 -0.0056  0.0275
  341W        W 3860   9.530   8.617  12.030 -0.0806  0.1149  0.1600
  342W        W 3861   3.486   2.249   2.351 -0.2083 -0.1908  0.0084
  343W        W 3862   8.870   8.381   8.249  0.2413  0.1098 -0.0165
  344W        W 3863   2.607   4.175  10.785 -0.2832  0.2264  0.0900
  345W        W 3864   7.300   5.049   1.355  0.1055 -0.3049 -0.0857
  346W        W 3865   6.999   1.153  11.359  0.0842 -0.2365  0.0194
  347W        W 3866   9.405   7.833   0.691  0.1838 -0.0760  0.0386
  348W        W 3867   2.674   8.757   3.517  0.0300 -0.2501  0.4237
  349W        W 3868   1.330   2.821   1.608  0.3268  0.3360  0.0085
  350W        W 3869   8.180   7.094  12.437 -0.0112 -0.1132  0.1446
  351W        W 3870   1.895   6.631  11.452  0.1462  0.2816 -0.3077
  352W        W 3871   9.465   7.403   8.559 -0.2718  0.3060  0.0339
  353W        W 3872   2.059   6.354   9.559  0.1464  0.0037  0.2375
  354W        W 3873   0.018   1.070  10.134 -0.0752  0.2412  0.0728
  355W        W 3874   9.300   8.158   4.032 -0.0918 -0.2136  0.1544
  356W        W 3875   3.230   8.142   9.560 -0.1059 -0.3437  0.2689
  357W        W 3876   2.254   5.560  10.167 -0.1450  0.1811  0.4367
  358W        W 3877   2.786   6.944   2.103  0.0046 -0.2783 -0.2328
  359W        W 3878   3.205   5.540   0.241 -0.0492  0.3027  0.1653
  360W        W 3879   0.020   5.196   9.086  0.2171  0.3101 -0.1519
  361W        W 3880   9.401   0.597   3.958 -0.0643 -0.2894 -0.1326
  362W        W 3881   5.470   7.364   0.672 -0.2088  0.2256  0.0122
  363W        W 3882   9.475   7.638   2.934  0.1867 -0.1565  0.3298
  364W        W 3883   7.565   6.797   3.942 -0.1796 -0.1366 -0.1496
  365W        W 3884   1.783   7.124   3.566 -0.0763  0.0798 -0.0129
  366W        W 3885   1.957   5.494  11.838  0.4226 -0.0395  0.2231
  367W        W 3886   3.301   2.811   1.700 -0.2392 -0.0839  0.1811
  368W        W 3887   5.408   8.095  11.540 -0.0696 -0.0082  0.1365
  369W        W 3888   5.014   5.486   2.496  0.0593 -0.3918  0.1097
  370W        W 3889   2.537   6.604  10.461  0.0519 -0.2752  0.1156
  371W        W 3890   3.297   3.272   9.505  0.4427  0.3353 -0.1012
  372W        W 3891   7.089   6.130   9.502 -0.0583  0.0190  0.4017
  373W        W 3892   7.059   0.316   8.756 -0.0127  0.0332  0.0086
  374W        W 3893   1.724   3.805   2.668  0.0721  0.1260 -0.2977
  375W        W 3894   7.191   5.173   8.220 -0.2496 -0.0161 -0.1179
  376W        W 3895   1.342   5.882   9.066 -0.1940 -0.3213  0.1978
  377W        W 3896   4.931   0.494   9.139 -0.3557  0.0930 -0.0345
  378W        W 3897   0.476   0.163   9.256 -0.1060 -0.1037 -0.0072
  379W        W 3898   7.350   4.668   7.898  0.2949  0.1541 -0.2704
  380W        W 3899   0.854   3.553   0.999 -0.3258  0.2613  0.1142
  381W        W 3900   2.588   1.894  10.410  0.0460 -0.3017 -0.2637
  382W        W 3901   1.988   1.948  12.044 -0.0359  0.0005 -0.1545
  383W        W 3902   9.608   4.355  12.575  0.1761  0.0739 -0.0980
  384W        W 3903   3.753   1.182   1.702  0.0698 -0.3412 -0.0658
  385W        W 3904   2.309   3.449   1.585  0.1073  0.2773 -0.0210
  386W        W 3905   6.829   5.139  10.442 -0.4206 -0.0407 -0.4176
  387W        W 3906   5.928   0.481  10.502  0.3570 -0.2511 -0.3630
  388W        W 3907   8.107   9.370   9.392  0.0262 -0.1085 -0.0467
  389W        W 3908   9.119   6.492   2.102  0.0505  0.1146  0.2162
  390W        W 3909   7.206   8.508   2.132 -0.2032 -0.1611  0.0487
  391W        W 3910   0.846   7.710   9.672 -0.2937 -0.1538 -0.1597
  392W        W 3911   8.048   4.280  10.029 -0.1414  0.1038  0.0132
  393W        W 3912   7.871   1.301  10.427 -0.0657  0.1416 -0.1212
  394W        W 3913   2.134   8.831  10.895 -0.2040 -0.0932  0.1618
  395W        W 3914   7.094   7.525  11.839 -0.2111 -0.0829 -0.0543
  396W        W 3915   7.101   6.900   3.761  0.1254  0.1232 -0.1102
  397W        W 3916   8.530   7.747   1.225 -0.0780 -0.0966  0.2439
  398W        W 3917   9.486   7.210   2.195  0.0070 -0.1981  0.1886
  399W        W 3918   3.113   2.369   1.928 -0.1562 -0.1486 -0.2883
  400W        W 3919   4.887   1.482  11.104  0.0473 -0.2520  0.0761
  401W        W 3920   4.474   6.956   9.461  0.0299  0.1247  0.0464
  402W        W 3921   7.396   8.485   1.689  0.0473  0.0640  0.0589
  403W        W 3922   2.056   1.895  10.220 -0.0912 -0.1518 -0.2602
  404W        W 3923   3.279   5.859  11.572  0.0890  0.0417 -0.0702
  405W        W 3924   9.097   2.644   3.663  0.0156 -0.0053  0.0975
  406W        W 3925   2.386   4.283   0.178  0.0427  0.2371 -0.1414
  407W        W 3926   1.087   6.773  11.875  0.1608  0.1739 -0.0142
  408W        W 3927   9.402   7.430  10.401  0.2978 -0.0219  0.1141
  409W        W 3928   9.278   4.170   0.619  0.2049 -0.2228 -0.0457
  410W        W 3929   4.877   3.254  10.440 -0.0552 -0.1514  0.1328
  411W        W 3930   3.820   0.691  12.431 -0.1289  0.0921  0.1331
  412W        W 3931   8.127   7.494   0.226  0.2522  0.0348 -0.0625
  413W        W 3932   1.118   4.314   3.535  0.0943  0.4378 -0.0276
  414W        W 3933   7.659   1.103   8.538 -0.2388 -0.1518  0.1831
  415W        W 3934   8.108   2.910   1.044  0.2204  0.0418  0.1403
  416W        W 3935   9.382   0.134   0.739 -0.1217  0.0129  0.0618
  417W        W 3936   8.078   1.232   4.038  0.0159  0.2720 -0.0117
  418W        W 3937   0.823   4.142  10.706  0.0360 -0.0403 -0.0728
  419W        W 3938   3.460   5.945   9.985  0.2515 -0.0342 -0.0218
  420W        W 3939   5.474   1.486   3.317  0.0508 -0.2308 -0.0886
  421W        W 3940   2.527   0.095   8.802 -0.2979  0.0725  0.0681
  422W        W 3941   6.101   3.449  12.324  0.0555 -0.1960 -0.0447
  423W        W 3942   3.144   5.064  10.071 -0.0729 -0.1170 -0.1772
  424W        W 3943   7.089   0.542   0.723  0.2515 -0.0309 -0.0061
  425W        W 3944   1.421   1.768   0.122  0.0184  0.2744  0.0486
  426W        W 3945   8.922   8.017  10.125  0.1074  0.4149 -0.2395
  427W        W 3946   2.381   5.137   0.539  0.3329 -0.2373  0.0115
  428W        W 3947   8.599   4.858   3.149 -0.4255  0.3200  0.0075
  429W        W 3948   1.899   2.742   0.938  0.2932  0.0291 -0.1265
  430W        W 3949   5.164   2.362   2.057  0.0629  0.0555  0.0664
  431W        W 3950   4.133   6.494   1.666  0.0579  0.0746  0.2908
  432W        W 3951   0.290   0.727   8.558  0.3195  0.2145 -0.0339
  433W        W 3952   7.084   0.911  11.816 -0.1112 -0.0073 -0.0534
  434W        W 3953   3.947   2.835  12.418  0.2898 -0.1395  0.1960
  435W        W 3954   0.234   6.208  11.702 -0.2306 -0.0630 -0.2285
  436W        W 3955   4.118   2.572   0.172 -0.0634  0.1993  0.0296
  437W        W 3956   3.874   4.808   1.889  0.1911 -0.1383 -0.2305
  438W        W 3957   6.871   4.452   9.232 -0.0852 -0.0254 -0.0526
  439W        W 3958   7.924   4.536   0.446  0.0672  0.3328 -0.2940
  440W        W 3959   5.346   5.400   1.914  0.1767  0.1438  0.3973
  441W        W 3960   4.755   4.763   2.862  0.0576 -0.1498 -0.1234
  442W        W 3961   2.285   5.710   2.119  0.2188  0.4051 -0.2763
  443W        W 3962   6.823   3.316   7.686 -0.1756  0.0271  0.3986
  444W        W 3963   2.540   7.718   3.424 -0.0290 -0.0359  0.0199
  445W        W 3964   6.570   8.134  10.708 -0.1126  0.1490  0.0271
  446W        W 3965   1.626   0.014   0.037  0.2007  0.0617  0.2525
  447W        W 3966   1.363   0.225   3.842 -0.0978 -0.2080 -0.0076
  448W        W 3967   1.938   6.836   4.020 -0.1111 -0.0565  0.4609
  449W        W 3968   2.564   9.475  10.178  0.1611 -0.0980 -0.0698
  450W        W 3969   5.899   0.236   2.299  0.1839  0.0532 -0.3701
  451W        W 3970   6.620   6.671  12.395 -0.0714  0.3216  0.1702
  452W        W 3971   5.368   7.112   0.208 -0.0346  0.0171 -0.2654
  453W        W 3972   4.721   6.078   3.300  0.0413  0.2213 -0.0426
  454W        W 3973   8.234   4.133  11.037 -0.0773  0.0015  0.0662
  455W        W 3974   6.201   2.143  11.026 -0.2732 -0.2367 -0.0171
  456W        W 3975   8.363   4.253   2.562  0.0499  0.1825  0.1435
  457W        W 3976   9.350   5.259   0.316 -0.0247 -0.0377 -0.0835
  458W        W 3977   3.040   3.374   9.926 -0.0508  0.2722  0.0946
  459W        W 3978   9.480   3.937   9.263 -0.0768 -0.2586  0.0051
  460W        W 3979   0.169   2.389   9.592  0.3424 -0.0256  0.1738
  461W        W 3980   2.965   5.374   4.058  0.2505  0.0843  0.0760
  462W        W 3981   3.985   3.698   3.726 -0.2721 -0.1315 -0.1780
  463W        W 3982   4.872   7.359   3.746 -0.0156 -0.0502  0.0360
  464W        W 3983   8.069   6.752   2.254 -0.1206  0.0074 -0.1329
  465W        W 3984   8.884   3.707  11.568 -0.1558 -0.1072  0.2761
  466W        W 3985   7.367   3.614  11.788 -0.0684 -0.3734  0.0258
  467W        W 3986   4.287   2.593  11.339  0.0517 -0.0103 -0.1624
  468W        W 3987   1.752   7.184   9.463  0.2554 -0.0482  0.1661
  469W        W 3988   8.923   7.644   7.580 -0.0838 -0.2529 -0.1460
  470W        W 3989   1.021   2.415   8.943 -0.2687  0.1250 -0.1083
  471W        W 3990   6.567   1.266  10.287  0.0172  0.2503 -0.0458
  472W        W 3991   7.186   3.858   9.743 -0.0241 -0.1224  0.0651
  473W        W 3992   6.358   4.717   4.983  0.1069  0.1080  0.0065
  474W        W 3993   4.274   4.507   3.063 -0.2274 -0.0532 -0.3553
  475W        W 3994   7.332   7.293   4.064 -0.2424  0.4582 -0.0773
  476W        W 3995   0.138   1.794  11.718  0.2622  0.0946 -0.0526
  477W        W 3996   1.785   0.461   2.508 -0.0824 -0.0316  0.1821
  478W        W 3997   4.467   4.698  11.343 -0.0753 -0.2020  0.1196
  479W        W 3998   4.932   4.621  12.266 -0.0622 -0.0366 -0.2089
  480W        W 3999   5.457   6.863   8.978  0.0283  0.0253 -0.0191
  481W        W 4000   5.354   4.624  11.289  0.0452 -0.1837  0.0001
  482W        W 4001   4.979   3.116   0.789  0.0793  0.0809  0.0134
  483W        W 4002   0.866   2.353   1.828  0.0411 -0.2560 -0.2295
  484W        W 4003   3.275   9.211  12.386 -0.1323  0.1245  0.0046
  485W        W 4004   1.317   8.477   9.352  0.1057 -0.0374  0.0504
  486W        W 4005   4.733   4.052  10.002 -0.0521  0.0515 -0.2000
  487W        W 4006   8.038   6.277  11.245 -0.3651  0.1060 -0.0724
  488W        W 4007   1.417   8.742   9.908 -0.0000 -0.0026  0.4964
  489W        W 4008   0.721   2.550   0.571  0.0098 -0.1205 -0.2446
  490W        W 4009   0.318   1.583   2.247  0.0232  0.0683  0.1424
  491W        W 4010   8.256   2.029  12.222 -0.0456 -0.0718  0.2775
  492W        W 4011   8.432   5.847   8.930 -0.0058  0.3505  0.0551
  493W        W 4012   5.662   1.601   2.076 -0.0060  0.2359  0.2200
  494W        W 4013   7.968   5.234   8.716  0.0413  0.0527 -0.2356
  495W        W 4014   4.496   9.542   1.601 -0.1284 -0.1841  0.2056
  496W        W 4015   0.002   8.776   0.462  0.0554 -0.2105 -0.1405
  497W        W 4016   7.687   5.016  11.776 -0.3260 -0.1518  0.1012
  498W        W 4017   4.113   5.560   9.296 -0.0023 -0.2073  0.1302
  499W        W 4018   7.781   5.887   2.386  0.2438  0.0206  0.1758
  500W        W 4019   4.606   5.007  12.378 -0.1010 -0.0358  0.1067
  501W        W 4020   4.255   0.224   2.444 -0.1350 -0.1100 -0.0768
  502W        W 4021   1.094   3.575  10.667  0.2073 -0.1633  0.3293
  503W        W 4022   3.019   8.344   4.276  0.2321  0.2594  0.1891
  504W        W 4023   1.411   9.191  12.589  0.1108 -0.0041 -0.0976
  505W        W 4024   5.771   0.204   9.170 -0.0098  0.1657  0.1422
  506W        W 4025   8.089   5.694   8.561 -0.0286  0.0527 -0.3005
  507W        W 4026   3.149   5.360   9.335  0.0949 -0.2780  0.2116
  508W        W 4027   8.949   9.225   9.051 -0.2321  0.3106  0.0710
  509W        W 4028   2.266   0.015   3.374  0.0800 -0.2101 -0.1325
  510W        W 4029   9.049   6.500  12.249 -0.0409  0.2223 -0.1392
  511W        W 4030   0.742   4.959   9.313  0.2040 -0.0810  0.0512
  512W        W 4031   6.023   4.992   0.588  0.1243 -0.2168  0.1557
  513W        W 4032   0.449   0.147  11.231  0.0993 -0.3276  0.0847
  514W        W 4033   5.817   5.166   9.208 -0.0102  0.0115 -0.0020
  515W        W 4034   2.260   6.559  10.057 -0.0213  0.0127 -0.2752
  516W        W 4035   3.486   1.688   3.109  0.1530 -0.0039  0.0647
  517W        W 4036   8.801   6.770   1.138 -0.0479  0.0922 -0.2539
  518W        W 4037   4.193   1.689   0.796  0.1288 -0.0125 -0.1147
  519W        W 4038   0.105   4.593  10.378  0.1562 -0.0163  0.0396
  520W        W 4039   6.356   5.384   0.575 -0.1314  0.2085  0.0431
  521W        W 4040   6.271   6.591  11.575  0.1208  0.0675 -0.2906
  522W        W 4041   7.083   2.172  11.516  0.2838 -0.1770 -0.1589
  523W        W 4042   6.015   0.721   2.190  0.1532  0.2642 -0.0621
  524W        W 4043   0.402   2.964   2.122 -0.0959  0.2030  0.3299
  525W        W 4044   6.408   7.294   2.171  0.1618 -0.0748  0.0590
  526W        W 4045   1.242   6.106   8.302 -0.2095  0.1109  0.4028
  527W        W 4046   7.479   5.362  12.101  0.0412  0.1003  0.0221
  528W        W 4047   2.139   8.395   2.475 -0.1956  0.1450  0.1580
  529W        W 4048   6.314   4.927  12.174  0.0111  0.2052 -0.2229
  530W        W 4049   6.580   7.582   8.345 -0.1466  0.1423  0.0208
  531W        W 4050   7.738   6.494  12.066 -0.2348 -0.0240 -0.3500
  532W        W 4051   5.923   5.039   2.916  0.1106  0.1012  0.5687
  533W        W 4052   0.012   3.428  11.948  0.0922  0.5129  0.0654
  534W        W 4053   8.833   6.033  10.714 -0.0057  0.0571  0.1403
  535W        W 4054   0.199   7.287  10.215  0.1372  0.0323  0.0428
  536W        W 4055   7.588   5.683   4.444  0.3913 -0.2808 -0.0317
  537W        W 4056   0.354   2.399  10.531  0.0979 -0.0520 -0.0882
  538W        W 4057   5.649   7.955   2.786  0.0311 -0.1399  0.0923
  539W        W 4058   0.837   8.639  12.091 -0.0581  0.0269  0.0692
  540W        W 4059   3.495   3.619   3.597 -0.0243  0.2957 -0.0468
  541W        W 4060   1.981   3.036  11.341 -0.2666 -0.0348 -0.1173
  542W        W 4061   2.296   4.752   0.818  0.0703 -0.0900  0.0033
  543W        W 4062   6.887   9.169   3.243  0.3483 -0.0397  0.0386
  544W        W 4063   5.583   3.571   9.391 -0.1886  0.0407  0.3164
  545W        W 4064   4.346   1.790  11.640  0.2822  0.3329 -0.1404
  546W        W 4065   9.468   7.579   3.463  0.3245  0.4521 -0.0443
  547W        W 4066   5.243   6.211   0.800 -0.3718  0.0352 -0.0474
  548W        W 4067   7.297   8.234   0.404 -0.1656 -0.0880  0.2179
  549W        W 4068   1.280   9.460   3.368 -0.3232  0.3911 -0.1828
  550W        W 4069   7.469   1.546   4.038  0.4410  0.1824 -0.1287
  551W        W 4070   6.093   2.621  10.939 -0.3807 -0.0173  0.0918
  552W        W 4071   2.961   7.718   9.737  0.0201 -0.3721  0.0931
  553W        W 4072   5.081   0.030   0.172  0.3680 -0.2206 -0.0545
  554W        W 4073   6.818   0.760  11.074  0.0391 -0.3826  0.0643
  555W        W 4074   2.845   5.475   8.681 -0.1510 -0.1442  0.1370
  556W        W 4075   6.292   7.205   9.471 -0.3561 -0.2715 -0.4373
  557W        W 4076   6.236   0.690   1.004 -0.0415 -0.1371 -0.2595
  558W        W 4077   1.013   5.058   1.724 -0.0813  0.0107  0.1447
  559W        W 4078   2.138   7.816   2.743  0.2143 -0.2197  0.1535
  560W        W 4079   2.849   5.267   1.368 -0.3403  0.2159 -0.2448
  561W        W 4080   7.794   8.377  11.334  0.3310 -0.0558 -0.0789
  562W        W 4081   6.266   1.804   0.616  0.1570  0.0217 -0.1513
  563W        W 4082   6.905   4.027  10.426  0.0501 -0.0656 -0.1290
  564W        W 4083   5.405   6.649  12.616  0.0434 -0.0442  0.0852
  565W        W 4084   1.793   0.968  10.451 -0.3230  0.1527 -0.3995
  566W        W 4085   1.493   2.227   9.363  0.2619  0.0839  0.0674
  567W        W 4086   6.122   7.853  10.897  0.1040 -0.0490 -0.2994
  568W        W 4087   8.371   7.954   2.151 -0.0885 -0.2416  0.1191
  569W        W 4088   5.154   7.151   9.930  0.1881  0.0308 -0.4475
  570W        W 4089   0.054   8.350   9.714  0.1113  0.1715  0.0735
  571W        W 4090   5.365   2.539   2.524 -0.2376 -0.2452 -0.1585
  572W        W 4091   7.559   4.185   0.482  0.1591 -0.0073 -0.2648
  573W        W 4092   1.929   1.579  12.452 -0.0449 -0.1461  0.0173
  574W        W 4093   2.639   4.364   1.640 -0.0308  0.0368  0.0662
  575W        W 4094   7.709   3.878  12.331  0.2105  0.1362 -0.1407
  576W        W 4095   7.917   4.479   9.357  0.1206  0.0064  0.1494
  577W        W 4096   6.195   7.496  12.526 -0.0951 -0.1930  0.2418
  578W        W 4097   2.696   2.576   2.088 -0.2583  0.1097 -0.1740
  579W        W 4098   7.539   5.408   4.833 -0.1652 -0.0792 -0.0682
  580W        W 4099   8.928   7.062  10.507 -0.3611 -0.0437 -0.2623
  581W        W 4100   8.701   7.232   1.114  0.3266 -0.2001  0.4161
  582W        W 4101   4.056   3.471  11.927 -0.0091 -0.1795  0.2185
  583W        W 4102   8.685   1.522   8.021  0.0967 -0.0650  0.0498
  584W        W 4103   1.895   5.775   9.380  0.1480 -0.2255 -0.2348
  585W        W 4104   6.153   4.219   2.565  0.1708  0.2414 -0.0790
  586W        W 4105   4.387   8.994   9.056  0.1407  0.0545 -0.1076
  587W        W 4106   1.968   0.251  11.650  0.3913  0.1253  0.1683
  588W        W 4107   8.438   9.246  12.358  0.2842 -0.3255 -0.0332
  589W        W 4108   9.302   6.163   2.533 -0.0880 -0.3603 -0.0450
  590W        W 4109   6.487   7.860   2.308 -0.2221 -0.1193  0.1623
  591W        W 4110   6.112   9.074  11.242  0.4282  0.0107 -0.1672
  592W        W 4111   2.155   5.927   9.842 -0.1431 -0.2629 -0.2994
  593W        W 4112   4.261   5.236  10.980 -0.1972  0.1268  0.0381
  594W        W 4113   2.462   8.898   3.067 -0.0398 -0.3095 -0.1522
  595W        W 4114   9.074   3.844   1.033  0.1472 -0.3268  0.1515
  596W        W 4115   4.679   0.141   9.993  0.2521  0.0639 -0.2868
  597W        W 4116   4.557   8.543   2.233 -0.0460  0.0974 -0.0001
  598W        W 4117   4.436   8.134   0.921 -0.1913  0.3059  0.1964
  599W        W 4118   8.161   5.460  10.947  0.0653  0.2301  0.1505
  600W        W 4119   6.969   7.447  11.380  0.3364  0.1088  0.2511
  601W        W 4120   7.773   0.510  11.661 -0.0955  0.2466  0.0242
  602W        W 4121   2.790   1.184   1.873 -0.1538  0.0166  0.3076
  603W        W 4122   1.048   5.233   2.167  0.1897 -0.2683  0.0146
  604W        W 4123   5.314   0.183  11.821 -0.2870  0.1036  0.1735
  605W        W 4124   6.122   9.089   3.800  0.0765 -0.0300  0.2037
  606W        W 4125   3.859   9.175   2.445  0.0559 -0.0800  0.3377
  607W        W 4126   2.720   3.823   0.214 -0.0777 -0.1322  0.2948
  608W        W 4127   0.264   2.881  10.622  0.1574 -0.0770 -0.4424
  609W        W 4128   1.584   7.155   1.540  0.1343  0.1260  0.1057
  610W        W 4129   8.701   0.858  12.545 -0.0990 -0.1315  0.1248
  611W        W 4130   4.048   2.149  11.615  0.0004  0.0567  0.1627
  612W        W 4131   8.698   7.227   2.970  0.2382  0.2627  0.0924
  613W        W 4132   1.144   0.372   9.987  0.0032 -0.2621 -0.1376
  614W        W 4133   6.957   3.591  11.496  0.0225 -0.1365 -0.1552
  615W        W 4134   4.314   7.430   9.363 -0.3545 -0.0262  0.1774
  616W        W 4135   0.700   5.958  10.625 -0.3467 -0.1869 -0.0459
  617W        W 4136   2.063   8.663  10.435 -0.2330  0.1556  0.0321
  618W        W 4137   0.834   8.416  12.600 -0.0388 -0.3309 -0.1593
  619W        W 4138   9.637   5.266   9.589 -0.0712  0.1947 -0.1929
  620W        W 4139   2.267   6.974  11.123 -0.1507  0.0867 -0.0230
  621W        W 4140   1.062   9.338   9.021 -0.1166  0.1169  0.2331
  622W        W 4141   8.634   0.110   0.989 -0.0457  0.5689  0.3466
  623W        W 4142   1.344   4.174   3.064  0.2922 -0.1654  0.0534
  624W        W 4143   7.012   1.508   8.884 -0.0338 -0.1681 -0.0710
  625W        W 4144   8.805   3.446   0.852  0.0317  0.1375  0.1119
  626W        W 4145   6.200   7.741   9.153  0.1985  0.0599  0.1686
  627W        W 4146   9.041   7.543   3.120  0.1096  0.4557 -0.3827
  628W        W 4147   5.096   6.261   3.074 -0.3159 -0.2198 -0.0906
  629W        W 4148   2.927   2.375   0.797  0.4446 -0.0893 -0.0710
  630W        W 4149   4.348   1.232   1.465 -0.3055 -0.1198 -0.1815
  631W        W 4150   3.257   1.878   2.083  0.1004 -0.0211  0.0209
  632W        W 4151   8.583   3.833   3.884  0.5164  0.0823 -0.0228
  633W        W 4152   0.677   6.651   3.751 -0.1377  0.1485 -0.1551
  634W        W 4153   6.261   4.501   1.420  0.0943 -0.2867 -0.1201
  635W        W 4154   1.431   7.828   8.305 -0.0645  0.1728  0.1453
  636W        W 4155   5.505   3.526   9.881 -0.3186  0.3799  0.3677
  637W        W 4156   5.572   4.322   2.452 -0.2306  0.2750 -0.1783
  638W        W 4157   0.021   3.880   0.810  0.0570 -0.1452  0.1285
  639W        W 4158   7.039   2.762   9.026  0.1731  0.1616 -0.4414
  640W        W 4159   6.745   5.097   4.525  0.4611  0.0059 -0.4188
  641W        W 4160   4.846   1.418   9.188  0.1459 -0.0747 -0.0310
  642W        W 4161   3.229   4.384   3.364  0.1975 -0.3089 -0.1584
  643W        W 4162   9.576   8.395   1.975  0.2087 -0.1710  0.0357
  644W        W 4163   4.874   8.197   2.005  0.1372  0.0265 -0.1818
  645W        W 4164   3.178   1.888   2.622  0.1544 -0.2903  0.0139
  646W        W 4165   1.529   3.117  12.153  0.2421 -0.2626 -0.2477
  647W        W 4166   4.908   8.830  11.218  0.0047  0.0611  0.1936
  648W        W 4167   9.198   6.942  10.881 -0.0645 -0.0557 -0.5026
  649W        W 4168   0.364   4.847   0.717 -0.2649  0.1032 -0.3048
  650W        W 4169   5.394   6.514   9.324 -0.3123  0.0765  0.0701
  651W        W 4170   8.191   8.617   4.941 -0.4400  0.2788  0.0838
  652W        W 4171   8.820   9.435  11.075  0.0026  0.2645 -0.1107
  653W        W 4172   7.182   6.513  10.903 -0.2938 -0.2551 -0.2926
  654W        W 4173   0.309   9.362   4.130  0.2302  0.0414  0.0331
  655W        W 4174   7.922   0.019   8.249 -0.1271 -0.1638 -0.0993
  656W        W 4175   8.769   8.404  11.133  0.0756  0.1307  0.2337
  657W        W 4176   4.962   9.641   0.733  0.0009  0.0835  0.1513
  658W        W 4177   9.177   8.675   1.780  0.0202 -0.0548  0.0217
  659W        W 4178   2.943   8.027  12.178  0.1673 -0.1295 -0.0902
  660W        W 4179   1.308   2.283   9.877  0.2263  0.1968 -0.0105
  661W        W 4180   2.335   1.275  11.041 -0.1126 -0.2164  0.0775
  662W        W 4181   6.140   1.282   0.840 -0.1158  0.0518  0.1564
  663W        W 4182   7.281   7.745   0.673  0.1063  0.3111  0.0235
  664W        W 4183   5.490   9.499   0.366  0.0674  0.3209 -0.3883
  665W        W 4184   7.731   9.055  11.807  0.4247  0.0170 -0.2508
  666W        W 4185   7.065   6.962  10.653 -0.4268 -0.1265  0.1872
  667W        W 4186   3.031   5.904   0.013 -0.1416 -0.0329  0.2769
  668W        W 4187   9.270   3.653   9.589  0.0950  0.1769 -0.1286
  669W        W 4188   1.579   7.213   4.044  0.1855  0.3533  0.0690
  670W        W 4189   0.459   0.894   2.356 -0.0009 -0.1411  0.1745
  671W        W 4190   3.535   8.775   8.810 -0.1327  0.0326 -0.0326
  672W        W 4191   8.818   0.562   9.689 -0.0431 -0.5242 -0.0709
  673W        W 4192   7.121   5.968   8.607  0.2642 -0.1958  0.2355
  674W        W 4193   2.117   5.514   8.627  0.1049  0.0927 -0.3708
  675W        W 4194   1.748   8.305   8.597  0.0524  0.0762  0.2555
  676W        W 4195   0.619   9.102   1.413 -0.3159  0.3425  0.0927
  677W        W 4196   4.950   8.971  10.289 -0.0091 -0.1737  0.4525
  678W        W 4197   3.948   1.835   1.551  0.0583  0.2391  0.2345
  679W        W 4198   0.658   7.875   3.529 -0.1301  0.0915  0.0556
  680W        W 4199   7.588   5.767   0.221 -0.0679  0.0119  0.0060
  681W        W 4200   6.345   8.426  10.053 -0.0325 -0.0051 -0.2291
  682W        W 4201   8.903   3.792  12.161  0.3669  0.0893 -0.0214
  683W        W 4202   7.884   1.051   8.095  0.0982  0.0712  0.0072
  684W        W 4203   1.297   4.160  11.000 -0.1972  0.0818  0.2469
  685W        W 4204   9.591   1.554  10.863  0.0584 -0.0211  0.1192
  686W        W 4205   8.127   3.066   4.621  0.1323  0.2933  0.1315
  687W        W 4206   6.242   5.860   0.931 -0.3586  0.2052 -0.0993
  688W        W 4207   0.537   0.765   0.818 -0.3973  0.3268 -0.0919
  689W        W 4208   0.636   8.139   1.829 -0.3143  0.0466 -0.0779
  690W        W 4209   5.753   1.135   9.386 -0.1368  0.2072 -0.3038
  691W        W 4210   3.673   5.695   1.728  0.0300 -0.2031 -0.2129
  692W        W 4211   6.520   0.914  12.044  0.0024  0.1522  0.2368
  693W        W 4212   7.697   4.610   3.571 -0.3419 -0.0181  0.1253
  694W        W 4213   7.496   7.223   2.875 -0.2649  0.2062 -0.2870
  695W        W 4214   7.702   6.390   7.707  0.1640 -0.1777  0.1494
  696W        W 4215   3.942   2.659   9.439 -0.1793  0.3442 -0.0027
  697W        W 4216   5.705   9.430   2.535  0.1159 -0.0825  0.0332
  698W        W 4217   3.588   9.399   9.954  0.1537 -0.0846  0.0409
  699W        W 4218   9.283   1.105   9.149  0.2184  0.0368  0.0994
  700W        W 4219   8.890   2.857  11.889  0.1528 -0.1120 -0.1315
  701W        W 4220   3.240   7.261   2.365 -0.3178  0.1591  0.1348
  702W        W 4221   2.880   8.999  12.204 -0.0225 -0.0331 -0.0684
  703W        W 4222   8.329   8.739  12.587  0.0287 -0.1331  0.0138
  704W        W 4223   9.353   9.202   0.081  0.0670  0.0459  0.1192
  705W        W 4224   7.975   7.575   0.824  0.2313  0.0926  0.0527
  706W        W 4225   6.401   1.722   1.538  0.2511  0.0189  0.2452
  707W        W 4226   8.051   1.041   1.706 -0.1475  0.1002 -0.0921
  708W        W 4227   4.386   2.077   0.248  0.5824 -0.2250  0.0420
  709W        W 4228   1.940   5.156   0.808 -0.2708 -0.2538  0.1463
  710W        W 4229   8.687   3.371  11.867  0.0671  0.1459 -0.1303
  711W        W 4230   1.865   5.184  10.192 -0.1967  0.0388  0.1281
  712W        W 4231   1.164   7.908   9.216 -0.1495  0.0885  0.1845
  713W        W 4232   0.572   0.409   1.331 -0.0911 -0.3211 -0.0193
  714W        W 4233   6.384   4.641   3.597  0.1745 -0.2517 -0.1043
  715W        W 4234   7.346   2.558  11.678 -0.4579 -0.0547 -0.1240
  716W        W 4235   1.425   7.581   0.362 -0.1332  0.0652 -0.0413
  717W        W 4236   7.371   0.132   4.381 -0.2521  0.0964 -0.0432
  718W        W 4237   8.183   8.750  10.857  0.1104  0.1038 -0.0208
  719W        W 4238   6.787   7.844   2.789  0.4357 -0.1058  0.1617
  720W        W 4239   8.735   7.664   9.303  0.0653  0.0514 -0.2018
  721W        W 4240   1.536   8.997   0.889  0.0581 -0.3239  0.3448
  722W        W 4241   7.839   4.771   1.842 -0.2391 -0.0297 -0.4733
  723W        W 4242   0.301   4.621   0.180  0.1201 -0.1209  0.1801
  724W        W 4243   2.237   7.416   0.959 -0.0900 -0.3679  0.1283
  725W        W 4244   7.912   3.900   2.446  0.0362  0.2083  0.3329
  726W        W 4245   1.022   2.055  11.955 -0.1369 -0.1756 -0.0401
  727W        W 4246   0.784   4.856   9.832 -0.0071 -0.1906 -0.2436
  728W        W 4247   5.467   6.793  10.798  0.4648  0.1615 -0.1039
  729W        W 4248   5.942   4.766  10.394  0.1857 -0.2648 -0.0510
  730W        W 4249   1.949   9.056  11.353 -0.2462 -0.2495  0.2210
  731W        W 4250   6.879   3.940   2.123 -0.2927  0.1680 -0.1112
  732W        W 4251   7.432   8.170   3.499  0.1930  0.1461 -0.1240
  733W        W 4252   4.296   8.433   0.482 -0.0486 -0.0846 -0.2381
  734W        W 4253   1.371   8.070   9.682 -0.0231 -0.5741  0.3288
  735W        W 4254   2.620   3.171   9.757  0.0551  0.0511 -0.4170
  736W        W 4255   2.939   2.835  11.570 -0.1384  0.0421  0.1222
  737W        W 4256   6.757   1.431   9.729 -0.2316  0.0070 -0.0029
  738W        W 4257   8.348   8.598  12.124  0.1852  0.1236 -0.1371
  739W        W 4258   4.665   1.181   9.804 -0.1054  0.2166 -0.2494
  740W        W 4259   1.516   4.710  12.064  0.0684  0.1037  0.0075
  741W        W 4260   3.488   6.302  11.655 -0.0697 -0.1068 -0.4723
  742W        W 4261   3.918   8.977   8.305 -0.1245  0.0611  0.2206
  743W        W 4262   6.588   1.626   0.097 -0.1160  0.0575 -0.1154
  744W        W 4263   2.901   7.712   2.297 -0.2347  0.1785 -0.0607
  745W        W 4264   7.721   9.066   9.497 -0.1529  0.1835 -0.2610
  746W        W 4265   3.187   6.232   4.256 -0.0978  0.3548 -0.0687
  747W        W 4266   9.060   2.063   3.446 -0.0535  0.1490 -0.1584
  748W        W 4267   4.684   1.583   0.676  0.1919  0.0143 -0.3971
  749W        W 4268   7.571   5.638   1.954 -0.0162  0.0475 -0.0382
  750W        W 4269   2.345   8.102   2.060 -0.0061 -0.2407 -0.0032
  751W        W 4270   5.796   6.191  12.221  0.3459  0.0966 -0.1260
  752W        W 4271   9.342   3.471   4.203  0.1260 -0.0532 -0.0219
  753W        W 4272   8.540   2.034   2.100 -0.3561  0.1129  0.1857
  754W        W 4273   6.761   3.329  10.599  0.2804  0.1972  0.0794
  755W        W 4274   4.686   8.544  10.479 -0.0834 -0.2611  0.0733
  756W        W 4275   8.904   6.741  10.153  0.0469  0.2426  0.0688
  757W        W 4276   4.449   7.909   0.352  0.1228  0.3229  0.1812
  758W        W 4277   0.252   6.922   2.262  0.1883  0.0490  0.0565
  759W        W 4278   4.367   9.013   3.716  0.1223 -0.2556 -0.2719
  760W        W 4279   7.367   6.232   9.905  0.0253 -0.2603 -0.0561
  761W        W 4280   3.137   2.942   2.901 -0.0451  0.2604 -0.3087
  762W        W 4281   1.441   3.771  10.195  0.2050 -0.1017 -0.2501
  763W        W 4282   3.836   5.073  10.062  0.0726  0.0942  0.1316
  764W        W 4283   8.683   8.672   1.686  0.0972 -0.0269 -0.0410
  765W        W 4284   1.610   8.514   1.219 -0.2908 -0.3261 -0.3087
  766W        W 4285   2.254   6.364   0.986 -0.0652  0.1255  0.1095
  767W        W 4286   2.196   1.089  10.140  0.3594 -0.0063 -0.1475
  768W        W 4287   0.828   9.085   9.864 -0.1908 -0.0950  0.0439
  769W        W 4288   6.845   3.349   9.872  0.1689 -0.1748  0.3525
  770W        W 4289   7.068   1.650  11.347  0.4930  0.0346 -0.0401
  771W        W 4290   0.416   0.282   2.273  0.3150 -0.0020 -0.1361
  772W        W 4291   0.760   3.017   2.458  0.2870  0.2776 -0.0775
  773W        W 4292   1.485   6.748   8.903 -0.2456  0.0394  0.0787
  774W        W 4293   9.310   8.056   3.147 -0.1643  0.4811  0.1621
  775W        W 4294   3.019   1.643   0.048  0.0945  0.1960  0.2153
  776W        W 4295   2.621   7.592   2.820 -0.2529 -0.2362 -0.1262
  777W        W 4296   6.735   8.236   3.627  0.1003 -0.0764 -0.2220
  778W        W 4297   7.553   2.689   9.398  0.0334 -0.3891 -0.5419
  779W        W 4298   3.772   8.350   0.451  0.1227 -0.2244  0.2662
  780W        W 4299   1.914   7.600   1.352 -0.3033  0.1488  0.0330
  781W        W 4300   3.447   8.720   1.266 -0.0355  0.1725  0.0478
  782W        W 4301   2.255   8.787   3.818  0.0639  0.1997 -0.0217
  783W        W 4302   4.135   8.167   1.830 -0.1873 -0.2408  0.1466
  784W        W 4303   4.804   7.029   2.916  0.0492  0.4425 -0.2898
  785W        W 4304   9.310   1.345  10.493 -0.0819 -0.0206  0.0035
  786W        W 4305   9.032   5.541   3.849  0.2330 -0.2578 -0.1312
  787W        W 4306   3.417   4.696   0.814 -0.0947 -0.0352  0.1082
  788W        W 4307   2.463   1.516   9.971 -0.1480  0.0454 -0.0133
  789W        W 4308   7.931   6.897   2.767 -0.2855 -0.0121 -0.1753
  790W        W 4309   3.082   4.611  11.740 -0.0315 -0.0660 -0.2835
  791W        W 4310   2.252   4.032  11.225 -0.1578 -0.1280 -0.1618
  792W        W 4311   6.500   6.491   2.501  0.0211 -0.0031 -0.0044
  793W        W 4312   9.631   4.689   9.100 -0.2513  0.2838 -0.0654
  794W        W 4313   3.621   4.710   3.755 -0.0245  0.1331 -0.3408
  795W        W 4314   6.467   5.804   4.876  0.1233 -0.2045 -0.1446
  796W        W 4315   6.265   1.152   1.318  0.0583 -0.0627  0.0336
  797W        W 4316   6.054   5.890  10.929 -0.0001  0.1153 -0.0737
  798W        W 4317   7.126   8.800   7.876 -0.0500 -0.3028  0.2211
  799W        W 4318   1.780   5.664   4.630  0.3662  0.0673  0.1492
  800W        W 4319   1.914   1.990   3.851  0.1300  0.3308  0.3426
  801W        W 4320   6.745   4.830   8.947  0.2633  0.3290 -0.1276
  802W        W 4321   1.270   9.525  11.176  0.1260 -0.1011  0.1455
  803W        W 4322   5.731   0.521   8.477  0.0975  0.0560 -0.2834
  804W        W 4323   3.788   3.209   9.455 -0.3383 -0.0374 -0.0266
  805W        W 4324   7.880   6.886   9.353  0.0055  0.0147  0.2971
  806W        W 4325   2.903   3.942   3.277 -0.1858 -0.0276 -0.1628
  807W        W 4326   4.573   7.115   0.907 -0.0958 -0.0904  0.2142
  808W        W 4327   3.856   3.733  11.155 -0.1414 -0.1364  0.0160
  809W        W 4328   5.531   5.516   8.859  0.0087 -0.3332  0.1650
  810W        W 4329   5.920   9.160  10.349  0.1125 -0.2181  0.2611
  811W        W 4330   4.054   4.803  10.707  0.1259  0.1282  0.1160
  812W        W 4331   3.786   5.811  10.829  0.0468 -0.0777 -0.0702
  813W        W 4332   5.274   6.306   4.151 -0.1424 -0.3605  0.1274
  814W        W 4333   1.929   8.764   2.854  0.2695 -0.2376 -0.0838
  815W        W 4334   1.614   9.067  12.123  0.1882  0.0179  0.0765
  816W        W 4335   5.984   1.829   2.413 -0.2875 -0.0831  0.0594
  817W        W 4336   1.902   2.323   3.255  0.0875 -0.0125 -0.0723
  818W        W 4337   9.101   0.406   1.070  0.0274  0.1639 -0.1342
  819W        W 4338   4.739   7.414   0.094  0.1283 -0.0293 -0.2008
  820W        W 4339   6.087   8.552   0.836 -0.1967  0.0761 -0.3134
  821W        W 4340   9.016   1.215   2.265 -0.0882  0.0151  0.3313
  822W        W 4341   3.563   6.567   2.076  0.1268 -0.1566 -0.4893
  823W        W 4342   5.235   8.031   3.124 -0.3708  0.1845 -0.0647
  824W        W 4343   5.861   9.314   3.078 -0.0665  0.0079  0.0958
  825W        W 4344   3.577   8.451  11.884  0.0724 -0.2484 -0.0404
  826W        W 4345   7.758   2.280   0.416  0.0250 -0.0981  0.1432
  827W        W 4346   4.738   5.926   2.444 -0.2102  0.2129  0.0218
  828W        W 4347   4.525   5.831   9.243 -0.1205 -0.3538  0.1584
  829W        W 4348   6.982   3.781   0.087 -0.4538  0.2105  0.1543
  830W        W 4349   7.549   2.759  11.247  0.0211 -0.0674  0.0258
  831W        W 4350   7.544   3.991   2.842 -0.0665  0.0157 -0.3272
  832W        W 4351   3.997   1.073  10.728  0.0120  0.0401  0.0330
  833W        W 4352   3.251   2.203  12.617 -0.1996 -0.1975 -0.2758
  834W        W 4353   0.505   6.636   1.464 -0.2335  0.4029  0.1588
  835W        W 4354   3.967   9.294  11.167 -0.1776 -0.1879 -0.0344
  836W        W 4355   8.268   6.261  10.344  0.1793 -0.0758 -0.0431
  837W        W 4356   3.049   6.360   0.245  0.0182  0.4445  0.3342
  838W        W 4357   5.852   0.861   1.366  0.2603 -0.0307 -0.2657
  839W        W 4358   3.472   3.823   8.845  0.0906  0.1787 -0.0419
  840W        W 4359   8.295   8.429   8.666 -0.0325  0.0934 -0.3907
  841W        W 4360   9.560   5.987   9.601  0.0898  0.3127 -0.1086
  842W        W 4361   7.142   7.300   0.407 -0.4355  0.2632  0.0778
  843W        W 4362   0.901   3.169  10.993 -0.1275  0.3394  0.0188
  844W        W 4363   7.190   6.173   2.917 -0.1068 -0.2471 -0.0536
  845W        W 4364   1.608   2.605  11.243 -0.0995  0.0343  0.0654
  846W        W 4365   2.793   6.837   3.599  0.2628  0.0453 -0.0206
  847W        W 4366   3.935   8.746   9.256  0.0463  0.2920  0.0755
  848W        W 4367   4.765   4.926   0.271 -0.2590 -0.0492  0.2071
  849W        W 4368   5.107   9.538   2.250  0.1749 -0.0481 -0.1425
  850W        W 4369   4.034   6.457  11.622 -0.0104  0.3379 -0.1387
  851W        W 4370   3.699   7.020   2.380 -0.2144 -0.0828  0.2258
  852W        W 4371   9.656   2.294  11.618 -0.0967 -0.0316 -0.2056
  853W        W 4372   3.209   5.615  12.011 -0.3112  0.2563 -0.2730
  854W        W 4373   9.262   7.545  11.742  0.0559 -0.0518  0.0842
  855W        W 4374   6.234   8.094   3.630 -0.2333  0.1586 -0.1639
  856W        W 4375   3.430   4.023   1.927  0.0795 -0.1970  0.0448
  857W        W 4376   6.239   5.007   0.091 -0.1506 -0.3012 -0.3823
  858W        W 4377   0.735   7.441   3.804  0.3914  0.2845  0.0685
  859W        W 4378   5.435   3.014   2.043 -0.1480  0.1892 -0.4473
  860W        W 4379   6.620   2.007   3.295  0.2080  0.1926  0.2748
  861W        W 4380   2.412   1.491   0.080  0.0430 -0.1889 -0.5288
  862W        W 4381   0.767   1.487   8.731  0.0323  0.0954 -0.3312
  863W        W 4382   5.679   4.446   8.223  0.0836  0.2277  0.2155
  864W        W 4383   0.661   7.140   3.425 -0.1563 -0.2338  0.1499
  865W        W 4384   9.287   5.572   8.953  0.3077  0.0053  0.2275
  866W        W 4385   4.104   0.776   9.174  0.0021 -0.2283  0.0669
  867W        W 4386   0.821   8.861  11.101 -0.1512  0.1816 -0.1986
  868W        W 4387   4.238   8.836   4.595 -0.2636  0.1154  0.1558
  869W        W 4388   5.339   0.569  11.042 -0.1589  0.0558 -0.1967
  870W        W 4389   6.275   1.378   9.638  0.3213 -0.0736 -0.1004
  871W        W 4390   2.479   2.989   2.381 -0.0928  0.2890  0.0395
  872W        W 4391   6.681   5.046   3.815 -0.2524 -0.1737 -0.1691
  873W        W 4392   3.942   4.897   3.117 -0.3185 -0.0661 -0.1295
  874W        W 4393   8.206   5.850   3.785 -0.1446 -0.0781  0.1803
  875W        W 4394   4.188   6.039   8.914 -0.0483 -0.0905  0.3264
  876W        W 4395   5.910   6.820  12.412  0.1422  0.0390 -0.0349
  877W        W 4396   0.317   1.053  12.355  0.2469 -0.1709 -0.1879
  878W        W 4397   3.465   7.507   4.491 -0.0193  0.2375  0.0056
  879W        W 4398   3.952   7.557  10.789 -0.1300 -0.1739  0.0751
  880W        W 4399   2.759   8.192   9.396 -0.1660 -0.2690  0.1327
  881W        W 4400   1.929   3.065   2.279  0.2364  0.1327 -0.1315
  882W        W 4401   6.364   6.148  11.581  0.1469  0.2596  0.1987
  883W        W 4402   1.391   7.335   2.381  0.0658  0.0696  0.1103
  884W        W 4403   8.713   6.031   2.119 -0.1462  0.0100  0.1334
  885W        W 4404   3.542   7.226  11.765  0.0788 -0.1247  0.1849
  886W        W 4405   4.250   3.986   1.643 -0.1121  0.4492 -0.1274
  887W        W 4406   8.935   3.712   9.989 -0.0722 -0.1675 -0.2859
  888W        W 4407   9.077   9.126   4.575  0.1996 -0.1319  0.1352
  889W        W 4408   6.835   1.839   0.570  0.0634 -0.0439  0.1448
  890W        W 4409   9.422   6.806  12.077 -0.0555 -0.0004  0.2900
  891W        W 4410   9.266   5.558   1.572  0.1177  0.1305 -0.0323
  892W        W 4411   5.047   5.848   0.139  0.1957  0.0440  0.4260
  893W        W 4412   7.196   4.006   9.206 -0.0186  0.3283 -0.0213
  894W        W 4413   9.209   4.004  10.302 -0.4078 -0.1734 -0.1889
  895W        W 4414   6.291   2.706   1.870  0.0023  0.1325 -0.2855
  896W        W 4415   0.235   2.551   9.148 -0.2683  0.2313  0.2482
  897W        W 4416   7.461   1.997   3.172  0.0104 -0.2174  0.2410
  898W        W 4417   2.424   4.852   3.189  0.1099  0.0976 -0.2486
  899W        W 4418   7.025   1.341  12.116 -0.1731 -0.0448 -0.0791
  900W        W 4419   8.037   5.638  10.465  0.0185  0.0795 -0.2662
  901W        W 4420   4.788   9.225   8.838 -0.1817  0.0933  0.0564
  902W        W 4421   4.046   8.739   2.741  0.3090  0.0809 -0.3124
  903W        W 4422   7.400   1.284  11.669  0.3069 -0.0946  0.0010
  904W        W 4423   6.953   8.616   1.445 -0.1279  0.1361 -0.0987
  905W        W 4424   7.558   5.909   4.948  0.2468 -0.1255 -0.2428
  906W        W 4425   0.795   9.217   0.592  0.2182 -0.5580 -0.5594
  907W        W 4426   7.600   0.882   1.415  0.2094 -0.0203 -0.1635
  908W        W 4427   5.211   1.656   0.627  0.1385 -0.1560 -0.1382
  909W        W 4428   2.875   3.936   2.392  0.3644  0.1213 -0.0540
  910W        W 4429   9.120   8.112  12.439  0.0738  0.1738 -0.0910
  911W        W 4430   4.807   5.695   8.436  0.1477  0.0481 -0.1428
  912W        W 4431   6.978   2.705   3.405 -0.1980 -0.0616  0.0746
  913W        W 4432   7.586   2.615  10.297 -0.2105 -0.1150 -0.1544
  914W        W 4433   1.769   6.390   1.176 -0.0909  0.0042  0.1415
  915W        W 4434   8.997   9.176   2.043 -0.0106  0.1293 -0.1429
  916W        W 4435   7.756   0.120   1.785  0.0927  0.0777 -0.0320
  917W        W 4436   6.004   4.222  12.051  0.3801  0.2626 -0.1783
  918W        W 4437   0.602   6.702   4.560 -0.2682  0.3793 -0.0373
  919W        W 4438   3.490   2.052   1.670  0.3925  0.0665  0.0557
  920W        W 4439   4.179   3.916  10.774  0.4502  0.1691  0.2763
  921W        W 4440   2.317   0.449  10.736 -0.0861  0.2039  0.1283
  922W        W 4441   2.526   7.857   8.496  0.0842 -0.1046 -0.0315
  923W        W 4442   1.537   9.512   2.906  0.2472  0.1531  0.0214
  924W        W 4443   8.593   0.387  11.214  0.2290  0.2385  0.1480
  925W        W 4444   8.095   6.519   4.820  0.2066 -0.2269  0.2147
  926W        W 4445   2.532   2.695   1.048  0.1708  0.2089 -0.0960
  927W        W 4446   6.389   7.695   1.845  0.0963 -0.1184 -0.1021
  928W        W 4447   2.163   2.892  11.933 -0.0151  0.1885 -0.2872
  929W        W 4448   5.268   0.070  11.277 -0.1283  0.1530 -0.0594
  930W        W 4449   4.119   6.687   7.773 -0.2840  0.0726 -0.0562
  931W        W 4450   0.709   9.201  10.664 -0.1529  0.0949  0.1468
  932W        W 4451   2.344   3.615   9.998 -0.0507  0.1417  0.1403
  933W        W 4452   4.632   0.178   0.363  0.1223 -0.1672  0.0373
  934W        W 4453   2.914   8.959   0.624 -0.1139 -0.2453  0.1102
  935W        W 4454   8.589   0.449  11.739 -0.1556  0.0574  0.0164
  936W        W 4455   1.665   6.753   3.000 -0.2004 -0.1147  0.2541
  937W        W 4456   7.316   7.931  10.303 -0.1062 -0.0807  0.0635
  938W        W 4457   7.853   3.020  12.320 -0.0450 -0.0202  0.0887
  939W        W 4458   9.652   7.826   8.748  0.3735 -0.0935  0.0760
  940W        W 4459   1.005   1.409   0.214 -0.0844 -0.3397  0.6919
  941W        W 4460   8.022   4.543  10.896 -0.0254  0.0703 -0.0803
  942W        W 4461   9.543   8.784   1.426 -0.0355  0.4673 -0.2115
  943W        W 4462   3.108   0.287   0.944  0.2119  0.1181 -0.3096
  944W        W 4463   2.694   3.062   1.374 -0.1114 -0.1881  0.1214
  945W        W 4464   2.316   3.823   0.454  0.0096 -0.2139 -0.3698
  946W        W 4465   4.274   8.588   3.215  0.0665 -0.1250 -0.2208
  947W        W 4466   3.781   8.379  10.277  0.0916  0.0313  0.5877
  948W        W 4467   5.135   9.630   8.772 -0.2073  0.0199 -0.1361
  949W        W 4468   4.340   4.323   0.780  0.1381 -0.0345 -0.1468
  950W        W 4469   7.971   7.142   1.085  0.0983 -0.0198  0.0681
  951W        W 4470   8.133   9.473   0.640  0.0149  0.1699 -0.3045
  952W        W 4471   7.638   1.855   9.797 -0.0631  0.1406 -0.2671
  953W        W 4472   1.386   3.867   9.120  0.1495 -0.3713  0.1153
  954W        W 4473   8.757   2.767   3.273 -0.2460  0.1301 -0.0902
  955W        W 4474   8.089   7.554   2.184  0.0113  0.0288 -0.2078
  956W        W 4475   3.599   8.314   2.014  0.1736  0.1270 -0.1720
  957W        W 4476   5.320   9.109   2.260  0.4090  0.1026  0.0539
  958W        W 4477   8.206   6.776   8.579 -0.1004 -0.2450  0.0980
  959W        W 4478   8.863   1.666  11.587  0.3403  0.1404 -0.2187
  960W        W 4479   6.767   9.180   2.749  0.0932  0.4092 -0.1244
  961W        W 4480   0.409   6.458   9.554  0.3656 -0.0927 -0.0804
  962W        W 4481   5.176   5.522  10.393 -0.1538  0.0030  0.0337
  963W        W 4482   5.068   4.195   9.597 -0.3440 -0.0563  0.2840
  964W        W 4483   3.907   6.215   1.990  0.1683 -0.0996  0.0779
  965W        W 4484   3.980   6.304   0.294  0.4142  0.0170 -0.4632
  966W        W 4485   6.449   0.382   2.943  0.0754  0.1169  0.0134
  967W        W 4486   7.079   3.239   3.430 -0.0167  0.1697  0.1979
  968W        W 4487   9.447   2.263   3.745  0.0976 -0.2392  0.0604
  969W        W 4488   8.857   0.288   2.027  0.3344 -0.0972  0.0147
  970W        W 4489   3.826   4.101   2.833  0.0912  0.0083 -0.0310
  971W        W 4490   0.932   5.446   1.362  0.1677 -0.0066 -0.0252
  972W        W 4491   7.901   3.311   1.144  0.2643 -0.0255 -0.0415
  973W        W 4492   6.019   9.630  10.629 -0.2162 -0.0895 -0.0960
  974W        W 4493   6.393   4.632  10.580 -0.1318 -0.1487 -0.0605
  975W        W 4494   9.364   7.623   2.434 -0.1284 -0.0575  0.0326
  976W        W 4495   8.300   7.901   7.501  0.1887 -0.2418  0.2216
  977W        W 4496   0.671   5.351   3.356  0.0614 -0.0713  0.5037
  978W        W 4497   8.173   0.428   8.689 -0.0161  0.3035  0.0887
  979W        W 4498   0.755   1.518  11.258 -0.1221  0.0297 -0.0271
  980W        W 4499   8.176   7.203   8.170  0.2443 -0.2174 -0.0340
  981W        W 4500   7.018   4.390  11.892 -0.2774  0.0534 -0.0788
  982W        W 4501   1.570   7.580   1.861  0.1587  0.0364 -0.1828
  983W        W 4502   6.611   6.024   3.280  0.0265 -0.2876 -0.0226
  984W        W 4503   5.613   8.280   1.570 -0.1876 -0.1258 -0.1944
  985W        W 4504   3.132   9.345   0.307 -0.2345 -0.2081 -0.1296
  986W        W 4505   5.164   2.874   9.012 -0.0476  0.0512  0.0112
  987W        W 4506   5.511   2.270  10.248  0.3046 -0.1079  0.2412
  988W        W 4507   6.769   3.972   9.008 -0.1024  0.3131 -0.1815
  989W        W 4508   0.855   5.581   2.943  0.0434  0.2609 -0.0862
  990W        W 4509   1.451   6.440   3.374 -0.0143 -0.3772 -0.2156
  991W        W 4510   8.903   7.492   9.859  0.1183  0.1402  0.0008
  992W        W 4511   2.612   7.339   9.441 -0.0952 -0.0609 -0.1022
  993W        W 4512   5.404   8.993   3.153  0.3132 -0.1150 -0.2213
  994W        W 4513   5.712   1.720   4.390 -0.0044  0.2027  0.1773
  995W        W 4514   8.065   8.193   2.505 -0.1279  0.1507 -0.2628
  996W        W 4515   6.469   3.619   9.155  0.1395  0.2740  0.0837
  997W        W 4516   3.856   2.045   2.095  0.0156  0.1095  0.1296
  998W        W 4517   3.569   0.485   3.494  0.1844 -0.0825  0.0988
  999W        W 4518   8.070   9.279   1.446  0.2445  0.2560  0.0530
 1000W        W 4519   8.941   2.220   9.710 -0.0053 -0.1237  0.1405
 1001W        W 4520   3.400   4.932   1.758  0.1424 -0.0350 -0.4076
 1002W        W 4521   7.045   9.501   1.729  0.3538  0.4428  0.1307
 1003W        W 4522   1.937   1.347   3.196 -0.0868  0.1373 -0.0528
 1004W        W 4523   4.703   0.399   9.557 -0.2145 -0.2022  0.0467
 1005W        W 4524   6.457   0.109   9.917 -0.0119 -0.0261 -0.3501
 1006W        W 4525   8.786   7.769   1.740 -0.1247 -0.0241 -0.2773
 1007W        W 4526   8.653   5.459   2.184 -0.0412 -0.3389  0.0698
 1008W        W 4527   0.878   3.638   9.598 -0.0737 -0.0330 -0.0783
 1009W        W 4528   8.791   7.000  12.398  0.1373 -0.1206 -0.0104
 1010W        W 4529   7.264   1.077   3.996 -0.0385  0.4913 -0.1634
 1011W        W 4530   6.165   0.813   9.355  0.2113  0.1252 -0.0614
 1012W        W 4531   9.590   4.770   3.152 -0.2431 -0.1074  0.0356
 1013W        W 4532   7.184   6.364   7.701 -0.3110  0.0861  0.0344
 1014W        W 4533   0.115   0.936   0.460  0.1043  0.0708  0.0661
 1015W        W 4534   5.395   2.435   8.554  0.0616  0.1438 -0.1188
 1016W        W 4535   5.800   3.990   3.765  0.2177  0.0631 -0.0725
 1017W        W 4536   7.445   0.251   3.812  0.1013 -0.2701  0.1521
 1018W        W 4537   9.519   1.842   2.315  0.0749 -0.2008 -0.1604
 1019W        W 4538   0.253   4.292   1.931  0.1605  0.1402 -0.3283
 1020W        W 4539   3.054   8.678   8.988  0.0140  0.0388  0.0127
 1021W        W 4540   2.176   4.581  12.542  0.0136 -0.0769  0.0479
 1022W        W 4541   3.506   4.176  11.082 -0.1817 -0.2390 -0.2203
 1023W        W 4542   4.266   5.403  12.454 -0.0829 -0.0385 -0.4017
 1024W        W 4543   8.678   3.959   2.313  0.0916  0.2824 -0.1297
 1025W        W 4544   8.657   3.750  11.139  0.0531 -0.1421  0.0714
 1026W        W 4545   1.578   7.604   3.286  0.0394 -0.1189 -0.0151
 1027W        W 4546   9.400   2.965  10.674  0.0994 -0.0624  0.1669
 1028W        W 4547   6.348   4.191  10.306  0.4436 -0.2977 -0.0715
 1029W        W 4548   2.209   9.171  10.443 -0.2900 -0.0996  0.0672
 1030W        W 4549   6.956   0.560   3.057 -0.1195  0.2031  0.3710
 1031W        W 4550   8.174   7.160   8.929  0.1853 -0.3131  0.4749
 1032W        W 4551   8.847   4.919   1.077 -0.0386 -0.0555  0.0150
 1033W        W 4552   5.868   5.174   4.229  0.3480  0.3022  0.0174
 1034W        W 4553   4.138   6.952   8.558 -0.1763 -0.1804 -0.2559
 1035W        W 4554   1.848   0.101   3.837 -0.1889 -0.1269  0.0188
 1036W        W 4555   1.075   4.755   9.030  0.2528 -0.1585 -0.1148
 1037W        W 4556   8.906   8.286  10.543 -0.0693  0.0354  0.1770
 1038W        W 4557   3.710   7.447  12.566  0.0289  0.5301  0.0002
 1039W        W 4558   5.099   8.155   1.536 -0.0397 -0.2373  0.1282
 1040W        W 4559   8.928   7.082  11.289  0.2920  0.0380  0.1605
 1041W        W 4560   9.459   9.192  12.213  0.2326  0.1215  0.0269
 1042W        W 4561   7.180   9.273  10.209  0.1964 -0.1909 -0.1402
 1043W        W 4562   7.561   0.158  12.398 -0.1764  0.1484  0.0151
 1044W        W 4563   8.639   2.750   1.606 -0.1354  0.0195 -0.0584
 1045W        W 4564   5.049   6.601  12.221 -0.1601 -0.0244 -0.1722
 1046W        W 4565   4.043   7.465   8.865  0.0329  0.1245 -0.0284
 1047W        W 4566   2.743   6.138   0.955 -0.0158 -0.2206  0.1004
 1048W        W 4567   7.501   5.416   3.999 -0.1092 -0.0076  0.0445
 1049W        W 4568   6.320   5.334   1.058 -0.1239 -0.5450 -0.0473
 1050W        W 4569   4.517   7.364  11.804 -0.0215 -0.0892  0.1847
 1051W        W 4570   8.471   7.763  10.020 -0.1308 -0.0743 -0.3092
 1052W        W 4571   0.030   6.148   8.323  0.2011  0.2653  0.2322
 1053W        W 4572   5.096   7.698  10.473  0.3393  0.3785  0.0943
 1054W        W 4573   7.889   8.106  12.136 -0.1757 -0.0994 -0.1452
 1055W        W 4574   5.809   5.379   0.297  0.2113 -0.1368  0.1895
 1056W        W 4575   7.100   2.070   8.783  0.0166 -0.1445 -0.2322
 1057W        W 4576   3.345   8.063  11.155  0.0967 -0.1188 -0.1608
 1058W        W 4577   5.747   1.244  12.569  0.0139 -0.0010 -0.3063
 1059W        W 4578   8.976   6.997   0.654  0.0122 -0.2281 -0.0178
 1060W        W 4579   2.679   6.504   9.314  0.1457 -0.4247  0.0913
 1061W        W 4580   0.110   0.437  10.708 -0.0127 -0.3159  0.1582
 1062W        W 4581   1.354   5.100   9.260 -0.1924  0.0675  0.0841
 1063W        W 4582   8.173   5.477   2.620 -0.1909 -0.1518 -0.1438
 1064W        W 4583   5.161   6.147  10.489  0.1852  0.0525 -0.1751
 1065W        W 4584   2.844   6.657  11.928 -0.2525  0.2897 -0.1273
 1066W        W 4585   4.742   7.265   1.314  0.0939 -0.0120 -0.4179
 1067W        W 4586   8.383   8.175   1.653  0.0550  0.1112  0.3363
 1068W        W 4587   8.162   1.517   9.677 -0.1787  0.0536  0.0218
 1069W        W 4588   3.248   0.631  11.066 -0.0328 -0.2087  0.4554
 1070W        W 4589   5.964   1.316  11.242  0.1166 -0.3028 -0.0700
 1071W        W 4590   2.328   6.543   3.756  0.0847 -0.3002  0.1447
 1072W        W 4591   9.152   4.637   1.387  0.0332 -0.2613 -0.1197
 1073W        W 4592   9.463   5.368   1.194 -0.0583  0.0808 -0.0294
 1074W        W 4593   6.206   2.715  11.521  0.3394 -0.0254 -0.0103
 1075W        W 4594   8.263   0.410   3.610 -0.1140 -0.1885  0.3182
 1076W        W 4595   7.740   4.279   2.079  0.0038  0.1839  0.6077
 1077W        W 4596   9.031   2.025   1.305  0.1440 -0.1074 -0.3410
 1078W        W 4597   4.690   3.631   2.794 -0.0252 -0.0389 -0.0807
 1079W        W 4598   4.312   4.057  10.337 -0.1454  0.1326 -0.0455
 1080W        W 4599   4.151   0.825   1.719 -0.1229  0.2404  0.1587
 1081W        W 4600   1.636   6.379  11.036 -0.2270 -0.1786  0.3112
 1082W        W 4601   7.955   2.977   3.115 -0.0291  0.0363 -0.0860
 1083W        W 4602   9.656   2.719   2.967 -0.0417  0.1078  0.0644
 1084W        W 4603   0.925   5.997   2.115  0.2527  0.2295  0.1759
 1085W        W 4604   6.398   9.255   3.021  0.1647 -0.0904  0.0756
 1086W        W 4605   9.482   0.659  11.083  0.2993  0.2629 -0.1026
 1087W        W 4606   3.269   1.716  11.253  0.0243  0.1761 -0.2267
 1088W        W 4607   3.610   6.188  11.131 -0.1122  0.1095 -0.3670
 1089W        W 4608   8.269   6.493   2.692 -0.1913 -0.3897 -0.1054
 1090W        W 4609   8.802   0.783   2.679  0.2772  0.1727  0.2513
 1091W        W 4610   0.491   4.241  11.762 -0.0091 -0.0758  0.1598
 1092W        W 4611   7.010   5.738   2.150 -0.0860  0.0987  0.0229
 1093W        W 4612   8.553   0.162   2.756  0.0740  0.0981  0.2092
 1094W        W 4613   0.400   5.030  10.720 -0.1102 -0.1797 -0.0810
 1095W        W 4614   3.848   8.318  11.461 -0.0549 -0.2437 -0.2102
 1096W        W 4615   7.830   0.295   3.025  0.3186 -0.2470  0.0936
 1097W        W 4616   3.744   6.897  10.874 -0.1078  0.1303  0.0927
 1098W        W 4617   8.517   1.333  12.530  0.1196 -0.1181  0.1199
 1099W        W 4618   6.886   8.830   1.915  0.0309  0.3586  0.1126
 1100W        W 4619   3.129   7.023  10.774 -0.3278  0.0549 -0.0230
 1101W        W 4620   8.755   4.277   1.672  0.2024  0.2035  0.1230
 1102W        W 4621   6.514   1.496   1.043 -0.1665 -0.0360 -0.0770
 1103W        W 4622   7.243   1.499  10.771  0.0879 -0.0772  0.1750
 1104W        W 4623   9.506   8.523   4.328  0.0572  0.0030 -0.3880
 1105W        W 4624   2.164   3.800   9.518  0.0193  0.3750 -0.1667
 1106W        W 4625   6.320   8.984  10.123  0.0308 -0.2381 -0.2349
 1107W        W 4626   4.143   9.050  10.809 -0.4421  0.1577 -0.0993
 1108W        W 4627   8.918   8.378   3.777 -0.1818 -0.0712 -0.1301
 1109W        W 4628   8.923   9.270  12.477  0.1181  0.1365 -0.0501
 1110W        W 4629   5.067   7.574   0.433  0.0115  0.0532 -0.2269
 1111W        W 4630   1.865   4.117  10.301 -0.0272 -0.0944 -0.3030
 1112W        W 4631   7.966   7.225  11.516 -0.2628  0.3660 -0.2234
 1113W        W 4632   6.995   3.563   9.396  0.1048 -0.0664  0.2504
 1114W        W 4633   3.751   5.751   2.858  0.0776 -0.0519  0.1080
 1115W        W 4634   9.013   7.915   3.568 -0.0440  0.1965  0.3952
 1116W        W 4635   4.209   6.226  11.254  0.1259  0.3565  0.3296
 1117W        W 4636   8.227   4.909  12.198 -0.1836 -0.0113 -0.0578
 1118W        W 4637   3.327   0.108   3.156 -0.0915  0.0975 -0.1445
 1119W        W 4638   7.345   0.480  11.982  0.1330 -0.1008 -0.0093
 1120W        W 4639   8.285   8.021   0.830 -0.0332  0.1963  0.0377
 1121W        W 4640   7.784   3.796   3.234  0.2159  0.2383 -0.0938
 1122W        W 4641   0.602   9.284   2.320 -0.1845 -0.1339  0.3089
 1123W        W 4642   6.863   2.530   0.411 -0.1851 -0.2776 -0.1558
 1124W        W 4643   6.328   4.012  12.355 -0.2925  0.0884  0.2119
 1125W        W 4644   6.662   3.943  11.341 -0.2524 -0.2910 -0.0885
 1126W        W 4645   2.846   5.708  10.836 -0.0105 -0.2429 -0.0996
 1127W        W 4646   3.144   4.323   0.591 -0.3688 -0.2229 -0.0203
 1128W        W 4647   1.756   8.527  12.189  0.0183  0.0085 -0.0599
 1129W        W 4648   9.014   0.886   0.310 -0.2017  0.2298  0.2513
 1130W        W 4649   8.501   5.683   8.209 -0.1518 -0.0823 -0.0452
 1131W        W 4650   0.616   9.330   9.221 -0.1632 -0.1920 -0.3963
 1132W        W 4651   7.807   4.063   9.002 -0.1343 -0.0948  0.2900
 1133W        W 4652   2.997   1.440  10.170 -0.1045  0.1783 -0.5677
 1134W        W 4653   8.198   3.831   1.620 -0.1484 -0.1829  0.1825
 1135W        W 4654   6.233   1.592   8.675 -0.1146  0.0739  0.1925
 1136W        W 4655   6.180   3.211   2.942 -0.0328  0.1885  0.0300
 1137W        W 4656   3.111   3.746   9.194 -0.2357 -0.0497 -0.2539
 1138W        W 4657   6.275   2.495   9.587 -0.1985  0.1775 -0.0740
 1139W        W 4658   1.714   8.201  11.788 -0.1970  0.1553 -0.3459
 1140W        W 4659   3.307   6.070   3.619  0.0413 -0.0229 -0.0682
 1141W        W 4660   7.301   6.990  11.187  0.1008 -0.1463  0.0715
 1142W        W 4661   1.934   4.737   2.312 -0.0430  0.0120 -0.1422
 1143W        W 4662   9.600   7.817   3.816  0.3145 -0.1423 -0.4377
 1144W        W 4663   7.965   8.461   1.659 -0.6799  0.2024  0.0703
 1145W        W 4664   4.987   0.813   9.640  0.1214 -0.1125 -0.2180
 1146W        W 4665   9.202   0.017  12.406  0.4276  0.1652 -0.0684
 1147W        W 4666   0.739   7.638   9.101 -0.3046 -0.1775 -0.1367
 1148W        W 4667   3.179   1.599   0.874 -0.1614 -0.1410  0.0878
 1149W        W 4668   2.517   5.633   0.315  0.1427 -0.1582 -0.0050
 1150W        W 4669   5.928   6.367  10.157  0.1417 -0.0289  0.0648
 1151W        W 4670   9.129   7.115   7.765  0.0409  0.1137 -0.3358
 1152W        W 4671   0.606   9.469  10.269  0.2429 -0.0481  0.2701
 1153W        W 4672   2.123   7.341   4.100  0.1821  0.0758 -0.1527
 1154W        W 4673   8.599   6.281   4.869  0.0302 -0.0141  0.1130
 1155W        W 4674   1.030   1.792  12.398  0.0341  0.2321  0.2531
 1156W        W 4675   5.358   8.090  10.226  0.1452  0.0996 -0.0322
 1157W        W 4676   6.691   9.279   2.169  0.1594  0.3124 -0.2884
 1158W        W 4677   0.014   6.396   2.262 -0.0809  0.0420 -0.2434
 1159W        W 4678   4.744   1.710   1.990 -0.3033 -0.2338  0.1149
 1160W        W 4679   8.879   0.849   1.377 -0.2090 -0.0208 -0.0032
 1161W        W 4680   8.714   3.889   7.986 -0.2813 -0.0574 -0.2940
 1162W        W 4681   3.913   7.759  11.290 -0.2981 -0.1096 -0.0855
 1163W        W 4682   3.137   2.291  12.048 -0.0180 -0.0319 -0.3189
 1164W        W 4683   6.004   5.329   3.736  0.1985 -0.3250 -0.1645
 1165W        W 4684   9.574   4.284  11.720  0.2026  0.0052  0.0328
 1166W        W 4685   6.721   2.772   0.892 -0.0808 -0.0973  0.2526
 1167W        W 4686   7.357   3.505   8.415  0.0543  0.2515 -0.0389
 1168W        W 4687   2.442   3.510   2.088 -0.0026  0.3227 -0.2071
 1169W        W 4688   3.901   3.556   3.265 -0.1094  0.3247 -0.0401
 1170W        W 4689   8.613   0.044  12.550 -0.0117 -0.2041  0.1662
 1171W        W 4690   2.232   1.801   2.014  0.0799  0.0272  0.0024
 1172W        W 4691   3.516   2.071  11.441  0.1684  0.1329 -0.1090
 1173W        W 4692   5.259   8.805   4.137  0.1719  0.2435  0.2543
 1174W        W 4693   1.790   0.589  10.813 -0.0351 -0.1058 -0.2014
 1175W        W 4694   4.006   1.864  11.997 -0.0843  0.1617  0.0861
 1176W        W 4695   1.165   4.062   1.229  0.0093  0.1935  0.2338
 1177W        W 4696   3.897   6.241   9.955  0.1707 -0.4068 -0.1007
 1178W        W 4697   2.378   6.009   0.627  0.0854  0.3334 -0.0460
 1179W        W 4698   6.583   3.037   8.907 -0.2136 -0.0030 -0.2797
 1180W        W 4699   8.428   6.583  10.018 -0.1310 -0.3293 -0.0643
 1181W        W 4700   4.502   3.286  10.090 -0.0263  0.0984  0.1023
 1182W        W 4701   7.370   0.692   0.374 -0.0103  0.0812 -0.0747
 1183W        W 4702   6.454   4.717   0.855  0.1474  0.4145  0.1003
 1184W        W 4703   1.091   1.603  10.920 -0.0622  0.0753  0.1054
 1185W        W 4704   7.074   6.684   0.528  0.0579 -0.1109  0.0533
 1186W        W 4705   9.503   5.363   1.995 -0.1068  0.0933 -0.3235
 1187W        W 4706   0.617   0.915   2.896 -0.0452 -0.2475 -0.3029
 1188W        W 4707   4.574   1.826  12.104  0.0472 -0.0417 -0.0096
 1189W        W 4708   8.678   5.428  12.394 -0.0120  0.1711 -0.0938
 1190W        W 4709   6.554   3.015   3.248 -0.2901 -0.3002 -0.0825
 1191W        W 4710   3.699   0.368  11.907 -0.2805 -0.1018  0.0524
 1192W        W 4711   2.472   4.613   9.607  0.2218  0.2135 -0.0928
 1193W        W 4712   7.329   3.229   9.207  0.2663  0.2207  0.0215
 1194W        W 4713   1.438   9.544  12.234  0.1720  0.1989  0.1681
 1195W        W 4714   9.589   9.464   3.532 -0.1804 -0.0768  0.0683
 1196W        W 4715   6.120   9.351   1.964 -0.1540 -0.0429 -0.0820
 1197W        W 4716   8.209   7.157   4.193 -0.0920 -0.1606 -0.2794
 1198W        W 4717   8.311   2.211   9.248  0.1409 -0.0213 -0.0614
 1199W        W 4718   2.506   3.379   0.626  0.2245  0.0758 -0.3080
 1200W        W 4719   7.289   4.264  10.209 -0.1808 -0.2384 -0.0490
 1201W        W 4720   4.324   9.605   3.035 -0.0498  0.0987 -0.0254
 1202W        W 4721   8.361   0.979   2.641  0.2030  0.1893  0.0742
 1203W        W 4722   0.423   2.209  11.347  0.2139 -0.3529  0.2484
 1204W        W 4723   2.369   5.943  11.179  0.2283  0.0477 -0.0484
 1205W        W 4724   6.596   1.225   3.603  0.1840 -0.0963 -0.1676
 1206W        W 4725   5.349   0.527   3.654  0.2874 -0.0107  0.1185
 1207W        W 4726   8.604   5.879   2.561 -0.0432  0.1316  0.1980
 1208W        W 4727   9.428   3.809   8.760 -0.1067  0.0836 -0.0732
 1209W        W 4728   2.093   1.211  11.538  0.3508  0.2201  0.3124
 1210W        W 4729   1.404   2.491   1.118 -0.2020  0.0540  0.1909
 1211W        W 4730   6.408   3.256   9.517  0.2039  0.0782 -0.0974
 1212W        W 4731   7.893   2.937   4.043  0.0443 -0.0006 -0.0723
 1213W        W 4732   6.824   0.852   2.673 -0.0617  0.0977 -0.2660
 1214W        W 4733   3.904   3.827  12.333 -0.0416 -0.3436  0.1303
 1215W        W 4734   8.913   7.966  11.633 -0.1370  0.3066  0.2295
 1216W        W 4735   6.954   0.537  11.510 -0.2091 -0.2623 -0.0831
 1217W        W 4736   4.345   2.733   2.835  0.1673 -0.1292 -0.0741
 1218W        W 4737   9.329   8.120  11.979 -0.0375  0.0654  0.3563
 1219W        W 4738   2.867   3.073   1.906 -0.1061 -0.1100 -0.2161
 1220W        W 4739   7.861   0.130   3.499  0.0221 -0.0207 -0.2802
 1221W        W 4740   7.714   4.114  11.528 -0.0719 -0.3218  0.2194
 1222W        W 4741   0.166   6.990   8.769  0.2928  0.2901  0.2263
 1223W        W 4742   9.448   4.297   4.035 -0.0054  0.0011  0.1922
 1224W        W 4743   0.641   8.760   4.778  0.0320  0.3902 -0.2157
 1225W        W 4744   9.560   4.916   2.232 -0.1273  0.3696 -0.1923
 1226W        W 4745   1.091   8.127   2.787  0.0207  0.0369  0.2357
 1227W        W 4746   3.760   1.438  12.164 -0.2777 -0.2232  0.0074
 1228W        W 4747   9.420   2.891  11.350 -0.0139  0.0172  0.4002
 1229W        W 4748   5.910   6.519  10.965  0.2767  0.1887 -0.0661
 1230W        W 4749   4.461   0.899   2.090 -0.1677  0.1629  0.0471
 1231W        W 4750   5.229   0.863   0.621  0.0643  0.3535 -0.1160
 1232W        W 4751   8.428   1.151   1.275 -0.1998  0.0046 -0.1300
 1233W        W 4752   8.922   5.028   4.040 -0.1259 -0.2850  0.0828
 1234W        W 4753   1.138   7.625   2.799  0.0651 -0.1518 -0.0775
 1235W        W 4754   5.600   3.495  12.227 -0.1837 -0.0334  0.2240
 1236W        W 4755   0.020   6.921   9.322 -0.1674 -0.1276 -0.1777
 1237W        W 4756   9.569   3.861   3.405 -0.2837  0.1087  0.0781
 1238W        W 4757   5.613   8.939   9.982  0.1176 -0.0302  0.1391
 1239W        W 4758   2.159   6.313   1.504  0.0359 -0.1905 -0.1202
 1240W        W 4759   6.786   2.103   1.436 -0.1084 -0.0787 -0.0200
 1241W        W 4760   4.898   1.969  10.949  0.1076 -0.2528  0.3217
 1242W        W 4761   0.451   2.964   3.733  0.2097  0.0646  0.1791
 1243W        W 4762   1.857   5.747  10.461 -0.0027 -0.0383  0.2471
 1244W        W 4763   4.498   2.194   2.767 -0.0265 -0.1564 -0.0058
 1245W        W 4764   6.292   1.351  12.218 -0.0024  0.2634 -0.0224
 1246W        W 4765   0.291   2.707   2.549 -0.3356 -0.1067  0.0517
 1247W        W 4766   0.895   4.754   2.387 -0.6503  0.1829  0.0468
 1248W        W 4767   9.245   5.539   9.464  0.2436  0.0918  0.2571
 1249W        W 4768   3.427   0.045  12.609  0.0829 -0.0002  0.0225
 1250W        W 4769   6.347   3.159   1.133  0.0322  0.1914 -0.1815
 1251W        W 4770   5.839   9.575  11.125  0.0144  0.0622 -0.1608
 1252W        W 4771   2.825   6.880   5.484  0.0415 -0.0079 -0.2946
 1253W        W 4772   2.245   2.284  11.802  0.1260  0.2501 -0.0101
 1254W        W 4773   9.079   3.711   9.128  0.5112 -0.2622  0.1368
 1255W        W 4774   5.228   4.514   9.193  0.0195  0.0208 -0.0662
 1256W        W 4775   5.096   7.287   2.060 -0.1218  0.3763  0.1565
 1257W        W 4776   3.450   4.882   3.303 -0.0578  0.0320  0.1423
 1258W        W 4777   3.031   0.898   2.143 -0.2428 -0.2114 -0.4166
 1259W        W 4778   0.375   6.639   4.146  0.1447  0.0073  0.1371
 1260W        W 4779   4.737   4.415  11.702  0.2038  0.1558 -0.1287
 1261W        W 4780   3.175   6.810   3.895 -0.1411  0.1787 -0.1253
 1262W        W 4781   7.999   9.337   3.314  0.1927  0.0226  0.0745
 1263W        W 4782   7.349   4.769  10.962  0.2235 -0.1564  0.1088
 1264W        W 4783   8.463   1.809  10.077  0.0826 -0.3608 -0.0752
 1265W        W 4784   8.503   8.012  11.301 -0.1541 -0.2904 -0.0440
 1266W        W 4785   8.622   1.551  12.101 -0.2176 -0.2762 -0.0541
 1267W        W 4786   0.188   9.150  10.522 -0.0184  0.0747  0.1528
 1268W        W 4787   5.971   8.131   9.104  0.1482 -0.1792 -0.1236
 1269W        W 4788   8.640   7.500   4.082 -0.1168 -0.0959 -0.3866
 1270W        W 4789   8.534   3.960  11.884  0.0405  0.0529  0.0701
 1271W        W 4790   0.554   1.210   0.571 -0.2047 -0.0753  0.2368
 1272W        W 4791   7.404   0.773   2.951  0.5148 -0.0411 -0.1190
 1273W        W 4792   0.260   7.961   0.676  0.0299 -0.1391  0.0855
 1274W        W 4793   4.074   8.678  11.968 -0.0651  0.0565  0.0593
 1275W        W 4794   4.149   4.673   8.355 -0.2046 -0.1074 -0.1049
 1276W        W 4795   8.594   5.350   3.165 -0.0171  0.1027 -0.0128
 1277W        W 4796   8.940   6.029   2.888 -0.0927 -0.0777 -0.1331
 1278W        W 4797   4.506   2.516   2.389  0.0339  0.0302 -0.1324
 1279W        W 4798   0.123   1.545  12.216  0.2773  0.3518  0.0853
 1280W        W 4799   5.538   9.655  12.201  0.1431 -0.1242 -0.2587
 1281W        W 4800   3.526   5.877   1.280 -0.2310 -0.3144 -0.0162
 1282W        W 4801   7.477   6.136  11.110  0.1452  0.3015  0.0733
 1283W        W 4802   5.991   5.933   0.494  0.0405  0.1999 -0.0154
 1284W        W 4803   2.205   8.516   5.149 -0.0231 -0.0469 -0.0170
 1285W        W 4804   9.156   2.289   4.413  0.3025  0.0299 -0.0234
 1286W        W 4805   3.441   8.425  10.674  0.0516  0.0902  0.0169
 1287W        W 4806   2.238   3.843   2.736  0.3202  0.0435  0.2367
 1288W        W 4807   7.390   3.364   9.749  0.0530 -0.3322 -0.2097
 1289W        W 4808   5.295   5.089  10.067  0.1566  0.2070  0.4081
 1290W        W 4809   7.784   3.194   0.338  0.0968 -0.0727  0.0314
 1291W        W 4810   6.377   0.951   9.832  0.2547  0.1278  0.0328
 1292W        W 4811   9.263   6.067   8.564  0.1057  0.1976 -0.1449
 1293W        W 4812   7.472   9.027  10.524  0.0307  0.0175 -0.0641
 1294W        W 4813   8.837   5.360   4.379 -0.0268 -0.2333 -0.3249
 1295W        W 4814   6.455   1.719  10.116  0.1980 -0.1518  0.1001
 1296W        W 4815   5.775   2.943  11.334  0.1558  0.1567  0.3646
 1297W        W 4816   6.248   2.998   2.272 -0.2397 -0.1475 -0.1200
 1298W        W 4817   5.346   2.133  12.459  0.1437  0.0924 -0.0149
 1299W        W 4818   7.735   2.513  10.839  0.0990 -0.1198  0.0509
 1300W        W 4819   2.681   4.295  10.034 -0.1632 -0.2149 -0.1495
 1301W        W 4820   1.405   5.620   9.471 -0.0094 -0.0863 -0.1043
 1302W        W 4821   6.187   4.636   3.114 -0.4138 -0.0823  0.1220
 1303W        W 4822   8.089   7.102   1.863 -0.0306 -0.1825  0.0340
 1304W        W 4823   1.595   5.115   1.618 -0.2373  0.1779 -0.1284
 1305W        W 4824   8.287   7.124   3.491 -0.0620  0.3355 -0.1874
 1306W        W 4825   8.530   4.850   9.694 -0.2809  0.0014  0.0204
 1307W        W 4826   4.134   9.334   1.127  0.1629  0.0765  0.2138
 1308W        W 4827   0.278   0.867   4.588 -0.2063 -0.1258  0.0910
 1309W        W 4828   2.542   9.476  12.230  0.0839 -0.2143  0.3872
 1310W        W 4829   3.061   8.408   0.982  0.0334  0.1613  0.2043
 1311W        W 4830   1.706   6.021   1.502  0.1802 -0.2263  0.2831
 1312W        W 4831   7.401   8.268   9.042  0.1094 -0.0635 -0.1571
 1313W        W 4832   6.411   3.556   0.119  0.2541 -0.1134 -0.1122
 1314W        W 4833   0.960   0.190   3.140 -0.2833 -0.1312  0.0787
 1315W        W 4834   1.643   3.780   4.340 -0.2301 -0.3614 -0.0398
 1316W        W 4835   1.660   2.624   9.884 -0.1657 -0.4797 -0.2792
 1317W        W 4836   7.842   2.661   0.067  0.1748 -0.1536  0.1553
 1318W        W 4837   1.377   9.037   2.667 -0.1641 -0.1404  0.0054
 1319W        W 4838   1.663   1.573  10.287  0.0902 -0.0133 -0.2767
 1320W        W 4839   1.794   8.658   4.284  0.0337 -0.0372 -0.0778
 1321W        W 4840   8.470   8.746   2.694 -0.1593  0.2804  0.1256
 1322W        W 4841   2.084   5.874   1.084 -0.3063  0.0133  0.0201
 1323W        W 4842   7.267   0.889  10.926 -0.0800 -0.1649 -0.0065
 1324W        W 4843   6.779   4.539  10.211  0.1927 -0.3370 -0.2199
 1325W        W 4844   8.667   8.931  11.140  0.2813 -0.1621 -0.2458
 1326W        W 4845   0.350   8.210  10.890 -0.1494 -0.0643 -0.0813
 1327W        W 4846   8.639   8.176   2.592  0.2008 -0.0243  0.0786
 1328W        W 4847   4.658   5.171   0.677  0.0726  0.0882  0.0490
 1329W        W 4848   6.433   7.038   7.739 -0.0494 -0.0224  0.1438
 1330W        W 4849   5.565   3.514   2.795  0.0431  0.0279  0.0066
 1331W        W 4850   8.340   4.281   1.343 -0.2120 -0.0263  0.1650
 1332W        W 4851   5.275   8.548   2.599 -0.0066  0.0059  0.2646
 1333W        W 4852   8.719   4.486   9.326  0.2735 -0.1786  0.1667
 1334W        W 4853   9.213   6.225   0.007  0.0667 -0.0118  0.0759
 1335W        W 4854   7.535   5.731  10.223  0.2961 -0.2301  0.0183
 1336W        W 4855   7.542   8.858  10.067 -0.1809 -0.2073 -0.0366
 1337W        W 4856   4.482   0.596   8.825  0.0455 -0.0242  0.0856
 1338W        W 4857   6.860   9.038   0.649  0.2454 -0.2857  0.0309
 1339W        W 4858   0.061   5.631   0.362 -0.0779 -0.1107 -0.0875
 1340W        W 4859   5.803   8.225   0.549  0.0413 -0.1130  0.1309
 1341W        W 4860   1.193   8.998   9.393 -0.0690 -0.4328  0.0289
 1342W        W 4861   7.775   0.599   9.505 -0.0450 -0.1198  0.5682
 1343W        W 4862   5.149   1.107  10.167  0.2730  0.3596  0.0486
 1344W        W 4863   4.076   2.204  10.366  0.1944 -0.0465  0.3420
 1345W        W 4864   8.331   5.929  10.748  0.0679  0.1916 -0.0605
 1346W        W 4865   8.972   2.547  10.880 -0.1267 -0.0636  0.0594
 1347W        W 4866   1.135   6.101  11.938 -0.2920  0.1795 -0.1742
 1348W        W 4867   2.658   3.071   2.903  0.4426  0.4101 -0.1576
 1349W        W 4868   3.842   0.883   3.375 -0.0193 -0.1360  0.0008
 1350W        W 4869   7.965   0.763   1.086 -0.0093 -0.1077  0.1090
 1351W        W 4870   9.208   9.661  10.211  0.0831 -0.3723  0.0190
 1352W        W 4871   6.346   9.240  10.828  0.0452 -0.3465  0.0378
 1353W        W 4872   1.070   9.142   2.257 -0.1672 -0.1741 -0.2047
 1354W        W 4873   3.743   1.273   2.786 -0.0627  0.2308 -0.0743
 1355W        W 4874   6.919   1.424   3.843 -0.1306 -0.2605  0.3271
 1356W        W 4875   7.459   5.444   8.988  0.1235  0.1927 -0.0035
 1357W        W 4876   0.777   7.509  12.628  0.1401  0.0468 -0.1050
 1358W        W 4877   8.764   8.046   9.656 -0.0618  0.2742 -0.2713
 1359W        W 4878   1.755   7.313  12.439  0.1826 -0.2258 -0.3842
 1360W        W 4879   8.036   3.087  11.380 -0.0445  0.0141  0.0535
 1361W        W 4880   5.022   3.947   9.108 -0.3166 -0.1834 -0.5145
 1362W        W 4881   8.654   4.451   2.205  0.1590 -0.1071  0.0983
 1363W        W 4882   1.923   7.552   0.253 -0.0274  0.2704 -0.0896
 1364W        W 4883   0.581   4.977   3.710 -0.2640  0.0877  0.0952
 1365W        W 4884   7.487   3.379  12.477 -0.2058  0.1925  0.1256
 1366W        W 4885   8.014   8.784   4.041  0.3826  0.2548 -0.0652
 1367W        W 4886   3.685   1.599   0.632 -0.0498  0.1801 -0.1381
 1368W        W 4887   0.402   4.839   2.473  0.1291 -0.3962 -0.3730
 1369W        W 4888   4.376   9.540   0.654  0.1722  0.2438 -0.1939
 1370W        W 4889   4.426   4.168   8.680 -0.1264 -0.1519  0.2263
 1371W        W 4890   8.897   9.555   2.954  0.0306  0.1158  0.0099
 1372W        W 4891   1.098   4.241   0.754  0.2821 -0.3710  0.2590
 1373W        W 4892   6.090   0.050   9.554  0.0291  0.2262 -0.0512
 1374W        W 4893   8.610   8.430  10.128  0.2381 -0.0372  0.0920
 1375W        W 4894   3.722   3.774   1.018  0.2035  0.1454  0.3580
 1376W        W 4895   9.180   8.947  11.843  0.1207 -0.2468 -0.0327
 1377W        W 4896   5.305   0.876   3.256  0.0882  0.3385  0.1938
 1378W        W 4897   2.570   9.598   9.636 -0.1073 -0.0084  0.2341
 1379W        W 4898   0.816   5.283  11.067  0.2749 -0.2625  0.0298
 1380W        W 4899   4.119   6.599   9.505  0.1781  0.1942 -0.4051
 1381W        W 4900   8.977   4.790   2.362 -0.1654 -0.1366  0.2820
 1382W        W 4901   3.763   3.679   9.837 -0.0936 -0.0339 -0.1661
 1383W        W 4902   4.175   0.495   9.605 -0.4354 -0.1720 -0.1188
 1384W        W 4903   2.976   0.860  12.319  0.1770 -0.0374 -0.0428
 1385W        W 4904   6.481   2.495   1.212 -0.1169  0.2056 -0.2229
 1386W        W 4905   4.054   5.286   0.473  0.3253  0.4924  0.0082
 1387W        W 4906   1.087   9.607   9.466  0.1012 -0.0757 -0.3393
 1388W        W 4907   8.723   3.007   8.640  0.0161 -0.1464 -0.1346
 1389W        W 4908   7.386   1.051  12.284 -0.0471 -0.1941 -0.1030
 1390W        W 4909   5.925   4.760   1.147 -0.1425 -0.1865 -0.3946
 1391W        W 4910   6.139   5.852  10.248  0.1562  0.0463 -0.0225
 1392W        W 4911   7.948   3.831   1.148 -0.0279 -0.1793 -0.0927
 1393W        W 4912   2.441   7.619   8.919 -0.0245  0.1032  0.2722
 1394W        W 4913   5.831   3.765   8.991  0.1819 -0.0664 -0.1394
 1395W        W 4914   5.724   2.664   0.805 -0.0781  0.3257  0.0712
 1396W        W 4915   2.321   0.219  12.002 -0.2591  0.2607  0.2534
 1397W        W 4916   4.757   3.318   3.194 -0.1466  0.0707  0.0075
 1398W        W 4917   7.860   2.240  11.581  0.2453  0.0874  0.1507
 1399W        W 4918   0.698   4.161   1.701  0.2710 -0.2551 -0.0591
 1400W        W 4919   1.769   1.576  11.756  0.2932 -0.1257 -0.0430
 1401W        W 4920   6.063   6.161   2.448 -0.1011  0.0253  0.0232
 1402W        W 4921   7.577   8.855   2.051  0.2237 -0.1828 -0.2812
 1403W        W 4922   8.195   0.310   1.946 -0.3621 -0.2959  0.2577
 1404W        W 4923   5.094   6.475   9.702  0.0314  0.2951  0.1615
 1405W        W 4924   0.080   7.746  11.913 -0.0632  0.0104 -0.3466
 1406W        W 4925   4.207   7.342  11.202 -0.3296 -0.0872  0.1063
 1407W        W 4926   7.243   7.814   8.298  0.0109  0.1009 -0.0025
 1408W        W 4927   2.436   0.811   9.353 -0.1536 -0.2359 -0.3786
 1409W        W 4928   7.824   3.242   9.406 -0.3214 -0.1265  0.1104
 1410W        W 4929   1.205   3.176   9.534  0.0392 -0.0586  0.0490
 1411W        W 4930   2.827   0.628   1.224  0.3035 -0.1850  0.1854
 1412W        W 4931   8.583   2.737   9.136 -0.0262 -0.1389  0.1334
 1413W        W 4932   8.348   1.627   1.953  0.0485  0.1363 -0.1099
 1414W        W 4933   7.288   6.402  11.880  0.0471 -0.0212  0.1501
 1415W        W 4934   6.782   3.225   0.286 -0.1053  0.1645  0.4414
 1416W        W 4935   5.599   6.349   8.682 -0.0868 -0.3195  0.1231
 1417W        W 4936   5.395   4.639  10.222  0.0436  0.2315  0.3070
 1418W        W 4937   0.387   2.974   0.584 -0.0953 -0.4121 -0.0629
 1419W        W 4938   7.769   8.383   2.133  0.0386 -0.0247 -0.1304
 1420W        W 4939   8.743   4.413  12.247  0.0039 -0.0506 -0.1124
 1421W        W 4940   0.080   4.480   2.428  0.2237  0.2453 -0.0594
 1422W        W 4941   1.762   2.730   1.947  0.4427 -0.0291 -0.1204
 1423W        W 4942   6.782   8.070   9.290 -0.0124 -0.2632 -0.1215
 1424W        W 4943   3.466   0.759   1.655  0.1142 -0.1071  0.4259
 1425W        W 4944   1.775   7.542  11.102 -0.0890  0.0727  0.3529
 1426W        W 4945   6.162   5.206   8.547  0.1892  0.1572 -0.2235
 1427W        W 4946   0.775   0.730  10.117 -0.1261  0.3971  0.1956
 1428W        W 4947   3.168   3.180   1.433  0.3365  0.3136  0.0783
 1429W        W 4948   3.975   6.803   0.321 -0.0900 -0.1319 -0.0947
 1430W        W 4949   6.197   8.283   2.363  0.0823 -0.0695  0.0437
 1431W        W 4950   8.072   2.977   1.573  0.2686 -0.0536 -0.0531
 1432W        W 4951   7.760   9.186   0.488  0.1644 -0.0530 -0.1066
 1433W        W 4952   9.417   7.932  11.513 -0.2122 -0.3490 -0.0438
 1434W        W 4953   9.575   8.998   3.419  0.0914 -0.0505  0.1294
 1435W        W 4954   0.825   6.506   8.324  0.2534 -0.1522 -0.3672
 1436W        W 4955   0.141   6.195   3.154  0.0207 -0.1779 -0.1564
 1437W        W 4956   2.739   9.661   0.647  0.0607 -0.1751  0.1156
 1438W        W 4957   5.274   1.902  11.314  0.0604 -0.0473 -0.4010
 1439W        W 4958   8.043   6.151   8.887 -0.1461  0.1565  0.0738
 1440W        W 4959   6.269   3.611  11.446 -0.1377  0.0477  0.2342
 1441W        W 4960   0.242   8.349  10.201  0.2522 -0.1704 -0.3030
 1442W        W 4961   6.041   9.019   0.982 -0.0244 -0.3572  0.3348
 1443W        W 4962   6.612   6.542   0.321  0.1125 -0.1211 -0.1673
 1444W        W 4963   7.218   8.669   8.784 -0.0781 -0.1675  0.1526
 1445W        W 4964   2.638   2.786  10.113 -0.0139  0.0006  0.3399
 1446W        W 4965   2.268   2.743  10.456  0.0170  0.4583  0.1299
 1447W        W 4966   6.371   1.344   1.944  0.1480 -0.1177  0.0793
 1448W        W 4967   0.827   4.640   0.931 -0.3029 -0.1881 -0.0518
 1449W        W 4968   0.666   1.031   0.084 -0.0912 -0.0837  0.3331
 1450W        W 4969   3.056   8.659   9.587  0.1182  0.3551  0.0251
 1451W        W 4970   7.315   3.196   1.713  0.0886  0.0750 -0.0844
 1452W        W 4971   8.729   9.146   2.589 -0.0587  0.0899  0.1831
 1453W        W 4972   0.675   7.800   2.753  0.1328  0.0146  0.1442
 1454W        W 4973   0.149   5.234   4.028 -0.0990  0.1067 -0.1230
 1455W        W 4974   2.358   1.104  12.066 -0.3410  0.0285 -0.1590
 1456W        W 4975   4.004   8.370   0.921  0.1750  0.4074  0.0869
 1457W        W 4976   5.077   8.593   3.069  0.2105  0.0492 -0.1431
 1458W        W 4977   6.250   7.309   4.052 -0.1882 -0.3103  0.2948
 1459W        W 4978   5.236   9.253   9.110  0.2497 -0.0997 -0.3208
 1460W        W 4979   9.656   8.225   8.402 -0.0049 -0.0179 -0.0479
 1461W        W 4980   4.497   6.122  11.659  0.0755 -0.0913  0.0085
 1462W        W 4981   2.720   2.283   1.253 -0.2552 -0.2588 -0.0280
 1463W        W 4982   2.168   5.716   3.162 -0.3719  0.0390 -0.0615
 1464W        W 4983   3.048   0.185   9.543 -0.1790  0.1061 -0.2691
 1465W        W 4984   3.059   4.612  10.307  0.1451 -0.0511  0.1768
 1466W        W 4985   2.553   4.709  11.834  0.0416 -0.4484 -0.0910
 1467W        W 4986   6.451   4.952   2.869 -0.0047  0.1655  0.0953
 1468W        W 4987   6.404   0.184   0.044 -0.2570 -0.0410  0.0228
 1469W        W 4988   3.252   5.669   3.038  0.0413  0.2918  0.0888
 1470W        W 4989   5.581   2.322  11.389 -0.2080 -0.2809  0.1443
 1471W        W 4990   0.297   9.493   8.918 -0.1761 -0.0309 -0.1521
 1472W        W 4991   6.070   8.900   2.819  0.0326  0.0596 -0.0854
 1473W        W 4992   5.610   6.057   4.349 -0.1773  0.0588 -0.2479
 1474W        W 4993   6.677   5.500   3.685  0.0609 -0.0339  0.2653
 1475W        W 4994   6.246   2.169  10.122  0.2942 -0.1032  0.2822
 1476W        W 4995   5.730   9.195  10.814 -0.0102  0.0593  0.2766
 1477W        W 4996   6.280   2.683  10.150  0.5235 -0.0691  0.0058
 1478W        W 4997   8.061   7.785   1.368 -0.0687 -0.2261 -0.2399
 1479W        W 4998   4.672   3.918   3.246  0.1124 -0.1108 -0.1475
 1480W        W 4999   9.657   4.713  11.010  0.0014 -0.0189  0.4484
 1481W        W 5000   9.039   1.276  11.831 -0.1197 -0.0393 -0.0977
 1482W        W 5001   5.444   1.069   8.824 -0.2540  0.1958 -0.1633
 1483W        W 5002   4.822   7.942   0.608 -0.2421 -0.0826  0.0784
 1484W        W 5003   8.465   7.456   9.641  0.1179  0.0905  0.0237
 1485W        W 5004   3.361   5.231  12.366  0.0274 -0.1273  0.0281
 1486W        W 5005   3.509   4.538   2.132  0.2874 -0.1960 -0.1460
 1487W        W 5006   6.586   4.410   2.793 -0.1816 -0.1708  0.2138
 1488W        W 5007   6.452   0.269  10.479  0.2303  0.1983  0.1455
 1489W        W 5008   0.672   0.607   8.833 -0.1052  0.2926  0.3130
 1490W        W 5009   2.955   4.879  12.189  0.1693  0.0861 -0.3524
 1491W        W 5010   3.041   0.584   0.109 -0.2851 -0.0949  0.2165
 1492W        W 5011   9.019   0.691   9.212 -0.3391  0.2348  0.0581
 1493W        W 5012   1.814   6.628   4.587 -0.1456  0.0962 -0.3294
 1494W        W 5013   7.888   3.476  10.661 -0.2493  0.1202  0.1059
 1495W        W 5014   6.567   0.007   3.265  0.2709 -0.0851 -0.0860
 1496W        W 5015   9.428   5.685   3.570  0.0547  0.0174  0.1361
 1497W        W 5016   6.346   0.160   1.011 -0.0587  0.0866 -0.1273
 1498W        W 5017   4.474   6.493  10.739  0.0313  0.0712  0.1620
 1499W        W 5018   0.027   3.312   8.763 -0.2930 -0.0923  0.0844
 1500W        W 5019   6.798   3.375   2.916 -0.3118 -0.0887 -0.0230
 1501W        W 5020   5.726   3.169  12.570 -0.0575  0.1364 -0.0703
 1502W        W 5021   9.322   2.448   3.245 -0.0826  0.0914  0.2872
 1503W        W 5022   1.375   1.631   1.480 -0.0990  0.0248  0.0096
 1504W        W 5023   8.173   4.103   2.082 -0.0398  0.1722  0.0041
 1505W        W 5024   4.035   7.087   3.395  0.2809 -0.1867  0.2309
 1506W        W 5025   1.888   1.950   0.322  0.3228 -0.0516 -0.3635
 1507W        W 5026   4.530   2.982   2.220 -0.1432  0.3707  0.0960
 1508W        W 5027   2.130   4.222   0.827  0.1564 -0.1381 -0.1805
 1509W        W 5028   8.348   3.489   8.617 -0.0988 -0.0589 -0.2587
 1510W        W 5029   1.717   4.288  12.307 -0.2545 -0.1903 -0.0802
 1511W        W 5030   5.591   6.123   1.352  0.3941 -0.0543 -0.0369
 1512W        W 5031   5.924   5.990   8.910 -0.0281 -0.2419  0.1095
 1513W        W 5032   5.480   5.559  10.777 -0.4815  0.0248  0.4839
 1514W        W 5033   9.037   6.846  11.693 -0.0162 -0.0859  0.0875
 1515W        W 5034   3.298   1.392   9.363 -0.2356  0.0176  0.1176
 1516W        W 5035   1.285   8.694  12.350  0.0788  0.0313 -0.3213
 1517W        W 5036   3.605   1.325  11.398  0.0022 -0.1508 -0.0177
 1518W        W 5037   5.791   2.158   4.099 -0.1538  0.1048 -0.1203
 1519W        W 5038   9.046   7.866   2.719 -0.1488 -0.2585  0.0834
 1520W        W 5039   1.132   6.724   0.106  0.0354 -0.0688  0.0706
 1521W        W 5040   6.321   0.048   2.226 -0.0670  0.1486 -0.3124
 1522W        W 5041   3.367   3.716  10.260  0.1594  0.1343  0.3429
 1523W        W 5042   4.121   5.905   1.623  0.1606 -0.4419 -0.1122
 1524W        W 5043   1.003   0.415   9.170 -0.2797 -0.2413 -0.0169
 1525W        W 5044   7.380   8.738  11.601 -0.1849 -0.1700  0.0434
 1526W        W 5045   6.344   2.852  10.581 -0.3589  0.0310  0.2065
 1527W        W 5046   3.881   8.293   2.978  0.0546  0.2278 -0.0288
 1528W        W 5047   4.010   8.923   1.424  0.0053 -0.1396  0.0679
 1529W        W 5048   8.108   9.480   1.929 -0.1271 -0.0955  0.1712
 1530W        W 5049   6.647   6.339   8.583 -0.3222  0.0427  0.0362
 1531W        W 5050   4.471   1.077  10.865 -0.3880 -0.1074 -0.0296
 1532W        W 5051   8.057   2.253   2.291  0.1125  0.1634  0.0854
 1533W        W 5052   0.128   4.521   8.608 -0.0920 -0.0419  0.1104
 1534W        W 5053   5.788   5.071   1.713  0.1239 -0.0397  0.0323
 1535W        W 5054   2.138   0.436   3.642 -0.2568  0.1885 -0.0743
 1536W        W 5055   3.643   8.368   9.077  0.1633  0.0046  0.0706
 1537W        W 5056   7.851   7.211   3.839 -0.1897  0.4176 -0.0364
 1538W        W 5057   5.562   9.649   3.277  0.1650  0.2474 -0.0822
 1539W        W 5058   2.488   7.362   0.534  0.0053 -0.0600  0.0425
 1540W        W 5059   7.380   4.130  12.595 -0.4410  0.1178  0.1021
 1541W        W 5060   2.123   3.774  12.025 -0.1186 -0.3867  0.3564
 1542W        W 5061   7.432   6.085  12.476  0.1409  0.0338  0.0392
 1543W        W 5062   8.007   8.984  12.208 -0.0599  0.3335 -0.0104
 1544W        W 5063   4.513   1.678   2.934  0.2240  0.0386  0.0978
 1545W        W 5064   1.103   2.503   3.908 -0.1554 -0.0108 -0.1284
 1546W        W 5065   2.409   5.475   1.326 -0.1577  0.1051 -0.1301
 1547W        W 5066   1.597   2.364  10.732  0.1696 -0.0687 -0.1707
 1548W        W 5067   1.156   0.908   0.016  0.1090 -0.4491  0.2383
 1549W        W 5068   4.355   7.346   2.945  0.0471  0.2626  0.1318
 1550W        W 5069   5.352   3.193   0.337 -0.0730  0.0533  0.2328
 1551W        W 5070   7.694   0.955   0.051 -0.0345 -0.0184  0.0858
 1552W        W 5071   6.018   3.517   9.760  0.0232 -0.0630  0.0692
 1553W        W 5072   2.888   8.356  10.474 -0.0561 -0.2921 -0.2118
 1554W        W 5073   4.360   5.537   8.097 -0.0127 -0.1226 -0.0610
 1555W        W 5074   9.384   5.577  10.530 -0.1215  0.0710  0.2787
 1556W        W 5075   8.023   7.811   9.805  0.0516 -0.0305  0.0771
 1557W        W 5076   9.311   3.129   2.093  0.1271 -0.1679 -0.2599
 1558W        W 5077   9.653   3.892  10.615 -0.2012  0.1747  0.0177
 1559W        W 5078   0.326   4.433  10.764  0.0658  0.3426  0.0374
 1560W        W 5079   2.262   8.458   3.304  0.1697  0.1878  0.0099
 1561W        W 5080   2.336   4.413   3.462 -0.1660  0.0356 -0.1094
 1562W        W 5081   5.781   6.920   2.842 -0.2141 -0.0906  0.1064
 1563W        W 5082   4.817   0.097   3.078  0.2158 -0.3843  0.1431
 1564W        W 5083   6.664   5.857   1.272  0.1144  0.3033 -0.2806
 1565W        W 5084   5.373   7.359   9.022  0.3561 -0.1762 -0.0256
 1566W        W 5085   2.796   6.717  10.892  0.2436 -0.0299  0.1586
 1567W        W 5086   7.557   3.568   2.562 -0.0710 -0.3416 -0.1384
 1568W        W 5087   3.640   5.472   9.229  0.1935  0.1891 -0.3309
 1569W        W 5088   0.091   0.591  11.514 -0.1249  0.0475 -0.0699
 1570W        W 5089   0.022   5.732   5.040  0.0258  0.0884  0.0853
 1571W        W 5090   0.395   6.017   0.563 -0.2762 -0.1095 -0.4520
 1572W        W 5091   4.691   4.900  11.865 -0.2522  0.0734  0.1078
 1573W        W 5092   8.565   3.042   9.588  0.2318  0.2415  0.1052
 1574W        W 5093   4.792   9.142   2.385 -0.0267 -0.0138 -0.0827
 1575W        W 5094   6.961   6.644   2.729 -0.0228  0.1851  0.2527
 1576W        W 5095   6.855   7.520   2.422 -0.1540 -0.1806  0.0483
 1577W        W 5096   4.847   4.653   1.762 -0.1223  0.3168  0.1317
 1578W        W 5097   5.632   1.758  12.569 -0.1854  0.0163 -0.1861
 1579W        W 5098   6.851   1.579   3.289 -0.1374  0.2867  0.1169
 1580W        W 5099   3.483   0.240   9.214  0.0508 -0.0453  0.2246
 1581W        W 5100   8.394   7.051   9.353  0.1590 -0.0666  0.1083
 1582W        W 5101   1.007   5.787  10.978 -0.0106 -0.1638  0.0552
 1583W        W 5102   0.367   5.615   2.016 -0.0701 -0.1711  0.0446
 1584W        W 5103   6.329   8.291  11.745 -0.0535 -0.0440 -0.0762
 1585W        W 5104   8.450   3.055   1.967 -0.0810  0.0480  0.2869
 1586W        W 5105   8.059   6.137  11.892  0.0565  0.1541  0.1453
 1587W        W 5106   3.123   2.475  10.657  0.0659 -0.2580  0.0749
 1588W        W 5107   8.908   2.708  11.353  0.1207  0.0642  0.1384
 1589W        W 5108   8.425   3.294   1.118  0.3675  0.0146  0.0727
 1590W        W 5109   5.181   8.638   1.608 -0.0624  0.1121 -0.3475
 1591W        W 5110   5.278   6.426  11.139  0.0910 -0.1295  0.0546
 1592W        W 5111   6.157   3.874  11.043  0.4371  0.3051  0.1555
 1593W        W 5112   7.702   3.035   3.595 -0.2198 -0.1197  0.1542
 1594W        W 5113   9.166   1.342   1.555 -0.0847  0.1263 -0.1953
 1595W        W 5114   1.097   5.740  11.540  0.1663  0.0859 -0.0638
 1596W        W 5115   7.883   6.178   0.673  0.0699 -0.1944  0.0625
 1597W        W 5116   4.738   3.110   2.695 -0.3866  0.2398  0.3091
 1598W        W 5117   6.759   2.267   4.279  0.0716  0.0304 -0.1010
 1599W        W 5118   8.667   6.504  10.567  0.0955  0.3366  0.1152
 1600W        W 5119   4.363   3.039   0.106 -0.2058  0.0183  0.2191
 1601W        W 5120   8.443   0.616   1.204  0.0252  0.2026  0.0207
 1602W        W 5121   6.401   6.327   2.051  0.0321 -0.1513  0.2250
 1603W        W 5122   6.589   3.659  10.229 -0.0123  0.1413 -0.0493
 1604W        W 5123   2.059   5.176   3.148  0.0016 -0.0677  0.1428
 1605W        W 5124   6.141   3.193  11.038  0.0180 -0.1717 -0.2402
 1606W        W 5125   6.397   8.838   0.398 -0.4742 -0.1411  0.2349
 1607W        W 5126   1.502   6.000   1.075 -0.1112  0.1788  0.1171
 1608W        W 5127   7.929   9.204   4.826  0.1414  0.2735  0.0813
 1609W        W 5128   3.923   6.663   3.684  0.0202  0.0622  0.0222
 1610W        W 5129   3.217   4.880   2.853 -0.0964 -0.3689  0.0210
 1611W        W 5130   4.507   2.162  11.271  0.1399  0.0538 -0.1304
 1612W        W 5131   3.036   5.974   1.783  0.2697  0.1464 -0.0490
 1613W        W 5132   7.426   4.580   2.297  0.2961 -0.0699 -0.1671
 1614W        W 5133   1.240   7.467   3.754 -0.3114  0.3387  0.1193
 1615W        W 5134   5.328   9.158   9.585 -0.0358  0.0111  0.0469
 1616W        W 5135   5.982   0.574   2.735  0.0612 -0.2943  0.0289
 1617W        W 5136   7.068   1.984   3.547 -0.1135 -0.1742  0.0736
 1618W        W 5137   1.035   2.600   2.585  0.0360 -0.3659 -0.1071
 1619W        W 5138   8.992   6.647   3.803 -0.1679  0.1238  0.3852
 1620W        W 5139   1.063   7.956  10.092  0.0384  0.2496 -0.2773
 1621W        W 5140   4.021   4.274   3.814  0.2899  0.2406 -0.1593
 1622W        W 5141   6.521   8.022   3.222 -0.2859  0.0105  0.2054
 1623W        W 5142   6.880   2.004  10.366 -0.2709 -0.1964  0.0085
 1624W        W 5143   3.121   3.497   0.358 -0.3074  0.0527  0.0425
 1625W        W 5144   6.706   8.760   3.008  0.2556  0.0853 -0.4348
 1626W        W 5145   3.817   5.833   8.200  0.1419  0.0049 -0.0428
 1627W        W 5146   0.759   8.574  10.689 -0.2006 -0.2780 -0.1371
 1628W        W 5147   1.962   3.624  10.464 -0.0552 -0.0632 -0.0759
 1629W        W 5148   7.358   3.564   2.093  0.1582 -0.2601 -0.1935
 1630W        W 5149   7.873   7.622   2.836 -0.1252 -0.0782  0.1156
 1631W        W 5150   5.783   7.232   9.839 -0.0254  0.0803 -0.0764
 1632W        W 5151   5.467   8.600  11.546  0.1238 -0.4997  0.2152
 1633W        W 5152   8.369   5.503   1.532 -0.3593  0.1112 -0.1533
 1634W        W 5153   0.173   5.371   0.767 -0.0795  0.0843 -0.2622
 1635W        W 5154   6.955   1.873   2.420  0.3659  0.3453  0.0860
 1636W        W 5155   0.756   6.020   8.359 -0.2692  0.1179 -0.0363
 1637W        W 5156   2.417   5.431  11.073  0.1622  0.0404  0.1066
 1638W        W 5157   9.003   8.963   8.169  0.0640 -0.0926 -0.0278
 1639W        W 5158   7.311   2.489   0.146 -0.0368 -0.0304 -0.2353
 1640W        W 5159   4.436   7.727   8.677 -0.2373  0.0635  0.0136
 1641W        W 5160   3.312   0.650   0.552 -0.0384  0.0926  0.3948
 1642W        W 5161   7.222   7.992   2.964  0.0216  0.1332  0.1946
 1643W        W 5162   2.582   6.827   0.188 -0.1192  0.1557 -0.0163
 1644W        W 5163   5.286   3.803   3.739 -0.2130 -0.2742  0.1155
 1645W        W 5164   0.577   6.286   3.370 -0.0413 -0.2753 -0.0529
 1646W        W 5165   6.393   1.894   9.137  0.2263 -0.1637  0.0635
 1647W        W 5166   5.404   0.441   8.912  0.2064  0.0434  0.0668
 1648W        W 5167   6.725   7.102   0.453  0.2117  0.0477  0.0122
 1649W        W 5168   5.094   5.042   2.101  0.3594 -0.1202  0.1317
 1650W        W 5169   2.623   8.660   9.743 -0.0506  0.0663  0.2852
 1651W        W 5170   2.537   6.508   3.294 -0.3772 -0.1774  0.3712
 1652W        W 5171   8.197   3.945  11.498  0.0093  0.1747 -0.1170
 1653W        W 5172   3.675   9.216   1.276  0.0422 -0.0114  0.0132
 1654W        W 5173   3.184   4.567  12.489  0.0567  0.3815  0.0525
 1655W        W 5174   6.066   8.878  10.727  0.1093 -0.1087  0.1438
 1656W        W 5175   3.981   0.968  10.110  0.0477 -0.0698 -0.2139
 1657W        W 5176   9.092   2.279   1.942 -0.1997  0.1631  0.0892
 1658W        W 5177   1.926   8.966   1.232  0.0713 -0.1011  0.0267
 1659W        W 5178   0.875   1.041   1.999  0.0700 -0.2253 -0.0379
 1660W        W 5179   9.655   6.439   0.767 -0.1220  0.0102  0.1034
 1661W        W 5180   8.271   8.818   3.152  0.0834  0.0263  0.1005
 1662W        W 5181   8.800   3.563   9.518 -0.0403  0.1762 -0.1138
 1663W        W 5182   0.354   6.817   0.929  0.3913  0.1542 -0.1076
 1664W        W 5183   9.210   1.061  10.877 -0.1254  0.0094 -0.1420
 1665W        W 5184   0.341   5.747   8.354 -0.1659  0.0408  0.3343
 1666W        W 5185   1.639   8.092   1.544 -0.0915  0.1690  0.0844
 1667W        W 5186   9.226   7.147  10.028  0.1402 -0.1194  0.1283
 1668W        W 5187   7.291   2.660   2.348 -0.1507 -0.0442  0.0859
 1669W        W 5188   1.233   4.947   0.716  0.3006 -0.1162  0.0993
 1670W        W 5189   7.478   0.994   9.585 -0.0152  0.3761 -0.1168
 1671W        W 5190   6.563   6.720   0.822 -0.1713 -0.0044 -0.2146
 1672W        W 5191   4.509   4.949   3.310  0.0270 -0.0093 -0.1551
 1673W        W 5192   8.883   9.617   8.735 -0.1429 -0.2873 -0.0575
 1674W        W 5193   9.237   1.864   1.727  0.1378 -0.0991  0.3953
 1675W        W 5194   6.916   0.990  10.030 -0.4065  0.1261 -0.3748
 1676W        W 5195   7.612   0.283  10.197 -0.3541  0.0604 -0.1739
 1677W        W 5196   8.139   0.995   8.592  0.0176  0.1402  0.1170
 1678W        W 5197   8.195   4.573   3.506 -0.1703 -0.0626 -0.0281
 1679W        W 5198   5.201   2.993   9.479 -0.1793  0.0369  0.1175
 1680W        W 5199   2.153   2.830   9.796  0.0520 -0.2320 -0.2456
 1681W        W 5200   4.038   9.211   0.596 -0.1700  0.1097 -0.0278
 1682W        W 5201   0.190   2.411   8.656 -0.0380  0.1059 -0.3327
 1683W        W 5202   0.740   8.916   0.975 -0.2849 -0.0175  0.2399
 1684W        W 5203   4.937   2.224   2.428 -0.0916 -0.3844 -0.1010
 1685W        W 5204   7.158   5.289   2.341  0.0310  0.1055 -0.2400
 1686W        W 5205   4.517   0.365   0.797 -0.1293  0.3095 -0.0035
 1687W        W 5206   6.490   3.759   3.086  0.1940  0.1554  0.2276
 1688W        W 5207   7.617   8.795   9.078  0.0917  0.0754  0.0326
 1689W        W 5208   9.314   4.220  12.153  0.2426  0.0003  0.2908
 1690W        W 5209   6.625   0.867  11.536  0.0166  0.0610  0.1181
 1691W        W 5210   3.572   5.569  11.244  0.0143  0.2066  0.1861
 1692W        W 5211   2.749   9.117   2.733  0.1215 -0.1691  0.1384
 1693W        W 5212   2.839   3.497   1.049 -0.0448  0.1373 -0.1166
 1694W        W 5213   6.360   0.372   3.541 -0.1661  0.1625 -0.2421
 1695W        W 5214   6.411   6.924  12.005  0.0739 -0.0493  0.1188
 1696W        W 5215   2.132   7.383  11.468 -0.1660 -0.4804  0.0570
 1697W        W 5216   5.801   8.383   3.593 -0.3040  0.1657 -0.3528
 1698W        W 5217   1.482   5.992   3.654 -0.1751  0.2937 -0.0764
 1699W        W 5218   8.536   6.159   9.295  0.2111 -0.1731 -0.0477
 1700W        W 5219   3.203   2.394   2.776  0.1769  0.0117 -0.1163
 1701W        W 5220   2.508   0.875   2.259 -0.0243  0.0728  0.2993
 1702W        W 5221   7.745   0.169  10.690  0.1151 -0.1283  0.2495
 1703W        W 5222   5.481   5.904   8.593 -0.0337  0.2133  0.3369
 1704W        W 5223   2.470   6.253  10.778 -0.1570  0.0899 -0.0311
 1705W        W 5224   8.698   5.028   9.218  0.2085  0.0008 -0.1176
 1706W        W 5225   6.220   6.265  10.597 -0.0173  0.1658 -0.0933
 1707W        W 5226   8.782   2.819   4.813 -0.0962  0.1062  0.0287
 1708W        W 5227   2.954   7.303   3.079 -0.2778 -0.2207 -0.0683
 1709W        W 5228   0.365   5.469   8.791 -0.0559  0.3291  0.0234
 1710W        W 5229   7.675   0.618   2.554  0.0716 -0.1833  0.2316
 1711W        W 5230   7.417   3.129   2.796  0.2248  0.1354  0.0832
 1712W        W 5231   3.890   1.241  12.616 -0.1100  0.0692 -0.1371
 1713W        W 5232   7.537   1.778  11.640  0.1037 -0.0436 -0.1845
 1714W        W 5233   6.509   9.638   1.772 -0.2499 -0.2075  0.1175
 1715W        W 5234   0.763   9.472  11.096  0.0856 -0.1678  0.1406
 1716W        W 5235   0.368   8.428   2.131 -0.1747  0.1240  0.0406
 1717W        W 5236   4.798   6.226   0.456  0.2459  0.1007  0.2491
 1718W        W 5237   5.944   5.486   0.772  0.1770  0.0285 -0.0675
 1719W        W 5238   7.581   2.304   1.954 -0.2298  0.1525  0.0363
 1720W        W 5239   5.421   2.800   9.948 -0.0986  0.0081  0.0514
 1721W        W 5240   0.573   1.517  12.516 -0.0104  0.0248 -0.3990
 1722W        W 5241   4.161   3.162   1.975  0.0229  0.2393  0.0441
 1723W        W 5242   1.501   1.066   3.121 -0.1156 -0.1270 -0.0669
 1724W        W 5243   2.350   0.741  11.130  0.2356 -0.0879 -0.0330
 1725W        W 5244   1.232   3.487   8.166 -0.1500 -0.2731 -0.2185
 1726W        W 5245   6.473   6.816   2.063 -0.1027 -0.0251  0.1963
 1727W        W 5246   3.817   9.394  12.507  0.2279 -0.1414 -0.1586
 1728W        W 5247   5.583   7.254  11.653  0.1602 -0.3096  0.0697
 1729W        W 5248   2.136   7.966   4.011  0.2734  0.0163  0.2468
 1730W        W 5249   8.365   6.546   3.498 -0.0664  0.0880 -0.1139
 1731W        W 5250   2.079   0.963   0.183 -0.1362  0.3052 -0.1370
 1732W        W 5251   5.787   0.243   3.663 -0.2976 -0.1328 -0.1585
 1733W        W 5252   5.279   6.272   0.316  0.0871 -0.1661 -0.2001
 1734W        W 5253   7.822   4.330   3.188  0.0738 -0.1546  0.1686
 1735W        W 5254   4.056   1.182   2.179  0.0169  0.3742  0.0046
 1736W        W 5255   8.063   1.290   0.185 -0.3192  0.2951 -0.1076
 1737W        W 5256   0.829   7.220   9.569  0.2130 -0.3675  0.2022
 1738W        W 5257   5.023   8.463  11.684  0.1787 -0.0842  0.0526
 1739W        W 5258   4.107   2.563   1.051  0.1563  0.0342  0.2396
 1740W        W 5259   2.749   9.127   9.848  0.1216  0.0416  0.1054
 1741W        W 5260   6.833   6.134   1.851 -0.1130 -0.0409  0.2176
 1742W        W 5261   7.359   6.671  12.481  0.0616  0.1361  0.2234
 1743W        W 5262   8.578   3.059  12.241  0.2723  0.1486  0.3322
 1744W        W 5263   4.823   2.223   1.271  0.1226  0.4610 -0.1838
 1745W        W 5264   1.361   3.120   0.230  0.0391  0.0246  0.1240
 1746W        W 5265   5.036   5.986   2.061 -0.3443  0.0069 -0.1962
 1747W        W 5266   2.797   0.418  10.460 -0.2730 -0.0621 -0.1285
 1748W        W 5267   3.745   8.780   3.263  0.0402  0.0551 -0.0388
 1749W        W 5268   0.523   6.837   8.090  0.0324  0.2734  0.3537
 1750W        W 5269   4.526   9.212  11.237 -0.0139  0.1863 -0.2049
 1751W        W 5270   2.763   0.558   0.641  0.2195  0.3307  0.0413
 1752W        W 5271   4.707   2.160   1.779 -0.1129 -0.0397  0.1506
 1753W        W 5272   9.623   2.806   1.889 -0.2900 -0.0826 -0.1329
 1754W        W 5273   0.216   4.256   9.428  0.0880  0.0128 -0.1889
 1755W        W 5274   2.008   9.059   4.159  0.0839 -0.0929 -0.1796
 1756W        W 5275   4.627   6.583  11.937  0.0883 -0.0140 -0.3800
 1757W        W 5276   0.892   6.542   4.170 -0.0777  0.1225 -0.0485
 1758W        W 5277   5.491   4.378   9.797 -0.0666 -0.1158 -0.1695
 1759W        W 5278   2.987   0.147   1.857  0.0360 -0.0093 -0.3196
 1760W        W 5279   7.813   2.429   3.284 -0.1886  0.3660  0.0087
 1761W        W 5280   5.365   3.921  10.106 -0.0074 -0.0186  0.1778
 1762W        W 5281   6.066   5.880   1.969 -0.2699  0.1117 -0.0305
 1763W        W 5282   1.462   1.250  10.646 -0.0303 -0.1184 -0.0407
 1764W        W 5283   0.224   0.717   0.038  0.1733  0.2964  0.3072
 1765W        W 5284   8.496   8.905   2.188  0.2276 -0.0400 -0.2466
 1766W        W 5285   4.454   5.681   3.765 -0.1155  0.0986  0.0358
 1767W        W 5286   5.770   5.563   8.383  0.1017  0.0425 -0.0779
 1768W        W 5287   1.722   0.561   3.880 -0.0748 -0.4870 -0.2321
 1769W        W 5288   8.833   5.054  11.681 -0.0962 -0.0620  0.0491
 1770W        W 5289   6.787   7.310  10.058  0.2498  0.1542 -0.3491
 1771W        W 5290   3.334   2.923   0.641  0.2605 -0.0261 -0.2213
 1772W        W 5291   5.725   6.869   9.409 -0.1118 -0.0555  0.3060
 1773W        W 5292   7.057   1.062   0.610  0.0426 -0.0582  0.1013
 1774W        W 5293   2.259   1.985  12.550  0.0571 -0.0236 -0.2093
 1775W        W 5294   9.652   4.700  12.232  0.1601 -0.1836  0.1138
 1776W        W 5295   8.343   3.735   2.573  0.0381  0.0735 -0.1523
 1777W        W 5296   6.364   8.906   2.007  0.0800  0.1255 -0.0853
 1778W        W 5297   6.431   0.097  10.929  0.2625 -0.1411  0.0109
 1779W        W 5298   3.870   6.955   8.122  0.1133  0.0390 -0.0566
 1780W        W 5299   5.643   2.462   0.125  0.2355 -0.1900  0.0722
 1781W        W 5300   6.673   0.959   9.472  0.1016  0.2125  0.1011
 1782W        W 5301   0.796   7.211  11.928  0.0822 -0.4721  0.2583
 1783W        W 5302   7.601   8.076  11.613  0.1428  0.0945 -0.1300
 1784W        W 5303   0.974   3.126   2.907  0.3159 -0.0773 -0.2061
 1785W        W 5304   6.545   8.759  12.469 -0.2981  0.0783 -0.0938
 1786W        W 5305   6.271   5.616   3.469  0.1641 -0.0130 -0.1160
 1787W        W 5306   2.042   1.120   9.651  0.0558 -0.0719 -0.3369
 1788W        W 5307   1.418   5.985   1.978 -0.0569  0.0935  0.0978
 1789W        W 5308   1.185   8.919  10.710  0.2667  0.1479  0.1330
 1790W        W 5309   0.923   2.276   4.294  0.2323  0.0345 -0.1496
 1791W        W 5310   5.580   3.776   3.287 -0.2204  0.1224 -0.4024
 1792W        W 5311   3.350   6.640  10.586  0.0480  0.0595 -0.0803
 1793W        W 5312   1.609   1.187   9.953  0.0227 -0.3919 -0.2168
 1794W        W 5313   3.628   1.651   2.469 -0.0060 -0.0684  0.1138
 1795W        W 5314   7.603   7.945   8.665 -0.2844  0.1500 -0.3239
 1796W        W 5315   8.342   6.554   9.543  0.1062 -0.0705  0.0155
 1797W        W 5316   8.215   7.704  12.168 -0.0591 -0.0577  0.2877
 1798W        W 5317   4.148   4.791   9.757 -0.1357 -0.1981  0.0852
 1799W        W 5318   8.868   7.284   1.580  0.2306 -0.1059 -0.0210
 1800W        W 5319   0.594   2.085   0.780 -0.4474 -0.0275  0.1005
 1801W        W 5320   8.395   3.252   2.458  0.1600 -0.0479 -0.1241
 1802W        W 5321   5.316   1.286   2.379  0.1029 -0.1170  0.2262
 1803W        W 5322   5.113   5.088   2.719 -0.1712  0.3113 -0.4211
 1804W        W 5323   0.433   8.835   3.756 -0.2214 -0.0943 -0.1124
 1805W        W 5324   8.319   2.454   3.186 -0.0636 -0.1001  0.1205
 1806W        W 5325   6.016   1.326   2.300  0.1931  0.0410  0.2054
 1807W        W 5326   5.851   2.039   0.420  0.1550  0.1506  0.0212
 1808W        W 5327   1.601   5.826  11.080 -0.0847  0.0026 -0.1041
 1809W        W 5328   2.468   7.797  11.967 -0.2424  0.4020 -0.2351
 1810W        W 5329   9.173   5.983   1.942  0.1151 -0.0353  0.2898
 1811W        W 5330   3.256   1.362   2.666 -0.0755  0.0669 -0.3837
 1812W        W 5331   8.544   3.086   4.293  0.0199 -0.0627 -0.1421
 1813W        W 5332   9.215   1.032   2.662 -0.0444  0.1491  0.0259
 1814W        W 5333   3.978   5.401  11.538 -0.1470  0.3957  0.0120
 1815W        W 5334   3.721   1.106   9.679  0.1299  0.0226  0.2320
 1816W        W 5335   4.603   4.219  12.153 -0.0777 -0.0548 -0.3773
 1817W        W 5336   5.925   1.902   8.913  0.0391  0.0564 -0.1924
 1818W        W 5337   3.302   8.216  10.206  0.2042 -0.0155  0.0161
 1819W        W 5338   8.665   4.403   3.382 -0.2231  0.1508  0.1261
 1820W        W 5339   0.656   0.939   1.465 -0.0186  0.0955 -0.1376
 1821W        W 5340   6.842   6.250   0.727 -0.0028 -0.3248  0.1089
 1822W        W 5341   4.861   3.648   0.886  0.1826  0.0036 -0.0283
 1823W        W 5342   7.570   6.508  10.592  0.0904  0.2253 -0.0550
 1824W        W 5343   0.450   1.899  10.318  0.0901 -0.0467 -0.1246
 1825W        W 5344   6.782   4.806  10.847 -0.1724 -0.1939 -0.1010
 1826W        W 5345   3.445   8.362   3.748  0.3054 -0.2112  0.1069
 1827W        W 5346   1.537   6.572   3.821 -0.1675 -0.2903  0.1422
 1828W        W 5347   0.107   7.941   3.294 -0.2239 -0.0257 -0.0036
 1829W        W 5348   9.020   8.761  10.075 -0.0045  0.1318 -0.0732
 1830W        W 5349   0.757   0.309   9.673 -0.0468  0.1288  0.0633
 1831W        W 5350   0.504   3.637  12.515  0.1258 -0.2865 -0.0220
 1832W        W 5351   8.584   0.191  10.688 -0.3356  0.1601 -0.0255
 1833W        W 5352   4.080   3.832   9.448  0.1784 -0.0122 -0.2225
 1834W        W 5353   0.930   7.050   0.933  0.2598 -0.1635 -0.1833
 1835W        W 5354   6.776   4.010   9.487 -0.1310 -0.0775 -0.1415
 1836W        W 5355   0.521   4.218   8.574 -0.0605 -0.2800  0.1648
 1837W        W 5356   3.012   0.080  11.055  0.1075  0.0721 -0.1094
 1838W        W 5357   6.492   0.472  11.283  0.3403  0.2407 -0.0627
 1839W        W 5358   0.677   2.549   3.554  0.2093 -0.1341 -0.0553
 1840W        W 5359   7.306   9.246   2.748  0.0384  0.1214  0.1132
 1841W        W 5360   8.019   4.658  10.396 -0.1711 -0.0685  0.1358
 1842W        W 5361   6.408   6.346   9.816 -0.3030 -0.2049  0.1357
 1843W        W 5362   6.534   0.169  11.710  0.0614 -0.0151  0.0929
 1844W        W 5363   4.543   2.338  11.913  0.0165  0.0732  0.0597
 1845W        W 5364   0.261   5.329  10.250  0.0404 -0.4850  0.1966
 1846W        W 5365   9.278   2.640   2.230 -0.0830  0.0579 -0.0352
 1847W        W 5366   8.975   5.435  11.926 -0.3335  0.1419 -0.0378
 1848W        W 5367   0.252   3.229  11.537 -0.0107 -0.3189 -0.2095
 1849W        W 5368   1.807   4.365   0.238  0.0651 -0.0819  0.1944
 1850W        W 5369   1.129   8.832   0.177  0.0019 -0.1162 -0.0388
 1851W        W 5370   4.315   0.970  12.561  0.2177  0.1296 -0.0261
 1852W        W 5371   2.513   3.184   9.123 -0.1056 -0.2013 -0.1371
 1853W        W 5372   1.130   7.191   1.382 -0.3024 -0.3355 -0.0887
 1854W        W 5373   1.384   6.592  10.293 -0.0948  0.1144 -0.1194
 1855W        W 5374   4.735   4.369   0.411 -0.0660 -0.0244  0.1682
 1856W        W 5375   8.727   8.447  12.518  0.0388  0.2269 -0.1407
 1857W        W 5376   1.610   6.996   9.878 -0.1296 -0.0199  0.2111
 1858W        W 5377   4.472   3.878   3.750 -0.1534 -0.1695  0.0723
 1859W        W 5378   2.839   1.152   3.160 -0.3446  0.3002 -0.2144
 1860W        W 5379   5.976   8.601   1.327 -0.2040  0.0122 -0.0964
 1861W        W 5380   4.771   8.668   3.811  0.1118  0.1121  0.0430
 1862W        W 5381   6.271   8.458   3.262  0.1157 -0.2341  0.2006
 1863W        W 5382   4.117   1.363   3.082  0.1224  0.0989  0.4035
 1864W        W 5383   9.278   0.792   9.854 -0.1954 -0.0866 -0.2137
 1865W        W 5384   4.357   7.752  11.498  0.0259 -0.0650 -0.0941
 1866W        W 5385   0.284   7.012   3.772  0.1854 -0.0632  0.4086
 1867W        W 5386   7.129   1.351   2.865  0.0852 -0.2583 -0.2510
 1868W        W 5387   4.491   6.916  11.529 -0.1236  0.1325  0.0315
 1869W        W 5388   7.766   2.431  12.065 -0.0511 -0.3102 -0.0166
 1870W        W 5389   6.259   9.216   2.428  0.0056  0.0033 -0.1362
 1871W        W 5390   6.015   5.902   3.128  0.0881 -0.1545 -0.2356
 1872W        W 5391   7.541   6.416   0.220 -0.1135  0.0299 -0.0934
 1873W        W 5392   4.510   2.669  12.369  0.0321  0.0857  0.2945
 1874W        W 5393   6.906   3.973   8.551 -0.0652 -0.0185 -0.2486
 1875W        W 5394   7.595   9.375   2.382  0.0487  0.0040 -0.2573
 1876W        W 5395   8.110   8.261   1.243 -0.0556  0.3218  0.0757
 1877W        W 5396   8.767   4.020   0.613 -0.1306  0.0531  0.1353
 1878W        W 5397   8.080   2.497  10.052  0.0733 -0.0863  0.3274
 1879W        W 5398   6.366   5.336   4.077  0.0118  0.0891 -0.2581
 1880W        W 5399   8.496   9.633   2.287 -0.0648 -0.0196 -0.1107
 1881W        W 5400   4.664   7.757   9.607  0.2020  0.2810 -0.4164
 1882W        W 5401   2.234   7.840   0.574 -0.0910 -0.2076 -0.2535
 1883W        W 5402   1.059   3.427   9.132  0.0807 -0.1558 -0.0668
 1884W        W 5403   1.078   4.916  11.304  0.2724  0.1362  0.0858
 1885W        W 5404   1.455   0.339   2.941 -0.2560  0.0779 -0.1799
 1886W        W 5405   4.520   2.281  10.027  0.1414 -0.0646  0.2252
 1887W        W 5406   1.622   6.651   9.446  0.0231 -0.0388 -0.3137
 1888W        W 5407   9.436   7.159   2.682 -0.0414  0.2684 -0.1466
 1889W        W 5408   2.888   5.602   0.866 -0.2424 -0.0173 -0.1716
 1890W        W 5409   4.717   4.407   9.160  0.1078  0.0478 -0.0257
 1891W        W 5410   5.241   6.288   4.683  0.3861  0.1796 -0.2297
 1892W        W 5411   0.379   4.169   0.073  0.0127  0.2045 -0.1042
 1893W        W 5412   9.360   4.660   2.746 -0.4398 -0.1052  0.2077
 1894W        W 5413   6.112   4.437   0.674 -0.0410  0.0899  0.0325
 1895W        W 5414   2.640   6.485   1.517 -0.1503 -0.2852 -0.0384
 1896W        W 5415   6.039   0.855  12.133  0.0238 -0.1424  0.1535
 1897W        W 5416   4.888   3.980   2.306  0.0712 -0.0438 -0.2343
 1898W        W 5417   2.808   9.534   9.223  0.0690 -0.1577  0.0559
 1899W        W 5418   7.145   6.502   8.502  0.0611  0.0903  0.0619
 1900W        W 5419   9.286   0.077   3.271  0.1331 -0.0006 -0.3344
 1901W        W 5420   5.456   1.832   2.555  0.2860  0.2643 -0.0703
 1902W        W 5421   3.373   5.001   9.125 -0.2088 -0.0274  0.0541
 1903W        W 5422   1.401   8.188  12.249  0.4064  0.3310  0.1120
 1904W        W 5423   6.962   8.643   8.355 -0.3224 -0.0933  0.5281
 1905W        W 5424   4.980   0.810   3.924  0.1806 -0.0506  0.3822
 1906W        W 5425   5.018   5.772  10.824  0.1665 -0.2625  0.1082
 1907W        W 5426   1.161   0.169   1.125  0.0445  0.0830  0.2051
 1908W        W 5427   6.944   7.082   9.493  0.1136 -0.0749  0.0821
 1909W        W 5428   0.703   9.633   4.154  0.1661 -0.1000  0.0298
 1910W        W 5429   9.130   7.072   8.262 -0.0599  0.0987  0.1197
 1911W        W 5430   9.316   1.481   2.016  0.0022 -0.1565 -0.4403
 1912W        W 5431   0.107   2.020   9.131  0.3087  0.0836 -0.1025
 1913W        W 5432   1.286   2.981  11.731 -0.0125 -0.0723 -0.1937
 1914W        W 5433   6.211   2.091   0.136 -0.0194 -0.1146  0.0013
 1915W        W 5434   6.573   9.588   9.440  0.0371  0.1524  0.4905
 1916W        W 5435   8.705   4.556   0.127 -0.2846  0.2668  0.1049
 1917W        W 5436   4.060   3.328  10.985  0.0736  0.1703  0.2150
 1918W        W 5437   3.201   0.258  11.875 -0.2814  0.1867 -0.0071
 1919W        W 5438   7.118   1.298   9.366 -0.0965 -0.4165  0.1174
 1920W        W 5439   2.532   5.389   3.219 -0.0702 -0.3494  0.2343
 1921W        W 5440   7.316   2.805   3.796  0.4098 -0.0274  0.0792
 1922W        W 5441   0.293   3.962   2.709 -0.0949 -0.0155  0.0632
 1923W        W 5442   5.843   8.912   8.001 -0.2750  0.2281 -0.0066
 1924W        W 5443   6.285   5.501  12.057  0.1184 -0.2751 -0.2672
 1925W        W 5444   3.340   9.501   0.721 -0.0079  0.2018 -0.1961
 1926W        W 5445   0.975   6.421  11.583 -0.0784  0.1968 -0.1324
 1927W        W 5446   4.110   2.588  11.979  0.0157 -0.1095  0.0086
 1928W        W 5447   2.035   1.792   3.352 -0.2942  0.2015 -0.0580
 1929W        W 5448   8.250   3.289   3.887 -0.1451 -0.2530  0.0018
 1930W        W 5449   7.968   4.112   0.081  0.0247 -0.1538 -0.0403
 1931W        W 5450   7.969   7.145   0.561 -0.1257 -0.2253  0.0081
 1932W        W 5451   4.430   0.675   0.320 -0.1309 -0.1061 -0.0293
 1933W        W 5452   6.415   0.073   0.537  0.0236  0.1527  0.0073
 1934W        W 5453   8.242   4.874  11.159  0.2930 -0.1664  0.0808
 1935W        W 5454   2.913   9.074   3.240  0.1926  0.0390 -0.0536
 1936W        W 5455   8.566   2.719   0.122  0.1702  0.2052  0.0445
 1937W        W 5456   8.146   5.128   2.237  0.1918  0.3364 -0.2444
 1938W        W 5457   7.455   2.411   2.797  0.2488  0.1362  0.3857
 1939W        W 5458   6.272   0.391  12.188 -0.1021  0.0092  0.0557
 1940W        W 5459   6.486   8.251   4.549  0.2572  0.2198  0.0463
 1941W        W 5460   6.099   6.100   9.456  0.0994  0.3409  0.3243
 1942W        W 5461   3.479   1.717  10.460  0.0159 -0.2327 -0.0258
 1943W        W 5462   2.032   7.903   8.921 -0.0107 -0.0357 -0.2079
 1944W        W 5463   2.095   9.326   3.759  0.0485  0.2943 -0.1989
 1945W        W 5464   8.605   5.744   4.143  0.1543  0.0061 -0.0524
 1946W        W 5465   9.457   1.016   0.024 -0.0229  0.3951 -0.0894
 1947W        W 5466   1.249   5.577   3.436  0.0843  0.1088 -0.2046
 1948W        W 5467   8.983   5.717   8.018 -0.0559  0.4112 -0.3426
 1949W        W 5468   4.375   3.472   2.333  0.2257 -0.2233  0.0677
 1950W        W 5469   5.060   0.130   3.543  0.1902  0.0032 -0.0627
 1951W        W 5470   1.500   0.040   0.539  0.0277 -0.0080  0.0384
 1952W        W 5471   0.363   1.139   1.873 -0.0254  0.1115  0.0313
 1953W        W 5472   8.808   5.305   4.923  0.2725  0.0675 -0.0737
 1954W        W 5473   0.777   1.486   3.050  0.0774 -0.0473 -0.0942
 1955W        W 5474   3.783   7.442   4.083  0.1509 -0.0964 -0.0580
 1956W        W 5475   8.527   9.181  10.710  0.3195  0.0161  0.0281
 1957W        W 5476   0.374   5.335   2.890 -0.1946 -0.0065 -0.3474
 1958W        W 5477   4.578   5.545   3.280 -0.0147  0.2314 -0.1658
 1959W        W 5478   1.956   3.375  10.955 -0.0327 -0.0426 -0.3011
 1960W        W 5479   7.527   6.498   1.149  0.0043  0.0321 -0.2292
 1961W        W 5480   6.136   7.686   3.358 -0.0197  0.1066  0.5439
 1962W        W 5481   3.396   6.982   0.606 -0.0662 -0.0926 -0.1217
 1963W        W 5482   0.788   1.982   9.923  0.0635  0.1531  0.1551
 1964W        W 5483   1.711   5.366   0.048 -0.1882  0.1477 -0.0997
 1965W        W 5484   0.568   5.503   3.813  0.1273 -0.1448 -0.2054
 1966W        W 5485   2.845   7.001  12.274 -0.0121 -0.0958 -0.3714
 1967W        W 5486   7.045   5.739  12.052  0.2815 -0.1117  0.1995
 1968W        W 5487   7.660   9.290   1.777 -0.1356  0.1871  0.0805
 1969W        W 5488   0.146   1.588   9.469  0.3582 -0.3274 -0.0402
 1970W        W 5489   8.356   7.204  11.904 -0.2599 -0.0276  0.0017
 1971W        W 5490   5.170   8.750   9.318  0.3902 -0.0660  0.0664
 1972W        W 5491   1.001   1.339  12.284 -0.1739  0.2524  0.1623
 1973W        W 5492   7.098   1.763  11.841 -0.1352 -0.0352  0.1378
 1974W        W 5493   3.091   2.000  10.451 -0.2453 -0.0389  0.1129
 1975W        W 5494   5.363   3.053  12.031 -0.3508 -0.1377 -0.0813
 1976W        W 5495   0.914   1.446   9.921  0.1465 -0.2487 -0.1331
 1977W        W 5496   8.433   8.327  10.771  0.1082  0.3072 -0.1162
 1978W        W 5497   8.223   7.526   3.769  0.4752 -0.1278  0.0006
 1979W        W 5498   5.783   5.686  12.190  0.0693  0.1855  0.0620
 1980W        W 5499   2.454   3.286  12.184 -0.0384  0.2675 -0.0647
 1981W        W 5500   8.231   1.737  11.814 -0.1503  0.0664 -0.0331
 1982W        W 5501   7.789   1.404   3.663 -0.2191 -0.0233 -0.1700
 1983W        W 5502   2.178   6.722   2.888  0.2097 -0.1615 -0.2240
 1984W        W 5503   0.023   1.463   9.028  0.3126 -0.1135 -0.1074
 1985W        W 5504   9.093   0.303  11.982 -0.2494  0.0538  0.0938
 1986W        W 5505   9.424   0.548   0.305  0.2298  0.1129 -0.0227
 1987W        W 5506   9.252   2.047  11.765  0.2071  0.3270 -0.0574
 1988W        W 5507   8.334   2.513   1.330  0.2553  0.0896  0.2579
 1989W        W 5508   3.044   1.670  10.822 -0.2189  0.1007 -0.0559
 1990W        W 5509   8.597   4.690   1.425 -0.0476  0.0970 -0.0967
 1991W        W 5510   5.857   2.292   8.050 -0.0665  0.0715 -0.2333
 1992W        W 5511   1.634   4.231   1.295  0.0101 -0.0991 -0.2415
 1993W        W 5512   0.950   5.034  10.616 -0.2512 -0.0845  0.1258
 1994W        W 5513   7.231   9.094   9.167  0.0505  0.0359 -0.0329
 1995W        W 5514   1.565   5.796  11.604 -0.1236  0.0956  0.0427
 1996W        W 5515   7.394   7.639   2.617  0.2225 -0.0692  0.0257
 1997W        W 5516   7.328   3.661   3.541  0.4002 -0.0907 -0.1745
 1998W        W 5517   4.498   8.152  12.329 -0.2023 -0.2152 -0.0794
 1999W        W 5518   9.360   9.261   3.060 -0.3357 -0.4349 -0.1929
 2000W        W 5519   2.350   3.026   1.875  0.1983  0.1867 -0.3742
 2001W        W 5520   8.940   8.206   4.988  0.0914  0.1930  0.1816
 2002W        W 5521   1.021   5.399   0.433 -0.0136 -0.1297 -0.0463
 2003W        W 5522   1.038   6.299   3.649 -0.2059 -0.1762 -0.1370
 2004W        W 5523   9.076   7.657   1.332 -0.0669 -0.2972 -0.0410
 2005W        W 5524   6.564   0.535   0.525 -0.1612 -0.2254  0.2485
 2006W        W 5525   6.557   8.727   9.664  0.2190 -0.0188  0.0852
 2007W        W 5526   2.084   0.220  11.160 -0.0378  0.0472  0.6248
 2008W        W 5527   9.011   0.408   0.047  0.1186 -0.0436  0.2112
 2009W        W 5528   9.272   6.050  10.368 -0.1397  0.5729 -0.0861
 2010W        W 5529   6.653   6.691   3.494 -0.1167 -0.2192 -0.2536
 2011W        W 5530   0.152   2.111   0.448 -0.0630  0.1141 -0.0496
 2012W        W 5531   1.898   5.430   1.922 -0.0711 -0.0179  0.0200
 2013W        W 5532   7.221   2.375  10.566 -0.1507 -0.0125 -0.0171
 2014W        W 5533   2.397   1.990   0.368 -0.3565  0.1403 -0.0100
 2015W        W 5534   5.988   0.132   8.180 -0.1928 -0.0745 -0.0149
 2016W        W 5535   8.295   4.044   3.421 -0.1169 -0.0819  0.2241
 2017W        W 5536   1.378   5.463   1.919  0.1204  0.1281  0.1881
 2018W        W 5537   3.453   5.179   7.806 -0.0954  0.0290 -0.4141
 2019W        W 5538   4.420   7.853   2.891 -0.0092 -0.1001 -0.0591
 2020W        W 5539   5.745   0.895   0.325  0.2004  0.1271  0.0540
 2021W        W 5540   7.378   6.051   1.951  0.2688  0.0915  0.2924
 2022W        W 5541   6.737   9.295   9.830 -0.1322  0.0132 -0.1423
 2023W        W 5542   2.381   6.755  12.165 -0.0537  0.4020  0.0230
 2024W        W 5543   0.517   3.445   0.479 -0.0979  0.4201  0.3404
 2025W        W 5544   1.551   7.282  10.596 -0.0952  0.1538 -0.0773
 2026W        W 5545   6.606   2.488   3.045 -0.0810  0.5347 -0.1727
 2027W        W 5546   8.563   4.941   2.062  0.0128 -0.2385 -0.2463
 2028W        W 5547   4.081   3.604  10.322  0.0755  0.2755  0.1615
 2029W        W 5548   9.436   2.971  11.819 -0.1272  0.3733 -0.0434
 2030W        W 5549   2.594   6.302   9.810  0.0401  0.1397  0.0593
 2031W        W 5550   1.033   0.410   1.590 -0.2869 -0.0810 -0.0619
 2032W        W 5551   7.871   6.771   3.511  0.1301  0.0278 -0.0728
 2033W        W 5552   8.050   0.010  10.241  0.0695  0.0303 -0.1634
 2034W        W 5553   7.588   1.048   2.142 -0.1226 -0.1624 -0.1927
 2035W        W 5554   0.619   3.350  10.417  0.3313 -0.1686  0.0540
 2036W        W 5555   1.211   5.686   8.595 -0.2335 -0.2490  0.1305
 2037W        W 5556   3.706   5.985   9.083 -0.1436  0.0303  0.0397
 2038W        W 5557   1.639   3.184   0.647  0.1116 -0.0251 -0.1330
 2039W        W 5558   2.941   4.996   9.579  0.1133 -0.2310 -0.0738
 2040W        W 5559   5.733   2.379   3.203 -0.0312  0.0754  0.0141
 2041W        W 5560   0.016   3.156  11.020  0.2461 -0.0538 -0.2139
 2042W        W 5561   5.761   2.695  10.321 -0.2464  0.0802 -0.0518
 2043W        W 5562   1.330   9.271   0.455  0.1802  0.1685  0.1401
 2044W        W 5563   7.028   6.371   3.340 -0.1372 -0.0633  0.1374
 2045W        W 5564   3.865   4.042   0.149  0.2658 -0.0838  0.2021
 2046W        W 5565   8.125   7.070   4.723 -0.0891 -0.2345 -0.1460
 2047W        W 5566   1.024   8.892   1.789 -0.2064 -0.0937  0.3431
 2048W        W 5567   0.414   4.531  12.309 -0.3098  0.0068 -0.1028
 2049W        W 5568   6.373   6.579   4.388 -0.1128  0.3069 -0.1258
 2050W        W 5569   0.481   4.067   3.156  0.3258  0.2311 -0.2877
 2051W        W 5570   5.929   9.130   0.390  0.1168 -0.2811 -0.3588
 2052W        W 5571   1.125   9.053  10.249  0.1576 -0.1209 -0.2716
 2053W        W 5572   1.751   0.411   9.062 -0.2097 -0.2719  0.0143
 2054W        W 5573   4.509   1.382   3.519 -0.0622  0.0834  0.2056
 2055W        W 5574   8.104   8.608   9.344 -0.2469 -0.4121 -0.0055
 2056W        W 5575   1.430   6.811   1.241 -0.4377  0.2339  0.1036
 2057W        W 5576   1.475   7.317   4.507  0.1332 -0.0340 -0.1065
 2058W        W 5577   7.113   4.785   8.594  0.1510  0.0561  0.0353
 2059W        W 5578   2.943   2.943   9.295 -0.2462 -0.3167 -0.3325
 2060W        W 5579   9.418   2.484   0.459 -0.1551 -0.0641 -0.0227
 2061W        W 5580   7.800   0.679  11.077  0.1295  0.1842 -0.1228
 2062W        W 5581   6.866   6.257   9.005  0.0782 -0.2724 -0.0754
 2063W        W 5582   6.565   7.874   0.060 -0.1852  0.0463 -0.0022
 2064W        W 5583   2.563   4.583   8.928  0.2856  0.0106 -0.1061
 2065W        W 5584   8.339   7.487   8.544  0.0894  0.2036 -0.1734
 2066W        W 5585   4.502   5.688   9.782  0.0077  0.1271  0.1441
 2067W        W 5586   3.156   6.206   9.317 -0.2722 -0.1668 -0.3858
 2068W        W 5587   6.339   8.122   0.685 -0.1842 -0.2180  0.1818
 2069W        W 5588   3.688   6.794   9.754 -0.1239 -0.1711 -0.0199
 2070W        W 5589   2.305   3.988   2.233 -0.2724 -0.0175 -0.2386
 2071W        W 5590   4.133   1.677   2.335 -0.0159  0.0343  0.2158
 2072W        W 5591   3.032   1.170   8.946 -0.4974  0.1881 -0.0943
 2073W        W 5592   2.696   7.537   1.000 -0.1493 -0.0347  0.2395
 2074W        W 5593   0.979   0.074  10.450  0.1355  0.0718 -0.1596
 2075W        W 5594   4.833   1.353  12.395  0.1472 -0.1939 -0.0754
 2076W        W 5595   4.166   7.052  10.714  0.0059  0.1028 -0.0645
 2077W        W 5596   8.810   4.241   1.170 -0.1606 -0.0863  0.1620
 2078W        W 5597   3.124   3.943  10.861  0.0876  0.1320  0.0610
 2079W        W 5598   7.290   4.091   2.400  0.0918 -0.0415  0.1173
 2080W        W 5599   7.701   1.047   4.266  0.2592  0.1015  0.0940
 2081W        W 5600   0.329   3.693  10.182  0.2943 -0.2860  0.0280
 2082W        W 5601   5.664   9.194   1.377 -0.0582 -0.0854  0.0047
 2083W        W 5602   8.970   0.324   2.546 -0.2004  0.0745 -0.1172
 2084W        W 5603   2.735   0.516  11.891 -0.0801  0.1743  0.1434
 2085W        W 5604   9.083   3.318  12.118  0.4317 -0.1428  0.0700
 2086W        W 5605   3.714   8.767   2.219 -0.1836 -0.1445 -0.1271
 2087W        W 5606   2.231   0.062   9.999 -0.1268 -0.5913  0.1176
 2088W        W 5607   3.326   5.390   1.498 -0.0521  0.0871 -0.0001
 2089W        W 5608   7.793   0.604   3.448 -0.4078  0.0315  0.1469
 2090W        W 5609   4.394   5.787   2.050  0.1241  0.0493  0.3132
 2091W        W 5610   6.682   1.355  11.762 -0.2900  0.2502  0.2662
 2092W        W 5611   6.186   1.321   2.728 -0.1240  0.3310  0.0751
 2093W        W 5612   5.860   7.332   8.777  0.1211  0.0363 -0.1290
 2094W        W 5613   3.849   5.001  12.165 -0.1377  0.2940 -0.2281
 2095W        W 5614   4.699   3.052   9.510 -0.1478 -0.1543  0.1879
 2096W        W 5615   4.788   3.409  10.862  0.2109  0.2256 -0.2505
 2097W        W 5616   8.247   3.741   0.307 -0.3702  0.0335  0.1777
 2098W        W 5617   5.840   7.050  10.991 -0.1716  0.0930 -0.2521
 2099W        W 5618   0.832   5.534   1.866 -0.0636 -0.5022  0.0741
 2100W        W 5619   5.856   6.505   9.073 -0.0707 -0.3401  0.0399
 2101W        W 5620   8.889   8.613   2.358  0.3806 -0.1751 -0.0087
 2102W        W 5621   3.591   7.598   1.242  0.1944 -0.1043 -0.1383
 2103W        W 5622   4.325   7.344   3.779 -0.0878  0.2281 -0.0090
 2104W        W 5623   7.640   7.418   1.311  0.1369  0.0477 -0.0567
 2105W        W 5624   1.102   1.698   2.579  0.0383  0.0301 -0.1143
 2106W        W 5625   3.318   8.718   4.055  0.1424 -0.0285 -0.2891
 2107W        W 5626   2.395   9.434   1.313 -0.2531  0.3287 -0.2474
 2108W        W 5627   6.059   3.352   9.182  0.0125  0.1923  0.0462
 2109W        W 5628   1.550   8.118   3.163  0.1033 -0.2560 -0.0729
 2110W        W 5629   7.452   4.527   9.184  0.3021  0.0654  0.2441
 2111W        W 5630   9.183   8.539  10.917  0.0780 -0.2040 -0.0103
 2112W        W 5631   9.062   2.875  12.333 -0.1827  0.2146 -0.0363
 2113W        W 5632   6.723   2.349   8.922  0.0709 -0.4354  0.1139
 2114W        W 5633   8.195   6.101   3.336  0.0923  0.0818  0.2472
 2115W        W 5634   9.323   4.511  10.132  0.0717 -0.0320 -0.1253
 2116W        W 5635   0.453   1.741   0.501  0.0742  0.0078  0.0177
 2117W        W 5636   5.721   2.740  11.858 -0.0156  0.0488 -0.2573
 2118W        W 5637   5.158   6.543   2.031  0.0697 -0.0133  0.2533
 2119W        W 5638   7.723   2.873  11.744  0.1969 -0.0180 -0.1772
 2120W        W 5639   4.776   5.501  11.134 -0.4451  0.3742 -0.2812
 2121W        W 5640   5.367   6.813  11.744  0.3688  0.0985 -0.3312
 2122W        W 5641   8.053   1.269   2.285  0.0243  0.0502 -0.3027
 2123W        W 5642   7.818   1.216   4.784 -0.1077  0.2953  0.0905
 2124W        W 5643   0.817   3.914   2.562 -0.1440  0.0864 -0.2403
 2125W        W 5644   9.415   9.018   9.104  0.4403  0.0011 -0.0745
 2126W        W 5645   7.051   1.860   2.898 -0.1106  0.0920  0.1340
 2127W        W 5646   2.036   7.989   0.120 -0.2490 -0.0653  0.0615
 2128W        W 5647   3.780   7.275   0.454  0.0961 -0.1997  0.1293
 2129W        W 5648   6.711   2.621   2.311  0.3808 -0.1654  0.0013
 2130W        W 5649   4.571   0.934  12.104  0.1413 -0.0587 -0.2009
 2131W        W 5650   2.471   5.467  11.610 -0.0720 -0.3097 -0.1196
 2132W        W 5651   9.035   4.550   3.707  0.2194  0.1621 -0.0530
 2133W        W 5652   1.533   0.891   2.193  0.2311 -0.0741 -0.1429
 2134W        W 5653   8.987   5.180   8.875 -0.2016 -0.2514  0.1260
 2135W        W 5654   6.366   0.898   2.885  0.2642  0.0121 -0.1606
 2136W        W 5655   3.888   0.228  12.378  0.0272  0.1217  0.3850
 2137W        W 5656   0.495   6.284  10.293 -0.5551  0.0331  0.0668
 2138W        W 5657   1.838   3.893   0.490 -0.1431 -0.1817  0.0990
 2139W        W 5658   0.363   3.409   9.752 -0.0053  0.0895 -0.0101
 2140W        W 5659   3.475   4.416   2.956  0.1639  0.1615  0.0168
 2141W        W 5660   2.875   9.548  10.570  0.2075 -0.0651 -0.0555
 2142W        W 5661   1.407   1.327   0.502 -0.2856 -0.1864  0.1758
 2143W        W 5662   1.280   1.214   2.456  0.1095 -0.2674 -0.0026
 2144W        W 5663   6.807   4.961   0.062 -0.0446 -0.2493 -0.0053
 2145W        W 5664   6.405   9.248   0.627  0.1877  0.1077 -0.1470
 2146W        W 5665   0.823   9.167   3.946 -0.0761  0.0934 -0.1377
 2147W        W 5666   4.046   8.651   1.841 -0.3908 -0.3774  0.1796
 2148W        W 5667   3.758   4.006  11.749 -0.2374 -0.0084 -0.2688
 2149W        W 5668   5.258   3.824   2.593 -0.1757 -0.2031 -0.1680
 2150W        W 5669   0.288   9.173  10.022  0.1279  0.0911  0.0482
 2151W        W 5670   6.708   2.944   1.421 -0.0181 -0.1556  0.1787
 2152W        W 5671   7.601   4.595   9.976 -0.3082  0.1221 -0.1908
 2153W        W 5672   1.983   8.252   2.957  0.4114 -0.4489  0.1850
 2154W        W 5673   4.518   0.948   3.135  0.3963 -0.1407 -0.1149
 2155W        W 5674   6.389   7.426   2.654  0.1807 -0.0464 -0.2122
 2156W        W 5675   3.592   7.961   0.170 -0.0161  0.0452 -0.1013
 2157W        W 5676   0.262   9.102   0.751  0.0267 -0.1739  0.0452
 2158W        W 5677   3.590   5.309   3.023 -0.0283  0.1735  0.3116
 2159W        W 5678   5.442   5.417  12.507 -0.3345  0.3457  0.0065
 2160W        W 5679   5.860   5.347  11.780 -0.1719 -0.0763 -0.0705
 2161W        W 5680   0.480   2.078   1.864 -0.3368  0.1779  0.1871
 2162W        W 5681   6.581   8.115  12.174  0.2104 -0.1836  0.2216
 2163W        W 5682   1.729   1.813   1.834  0.0207 -0.1175 -0.2121
 2164W        W 5683   3.577   9.096   0.465  0.4655 -0.2773 -0.2141
 2165W        W 5684   8.364   5.300   9.629  0.0597  0.0558 -0.1952
 2166W        W 5685   6.435   9.180  12.112  0.2478 -0.1684  0.0854
 2167W        W 5686   1.919   1.332   2.115 -0.1014  0.0879 -0.2323
 2168W        W 5687   5.763   6.305   0.636  0.1307 -0.0898 -0.1728
 2169W        W 5688   0.648   0.435  11.571 -0.2402  0.0855  0.0951
 2170W        W 5689   2.603   4.181   2.743 -0.3195  0.0536  0.2849
 2171W        W 5690   7.142   5.312   1.798  0.3069  0.0439 -0.0504
 2172W        W 5691   5.540   5.099   0.583  0.0830  0.0711  0.0474
 2173W        W 5692   2.187   8.855   8.930 -0.2952 -0.0593 -0.2525
 2174W        W 5693   9.144   2.557   1.517  0.2460  0.1143  0.6484
 2175W        W 5694   8.408   5.152   4.243  0.0084  0.1569 -0.1066
 2176W        W 5695   5.447   3.529   0.649 -0.1973  0.2736 -0.0117
 2177W        W 5696   3.767   6.134   8.623 -0.3020  0.0532 -0.2083
 2178W        W 5697   3.958   9.209   9.289  0.1324 -0.0224 -0.3184
 2179W        W 5698   4.424   3.674  11.116  0.0833  0.1642 -0.0649
 2180W        W 5699   8.152   2.166   4.397 -0.1894 -0.1159 -0.1592
 2181W        W 5700   0.930   2.586   3.072  0.0527  0.2177  0.0435
 2182W        W 5701   8.676   7.295  10.888  0.0969 -0.1788  0.0081
 2183W        W 5702   6.841   0.329  10.808  0.1145 -0.0441  0.2124
 2184W        W 5703   3.812   8.402   1.435  0.1294 -0.1672  0.0672
 2185W        W 5704   4.604   3.336   0.466  0.1294 -0.1891 -0.2024
 2186W        W 5705   6.772   5.098   0.600 -0.0172 -0.3625 -0.3384
 2187W        W 5706   0.976   8.415   1.019  0.2885 -0.0546  0.0440
 2188W        W 5707   6.494   7.634   3.693  0.1410  0.2097  0.0443
 2189W        W 5708   2.982   4.097  12.331 -0.0968  0.0933  0.1129
 2190W        W 5709   5.748   1.846   9.991  0.2126  0.0272  0.2027
 2191W        W 5710   4.413   4.316   2.647  0.0656 -0.2431 -0.4563
 2192W        W 5711   2.764   3.530   1.582 -0.1508  0.0310 -0.2884
 2193W        W 5712   0.818   9.352   1.858  0.0909 -0.2691 -0.0330
 2194W        W 5713   4.659   1.785   2.456  0.2273  0.4781 -0.0789
 2195W        W 5714   0.243   4.002   1.412  0.0879 -0.1782  0.0694
 2196W        W 5715   0.368   3.030  11.937 -0.3059  0.0315 -0.0517
 2197W        W 5716   3.455   8.768   9.336  0.0127 -0.0809  0.2428
 2198W        W 5717   8.330   7.531   3.178  0.0737  0.0346  0.1993
 2199W        W 5718   7.649   6.532   8.486 -0.2076  0.1724 -0.0825
 2200W        W 5719   7.839   0.892   0.578  0.1414  0.3716 -0.0232
 2201W        W 5720   4.219   0.798   0.886 -0.2129  0.0688  0.0548
 2202W        W 5721   9.392   6.853   1.908  0.1961 -0.2452 -0.1317
 2203W        W 5722   6.428   3.903  10.683 -0.4275  0.0594 -0.2413
 2204W        W 5723   1.869   7.213  11.905  0.1074 -0.1367 -0.2928
 2205W        W 5724   2.113   8.892  12.122  0.0084 -0.1731 -0.1265
 2206W        W 5725   5.616   9.033  11.309  0.1800 -0.1530  0.0053
 2207W        W 5726   8.984   9.568  10.635 -0.2351  0.1136  0.0953
 2208W        W 5727   6.173   7.215   3.103 -0.2374  0.0904  0.1497
 2209W        W 5728   5.015   2.563   9.647  0.4018 -0.1928  0.2093
 2210W        W 5729   1.022   0.384  12.006  0.0775 -0.2876 -0.0593
 2211W        W 5730   3.513   5.071  10.893 -0.1704  0.0254  0.3165
 2212W        W 5731   6.064   2.483   0.391 -0.1966 -0.3848  0.0882
 2213W        W 5732   1.128   2.941   1.150 -0.2171  0.0620 -0.0419
 2214W        W 5733   4.133   0.680   2.474 -0.0953 -0.1565 -0.2691
 2215W        W 5734   8.045   6.633   1.168  0.0486  0.2833  0.1156
 2216W        W 5735   0.228   9.402   3.136 -0.1199  0.2464  0.0272
 2217W        W 5736   8.483   1.811  10.810 -0.2273 -0.0277  0.0656
 2218W        W 5737   6.452   4.806  11.227  0.2319 -0.2840  0.1448
 2219W        W 5738   4.004   0.006   2.000 -0.0103  0.0964  0.0694
 2220W        W 5739   2.553   3.479   2.566 -0.1553 -0.1931 -0.2542
 2221W        W 5740   7.001   5.438   9.946 -0.0374  0.0063  0.1053
 2222W        W 5741   7.747   4.698  11.338  0.0971  0.1809 -0.3616
 2223W        W 5742   0.272   7.808   9.162  0.1100  0.0291 -0.2450
 2224W        W 5743   3.756   3.414   2.246  0.1062 -0.3115  0.1299
 2225W        W 5744   6.723   5.300  11.906 -0.1741  0.0306 -0.1522
 2226W        W 5745   2.613   7.963  10.672  0.2678  0.4965 -0.1404
 2227W        W 5746   4.788   7.679   3.218  0.1401 -0.0667 -0.0781
 2228W        W 5747   0.397   1.314   1.111  0.0519 -0.1405 -0.2661
 2229W        W 5748   9.605   8.549   2.631 -0.1606 -0.0840 -0.1317
 2230W        W 5749   3.415   5.839   9.503  0.1008  0.0922  0.0730
 2231W        W 5750   6.676   0.854   1.521 -0.1363  0.3636 -0.4151
 2232W        W 5751   1.769   6.125  11.989  0.2167  0.2112  0.0577
 2233W        W 5752   4.382   8.237  10.180  0.0557  0.1246  0.1175
 2234W        W 5753   6.015   7.183  11.500 -0.0972 -0.1577  0.4145
 2235W        W 5754   2.041   2.429  12.243 -0.1741 -0.0660 -0.0709
 2236W        W 5755   3.499   1.116   2.123 -0.2316  0.1905 -0.0284
 2237W        W 5756   7.172   7.529   1.143  0.1100  0.1678 -0.1968
 2238W        W 5757   0.161   3.711   0.303 -0.0849 -0.0415  0.1341
 2239W        W 5758   9.401   0.907  11.613  0.0865 -0.1492 -0.0017
 2240W        W 5759   8.854   3.297   3.476 -0.2357 -0.2666 -0.0950
 2241W        W 5760   6.662   1.653  10.667 -0.1175  0.3678  0.2271
 2242W        W 5761   3.311   6.988   8.125  0.0962  0.0629  0.0359
 2243W        W 5762   6.020   4.289  10.731  0.2477  0.1188  0.0552
 2244W        W 5763   1.781   8.373   9.574 -0.2043  0.0155  0.1875
 2245W        W 5764   0.186   6.189   9.117 -0.0366  0.0101 -0.2698
 2246W        W 5765   8.756   6.639   9.297  0.0552 -0.0092  0.0382
 2247W        W 5766   8.144   2.193   3.597  0.2530 -0.0573  0.0549
 2248W        W 5767   6.926   8.796   0.173 -0.0606 -0.0293  0.0027
 2249W        W 5768   9.208   5.736   0.395 -0.2777 -0.3077  0.0903
 2250W        W 5769   9.146   7.586   3.933 -0.4303 -0.2355 -0.3455
 2251W        W 5770   5.482   5.759   0.462  0.1169 -0.1008 -0.2713
 2252W        W 5771   3.507   4.242   1.041 -0.0337  0.3061 -0.1146
 2253W        W 5772   8.061   9.654  12.276 -0.3668 -0.0888  0.2108
 2254W        W 5773   6.631   6.969   2.481 -0.3238  0.1712  0.0324
 2255W        W 5774   8.273   0.433  12.496 -0.0372 -0.3727  0.0050
 2256W        W 5775   5.843   8.793   3.352  0.1167  0.0053  0.1307
 2257W        W 5776   0.561   7.870   2.265 -0.0124  0.0817 -0.2089
 2258W        W 5777   7.248   9.411   0.366 -0.0980  0.0552  0.3324
 2259W        W 5778   3.608   2.162   2.884 -0.1452  0.0571 -0.2306
 2260W        W 5779   7.777   5.673  12.431 -0.4449 -0.3130  0.1152
 2261W        W 5780   9.503   8.219   0.416 -0.1407 -0.0032  0.1584
 2262W        W 5781   2.663   6.234   4.413  0.0584 -0.1626 -0.3251
 2263W        W 5782   3.220   1.409   1.805 -0.1597 -0.0126 -0.1518
 2264W        W 5783   0.922   0.027   0.496 -0.0205 -0.0020 -0.1207
 2265W        W 5784   5.567   0.133   0.932  0.0911  0.0904  0.0894
 2266W        W 5785   6.023   1.643   3.953  0.0183  0.1998  0.0848
 2267W        W 5786   1.570   2.607   2.439 -0.1727 -0.2564  0.1193
 2268W        W 5787   8.403   4.181   0.894  0.1046  0.0623 -0.1079
 2269W        W 5788   9.257   7.996   1.890 -0.1339  0.1284 -0.0822
 2270W        W 5789   5.809   5.310   1.262 -0.0128 -0.1907  0.0670
 2271W        W 5790   6.697   9.086   9.311  0.0191  0.1499  0.0368
 2272W        W 5791   2.308   4.533  11.007  0.1265 -0.2137 -0.2664
 2273W        W 5792   9.478   7.138  11.630 -0.0168  0.0634 -0.1212
 2274W        W 5793   8.090   3.827   3.983 -0.1391  0.3152  0.0152
 2275W        W 5794   3.224   6.588  11.088 -0.0436 -0.0369 -0.1222
 2276W        W 5795   1.889   4.005   8.923 -0.0794 -0.0919 -0.3069
 2277W        W 5796   5.900   4.609  12.364  0.0980  0.0234 -0.1514
 2278W        W 5797   5.643   4.967   0.067 -0.2724 -0.0412 -0.3447
 2279W        W 5798   2.236   7.324   9.833  0.3252  0.3130  0.3156
 2280W        W 5799   8.218   8.811   1.387  0.1815 -0.0588 -0.0307
 2281W        W 5800   0.437   8.602  11.268  0.1661  0.1766 -0.0842
 2282W        W 5801   7.778   3.805   1.965 -0.2973  0.0448 -0.3595
 2283W        W 5802   6.372   2.144   3.864  0.1094 -0.1307  0.1387
 2284W        W 5803   8.422   7.161  11.397 -0.1390  0.0958 -0.3217
 2285W        W 5804   0.624   0.205   1.823  0.0858 -0.0408 -0.2445
 2286W        W 5805   7.682   9.344  12.286 -0.3928 -0.1100  0.2352
 2287W        W 5806   5.928   8.650  12.124  0.0876 -0.0886  0.0552
 2288W        W 5807   1.933   9.365   1.574 -0.0264 -0.0741 -0.0864
 2289W        W 5808   7.655   6.401   1.636  0.0351 -0.2016 -0.0233
 2290W        W 5809   9.154   6.996   8.828  0.0146 -0.1458  0.2469
 2291W        W 5810   0.312   1.924   9.819 -0.0127 -0.1356  0.0146
 2292W        W 5811   7.086   6.429   3.869  0.2455  0.2159 -0.1153
 2293W        W 5812   2.071   4.496   8.876  0.3202 -0.1628 -0.3467
 2294W        W 5813   5.408   0.427   0.478 -0.1014 -0.1334  0.0956
 2295W        W 5814   4.516   2.561   1.398  0.0827  0.0109  0.3412
 2296W        W 5815   0.361   0.341   3.860 -0.0978 -0.2959 -0.0289
 2297W        W 5816   3.610   7.941  10.488 -0.0348 -0.0479  0.1982
 2298W        W 5817   0.778   1.250   2.568 -0.1511 -0.1303 -0.0466
 2299W        W 5818   3.585   7.421   3.146  0.1282  0.0660  0.1659
 2300W        W 5819   8.486   5.281  11.374 -0.0156 -0.1761 -0.2320
 2301W        W 5820   2.142   3.301   9.642  0.3792 -0.1897  0.0461
 2302W        W 5821   9.004   9.066   1.017  0.1565  0.0984  0.3539
 2303W        W 5822   7.806   3.584  11.511 -0.2128 -0.0982 -0.2702
 2304W        W 5823   3.802   5.469  12.197 -0.1097 -0.1713 -0.0502
 2305W        W 5824   8.718   1.859   2.710 -0.0285  0.1154  0.1532
 2306W        W 5825   3.971   0.847   0.305 -0.0960 -0.1666  0.0002
 2307W        W 5826   4.822   5.459   2.030 -0.0812 -0.1650 -0.0066
 2308W        W 5827   9.137   0.097   3.801 -0.1177 -0.0487  0.1003
 2309W        W 5828   7.144   2.492  10.099 -0.1313 -0.0798  0.1060
 2310W        W 5829   3.560   8.743   2.729 -0.5900  0.1217  0.0821
 2311W        W 5830   4.537   8.313   9.675 -0.1744 -0.0947 -0.1638
 2312W        W 5831   6.848   4.330   3.224  0.3094  0.1642  0.1384
 2313W        W 5832   5.703   8.214   2.376  0.0571 -0.2304  0.2556
 2314W        W 5833   3.903   4.222   1.967  0.0172  0.1543  0.1959
 2315W        W 5834   8.509   2.288   0.310 -0.0049  0.1469 -0.3331
 2316W        W 5835   0.748   5.502   8.475 -0.2018 -0.1938  0.0257
 2317W        W 5836   6.189   1.699  11.426 -0.1234 -0.0747 -0.2170
 2318W        W 5837   6.519   2.629  12.246 -0.1624  0.1258  0.1131
 2319W        W 5838   5.870   5.683   2.634  0.0535  0.0134  0.1999
 2320W        W 5839   0.023   0.449   1.066 -0.2155  0.0961 -0.1592
 2321W        W 5840   5.215   9.412   1.129 -0.1691  0.0563 -0.3526
 2322W        W 5841   5.631   8.377  10.661  0.1111  0.0915  0.0461
 2323W        W 5842   5.647   4.001  10.546  0.2663 -0.1142  0.2810
 2324W        W 5843   7.630   8.342  10.303 -0.0465 -0.1838 -0.1460
 2325W        W 5844   1.347   3.379   1.027 -0.1844 -0.3553 -0.1272
 2326W        W 5845   5.267   6.723   8.420  0.0073  0.0697 -0.3472
 2327W        W 5846   1.987   3.396  12.313  0.1770 -0.0799  0.2014
 2328W        W 5847   1.264   5.877   0.653  0.2001  0.2493  0.0130
 2329W        W 5848   6.973   0.135  10.252 -0.0776  0.0381  0.1816
 2330W        W 5849   7.361   0.048   2.068  0.0876 -0.1475 -0.1823
 2331W        W 5850   1.068   3.833   1.651  0.1660  0.1213 -0.3143
 2332W        W 5851   4.932   1.214   0.944 -0.0620 -0.1116  0.2325
 2333W        W 5852   7.802   3.507   3.684  0.0759 -0.1773  0.0174
 2334W        W 5853   8.005   0.710   2.212  0.1020 -0.3140  0.0117
 2335W        W 5854   0.880   3.901   0.220  0.1055  0.0942 -0.0260
 2336W        W 5855   7.583   0.622   1.886  0.3070  0.1676 -0.0377
 2337W        W 5856   7.633   8.069   1.539  0.0380  0.3686  0.2212
 2338W        W 5857   7.552   1.994  10.633 -0.1039 -0.1289 -0.1292
 2339W        W 5858   6.403   1.620   8.206  0.0337  0.0777 -0.2715
 2340W        W 5859   0.718   1.542  10.570  0.2712  0.1731  0.0498
 2341W        W 5860   0.406   2.593   1.769 -0.0454 -0.1326  0.0836
 2342W        W 5861   8.292   0.810   9.105 -0.2393  0.2933  0.0120
 2343W        W 5862   1.402   8.223   2.140 -0.0589  0.1297  0.0504
 2344W        W 5863   6.193   0.856   1.754 -0.3930 -0.2141  0.3400
 2345W        W 5864   4.838   0.608  11.824 -0.0024 -0.1460  0.2087
 2346W        W 5865   4.902   4.544   2.438  0.0974  0.0153  0.0546
 2347W        W 5866   7.734   1.602   8.820 -0.0468 -0.0305 -0.0302
 2348W        W 5867   8.599   9.226   0.724  0.3314  0.2143  0.1651
 2349W        W 5868   7.691   1.465  12.022 -0.1923  0.3720  0.3025
 2350W        W 5869   3.483   5.751  12.511  0.3165  0.0318  0.0429
 2351W        W 5870   6.557   9.641  12.250 -0.0047  0.1729  0.1066
 2352W        W 5871   7.861   6.049   1.934 -0.1397  0.4120 -0.2357
 2353W        W 5872   8.887   3.059   1.228  0.0553 -0.0497  0.0457
 2354W        W 5873   4.333   6.429   3.329  0.0819 -0.0686  0.1260
 2355W        W 5874   7.381   7.745  11.307  0.2505 -0.0925  0.0259
 2356W        W 5875   4.571   8.639  12.022  0.0596 -0.2034 -0.0749
 2357W        W 5876   1.901   6.964   2.580 -0.0849 -0.1131 -0.0326
 2358W        W 5877   4.783   5.277   3.670 -0.1727 -0.1820  0.0444
 2359W        W 5878   3.526   6.537   0.294 -0.0793 -0.2640 -0.1981
 2360W        W 5879   2.830   6.247  11.176  0.1017 -0.2050 -0.0539
 2361W        W 5880   2.998   6.671   4.538  0.0382  0.0087 -0.0658
 2362W        W 5881   1.866   0.561   1.588  0.1835  0.0526  0.1643
 2363W        W 5882   3.801   0.024   3.313  0.2734 -0.1343  0.1348
 2364W        W 5883   6.466   8.721   2.532 -0.2934  0.2739  0.2046
 2365W        W 5884   7.051   1.821  12.374 -0.0888  0.0924  0.0758
 2366W        W 5885   8.835   0.911  10.064 -0.2385 -0.1265  0.2616
 2367W        W 5886   1.339   0.898   0.856  0.3180  0.1131 -0.1590
 2368W        W 5887   1.031   4.419   8.621 -0.0392  0.4735 -0.0051
 2369W        W 5888   2.460   9.174   0.565  0.2303  0.3248 -0.2943
 2370W        W 5889   2.633   1.753   2.543 -0.0666  0.1689  0.2747
 2371W        W 5890   4.050   0.999  12.083  0.0214 -0.0431  0.0195
 2372W        W 5891   2.770   7.193  11.165 -0.3166 -0.3083  0.0604
 2373W        W 5892   6.270   0.330   9.194 -0.0684  0.0175  0.1687
 2374W        W 5893   9.242   6.002  12.135  0.1083  0.1221  0.1917
 2375W        W 5894   0.053   7.282  12.076 -0.0147  0.3889 -0.0030
 2376W        W 5895   3.713   6.241   2.566 -0.1923  0.0509  0.0961
 2377W        W 5896   3.783   9.639  11.467 -0.1700 -0.0749  0.1859
 2378W        W 5897   4.976   2.494  12.242  0.0820  0.0208 -0.0103
 2379W        W 5898   4.463   7.714   2.100 -0.0854 -0.1985 -0.0711
 2380W        W 5899   1.670   1.842   2.880  0.2440  0.1153 -0.0860
 2381W        W 5900   4.031   1.363  11.712 -0.1401 -0.2716 -0.3928
 2382W        W 5901   7.884   0.030   4.095 -0.2634 -0.3156  0.0150
 2383W        W 5902   8.138   2.244   0.044  0.0536  0.0095  0.4036
 2384W        W 5903   3.163   7.562   2.730  0.2710 -0.1230  0.1354
 2385W        W 5904   3.218   2.395   1.408 -0.0148  0.1916 -0.0247
 2386W        W 5905   1.806   8.607   8.981  0.1746  0.0278  0.1203
 2387W        W 5906   6.091   3.509  10.555  0.1381 -0.2317  0.1436
 2388W        W 5907   4.981   9.509   9.604  0.0651 -0.0144 -0.0775
 2389W        W 5908   5.655   5.115  11.020 -0.1841 -0.1910  0.0135
 2390W        W 5909   7.657   2.820   0.621  0.2320  0.1379  0.0241
 2391W        W 5910   8.202   7.026   9.868  0.1713  0.1740  0.0485
 2392W        W 5911   0.621   6.796  11.994  0.4576  0.0485  0.1237
 2393W        W 5912   6.727   2.411   7.894  0.0330  0.0679 -0.1220
 2394W        W 5913   3.952   7.019   9.123 -0.2923  0.1651  0.2757
 2395W        W 5914   1.966   8.602   8.236 -0.0932  0.0319  0.1019
 2396W        W 5915   5.351   0.233   2.472  0.1968 -0.2854 -0.0033
 2397W        W 5916   3.452   4.950  10.430  0.2187  0.1206 -0.0465
 2398W        W 5917   7.219   1.545   9.826 -0.0412 -0.1772 -0.0213
 2399W        W 5918   5.045   6.198   8.447  0.0125  0.1156 -0.1463
 2400W        W 5919   7.454   1.523  12.528 -0.2272 -0.1461 -0.0470
 2401W        W 5920   1.041   0.701  10.516  0.1963 -0.0282  0.1886
 2402W        W 5921   2.262   3.755  10.811 -0.1147  0.1965 -0.1807
 2403W        W 5922   7.509   8.203   2.570  0.0240  0.0925  0.0064
 2404W        W 5923   7.286   8.620   3.578 -0.0354  0.4332  0.0546
 2405W        W 5924   3.013   5.315  11.072 -0.1766  0.2060 -0.0780
 2406W        W 5925   2.166   6.204   3.153 -0.2691 -0.2880  0.0081
 2407W        W 5926   3.900   9.144  10.254 -0.0574  0.1456 -0.1037
 2408W        W 5927   8.893   0.126  11.518  0.1890  0.0295  0.0568
 2409W        W 5928   2.968   0.593   1.726  0.3586 -0.0444 -0.1261
 2410W        W 5929   5.013   0.892   8.903 -0.0758  0.0404  0.1331
 2411W        W 5930   8.291   8.469   2.102 -0.0964 -0.2204 -0.0375
 2412W        W 5931   2.630   6.543   0.578  0.0219 -0.1572  0.1206
 2413W        W 5932   7.521   3.092   2.270  0.0803  0.1375  0.4499
 2414W        W 5933   8.948   7.163   9.260  0.1796  0.0707 -0.3421
 2415W        W 5934   4.347   2.482   0.605 -0.1340 -0.2996  0.0963
 2416W        W 5935   7.258   4.623   3.257  0.0245 -0.0221  0.0776
 2417W        W 5936   5.946   7.999  12.203  0.0351  0.0536 -0.0270
 2418W        W 5937   6.600   3.437   2.306 -0.1988 -0.1549  0.0235
 2419W        W 5938   6.027   6.689   2.292  0.1465 -0.0655  0.1981
 2420W        W 5939   8.685   0.042   3.433 -0.3371  0.1973  0.1745
 2421W        W 5940   5.504   2.585  12.301  0.0858 -0.0840  0.0648
 2422W        W 5941   6.290   0.841  10.349 -0.0226 -0.3002 -0.2025
 2423W        W 5942   5.041   5.661   1.613  0.1884  0.4039 -0.0042
 2424W        W 5943   4.232   6.189   3.754  0.0117 -0.3046 -0.1758
 2425W        W 5944   9.149   7.476   1.975  0.0723  0.3918  0.0408
 2426W        W 5945   4.440   2.032  10.726 -0.2464 -0.0810 -0.0503
 2427W        W 5946   6.496   6.003   0.345  0.0456  0.1265  0.1645
 2428W        W 5947   2.039   7.340  10.717  0.1131 -0.0247 -0.0242
 2429W        W 5948   2.330   9.635  10.596 -0.2278  0.0060  0.0226
 2430W        W 5949   7.859   7.263   3.241 -0.2420 -0.3673  0.0451
 2431W        W 5950   8.614   4.882   3.660  0.0492 -0.0597  0.1327
 2432W        W 5951   2.805   8.872   8.032  0.1207 -0.2617  0.0200
 2433W        W 5952   2.117   6.585   0.357 -0.1064 -0.3638  0.0138
 2434W        W 5953   3.552   5.381  11.770  0.0877  0.0588 -0.2842
 2435W        W 5954   2.855   0.218   3.103  0.3752  0.0071 -0.1341
 2436W        W 5955   8.488   4.915   0.456 -0.1188  0.1120 -0.2979
 2437W        W 5956   5.748   6.583   4.211  0.2574  0.3883  0.4184
 2438W        W 5957   2.465   5.141  10.342  0.1014  0.1961 -0.0153
 2439W        W 5958   6.099   7.650   1.372  0.0364  0.2374 -0.1505
 2440W        W 5959   1.524   0.069  11.781 -0.0854 -0.0194  0.2150
 2441W        W 5960   6.190   2.313   2.904  0.1740 -0.3649 -0.2482
 2442W        W 5961   5.275   0.725  10.493  0.1650  0.1251  0.1620
 2443W        W 5962   0.581   4.606   1.433  0.1566  0.1432 -0.0824
 2444W        W 5963   0.335   3.788   1.881  0.1149 -0.0428  0.3443
 2445W        W 5964   4.671   0.855  11.402  0.0529  0.1578  0.1067
 2446W        W 5965   3.023   8.668  10.099  0.0213  0.0225 -0.1161
 2447W        W 5966   4.101   1.634   0.284  0.1906 -0.2987  0.3581
 2448W        W 5967   9.632   0.307   3.552 -0.0505 -0.1101  0.1309
 2449W        W 5968   4.501   0.683   9.977 -0.0586  0.2911 -0.1735
 2450W        W 5969   6.971   6.218  12.215 -0.1033  0.1808 -0.1914
 2451W        W 5970   4.959   3.001   1.335 -0.0996  0.2198 -0.0806
 2452W        W 5971   0.188   2.758  11.539  0.0467 -0.2848  0.3380
 2453W        W 5972   3.018   2.625   0.316  0.0089  0.0137 -0.1152
 2454W        W 5973   1.486   4.739  11.065  0.1925  0.0898  0.0993
 2455W        W 5974   7.323   7.452  10.410 -0.1947 -0.1501 -0.2378
 2456W        W 5975   9.124   0.430   8.753  0.0488  0.2009  0.1402
 2457W        W 5976   6.050   8.194  10.507 -0.3648  0.0639 -0.1451
 2458W        W 5977   1.111   3.456   3.282  0.0007  0.2795 -0.1531
 2459W        W 5978   0.694   6.603  11.054  0.0070  0.4170  0.4409
 2460W        W 5979   1.527   2.129  12.013  0.0029  0.0603  0.0497
 2461W        W 5980   7.610   0.202   1.181  0.0662  0.1947 -0.0749
 2462W        W 5981   6.548   2.346  11.394 -0.0236  0.5401 -0.0641
 2463W        W 5982   3.954   5.989  12.430 -0.0193  0.1435  0.1951
 2464W        W 5983   1.786   8.713   2.360 -0.3630 -0.1128  0.1387
 2465W        W 5984   7.914   1.799   9.259 -0.3446  0.0734 -0.0706
 2466W        W 5985   0.731   8.887   9.023 -0.0616  0.3941  0.0811
 2467W        W 5986   7.592   3.810   1.503 -0.2074 -0.1222  0.1959
 2468W        W 5987   7.348   2.707  12.300 -0.1852 -0.1616 -0.1284
 2469W        W 5988   7.640   2.434   8.243 -0.2907  0.1205  0.0257
 2470W        W 5989   1.917   7.107   4.464  0.3899  0.0704 -0.2866
 2471W        W 5990   5.753   1.702   0.775  0.1446 -0.1511  0.1908
 2472W        W 5991   8.797   3.422   2.202  0.0271  0.1546 -0.1327
 2473W        W 5992   7.057   3.587  10.263  0.0658 -0.2503  0.1007
 2474W        W 5993   5.367   3.816  11.608  0.0225  0.1979 -0.0647
 2475W        W 5994   6.053   8.818   9.775  0.1551  0.1807  0.2189
 2476W        W 5995   9.612   8.220  12.485 -0.2944  0.0503  0.2062
 2477W        W 5996   3.096   7.016   8.714  0.1443 -0.1932 -0.1797
 2478W        W 5997   5.782   5.789   0.028  0.1042 -0.0090  0.0612
 2479W        W 5998   7.645   5.153   9.940  0.0407 -0.0258 -0.0863
 2480W        W 5999   1.441   2.297   0.330  0.1579  0.1355  0.0776
 2481W        W 6000   6.136   0.163  11.405 -0.0487  0.1968  0.0236
 2482W        W 6001   0.974   6.473  12.349 -0.0468  0.1016  0.0609
 2483W        W 6002   1.898   0.410   0.135 -0.1273 -0.2678 -0.1805
 2484W        W 6003   8.063   4.294   8.622  0.2238 -0.0404  0.2802
 2485W        W 6004   7.524   3.822  10.709 -0.1288  0.1121  0.1802
 2486W        W 6005   9.211   0.834  10.367  0.0602  0.1367  0.2204
 2487W        W 6006   5.352   3.598   8.929 -0.4733  0.1058 -0.0982
 2488W        W 6007   4.238   9.189   3.294 -0.1890 -0.0716  0.2334
 2489W        W 6008   4.443   8.697  11.000  0.0071 -0.2692 -0.0129
 2490W        W 6009   4.558   2.842  11.895  0.1761  0.1160 -0.0686
 2491W        W 6010   0.274   8.395   4.544 -0.1123  0.1293  0.0133
 2492W        W 6011   7.423   4.129  11.996  0.1964  0.0725 -0.4339
 2493W        W 6012   8.732   9.398   4.032 -0.3041  0.2216 -0.1177
 2494W        W 6013   0.962   8.091  12.015 -0.1597  0.0195  0.2477
 2495W        W 6014   4.653   5.862  10.481  0.0421 -0.0841  0.1873
 2496W        W 6015   2.575   8.040   2.489 -0.0271 -0.2604 -0.0050
 2497W        W 6016   3.962   4.479   2.532  0.1886  0.2669  0.1598
 2498W        W 6017   3.259   2.474  11.598  0.3204  0.0768 -0.1267
 2499W        W 6018   6.160   0.741   3.317 -0.1417  0.0347  0.1656
 2500W        W 6019   4.799   8.450   1.240  0.1751  0.0986 -0.4417
 2501W        W 6020   4.759   8.877  12.493 -0.4429  0.1730  0.1639
 2502W        W 6021   7.301   1.011   2.523  0.1683 -0.2021  0.0814
 2503W        W 6022   7.694   0.060  11.935 -0.2796 -0.0635  0.1266
 2504W        W 6023   7.999   1.043   9.574 -0.2124 -0.3526 -0.2251
 2505W        W 6024   5.746   5.530  11.291  0.1010  0.3933 -0.1685
 2506W        W 6025   8.953   8.197   1.531 -0.0873 -0.1987  0.2751
 2507W        W 6026   8.433   9.577   8.962 -0.1137 -0.1863 -0.0938
 2508W        W 6027   5.078   2.684  10.319  0.0375 -0.1000  0.0218
 2509W        W 6028   1.172   8.369   0.444 -0.2771  0.2732  0.0975
 2510W        W 6029   0.958   2.152  11.237  0.3329  0.1636  0.3637
 2511W        W 6030   1.915   2.280   2.715 -0.1843 -0.1506  0.1579
 2512W        W 6031   6.870   2.804  12.587  0.2484 -0.1057 -0.1491
 2513W        W 6032   0.583   1.113  10.321 -0.3092  0.2661 -0.1549
 2514W        W 6033   3.216   3.000  11.119 -0.1799  0.2596 -0.0429
 2515W        W 6034   9.404   9.398   1.203 -0.0903 -0.2717 -0.2823
 2516W        W 6035   9.365   9.176   3.863 -0.2082  0.1565  0.2259
 2517W        W 6036   6.501   7.136   3.519 -0.2060  0.1348  0.0343
 2518W        W 6037   7.226   3.087  11.614  0.0007 -0.1337  0.0329
 2519W        W 6038   5.805   2.112   9.327  0.0429 -0.3782  0.0298
 2520W        W 6039   7.161   4.817  10.520  0.0540 -0.1525 -0.1528
 2521W        W 6040   6.427   1.592   2.358 -0.1543  0.0829 -0.2069
 2522W        W 6041   5.193   7.469  11.974 -0.0790  0.4241 -0.0902
 2523W        W 6042   0.435   4.971   3.259 -0.1528 -0.1615 -0.1297
 2524W        W 6043   2.249   9.514   9.104 -0.0831  0.1531  0.2182
 2525W        W 6044   1.422   8.321   4.068  0.1500 -0.2770  0.0598
 2526W        W 6045   6.844   9.315   8.905  0.0105 -0.0396  0.0895
 2527W        W 6046   8.685   9.407   9.443  0.1383 -0.5618 -0.1764
 2528W        W 6047   7.612   5.248   0.025  0.1271 -0.1784  0.0698
 2529W        W 6048   0.100   7.283   1.181 -0.0379  0.4784 -0.1085
 2530W        W 6049   3.985   6.635   2.299 -0.1533 -0.1160  0.0794
 2531W        W 6050   9.444   4.848   4.200  0.1390 -0.5232 -0.2673
 2532W        W 6051   7.998   7.384   9.313 -0.1006  0.0305  0.1222
 2533W        W 6052   2.502   7.481  10.430 -0.2669  0.1392  0.0042
 2534W        W 6053   1.555   9.347   3.837 -0.0412 -0.2493 -0.3418
 2535W        W 6054   5.941   5.447  10.661  0.1709  0.0046  0.0264
 2536W        W 6055   1.492   1.286  12.488 -0.2868  0.1144  0.0213
 2537W        W 6056   0.450   1.664   1.586 -0.0580  0.1516 -0.0070
 2538W        W 6057   5.264   0.272   3.063  0.3697 -0.1080 -0.5133
 2539W        W 6058   3.343   4.260  11.997 -0.0347 -0.0101  0.0252
 2540W        W 6059   3.560   4.210   3.729 -0.1018  0.0074 -0.0513
 2541W        W 6060   2.815   2.641   1.598  0.0802  0.2066 -0.0231
 2542W        W 6061   9.132   3.499  11.153 -0.0813 -0.2465 -0.0437
 2543W        W 6062   6.547   6.100  10.212  0.0331 -0.2342  0.2857
 2544W        W 6063   5.404   8.543   9.759  0.3007  0.1944 -0.0109
 2545W        W 6064   1.895   6.672  12.092 -0.0289 -0.0335  0.5365
 2546W        W 6065   0.325   7.385  11.670  0.2509 -0.2885  0.0797
 2547W        W 6066   8.518   5.939   1.259 -0.3235 -0.0546 -0.1088
 2548W        W 6067   8.777   2.156  10.622  0.3155  0.0312  0.0437
 2549W        W 6068   6.928   8.690  11.338  0.3654  0.2253  0.2295
 2550W        W 6069   9.160   1.796  10.051  0.4898  0.1140  0.2032
 2551W        W 6070   9.382   0.743   0.807 -0.1527 -0.0651  0.0272
 2552W        W 6071   3.884   7.177   2.826 -0.1798  0.0701  0.0158
 2553W        W 6072   0.040   6.501   7.999  0.1574  0.0777  0.1650
 2554W        W 6073   3.284   9.595  11.517 -0.2857  0.0469 -0.0271
 2555W        W 6074   4.550   1.825   1.468  0.0638  0.0878 -0.1813
 2556W        W 6075   9.498   8.276   3.588 -0.1204  0.3882 -0.0606
 2557W        W 6076   2.335   6.776   1.781  0.1839 -0.3327  0.0924
 2558W        W 6077   3.615   3.699   9.320  0.3466 -0.0820 -0.2930
 2559W        W 6078   2.051   8.494   1.507 -0.0509  0.0727 -0.0275
 2560W        W 6079   2.455   0.842   0.948 -0.2302  0.1823  0.2848
 2561W        W 6080   2.715   5.843   2.904 -0.1312  0.0062  0.1840
 2562W        W 6081   8.659   6.736  12.000 -0.0903  0.1596  0.3256
 2563W        W 6082   5.468   8.913  12.270 -0.0835 -0.2291 -0.0080
 2564W        W 6083   8.483   8.601   3.613 -0.3103  0.0507 -0.0856
 2565W        W 6084   3.246   9.128   2.601 -0.2111  0.0003 -0.1329
 2566W        W 6085   7.090   0.766   1.225  0.0027  0.2413 -0.0018
 2567W        W 6086   1.152   8.748   0.748 -0.2027  0.0270 -0.2835
 2568W        W 6087   5.359   2.008   0.313 -0.0682  0.2082  0.2921
 2569W        W 6088   2.555   5.826   8.477 -0.1697 -0.1186 -0.1528
 2570W        W 6089   3.275   9.007   9.857  0.0012  0.0269  0.0508
 2571W        W 6090   0.605   3.419   3.363 -0.0219  0.0032 -0.0869
 2572W        W 6091   3.463   4.874  11.989  0.3419  0.2204  0.1755
 2573W        W 6092   5.796   1.853  11.210 -0.1739  0.3070 -0.0659
 2574W        W 6093   5.341   3.583   2.072 -0.3243 -0.0789  0.0720
 2575W        W 6094   2.786   0.506  10.984  0.1317 -0.0683  0.2309
 2576W        W 6095   5.323   8.098   1.949 -0.1994 -0.3971 -0.0211
 2577W        W 6096   7.368   1.565   0.755  0.0415 -0.1187  0.2073
 2578W        W 6097   5.889   1.878  10.503  0.3365  0.3053 -0.3775
 2579W        W 6098   7.617   4.540  11.827 -0.3537  0.5591  0.1454
 2580W        W 6099   3.350   4.216   9.992 -0.2281  0.2638  0.0452
 2581W        W 6100   1.648   5.858   0.199 -0.1614  0.1702  0.0427
 2582W        W 6101   7.569   0.349   8.884 -0.1446  0.1261  0.0019
 2583W        W 6102   2.159   5.871   8.202 -0.1306  0.0357  0.1488
 2584W        W 6103   2.297   0.460   2.595  0.1542 -0.1852  0.0441
 2585W        W 6104   5.006   4.829   3.563  0.2838 -0.3494 -0.2982
 2586W        W 6105   0.475   7.777   4.593 -0.1649 -0.1239 -0.1244
 2587W        W 6106   6.396   6.831   8.702 -0.1725  0.2816  0.0022
 2588W        W 6107   3.906   7.901  12.362 -0.0817 -0.0643  0.2846
 2589W        W 6108   9.227   4.536   0.294  0.2111 -0.1357  0.1251
 2590W        W 6109   4.085   5.436   1.882  0.3857  0.2955  0.0024
 2591W        W 6110   4.397   0.895   3.685 -0.0095 -0.2702  0.0455
 2592W        W 6111   4.380   9.599  11.573  0.1697 -0.1703 -0.0098
 2593W        W 6112   2.334   2.949   0.642 -0.2054 -0.3958  0.1977
 2594W        W 6113   6.784   9.379   0.128  0.3048 -0.0249 -0.2613
 2595W        W 6114   1.054   5.339   3.816  0.0162  0.1700 -0.2621
 2596W        W 6115   2.116   8.017   1.559  0.0706  0.1330 -0.2265
 2597W        W 6116   0.165   0.590   1.604 -0.3243  0.0776 -0.4631
 2598W        W 6117   5.660   8.816   9.462  0.0866  0.0028 -0.2660
 2599W        W 6118   8.996   3.825   4.198  0.4344  0.0028 -0.1004
 2600W        W 6119   7.424   6.579   3.546  0.0167 -0.1903  0.1455
 2601W        W 6120   4.535   6.316   9.471 -0.2187 -0.1731  0.1010
 2602W        W 6121   1.713   1.360   2.746  0.3964 -0.2380 -0.1941
 2603W        W 6122   1.037   6.022   2.679 -0.3770  0.0044 -0.0156
 2604W        W 6123   9.482   1.779   0.384 -0.2608  0.1026  0.1672
 2605W        W 6124   1.335   4.602   1.127  0.1795  0.3711 -0.3194
 2606W        W 6125   7.874   0.496   3.949  0.0483  0.2046 -0.1310
 2607W        W 6126   5.313   1.762   9.269 -0.0065  0.1103 -0.0738
 2608W        W 6127   7.913   9.274   3.855 -0.0622  0.4094  0.2030
 2609W        W 6128   6.146   4.158   9.824  0.0488 -0.3201  0.0635
 2610W        W 6129   6.589   0.421   9.560 -0.1056 -0.2830 -0.2198
 2611W        W 6130   8.487   5.304  11.962  0.5023  0.2213 -0.2414
 2612W        W 6131   1.470   3.945  10.622 -0.1798 -0.0828  0.1012
 2613W        W 6132   8.910   2.794  10.074  0.0049  0.2686 -0.3134
 2614W        W 6133   8.517   6.292   3.960 -0.0178  0.2354 -0.0885
 2615W        W 6134   5.448   2.262   0.709 -0.0259 -0.1402  0.2290
 2616W        W 6135   8.499   4.977  12.596 -0.1668 -0.0888  0.2391
 2617W        W 6136   6.638   0.064   2.603  0.2627  0.2926  0.2363
 2618W        W 6137   4.789   0.605   1.739  0.0886  0.1347  0.0583
 2619W        W 6138   2.932   5.939   0.491  0.0185 -0.4144 -0.0783
 2620W        W 6139   2.572   7.616   3.958  0.1932  0.1044 -0.1050
 2621W        W 6140   9.286   5.182  10.972  0.1698  0.2369  0.2109
 2622W        W 6141   3.221   5.159   1.046 -0.1558  0.0093  0.1871
 2623W        W 6142   5.550   4.021  12.062 -0.0337  0.2022  0.1857
 2624W        W 6143   0.880   9.648   3.654  0.0997  0.1750 -0.3522
 2625W        W 6144   4.957   9.054   1.443 -0.0042  0.1670  0.0969
 2626W        W 6145   5.676   0.162   2.833  0.2067  0.0654  0.1214
 2627W        W 6146   4.685   5.379   9.285  0.1531 -0.1107 -0.1417
 2628W        W 6147   6.830   7.505   0.736  0.1183  0.1599  0.2011
 2629W        W 6148   1.471   0.126   1.520 -0.0307 -0.0079  0.2080
 2630W        W 6149   6.472   1.689   3.620  0.2775 -0.0418  0.0188
 2631W        W 6150   4.253   6.126   2.450 -0.2645  0.0419 -0.2317
 2632W        W 6151   3.131   3.255  11.942 -0.0438  0.1817  0.1401
 2633W        W 6152   5.536   5.961   2.948 -0.1081  0.1863 -0.0844
 2634W        W 6153   0.759   3.072   9.892  0.0230  0.1330 -0.2294
 2635W        W 6154   0.884   8.519   2.063 -0.2675  0.1237  0.2308
 2636W        W 6155   2.959   4.151  10.427  0.2930 -0.0005 -0.2370
 2637W        W 6156   6.400   6.621  10.248 -0.0443 -0.2107 -0.0601
 2638W        W 6157   7.136   2.593  11.122 -0.1548 -0.0012 -0.3988
 2639W        W 6158   7.955   3.904  11.898  0.4067 -0.1023 -0.0920
 2640W        W 6159   4.120   1.409   9.903 -0.1067  0.0044  0.2741
 2641W        W 6160   7.161   3.533   8.865 -0.0782 -0.2174 -0.2383
 2642W        W 6161   4.580   9.456  12.599 -0.0210  0.0471  0.4443
 2643W        W 6162   4.675   8.638   1.739 -0.2331  0.0102  0.2697
 2644W        W 6163   1.270   6.376   9.248 -0.2604  0.0538  0.1706
 2645W        W 6164   8.640   7.044   3.840  0.0205 -0.1043  0.1705
 2646W        W 6165   6.400   6.104   1.557 -0.0084  0.0510  0.1078
 2647W        W 6166   1.825   2.672   2.951 -0.2953 -0.4185  0.0441
 2648W        W 6167   7.771   8.040   3.953  0.0981 -0.0738  0.1771
 2649W        W 6168   6.862   6.872  10.180 -0.1330 -0.0241  0.2329
 2650W        W 6169   9.665   1.715   2.801 -0.4256  0.1977 -0.0286
 2651W        W 6170   4.893   7.971   1.132 -0.2452  0.3047  0.0795
 2652W        W 6171   7.092   7.974   2.408 -0.0254 -0.0864 -0.0644
 2653W        W 6172   6.451   8.606  10.512  0.1710  0.1972 -0.1642
 2654W        W 6173   2.386   7.274  11.921  0.1237  0.1248 -0.3612
 2655W        W 6174   9.293   0.379  10.622  0.2132 -0.0755 -0.0617
 2656W        W 6175   8.445   3.675  10.671 -0.1052  0.2002  0.0105
 2657W        W 6176   9.343   6.131  11.273  0.0560 -0.1394 -0.0777
 2658W        W 6177   6.008   4.732   2.525 -0.0894  0.1780  0.0936
 2659W        W 6178   6.093   7.856   4.252  0.0418  0.1020 -0.1734
 2660W        W 6179   3.961   8.599  10.998 -0.1053  0.4643  0.2558
 2661W        W 6180   2.651   0.176   1.518  0.0144  0.1389 -0.1829
 2662W        W 6181   7.469   7.778  12.027  0.2902  0.2179  0.1432
 2663W        W 6182   0.477   2.745   3.170  0.0351 -0.1900  0.0255
 2664W        W 6183   5.447   5.078  11.620  0.1242  0.1271  0.2747
 2665W        W 6184   2.376   0.568   8.522  0.2302 -0.0682 -0.3739
 2666W        W 6185   6.541   2.120  12.330  0.2494  0.3147  0.2210
 2667W        W 6186   3.566   7.254  10.596  0.1588  0.0596  0.0578
 2668W        W 6187   3.051   3.881  11.728  0.0321 -0.1278  0.4476
 2669W        W 6188   7.811   2.391   1.554 -0.2337 -0.0888  0.2540
 2670W        W 6189   4.681   7.989  10.597  0.3213 -0.1248 -0.0740
 2671W        W 6190   0.480   9.123  11.462 -0.0085  0.2814  0.2544
 2672W        W 6191   3.437   7.928   2.931 -0.0098 -0.1783 -0.0642
 2673W        W 6192   8.593   7.363   2.202 -0.0679  0.0621  0.0103
 2674W        W 6193   2.559   9.479   3.063 -0.1799  0.3808 -0.2450
 2675W        W 6194   6.466   9.470  11.279 -0.0102 -0.1151 -0.2132
 2676W        W 6195   2.932   5.068   9.011  0.0831 -0.0130  0.1576
 2677W        W 6196   5.693   2.005   3.522 -0.1519 -0.0955  0.0413
 2678W        W 6197   5.703   4.075   2.877  0.1671  0.1822  0.0248
 2679W        W 6198   1.923   8.332   1.983  0.1992 -0.2417  0.0404
 2680W        W 6199   8.932   6.740   1.666 -0.0921  0.0302 -0.0743
 2681W        W 6200   8.987   2.452   8.009  0.0750  0.1956 -0.0804
 2682W        W 6201   4.665   2.827  10.798  0.2780 -0.0410 -0.2247
 2683W        W 6202   4.032   0.882   2.907 -0.1948  0.1978  0.0031
 2684W        W 6203   1.155   4.734   9.556 -0.1491 -0.4105 -0.3757
 2685W        W 6204   9.529   0.567  11.972 -0.5598  0.1553 -0.1043
 2686W        W 6205   3.718   8.052   9.437  0.2374 -0.3107 -0.0857
 2687W        W 6206   0.273   9.075  12.322  0.1151  0.1277 -0.4377
 2688W        W 6207   8.243   9.418   4.299  0.0611  0.0506  0.0945
 2689W        W 6208   1.805   6.674   1.597  0.2207 -0.0248 -0.0463
 2690W        W 6209   7.994   6.663  10.295  0.1482  0.3083  0.0286
 2691W        W 6210   6.756   0.499  11.981 -0.0736 -0.1895  0.2299
 2692W        W 6211   8.209   3.092   0.089 -0.1440 -0.1898 -0.3129
 2693W        W 6212   3.031   8.209   2.156  0.0073  0.0778  0.2120
 2694W        W 6213   2.109   5.929   8.935  0.1748 -0.0595  0.0618
 2695W        W 6214   0.111   4.256   0.502 -0.0090  0.0369 -0.1688
 2696W        W 6215   8.891   0.430   3.093 -0.1272  0.0214  0.1036
 2697W        W 6216   9.258   1.318   3.059 -0.0978  0.1617  0.1055
 2698W        W 6217   6.167   6.471  12.061 -0.2470  0.0991 -0.0794
 2699W        W 6218   7.978   6.696   8.058 -0.0707 -0.0483 -0.2412
 2700W        W 6219   3.096   9.271   2.046 -0.3976  0.3279  0.3026
 2701W        W 6220   8.582   2.366  10.144  0.2037 -0.3129 -0.1115
 2702W        W 6221   1.343   2.955   9.975 -0.2556  0.1448  0.2169
 2703W        W 6222   9.149   7.169   3.607  0.2868 -0.2043 -0.0123
 2704W        W 6223   5.798   8.589  11.112  0.0751 -0.5020  0.0450
 2705W        W 6224   4.323   7.801  11.982 -0.0906 -0.3862  0.1334
 2706W        W 6225   3.031   2.172  11.259  0.1919  0.1478  0.1730
 2707W        W 6226   5.073   5.472   3.996  0.0134  0.2590  0.0188
 2708W        W 6227   1.261   8.449  11.825 -0.0143 -0.1047 -0.2744
 2709W        W 6228   5.009   7.044   8.916  0.0268 -0.0115 -0.3194
 2710W        W 6229   9.210   1.654   9.564  0.0439 -0.1843 -0.1204
 2711W        W 6230   7.267   2.602   0.868 -0.1641  0.0010 -0.0529
 2712W        W 6231   4.829   9.069   0.844  0.0553 -0.2447  0.3920
 2713W        W 6232   9.450   6.659  11.351  0.0310 -0.0334 -0.1163
 2714W        W 6233   5.711   0.535   3.201  0.1419  0.0155 -0.1525
 2715W        W 6234   7.642   5.706   3.483  0.0697 -0.2154 -0.2725
 2716W        W 6235   3.459   8.105  12.294  0.1946  0.0593 -0.1037
 2717W        W 6236   2.280   6.114   2.436 -0.0036  0.2589 -0.1386
 2718W        W 6237   5.462   4.354  11.695 -0.3565  0.1922 -0.3745
 2719W        W 6238   0.568   0.671   1.903  0.3944 -0.0135 -0.0991
 2720W        W 6239   8.711   9.011  12.027  0.1082  0.3698 -0.4014
 2721W        W 6240   5.375   6.842   3.881 -0.2043  0.1846 -0.0169
 2722W        W 6241   5.977   7.974   0.065 -0.1844 -0.1646 -0.3091
 2723W        W 6242   4.256   8.266  10.683  0.0401  0.0336 -0.1331
 2724W        W 6243   9.475   3.463   9.166 -0.1142  0.1449 -0.2443
 2725W        W 6244   7.823   0.593   8.408 -0.1155  0.1018 -0.0674
 2726W        W 6245   8.843   0.448  10.237  0.1991  0.0400  0.0968
 2727W        W 6246   5.911   9.571   3.982 -0.0693  0.1063  0.2075
 2728W        W 6247   4.552   4.886  10.851  0.2286 -0.1956  0.2755
 2729W        W 6248   8.154   5.085   3.485 -0.1510  0.0016  0.1357
 2730W        W 6249   1.156   7.901   3.356  0.1982  0.3422  0.1818
 2731W        W 6250   9.439   3.391   3.532  0.2563 -0.1360  0.2469
 2732W        W 6251   1.725   3.182   1.636  0.0960 -0.1006  0.1155
 2733W        W 6252   4.137   4.078   3.362 -0.0805 -0.0445  0.0919
 2734W        W 6253   9.556   5.863   1.300  0.1677  0.1383 -0.1557
 2735W        W 6254   1.940   3.543   3.040 -0.0233  0.0171  0.1016
 2736W        W 6255   3.638   9.016  10.781  0.0572  0.1801  0.1042
 2737W        W 6256   2.600   4.570  10.515  0.2779  0.0184 -0.0385
 2738W        W 6257   1.142   4.824   3.675 -0.2118 -0.0856  0.1808
 2739W        W 6258   7.710   0.033   9.355  0.0034 -0.0993 -0.0016
 2740W        W 6259   9.031   5.164   2.002 -0.0484 -0.0412 -0.3403
 2741W        W 6260   3.007   7.620  11.870 -0.0628  0.0572 -0.1108
 2742W        W 6261   3.273   0.570   8.665  0.0119  0.0596 -0.1618
 2743W        W 6262   4.762   0.769   1.197 -0.3870 -0.0236  0.0359
 2744W        W 6263   0.604   7.066   1.302 -0.1397  0.0824 -0.0874
 2745W        W 6264   3.557   0.684  10.120 -0.1177  0.0107  0.0755
 2746W        W 6265   0.209   7.617   2.545  0.1872  0.3141  0.0337
 2747W        W 6266   0.150   4.145   8.934 -0.1147 -0.2089  0.2293
 2748W        W 6267   3.211   6.683   9.122 -0.4002  0.1261 -0.1582
 2749W        W 6268   0.160   9.605  12.445 -0.0354 -0.0560  0.0101
 2750W        W 6269   4.445   9.454   2.104 -0.0605 -0.0373  0.1346
 2751W        W 6270   3.300   4.148   8.498  0.0505 -0.0885 -0.4108
 2752W        W 6271   2.030   3.972   3.517 -0.0184 -0.0132 -0.1464
 2753W        W 6272   4.783   6.070   4.033 -0.0986  0.0768  0.5027
 2754W        W 6273   3.691   4.309   0.517  0.2189 -0.2970  0.2695
 2755W        W 6274   6.781   4.770  11.659  0.0360  0.0136  0.1546
 2756W        W 6275   6.035   2.948  12.149  0.3112  0.0768  0.0139
 2757W        W 6276   8.113   6.606  10.828 -0.1041  0.2466 -0.3386
 2758W        W 6277   0.523   7.588   0.445  0.0453 -0.0591 -0.0419
 2759W        W 6278   9.283   9.508   1.754 -0.0758  0.0704  0.0834
 2760W        W 6279   1.302   6.819   0.672 -0.3084 -0.1329  0.0336
 2761W        W 6280   6.483   4.151   3.564  0.4269  0.2598 -0.2399
 2762W        W 6281   6.926   6.739   8.948 -0.0506 -0.0790 -0.0405
 2763W        W 6282   5.069   4.223  12.018  0.1428  0.1962 -0.1445
 2764W        W 6283   8.044   6.757  11.292 -0.0678 -0.0416  0.1673
 2765W        W 6284   2.031   5.812   3.652 -0.0651 -0.0602  0.2825
 2766W        W 6285   0.794   6.765   9.418  0.2396 -0.0821 -0.0297
 2767W        W 6286   6.500   6.024  12.030 -0.0736  0.0020  0.0247
 2768W        W 6287   9.512   7.753   0.234  0.1136 -0.1529  0.4529
 2769W        W 6288   8.974   8.936   9.460  0.1772  0.0366  0.0143
 2770W        W 6289   0.667   7.978   0.985  0.2239 -0.1546  0.1072
 2771W        W 6290   5.844   6.721   1.415  0.2853 -0.1653  0.0326
 2772W        W 6291   2.540   8.666  12.036 -0.1585  0.2987 -0.1170
 2773W        W 6292   6.035   8.858  12.572 -0.0766  0.2185  0.1732
 2774W        W 6293   7.911   4.763   8.905  0.0817 -0.0352 -0.1811
 2775W        W 6294   4.378   6.491   9.034 -0.0072 -0.1455  0.2208
 2776W        W 6295   6.449   8.505  11.324  0.0231 -0.0068  0.1969
 2777W        W 6296   1.597   4.652   9.346 -0.0644  0.2228 -0.3700
 2778W        W 6297   0.763   6.608   9.951  0.2830  0.2853 -0.1457
 2779W        W 6298   8.254   4.906  11.720 -0.1331  0.1689  0.3280
 2780W        W 6299   9.253   7.340   0.952 -0.3524 -0.2817 -0.0605
 2781W        W 6300   3.667   8.019   3.448  0.2221 -0.2825  0.2296
 2782W        W 6301   8.580   5.315   8.656 -0.1177 -0.0385 -0.2412
 2783W        W 6302   5.954   7.773   0.614  0.4635 -0.0034 -0.2055
 2784W        W 6303   9.297   2.767   4.645  0.0612 -0.0254  0.2042
 2785W        W 6304   9.342   4.135   9.785 -0.2019  0.1254 -0.1020
 2786W        W 6305   2.706   5.226   3.698  0.1158  0.1830  0.3933
 2787W        W 6306   2.910   7.894  10.235  0.1003 -0.0354  0.2383
 2788W        W 6307   4.863   6.058   9.958  0.0096  0.2035  0.0834
 2789W        W 6308   2.512   9.252   3.521  0.1046  0.1076  0.2404
 2790W        W 6309   3.879   9.617   0.858 -0.0737 -0.0849  0.2102
 2791W        W 6310   3.407   2.036   0.505 -0.0016  0.5597 -0.4051
 2792W        W 6311   2.284   8.878   2.524 -0.2098  0.3117  0.3858
 2793W        W 6312   7.709   7.116  12.554 -0.0037 -0.1400  0.2974
 2794W        W 6313   6.026   7.993   8.671  0.0781 -0.1666  0.2879
 2795W        W 6314   8.596   2.929   0.767  0.2427  0.1351  0.1587
 2796W        W 6315   1.007   3.460   2.510  0.2422  0.0179 -0.1658
 2797W        W 6316   3.236   0.732  11.780  0.1406 -0.1672 -0.2269
 2798W        W 6317   8.082   1.792   0.223  0.3049  0.4057 -0.2223
 2799W        W 6318   7.133   4.451   9.623  0.1341  0.1092  0.1488
 2800W        W 6319   7.076   6.415  10.356  0.0204  0.0920 -0.1147
 2801W        W 6320   6.010   6.907   4.513 -0.3485 -0.3045 -0.1389
 2802W        W 6321   0.603   4.418   0.531 -0.2828 -0.2367 -0.0356
 2803W        W 6322   2.270   0.129  12.513  0.2201  0.0101  0.2000
 2804W        W 6323   0.955   2.626   9.901  0.1462 -0.0961  0.2701
 2805W        W 6324   3.564   0.294   0.753  0.0161  0.3432  0.2044
 2806W        W 6325   8.189   1.565   1.484 -0.0905 -0.0564 -0.3263
 2807W        W 6326   1.455   3.114   3.276  0.0024  0.1345  0.1424
 2808W        W 6327   0.565   1.747   2.650 -0.0089 -0.2634  0.2447
 2809W        W 6328   5.533   8.788   1.175  0.2226  0.0843 -0.1922
 2810W        W 6329   2.539   1.035   0.478  0.0886  0.1791  0.0271
 2811W        W 6330   9.564   3.802   3.904  0.0910 -0.0130  0.0515
 2812W        W 6331   3.733   4.558   9.893 -0.1038  0.0130 -0.1639
 2813W        W 6332   0.790   7.482  10.919  0.2047 -0.2904  0.2551
 2814W        W 6333   7.018   0.705   2.124  0.0686  0.3894  0.3092
 2815W        W 6334   4.959   6.176   9.215 -0.1761 -0.2253 -0.2991
 2816W        W 6335   6.180   3.568   1.377 -0.3171  0.0471 -0.3551
 2817W        W 6336   8.598   0.034   0.506  0.0995  0.0151 -0.1909
 2818W        W 6337   3.165   7.338   1.025 -0.0421 -0.3758 -0.1684
 2819W        W 6338   0.282   8.448   0.190 -0.2164  0.4030  0.0377
 2820W        W 6339   1.799   9.195   0.292  0.0452 -0.1111 -0.2367
 2821W        W 6340   6.714   1.234  12.447 -0.0921  0.3340 -0.0853
 2822W        W 6341   7.075   3.042  11.140 -0.0036 -0.0731 -0.2626
 2823W        W 6342   8.964   6.929   2.234  0.0841 -0.0322 -0.0665
 2824W        W 6343   2.897   3.592   2.885  0.1062 -0.0659  0.0517
 2825W        W 6344   3.601   3.233  12.201  0.2042 -0.0341 -0.0512
 2826W        W 6345   1.491   7.300   2.835 -0.1196 -0.2026  0.0122
 2827W        W 6346   9.373   7.708  12.267  0.0486  0.0054 -0.0017
 2828W        W 6347   0.295   1.746  11.255 -0.0774 -0.0296 -0.1346
 2829W        W 6348   0.118   6.239   4.028 -0.0529 -0.4119 -0.1530
 2830W        W 6349   8.366   6.951   0.845  0.0008  0.1732 -0.1780
 2831W        W 6350   6.834   7.403   1.713  0.0208 -0.0846 -0.1666
 2832W        W 6351   7.007   9.593   3.623  0.0505 -0.1483  0.3450
 2833W        W 6352   0.917   1.820   1.650 -0.0200 -0.6138  0.3777
 2834W        W 6353   7.916   5.619   0.510 -0.1355 -0.3358 -0.2829
 2835W        W 6354   8.966   9.163  10.364  0.1995  0.1609 -0.5312
 2836W        W 6355   6.249   3.495   8.690 -0.2130 -0.2702 -0.3625
 2837W        W 6356   5.166   2.524   1.191 -0.0805  0.0067 -0.0893
 2838W        W 6357   6.487   2.268   0.530  0.2459 -0.0648  0.1211
 2839W        W 6358   1.150   3.109  10.438 -0.1168 -0.0528  0.2671
 2840W        W 6359   7.182   7.193   9.041  0.0146 -0.3033  0.1871
 2841W        W 6360   7.818   2.149  10.246 -0.2448  0.0344  0.1295
 2842W        W 6361   7.460   6.206   8.159 -0.0436  0.3193 -0.1181
 2843W        W 6362   1.913   9.362   9.831  0.1905  0.2170  0.1889
 2844W        W 6363   8.673   8.508   3.165  0.1236  0.1232 -0.1174
 2845W        W 6364   8.800   1.451   9.337 -0.0897  0.3681 -0.0850
 2846W        W 6365   7.629   4.011  10.036  0.0637  0.2554  0.0246
 2847W        W 6366   2.201   4.452   2.968 -0.0959 -0.0633 -0.0405
 2848W        W 6367   7.243   3.100  10.209  0.2858 -0.2434  0.1206
 2849W        W 6368   6.102   1.805   1.131  0.1403  0.0169 -0.3075
 2850W        W 6369   4.371   2.402   9.516  0.1549  0.0420  0.2752
 2851W        W 6370   1.267   5.575  12.617 -0.1216  0.3267  0.1177
 2852W        W 6371   0.947   2.332  10.328 -0.2922 -0.1192  0.2624
 2853W        W 6372   3.254   1.301  12.374 -0.1042  0.3428 -0.0524
 2854W        W 6373   4.949   2.374   8.782  0.1232  0.1409 -0.1810
 2855W        W 6374   1.094   5.393   4.261 -0.1819 -0.2847 -0.2786
 2856W        W 6375   0.981   1.092   3.299  0.1457 -0.0291 -0.3955
 2857W        W 6376   2.370   5.546   0.816 -0.3721 -0.1812 -0.0043
 2858W        W 6377   1.208   4.700   2.012  0.0547 -0.0596 -0.2271
 2859W        W 6378   5.349   1.182   2.901 -0.2964 -0.1777 -0.0990
 2860W        W 6379   6.266   7.634  10.483  0.4188 -0.0636 -0.2862
 2861W        W 6380   7.080   0.172   9.308 -0.0582  0.0199  0.3089
 2862W        W 6381   6.967   0.121   9.749  0.1851 -0.0781  0.0313
 2863W        W 6382   3.498   3.965   3.280  0.1703  0.1239 -0.2815
 2864W        W 6383   0.647   3.718   1.374  0.0698  0.2643  0.1785
 2865W        W 6384   0.215   7.408   0.107 -0.1071  0.0902  0.1026
 2866W        W 6385   5.815   0.647  12.506 -0.0379 -0.1555  0.1407
 2867W        W 6386   6.899   8.724  10.003 -0.0687  0.0395 -0.0091
 2868W        W 6387   6.795   7.526   9.085  0.1542 -0.1171 -0.0554
 2869W        W 6388   0.225   6.492   3.621 -0.0804  0.1569 -0.1179
 2870W        W 6389   2.887   7.512   8.741 -0.2562 -0.1322  0.1199
 2871W        W 6390   8.111   7.974   8.556 -0.1836 -0.1614  0.0725
 2872W        W 6391   1.775   4.864  12.574  0.0794 -0.1000  0.0833
 2873W        W 6392   0.885   0.477  12.486 -0.1970  0.1532  0.1724
 2874W        W 6393   9.146   1.497   8.795 -0.0979 -0.1076 -0.0031
 2875W        W 6394   2.550   6.512   2.230 -0.0057 -0.0133 -0.0305
 2876W        W 6395   3.483   9.211   3.980  0.2156  0.0608 -0.1758
 2877W        W 6396   0.994   9.174  12.301 -0.3408 -0.0748 -0.0031
 2878W        W 6397   6.962   5.007  11.251 -0.2331 -0.0916 -0.0007
 2879W        W 6398   8.086   8.968   9.001  0.1658 -0.1514  0.1484
 2880W        W 6399   4.967   6.818  11.370 -0.2751  0.0541  0.1263
 2881W        W 6400   2.862   3.056   0.708 -0.0389 -0.0456 -0.0462
 2882W        W 6401   8.237   5.252   8.278 -0.0881 -0.5303 -0.2454
 2883W        W 6402   4.887   6.161  12.077  0.0253  0.0393 -0.0636
 2884W        W 6403   9.276   1.830   4.018 -0.1115 -0.1450  0.0165
 2885W        W 6404   6.547   8.479   8.581  0.2379 -0.1021  0.3968
 2886W        W 6405   3.056   7.701  11.153 -0.1302  0.0296 -0.1225
 2887W        W 6406   3.414   8.644  11.104  0.0644  0.0900  0.4518
 2888W        W 6407   3.989   3.158  10.098 -0.0434  0.0005 -0.0029
 2889W        W 6408   7.221   6.717   1.543 -0.3689  0.1268 -0.2503
 2890W        W 6409   8.127   2.018   9.747 -0.0123  0.0864  0.1317
 2891W        W 6410   1.295   0.335   2.409  0.1702  0.0883  0.1227
 2892W        W 6411   4.469   6.522   4.065 -0.1599  0.0419  0.0103
 2893W        W 6412   0.295   7.949   0.152 -0.3480  0.1656 -0.0792
 2894W        W 6413   7.480   6.744   3.032 -0.3899  0.0790 -0.1162
 2895W        W 6414   7.723   1.482   1.690  0.2295  0.2239  0.0469
 2896W        W 6415   1.707   0.875   3.538  0.0724 -0.2019  0.2532
 2897W        W 6416   2.089   7.613   3.196 -0.0460  0.0723  0.1873
 2898W        W 6417   3.724   7.285  11.263 -0.2456  0.0318  0.1245
 2899W        W 6418   5.058   5.883   1.127 -0.0678  0.0094 -0.1506
 2900W        W 6419   4.744   6.553   1.693  0.2022  0.1965 -0.1456
 2901W        W 6420   6.579   6.326   3.932 -0.0869  0.0355 -0.0840
 2902W        W 6421   6.924   0.810  12.322  0.2087 -0.1078  0.0860
 2903W        W 6422   7.427   2.108   2.372  0.2434  0.1214  0.0411
 2904W        W 6423   8.413   5.106   1.239  0.0874  0.0500  0.1020
 2905W        W 6424   8.759   6.842   3.369 -0.2901  0.1451 -0.2446
 2906W        W 6425   5.498   4.935   3.741  0.1290 -0.0765 -0.4030
 2907W        W 6426   2.315   7.228   2.721 -0.0767 -0.0491  0.2359
 2908W        W 6427   6.242   7.901   2.827 -0.1006 -0.0098  0.1985
 2909W        W 6428   3.775   2.739  10.234 -0.1215  0.1504  0.0001
 2910W        W 6429   1.776   6.241   9.108  0.0314  0.1461  0.1049
 2911W        W 6430   4.487   5.675   0.725  0.0831 -0.0088  0.0284
 2912W        W 6431   1.902   2.466  10.306 -0.2347 -0.1875  0.1200
 2913W        W 6432   6.952   8.247   8.848 -0.0495  0.0545 -0.3761
 2914W        W 6433   5.589   2.628   9.456  0.0375  0.1328 -0.0126
 2915W        W 6434   7.236   7.234   9.852 -0.0742 -0.1000  0.1054
 2916W        W 6435   6.522   8.267   2.787  0.0968 -0.0942  0.0633
 2917W        W 6436   8.693   2.237   1.636 -0.1715 -0.1139 -0.0936
 2918W        W 6437   5.278   6.912   3.002  0.0369  0.0542 -0.1181
 2919W        W 6438   0.840   6.173   1.274  0.2976  0.0075 -0.0710
 2920W        W 6439   0.557   4.003   9.850  0.0276 -0.2673 -0.4026
 2921W        W 6440   5.892   2.111  12.375  0.1397 -0.0957  0.1931
 2922W        W 6441   0.742   2.324  12.313  0.0877  0.2989 -0.1735
 2923W        W 6442   6.766   8.345   2.339 -0.0050 -0.1222  0.3220
 2924W        W 6443   8.649   5.316   2.676  0.0322  0.1009 -0.0828
 2925W        W 6444   5.723   1.661  11.656  0.0471  0.0825  0.3661
 2926W        W 6445   6.703   5.687   4.327  0.0085  0.0479  0.3135
 2927W        W 6446   6.203   5.005   2.040  0.2466 -0.2732 -0.2682
 2928W        W 6447   2.499   7.244   1.769  0.0455  0.0710 -0.2285
 2929W        W 6448   0.815   5.807   3.516 -0.1238  0.4128 -0.3089
 2930W        W 6449   5.994   8.706   2.369  0.2175 -0.0758 -0.0815
 2931W        W 6450   8.646   2.546   2.061  0.1037  0.0158  0.1661
 2932W        W 6451   8.740   8.701   0.652 -0.2150  0.2032  0.0237
 2933W        W 6452   8.437   6.225  11.583 -0.0487 -0.0184 -0.0390
 2934W        W 6453   8.360   9.250   2.929 -0.4571 -0.1631 -0.0664
 2935W        W 6454   5.036   1.678   3.690  0.2071  0.0798 -0.4644
 2936W        W 6455   7.651   7.550  10.004 -0.0199 -0.1508  0.1290
 2937W        W 6456   1.599   8.417   0.033  0.1358 -0.0871 -0.0317
 2938W        W 6457   7.749   3.663   9.697 -0.1922  0.0543  0.1937
 2939W        W 6458   3.604   6.387   9.398 -0.2982 -0.0930  0.2217
 2940W        W 6459   6.991   2.341   2.653  0.0752  0.3473  0.3513
 2941W        W 6460   7.056   2.278   3.170 -0.1443  0.1906  0.0751
 2942W        W 6461   2.074   6.643   2.253  0.0544  0.1335 -0.0936
 2943W        W 6462   8.596   1.015  12.099  0.2925 -0.0987 -0.1644
 2944W        W 6463   9.597   8.194  10.670  0.1651 -0.1104  0.2536
 2945W        W 6464   8.918   5.221   9.679  0.0904 -0.1365 -0.1430
 2946W        W 6465   2.518   8.766   0.221  0.1004  0.2105 -0.0152
 2947W        W 6466   6.678   7.624  10.883 -0.0099 -0.0018 -0.0672
 2948W        W 6467   7.716   9.549   0.166  0.0261  0.0679 -0.0235
 2949W        W 6468   7.125   5.443   8.629  0.0385  0.1518  0.1803
 2950W        W 6469   6.191   3.063   0.050 -0.0072  0.0008 -0.2722
 2951W        W 6470   6.404   2.049  10.584  0.3176  0.2540  0.4063
 2952W        W 6471   6.599   3.868   1.313  0.0622  0.0348 -0.1605
 2953W        W 6472   8.136   6.607   1.744  0.0571 -0.0638 -0.2641
 2954W        W 6473   7.310   4.495   2.796 -0.5345 -0.2656  0.2677
 2955W        W 6474   5.233   7.508  12.576 -0.0555  0.2166  0.1635
 2956W        W 6475   6.221   8.351  12.439 -0.1825 -0.0537  0.1100
 2957W        W 6476   5.479   6.521   1.061  0.0522 -0.0961  0.2672
 2958W        W 6477   1.528   4.702   0.468 -0.2274 -0.0726 -0.0953
 2959W        W 6478   6.847   8.301  10.309 -0.0670  0.0973 -0.1111
 2960W        W 6479   0.464   0.763  10.999  0.2669 -0.0213 -0.0821
 2961W        W 6480   0.140   7.028   4.314 -0.1481 -0.0015 -0.0668
 2962W        W 6481   5.049   6.408  11.644  0.2267 -0.0892  0.0619
 2963W        W 6482   2.363   5.261   1.757 -0.1746 -0.1138 -0.1506
 2964W        W 6483   2.202   2.226  10.584 -0.1422 -0.0107 -0.2954
 2965W        W 6484   7.396   2.856  10.783 -0.1292  0.0631 -0.0571
 2966W        W 6485   1.470   4.686   3.235  0.0851 -0.0790 -0.1464
 2967W        W 6486   6.393   3.977  11.788 -0.0825  0.0682  0.1979
 2968W        W 6487   8.125   0.479   2.642 -0.0418  0.0502  0.1321
 2969W        W 6488   3.722   3.497   0.477  0.2925  0.0008 -0.3912
 2970W        W 6489   8.209   4.835   3.923  0.1361 -0.0271 -0.4278
 2971W        W 6490   9.205   3.921  10.900 -0.2419 -0.0531  0.0092
 2972W        W 6491   6.997   6.656   2.135  0.0944 -0.1110 -0.2291
 2973W        W 6492   6.841   5.842   2.839  0.0856 -0.1732  0.2334
 2974W        W 6493   4.979   5.271   9.670 -0.2166  0.1317  0.1998
 2975W        W 6494   1.135   6.952   3.825  0.0017  0.0564 -0.0177
 2976W        W 6495   9.595   8.761  11.480  0.0878 -0.1009 -0.0511
 2977W        W 6496   4.966   0.579  10.111 -0.2895  0.0644 -0.0603
 2978W        W 6497   1.891   1.677   1.302 -0.0197  0.5113  0.0549
 2979W        W 6498   2.748   1.373  12.295 -0.1018 -0.0166  0.2988
 2980W        W 6499   6.651   0.564  10.039  0.0267 -0.0736  0.1246
 2981W        W 6500   7.581   8.023   9.886 -0.1648  0.3514  0.0491
 2982W        W 6501   5.507   4.124   1.826 -0.0797 -0.3344 -0.0405
 2983W        W 6502   5.417   2.217   9.740  0.1320  0.2804  0.2519
 2984W        W 6503   0.362   4.001  11.234 -0.2231 -0.3207 -0.0565
 2985W        W 6504   6.236   0.555  11.717 -0.2126  0.4673  0.0592
 2986W        W 6505   8.694   6.975   9.743 -0.1366  0.0970  0.4516
 2987W        W 6506   7.940   2.538   8.628  0.0354 -0.1011 -0.0594
 2988W        W 6507   2.089   6.816   9.690  0.0643 -0.1762  0.0613
 2989W        W 6508   6.087   2.892   9.286  0.2330  0.2371 -0.1206
 2990W        W 6509   8.013   8.051  10.263  0.2119 -0.2979  0.2418
 2991W        W 6510   3.494   6.315   3.031 -0.2580 -0.1216  0.1238
 2992W        W 6511   7.371   6.103   3.638 -0.0771  0.1713 -0.0193
 2993W        W 6512   0.456   3.568   2.370  0.0463  0.1593 -0.0194
 2994W        W 6513   1.978   5.352   2.655 -0.0044  0.2683 -0.0177
 2995W        W 6514   5.836   3.187  10.134  0.2587  0.1324 -0.0377
 2996W        W 6515   3.753   1.161   9.175  0.1383 -0.0561  0.1037
 2997W        W 6516   9.355   5.792  11.673 -0.3892 -0.0562  0.2201
 2998W        W 6517   3.049   4.349   1.069 -0.1970  0.0187 -0.0067
 2999W        W 6518   5.639   6.802  10.307 -0.1545 -0.0170 -0.1236
 3000W        W 6519   6.160   5.442   1.691  0.3011 -0.1209 -0.0060
 3001W        W 6520   3.834   7.805   4.432  0.0682  0.2779 -0.0587
 3002W        W 6521   9.484   9.518  10.575 -0.2549  0.1176  0.0248
 3003W        W 6522   4.393   1.233  10.282 -0.2391  0.1892  0.0909
 3004W        W 6523   2.495   9.124   4.020 -0.0934 -0.1687  0.0207
 3005W        W 6524   4.642   4.441   9.618 -0.0705 -0.1480  0.1843
 3006W        W 6525   8.712   3.798   3.397 -0.3118  0.1986 -0.2278
 3007W        W 6526   1.239   3.278   8.640  0.0203  0.1879 -0.2230
 3008W        W 6527   0.546   5.522   0.453 -0.3546 -0.2597 -0.1541
 3009W        W 6528   3.843   5.477   7.844  0.2710 -0.2394  0.1288
 3010W        W 6529   0.051   7.252  10.751  0.0262  0.1120 -0.0389
 3011W        W 6530   0.503   7.989   9.914  0.0691 -0.0019 -0.2195
 3012W        W 6531   1.160   8.945  11.892  0.1823  0.2794 -0.1666
 3013W        W 6532   4.269   7.544   3.355 -0.4132  0.1825 -0.3436
 3014W        W 6533   5.140   6.263   3.669 -0.3427 -0.1251  0.3632
 3015W        W 6534   2.782   3.977   1.243  0.1476 -0.0868 -0.1513
 3016W        W 6535   7.860   0.795   9.987  0.0291  0.0070 -0.1863
 3017W        W 6536   5.648   7.186   3.226  0.0839  0.2306  0.1921
 3018W        W 6537   0.294   7.487   3.557  0.0321 -0.0426 -0.0002
 3019W        W 6538   7.614   8.605  10.868  0.0424  0.1375 -0.0936
 3020W        W 6539   8.492   7.353   0.565  0.1535  0.2112  0.0129
 3021W        W 6540   6.937   4.407   2.303 -0.2162 -0.1442 -0.0310
 3022W        W 6541   1.025   7.018  10.884  0.0366  0.0067 -0.2423
 3023W        W 6542   4.561   6.953  10.960  0.0193 -0.1931 -0.1897
 3024W        W 6543   1.548   1.652   4.004  0.2507 -0.1458 -0.2179
 3025W        W 6544   0.527   6.622  12.481 -0.1215  0.0816 -0.2237
 3026W        W 6545   2.724   3.795  11.152 -0.0061  0.2231 -0.0488
 3027W        W 6546   4.486   4.503  12.628  0.0977 -0.2058 -0.0114
 3028W        W 6547   3.494   7.654  10.907 -0.0350  0.2601  0.1471
 3029W        W 6548   9.132   3.589   3.124  0.2251  0.1410  0.1728
 3030W        W 6549   0.811   9.297   0.129  0.0479 -0.0014  0.1927
 3031W        W 6550   8.135   2.776   9.566  0.2903 -0.1808  0.0797
 3032W        W 6551   8.788   9.231  11.573  0.2184 -0.1214  0.4464
 3033W        W 6552   5.190   1.638  11.780  0.1686 -0.0902 -0.3645
 3034W        W 6553   3.039   9.474   2.912  0.1224 -0.1247  0.1028
 3035W        W 6554   6.656   3.647  12.320 -0.1775  0.0207  0.0040
 3036W        W 6555   6.033   5.824   1.386 -0.2047  0.3544  0.0575
 3037W        W 6556   2.957   1.468   2.271  0.1119 -0.1922 -0.1381
 3038W        W 6557   2.819   4.597   3.557  0.0373 -0.1288 -0.0848
 3039W        W 6558   5.339   9.529   4.795  0.1481 -0.1099 -0.1623
 3040W        W 6559   7.316   0.686  10.122  0.1143  0.4365 -0.0166
 3041W        W 6560   2.612   7.729   1.877  0.2732  0.1635 -0.2340
 3042W        W 6561   1.859   4.289   8.460 -0.0545  0.1097 -0.1597
 3043W        W 6562   0.141   8.662   8.591 -0.2130 -0.3646  0.3718
 3044W        W 6563   0.193   0.908   1.242  0.1034 -0.2509 -0.0336
 3045W        W 6564   1.292   6.977   9.327 -0.1566  0.0001 -0.0611
 3046W        W 6565   8.234   0.066   3.169  0.0465 -0.3195  0.1261
 3047W        W 6566   8.161   0.993  10.800  0.1533  0.2110 -0.0750
 3048W        W 6567   3.170   1.720  12.133  0.1676 -0.0598 -0.0900
 3049W        W 6568   6.189   5.485   2.940 -0.1793 -0.0074  0.0529
 3050W        W 6569   6.759   6.673  11.164 -0.0249  0.0138 -0.2199
 3051W        W 6570   1.909   0.750   9.952 -0.1294  0.3517 -0.2710
 3052W        W 6571   2.757   6.701   8.770  0.4832  0.0666 -0.0437
 3053W        W 6572   2.213   4.253  12.151 -0.2114  0.0742 -0.1706
 3054W        W 6573   6.078   3.688   2.699 -0.0406  0.0441 -0.0412
 3055W        W 6574   8.137   8.352   3.376  0.0458 -0.2691 -0.4947
 3056W        W 6575   7.700   5.069   9.251 -0.1222 -0.2248  0.4249
 3057W        W 6576   7.758   6.738   0.812 -0.0478 -0.0225  0.0410
 3058W        W 6577   5.446   2.749   1.579  0.1277 -0.1058 -0.2910
 3059W        W 6578   4.048   7.682   0.253  0.1921  0.0790  0.0635
 3060W        W 6579   0.312   4.763   9.458 -0.0921  0.3506  0.0073
 3061W        W 6580   2.106   6.281  12.397 -0.2126  0.4235 -0.1454
 3062W        W 6581   1.896   6.918   7.962  0.2135  0.0344  0.3452
 3063W        W 6582   0.120   5.471  10.781 -0.0966 -0.1833  0.1640
 3064W        W 6583   0.698   4.648   1.913 -0.2091 -0.1163 -0.1112
 3065W        W 6584   9.167   3.175   0.689  0.1369 -0.1526  0.0230
 3066W        W 6585   6.041   3.187   3.457  0.0073  0.1604  0.0471
 3067W        W 6586   0.146   5.887  10.386 -0.0769  0.1246 -0.0348
 3068W        W 6587   6.376   8.966   8.940 -0.0430 -0.0266 -0.0178
 3069W        W 6588   0.315   6.775  10.228  0.1222  0.1217 -0.0883
 3070W        W 6589   9.265   1.910   9.119  0.1326 -0.3233 -0.0953
 3071W        W 6590   3.613   0.177  10.296  0.2080 -0.0942 -0.3100
 3072W        W 6591   5.124   3.777  10.594  0.2840 -0.0559  0.3292
 3073W        W 6592   9.170   6.432   1.173  0.2009  0.1268  0.0007
 3074W        W 6593   2.709   4.385   2.237  0.0070 -0.0666 -0.1249
 3075W        W 6594   4.566   8.077   2.409 -0.3358  0.0497  0.0152
 3076W        W 6595   3.098   9.464   9.855  0.0391 -0.2480 -0.0533
 3077W        W 6596   2.589   8.048   4.209 -0.2648 -0.0124  0.0741
 3078W        W 6597   3.488   9.561  12.117  0.3159 -0.0364  0.0120
 3079W        W 6598   0.634   7.641   1.833 -0.0812  0.0611  0.1324
 3080W        W 6599   4.047   7.589   9.791 -0.0635  0.0309  0.0208
 3081W        W 6600   3.893   3.494   2.750  0.0051  0.0303 -0.0495
 3082W        W 6601   8.840   1.312   2.826 -0.0319 -0.1466  0.0377
 3083W        W 6602   7.787   5.035   0.435  0.1602  0.0158  0.1813
 3084W        W 6603   4.029   6.927   4.106 -0.2235 -0.0523  0.0944
 3085W        W 6604   3.943   8.031   2.596  0.0084  0.1325  0.4228
 3086W        W 6605   5.616   1.666   8.562 -0.1521  0.2184 -0.0661
 3087W        W 6606   5.151   8.403   8.523  0.1131 -0.2404  0.0153
 3088W        W 6607   8.747   6.119   0.315 -0.1656 -0.0638 -0.0729
 3089W        W 6608   4.173   4.276   9.853 -0.1954 -0.0462  0.1222
 3090W        W 6609   0.996   6.984  12.327  0.2276  0.1202 -0.1097
 3091W        W 6610   0.624   6.931   8.528 -0.0294  0.0137 -0.2138
 3092W        W 6611   8.300   8.904  11.746  0.0073 -0.0313  0.1693
 3093W        W 6612   6.224   2.721   0.886  0.0940 -0.4025  0.0154
 3094W        W 6613   9.103   1.542  10.913  0.0382  0.1191  0.1596
 3095W        W 6614   9.147   2.220   0.871  0.0521  0.2148  0.0964
 3096W        W 6615   3.160   8.141   9.070 -0.3389 -0.1076 -0.0186
 3097W        W 6616   4.992   2.815   2.257 -0.0765 -0.0316  0.0583
 3098W        W 6617   0.097   8.885   4.082 -0.0169  0.3051 -0.0915
 3099W        W 6618   5.025   7.170  10.836 -0.3326 -0.0002  0.2714
 3100W        W 6619   4.958   3.021  11.141  0.3014  0.0113 -0.3641
 3101W        W 6620   7.444   6.822   2.073  0.0133  0.2840  0.3763
 3102W        W 6621   5.136   8.395  10.586  0.1042 -0.0684  0.1736
 3103W        W 6622   7.580   2.855   8.889 -0.1437  0.2868 -0.1329
 3104W        W 6623   4.588   0.504  10.977  0.2029  0.0131  0.1118
 3105W        W 6624   6.066   6.922   9.036 -0.3773 -0.0443  0.1119
 3106W        W 6625   7.150   7.079   2.542 -0.2708  0.2245 -0.1677
 3107W        W 6626   3.166   2.756  12.013 -0.2052  0.0026 -0.2571
 3108W        W 6627   6.666   1.552   2.808 -0.0842 -0.1500  0.2331
 3109W        W 6628   8.460   3.394   1.593  0.0654  0.0260 -0.0355
 3110W        W 6629   2.402   7.598   2.335 -0.1764  0.1220 -0.1119
 3111W        W 6630   4.567   0.848   9.302  0.0518  0.1088 -0.0491
 3112W        W 6631   5.657   9.197   3.576  0.0560  0.0968  0.0788
 3113W        W 6632   1.129   0.059   1.906  0.2962  0.0831 -0.5060
 3114W        W 6633   1.941   5.540  11.351  0.2686  0.2546 -0.3680
 3115W        W 6634   1.534   3.747   1.515 -0.1336 -0.2297  0.3214
 3116W        W 6635   6.658   7.058   3.004  0.0284 -0.2097 -0.0115
 3117W        W 6636   3.570   9.526   1.728 -0.0751  0.0421  0.3601
 3118W        W 6637   5.753   4.847   9.904  0.1800 -0.1562 -0.0102
 3119W        W 6638   5.579   1.342   9.856  0.1059  0.2070  0.0298
 3120W        W 6639   2.898   7.173  11.748  0.1515 -0.0166 -0.3666
 3121W        W 6640   1.429   3.546  11.814 -0.1101  0.2622 -0.2797
 3122W        W 6641   9.632   2.783   3.639 -0.2143  0.0430 -0.0262
 3123W        W 6642   0.720   2.927  11.547 -0.2752  0.1059 -0.1194
 3124W        W 6643   4.279   4.835   2.673 -0.0540 -0.1889  0.2133
 3125W        W 6644   7.958   5.236   1.276 -0.0952 -0.2493 -0.0014
 3126W        W 6645   4.305   4.731  12.172  0.0211  0.1396 -0.0514
 3127W        W 6646   0.424   9.328   3.627  0.1361 -0.2141  0.1395
 3128W        W 6647   4.840   0.299   1.369  0.1858  0.1658  0.0939
 3129W        W 6648   2.985   1.157   0.156 -0.0522  0.2440  0.0289
 3130W        W 6649   8.327   0.553   3.108  0.0546 -0.0069 -0.2993
 3131W        W 6650   4.874   3.740   8.677 -0.1503 -0.0864 -0.5216
 3132W        W 6651   6.061   2.612  12.520  0.1500 -0.0885 -0.0268
 3133W        W 6652   8.352   5.796  11.257  0.1082  0.0264 -0.0174
 3134W        W 6653   5.432   4.536  12.176 -0.0897 -0.6024  0.0893
 3135W        W 6654   1.414   4.106   1.842  0.2815 -0.0089  0.4057
 3136W        W 6655   7.673   8.533   3.234 -0.0471 -0.0597  0.3966
 3137W        W 6656   5.833   3.015   1.771 -0.0498  0.2366 -0.1473
 3138W        W 6657   2.209   6.498   4.272 -0.0514 -0.0051 -0.0956
 3139W        W 6658   1.589   6.147   9.641 -0.0495 -0.1050  0.0309
 3140W        W 6659   9.252   5.043   9.353 -0.0637  0.1403  0.2963
 3141W        W 6660   4.826   1.927  10.445  0.1733  0.1067  0.0868
 3142W        W 6661   3.271   5.347   3.492 -0.0090  0.0726  0.0202
 3143W        W 6662   8.002   1.350   3.177 -0.2689 -0.1634  0.0178
 3144W        W 6663   7.894   7.658  11.694 -0.0695  0.1593 -0.1716
 3145W        W 6664   2.436   1.353   9.464 -0.1090  0.2224 -0.0344
 3146W        W 6665   1.771   9.519   8.908  0.0326  0.0180 -0.0021
 3147W        W 6666   8.688   3.332   9.091  0.1623 -0.0462  0.1980
 3148W        W 6667   1.822   6.755   0.797  0.0759  0.1196 -0.4355
 3149W        W 6668   0.656   2.507  11.009 -0.0318  0.2716  0.1581
 3150W        W 6669   1.892   8.033  12.249  0.0886 -0.1737 -0.1334
 3151W        W 6670   1.629   7.608   9.272  0.1212 -0.0396  0.2497
 3152W        W 6671   5.567   0.694   4.471 -0.1301  0.2548 -0.0309
 3153W        W 6672   1.450   6.477   1.986  0.1983 -0.1149 -0.0293
 3154W        W 6673   0.128   6.729  11.688  0.0893  0.2920  0.0056
 3155W        W 6674   8.186   5.740   9.463 -0.0389 -0.2173 -0.2313
 3156W        W 6675   6.629   5.393  12.399 -0.0614  0.1051 -0.0756
 3157W        W 6676   4.471   0.416  11.477 -0.1222 -0.2724  0.0988
 3158W        W 6677   3.451   8.533   9.842  0.2400  0.1397 -0.1536
 3159W        W 6678   0.034   4.799  11.644 -0.2937  0.2572  0.4246
 3160W        W 6679   8.575   1.138   3.819  0.0232  0.2951  0.0963
 3161W        W 6680   0.105   2.181   2.947 -0.0107 -0.1819  0.4705
 3162W        W 6681   5.887   0.419  10.996 -0.1862  0.0791  0.1450
 3163W        W 6682   7.303   1.305   1.451  0.0260  0.1073 -0.2579
 3164W        W 6683   2.156   8.677   9.469  0.0334  0.1751  0.2728
 3165W        W 6684   3.421   3.784  12.125 -0.0357 -0.3334  0.3141
 3166W        W 6685   8.222   2.038   0.655  0.2520 -0.1822 -0.2039
 3167W        W 6686   1.427   0.354  12.307 -0.2009 -0.0786 -0.0083
 3168W        W 6687   4.635   6.406  11.307 -0.1703  0.1127 -0.2793
 3169W        W 6688   5.461   5.720   2.258 -0.0513 -0.0062  0.3744
 3170W        W 6689   5.019   8.281   9.061  0.5623  0.0892 -0.1670
 3171W        W 6690   1.474   6.087   2.455 -0.3144 -0.0579 -0.2789
 3172W        W 6691   4.228   5.491  10.145 -0.2352  0.2954 -0.1525
 3173W        W 6692   2.682   8.506   2.353  0.0815 -0.1058 -0.3292
 3174W        W 6693   2.084   7.696  10.373 -0.2837  0.5147  0.1260
 3175W        W 6694   3.355   5.501   0.726  0.0543 -0.2268  0.1210
 3176W        W 6695   6.707   2.762   9.796 -0.4486  0.0068  0.2036
 3177W        W 6696   4.114   5.119   2.321  0.0800  0.1458  0.0849
 3178W        W 6697   3.812   2.088   0.208 -0.0411 -0.3004 -0.0002
 3179W        W 6698   5.166   3.731  11.105 -0.1201  0.0161  0.0818
 3180W        W 6699   6.751   3.271   0.841 -0.1838 -0.0528 -0.1951
 3181W        W 6700   1.862   3.844   9.881 -0.1795  0.0897 -0.2958
 3182W        W 6701   1.207   0.734   3.599  0.0147 -0.1681  0.0298
 3183W        W 6702   0.480   8.908   3.285 -0.2320 -0.1319  0.0003
 3184W        W 6703   2.728   5.242  11.931 -0.1959  0.0790 -0.0667
 3185W        W 6704   2.364   6.956   4.262  0.0167 -0.4461 -0.0547
 3186W        W 6705   5.855   1.332  12.109 -0.1217 -0.1839 -0.0466
 3187W        W 6706   7.477   8.713   8.245 -0.0118  0.1637  0.1456
 3188W        W 6707   6.521   0.616   8.050 -0.0942  0.1555 -0.0003
 3189W        W 6708   1.215   7.813  11.082 -0.1570 -0.1731  0.0718
 3190W        W 6709   9.235   8.150   9.691  0.0792  0.0796 -0.0261
 3191W        W 6710   7.634   7.488  10.956  0.3203 -0.2555 -0.0640
 3192W        W 6711   5.942   3.786   0.025 -0.2386  0.0905  0.4041
 3193W        W 6712   0.347   9.641  10.779 -0.1024  0.0393  0.1871
 3194W        W 6713   9.159   4.656  11.827  0.0259 -0.0280 -0.1171
 3195W        W 6714   5.048   8.857  11.998 -0.0684  0.0314  0.2721
 3196W        W 6715   9.067   3.951   1.532  0.0593 -0.2832  0.0457
 3197W        W 6716   7.181   5.027  12.399  0.0740 -0.0791 -0.2113
 3198W        W 6717   9.397   6.702   0.014 -0.0070 -0.2235 -0.2423
 3199W        W 6718   0.469   3.546  12.045  0.2063 -0.0595  0.3117
 3200W        W 6719   1.432   6.025  10.658  0.0639 -0.1017  0.3966
 3201W        W 6720   5.148   6.151   1.648 -0.2896 -0.0643 -0.1885
 3202W        W 6721   8.653   9.585   1.823 -0.0077  0.5113  0.0606
 3203W        W 6722   4.972   0.529   0.243 -0.0285 -0.0686 -0.1712
 3204W        W 6723   2.417   7.625   1.446  0.1929 -0.0633  0.0292
 3205W        W 6724   9.549   2.302   2.544  0.2378 -0.2900  0.3253
 3206W        W 6725   3.140   5.758   2.520 -0.2912  0.0972 -0.2099
 3207W        W 6726   2.262   7.952   1.062  0.0589 -0.0071 -0.0840
 3208W        W 6727   0.838   7.556   1.216 -0.2260  0.0380 -0.3284
 3209W        W 6728   1.316   8.833   4.155 -0.3027  0.1363  0.0074
 3210W        W 6729   3.551   7.616  12.068  0.0650 -0.1493 -0.1280
 3211W        W 6730   8.981   9.549   1.247  0.3153 -0.1871  0.1388
 3212W        W 6731   9.011   2.477   0.074 -0.0831  0.1753 -0.1235
 3213W        W 6732   5.622   8.265   8.728  0.1298 -0.0544  0.1651
 3214W        W 6733   8.977   3.203  10.411 -0.2015  0.1353 -0.0833
 3215W        W 6734   6.609   7.030   4.439 -0.0207 -0.2847 -0.0978
 3216W        W 6735   1.035   5.919   1.618 -0.0224 -0.1325 -0.0519
 3217W        W 6736   9.338   0.509   2.996  0.1186 -0.1384  0.0871
 3218W        W 6737   1.228   8.981   3.638 -0.1897  0.1032  0.1975
 3219W        W 6738   3.965   2.907  10.654 -0.0841  0.0846  0.0002
 3220W        W 6739   8.278   3.511  12.111  0.1346  0.2240  0.2081
 3221W        W 6740   1.168   5.085   3.260  0.2004 -0.0473  0.1578
 3222W        W 6741   5.820   8.509  10.120 -0.1145 -0.4612 -0.4082
 3223W        W 6742   3.895   8.224   4.040  0.1985  0.0851  0.2623
 3224W        W 6743   4.697   1.922   3.386 -0.1391  0.0574  0.1217
 3225W        W 6744   8.828   0.392   7.909 -0.2346 -0.2214 -0.3262
 3226W        W 6745   1.904   0.623   9.462 -0.1089 -0.2452  0.3407
 3227W        W 6746   7.562   1.274   0.384  0.2883 -0.1426  0.2282
 3228W        W 6747   2.072   1.609   2.552 -0.2015  0.1698  0.1218
 3229W        W 6748   4.087   3.022   2.504 -0.2971 -0.1228 -0.0714
 3230W        W 6749   4.631   2.502   0.194  0.1390  0.1686 -0.0665
 3231W        W 6750   8.193   5.115   3.002  0.0754 -0.1139  0.0762
 3232W        W 6751   1.151   2.909  12.424  0.1524 -0.0391 -0.0698
 3233W        W 6752   2.566   0.461   1.982 -0.4771 -0.1757  0.1976
 3234W        W 6753   7.062   2.789   1.910  0.2075 -0.2663 -0.3906
 3235W        W 6754   1.612   4.287   0.777  0.1017  0.0450  0.2612
 3236W        W 6755   1.943   9.335  12.429  0.2036 -0.1601  0.1151
 3237W        W 6756   6.910   5.636  10.493  0.0193 -0.3380 -0.0038
 3238W        W 6757   4.244   0.997   9.670 -0.2848  0.2709  0.0552
 3239W        W 6758   9.575   7.335   4.001 -0.2221 -0.3459  0.1375
 3240W        W 6759   3.805   5.823  10.302 -0.0721  0.1400 -0.0657
 3241W        W 6760   1.965   0.566   1.061  0.3464 -0.1514  0.1677
 3242W        W 6761   6.674   2.438  10.347  0.0492  0.0433 -0.2047
 3243W        W 6762   1.822   5.763   2.302  0.2634 -0.0110 -0.1426
 3244W        W 6763   8.237   7.299   2.675 -0.1293  0.3510  0.1065
 3245W        W 6764   3.910   9.136   1.947  0.1924  0.4064 -0.2577
 3246W        W 6765   4.486   4.349   3.596  0.1358  0.1470  0.1337
 3247W        W 6766   6.592   4.099   0.762 -0.3654 -0.5234  0.2391
 3248W        W 6767   5.317   2.735  11.353 -0.2822  0.2335  0.1773
 3249W        W 6768   1.868   6.747  10.401  0.0028 -0.1663  0.1793
 3250W        W 6769   8.242   9.246  11.149 -0.1471 -0.1515  0.0707
 3251W        W 6770   3.866   2.857  11.118  0.1010 -0.2933  0.0681
 3252W        W 6771   4.556   1.647   0.145 -0.1058  0.2846  0.0365
 3253W        W 6772   7.745   7.902   0.500  0.0395  0.0778  0.0435
 3254W        W 6773   5.402   1.059  10.827  0.2484 -0.0399 -0.0800
 3255W        W 6774   0.993   5.443   9.135  0.0037  0.0044 -0.1199
 3256W        W 6775   7.886   6.299   3.645  0.1534  0.3162 -0.3252
 3257W        W 6776   0.173   4.104  12.189 -0.0549  0.3035 -0.0688
 3258W        W 6777   4.227   6.250  12.077  0.2590  0.2092 -0.1973
 3259W        W 6778   6.043   5.931  11.868 -0.0151  0.1554  0.1158
 3260W        W 6779   5.577   8.009   4.319 -0.0588 -0.0449 -0.2893
 3261W        W 6780   2.455   5.875  12.445  0.0341  0.3713  0.0064
 3262W        W 6781   5.653   8.810   1.654  0.1679  0.1554 -0.1643
 3263W        W 6782   6.031   6.313   1.138  0.0300  0.1321 -0.3619
 3264W        W 6783   4.306   6.970   1.639  0.0842 -0.3934  0.0240
 3265W        W 6784   9.240   3.613   1.855  0.0545 -0.0404  0.1134
 3266W        W 6785   8.827   5.891  12.499  0.0118  0.0525  0.1212
 3267W        W 6786   5.415   8.060   3.602 -0.0166 -0.0218  0.0945
 3268W        W 6787   7.862   7.584   8.381  0.2984  0.0985 -0.3434
 3269W        W 6788   6.359   4.350  11.074 -0.0521  0.0104  0.0244
 3270W        W 6789   6.804   7.314  12.593 -0.2859 -0.2084 -0.0826
 3271W        W 6790   7.976   0.833   3.010 -0.1725 -0.0681  0.0857
 3272W        W 6791   6.191   4.644   8.948  0.1390  0.1460 -0.1127
 3273W        W 6792   4.821   6.229  12.558 -0.0367 -0.0058  0.2652
 3274W        W 6793   0.671   5.372   7.958  0.2199 -0.2403  0.0912
 3275W        W 6794   7.164   9.174   2.128 -0.2484  0.1243 -0.0636
 3276W        W 6795   4.946   1.477   2.704  0.0043 -0.1594 -0.3055
 3277W        W 6796   7.291   9.552   8.912  0.1239  0.0513  0.0806
 3278W        W 6797   3.503   6.402   1.138  0.2071 -0.2853 -0.0396
 3279W        W 6798   0.619   7.819  11.473 -0.2823  0.1230 -0.0779
 3280W        W 6799   2.702   6.592   4.087  0.0426  0.0030  0.0370
 3281W        W 6800   0.534   8.301  11.643  0.1123  0.0434 -0.0469
 3282W        W 6801   3.705   4.846   2.663 -0.0043 -0.0960 -0.0866
 3283W        W 6802   3.993   0.472  11.463  0.0877  0.1619 -0.2755
 3284W        W 6803   0.424   2.832   9.661  0.0178 -0.1343  0.0739
 3285W        W 6804   6.848   0.907   3.860  0.2559  0.0923 -0.0529
 3286W        W 6805   4.712   2.109  12.516 -0.0315  0.1853  0.2089
 3287W        W 6806   0.492   1.420   3.655  0.0131  0.1226 -0.0762
 3288W        W 6807   1.392   7.818  11.924  0.2677 -0.3333 -0.1452
 3289W        W 6808   7.048   4.110   0.446  0.2551 -0.0579  0.0093
 3290W        W 6809   3.373   0.487  12.341 -0.0230 -0.2143  0.1884
 3291W        W 6810   8.299   0.596   0.667  0.0450 -0.0489 -0.0377
 3292W        W 6811   4.414   6.855   3.634 -0.0213 -0.0195  0.2665
 3293W        W 6812   7.495   3.825   1.007 -0.2004  0.0336 -0.0204
 3294W        W 6813   1.748   4.324  11.259  0.2664  0.1144  0.0509
 3295W        W 6814   3.045   8.822  10.645 -0.0701  0.1369  0.3556
 3296W        W 6815   6.743   1.786   8.586  0.4324  0.3316 -0.0777
 3297W        W 6816   4.795   9.296   0.355 -0.0929 -0.1561 -0.1660
 3298W        W 6817   4.859   7.621   1.616  0.1939 -0.0846 -0.1127
 3299W        W 6818   0.956   7.574   4.646  0.0749  0.2993 -0.2107
 3300W        W 6819   7.788   3.470  12.060 -0.0362 -0.1495  0.2537
 3301W        W 6820   1.722   4.369  11.729 -0.2522  0.0443  0.0743
 3302W        W 6821   1.673   5.214  11.051 -0.2658  0.3153 -0.3021
 3303W        W 6822   1.859   7.725  11.846  0.3297 -0.0867 -0.2771
 3304W        W 6823   1.934   4.871   2.783  0.5244 -0.3185 -0.0253
 3305W        W 6824   1.138   4.111   9.792  0.0038 -0.1294 -0.1933
 3306W        W 6825   8.937   5.871   8.958 -0.1704  0.1080  0.0617
 3307W        W 6826   9.169   8.947   0.488 -0.1437  0.0584  0.1920
 3308W        W 6827   6.547   6.887   9.795 -0.0567  0.1883  0.4133
 3309W        W 6828   8.510   2.070   8.680 -0.5797  0.2351 -0.2001
 3310W        W 6829   3.954   5.259  10.546  0.0890  0.1003 -0.0364
 3311W        W 6830   6.439   1.102   8.897  0.3044 -0.0771  0.2513
 3312W        W 6831   7.210   6.241   2.348  0.2270 -0.0411  0.3253
 3313W        W 6832   2.230   0.941   3.451 -0.3472  0.0122  0.1043
 3314W        W 6833   5.237   6.095   2.582 -0.0517  0.0312 -0.1982
 3315W        W 6834   3.901   9.282   2.936  0.1573 -0.1564  0.2774
 3316W        W 6835   0.751   5.952  12.265 -0.2906  0.1542  0.0201
 3317W        W 6836   4.414   5.899   0.261 -0.0160 -0.0151 -0.2225
 3318W        W 6837   1.188   6.446   0.983  0.0603  0.0445  0.2438
 3319W        W 6838   9.553   7.392   9.057  0.1257  0.1189  0.1239
 3320W        W 6839   1.032   7.417   3.295 -0.1422 -0.2813  0.1828
 3321W        W 6840   8.560   2.350  11.055  0.1840 -0.0433 -0.0469
 3322W        W 6841   3.986   9.531  11.955  0.3827  0.0948 -0.1285
 3323W        W 6842   0.622   5.838  11.755  0.3472  0.0262 -0.2072
 3324W        W 6843   3.098   7.965  10.666 -0.2539  0.2386 -0.3027
 3325W        W 6844   8.621   0.804   8.726 -0.0387 -0.1723 -0.1915
 3326W        W 6845   3.257   8.862  11.835 -0.1628 -0.1884 -0.1298
 3327W        W 6846   7.392   7.699   9.060  0.0385  0.3718 -0.1671
 3328W        W 6847   1.755   3.564   9.436  0.3155  0.1748  0.2263
 3329W        W 6848   5.222   4.439   0.921  0.0991 -0.1928 -0.1524
 3330W        W 6849   2.909   0.881   3.935  0.1573 -0.0026  0.2237
 3331W        W 6850   9.046   1.225  12.308  0.0549  0.1203  0.0129
 3332W        W 6851   4.850   5.288   8.089  0.0818 -0.3724  0.2805
 3333W        W 6852   3.009   4.656   1.880 -0.2952 -0.0435 -0.1290
 3334W        W 6853   3.928   8.459   9.708 -0.2277  0.0789  0.4341
 3335W        W 6854   8.353   4.404   9.042  0.0181  0.1306  0.1619
 3336W        W 6855   0.169   5.306   2.359  0.2142  0.3344 -0.2546
 3337W        W 6856   8.515   6.529   2.168 -0.1378  0.0608  0.1866
 3338W        W 6857   7.946   9.497  11.514 -0.1498 -0.0369  0.0510
 3339W        W 6858   7.120   8.972   9.624 -0.1014 -0.2817  0.3005
 3340W        W 6859   0.501   5.853   1.587 -0.0939  0.0708  0.1409
 3341W        W 6860   2.693   6.656   1.063  0.2974 -0.4551  0.0739
 3342W        W 6861   2.526   6.052   3.448 -0.0721  0.1358  0.1200
 3343W        W 6862   0.096   3.830   4.802  0.1620  0.0277 -0.1939
 3344W        W 6863   1.687   8.642  10.889  0.1163 -0.2728  0.0447
 3345W        W 6864   2.035   6.262  10.370  0.2879 -0.2736 -0.2405
 3346W        W 6865   7.309   3.714  11.169 -0.1494 -0.1188  0.1554
 3347W        W 6866   4.589   8.292   8.822  0.2709  0.0884  0.0105
 3348W        W 6867   4.171   6.752  11.182  0.1761 -0.0176 -0.0561
 3349W        W 6868   7.365   0.103   0.682  0.2319 -0.2166 -0.2974
 3350W        W 6869   8.700   8.698  10.586 -0.3395 -0.2390  0.1021
 3351W        W 6870   9.211   5.434   0.779  0.1397  0.1450  0.5809
 3352W        W 6871   7.872   4.338   2.592  0.0266 -0.4395 -0.0434
 3353W        W 6872   0.874   6.365   1.774  0.0638 -0.3825 -0.2009
 3354W        W 6873   8.620   4.032  12.601 -0.0762 -0.0396  0.1414
 3355W        W 6874   5.748   5.886   0.957 -0.1617  0.2542  0.0293
 3356W        W 6875   7.951   4.321   4.135  0.3916  0.0815 -0.0884
 3357W        W 6876   5.232   7.680   3.979  0.5568 -0.2514 -0.2857
 3358W        W 6877   0.391   5.169   9.795 -0.1365  0.1047  0.0596
 3359W        W 6878   3.245   4.884   4.237 -0.1153 -0.1736 -0.0461
 3360W        W 6879   8.565   3.930  10.289  0.1613  0.0151  0.0761
 3361W        W 6880   8.620   0.405   8.998  0.0164 -0.2437  0.0230
 3362W        W 6881   5.760   6.297   0.090  0.1407 -0.1607 -0.2139
 3363W        W 6882   2.068   7.466   9.239 -0.0770 -0.2521  0.1899
 3364W        W 6883   7.566   9.528   3.090 -0.1468  0.1511 -0.0859
 3365W        W 6884   2.449   5.117   2.795  0.1602  0.1058  0.1404
 3366W        W 6885   8.638   5.278  10.064 -0.2158  0.0667  0.3890
 3367W        W 6886   0.686   3.095   1.288  0.1755  0.1308 -0.2238
 3368W        W 6887   2.639   4.011   9.639 -0.0308  0.2200  0.2991
 3369W        W 6888   7.043   2.288   2.111 -0.0949  0.3309 -0.0324
 3370W        W 6889   7.287   2.158   0.586 -0.0928  0.1384 -0.3459
 3371W        W 6890   1.131   7.684   8.734  0.0147 -0.0104  0.1074
 3372W        W 6891   5.796   4.336  10.173  0.2832  0.1297 -0.2159
 3373W        W 6892   1.869   6.225   0.657 -0.1388 -0.2546  0.1380
 3374W        W 6893   3.471   6.483  10.098  0.2525  0.0139  0.0861
 3375W        W 6894   0.280   8.680  10.620  0.4513  0.1055  0.2227
 3376W        W 6895   9.378   4.998   1.692  0.0875  0.0913  0.3091
 3377W        W 6896   5.299   5.496   3.046 -0.1160 -0.3677 -0.1848
 3378W        W 6897   6.946   4.876   9.554  0.0586 -0.0098  0.0859
 3379W        W 6898   8.019   0.186  11.116 -0.0081  0.0471 -0.0191
 3380W        W 6899   3.790   4.791   0.436 -0.0842  0.1211 -0.1836
 3381W        W 6900   4.232   8.704  11.455  0.3406  0.1304 -0.0314
 3382W        W 6901   0.258   5.874   3.633  0.0155  0.1839  0.1770
 3383W        W 6902   1.105   2.690  11.322  0.1919 -0.2894 -0.1804
 3384W        W 6903   4.662   8.404   8.302  0.0144  0.2244 -0.0651
 3385W        W 6904   8.496   3.324   0.432  0.1782  0.0737 -0.1484
 3386W        W 6905   2.681   5.660   1.795 -0.1839  0.0197 -0.4245
 3387W        W 6906   8.075   0.342   9.211  0.3690 -0.0590 -0.0263
 3388W        W 6907   1.363   1.800   9.846 -0.0336  0.0850  0.0030
 3389W        W 6908   4.267   5.960   4.207 -0.2296  0.0679  0.2545
 3390W        W 6909   1.496   0.245  10.465 -0.0514 -0.0758  0.2234
 3391W        W 6910   6.158   5.226   2.493 -0.0085 -0.3341  0.0343
 3392W        W 6911   7.666   8.200   8.231 -0.0343  0.1389 -0.3115
 3393W        W 6912   6.526   1.993   1.049 -0.3073  0.0132  0.0283
 3394W        W 6913   5.568   0.894  12.125  0.3027 -0.1544 -0.0272
 3395W        W 6914   1.498   9.127   9.041  0.0063  0.0207 -0.2152
 3396W        W 6915   3.289   8.414   0.110  0.0961 -0.1762  0.0858
 3397W        W 6916   6.206   1.179  11.714 -0.0289 -0.2154  0.2541
 3398W        W 6917   7.097   1.617   0.222  0.0310  0.1208 -0.2766
 3399W        W 6918   4.663   8.208   4.678  0.1577 -0.1149  0.1388
 3400W        W 6919   2.790   6.075   8.932 -0.2057 -0.0994 -0.2410
 3401W        W 6920   1.879   7.955   2.313 -0.1470 -0.2414  0.1421
 3402W        W 6921   8.401   9.075   3.941 -0.1229  0.1780 -0.1613
 3403W        W 6922   5.103   3.360   2.433 -0.1395 -0.0118 -0.0374
 3404W        W 6923   5.446   4.835   1.177 -0.0086  0.0436 -0.0217
 3405W        W 6924   7.657   5.149   3.549 -0.0232 -0.2900  0.1558
 3406W        W 6925   5.990   8.027  10.011  0.0191  0.2469 -0.0779
 3407W        W 6926   3.054   5.333  11.583 -0.2417 -0.4184 -0.0841
 3408W        W 6927   8.105   9.234   0.074  0.0720 -0.1379 -0.1158
 3409W        W 6928   8.613   3.785   1.304 -0.1303 -0.2412  0.2137
 3410W        W 6929   0.615   2.896   0.147 -0.0190  0.1210  0.1517
 3411W        W 6930   3.523   9.509   2.229  0.1012  0.1856 -0.0862
 3412W        W 6931   8.692   2.006   0.835 -0.2707  0.1969  0.0573
 3413W        W 6932   8.494   0.647   1.737 -0.0885 -0.0226 -0.1875
 3414W        W 6933   1.196   1.062   1.377  0.1149  0.2062 -0.0253
 3415W        W 6934   8.356   6.987   1.425  0.1109 -0.0057 -0.0757
 3416W        W 6935   0.695   4.613  10.521 -0.1780 -0.0626 -0.1308
 3417W        W 6936   8.743   5.302   0.764  0.1264 -0.0788  0.0522
 3418W        W 6937   7.147   7.421  10.896  0.2140  0.2053  0.2001
 3419W        W 6938   7.125   8.852  10.905 -0.0567 -0.0737  0.4970
 3420W        W 6939   6.082   0.259   1.860  0.0093 -0.2397  0.2697
 3421W        W 6940   0.734   7.137   8.968 -0.4796  0.4466 -0.0469
 3422W        W 6941   4.297   3.793   9.911  0.2033 -0.2916 -0.0807
 3423W        W 6942   2.741   4.078   9.157 -0.1606  0.1756 -0.0378
 3424W        W 6943   5.735   1.046   1.891 -0.0414  0.4025  0.1872
 3425W        W 6944   5.425   0.810   9.867  0.0509  0.0851  0.2296
 3426W        W 6945   6.214   6.814   3.863 -0.0084  0.2341  0.2260
 3427W        W 6946   4.945   0.929   2.276 -0.1122 -0.0869 -0.0483
 3428W        W 6947   0.993   0.507   2.097  0.0570  0.0999  0.3259
 3429W        W 6948   2.894   5.437  12.479  0.2226  0.2727  0.0588
 3430W        W 6949   5.933   8.019   1.967  0.4876  0.0971  0.0322
 3431W        W 6950   7.291   8.142   9.517 -0.1187 -0.1253 -0.2123
 3432W        W 6951   2.241   0.989  10.598 -0.0254 -0.4350 -0.1241
 3433W        W 6952   0.941   9.565   9.948 -0.1449 -0.1097 -0.0568
 3434W        W 6953   4.037   2.516   2.203 -0.1406  0.0762  0.2997
 3435W        W 6954   8.815   3.746   8.745  0.0181  0.0860  0.2480
 3436W        W 6955   3.615   2.737   9.787  0.0375  0.4626  0.1134
 3437W        W 6956   8.690   0.566   4.284 -0.0913 -0.0620 -0.2257
 3438W        W 6957   1.970   6.207   1.955 -0.0430 -0.0328  0.1790
 3439W        W 6958   5.999   7.184   2.417  0.1391 -0.3168  0.2009
 3440W        W 6959   6.943   2.371  12.383  0.0787 -0.2921 -0.4108
 3441W        W 6960   1.048   7.648  12.242  0.0181  0.2564 -0.0983
 3442W        W 6961   4.279   4.675   1.188 -0.2090  0.3058  0.2117
 3443W        W 6962   2.437   3.505   3.060 -0.2580  0.0927 -0.2828
 3444W        W 6963   6.999   2.541   1.298 -0.2919 -0.2551  0.0018
 3445W        W 6964   0.290   4.510   9.888  0.0026 -0.1208 -0.0208
 3446W        W 6965   0.227   1.363   0.219 -0.0585 -0.2312 -0.0520
 3447W        W 6966   7.808   9.415   0.994 -0.0676 -0.2715 -0.0075
 3448W        W 6967   6.679   6.106  10.725  0.0325 -0.2750  0.2096
 3449W        W 6968   8.051   8.154   7.854  0.0856 -0.0831 -0.1706
 3450W        W 6969   9.005   5.577   8.509  0.1025  0.3919 -0.0551
 3451W        W 6970   8.480   2.067   3.956 -0.1529  0.2022 -0.0959
 3452W        W 6971   0.801   5.298  11.632  0.2599 -0.2648  0.2154
 3453W        W 6972   1.755   5.229   9.536  0.0992 -0.0031 -0.1111
 3454W        W 6973   8.287   3.181  10.477 -0.0073 -0.1023 -0.2431
 3455W        W 6974   4.860   6.632   9.252 -0.0900 -0.2884 -0.1725
 3456W        W 6975   7.781   4.364  12.333  0.3053 -0.4244 -0.0060
 3457W        W 6976   5.600   1.772  12.099  0.0971  0.2749  0.0921
 3458W        W 6977   3.224   6.547   0.717 -0.0887  0.0875 -0.1297
 3459W        W 6978   2.992   3.790   8.720  0.2567  0.0759  0.3082
 3460W        W 6979   8.068   3.787  10.243 -0.0631 -0.0102 -0.0842
 3461W        W 6980   4.006   1.524  10.451  0.1428  0.2008 -0.1047
 3462W        W 6981   0.245   7.774  12.356 -0.3607  0.3697  0.0975
 3463W        W 6982   5.311   1.769  10.179 -0.0344 -0.4028  0.2539
 3464W        W 6983   1.094   7.678  10.605 -0.3255 -0.2599 -0.0204
 3465W        W 6984   4.177   9.181  11.659  0.0181  0.0248  0.0617
 3466W        W 6985   8.138   5.694  11.650  0.1251 -0.0156 -0.2114
 3467W        W 6986   9.094   5.733   2.400 -0.0369  0.3833  0.0738
 3468W        W 6987   0.054   1.364   1.515  0.2211 -0.0244  0.0220
 3469W        W 6988   1.996   2.338  11.113  0.2921  0.0287  0.3517
 3470W        W 6989   5.062   4.259  10.324 -0.1962  0.0539  0.3444
 3471W        W 6990   8.795   7.303  11.721 -0.0387 -0.0711  0.1322
 3472W        W 6991   0.615   0.000   2.840  0.1012  0.3937 -0.2760
 3473W        W 6992   7.710   1.177  10.901 -0.2218 -0.0032  0.0540
 3474W        W 6993   6.171   6.695   3.255 -0.1734 -0.4302  0.0033
 3475W        W 6994   3.643   0.945  11.083  0.0594 -0.0999  0.1909
 3476W        W 6995   8.539   0.210   9.430  0.0946 -0.0899 -0.0688
 3477W        W 6996   3.226   6.674  12.218  0.1122  0.1108  0.1874
 3478W        W 6997   3.685   4.141   9.642 -0.2763  0.2891  0.0893
 3479W        W 6998   3.187   6.246   2.197  0.0145  0.0688 -0.2350
 3480W        W 6999   8.012   4.459   0.976 -0.1314 -0.2381  0.0599
 3481W        W 7000   9.328   2.527   9.908 -0.0306 -0.0818  0.1433
 3482W        W 7001   4.812   4.155   0.897  0.1209 -0.0478 -0.1902
 3483W        W 7002   5.142   5.332   0.358 -0.1951  0.0349 -0.0152
 3484W        W 7003   4.890   0.511   2.632  0.0821  0.2643 -0.0474
 3485W        W 7004   4.358   2.109   2.208 -0.0755  0.0607 -0.2356
 3486W        W 7005   7.604   5.648  11.559  0.0833 -0.1100 -0.3972
 3487W        W 7006   6.110   2.913   9.777 -0.1318 -0.1917  0.1156
 3488W        W 7007   8.303   3.596   2.057  0.1135  0.0415 -0.1537
 3489W        W 7008   9.070   3.570   7.946  0.0386  0.1323 -0.2128
 3490W        W 7009   1.821   3.177   1.124 -0.2770  0.0289  0.0614
 3491W        W 7010   6.072   5.533   9.739 -0.1422  0.1483 -0.0509
 3492W        W 7011   0.680   6.777   2.595 -0.1309 -0.0575 -0.0048
 3493W        W 7012   3.568   8.782   1.774 -0.2364 -0.0252  0.0910
 3494W        W 7013   2.220   5.063  11.674  0.2382 -0.0442 -0.0569
 3495W        W 7014   7.528   3.247   0.806 -0.1048  0.2502  0.0649
 3496W        W 7015   5.811   0.732   8.986  0.1497 -0.0283  0.0211
 3497W        W 7016   7.129   4.297   8.835 -0.3248  0.0183  0.4634
 3498W        W 7017   3.401   3.893   0.628  0.0613  0.1568 -0.2903
 3499W        W 7018   7.959   0.486   1.502 -0.4206  0.1004 -0.0031
 3500W        W 7019   0.265   8.638   8.122 -0.0548  0.3039  0.1687
 3501W        W 7020   8.318   9.526   4.737  0.1416  0.0746 -0.0640
 3502W        W 7021   9.602   5.772   2.254  0.1365  0.0366  0.2293
 3503W        W 7022   2.983   7.655   0.545 -0.0541  0.0384  0.0180
 3504W        W 7023   0.195   6.007  11.264  0.0867 -0.0171  0.0902
 3505W        W 7024   9.232   7.021   1.331 -0.2765 -0.0475 -0.0088
 3506W        W 7025   6.818   9.471  10.663  0.1070 -0.0423  0.0034
 3507W        W 7026   1.622   4.489   2.729 -0.0256  0.1829  0.0037
 3508W        W 7027   9.405   1.520  11.630  0.1470  0.1834  0.0589
 3509W        W 7028   9.519   1.537   4.329  0.2785  0.3736 -0.2055
 3510W        W 7029   8.304   9.452   9.821  0.0854  0.0575 -0.1452
 3511W        W 7030   7.919   6.566   9.791  0.2458 -0.0796  0.0655
 3512W        W 7031   3.378   5.762   4.065 -0.1587 -0.2197 -0.2317
 3513W        W 7032   6.918   2.883  10.650 -0.0732  0.1217 -0.1031
 3514W        W 7033   1.603   8.472  11.361 -0.2637  0.1385 -0.3395
 3515W        W 7034   8.751   5.149   1.612  0.0318  0.1089  0.3430
 3516W        W 7035   1.870   1.084  11.044 -0.1454  0.3150 -0.0657
 3517W        W 7036   0.789   0.961   4.229 -0.0612 -0.0234  0.3293
 3518W        W 7037   2.153   4.420   2.035 -0.1804  0.1386 -0.3058
 3519W        W 7038   9.619   0.146   4.016  0.1481  0.0509  0.0642
 3520W        W 7039   9.175   5.544  12.555  0.1309  0.2483  0.1008
 3521W        W 7040   7.947   8.554  11.833  0.2599  0.1341  0.0239
 3522W        W 7041   4.095   6.116   9.390  0.2557 -0.0734  0.0937
 3523W        W 7042   7.863   5.294   4.462 -0.0239  0.0703 -0.2763
 3524W        W 7043   9.320   6.696   2.562 -0.0552 -0.0183 -0.1651
 3525W        W 7044   8.626   2.709  10.583  0.2004  0.2439  0.2927
 3526W        W 7045   5.804   3.929   2.258 -0.2387  0.2387  0.4550
 3527W        W 7046   1.857   8.356   3.771  0.0071 -0.3640  0.2566
 3528W        W 7047   2.601   7.717   0.143  0.0372 -0.0007 -0.1517
 3529W        W 7048   2.998   6.290  11.651  0.0808 -0.2452 -0.0491
 3530W        W 7049   1.487   0.804   2.709 -0.0608 -0.3719  0.2534
 3531W        W 7050   8.941   0.923   3.128 -0.0805 -0.1189  0.0365
 3532W        W 7051   6.827   7.213   8.650  0.1096 -0.4125  0.1630
 3533W        W 7052   9.281   4.429   9.341  0.2080 -0.1448  0.2611
 3534W        W 7053   1.278   5.464  11.203 -0.1311  0.0136  0.2057
 3535W        W 7054   2.338   0.683  11.645  0.2027 -0.1527 -0.2431
 3536W        W 7055   1.319   9.240   9.802 -0.1871 -0.0177  0.3273
 3537W        W 7056   3.324   8.032  11.830  0.2772 -0.0674  0.1751
 3538W        W 7057   5.448   7.472   9.559 -0.2076 -0.0289 -0.1068
 3539W        W 7058   4.883   0.620   3.155 -0.2771 -0.4090 -0.2856
 3540W        W 7059   7.565   2.721   7.804 -0.0872 -0.1016  0.2161
 3541W        W 7060   2.308   1.521   0.562 -0.1222  0.1254 -0.2914
 3542W        W 7061   6.724   3.042  10.208 -0.2504  0.2974  0.0548
 3543W        W 7062   0.047   0.656   2.132 -0.1290  0.0221 -0.1841
 3544W        W 7063   7.754   8.853   0.882  0.0930  0.2004 -0.1799
 3545W        W 7064   3.044   6.620   2.986  0.1431 -0.1222  0.1011
 3546W        W 7065   0.701   3.146   9.339  0.0501 -0.1689 -0.1839
 3547W        W 7066   0.040   4.127  10.089 -0.1678  0.0242 -0.1645
 3548W        W 7067   4.007   1.806   2.933  0.0366 -0.2462 -0.0408
 3549W        W 7068   6.096   2.234  11.566 -0.0782  0.4203 -0.0848
 3550W        W 7069   4.366   1.202   0.408  0.0672 -0.3246 -0.3902
 3551W        W 7070   6.680   5.206   2.033 -0.2034 -0.1495  0.2580
 3552W        W 7071   9.140   0.321   4.298  0.0210  0.0862  0.1727
 3553W        W 7072   8.661   2.333  12.378  0.0235  0.1632  0.1476
 3554W        W 7073   2.807   5.541  10.324 -0.0241  0.2309  0.1815
 3555W        W 7074   6.606   6.151   9.420  0.1537  0.2012  0.0451
 3556W        W 7075   0.027   1.391   3.264 -0.2842  0.1705  0.3175
 3557W        W 7076   3.651   5.261   2.098 -0.2639 -0.1038  0.3307
 3558W        W 7077   4.162   3.520   1.399 -0.1074  0.1608 -0.1631
 3559W        W 7078   2.584   8.358   1.728  0.3498 -0.2483 -0.0903
 3560W        W 7079   7.963   6.073   0.211  0.0223  0.2673  0.3434
 3561W        W 7080   7.509   1.633  10.332  0.1118 -0.0631  0.0786
 3562W        W 7081   5.005   2.464  11.063  0.1035 -0.2224 -0.0909
 3563W        W 7082   3.515   3.219   9.967 -0.1264 -0.0437  0.1568
 3564W        W 7083   5.571   4.527  10.806 -0.0341 -0.2442  0.2223
 3565W        W 7084   9.463   1.695   1.171 -0.2901 -0.1045  0.0737
 3566W        W 7085   0.852   3.802  11.134 -0.0246  0.1668  0.0789
 3567W        W 7086   3.699   6.147   0.757  0.2811 -0.1174  0.0861
 3568W        W 7087   0.877   1.207   0.977  0.0469  0.2017  0.3148
 3569W        W 7088   4.416   9.138  10.407 -0.1907  0.1977 -0.1736
 3570W        W 7089   7.225   5.473   0.412 -0.4270 -0.0286 -0.6444
 3571W        W 7090   8.909   5.475   1.232 -0.3864 -0.2542  0.0632
 3572W        W 7091   6.831   7.320   8.008  0.0199 -0.1021  0.0121
 3573W        W 7092   6.587   3.233  11.447 -0.1878 -0.0311 -0.2642
 3574W        W 7093   8.210   2.650  12.288  0.0039  0.3622 -0.0848
 3575W        W 7094   5.358   5.068   9.013 -0.0027 -0.1324 -0.1504
 3576W        W 7095   2.271   6.889   9.272 -0.0010  0.2489  0.0736
 3577W        W 7096   0.066   5.691   9.207  0.1183 -0.0982 -0.0387
 3578W        W 7097   8.218   6.710   3.986 -0.0273  0.0225  0.0614
 3579W        W 7098   3.862   9.665  10.723  0.1092  0.1745 -0.0381
 3580W        W 7099   7.453   1.170   8.994  0.2356 -0.1168 -0.3085
 3581W        W 7100   8.207   9.588  10.727  0.2532  0.0969  0.0028
 3582W        W 7101   5.483   6.758   9.828  0.1674 -0.4475 -0.1057
 3583W        W 7102   8.179   7.957   0.302 -0.0986  0.0157  0.0973
 3584W        W 7103   3.443   9.421  10.434 -0.2388  0.0688 -0.1237
 3585W        W 7104   7.641   5.309   0.859 -0.2077 -0.1667  0.0746
 3586W        W 7105   1.121   9.453  11.863  0.0263 -0.1167 -0.2295
 3587W        W 7106   7.313   8.330  11.207  0.2079  0.1560 -0.1250
 3588W        W 7107   4.825   5.106   1.630  0.0326 -0.2612  0.1682
 3589W        W 7108   8.569   8.534   4.138 -0.3111 -0.2620 -0.0316
 3590W        W 7109   7.039   0.637   9.662 -0.1422  0.0855 -0.2334
 3591W        W 7110   0.130   5.898  12.103  0.0549 -0.1834  0.2498
 3592W        W 7111   7.697   7.226   8.963  0.3159 -0.1067 -0.0388
 3593W        W 7112   8.868   6.565   0.152 -0.4014  0.5537  0.2359
 3594W        W 7113   4.581   3.085   3.691  0.0401 -0.3236  0.0451
 3595W        W 7114   3.278   7.688   1.638 -0.1638 -0.2397  0.0413
 3596W        W 7115   3.222   6.608   8.454  0.1552 -0.0814  0.0599
 3597W        W 7116   0.190   6.187   9.940 -0.3308  0.1173  0.3749
 3598W        W 7117   5.043   9.582   1.703 -0.3014  0.0929 -0.0577
 3599W        W 7118   9.014   6.060   9.389 -0.2085 -0.1688 -0.3106
 3600W        W 7119   0.163   2.830   8.361  0.1338 -0.1667  0.0277
 3601W        W 7120   4.528   5.181  11.475  0.3288  0.1811 -0.0307
 3602W        W 7121   0.975   0.934   0.532 -0.1276 -0.0997  0.0600
 3603W        W 7122   0.171   4.449   0.996 -0.0511  0.0610  0.0100
 3604W        W 7123   7.327   6.713   9.764  0.0463  0.1237  0.3752
 3605W        W 7124   5.903   4.935   3.396  0.0138 -0.3363  0.2380
 3606W        W 7125   3.795   8.906   9.784  0.0707 -0.0152  0.0357
 3607W        W 7126   9.191   4.758  11.359  0.1692  0.0864  0.1762
 3608W        W 7127   5.108   8.686   0.964 -0.0250  0.0689  0.0165
 3609W        W 7128   1.104   2.027   1.137  0.3214  0.4256 -0.1227
 3610W        W 7129   7.658   9.446  10.384  0.0104  0.2078  0.0729
 3611W        W 7130   4.660   5.414  10.654  0.3043 -0.3398 -0.0621
 3612W        W 7131   2.108   4.971  11.138 -0.4155 -0.0285 -0.0972
 3613W        W 7132   7.248   8.346  10.018  0.2408  0.3225  0.1312
 3614W        W 7133   0.771   2.642   9.298  0.2343 -0.1391 -0.0039
 3615W        W 7134   6.093   2.738   3.263  0.2313 -0.0517  0.0321
 3616W        W 7135   3.117   0.429   3.641  0.1465 -0.2995 -0.1441
 3617W        W 7136   4.375   0.520   1.388 -0.1438 -0.0708  0.1556
 3618W        W 7137   1.202   3.975  12.397  0.0126 -0.0201  0.2065
 3619W        W 7138   5.095   6.947   1.077  0.0238  0.0996  0.3625
 3620W        W 7139   3.385   1.190   3.144 -0.0785 -0.2508 -0.1723
 3621W        W 7140   7.666   1.307   9.982  0.1011  0.0156  0.2340
 3622W        W 7141   2.392   7.480   4.459  0.0268  0.1163  0.1750
 3623W        W 7142   9.230   8.234   2.336 -0.1145  0.1757 -0.2953
 3624W        W 7143   5.872   2.681   8.373 -0.2796 -0.0370  0.3144
 3625W        W 7144   4.544   0.296   4.001 -0.0409 -0.0548  0.0236
 3626W        W 7145   9.622   6.712   1.377  0.0818 -0.1276  0.3459
 3627W        W 7146   7.558   3.274  11.237  0.0811  0.3423 -0.0891
 3628W        W 7147   7.627   7.749   9.499 -0.1132  0.1340  0.0185
 3629W        W 7148   7.559   6.818  11.603 -0.4037 -0.2374 -0.4076
 3630W        W 7149   2.084   5.347   9.121 -0.5408  0.0644  0.0039
 3631W        W 7150   5.377   7.661   1.777  0.1213  0.2057  0.3741
 3632W        W 7151   4.898   7.002  11.947  0.2843 -0.3367 -0.3145
 3633W        W 7152   2.192   8.444  12.553 -0.1930 -0.1021 -0.1628
 3634W        W 7153   8.616   4.564  10.888  0.3218 -0.1446  0.0466
 3635W        W 7154   4.000   2.185   2.560  0.1626  0.0546 -0.3355
 3636W        W 7155   1.143   7.115   8.649  0.0968  0.2456 -0.2071
 3637W        W 7156   1.495   6.889  12.332  0.2827 -0.0886 -0.2048
 3638W        W 7157   3.101   4.601   9.790  0.0512 -0.0790 -0.0911
 3639W        W 7158   1.247   1.478  11.832  0.1960 -0.2167  0.2418
 3640W        W 7159   1.804   2.146   9.811  0.0041 -0.0169 -0.0324
 3641W        W 7160   6.883   4.493   3.691  0.0937 -0.0288  0.0832
 3642W        W 7161   7.336   3.588   4.439 -0.1151  0.3440  0.1096
 3643W        W 7162   1.930   3.621   1.863 -0.0598 -0.0330 -0.1299
 3644W        W 7163   2.530   0.966  12.558  0.1971 -0.0846  0.0497
 3645W        W 7164   0.453   5.539  12.266  0.2545 -0.0515  0.2938
 3646W        W 7165   8.490   2.012   1.270 -0.2797 -0.0662  0.1506
 3647W        W 7166   0.741   5.174   0.801 -0.0678 -0.0443  0.1406
 3648W        W 7167   7.994   2.100  11.087  0.3434 -0.0852  0.3760
 3649W        W 7168   7.600   4.294  11.026 -0.0214  0.0350 -0.1212
 3650W        W 7169   6.134   4.921   3.925  0.0114 -0.0131  0.0322
 3651W        W 7170   6.658   4.971   9.999  0.3143 -0.0171 -0.3435
 3652W        W 7171   7.375   2.401   3.496  0.0013  0.0405  0.1143
 3653W        W 7172   5.439   0.848   4.044 -0.0134 -0.1603 -0.0077
 3654W        W 7173   8.911   3.666  10.558 -0.0819  0.1221 -0.1539
 3655W        W 7174   4.203   7.115  12.606  0.1939 -0.0081 -0.1838
 3656W        W 7175   2.476   0.253  11.452  0.1346  0.0885  0.1726
 3657W        W 7176   2.997   6.139   3.159  0.4050  0.3286 -0.4372
 3658W        W 7177   7.388   2.963   0.098  0.0746  0.3755 -0.1474
 3659W        W 7178   9.430   1.508  12.595  0.0006 -0.0298  0.0767
 3660W        W 7179   0.719   8.628   0.402  0.1420  0.3381 -0.0964
 3661W        W 7180   1.688   9.147  10.660  0.0489 -0.1178 -0.0939
 3662W        W 7181   5.867   7.548  11.197  0.0402 -0.1898 -0.1042
 3663W        W 7182   8.913   5.753   3.389  0.0902  0.0834  0.0870
 3664W        W 7183   0.885   3.278   2.009  0.0620  0.2879  0.1047
 3665W        W 7184   7.620   5.415   2.585  0.2507 -0.4648  0.1559
 3666W        W 7185   1.966   8.912   0.703  0.0261 -0.0512  0.0538
 3667W        W 7186   5.654   4.019  11.113 -0.0750  0.2642  0.2198
 3668W        W 7187   0.649   8.266   4.240 -0.1972 -0.0836  0.0413
 3669W        W 7188   9.013   7.567  12.615 -0.2526  0.2171 -0.1057
 3670W        W 7189   5.022   9.323  11.446  0.2705 -0.3578 -0.0071
 3671W        W 7190   1.075   6.670   5.129  0.0474 -0.0305 -0.0322
 3672W        W 7191   6.456   5.837   9.789  0.3051 -0.0252  0.1026
 3673W        W 7192   7.275   8.287   8.488 -0.0529  0.2262 -0.0881
 3674W        W 7193   8.891   4.506   2.803 -0.3220  0.1150 -0.1730
 3675W        W 7194   7.362   0.629   9.227 -0.1927 -0.0850  0.0535
 3676W        W 7195   1.651   1.210   1.214 -0.2126  0.1115 -0.0969
 3677W        W 7196   0.760   1.543   4.082  0.0581 -0.0635  0.1261
 3678W        W 7197   2.133   1.989   0.843 -0.1143 -0.1383 -0.1869
 3679W        W 7198   9.322   2.847   8.501  0.0223  0.1394 -0.1101
 3680W        W 7199   3.411   4.359  10.594  0.1862 -0.1400  0.2597
 3681W        W 7200   5.803   5.432   3.229 -0.1567  0.2175  0.0543
 3682W        W 7201   5.837   1.109   3.126 -0.1017  0.0978  0.0327
 3683W        W 7202   4.257   9.075  12.157 -0.0000  0.3570 -0.3419
 3684W        W 7203   5.120   4.721  11.761 -0.0257 -0.0656 -0.1275
 3685W        W 7204   3.958   0.086   9.848 -0.0407 -0.2093 -0.1328
 3686W        W 7205   3.697   4.172   9.182 -0.0812 -0.2467 -0.2081
 3687W        W 7206   4.516   5.028   1.986 -0.1365 -0.0074  0.0500
 3688W        W 7207   0.158   7.998  11.271 -0.0780 -0.7008 -0.2967
 3689W        W 7208   6.850   2.288   0.891  0.1810 -0.1626 -0.1451
 3690W        W 7209   8.163   5.325  12.506 -0.0251  0.0365 -0.0662
 3691W        W 7210   4.839   3.723  12.255 -0.1919  0.0929  0.0302
 3692W        W 7211   6.460   3.976   8.351 -0.0467 -0.1597  0.0856
 3693W        W 7212   9.365   2.608   4.099 -0.0302 -0.0312 -0.0185
 3694W        W 7213   9.410   4.845   8.705  0.1075  0.0202  0.3708
 3695W        W 7214   2.331   9.008   1.642  0.2149 -0.5071  0.1061
 3696W        W 7215   7.990   6.682   0.045  0.1235 -0.0576 -0.1021
 3697W        W 7216   0.339   1.248   8.691 -0.0630 -0.0406  0.0965
 3698W        W 7217   7.022   4.050   2.812 -0.0193 -0.1628  0.1368
 3699W        W 7218   3.100   6.125  12.145  0.0954  0.0620 -0.3286
 3700W        W 7219   1.109   7.390   1.822  0.0825  0.2980 -0.2041
 3701W        W 7220   5.099   7.738   9.311 -0.1374 -0.3915  0.2088
 3702W        W 7221   5.377   4.567   8.647  0.2746 -0.3338 -0.1492
 3703W        W 7222   5.888   6.876  11.860  0.0443 -0.0806  0.2586
 3704W        W 7223   0.474   8.411   0.814  0.3405 -0.1189 -0.1214
 3705W        W 7224   0.301   4.490  11.361  0.0497  0.0081  0.0336
 3706W        W 7225   6.112   9.513   9.063  0.1605 -0.0409 -0.0663
 3707W        W 7226   6.620   2.156   1.982 -0.2487  0.3638  0.1074
 3708W        W 7227   8.384   5.817   0.059 -0.0603 -0.0511  0.0727
 3709W        W 7228   4.698   9.255   2.907  0.3949 -0.0650  0.3278
 3710W        W 7229   2.752   8.058   0.728 -0.1006  0.0477  0.4059
 3711W        W 7230   8.369   5.945   0.584  0.4055  0.1800 -0.1444
 3712W        W 7231   7.055   0.404   2.541  0.1597  0.6651  0.1819
 3713W        W 7232   2.036   3.482   0.765  0.1002  0.1228 -0.2373
 3714W        W 7233   2.413   8.150  11.615 -0.1059  0.3029  0.2621
 3715W        W 7234   4.771   9.628   2.569  0.2644  0.0243 -0.1659
 3716W        W 7235   8.440   8.428   0.336  0.1094  0.0372  0.2962
 3717W        W 7236   5.607   8.916   2.596  0.2955 -0.2388 -0.2089
 3718W        W 7237   9.153   6.786   9.618 -0.0461 -0.1942 -0.0048
 3719W        W 7238   6.470   4.787   9.340  0.2135 -0.1391 -0.0097
 3720W        W 7239   6.487   0.688  12.535  0.3506  0.0243  0.1368
 3721W        W 7240   1.825   1.374   0.249 -0.0056 -0.0663  0.2903
 3722W        W 7241   2.560   8.356   1.136 -0.1459  0.0185 -0.2104
 3723W        W 7242   6.239   4.682  10.010  0.1010  0.1728  0.0856
 3724W        W 7243   8.413   7.459   1.743 -0.2769 -0.1896  0.3226
 3725W        W 7244   2.955   6.497  10.203  0.3587  0.1453  0.1638
 3726W        W 7245   5.146   5.734  12.242 -0.2110  0.0854  0.2309
 3727W        W 7246   2.616   4.532  11.391  0.0025  0.0430 -0.2427
 3728W        W 7247   5.032   4.052   1.372 -0.2419 -0.1629  0.0812
 3729W        W 7248   0.175   5.132  11.251  0.3052  0.1422 -0.1799
 3730W        W 7249   3.190   0.176   0.424  0.0308  0.2902 -0.0028
 3731W        W 7250   1.621   4.603   1.662 -0.0460  0.0584 -0.1664
 3732W        W 7251   0.391   6.144   2.066  0.0412 -0.2197  0.3194
 3733W        W 7252   4.784   8.469   0.711 -0.1975 -0.0900  0.1242
 3734W        W 7253   3.734   5.098   0.836 -0.1867 -0.0120 -0.3705
 3735W        W 7254   6.561   7.554  12.194 -0.1419 -0.2024  0.2808
 3736W        W 7255   0.393   7.845   8.458  0.0141  0.1129 -0.1504
 3737W        W 7256   0.434   5.018  12.442  0.1473 -0.2676 -0.1969
 3738W        W 7257   0.952   8.078   1.399  0.0890  0.1926 -0.1401
 3739W        W 7258   3.507   5.412  10.201 -0.0099 -0.0808 -0.2201
 3740W        W 7259   0.524   9.504   9.734 -0.2251 -0.0483 -0.0702
 3741W        W 7260   8.130   2.591   1.904  0.0456  0.2112 -0.0372
 3742W        W 7261   7.418   7.162  12.012  0.0812 -0.0318  0.2117
 3743W        W 7262   6.202   6.482   0.012 -0.2910 -0.0725 -0.1206
 3744W        W 7263   5.566   1.427   0.410 -0.2064 -0.1336  0.1251
 3745W        W 7264   6.378   7.428   8.776  0.2206  0.3912 -0.0175
 3746W        W 7265   8.376   0.086   8.097 -0.1328  0.1692 -0.0025
 3747W        W 7266   0.193   8.041   1.744 -0.1016 -0.1342  0.0167
 3748W        W 7267   7.323   0.228   0.188 -0.2122  0.0372  0.0198
 3749W        W 7268   7.017   6.307   0.091 -0.0412  0.2191  0.1716
 3750W        W 7269   6.145   0.759   8.605 -0.3795  0.0191  0.0384
 3751W        W 7270   0.551   5.149   2.080  0.1215 -0.0660  0.0906
 3752W        W 7271   7.229   0.669   3.633 -0.0678  0.0438 -0.0831
 3753W        W 7272   1.526   2.650   8.961 -0.0923 -0.0153 -0.1798
 3754W        W 7273   1.239   5.376   0.920  0.3425 -0.3623 -0.2064
 3755W        W 7274   8.079   8.906   1.906 -0.1604 -0.0056 -0.0120
 3756W        W 7275   1.663   3.770  12.279  0.0844  0.1371  0.0171
 3757W        W 7276   4.276   0.720  10.543 -0.1367  0.2065 -0.0421
 3758W        W 7277   4.306   1.348   2.641 -0.0694 -0.1056  0.1158
 3759W        W 7278   5.446   7.858   1.313  0.1942  0.1193 -0.2324
 3760W        W 7279   1.094   1.169  11.377 -0.1257  0.0029 -0.0032
 3761W        W 7280   9.091   8.572   1.216  0.2681 -0.0600  0.0018
 3762W        W 7281   6.528   4.681   0.376 -0.2041 -0.1033 -0.2846
 3763W        W 7282   1.826   3.867  11.050  0.0718  0.0408 -0.0505
 3764W        W 7283   3.901   3.723   1.903 -0.0988  0.0964  0.0529
 3765W        W 7284   3.962   0.337   1.628  0.0158 -0.1034  0.1350
 3766W        W 7285   6.969   8.860   2.429 -0.0980 -0.2164 -0.1515
 3767W        W 7286   9.382   6.503   3.004  0.1789  0.0527 -0.1822
 3768W        W 7287   4.404   3.238  10.564 -0.0738 -0.1864 -0.0580
 3769W        W 7288   2.985   9.128   9.385  0.0433  0.0259  0.1271
 3770W        W 7289   2.274   0.550   8.979  0.1203  0.2099  0.0698
 3771W        W 7290   8.449   4.836   2.590  0.2543 -0.1685  0.1676
 3772W        W 7291   0.225   2.342  12.474 -0.3013  0.0221  0.2151
 3773W        W 7292   2.569   4.750   0.248 -0.1413 -0.3663 -0.2317
 3774W        W 7293   9.015   4.701   9.002 -0.2384 -0.1046 -0.1449
 3775W        W 7294   5.929   6.094  11.337 -0.2371  0.0809 -0.1950
 3776W        W 7295   3.494   4.107   2.458  0.1295 -0.0324  0.2949
 3777W        W 7296   3.832   6.638  10.435 -0.0372  0.0261 -0.1897
 3778W        W 7297   1.663   7.202   0.565  0.0820 -0.1456  0.0600
 3779W        W 7298   2.879   7.337   0.138 -0.1758 -0.2847  0.3155
 3780W        W 7299   1.182   4.947  11.789 -0.0284 -0.0196 -0.0716
 3781W        W 7300   1.345   6.373   1.460  0.1584 -0.1174 -0.2344
 3782W        W 7301   3.007   8.381   8.425  0.0917 -0.2915 -0.1347
 3783W        W 7302   5.010   3.660   0.350 -0.1421 -0.0555  0.0696
 3784W        W 7303   3.591   6.956   4.322  0.2129 -0.1634  0.0364
 3785W        W 7304   3.259   8.318   1.499  0.0074  0.1500 -0.2736
 3786W        W 7305   6.140   9.473   3.524  0.1954  0.3822  0.0104
 3787W        W 7306   9.326   3.476  10.686 -0.1271 -0.0389  0.1049
 3788W        W 7307   5.687   3.939   9.733 -0.2044 -0.0299 -0.2502
 3789W        W 7308   4.247   8.370   9.297 -0.2139  0.2373 -0.1177
 3790W        W 7309   3.039   9.596   2.444  0.1724  0.1154  0.0693
 3791W        W 7310   8.013   2.598  11.278 -0.3217 -0.0125 -0.2634
 3792W        W 7311   9.378   9.581   8.880  0.2550 -0.2424 -0.0268
 3793W        W 7312   2.425   2.747  11.505 -0.2020  0.0523  0.0023
 3794W        W 7313   8.339   5.427   0.382 -0.5601 -0.2997  0.0540
 3795W        W 7314   5.424   6.072   7.612  0.0066  0.0968 -0.1974
 3796W        W 7315   4.644   1.315   2.274  0.0504 -0.0419  0.0540
 3797W        W 7316   8.273   8.053   2.987  0.0587 -0.0045 -0.0990
 3798W        W 7317   2.830   6.737  11.365 -0.2465 -0.1649  0.0957
 3799W        W 7318   5.579   8.507   8.264  0.3629  0.1573 -0.1621
 3800W        W 7319   6.209   3.948   0.429  0.2259  0.0110 -0.1044
 3801W        W 7320   1.377   0.434   0.205 -0.1691 -0.0651 -0.0419
 3802W        W 7321   7.441   4.990   2.758 -0.1483  0.3713  0.1804
 3803W        W 7322   1.619   6.811   0.240  0.1203  0.0130 -0.1522
 3804W        W 7323   7.993   1.537   0.741  0.1623 -0.3458  0.3078
 3805W        W 7324   5.338   2.246   2.941 -0.2300  0.0383  0.2045
 3806W        W 7325   3.358   1.900   9.490 -0.0742 -0.0142  0.1825
 3807W        W 7326   7.381   0.741   8.652  0.1749  0.0738  0.2040
 3808W        W 7327   6.010   9.657  12.468  0.1275  0.0791  0.0569
 3809W        W 7328   4.289   8.938   2.330  0.0317  0.3083  0.1229
 3810W        W 7329   1.330   6.729  11.242 -0.3007  0.0436  0.1159
 3811W        W 7330   8.841   2.235   3.052  0.0772 -0.2029 -0.0399
 3812W        W 7331   3.205   4.726   8.728 -0.3076 -0.1214  0.0281
 3813W        W 7332   0.322   7.544  11.161  0.0462  0.1448  0.1637
 3814W        W 7333   9.286   9.465  11.064 -0.1471  0.0611  0.1012
 3815W        W 7334   6.542   3.641   1.814 -0.0805 -0.1218 -0.1351
 3816W        W 7335   6.301   2.257   1.626  0.0201 -0.1730  0.1293
 3817W        W 7336   6.261   1.909   9.647  0.0335  0.0368 -0.2974
 3818W        W 7337   3.275   7.090  11.229  0.2762 -0.1649 -0.3573
 3819W        W 7338   4.186   2.984   3.366  0.0039 -0.0542 -0.1271
 3820W        W 7339   5.213   9.410  10.061  0.1889  0.1557  0.1418
 3821W        W 7340   0.028   0.196   1.877  0.0551 -0.2254 -0.0835
 3822W        W 7341   8.113   8.106  11.652 -0.1824  0.0862  0.0387
 3823W        W 7342   5.486   3.073   2.571  0.2730 -0.0850  0.2412
 3824W        W 7343   9.584   2.022   0.848 -0.1233  0.0015  0.0855
 3825W        W 7344   8.955   7.495   8.498  0.0288  0.0328  0.0165
 3826W        W 7345   8.009   4.730   1.382  0.3151 -0.3419  0.0354
 3827W        W 7346   3.530   4.610   9.422 -0.0682  0.1346  0.2059
 3828W        W 7347   7.931   8.525   9.874  0.1452 -0.1471  0.3088
 3829W        W 7348   5.137   0.168  10.285 -0.2820  0.3412  0.0668
 3830W        W 7349   3.988   5.675   2.359 -0.0996  0.0219  0.1424
 3831W        W 7350   7.634   6.977  10.788 -0.1952 -0.0841  0.0256
 3832W        W 7351   9.099   4.098   2.068 -0.1598 -0.0755 -0.1653
 3833W        W 7352   8.949   7.379   2.583  0.0398  0.2830  0.1464
 3834W        W 7353   0.030   8.073   2.327  0.1537  0.1793 -0.1632
 3835W        W 7354   5.363   2.809  10.810  0.0049  0.3485  0.0034
 3836W        W 7355   5.423   5.833  11.497 -0.2755 -0.0791  0.0597
 3837W        W 7356   8.786   8.005   4.107  0.2587  0.0125  0.0821
 3838W        W 7357   9.098   3.192   9.374  0.2550  0.2802 -0.0019
 3839W        W 7358   5.935   1.441  10.287 -0.3104 -0.1427  0.2665
 3840W        W 7359   1.655   3.164   2.801 -0.1079 -0.0171  0.0538
 3841W        W 7360   6.258   6.853   2.765  0.0578  0.0373 -0.0512
 3842W        W 7361   3.012   8.753   1.862  0.2364 -0.2635  0.2324
 3843W        W 7362   9.217   4.596  12.421 -0.0889  0.0087 -0.0545
 3844W        W 7363   1.590   4.242   3.514  0.0943  0.1278 -0.2667
 3845W        W 7364   6.779   3.395   1.333 -0.1058 -0.1077 -0.1292
 3846W        W 7365   0.458   4.880  10.214  0.3081  0.0725  0.4357
 3847W        W 7366   0.926   4.837  12.328 -0.2145  0.0936  0.1893
 3848W        W 7367   2.288   6.832   8.565  0.1546 -0.1463 -0.0748
 3849W        W 7368   6.331   0.618  10.789 -0.1662 -0.1904 -0.0511
 3850W        W 7369   5.437   0.792   2.261  0.3152  0.0196 -0.0855
 3851W        W 7370   9.133   8.067   1.056 -0.0551  0.1443  0.1611
 3852W        W 7371   4.332   7.332  10.273 -0.0231  0.1027 -0.0736
 3853W        W 7372   7.332   9.464  10.791  0.4337  0.3796  0.1351
 3854W        W 7373   0.360   6.293  10.813 -0.1918  0.3361  0.0369
 3855W        W 7374   2.044   5.322  10.733  0.1605  0.0720 -0.2764
 3856W        W 7375   8.306   8.243   9.757 -0.0715  0.0110  0.0392
 3857W        W 7376   8.955   6.358   8.903 -0.0329 -0.2221 -0.1322
 3858W        W 7377   2.487   8.088  12.466  0.1833 -0.0520 -0.2334
 3859W        W 7378   5.155   7.202   4.118  0.1125 -0.3156  0.0071
 3860W        W 7379   5.621   6.090   1.861 -0.2820  0.2347 -0.2079
 3861W        W 7380   5.053   4.618   9.862 -0.0718 -0.0963  0.1392
 3862W        W 7381   8.278   0.768   3.992 -0.0664 -0.2318  0.2884
 3863W        W 7382   1.927   0.734   3.022  0.1355  0.0987 -0.0625
 3864W        W 7383   3.049   5.753   1.324  0.2956 -0.0884  0.0714
 3865W        W 7384   7.630   2.784   1.778  0.0055  0.2712 -0.2448
 3866W        W 7385   1.047   5.511  12.029  0.1884  0.3295 -0.0455
 3867W        W 7386   3.872   2.308  11.152 -0.0624 -0.2305  0.0500
 3868W        W 7387   5.117   9.179  12.570  0.4054  0.1577 -0.0403
 3869W        W 7388   3.544   1.626   0.156 -0.5594 -0.1894  0.0142
 3870W        W 7389   0.105   5.491   1.544  0.0004 -0.0529  0.0311
 3871W        W 7390   1.780   6.537   9.965  0.1654  0.0520 -0.0831
 3872W        W 7391   0.588   6.246   2.541 -0.1430 -0.1028 -0.0941
 3873W        W 7392   1.159   1.009   9.949 -0.0905 -0.1564  0.2130
 3874W        W 7393   4.220   1.945   9.686  0.0550  0.1966 -0.0481
 3875W        W 7394   4.005   5.761   9.755 -0.0532 -0.1734  0.1299
 3876W        W 7395   2.102   3.582   9.083 -0.1149  0.1748 -0.4991
 3877W        W 7396   8.626   1.369  10.927 -0.2533 -0.1417  0.0536
 3878W        W 7397   8.229   1.577   8.696 -0.2245 -0.1727  0.0146
 3879W        W 7398   9.176   7.721   8.984 -0.0056  0.1682 -0.0790
 3880W        W 7399   9.594   6.887   9.819 -0.8659  0.2144 -0.0173
 3881W        W 7400   8.029   4.716   9.769 -0.0586  0.0012  0.1237
 3882W        W 7401   9.449   1.858  10.422 -0.0924  0.0609  0.0610
 3883W        W 7402   2.870   7.274   3.760 -0.0144  0.0320  0.0734
 3884W        W 7403   8.569   0.560   2.309  0.0771  0.0896 -0.1716
 3885W        W 7404   9.295   5.080   4.653  0.0519 -0.0805  0.0424
 3886W        W 7405   5.908   0.344   1.254  0.1804  0.0597 -0.1328
 3887W        W 7406   4.368   4.562   2.107  0.0285 -0.3130 -0.1388
 3888W        W 7407   9.443   3.700  12.434 -0.0202 -0.0391 -0.0189
 3889W        W 7408   6.384   7.136   8.225 -0.0201 -0.0190 -0.0578
 3890W        W 7409   2.878   7.760   9.150  0.2990  0.0524  0.2161
 3891W        W 7410   8.799   8.164   0.651  0.1433 -0.1787  0.0695
 3892W        W 7411   2.095   4.205  10.774 -0.0181 -0.0415  0.0026
 3893W        W 7412   7.533   7.283   0.786  0.2286 -0.2420  0.0763
 3894W        W 7413   1.606   7.841  10.170  0.2321  0.0171 -0.0677
 3895W        W 7414   7.608   2.081  12.481 -0.1661  0.0950 -0.1230
 3896W        W 7415   1.325   2.305   2.093  0.1761  0.2517 -0.1418
 3897W        W 7416   6.647   7.830  11.661 -0.2002  0.3977  0.0262
 3898W        W 7417   0.453   0.474   3.011 -0.1824 -0.0909 -0.0990
 3899W        W 7418   5.744   8.377  12.520  0.0867 -0.0767  0.0306
 3900W        W 7419   1.475   6.399  11.658  0.0511  0.1651  0.0644
 3901W        W 7420   6.976   5.815   4.849  0.0805  0.3613 -0.0757
 3902W        W 7421   8.446   1.561   3.053 -0.0631 -0.2636  0.2077
 3903W        W 7422   4.114   3.486   0.766  0.0502  0.0335 -0.0387
 3904W        W 7423   4.576   4.477  10.592 -0.2567  0.1619 -0.0026
 3905W        W 7424   5.115   1.499   9.734  0.2970  0.0735 -0.2592
 3906W        W 7425   5.975   7.502   1.932 -0.1804  0.1184  0.1665
 3907W        W 7426   2.016   0.666   2.089  0.0346 -0.2118 -0.0357
 3908W        W 7427   3.515   8.311   4.349  0.2895  0.0348 -0.0262
 3909W        W 7428   7.979   4.295   1.643  0.1669 -0.0544  0.1255
 3910W        W 7429   5.292   7.663  11.285 -0.1106 -0.3203  0.0342
 3911W        W 7430   4.232   6.394   8.539 -0.1076 -0.1946 -0.0418
 3912W        W 7431   6.508   4.290   2.227 -0.0501  0.1720  0.0705
 3913W        W 7432   7.149   4.311   0.855 -0.1727 -0.1147  0.1394
 3914W        W 7433   4.798   7.312   9.343  0.0734 -0.2288  0.3936
 3915W        W 7434   7.900   7.201  10.393 -0.1456 -0.0296  0.0211
 3916W        W 7435   5.474   6.466   2.809  0.2175 -0.2889 -0.2114
 3917W        W 7436   7.072   5.713  11.134 -0.1495  0.3467 -0.0000
 3918W        W 7437   1.255   7.357   4.959 -0.0961  0.0352  0.1361
 3919W        W 7438   9.429   0.153   1.396 -0.3085 -0.0339 -0.4780
 3920W        W 7439   1.130   2.290   0.726 -0.3240  0.2197 -0.0850
 3921W        W 7440   3.268   3.780   1.122 -0.2331  0.1370 -0.0413
 3922W        W 7441   9.067   9.301   3.484  0.2791  0.0028 -0.0877
 3923W        W 7442   1.877   4.121   3.066 -0.2130 -0.1396 -0.2363
 3924W        W 7443   1.475   4.888   2.397  0.2496 -0.0599 -0.0021
 3925W        W 7444   2.414   4.972  12.243  0.0555 -0.0653  0.0231
 3926W        W 7445   6.628   1.428   9.189 -0.2436  0.1012 -0.1939
 3927W        W 7446   6.674   5.402  10.881  0.0170 -0.2094  0.0723
 3928W        W 7447   8.574   2.806   8.206  0.1000  0.1713 -0.3544
 3929W        W 7448   6.891   1.875   9.189 -0.1638 -0.0581 -0.0586
 3930W        W 7449   7.408   4.607   1.670  0.0883 -0.1553 -0.2612
 3931W        W 7450   2.299   3.236   1.100 -0.1749  0.2643 -0.0283
 3932W        W 7451   5.828   8.322   9.562  0.0233  0.1052 -0.0002
 3933W        W 7452   0.090   6.966  12.436  0.0436  0.1892 -0.0069
 3934W        W 7453   2.320   7.085   3.752 -0.4586  0.2049  0.0222
 3935W        W 7454   3.026   7.195   9.680  0.2067 -0.0679 -0.1688
 3936W        W 7455   0.889   3.373   0.161 -0.1517 -0.0239  0.1262
 3937W        W 7456   1.550   3.318  11.312 -0.3586 -0.0440  0.3538
 3938W        W 7457   9.282   6.615   0.487  0.1596  0.1012  0.0676
 3939W        W 7458   5.319   0.951   0.075  0.0549  0.0504  0.0092
 3940W        W 7459   8.538   2.523   9.622 -0.0280  0.0007 -0.1504
 3941W        W 7460   3.246   5.526   2.037 -0.1267 -0.1635  0.0239
 3942W        W 7461   2.877   7.036   4.258 -0.2062  0.0431 -0.0016
 3943W        W 7462   7.740   8.086   3.048  0.3290 -0.0741  0.0642
 3944W        W 7463   6.028   8.237  11.360 -0.0377 -0.3328  0.1747
 3945W        W 7464   1.726   6.015   3.193 -0.1288 -0.0635  0.2355
 3946W        W 7465   4.705   0.855   0.699 -0.1963  0.1094  0.0465
 3947W        W 7466   4.891   7.753  11.693 -0.0513  0.0003  0.1779
 3948W        W 7467   2.660   2.391  10.519 -0.0215  0.2752 -0.1666
 3949W        W 7468   9.154   1.577   2.561 -0.3564 -0.1818 -0.0306
 3950W        W 7469   3.383   6.597   2.599 -0.0900 -0.3285 -0.1672
 3951W        W 7470   2.255   6.403   9.068 -0.1668  0.1879  0.2225
 3952W        W 7471   0.505   5.708  11.024  0.1005 -0.0505 -0.2198
 3953W        W 7472   1.315   8.386   3.580 -0.1382 -0.1055  0.0391
 3954W        W 7473   0.921   7.248   0.449  0.3017  0.1728 -0.4065
 3955W        W 7474   0.850   4.633   3.284 -0.1811 -0.3223  0.0918
 3956W        W 7475   7.242   1.834   1.971  0.0110  0.4040  0.0523
 3957W        W 7476   3.184   6.635   9.716  0.0519 -0.0727  0.0447
 3958W        W 7477   3.858   8.166   8.019  0.0400  0.1185  0.4160
 3959W        W 7478   3.191   2.074   1.079  0.0937  0.1855  0.1246
 3960W        W 7479   8.481   2.859  11.519 -0.3075  0.2834  0.1056
 3961W        W 7480   3.580   1.734  11.784 -0.0793  0.0336 -0.0010
 3962W        W 7481   3.927   7.493   0.882  0.3999 -0.0450 -0.1872
 3963W        W 7482   6.612   8.852  10.976 -0.0979 -0.0518  0.2502
 3964W        W 7483   9.509   3.270   2.920 -0.0163  0.1737 -0.2916
 3965W        W 7484   3.817   5.007   9.371 -0.3003 -0.0476  0.0918
 3966W        W 7485   9.243   1.900   8.174 -0.0935 -0.0557  0.3085
 3967W        W 7486   5.826   1.953   1.643 -0.0068  0.1347 -0.0782
 3968W        W 7487   8.972   5.339  10.618  0.0125  0.0105 -0.3757
 3969W        W 7488   3.764   7.523   3.620  0.1490 -0.2061  0.0227
 3970W        W 7489   9.378   4.232   1.210  0.2687  0.1094  0.0540
 3971W        W 7490   4.167   4.634   8.877 -0.0007  0.1341 -0.3963
 3972W        W 7491   0.989   7.738   0.560  0.1943  0.3618  0.1970
 3973W        W 7492   2.039   6.812  12.551  0.0035  0.1049 -0.0537
 3974W        W 7493   4.945   6.980   1.721 -0.3047 -0.2744  0.0568
 3975W        W 7494   4.926   5.202   3.168 -0.1661 -0.0781  0.1879
 3976W        W 7495   9.642   1.146  11.220 -0.0916 -0.1614 -0.1243
 3977W        W 7496   4.714   8.921   3.288  0.1191  0.2238  0.0556
 3978W        W 7497   3.002   8.477   3.734  0.1358  0.3463 -0.0983
 3979W        W 7498   2.937   0.705   9.594  0.1150 -0.1295  0.1407
 3980W        W 7499   0.407   3.727   9.345 -0.0760  0.0499  0.2902
 3981W        W 7500   3.194   0.742  10.535  0.0538  0.0940  0.0337
 3982W        W 7501   1.083   2.774   2.077 -0.3990  0.2042  0.0777
 3983W        W 7502   7.492   6.713   2.545  0.1411 -0.0683  0.0897
 3984W        W 7503   3.323   0.480   2.165 -0.0124  0.0949  0.2178
 3985W        W 7504   7.575   5.961  11.977 -0.1839  0.0961 -0.3656
 3986W        W 7505   1.370   3.662  11.067  0.0926 -0.2609  0.2202
 3987W        W 7506   1.961   2.614  11.566  0.0650 -0.1738 -0.2529
 3988W        W 7507   3.416   7.805   2.122  0.1971  0.0461 -0.1024
 3989W        W 7508   9.540   0.036  12.000 -0.0349  0.1546 -0.0704
 3990W        W 7509   2.807   1.561   1.334 -0.3719 -0.1746 -0.0364
 3991W        W 7510   5.645   2.344  10.888 -0.0442  0.2734  0.1461
 3992W        W 7511   7.974   2.506   2.741  0.1368 -0.3640 -0.2799
 3993W        W 7512   7.861   5.794  11.144  0.2785  0.0085 -0.1327
 3994W        W 7513   3.817   4.447  12.006 -0.0027 -0.0765  0.0841
 3995W        W 7514   9.300   5.343   4.241  0.2353 -0.0663 -0.1325
 3996W        W 7515   5.473   7.964   9.648 -0.1098 -0.2280  0.3037
 3997W        W 7516   2.047   4.822   0.344  0.2435 -0.3660 -0.1116
 3998W        W 7517   2.414   3.993   3.188 -0.0866  0.1807  0.3510
 3999W        W 7518   9.233   9.434   9.438  0.1419 -0.1387 -0.1940
 4000W        W 7519   0.476   0.187   8.524 -0.0737 -0.0566 -0.2161
 4001W        W 7520   4.945   1.770   1.045 -0.4058 -0.1319 -0.0959
 4002W        W 7521   5.685   6.506   8.176 -0.0618  0.3976 -0.1182
 4003W        W 7522   5.604   6.306  10.661 -0.0775  0.2282  0.1191
 4004W        W 7523   7.316   0.432  11.149 -0.0050  0.1624  0.2849
 4005W        W 7524   0.697   1.343  11.750 -0.0559 -0.4013  0.1074
 4006W        W 7525   0.833   6.169   0.678  0.0185 -0.1206 -0.0967
 4007W        W 7526   5.415   2.063   1.154  0.0687 -0.0660 -0.0286
 4008W        W 7527   6.718   4.288  10.770  0.1173 -0.1809  0.1552
 4009W        W 7528   0.987   1.706   0.743  0.4289  0.2482 -0.0605
 4010W        W 7529   5.561   7.326   2.564 -0.2376 -0.3288  0.1561
 4011W        W 7530   0.045   0.198   3.048 -0.2936 -0.1846  0.2186
 4012W        W 7531   6.469   8.931  11.546  0.1660  0.2287 -0.2095
 4013W        W 7532   8.448   4.031   8.604  0.1419 -0.0917 -0.0803
 4014W        W 7533   5.075   8.974   2.725  0.0004 -0.0082 -0.1000
 4015W        W 7534   6.291   8.602   3.764 -0.0418  0.0498 -0.1245
 4016W        W 7535   2.115   6.591  10.790 -0.0618 -0.1911  0.3178
 4017W        W 7536   3.024   1.477  11.624  0.1244 -0.3100  0.0886
 4018W        W 7537   0.657   9.090  11.961  0.2406 -0.2482  0.0062
 4019W        W 7538   2.441   0.570   0.187 -0.0429 -0.3127  0.0449
 4020W        W 7539   1.154   6.881   9.890 -0.1943 -0.1831 -0.2212
 4021W        W 7540   5.012   8.763   2.115  0.1990 -0.4159  0.0485
 4022W        W 7541   3.688   4.893   8.454  0.0114 -0.1682 -0.1641
 4023W        W 7542   1.050   7.311   4.177 -0.0584 -0.0766  0.0384
 4024W        W 7543   6.529   7.951  10.053  0.2184 -0.3210  0.1432
 4025W        W 7544   1.259   3.571   0.474 -0.1017  0.0864  0.1923
 4026W        W 7545   4.980   4.980  11.296  0.0485 -0.0568 -0.2309
 4027W        W 7546   2.785   3.036   0.246  0.1180 -0.1471  0.1886
 4028W        W 7547   4.445   6.618   2.561  0.3969 -0.1819 -0.0843
 4029W        W 7548   0.023   5.998   1.812  0.0378  0.2888  0.0080
 4030W        W 7549   5.608   7.003   1.029 -0.0148 -0.0887  0.0400
 4031W        W 7550   1.630   1.742   2.342  0.1796  0.4936 -0.1553
 4032W        W 7551   5.613   9.567  10.320 -0.1315 -0.0508 -0.1340
 4033W        W 7552   6.506   7.933   8.754  0.0499  0.5906  0.2021
 4034W        W 7553   2.118   4.562  11.574 -0.1337  0.5699  0.2089
 4035W        W 7554   9.067   4.156  12.539  0.1992 -0.2571 -0.0099
 4036W        W 7555   2.332   6.882   0.781  0.1046 -0.1164  0.1185
 4037W        W 7556   8.629   0.253   3.920 -0.1867 -0.3498 -0.0803
 4038W        W 7557   4.821   6.386   2.345 -0.1481  0.1653 -0.0456
 4039W        W 7558   8.264   1.076   0.829 -0.0641  0.2388  0.0204
 4040W        W 7559   9.524   3.231   9.616 -0.1164  0.0156 -0.0466
 4041W        W 7560   2.412   1.340   1.038 -0.0741  0.0215  0.0071
 4042W        W 7561   0.848   6.403   2.942  0.8021  0.2043 -0.0442
 4043W        W 7562   0.652   3.162  12.364 -0.3627  0.0527 -0.1400
 4044W        W 7563   5.473   8.286   9.244 -0.0273  0.1864  0.1978
 4045W        W 7564   0.217   9.503   2.566 -0.3099  0.2053 -0.1038
 4046W        W 7565   8.462   3.457  10.078  0.0030 -0.1633 -0.1804
 4047W        W 7566   5.077   1.026  12.042  0.0701 -0.1319  0.2719
 4048W        W 7567   2.541   1.278   3.915  0.0699  0.1066  0.2488
 4049W        W 7568   8.525   6.285  11.090  0.0532 -0.2217  0.2177
 4050W        W 7569   3.270   2.818  10.237 -0.1039 -0.1792  0.0791
 4051W        W 7570   6.565   3.900   2.574 -0.1111 -0.4671 -0.3470
 4052W        W 7571   4.592   7.834   3.712 -0.1051  0.1614 -0.0252
 4053W        W 7572   7.904   1.792   3.325 -0.0042  0.2531  0.0389
 4054W        W 7573   9.552   5.860  12.551 -0.0686  0.2557 -0.3465
 4055W        W 7574   5.061   1.772   1.571 -0.2772  0.1860  0.1163
 4056W        W 7575   6.293   6.653   9.442 -0.0658 -0.0890  0.0084
 4057W        W 7576   6.445   7.467  11.359 -0.1502 -0.1624 -0.2646
 4058W        W 7577   6.451   4.156   1.721 -0.4265  0.2276  0.0114
 4059W        W 7578   8.578   9.334   0.240 -0.0692 -0.2992  0.2318
 4060W        W 7579   5.996   4.030   1.548 -0.2796 -0.1931  0.0134
 4061W        W 7580   2.692   5.252   9.898  0.0912  0.1021 -0.2503
 4062W        W 7581   0.116   7.040  11.185 -0.4302  0.0714  0.1104
 4063W        W 7582   6.123   9.338  11.686 -0.1681 -0.3460  0.3774
 4064W        W 7583   1.278   3.877   2.351  0.0294 -0.2653 -0.0578
 4065W        W 7584   8.295   6.314   0.933  0.0626 -0.1385  0.0432
 4066W        W 7585   0.002   3.693  11.088  0.0998  0.1336 -0.1803
 4067W        W 7586   9.469   7.498  11.232  0.0399  0.2153  0.2448
 4068W        W 7587   0.741   7.185   2.903  0.4111 -0.2340  0.0638
 4069W        W 7588   6.927   5.938   9.967 -0.0288  0.1991  0.0351
 4070W        W 7589   7.934   8.529   2.824  0.0975  0.0850  0.0006
 4071W        W 7590   4.120   8.663   4.069 -0.3999  0.0055 -0.0849
 4072W        W 7591   5.855   7.300  10.569  0.0296  0.4430 -0.0255
 4073W        W 7592   8.539   8.071  12.100  0.4332 -0.1359 -0.3510
 4074W        W 7593   6.968   6.729  12.018 -0.0548  0.3028  0.1502
 4075W        W 7594   3.252   8.702   2.307 -0.0851  0.2614 -0.1375
 4076W        W 7595   1.753   8.049   1.041 -0.2658  0.4531  0.2835
 4077W        W 7596   4.552   7.173  12.259  0.1971 -0.2240  0.1806
 4078W        W 7597   7.311   2.187  12.079 -0.1112 -0.0300  0.2604
 4079W        W 7598   9.093   5.946   1.254 -0.1614 -0.0603  0.3419
 4080W        W 7599   8.871   3.114   2.942 -0.1238 -0.1127  0.1516
 4081W        W 7600   8.462   4.427   8.170 -0.2567  0.0602 -0.4571
 4082W        W 7601   0.753   0.906  12.262 -0.1390 -0.2800  0.0844
 4083W        W 7602   0.812   8.693   9.490 -0.3349 -0.1040 -0.0198
 4084W        W 7603   2.079   7.879  11.396  0.2234  0.0145  0.2129
 4085W        W 7604   1.703   2.104   1.159  0.0601  0.2133 -0.1801
 4086W        W 7605   4.244   6.634   0.755 -0.0029  0.1299 -0.1718
 4087W        W 7606   8.340   2.842  11.025  0.3255  0.1058 -0.0894
 4088W        W 7607   3.965   1.497   1.185 -0.2251  0.1610 -0.0453
 4089W        W 7608   6.585   1.372   0.576 -0.1606 -0.0553  0.0633
 4090W        W 7609   1.994   9.335  11.882  0.3676  0.0346 -0.0272
 4091W        W 7610   3.352   3.809  11.327  0.2193  0.2168  0.2527
 4092W        W 7611   7.543   1.090   3.319 -0.0061  0.2159 -0.0634
 4093W        W 7612   3.706   6.777  11.330 -0.0509 -0.0247 -0.1407
 4094W        W 7613   0.658   2.280   2.715 -0.1753  0.2323  0.3204
 4095W        W 7614   6.713   3.690   0.468 -0.0377 -0.1182 -0.1926
 4096W        W 7615   6.102   1.661  12.533 -0.1205 -0.1924 -0.3202
 4097W        W 7616   8.062   6.180   4.161  0.1280 -0.0969 -0.1212
 4098W        W 7617   9.595   5.104   2.767  0.0772 -0.0523  0.0692
 4099W        W 7618   3.608   7.349   2.004  0.1213  0.0651  0.1084
 4100W        W 7619   1.911   1.838   8.879  0.2683 -0.2412 -0.3036
 4101W        W 7620   7.569   4.624   0.090  0.2221  0.2916  0.4043
 4102W        W 7621   2.071   5.601   4.091 -0.1296  0.0074 -0.1497
 4103W        W 7622   9.179   0.205   8.313 -0.1489  0.3150 -0.2523
 4104W        W 7623   0.947   3.928   3.244 -0.0671  0.1150 -0.0166
 4105W        W 7624   7.969   3.498  12.569 -0.0327 -0.0944 -0.0028
 4106W        W 7625   4.132   9.290   9.829  0.0745 -0.4375  0.1015
 4107W        W 7626   9.194   8.385  11.467  0.2488 -0.0694 -0.1296
 4108W        W 7627   6.241   6.926   0.390  0.2708 -0.2111 -0.3623
 4109W        W 7628   2.508   3.814  11.630  0.1801 -0.3484  0.2488
 4110W        W 7629   3.645   2.227  11.907 -0.3724  0.2233 -0.1854
 4111W        W 7630   6.123   3.745   3.450  0.0841  0.0840  0.0097
 4112W        W 7631   8.653   7.933   8.371  0.0222  0.0266 -0.2103
 4113W        W 7632   1.435   0.401   9.507  0.4526 -0.1720  0.2557
 4114W        W 7633   9.386   3.188   1.567  0.0036 -0.0219 -0.0645
 4115W        W 7634   7.796   1.953  12.052 -0.0865 -0.0430  0.0850
 4116W        W 7635   6.275   5.947   8.566 -0.0123  0.0598 -0.0896
 4117W        W 7636   0.318   8.764  11.863  0.0084 -0.1176 -0.0257
 4118W        W 7637   2.807   1.982  12.384 -0.0939 -0.1666  0.0804
 4119W        W 7638   1.357   2.247   3.073 -0.4495  0.5864  0.1617
 4120W        W 7639   0.497   6.753   3.164  0.2867 -0.2441  0.0460
 4121W        W 7640   2.129   9.413   0.906 -0.0166  0.2858 -0.0870
 4122W        W 7641   4.725   3.874  11.752  0.0921 -0.2174  0.5326
 4123W        W 7642   2.852   7.055  10.357  0.1333 -0.3433 -0.1924
 4124W        W 7643   0.462   1.356   9.853  0.0841 -0.1188 -0.0462
 4125W        W 7644   6.111   2.241   0.842 -0.1402 -0.1277 -0.0004
 4126W        W 7645   1.592   9.485   9.380  0.0273 -0.3170 -0.0152
 4127W        W 7646   3.957   3.009  11.653  0.3270 -0.2346 -0.1416
 4128W        W 7647   9.485   3.169  12.392  0.5194  0.1121  0.0330
 4129W        W 7648   1.636   4.440  10.661  0.0862  0.2055 -0.0041
 4130W        W 7649   4.146   8.212   0.062  0.0060  0.4464 -0.1256
 4131W        W 7650   7.375   1.913   9.226  0.0516 -0.0122  0.0719
 4132W        W 7651   6.863   1.574   1.503 -0.0184  0.0869  0.1694
 4133W        W 7652   3.641   2.484   1.889 -0.0457  0.1938  0.0291
 4134W        W 7653   5.558   8.441   3.015 -0.6161 -0.4695  0.0005
 4135W        W 7654   1.781   7.031  11.078 -0.2003  0.2398  0.1414
 4136W        W 7655   8.576   5.815  10.225  0.0595  0.4427  0.2155
 4137W        W 7656   0.397   7.700  10.645 -0.0983 -0.1449  0.0391
 4138W        W 7657   7.239   1.329   1.969 -0.3576 -0.0620  0.1685
 4139W        W 7658   5.918   0.908  10.807 -0.1416 -0.2037  0.0154
 4140W        W 7659   5.387   9.622   3.792  0.0775 -0.1361  0.1827
 4141W        W 7660   1.034   6.981   2.289 -0.0274 -0.0140 -0.0838
 4142W        W 7661   1.027   5.990   9.474  0.0336 -0.1430 -0.0222
 4143W        W 7662   6.201   4.560  11.637 -0.0010  0.0971 -0.1737
 4144W        W 7663   5.602   7.781   9.133  0.1875  0.0871  0.2520
 4145W        W 7664   2.052   3.545   2.378  0.0884 -0.0097 -0.2400
 4146W        W 7665   2.906   8.040  11.597  0.1974 -0.0410  0.0623
 4147W        W 7666   8.884   6.243   1.596  0.0792  0.0941 -0.3905
 4148W        W 7667   6.851   7.985   0.475  0.2456  0.0627  0.0310
 4149W        W 7668   1.962   7.553   3.698  0.0849 -0.0078 -0.1523
 4150W        W 7669   5.336   9.157   1.783  0.1194 -0.0635  0.0039
 4151W        W 7670   2.251   2.009   2.971 -0.0003  0.0707  0.0943
 4152W        W 7671   2.691   4.780  10.003  0.4505 -0.0458  0.1059
 4153W        W 7672   4.761   7.619   4.183 -0.0664  0.4458  0.0360
 4154W        W 7673   8.530   6.946   1.914 -0.0583  0.0562  0.0187
 4155W        W 7674   6.327   6.680   1.264 -0.0712  0.0854  0.2472
 4156W        W 7675   7.086   1.916   1.087  0.0563  0.1253  0.1562
 4157W        W 7676   2.915   1.984   0.401 -0.5066 -0.1087 -0.1066
 4158W        W 7677   5.682   5.444  10.205  0.0431 -0.0457 -0.0752
 4159W        W 7678   6.968   8.584  12.226 -0.0884  0.2546  0.1754
 4160W        W 7679   3.333   5.571  10.724  0.3159 -0.0879  0.0406
 4161W        W 7680   8.795   4.336   4.137  0.3811 -0.0530 -0.1660
 4162W        W 7681   8.377   1.442  10.471  0.3387  0.0543  0.1628
 4163W        W 7682   7.962   3.823   8.564  0.2214 -0.0749  0.0826
 4164W        W 7683   0.384   0.807   9.816  0.0362 -0.2254  0.1883
 4165W        W 7684   2.841   0.454   2.386  0.3074 -0.1236  0.1309
 4166W        W 7685   7.113   3.668   1.663  0.1786 -0.0314  0.3369
 4167W        W 7686   4.060   2.752   1.653  0.0916 -0.2143 -0.2248
 4168W        W 7687   5.229   7.357   1.369  0.0935  0.0726 -0.0839
 4169W        W 7688   4.251   5.674  10.745 -0.3025 -0.0537  0.0803
 4170W        W 7689   3.938   7.801   2.147 -0.0771 -0.0925  0.0403
 4171W        W 7690   4.160   7.597   2.542 -0.2942 -0.2043 -0.1826
 4172W        W 7691   2.762   5.452   2.259 -0.2131 -0.1030  0.0433
 4173W        W 7692   0.886   1.073  10.882  0.1224 -0.0541 -0.1962
 4174W        W 7693   3.522   0.958  12.176 -0.1468 -0.4703  0.1481
 4175W        W 7694   6.118   1.877  11.981 -0.3140 -0.1107  0.1299
 4176W        W 7695   5.317   5.449   9.307  0.1338 -0.0570  0.1116
 4177W        W 7696   4.839   1.502  10.195 -0.0474 -0.0498 -0.1351
 4178W        W 7697   2.211   8.671  11.630 -0.0960 -0.0048 -0.0307
 4179W        W 7698   4.568   7.274   1.972 -0.1453 -0.0901 -0.1208
 4180W        W 7699   6.732   6.784   4.013 -0.2948 -0.1563  0.1105
 4181W        W 7700   2.610   4.856   1.533 -0.0606 -0.3708  0.2294
 4182W        W 7701   5.024   0.286  10.748 -0.2868 -0.1880 -0.1388
 4183W        W 7702   8.625   6.243  12.136 -0.1821 -0.1482 -0.0281
 4184W        W 7703   7.966   8.285  10.767 -0.0639 -0.0160 -0.0065
 4185W        W 7704   7.800   5.453   9.536  0.1548  0.0867 -0.0069
 4186W        W 7705   0.189   8.063   2.781  0.3056  0.1182  0.0519
 4187W        W 7706   9.483   8.283   4.737 -0.0450 -0.1820 -0.3794
 4188W        W 7707   0.279   4.370   3.918 -0.0557 -0.2316 -0.2005
 4189W        W 7708   6.182   2.611   2.528  0.2339  0.2052  0.1792
 4190W        W 7709   8.645   9.248   8.508  0.2140  0.2450 -0.2120
 4191W        W 7710   4.643   2.804   1.003  0.0603 -0.3125 -0.1738
 4192W        W 7711   9.581   8.510   9.013 -0.0367  0.0013  0.3026
 4193W        W 7712   0.814   4.350   8.135  0.0296  0.3031  0.0895
 4194W        W 7713   0.113   9.301   9.377  0.0200  0.0867 -0.1129
 4195W        W 7714   9.501   1.016   1.789  0.2687 -0.0200 -0.0995
 4196W        W 7715   6.969   7.799  12.332  0.2426  0.2586 -0.2378
 4197W        W 7716   0.800   6.673  10.509  0.1544  0.1127  0.1186
 4198W        W 7717   8.984   9.526   2.429  0.1773  0.1202 -0.0432
 4199W        W 7718   7.328   8.089   1.996 -0.0473  0.3601  0.1104
 4200W        W 7719   4.677   6.120   8.792  0.0080  0.0555 -0.0382
 4201W        W 7720   2.119   7.103   0.388  0.2705  0.0003 -0.0211
 4202W        W 7721   0.407   5.831   0.051  0.0330 -0.1352  0.3029
 4203W        W 7722   1.588   5.500   3.839 -0.0226 -0.2244 -0.0015
 4204W        W 7723   6.684   6.050   2.337 -0.3316  0.2675  0.1380
 4205W        W 7724   0.574   0.219   0.853 -0.0880  0.1104 -0.3267
 4206W        W 7725   7.454   5.787   0.775  0.2161 -0.0212  0.3039
 4207W        W 7726   7.683   8.873   1.477  0.2258 -0.0624  0.0857
 4208W        W 7727   2.168   5.233   0.059 -0.1061 -0.2702  0.0580
 4209W        W 7728   7.627   3.511  10.218  0.2013  0.0464  0.2377
 4210W        W 7729   8.093   0.494  10.390  0.0154 -0.0710 -0.3789
 4211W        W 7730   5.876   6.026   8.291 -0.0895  0.0424  0.3160
 4212W        W 7731   1.555   1.844   3.374 -0.2590  0.0551  0.1274
 4213W        W 7732   1.445   5.478  10.719  0.1650 -0.1614  0.0754
 4214W        W 7733   8.372   5.555   0.988  0.3072 -0.0841  0.0049
 4215W        W 7734   7.573   1.580   2.921 -0.0756  0.1851 -0.2862
 4216W        W 7735   7.272   3.382  10.707  0.1155  0.0129 -0.1005
 4217W        W 7736   8.674   1.407   9.865  0.2107 -0.2748 -0.2751
 4218W        W 7737   6.541   0.026   8.909 -0.2167 -0.0466  0.2452
 4219W        W 7738   0.630   0.267  10.146 -0.0630  0.1296  0.0698
 4220W        W 7739   3.023   7.253   9.161 -0.0282 -0.0577 -0.2099
 4221W        W 7740   0.708   4.910   2.866  0.1761  0.2374 -0.0735
 4222W        W 7741   5.684   9.298  12.549 -0.2079  0.1400  0.0156
 4223W        W 7742   8.290   2.038   2.824  0.1352  0.2211 -0.0736
 4224W        W 7743   2.359   6.127   3.978 -0.2352 -0.1375  0.2198
 4225W        W 7744   8.098   8.867   3.576 -0.1461  0.0092  0.0032
 4226W        W 7745   8.526   1.600   0.527  0.1777 -0.3973  0.2315
 4227W        W 7746   5.557   5.387   9.718 -0.0041  0.1420 -0.0696
 4228W        W 7747   2.904   2.567  12.431 -0.0680 -0.0543 -0.2219
 4229W        W 7748   7.512   2.190  11.165  0.1911  0.2061 -0.0589
 4230W        W 7749   1.473   5.376  11.765 -0.0413  0.3460 -0.1997
 4231W        W 7750   6.301   3.272   0.580 -0.0391 -0.0703  0.0777
 4232W        W 7751   6.500   2.566   3.605  0.1251  0.0759  0.1333
 4233W        W 7752   5.055   3.122   9.917 -0.1138  0.3661  0.0585
 4234W        W 7753   7.070   5.429  11.597 -0.3058 -0.1026 -0.1598
 4235W        W 7754   6.867   8.495   0.527 -0.0817 -0.0232  0.0541
 4236W        W 7755   0.354   0.323  12.090  0.0997  0.5211  0.0064
 4237W        W 7756   9.043   3.021  10.996  0.0392  0.0416  0.0138
 4238W        W 7757   0.136   2.413   3.427 -0.3797  0.1175  0.1224
 4239W        W 7758   4.943   0.464  11.304 -0.1330 -0.2549  0.1063
 4240W        W 7759   6.736   1.687   2.034  0.1615 -0.2604  0.0947
 4241W        W 7760   7.064   7.049  11.657 -0.3636 -0.1417  0.1883
 4242W        W 7761   5.857   7.302   9.265  0.2102 -0.0094 -0.1572
 4243W        W 7762   8.805   2.218  11.559  0.0066  0.2544  0.0563
 4244W        W 7763   4.175   7.816  10.427 -0.0177  0.0176  0.2705
 4245W        W 7764   9.589   0.335  12.439 -0.1845 -0.2011 -0.0906
 4246W        W 7765   3.664   2.823   1.340 -0.2061 -0.0225 -0.1778
 4247W        W 7766   4.197   9.208   0.135  0.3363  0.2599 -0.1501
 4248W        W 7767   2.871   4.718   0.663  0.1915 -0.0898 -0.3756
 4249W        W 7768   4.775   2.602   9.206 -0.0114 -0.1683 -0.1343
 4250W        W 7769   3.288   9.079   1.017 -0.0112 -0.0033  0.2847
 4251W        W 7770   2.977   4.955   0.081 -0.2648  0.0038  0.0043
 4252W        W 7771   4.265   9.464   9.011  0.2896  0.0576 -0.2082
 4253W        W 7772   5.806   2.672   2.177  0.0402 -0.1276  0.1828
 4254W        W 7773   5.176   2.898  12.552 -0.0540 -0.1977  0.0597
 4255W        W 7774   4.455   8.732  10.095  0.0634 -0.1913  0.2519
 4256W        W 7775   4.055   7.336   2.157 -0.0370 -0.0031 -0.0459
 4257W        W 7776   0.153   1.200  11.714 -0.2677  0.0007 -0.1774
 4258W        W 7777   6.354   0.063   3.924 -0.2820  0.0165  0.1653
 4259W        W 7778   8.438   1.420  11.398 -0.0321 -0.2468  0.2179
 4260W        W 7779   3.871   9.287   3.602  0.1022 -0.0211  0.0261
 4261W        W 7780   5.247   0.890   1.817 -0.0244  0.0554 -0.1582
 4262W        W 7781   1.524   4.342   8.881 -0.0317  0.0365 -0.1382
 4263W        W 7782   4.472   5.251   2.878 -0.0434  0.1063  0.1081
 4264W        W 7783   1.812   4.657   0.949 -0.2370 -0.2164  0.0323
 4265W        W 7784   1.566   2.269   3.633 -0.0412  0.1031  0.0672
 4266W        W 7785   3.495   9.504  11.045 -0.0359 -0.0908 -0.2774
 4267W        W 7786   4.789   9.481  10.417  0.1839  0.3197 -0.1807
 4268W        W 7787   0.648   2.529   2.263  0.0617 -0.0164 -0.1154
 4269W        W 7788   3.843   0.697   2.069  0.0551  0.1816  0.1209
 4270W        W 7789   3.981   5.292   2.730 -0.2306  0.2038 -0.4193
 4271W        W 7790   7.353   0.187  11.556  0.1393  0.0627 -0.3056
 4272W        W 7791   5.181   3.197   2.903  0.0156  0.2771  0.0256
 4273W        W 7792   9.239   2.226  12.234 -0.1444  0.0393  0.0500
 4274W        W 7793   1.558   8.767   0.389 -0.2001 -0.1886 -0.0475
 4275W        W 7794   1.566   6.926  11.686  0.0865 -0.0425 -0.0141
 4276W        W 7795   2.208   5.298   3.589  0.2505  0.0838 -0.1172
 4277W        W 7796   4.092   6.738   1.223  0.1038 -0.1568  0.2592
 4278W        W 7797   1.906   5.810   2.765 -0.0014 -0.0949  0.0316
 4279W        W 7798   1.726   4.127   9.367  0.0487  0.1300  0.0508
 4280W        W 7799   7.675   7.474   1.824 -0.1179  0.0396 -0.5335
 4281W        W 7800   4.706   6.423   3.633 -0.0739 -0.3595 -0.0275
 4282W        W 7801   0.131   8.890   2.348 -0.1851  0.1090  0.0843
 4283W        W 7802   7.311   2.050  10.165 -0.1821 -0.2353 -0.2379
 4284W        W 7803   7.575   1.991   3.726  0.0639 -0.2337  0.2545
 4285W        W 7804   8.018   4.086   0.643 -0.1628  0.0435  0.0049
 4286W        W 7805   2.746   1.890   0.883 -0.2773  0.1566  0.0740
 4287W        W 7806   0.249   5.639   9.858  0.3104  0.1286 -0.0341
 4288W        W 7807   2.333   1.604  12.159  0.2431  0.0314  0.1265
 4289W        W 7808   0.995   1.594   3.535 -0.4151  0.3233 -0.1130
 4290W        W 7809   6.139   7.820  11.672 -0.0542 -0.0167  0.0443
 4291W        W 7810   1.110   9.338   1.085 -0.3013  0.0666  0.0743
 4292W        W 7811   6.779   2.388  11.869  0.1398 -0.0867 -0.1972
 4293W        W 7812   1.724   0.234   9.900  0.0117  0.2750 -0.1073
 4294W        W 7813   3.454   5.239   3.980 -0.1221 -0.0169 -0.3018
 4295W        W 7814   9.628   6.133   0.333  0.1867 -0.1541 -0.3695
 4296W        W 7815   4.057   1.268  11.217  0.3615  0.2518 -0.1332
 4297W        W 7816   4.247   7.300   1.197  0.1883  0.1252 -0.0877
 4298W        W 7817   1.880   5.388   1.254  0.1068  0.3142 -0.2225
 4299W        W 7818   8.775   7.573  10.435  0.0271 -0.1548  0.1087
 4300W        W 7819   9.362   3.407   0.217 -0.2792 -0.2804  0.0163
 4301W        W 7820   2.469   8.427  10.186 -0.2024  0.0743 -0.2749
 4302W        W 7821   6.084   9.617   1.448 -0.0617 -0.1645 -0.0511
 4303W        W 7822   3.186   1.118   1.404 -0.0387 -0.0709 -0.2819
 4304W        W 7823   5.277   9.280  10.515 -0.0897  0.3171 -0.2261
 4305W        W 7824   5.081   0.458   0.911  0.2775 -0.1727 -0.3524
 4306W        W 7825   8.802   8.698  11.578  0.0856 -0.1237 -0.0782
 4307W        W 7826   6.926   0.593   0.188 -0.0449 -0.0361  0.3570
 4308W        W 7827   8.258   7.922   9.317 -0.0580  0.2961 -0.1444
 4309W        W 7828   8.168   9.093   0.994 -0.2139 -0.2710  0.0733
 4310W        W 7829   2.696   1.811  11.365  0.0999  0.1412  0.0464
 4311W        W 7830   1.860   9.511  10.430 -0.1791 -0.1286 -0.0400
 4312W        W 7831   2.658   6.916   2.959 -0.2310  0.0779  0.1853
 4313W        W 7832   6.285   7.511   9.899 -0.0004  0.2877  0.0196
 4314W        W 7833   8.904   6.217  11.745 -0.1171  0.1906  0.2681
 4315W        W 7834   0.665   7.602  10.227 -0.2241 -0.0164 -0.0722
 4316W        W 7835   4.340   7.897   4.273 -0.0277  0.2728  0.1847
 4317W        W 7836   2.386   0.616   1.469 -0.0899  0.0078 -0.1212
 4318W        W 7837   4.433   0.272   9.182 -0.1067 -0.1268 -0.1079
 4319W        W 7838   8.466   1.126   9.431  0.0600  0.3155 -0.0428
 4320W        W 7839   2.860   6.332   3.692 -0.0838 -0.2506 -0.1669
 4321W        W 7840   9.363   5.169   3.785  0.0941 -0.1837 -0.0450
 4322W        W 7841   7.579   4.573  10.517  0.1439  0.1799 -0.1021
 4323W        W 7842   1.458   9.068  11.153  0.0038  0.0912  0.0852
 4324W        W 7843   0.788   7.790   4.144  0.0883 -0.2190 -0.0320
 4325W        W 7844   5.411   6.291  10.020  0.1386  0.3358 -0.0449
 4326W        W 7845   6.174   9.134   9.447  0.0953 -0.2993 -0.1407
 4327W        W 7846   8.497   3.506  12.550  0.0005 -0.2113 -0.0520
 4328W        W 7847   5.245   4.546   2.862 -0.0532 -0.2531 -0.0812
 4329W        W 7848   4.287   4.975  10.242  0.2874  0.4112  0.3331
 4330W        W 7849   5.751   9.355   9.403  0.3457  0.1511  0.0196
 4331W        W 7850   7.601   5.082   2.172  0.2508 -0.0758  0.1056
 4332W        W 7851   9.263   4.577   0.892  0.2939 -0.6198 -0.2828
 4333W        W 7852   8.713   3.794   1.851 -0.1874  0.0270  0.0393
 4334W        W 7853   7.734   6.395   2.269 -0.2147 -0.0739  0.1249
 4335W        W 7854   8.431   6.562   4.444 -0.1214 -0.2382  0.0769
 4336W        W 7855   1.146   8.583   2.506 -0.0473 -0.0646  0.1518
 4337W        W 7856   1.807   7.624   0.794 -0.4120  0.1910  0.0969
 4338W        W 7857   8.837   0.660  10.787  0.0381 -0.1683  0.1268
 4339W        W 7858   1.067   3.430  10.088 -0.1076 -0.0028 -0.1619
 4340W        W 7859   0.307   8.773   1.204 -0.4277 -0.1205  0.0772
 4341W        W 7860   2.981   1.092   0.747 -0.1478 -0.2108 -0.3613
 4342W        W 7861   0.601   7.281   2.357 -0.0568 -0.0837 -0.0547
 4343W        W 7862   8.964   0.422   0.584 -0.1547 -0.0831 -0.2971
 4344W        W 7863   7.206   2.243   1.630 -0.4309 -0.2638 -0.4105
 4345W        W 7864   5.331   1.413  12.281  0.4108  0.1892  0.0437
 4346W        W 7865   1.954   6.791   8.949 -0.0053  0.0804  0.0315
 4347W        W 7866   0.033   3.811   9.725  0.0045  0.0928 -0.0762
 4348W        W 7867   6.734   7.893   1.498 -0.1064 -0.0510  0.2096
 4349W        W 7868   1.832   7.276  10.197 -0.0901 -0.1170  0.1806
 4350W        W 7869   8.795   2.006  12.027 -0.0464  0.0795 -0.2281
 4351W        W 7870   3.186   4.744  11.255 -0.3096  0.3347 -0.1384
 4352W        W 7871   8.563   7.699   2.700  0.0148 -0.1904 -0.0903
 4353W        W 7872   9.213   0.718  12.351  0.4615 -0.0665  0.2119
 4354W        W 7873   2.911   7.013   0.601 -0.0456  0.0293 -0.2958
 4355W        W 7874   9.588   2.802   8.937  0.0373 -0.2185 -0.0856
 4356W        W 7875   0.050   1.772   1.858  0.0827 -0.3020 -0.2031
 4357W        W 7876   4.163   3.581   0.268 -0.3255 -0.2776  0.1544
 4358W        W 7877   6.377   8.950   3.426 -0.3319 -0.1013  0.0944
 4359W        W 7878   5.702   4.202  12.497  0.1344  0.0744  0.0743
 4360W        W 7879   8.973   4.077   3.708 -0.3998  0.0049  0.0986
 4361W        W 7880   1.665   5.617   0.805 -0.2365  0.1127  0.0669
 4362W        W 7881   8.189   0.056   0.202 -0.0826 -0.1343  0.1306
 4363W        W 7882   1.300   0.798   1.756 -0.3141 -0.2767  0.0904
 4364W        W 7883   6.362   0.437   1.481  0.2378  0.2556 -0.0890
 4365W        W 7884   6.529   3.428   3.526  0.1235 -0.0446 -0.3405
 4366W        W 7885   0.018   7.453   0.675  0.0839 -0.1733 -0.0197
 4367W        W 7886   2.114   0.180   1.377 -0.1426  0.1244 -0.0653
 4368W        W 7887   0.874   3.251  11.944  0.0163 -0.1128  0.0901
 4369W        W 7888   0.264   5.142   0.318 -0.1260 -0.2092 -0.3867
 4370W        W 7889   7.785   6.020   9.739 -0.1854 -0.3818  0.1207
 4371W        W 7890   3.538   5.891   2.205 -0.0676  0.0393  0.0176
 4372W        W 7891   0.339   1.332   2.788 -0.0766  0.2965  0.0965
 4373W        W 7892   5.860   3.137   0.825 -0.3195  0.0788  0.1147
 4374W        W 7893   2.294   1.911  10.944 -0.3378 -0.1988  0.0398
 4375W        W 7894   4.160   2.237   1.710  0.1080 -0.0200  0.0476
 4376W        W 7895   8.812   8.364   8.728 -0.0788  0.3589 -0.1452
 4377W        W 7896   6.732   5.425   3.173 -0.1012 -0.0711 -0.0393
 4378W        W 7897   7.218   5.096   0.804 -0.1920  0.0631 -0.3992
 4379W        W 7898   2.563   1.978   3.315  0.1912  0.3507 -0.0361
 4380W        W 7899   5.237   3.934   0.945 -0.1179  0.1436  0.1425
 4381W        W 7900   0.019   0.912  10.647 -0.1377 -0.3590 -0.0309
 4382W        W 7901   6.400   7.222   0.831  0.2144  0.0697  0.0505
 4383W        W 7902   3.225   9.120   1.583 -0.0142  0.1097 -0.0905
 4384W        W 7903   5.101   7.295   3.294 -0.0788 -0.0055 -0.2825
 4385W        W 7904   7.549   2.941   8.252 -0.0532 -0.1695  0.1064
 4386W        W 7905   8.302   3.488  11.601 -0.2616  0.1873  0.0854
 4387W        W 7906   1.711   2.357   0.709 -0.1840 -0.3036  0.1307
 4388W        W 7907   1.836   6.297   2.828  0.0761  0.2099  0.0557
 4389W        W 7908   6.696   0.047   1.334  0.0975  0.0708  0.0762
 4390W        W 7909   4.441   0.476   2.849 -0.2669 -0.1133 -0.0210
 4391W        W 7910   3.679   5.984  12.009  0.2722 -0.2238  0.0141
 4392W        W 7911   0.762   5.636   9.679  0.2384  0.0045  0.0177
 4393W        W 7912   1.553   7.888   3.735  0.1585 -0.2087 -0.3264
 4394W        W 7913   7.772   9.432   9.903 -0.1568 -0.3646  0.0768
 4395W        W 7914   7.442   2.785   3.171  0.1505  0.0479  0.0673
 4396W        W 7915   4.898   1.446   3.202  0.2057  0.1831  0.1301
 4397W        W 7916   3.690   0.829   2.539 -0.0205  0.3830 -0.1167
 4398W        W 7917   4.516   0.944   2.570 -0.1947  0.1025 -0.0647
 4399W        W 7918   4.891   5.316   8.805  0.1136  0.2875 -0.0817
 4400W        W 7919   9.146   7.453   0.438  0.2124  0.0832  0.1552
 4401W        W 7920   5.037   5.131  10.815 -0.0178  0.0071  0.0491
 4402W        W 7921   7.611   4.374   1.258  0.0251  0.0661 -0.1880
 4403W        W 7922   3.919   4.558   0.879  0.1288  0.1119 -0.1489
 4404W        W 7923   6.739   5.876  12.541 -0.1602  0.0988  0.2268
 4405W        W 7924   3.646   3.531  11.678  0.1715  0.2155  0.3420
 4406W        W 7925   1.505   3.456   2.460  0.0678  0.0720 -0.2364
 4407W        W 7926   1.724   3.060   9.593 -0.0735  0.4545 -0.1131
 4408W        W 7927   2.215   1.789  11.620 -0.1338 -0.1110  0.1167
 4409W        W 7928   7.829   0.452   0.122 -0.0092  0.2630  0.1388
 4410W        W 7929   2.357   7.107   2.236  0.1762  0.2161 -0.2567
 4411W        W 7930   7.557   2.907   1.203  0.1734  0.2127  0.2134
 4412W        W 7931   1.557   6.409  12.607  0.0991  0.0946  0.2209
 4413W        W 7932   2.361   0.494   9.706 -0.1424 -0.0400 -0.1499
 4414W        W 7933   3.571   6.531   4.014 -0.1624 -0.0435 -0.2049
 4415W        W 7934   3.828   3.019   8.965  0.1827 -0.0201 -0.1927
 4416W        W 7935   2.134   9.379  10.982 -0.1024  0.0739  0.1180
 4417W        W 7936   2.549   4.468   1.138 -0.1551 -0.3109 -0.0057
 4418W        W 7937   6.079   9.024   1.564 -0.1557  0.0062  0.3793
 4419W        W 7938   7.182   2.916   9.771 -0.0451 -0.3633 -0.1377
 4420W        W 7939   0.777   8.557   1.561  0.0382  0.0570 -0.0893
 4421W        W 7940   5.570   9.510   2.026  0.5622  0.0071  0.0902
 4422W        W 7941   0.282   1.022   9.154  0.1088  0.0104 -0.0421
 4423W        W 7942   4.316   8.229  11.706 -0.2302  0.0126  0.0220
 4424W        W 7943   4.265   7.087   2.535 -0.3370 -0.0707  0.0308
 4425W        W 7944   2.394   4.731   4.447  0.2876 -0.2390  0.0602
 4426W        W 7945   5.168   6.955   9.433 -0.1754  0.3729 -0.1159
 4427W        W 7946   3.688   4.451   1.608 -0.0800 -0.1216 -0.0420
 4428W        W 7947   6.765   7.277   4.003 -0.0634  0.2329  0.0250
 4429W        W 7948   3.101   4.129   2.821 -0.2469 -0.2789  0.4331
 4430W        W 7949   6.228   5.630  11.520 -0.2828  0.0085 -0.1876
 4431W        W 7950   2.716   0.206  10.012  0.1749  0.1050 -0.1548
 4432W        W 7951   0.987   8.452   9.999 -0.0140  0.3182 -0.5676
 4433W        W 7952   0.701   0.976   3.695  0.2981  0.1870 -0.0436
 4434W        W 7953   8.415   6.940   0.280  0.1054 -0.2156 -0.0494
 4435W        W 7954   2.067   9.264   2.991 -0.4190 -0.0166  0.2060
 4436W        W 7955   4.618   0.377  10.449 -0.2862 -0.0224  0.1269
 4437W        W 7956   1.614   0.932   0.334  0.1859 -0.0137  0.0583
 4438W        W 7957   7.699   4.853   4.024  0.1031 -0.1406  0.0832
 4439W        W 7958   5.579   5.295   2.675 -0.0732  0.2347  0.1283
 4440W        W 7959   7.568   8.447   1.145 -0.2052  0.2188  0.0363
 4441W        W 7960   3.057   9.275  10.938 -0.0801 -0.0533  0.1097
 4442W        W 7961   8.319   6.104   9.803 -0.0643 -0.0803 -0.0308
 4443W        W 7962   5.277   9.315  11.007  0.0757 -0.0895  0.2834
 4444W        W 7963   4.238   5.238   9.638 -0.1938  0.0870 -0.0655
 4445W        W 7964   7.585   2.396   9.845 -0.1600 -0.1333 -0.0185
 4446W        W 7965   4.860   2.621   2.760  0.0653  0.0749 -0.0240
 4447W        W 7966   3.254   7.465  10.290  0.0888 -0.1192  0.0073
 4448W        W 7967   2.204   3.200   2.743  0.1571 -0.1372  0.1184
 4449W        W 7968   4.684   5.486  12.095 -0.2385  0.2066  0.0767
 4450W        W 7969   2.166   0.631  12.341  0.0484 -0.1875 -0.2130
 4451W        W 7970   2.914   5.254   0.521  0.2582 -0.1132 -0.1603
 4452W        W 7971   6.383   5.878   3.970  0.2187 -0.1046 -0.0751
 4453W        W 7972   9.474   3.460  11.496  0.0079 -0.1926  0.0307
 4454W        W 7973   8.638   6.626  11.444  0.1771  0.2259 -0.1231
 4455W        W 7974   8.194   4.035   4.918  0.0420 -0.1639  0.2656
 4456W        W 7975   1.844   1.586   0.707 -0.1284 -0.3451 -0.1970
 4457W        W 7976   6.661   6.615  10.686 -0.1336  0.3251 -0.1372
 4458W        W 7977   1.717   0.056  10.853 -0.0907  0.0284 -0.3197
 4459W        W 7978   2.250   2.344   9.626 -0.3095  0.2872 -0.1368
 4460W        W 7979   9.084   9.441  11.958 -0.1068  0.0421 -0.1865
 4461W        W 7980   5.693   0.430  11.436 -0.0596  0.2793 -0.2108
 4462W        W 7981   4.249   4.466   1.624  0.2805  0.0417 -0.5098
 4463W        W 7982   5.915   3.803  10.167 -0.0027 -0.1614  0.2181
 4464W        W 7983   0.081   9.380  11.254 -0.0774  0.1070  0.0102
 4465W        W 7984   8.839   3.428   3.988  0.2868 -0.0207  0.1431
 4466W        W 7985   3.148   5.496   9.821  0.0733 -0.0880  0.2188
 4467W        W 7986   5.029   9.605  12.236  0.0483  0.1979  0.2638
 4468W        W 7987   2.572   2.167   1.705  0.2481 -0.0917 -0.2038
 4469W        W 7988   0.158   0.071  10.227  0.0663  0.2840 -0.1130
 4470W        W 7989   4.197   8.321   4.466 -0.0306 -0.1288 -0.0724
 4471W        W 7990   0.354   3.207   2.777 -0.3298  0.0756 -0.0518
 4472W        W 7991   2.833   4.329   0.160 -0.3300 -0.2154  0.0277
 4473W        W 7992   2.379   5.612   2.616 -0.4076  0.0226  0.2442
 4474W        W 7993   3.367   3.061   0.177 -0.0601  0.1756  0.0032
 4475W        W 7994   4.272   1.427  12.273  0.0483 -0.1604  0.0047
 4476W        W 7995   6.711   0.495   1.084 -0.0093  0.0823 -0.0408
 4477W        W 7996   3.015   3.347  11.443 -0.1860 -0.2776 -0.0004
 4478W        W 7997   8.237   8.275  12.483  0.1331  0.3238  0.1359
 4479W        W 7998   3.361   0.266  10.697  0.2988  0.0146  0.2295
 4480W        W 7999   1.394   1.335   1.889 -0.0402 -0.1232 -0.0141
 4481W        W 8000   5.483   3.748   4.172 -0.0370 -0.2194  0.2497
 4482W        W 8001   6.376   7.052  12.505  0.2564  0.0928 -0.0627
 4483W        W 8002   1.462   9.475   2.386 -0.0533 -0.3591  0.3209
 4484W        W 8003   9.217   1.182   1.081 -0.0611 -0.1163  0.1346
 4485W        W 8004   7.337   8.562   0.045 -0.0204  0.3599  0.2725
 4486W        W 8005   0.759   2.757  10.562  0.1758  0.1013  0.3854
 4487W        W 8006   5.698   3.141   9.629 -0.1532 -0.0954  0.0727
 4488W        W 8007   9.656   2.238   2.020  0.0608  0.6699  0.1702
 4489W        W 8008   6.561   5.804  11.137 -0.0151 -0.0672  0.0381
 4490W        W 8009   5.210   4.196   4.379 -0.1275  0.2766  0.3395
 4491W        W 8010   1.997   8.526   0.351 -0.2543  0.1767 -0.3015
 4492W        W 8011   8.632   2.919   3.824 -0.0737 -0.1925 -0.3476
 4493W        W 8012   6.458   8.169   4.038  0.1351  0.1944 -0.0404
 4494W        W 8013   0.090   7.903  10.247  0.1013 -0.3509 -0.1711
 4495W        W 8014   5.057   2.905   3.493  0.4200  0.3455  0.0194
 4496W        W 8015   1.170   7.412   9.186  0.2207  0.0053 -0.0875
 4497W        W 8016   5.107   3.489  11.864  0.3142  0.0785  0.0418
 4498W        W 8017   0.588   4.794  11.120  0.0440 -0.1673 -0.2032
 4499W        W 8018   4.913   5.811  11.711 -0.1136 -0.1742 -0.1309
 4500W        W 8019   9.010   1.984   8.626 -0.0858  0.0714 -0.0439
 4501W        W 8020   5.276   4.362   0.011  0.2417 -0.1255  0.0454
 4502W        W 8021   1.371   8.238   5.106  0.3510  0.1212  0.3610
 4503W        W 8022   2.022   3.892  12.621  0.2044 -0.1620  0.2066
 4504W        W 8023   3.303   5.034   2.353 -0.1018  0.3431  0.0946
 4505W        W 8024   4.994   7.030  12.474  0.0784  0.0567  0.2641
 4506W        W 8025   0.210   3.610   3.074 -0.2245 -0.1287 -0.0242
 4507W        W 8026   6.805   6.597   9.424 -0.1586 -0.1769 -0.0732
 4508W        W 8027   7.462   4.625   0.602 -0.1499 -0.0625 -0.4232
 4509W        W 8028   3.752   7.022  12.302 -0.0582  0.4453 -0.0398
 4510W        W 8029   5.892   8.120   3.204 -0.1027  0.1220 -0.2378
 4511W        W 8030   8.247   0.680  11.983  0.1848 -0.1543 -0.1578
 4512W        W 8031   7.542   8.998   3.975  0.0821  0.0752  0.0892
 4513W        W 8032   5.234   1.580   4.196 -0.0629  0.0687  0.2296
 4514W        W 8033   7.196   3.509   0.477 -0.3077  0.0866  0.1401
 4515W        W 8034   9.628   4.240  11.163  0.1735 -0.0733  0.3613
 4516W        W 8035   8.512   7.966  10.472 -0.2743 -0.2124 -0.0983
 4517W        W 8036   7.781   4.832   3.144 -0.3129 -0.0133 -0.0858
 4518W        W 8037   8.013   8.247   9.026 -0.3736 -0.1077  0.2250
 4519W        W 8038   9.064   4.104   3.119 -0.1791  0.2436 -0.0613
 4520W        W 8039   1.619   5.098   3.515  0.3787  0.2651 -0.4980
 4521W        W 8040   3.818   4.420   3.354  0.3413  0.0788 -0.2547
 4522W        W 8041   7.825   2.437   0.916 -0.1551  0.1819 -0.2557
 4523W        W 8042   6.624   6.322   1.125 -0.1128  0.3156 -0.1744
 4524W        W 8043   8.194   5.010  10.683 -0.2114 -0.1444 -0.2641
 4525W        W 8044   5.855   4.550   3.728  0.1524 -0.3819  0.1839
 4526W        W 8045   8.805   5.832   0.777  0.0571  0.1857  0.1332
 4527W        W 8046   1.669   5.478   8.934 -0.0310 -0.0931  0.0237
 4528W        W 8047   5.211   3.420  12.543  0.0595  0.2860 -0.4322
 4529W        W 8048   7.541   6.883   0.395 -0.0944 -0.1118  0.1637
 4530W        W 8049   4.942   2.346   0.684  0.0166 -0.3052  0.0930
 4531W        W 8050   9.489   3.328   4.686 -0.0268  0.0376  0.1777
 4532W        W 8051   1.537   5.035   1.082 -0.0713 -0.0731 -0.2406
 4533W        W 8052   7.494   5.538   1.360  0.2864 -0.0433 -0.0034
 4534W        W 8053   4.710   8.989   8.406  0.0362 -0.2258 -0.1278
 4535W        W 8054   9.195   4.809   7.954 -0.4754  0.2156  0.3357
 4536W        W 8055   5.771   7.780  10.513 -0.2112 -0.1586 -0.2062
 4537W        W 8056   6.023   6.796   9.891  0.1191 -0.0023  0.0594
 4538W        W 8057   2.266   5.532   9.571  0.3022 -0.2074  0.1868
 4539W        W 8058   0.534   3.331   1.718  0.3636  0.1274 -0.0678
 4540W        W 8059   7.942   1.307   1.179 -0.1018  0.0433  0.0207
 4541W        W 8060   6.598   4.566  12.504  0.1130  0.1030 -0.2325
 4542W        W 8061   7.087   2.483   9.428 -0.2052  0.4388 -0.3080
 4543W        W 8062   5.579   5.914  10.381  0.4114  0.0960 -0.0994
 4544W        W 8063   5.467   4.799   2.488  0.0184 -0.3212 -0.1034
 4545W        W 8064   8.345   2.747   2.365  0.1120 -0.0057  0.0716
 4546W        W 8065   8.185   0.607  11.418 -0.0155 -0.0073 -0.0109
 4547W        W 8066   1.039   7.606  11.640  0.1380 -0.2885  0.0671
 4548W        W 8067   5.452   7.048  12.198 -0.1926  0.0705 -0.1078
 4549W        W 8068   0.415   2.573   1.200 -0.3734 -0.1355 -0.1913
 4550W        W 8069   0.554   5.096   1.515 -0.0560  0.0883 -0.0435
 4551W        W 8070   6.631   4.380   1.209 -0.1391  0.0497 -0.0354
 4552W        W 8071   9.615   1.198   2.278 -0.0677 -0.0800 -0.2516
 4553W        W 8072   3.474   8.771  10.278  0.3225  0.0395 -0.2393
 4554W        W 8073   6.737   4.131   9.947  0.2845  0.0467 -0.0876
 4555W        W 8074   4.377   3.098  11.378  0.4094  0.3393 -0.1346
 4556W        W 8075   3.714   4.707  12.570 -0.0820  0.2952  0.5812
 4557W        W 8076   3.304   7.608   9.413 -0.2157  0.0505  0.1665
 4558W        W 8077   3.703   3.146   1.723  0.0122 -0.0204 -0.2608
 4559W        W 8078   3.875   6.898   1.893 -0.1043 -0.1289  0.0652
 4560W        W 8079   6.857   1.152  10.691 -0.0078 -0.0999 -0.3767
 4561W        W 8080   2.470   6.311   8.579  0.0315  0.0693  0.0453
 4562W        W 8081   7.084   7.658   9.477 -0.0643 -0.2588 -0.0335
 4563W        W 8082   1.186   5.240   9.731  0.1952 -0.2474  0.0057
 4564W        W 8083   8.270   7.547  10.433  0.2719  0.3051 -0.2068
 4565W        W 8084   7.059   9.589   2.459  0.1321 -0.0747  0.3756
 4566W        W 8085   0.678   8.898  12.542  0.1428  0.1701  0.0723
 4567W        W 8086   0.507   8.522   9.807 -0.0161  0.1430  0.0194
 4568W        W 8087   8.531   7.833  12.548 -0.1071  0.0940  0.0769
 4569W        W 8088   7.192   8.164   1.354  0.0132 -0.0880 -0.2311
 4570W        W 8089   1.477   2.095  11.144  0.2021 -0.1244  0.0799
 4571W        W 8090   5.369   7.995   0.257  0.0481  0.0545 -0.2502
 4572W        W 8091   9.053   1.212  11.325  0.1330  0.0128  0.0884
 4573W        W 8092   6.780   3.357   8.500  0.2514 -0.4495 -0.1884
 4574W        W 8093   8.375   3.672   0.833  0.0803  0.1502  0.0818
 4575W        W 8094   4.038   4.294  12.384  0.1765 -0.2433  0.0522
 4576W        W 8095   3.373   2.724  12.459  0.0120  0.2695 -0.1270
 4577W        W 8096   6.598   2.875  11.015 -0.0059 -0.0562 -0.0686
 4578W        W 8097   9.625   0.189  11.084 -0.0864  0.0047 -0.0213
 4579W        W 8098   3.789   0.401  11.002  0.0368 -0.3580 -0.0502
 4580W        W 8099   5.598   7.175   2.066  0.2090  0.0924 -0.2380
 4581W        W 8100   4.896   3.975   4.060 -0.1893  0.1184  0.0094
 4582W        W 8101   7.012   6.898   0.109 -0.0909 -0.2415  0.0606
 4583W        W 8102   4.904   2.910   0.351  0.0910 -0.0879  0.2032
 4584W        W 8103   3.304   5.855   8.528 -0.0603 -0.0720 -0.0333
 4585W        W 8104   3.452   2.911  10.700  0.1311  0.0044 -0.2443
 4586W        W 8105   4.359   5.766   1.184 -0.0805  0.1909  0.1731
 4587W        W 8106   4.854   3.157  12.195 -0.0624  0.0718  0.2976
 4588W        W 8107   0.278   7.584   3.042 -0.0340  0.1862 -0.0204
 4589W        W 8108   0.253   6.499  11.211  0.5935 -0.0436  0.1444
 4590W        W 8109   0.745   4.396   9.463 -0.0871  0.1304 -0.1051
 4591W        W 8110   1.420   1.903   0.686 -0.2119  0.1196 -0.2345
 4592W        W 8111   1.365   6.361   2.890  0.0180 -0.1627  0.1623
 4593W        W 8112   3.649   8.891  12.132 -0.0003 -0.2160  0.2480
 4594W        W 8113   7.530   6.037   1.233 -0.1009 -0.3038  0.0721
 4595W        W 8114   1.378   8.706   2.070  0.0156  0.0236 -0.1832
 4596W        W 8115   8.500   5.392   3.749 -0.0929  0.2331 -0.2432
 4597W        W 8116   2.450   7.789   9.972 -0.0087  0.2281  0.1428
 4598W        W 8117   6.861   4.454  11.239 -0.0603 -0.1287  0.1357
 4599W        W 8118   0.042   6.404  10.413 -0.2706 -0.3064  0.1960
 4600W        W 8119   5.176   1.392   1.926 -0.1851 -0.0796  0.3040
 4601W        W 8120   9.100   7.055   0.151  0.1589 -0.1214  0.1384
 4602W        W 8121   4.345   0.436   1.920  0.2993 -0.2364  0.0368
 4603W        W 8122   1.530   8.652  10.446  0.0732 -0.0096 -0.3218
 4604W        W 8123   0.036   5.410  12.486  0.0513  0.4236 -0.2513
 4605W        W 8124   5.641   9.488  11.611 -0.1390 -0.2633  0.1084
 4606W        W 8125   7.980   0.221   9.778  0.1384 -0.1522 -0.1150
 4607W        W 8126   5.263   4.106   3.070 -0.2441 -0.0477  0.0056
 4608W        W 8127   8.178   4.464  11.502 -0.0776  0.0395 -0.2026
 4609W        W 8128   3.925   0.098   9.356 -0.0505 -0.0044 -0.0372
 4610W        W 8129   4.360   9.563  10.715 -0.0485  0.1941  0.1178
 4611W        W 8130   0.001   8.462  11.105  0.1519 -0.1305  0.2841
 4612W        W 8131   2.029   3.373   0.219 -0.2392 -0.0240 -0.1702
 4613W        W 8132   0.622   3.651  11.586  0.2389  0.0697  0.0565
 4614W        W 8133   8.530   5.784   3.022 -0.2970 -0.1587 -0.1375
 4615W        W 8134   4.892   7.068   0.443  0.2119  0.3001 -0.1522
 4616W        W 8135   4.215   1.787   3.367  0.2810  0.0965 -0.2031
 4617W        W 8136   1.809   8.117   8.006 -0.1319 -0.0167 -0.0834
 4618W        W 8137   6.313   1.326   3.201 -0.3436 -0.0693 -0.0110
 4619W        W 8138   7.528   6.298   4.084  0.1158  0.0168 -0.1710
 4620W        W 8139   7.531   7.234   9.421 -0.0118 -0.0119 -0.0591
 4621W        W 8140   0.204   4.857   1.850 -0.2638 -0.1086 -0.1241
 4622W        W 8141   9.438   3.914   4.403 -0.1713 -0.2538 -0.0731
 4623W        W 8142   0.152   3.405  10.593  0.1178 -0.0826 -0.0100
 4624W        W 8143   2.957   3.332   8.946  0.0015  0.1853  0.0080
 4625W        W 8144   8.545   8.405   9.204  0.1732  0.0187  0.0562
 4626W        W 8145   3.725   4.941   4.386  0.1829  0.1646  0.3105
 4627W        W 8146   0.170   6.230  12.548 -0.0724 -0.2244  0.1980
 4628W        W 8147   1.050   9.409   2.836  0.0554 -0.0247 -0.1183
 4629W        W 8148   4.957   8.204   3.687 -0.1198  0.3395  0.3339
 4630W        W 8149   2.053   6.742   3.398  0.1738 -0.2114  0.1801
 4631W        W 8150   2.063   9.585   0.330  0.0282  0.0285 -0.2859
 4632W        W 8151   1.789   7.589   9.773 -0.0485 -0.1845  0.2858
 4633W        W 8152   7.381   5.674   9.791  0.2509 -0.0123  0.3024
 4634W        W 8153   0.706   6.148   9.831  0.3742  0.0200 -0.1625
 4635W        W 8154   7.643   4.889  12.260  0.0802  0.1273 -0.0358
 4636W        W 8155   6.002   6.327   2.917 -0.1182  0.1164 -0.1151
 4637W        W 8156   5.304   5.228   1.422  0.1886 -0.0130  0.1277
 4638W        W 8157   2.942   4.184  11.332 -0.1233 -0.0944  0.0449
 4639W        W 8158   2.732   6.016  10.257  0.2363  0.0623  0.0323
 4640W        W 8159   6.314   8.079   9.569  0.2663  0.1410 -0.1953
 4641W        W 8160   2.385   1.532   1.608 -0.1931  0.0600  0.1586
 4642W        W 8161   0.484   7.366   0.903 -0.3594 -0.2828  0.2021
 4643W        W 8162   6.500   0.506   1.960 -0.1011 -0.1424 -0.1868
 4644W        W 8163   6.035   2.764   1.392 -0.2088  0.0494 -0.0654
 4645W        W 8164   8.449   4.685   4.330 -0.0309 -0.0258 -0.0741
 4646W        W 8165   3.226   1.035  11.341 -0.1570  0.0699  0.0590
 4647W        W 8166   9.273   4.199   2.579  0.0755  0.1178 -0.1186
 4648W        W 8167   2.252   9.466  11.471  0.2267 -0.0696  0.1753
 4649W        W 8168   7.390   3.173  12.064  0.2238  0.1799  0.0744
 4650W        W 8169   6.963   3.054   2.345  0.0801  0.2643  0.0994
 4651W        W 8170   5.343   8.366   4.015  0.1741  0.1419  0.1651
 4652W        W 8171   5.598   3.075   9.087 -0.1290  0.1382 -0.1009
 4653W        W 8172   8.483   6.319   8.724  0.0851 -0.0051 -0.0020
 4654W        W 8173   5.564   3.857   1.390 -0.1380 -0.3183 -0.0150
 4655W        W 8174   4.366   9.077   1.770 -0.2289 -0.0430  0.0597
 4656W        W 8175   6.718   7.148  11.033 -0.1694 -0.0935 -0.1350
 4657W        W 8176   9.340   8.866   2.356  0.2939  0.3380 -0.0035
 4658W        W 8177   2.494   2.374  12.238  0.2848  0.2652 -0.3142
 4659W        W 8178   0.304   2.089   2.415 -0.0956 -0.1995  0.1353
 4660W        W 8179   4.361   5.743  11.356  0.2700  0.0075 -0.2272
 4661W        W 8180   6.844   2.935   3.802 -0.0141  0.3124 -0.2256
 4662W        W 8181   6.112   1.720   3.305  0.0713 -0.3483  0.0475
 4663W        W 8182   4.423   1.277   0.920  0.0660  0.0346 -0.0205
 4664W        W 8183   9.348   4.322   8.855 -0.1016  0.1373  0.2685
 4665W        W 8184   4.336   6.814   3.063  0.1331  0.0298  0.2380
 4666W        W 8185   9.031   5.537  10.163  0.3241  0.2520  0.2238
 4667W        W 8186   4.290   8.385   1.413 -0.0457  0.2180  0.3061
 4668W        W 8187   7.987   1.665   4.492 -0.3944 -0.0043  0.1875
 4669W        W 8188   8.782   1.309   3.364 -0.1369 -0.0894  0.0868
 4670W        W 8189   6.301   0.823   3.816  0.3050  0.4420 -0.1064
 4671W        W 8190   8.902   2.615   0.538 -0.1032 -0.0311  0.0298
 4672W        W 8191   1.313   2.703   9.479 -0.0910  0.0058  0.0313
 4673W        W 8192   0.794   5.028   8.743  0.1418 -0.1772 -0.0559
 4674W        W 8193   5.071   5.130  12.104  0.1438 -0.3040 -0.1561
 4675W        W 8194   2.023   4.255   2.524 -0.1259  0.0615 -0.2983
 4676W        W 8195   8.528   1.077   0.386  0.0600  0.0246  0.0015
 4677W        W 8196   0.715   5.283   2.546  0.0103 -0.2740 -0.0921
 4678W        W 8197   7.014   5.308   4.101 -0.0962 -0.0460  0.0412
 4679W        W 8198   8.570   0.453   0.232 -0.1833 -0.0457  0.3812
 4680W        W 8199   8.012   5.661   9.971 -0.0748  0.0406 -0.0066
 4681W        W 8200   3.499   7.343   9.023 -0.3575  0.2330 -0.1614
 4682W        W 8201   0.592   7.692  11.982  0.0308  0.1032  0.1705
 4683W        W 8202   7.225   8.830   2.988 -0.2899  0.0237  0.1170
 4684W        W 8203   8.598   4.927  10.439  0.2971  0.1160  0.0979
 4685W        W 8204   1.150   6.816   2.735 -0.0317  0.4307 -0.0443
 4686W        W 8205   8.330   4.279  10.523 -0.2439 -0.3560 -0.0643
 4687W        W 8206   1.081   7.871   1.896 -0.0590  0.3348  0.1050
 4688W        W 8207   6.476   8.383   0.230  0.1040 -0.0473 -0.4060
 4689W        W 8208   8.244   4.472  12.515 -0.1207  0.1578  0.0701
 4690W        W 8209   7.205   6.559  11.417  0.0461 -0.2301  0.3248
 4691W        W 8210   1.167   7.472  10.134 -0.1996  0.0725 -0.3375
 4692W        W 8211   5.385   7.289  10.365 -0.1868 -0.1755  0.0421
 4693W        W 8212   6.446   8.347   9.046  0.0131 -0.0667  0.2385
 4694W        W 8213   9.325   0.167   2.204  0.0825  0.2140  0.2908
 4695W        W 8214   2.214   8.383   4.276  0.2540 -0.1260  0.1136
 4696W        W 8215   3.928   5.660   3.829  0.2620 -0.0651  0.2117
 4697W        W 8216   2.957   6.228  10.663  0.6148 -0.0971  0.1620
 4698W        W 8217   8.490   1.969   3.319 -0.2354  0.0671 -0.1199
 4699W        W 8218   9.666   0.342   2.565 -0.1471 -0.0358  0.1085
 4700W        W 8219   9.225   6.148   0.734  0.0345 -0.4310  0.2171
 4701W        W 8220   4.559   3.524   9.075  0.3217  0.0889 -0.3658
 4702W        W 8221   3.066   8.261   2.792  0.2182 -0.1186  0.3400
 4703W        W 8222   6.700   7.942   0.965  0.1589  0.2193 -0.0433
 4704W        W 8223   3.447   3.732   2.886 -0.2044 -0.1287  0.1297
 4705W        W 8224   8.444   2.571   8.660  0.0341  0.0305 -0.1263
 4706W        W 8225   4.139   0.415  10.205 -0.2472 -0.0006 -0.3026
 4707W        W 8226   4.692   8.922  11.654 -0.2261  0.1488  0.2138
 4708W        W 8227   3.700   9.585   0.400 -0.2224  0.5080  0.3266
 4709W        W 8228   1.414   3.071  10.880  0.1544  0.2308 -0.0391
 4710W        W 8229   2.700   0.962  10.843 -0.1521 -0.1669  0.2393
 4711W        W 8230   7.026   7.057   0.863 -0.3985  0.0481 -0.3320
 4712W        W 8231   5.582   8.718   0.710  0.0842 -0.3149 -0.0435
 4713W        W 8232   3.703   0.869  11.664  0.0262  0.2726  0.0926
 4714W        W 8233   4.480   2.198   9.063  0.0256 -0.0377 -0.1356
 4715W        W 8234   9.377   3.787  11.896 -0.0639 -0.1608  0.0432
 4716W        W 8235   4.292   3.000   0.727  0.1135 -0.1498  0.0779
 4717W        W 8236   8.757   1.750   1.667 -0.3323  0.0404  0.0090
 4718W        W 8237   9.452   5.021   0.864 -0.0557 -0.1722 -0.0483
 4719W        W 8238   0.515   5.951   3.018  0.2252  0.2892  0.1670
 4720W        W 8239   4.578   3.496  12.614 -0.1160 -0.1693 -0.0263
 4721W        W 8240   9.113   5.713  10.968  0.1858  0.5353 -0.2995
 4722W        W 8241   2.271   3.172  10.159 -0.2025  0.0205  0.0239
 4723W        W 8242   3.734   8.768  11.540  0.1379  0.0062  0.1042
 4724W        W 8243   2.156   2.366   1.147 -0.0820  0.0681  0.1849
 4725W        W 8244   6.908   7.151   2.085  0.0253 -0.0681 -0.0943
 4726W        W 8245   3.066   6.302   1.336 -0.2274  0.3475 -0.1180
 4727W        W 8246   2.663   5.063  11.390  0.5170  0.0306  0.0786
 4728W        W 8247   7.621   6.590  11.139 -0.1410 -0.0941 -0.1749
 4729W        W 8248   6.013   6.787   0.857 -0.1209  0.2323  0.2705
 4730W        W 8249   2.840   1.074  11.878 -0.0367  0.1272 -0.0254
 4731W        W 8250   9.148   1.698   0.749 -0.3142  0.4799 -0.2138
 4732W        W 8251   9.336   1.827  11.290 -0.1586 -0.1259  0.2886
 4733W        W 8252   9.230   2.985   3.250  0.0021 -0.0267 -0.0049
 4734W        W 8253   8.617   2.385   3.590 -0.1712  0.0848  0.0040
 4735W        W 8254   5.555   2.774   3.543  0.2938  0.0107 -0.1830
 4736W        W 8255   8.640   6.132   3.495 -0.4183 -0.0936 -0.0018
 4737W        W 8256   8.816   7.583  11.296 -0.3613 -0.0863 -0.0637
 4738W        W 8257   6.224   3.992   8.828 -0.5167  0.1010  0.1338
 4739W        W 8258   1.497   6.267   8.697  0.1386  0.1460  0.0308
 4740W        W 8259   1.157   2.585  10.838  0.0033 -0.1238 -0.0032
 4741W        W 8260   8.943   1.507   0.222  0.2838 -0.0249 -0.4724
 4742W        W 8261   4.296   4.836   0.665  0.0393 -0.1843 -0.1456
 4743W        W 8262   9.559   5.951  10.859  0.0148  0.1890  0.2833
 4744W        W 8263   3.360   5.434   8.818 -0.3038  0.3043 -0.0775
 4745W        W 8264   7.984   5.348  11.973 -0.0683  0.2129  0.2456
 4746W        W 8265   3.513   6.217   1.657  0.0205  0.0735 -0.0929
 4747W        W 8266   4.705   8.807   4.961  0.2502  0.0235  0.1917
 4748W        W 8267   5.357   6.069   9.531  0.0999 -0.1682  0.0416
 4749W        W 8268   5.942   1.331   3.583  0.0617  0.1086  0.0398
 4750W        W 8269   9.218   0.274   9.725 -0.3816  0.1445 -0.0665
 4751W        W 8270   2.844   7.944   1.464  0.1498  0.0023 -0.2162
 4752W        W 8271   0.978   8.082   2.343 -0.1007 -0.1821 -0.2478
 4753W        W 8272   5.834   3.357   2.290 -0.0495 -0.0706 -0.0774
 4754W        W 8273   2.682   0.413  12.419  0.1133  0.2077  0.1440
 4755W        W 8274   7.190   5.203   3.323 -0.3088 -0.3091  0.2341
 4756W        W 8275   5.489   1.351  10.396  0.2802  0.3215  0.2330
 4757W        W 8276   2.903   6.965   1.611  0.0034  0.4428  0.1919
 4758W        W 8277   4.066   7.060   0.749  0.0323  0.4883 -0.2775
 4759W        W 8278   0.120   4.920   1.251 -0.2874 -0.2337 -0.1205
 4760W        W 8279   5.918   9.156  12.116  0.1114  0.2468  0.0432
 4761W        W 8280   0.529   2.149   9.416  0.0159 -0.2347 -0.2528
 4762W        W 8281   6.010   0.089  10.136  0.0789  0.0303  0.3277
 4763W        W 8282   8.581   4.009   2.967  0.1206 -0.6240 -0.2316
 4764W        W 8283   7.735   6.168   4.542  0.0904 -0.0119  0.0119
 4765W        W 8284   0.743   1.083   8.989 -0.2051  0.0652 -0.0556
 4766W        W 8285   5.956   7.236   3.627  0.0048  0.1909 -0.0552
 4767W        W 8286   7.557   1.665   1.211 -0.0198 -0.4023 -0.1304
 4768W        W 8287   7.073   6.923   3.217 -0.1253 -0.2342  0.2115
 4769W        W 8288   4.412   6.801   2.074  0.1271 -0.4351 -0.1013
 4770W        W 8289   5.465   6.809   2.415  0.3150  0.0393  0.0588
 4771W        W 8290   0.127   3.820  11.664  0.1059 -0.0810 -0.1029
 4772W        W 8291   9.647   0.108   9.386  0.2373 -0.4453  0.1046
 4773W        W 8292   1.882   4.121   1.759  0.0271  0.1014  0.0160
 4774W        W 8293   7.061   6.290   1.474  0.1751 -0.0300 -0.2887
 4775W        W 8294   2.126   9.219   2.058 -0.0728 -0.1878  0.1623
 4776W        W 8295   2.740   0.787   3.493 -0.0408  0.1087  0.1020
 4777W        W 8296   1.626   8.645   5.053 -0.0143  0.0869  0.2345
 4778W        W 8297   1.257   6.047  12.432 -0.0282  0.0781 -0.1593
 4779W        W 8298   3.976   3.940   0.625 -0.0665  0.1089 -0.2704
 4780W        W 8299   7.396   6.948   1.154  0.0427 -0.0529  0.0877
 4781W        W 8300   8.640   4.560  11.816 -0.0620 -0.1022 -0.2690
 4782W        W 8301   1.377   9.531  10.213  0.0015 -0.0774  0.0900
 4783W        W 8302   2.852   7.897   5.166 -0.4449 -0.0741 -0.0802
 4784W        W 8303   4.564   4.481  10.108  0.2308 -0.1221 -0.1897
 4785W        W 8304   8.353   1.703   9.165 -0.1100 -0.0606  0.0540
 4786W        W 8305   8.196   6.617  12.227  0.0460  0.1839  0.0522
 4787W        W 8306   0.475   3.774  10.770 -0.1540 -0.7408  0.0372
 4788W        W 8307   1.051   4.269   4.542  0.0844 -0.4166 -0.5014
 4789W        W 8308   6.432   0.498   2.466  0.1922 -0.1522 -0.0870
 4790W        W 8309   9.446   3.107  10.160 -0.2969 -0.1675 -0.2842
 4791W        W 8310   9.447   9.176  10.175  0.3111 -0.0527  0.1474
 4792W        W 8311   7.763   2.414   3.889 -0.0269  0.0942 -0.1498
 4793W        W 8312   3.554   5.019  11.437 -0.0873 -0.1778 -0.1031
 4794W        W 8313   0.343   8.376   3.471 -0.4647  0.0670  0.0196
 4795W        W 8314   0.186   7.126   3.245  0.0295 -0.0927 -0.1509
 4796W        W 8315   8.626   4.174  11.425  0.1436  0.1641  0.2976
 4797W        W 8316   2.529   7.095  10.742  0.0217 -0.0903  0.2292
 4798W        W 8317   2.776   3.647  12.044 -0.0971  0.0136  0.0150
 4799W        W 8318   2.865   8.237   9.905  0.0273 -0.0603 -0.1423
 4800W        W 8319   5.134   6.639  10.185 -0.1366 -0.0428 -0.0552
 4801W        W 8320   5.635   9.650   9.842  0.3616  0.2818  0.1022
 4802W        W 8321   6.085   1.412   9.175 -0.0168 -0.2914 -0.1808
 4803W        W 8322   8.163   5.116   0.805 -0.5294 -0.1923 -0.1255
 4804W        W 8323   8.402   4.265   0.373  0.0959 -0.2772 -0.1857
 4805W        W 8324   6.436   8.010  11.244  0.0890  0.1244  0.3556
 4806W        W 8325   1.902   7.469   2.431  0.2030  0.0606  0.0513
 4807W        W 8326   7.347   8.740   0.503 -0.1813  0.1308  0.0605
 4808W        W 8327   8.228   3.136   9.077 -0.1971  0.2500 -0.2940
 4809W        W 8328   1.716   4.653  10.267  0.1409 -0.0023  0.0144
 4810W        W 8329   7.902   9.577   2.771 -0.1733  0.1939 -0.1343
 4811W        W 8330   3.732   2.345  12.377 -0.2564 -0.3064 -0.3778
 4812W        W 8331   3.107   7.839   1.057 -0.2349  0.0594 -0.0940
 4813W        W 8332   8.418   3.115   3.379  0.3551 -0.3174  0.1900
 4814W        W 8333   9.648   4.246   2.976 -0.2513  0.1708 -0.2651
 4815W        W 8334   2.579   8.480   2.835 -0.0186 -0.1480 -0.1222
 4816W        W 8335   8.295   3.442   9.476 -0.1839  0.2139 -0.0334
 4817W        W 8336   4.842   0.056  11.699  0.0048 -0.1560 -0.1682
 4818W        W 8337   6.710   5.804  11.663 -0.0771  0.0036  0.2037
 4819W        W 8338   7.451   3.903   8.743  0.1879 -0.1837  0.0218
 4820W        W 8339   3.974   5.673   0.808  0.0523 -0.1419 -0.0325
 4821W        W 8340   6.577   6.518   7.852 -0.1056 -0.2007  0.0984
 4822W        W 8341   5.468   7.710   2.272  0.1199  0.3233  0.0528
 4823W        W 8342   1.098   0.510   8.431  0.3099  0.1846 -0.0835
 4824W        W 8343   8.299   8.929   0.473  0.0371 -0.4179 -0.4156
 4825W        W 8344   2.847   5.751  11.364  0.1536  0.0703 -0.2038
 4826W        W 8345   3.582   1.495  10.929  0.1124  0.2774  0.2725
 4827W        W 8346   3.574   2.422   0.925  0.3344 -0.3218 -0.0074
 4828W        W 8347   0.752   0.590   3.387  0.0364 -0.4646  0.1408
 4829W        W 8348   4.648   3.728   1.417 -0.0086  0.1730  0.2138
 4830W        W 8349   4.919   7.703  10.929 -0.1160  0.0018  0.2807
 4831W        W 8350   2.372   1.931   9.095 -0.1235  0.0649 -0.1496
 4832W        W 8351   9.144   8.506   0.168  0.0017  0.0924  0.1536
 4833W        W 8352   0.245   2.493   0.775 -0.4590 -0.0727 -0.1499
 4834W        W 8353   0.186   7.080   1.715  0.1808 -0.2409 -0.1112
 4835W        W 8354   6.796   8.750   3.532 -0.0135  0.1594 -0.2284
 4836W        W 8355   5.438   8.731  10.359 -0.0268 -0.0494 -0.1220
 4837W        W 8356   9.449   2.099   9.704 -0.0366 -0.0884  0.1162
 4838W        W 8357   5.870   7.127   0.142 -0.1775 -0.1330  0.1492
 4839W        W 8358   7.641   3.388   8.791 -0.1759  0.0611 -0.3959
 4840W        W 8359   7.900   7.807   3.474  0.1948 -0.0066 -0.0135
 4841W        W 8360   3.860   8.019   9.944  0.3356  0.1927 -0.0881
 4842W        W 8361   8.911   1.592  10.410  0.2693 -0.0490 -0.3725
 4843W        W 8362   4.578   3.882   0.546 -0.2340 -0.0785 -0.1697
 4844W        W 8363   4.735   9.664  11.115 -0.1904  0.4102 -0.2078
 4845W        W 8364   2.177   4.882   1.280 -0.0521  0.0808  0.0673
 4846W        W 8365   1.626   8.278   2.600 -0.2220  0.2876  0.0739
 4847W        W 8366   2.418   0.264   0.995 -0.0828 -0.1008  0.0140
 4848W        W 8367   3.283   6.780  11.637  0.1738 -0.2177 -0.0678
 4849W        W 8368   6.136   5.230  10.123  0.0451  0.1604 -0.0167
 4850W        W 8369   7.439   1.511   2.452  0.1059 -0.0645 -0.0485
 4851W        W 8370   8.765   7.578  12.169 -0.0720  0.0131  0.0075
 4852W        W 8371   2.830   6.497  12.445 -0.1228  0.0525  0.3413
 4853W        W 8372   8.033   2.083   8.864  0.1567 -0.0926  0.0566
 4854W        W 8373   5.309   4.799   1.763 -0.0147  0.1573  0.1402
 4855W        W 8374   8.025   1.963   1.226 -0.0727  0.0285  0.3381
 4856W        W 8375   7.210   3.068   8.679 -0.1428  0.0266  0.0137
 4857W        W 8376   7.852   3.130   7.844  0.1615  0.1249  0.3187
 4858W        W 8377   8.707   7.928   3.117 -0.0988  0.0605 -0.0219
 4859W        W 8378   7.890   7.017  12.002 -0.3164 -0.0556  0.1770
 4860W        W 8379   3.029   7.391   1.952  0.1555  0.1330  0.1323
 4861W        W 8380   0.567   8.299   2.542 -0.2313 -0.2448 -0.0004
 4862W        W 8381   3.850   5.923  11.566  0.2107  0.1309 -0.1930
 4863W        W 8382   7.618   3.055   4.423 -0.1892  0.2412  0.1437
 4864W        W 8383   7.605   3.365   3.226 -0.0863 -0.0443  0.2684
 4865W        W 8384   5.851   1.636   9.549  0.1105  0.0784  0.0378
 4866W        W 8385   3.452   7.654  11.502 -0.2843 -0.1196 -0.1127
 4867W        W 8386   4.481   5.875  12.373  0.0178 -0.2545 -0.0265
 4868W        W 8387   6.415   9.439  10.316  0.1151 -0.3624 -0.2858
 4869W        W 8388   4.709   2.751   9.994 -0.0697 -0.2970 -0.1707
 4870W        W 8389   4.189   3.847  11.633  0.0239  0.0193  0.2621
 4871W        W 8390   5.294   6.653   3.405 -0.1704 -0.0321  0.2029
 4872W        W 8391   2.659   1.074   1.427  0.4968  0.1271 -0.2371
 4873W        W 8392   5.380   0.162   8.359 -0.2007  0.0505 -0.1461
 4874W        W 8393   5.036   1.827  12.295  0.1699 -0.2062 -0.0934
 4875W        W 8394   9.425   4.340  10.675  0.2018  0.4090  0.0286
 4876W        W 8395   4.867   7.963   8.445 -0.0917  0.2884 -0.0954
 4877W        W 8396   5.987   9.527   0.892 -0.1502  0.3637 -0.1286
 4878W        W 8397   9.556   6.785   3.471 -0.1411  0.0511 -0.0185
 4879W        W 8398   4.678   2.423  10.503  0.3309  0.1169 -0.2433
 4880W        W 8399   6.363   2.618   8.655 -0.0662  0.1062  0.0617
 4881W        W 8400   5.426   4.949   3.116 -0.0529 -0.0750  0.2890
 4882W        W 8401   2.550   9.618  11.051  0.1177  0.0735 -0.0919
 4883W        W 8402   1.978   8.622   9.946  0.2565 -0.0539 -0.0972
 4884W        W 8403   5.716   4.690   9.003 -0.2062  0.0905 -0.1356
 4885W        W 8404   6.680   0.768   8.593 -0.0790 -0.0408 -0.1172
 4886W        W 8405   0.441   1.529   8.256  0.0755  0.2729 -0.0056
 4887W        W 8406   6.313   7.700   0.913  0.0560 -0.0446  0.2576
 4888W        W 8407   0.813   2.085   2.288  0.0167  0.2987 -0.3104
 4889W        W 8408   6.618   4.392   8.756 -0.1097  0.3472  0.1365
 4890W        W 8409   4.685   8.603   9.270 -0.1964 -0.1519 -0.0495
 4891W        W 8410   1.331   3.024   3.786 -0.1149 -0.2327  0.0794
 4892W        W 8411   7.767   2.669   2.273  0.0730 -0.0082 -0.0908
 4893W        W 8412   6.421   8.686  12.011  0.2520 -0.0646  0.0383
 4894W        W 8413   9.482   9.041   1.854 -0.1732  0.0415 -0.1080
 4895W        W 8414   0.816   6.365   0.151  0.1659 -0.2342  0.0091
 4896W        W 8415   6.286   6.837  11.130  0.1537 -0.2372  0.2503
 4897W        W 8416   4.571   6.731  12.446 -0.1676  0.1784  0.0622
 4898W        W 8417   3.733   2.861   2.170 -0.0553  0.0419  0.2790
 4899W        W 8418   9.201   1.317  10.000 -0.1424  0.0444 -0.2628
 4900W        W 8419   3.997   4.980  11.234  0.3435 -0.0788  0.3652
 4901W        W 8420   1.218   6.395   9.827  0.2002 -0.0979 -0.2594
 4902W        W 8421   2.454   1.911   3.763  0.0717  0.1550 -0.0678
 4903W        W 8422   2.898   3.898   0.689 -0.0830 -0.0255  0.0380
 4904W        W 8423   6.168   8.132   1.469 -0.3234  0.0424 -0.3749
 4905W        W 8424   0.521   3.424  11.172  0.1738  0.0266 -0.1567
 4906W        W 8425   3.493   0.385  11.444 -0.0798 -0.1060 -0.0162
 4907W        W 8426   2.925   5.049   3.198 -0.1161  0.0069  0.2972
 4908W        W 8427   1.133   0.282   4.310  0.4138 -0.1559  0.2307
 4909W        W 8428   2.331   1.863   9.583  0.1734  0.3049  0.2318
 4910W        W 8429   7.852   3.402   1.680  0.2170  0.0008 -0.0408
 4911W        W 8430   3.703   0.643   9.511  0.1275  0.0274 -0.0468
 4912W        W 8431   2.467   8.212   0.326  0.1703 -0.2048 -0.2387
 4913W        W 8432   7.922   5.713   1.565  0.4310 -0.1192  0.3065
 4914W        W 8433   0.217   3.128   9.211  0.2632  0.0173  0.3422
 4915W        W 8434   1.901   0.744   8.733  0.1410 -0.1952  0.2697
 4916W        W 8435   0.819   4.411  10.057  0.0600  0.1256 -0.0542
 4917W        W 8436   0.641   5.456  10.576 -0.0512  0.1178  0.1584
 4918W        W 8437   6.851   0.171   2.102  0.3449  0.0880 -0.4315
 4919W        W 8438   5.184   1.231   8.377  0.1406  0.2908  0.0555
 4920W        W 8439   9.078   4.943   0.578  0.1122 -0.0229 -0.4271
 4921W        W 8440   3.221   2.750   2.306  0.0153 -0.0906  0.0465
 4922W        W 8441   4.672   6.766   9.911  0.2352 -0.1702  0.0050
 4923W        W 8442   4.006   6.426  10.843 -0.0654 -0.1480 -0.1976
 4924W        W 8443   1.098   6.186  10.297 -0.0153  0.0906  0.1898
 4925W        W 8444   8.994   1.047   9.551 -0.0359  0.0219  0.2002
 4926W        W 8445   2.910   5.142   1.922  0.0936  0.3363  0.1599
 4927W        W 8446   5.006   2.280  10.108 -0.3107 -0.1509  0.0179
 4928W        W 8447   9.575   8.558   3.143  0.1233 -0.1904 -0.0066
 4929W        W 8448   4.549   1.527  10.616  0.2196  0.1147  0.0502
 4930W        W 8449   7.889   2.327   9.440 -0.0157 -0.2494  0.0014
 4931W        W 8450   7.229   3.629   2.993 -0.3231 -0.1215 -0.1692
 4932W        W 8451   4.096   1.812  12.472  0.0277  0.0482  0.0325
 4933W        W 8452   6.948   7.754   3.847 -0.0259  0.1719 -0.0034
 4934W        W 8453   3.694   1.604   1.957  0.0545  0.0743  0.0570
 4935W        W 8454   8.921   3.179   1.814 -0.1741  0.0667  0.2050
 4936W        W 8455   0.094   5.226  11.998 -0.0108 -0.0486 -0.2439
 4937W        W 8456   0.540   2.266   3.175  0.0679 -0.0285  0.0644
 4938W        W 8457   2.800   8.493  12.501 -0.0445 -0.1517  0.2954
 4939W        W 8458   7.510   2.333   9.077 -0.0800  0.1257  0.1712
 4940W        W 8459   5.619   6.264   2.333 -0.1458 -0.2608  0.0875
 4941W        W 8460   6.110   7.388  12.009  0.0103  0.1434  0.0989
 4942W        W 8461   6.824   9.637   0.848  0.1831 -0.0239 -0.2011
 4943W        W 8462   8.299   5.765  12.149  0.0176 -0.1090  0.0881
 4944W        W 8463   3.343   3.615   1.662  0.0647 -0.0833 -0.1076
 4945W        W 8464   6.174   4.125   3.083  0.1211 -0.1431  0.4819
 4946W        W 8465   8.295   0.642   9.598 -0.0671  0.1287  0.0433
 4947W        W 8466   4.221   5.894   3.338  0.0828  0.0358  0.0566
 4948W        W 8467   9.077   7.319   4.525 -0.1532  0.1298  0.1805
 4949W        W 8468   6.573   6.494   2.991  0.2709 -0.1831  0.1544
 4950W        W 8469   9.123   4.852  10.644 -0.0534  0.0270  0.1253
 4951W        W 8470   1.984   7.935   9.437  0.1310 -0.2741  0.0107
 4952W        W 8471   1.627   7.774  10.683 -0.1062 -0.1752 -0.0662
 4953W        W 8472   0.115   0.264   8.943 -0.1288 -0.1711 -0.0397
 4954W        W 8473   5.716   1.453  10.787 -0.2092  0.0594  0.0960
 4955W        W 8474   3.587   2.239  10.186 -0.0496 -0.0030  0.0154
 4956W        W 8475   2.124   6.751   1.247  0.1721 -0.1139 -0.0436
 4957W        W 8476   4.284   1.600   1.864  0.0153  0.0735  0.1670
 4958W        W 8477   9.512   5.621   4.534 -0.2069 -0.0585 -0.2720
 4959W        W 8478   4.559   9.053   4.211  0.4285 -0.0571 -0.1793
 4960W        W 8479   1.393   3.971  11.438 -0.0051  0.1192 -0.1352
 4961W        W 8480   2.385   8.870   4.455  0.1056 -0.1214 -0.1522
 4962W        W 8481   4.650   3.533   9.633 -0.5340  0.0960 -0.1450
 4963W        W 8482   6.547   3.517  10.972 -0.1594 -0.0607 -0.0540
 4964W        W 8483   2.460   2.224  11.276 -0.0035  0.4221  0.0930
 4965W        W 8484   8.910   4.072   9.490 -0.0979  0.1957 -0.0274
 4966W        W 8485   1.788   2.994  10.351 -0.0579 -0.0483  0.1319
 4967W        W 8486   7.512   5.042   8.739 -0.1413  0.1284 -0.1713
 4968W        W 8487   5.092   4.983   0.895 -0.0766 -0.1753 -0.0096
 4969W        W 8488   9.481   5.498  10.037  0.0598 -0.1275 -0.5265
 4970W        W 8489   5.206   4.180  10.844  0.0323 -0.2281 -0.1816
 4971W        W 8490   8.357   4.910   8.870  0.0514  0.0080 -0.0979
 4972W        W 8491   0.408   4.523   3.415 -0.0351  0.0421  0.1625
 4973W        W 8492   6.876   4.717   1.518 -0.0420  0.0007 -0.2951
 4974W        W 8493   5.415   3.412  10.326  0.1871 -0.2339 -0.0920
 4975W        W 8494   9.067   0.227  11.045 -0.0247 -0.1320 -0.1194
 4976W        W 8495   2.459   8.441  10.728  0.0397 -0.2716  0.0665
 4977W        W 8496   7.834   8.370   0.681  0.1260 -0.3400 -0.0176
 4978W        W 8497   1.093   3.334   1.531  0.3453 -0.0637  0.0967
 4979W        W 8498   9.385   6.069   9.080  0.2117 -0.1560  0.1479
 4980W        W 8499   6.523   5.924   8.955 -0.1497 -0.1654  0.2089
 4981W        W 8500   5.596   9.518   8.863  0.4080  0.3215 -0.1541
 4982W        W 8501   2.926   8.088   0.162 -0.0126  0.1268 -0.0538
 4983W        W 8502   5.104   4.201  11.404 -0.0697  0.1415  0.1184
 4984W        W 8503   8.159   9.272   2.390  0.1545  0.0601  0.0158
 4985W        W 8504   6.639   1.688  12.118 -0.1396  0.1891 -0.1448
 4986W        W 8505   3.780   7.525  10.236 -0.0395  0.2479  0.1867
 4987W        W 8506   1.328   2.233   1.576 -0.2713 -0.0443 -0.0295
 4988W        W 8507   9.479   2.186   0.049  0.1842 -0.0239 -0.1282
 4989W        W 8508   9.462   3.577  10.181 -0.2958 -0.1995 -0.0772
 4990W        W 8509   0.339   4.576   2.909  0.0042  0.1546 -0.0446
 4991W        W 8510   1.467   7.179   5.387 -0.0608  0.0437 -0.0126
 4992W        W 8511   3.604   4.806   1.266 -0.0542 -0.1590  0.0562
 4993W        W 8512   8.652   0.683   3.438 -0.1798 -0.2150 -0.0461
 4994W        W 8513   4.492   6.855  10.335 -0.1904  0.0167 -0.1881
 4995W        W 8514   4.866   4.009   0.071 -0.2830 -0.0599 -0.0099
 4996W        W 8515   8.603   1.270   8.915  0.1034 -0.1150  0.0086
 4997W        W 8516   3.754   2.445  10.683  0.1512 -0.2622 -0.1576
 4998W        W 8517   7.003   7.885   3.373 -0.3323 -0.2668 -0.0446
 4999W        W 8518   1.240   8.853   1.287 -0.0224  0.3632  0.0143
 5000W        W 8519   8.483   0.778  10.429  0.0177 -0.0769 -0.1801
 5001W        W 8520   4.295   6.292  12.573 -0.1507 -0.1183  0.1738
 5002W        W 8521   3.633   6.844   3.199  0.0532  0.1410  0.0551
 5003W        W 8522   0.972   9.625   2.401 -0.3583 -0.1293 -0.0580
 5004W        W 8523   3.871   6.576   8.883 -0.0682  0.0470  0.0435
 5005W        W 8524   5.482   8.005  12.422 -0.2893 -0.0584  0.0392
 5006W        W 8525   1.995   5.583   0.441  0.0720 -0.0975  0.0829
 5007W        W 8526   7.600   3.721   0.242 -0.0920 -0.1043  0.0876
 5008W        W 8527   9.110   2.219  10.241  0.0069  0.1338 -0.1212
 5009W        W 8528   7.030   0.027   2.961  0.1530  0.1215 -0.0148
 5010W        W 8529   6.846   5.960   3.823 -0.0581  0.0879 -0.1806
 5011W        W 8530   4.569   2.011   0.847  0.1939  0.1166  0.0224
 5012W        W 8531   6.588   9.347   3.723  0.2172  0.1142 -0.0069
 5013W        W 8532   8.490   9.057   9.165 -0.2463  0.0707  0.1390
 5014W        W 8533   9.645   7.744  10.814  0.1789 -0.3952 -0.3153
 5015W        W 8534   8.070   1.591   2.672  0.0512 -0.2442  0.1062
 5016W        W 8535   3.350   0.682   1.155 -0.0578  0.0233  0.1660
 5017W        W 8536   4.721   9.232  12.117 -0.2603  0.1115 -0.1697
 5018W        W 8537   2.593   6.271  12.074  0.1109 -0.0583 -0.1548
 5019W        W 8538   4.880   1.976   0.376  0.1740 -0.1793  0.0099
 5020W        W 8539   8.424   6.376  12.627  0.0947 -0.1362  0.0336
 5021W        W 8540   3.679   6.598  11.972  0.0342  0.1643  0.2182
 5022W        W 8541   4.931   8.758   9.826  0.1900  0.4395  0.1670
 5023W        W 8542   2.173   8.372  12.021 -0.2229  0.1631  0.2738
 5024W        W 8543   1.498   2.126   8.890  0.3805  0.0647  0.0352
 5025W        W 8544   8.251   0.538  10.870 -0.0370 -0.3625 -0.0274
 5026W        W 8545   8.227   7.595  11.325  0.1488 -0.3596 -0.1028
 5027W        W 8546   1.757   8.849  12.562 -0.2269 -0.0282 -0.1362
 5028W        W 8547   6.044   9.302   9.900 -0.2198 -0.0948  0.0579
 5029W        W 8548   4.949   5.762   9.499  0.0707 -0.0186  0.2790
 5030W        W 8549   7.842   8.177   9.467 -0.0911 -0.2449 -0.3343
 5031W        W 8550   6.251   0.920   0.537 -0.2360  0.0449 -0.0159
 5032W        W 8551   2.846   3.802  10.065  0.0910 -0.4267  0.1097
 5033W        W 8552   2.828   1.511   0.476 -0.2008  0.0144 -0.2813
 5034W        W 8553   3.400   1.651   1.385  0.0373 -0.1647  0.1380
 5035W        W 8554   3.564   8.931  12.629  0.3462 -0.4244 -0.2099
 5036W        W 8555   6.557   7.000  11.526  0.1143 -0.0185 -0.0355
 5037W        W 8556   7.017   0.289  12.355 -0.1832 -0.0455  0.0877
 5038W        W 8557   7.843   6.129  10.778 -0.1644  0.2340 -0.1184
 5039W        W 8558   5.674   8.060  11.070 -0.0943 -0.0806 -0.0744
 5040W        W 8559   5.555   5.063  12.129 -0.4855  0.0286  0.1353
 5041W        W 8560   0.749   1.656   1.178 -0.0512  0.3803 -0.3236
 5042W        W 8561   2.906   8.480   0.450  0.2531  0.0654 -0.0666
 5043W        W 8562   8.434   9.615  11.431 -0.0138 -0.1312  0.0686
 5044W        W 8563   3.522   8.196   1.012  0.0470  0.0441 -0.0947
 5045W        W 8564   8.799   8.286   2.010 -0.2594  0.0264  0.0334
 5046W        W 8565   9.635   7.335   9.669  0.0002  0.1555  0.3159
 5047W        W 8566   4.861   5.396  12.550  0.0218  0.0413  0.2957
 5048W        W 8567   2.428   1.904   1.282 -0.0237 -0.0344  0.0282
 5049W        W 8568   8.214   3.928  12.338  0.0398 -0.2804  0.1030
 5050W        W 8569   8.534   0.905  11.161 -0.0394  0.0841 -0.1539
 5051W        W 8570   2.550   9.187  11.816 -0.0781  0.4324 -0.0266
 5052W        W 8571   9.241   7.911  10.528 -0.3436 -0.3547 -0.1000
 5053W        W 8572   5.723   0.448  11.986  0.2373  0.1978 -0.5093
 5054W        W 8573   3.738   7.863   1.702  0.1669 -0.3543  0.1420
 5055W        W 8574   6.807   9.394  11.757 -0.1501 -0.0703  0.0476
 5056W        W 8575   1.546   1.452  11.213  0.2726  0.1340 -0.3636
 5057W        W 8576   1.339   6.310   0.449 -0.3457  0.1048  0.3552
 5058W        W 8577   4.627   8.800   2.687  0.0889  0.4051  0.0094
 5059W        W 8578   8.506   6.491   1.394 -0.0197 -0.1236 -0.0815
 5060W        W 8579   2.401   7.522  11.029 -0.0968  0.2893 -0.0273
 5061W        W 8580   4.114   5.911   4.722  0.0169 -0.0280 -0.0973
 5062W        W 8581   0.418   8.245   1.326  0.1604  0.0647  0.1567
 5063W        W 8582   7.211   5.963  11.566 -0.1049  0.0511  0.1039
 5064W        W 8583   5.367   8.257   1.072 -0.0627 -0.0089  0.3059
 5065W        W 8584   3.974   1.199   0.736  0.1390 -0.1912 -0.1470
 5066W        W 8585   8.329   9.579   3.795 -0.1968 -0.1061 -0.1050
 5067W        W 8586   7.783   5.109  10.991 -0.2786  0.2324  0.1241
 5068W        W 8587   2.813   0.047   0.129  0.1368 -0.2044  0.1057
 5069W        W 8588   6.083   6.380   8.610 -0.1264  0.0587 -0.3193
 5070W        W 8589   4.044   0.349   0.543  0.1847 -0.1100 -0.1508
 5071W        W 8590   5.422   1.429  11.240 -0.0672 -0.2151  0.1451
 5072W        W 8591   8.720   4.907  12.174 -0.1207 -0.2592  0.4390
 5073W        W 8592   5.568   9.194   4.089  0.2160  0.0360 -0.1404
 5074W        W 8593   1.635   3.359   9.970  0.0304  0.3153 -0.1547
 5075W        W 8594   2.995   9.179   3.791  0.0047  0.3571 -0.0204
 5076W        W 8595   4.909   1.012   2.840 -0.0889 -0.0694 -0.0131
 5077W        W 8596   2.976   5.357   2.736 -0.0182 -0.1150  0.2084
 5078W        W 8597   0.062   7.982   4.343 -0.1002 -0.1039 -0.3668
 5079W        W 8598   2.146   4.793   9.253 -0.1132 -0.1523  0.0993
 5080W        W 8599   4.582   7.663   4.667  0.3526 -0.1855  0.1443
 5081W        W 8600   8.432   2.453   0.847 -0.2471 -0.1232  0.0373
 5082W        W 8601   2.908   1.625   2.955 -0.2359  0.2937 -0.1314
 5083W        W 8602   8.052   6.252   9.366  0.0570  0.0931  0.2960
 5084W        W 8603   2.803   2.926  10.622 -0.1129  0.1196 -0.2612
 5085W        W 8604   2.337   5.491  12.158  0.0924  0.0662 -0.2272
 5086W        W 8605   8.391   2.883   2.854 -0.0249 -0.6286 -0.3373
 5087W        W 8606   2.354   6.429  11.227  0.0843 -0.2705 -0.0037
 5088W        W 8607   9.217   7.606   9.464 -0.2258  0.2337  0.0416
 5089W        W 8608   2.030   1.014   2.547  0.0313 -0.1723  0.1012
 5090W        W 8609   0.202   7.436   4.877 -0.0716 -0.5301  0.1966
 5091W        W 8610   2.216   4.658  10.150  0.1707  0.4526  0.0172
 5092W        W 8611   1.140   6.002   3.205  0.2237  0.2389 -0.0305
 5093W        W 8612   5.523   1.209  11.720 -0.0444  0.3327 -0.0920
 5094W        W 8613   0.590   2.145   0.177  0.1649  0.2058  0.0261
 5095W        W 8614   7.921   8.876  11.265 -0.1360  0.2139  0.1831
 5096W        W 8615   4.275   5.446   4.514 -0.1417 -0.0430  0.1478
 5097W        W 8616   3.004   3.597  12.505  0.1052 -0.0647 -0.0596
 5098W        W 8617   4.425   0.015  12.075 -0.1367 -0.3278 -0.1527
 5099W        W 8618   2.070   7.165   1.545  0.1135 -0.1074  0.0647
 5100W        W 8619   7.569   9.627  11.199  0.0155  0.2270 -0.2733
 5101W        W 8620   8.889   0.289   1.539  0.0539 -0.1886  0.4812
 5102W        W 8621   8.838   1.480   1.208  0.1895  0.0007  0.0185
 5103W        W 8622   0.974   9.198  11.440 -0.0448  0.1568  0.0528
 5104W        W 8623   6.471   8.587   1.603  0.2168  0.2342  0.0451
 5105W        W 8624   2.598   8.650   8.719  0.0025  0.1165  0.0693
 5106W        W 8625   8.696   1.614   8.490  0.0311  0.3244  0.2081
 5107W        W 8626   0.813   5.761   0.967  0.1209 -0.1634  0.3373
 5108W        W 8627   7.784   5.201  10.418 -0.1385  0.3753 -0.2590
 5109W        W 8628   7.497   7.358  11.543 -0.0508 -0.1558 -0.0359
 5110W        W 8629   4.596   7.742  10.177  0.1706  0.3406 -0.1181
 5111W        W 8630   2.086   0.113   9.449  0.0344 -0.4142 -0.0557
 5112W        W 8631   3.419   6.979  10.149 -0.1416  0.2144  0.1745
 5113W        W 8632   8.867   5.418   0.333  0.3503  0.0847 -0.1948
 5114W        W 8633   0.753   1.195   9.439  0.0234 -0.2236 -0.0343
 5115W        W 8634   4.698   7.413  11.244 -0.1967 -0.5698 -0.2511
 5116W        W 8635   1.222   5.865   4.474 -0.1477 -0.0369 -0.1282
 5117W        W 8636   7.655   7.943   1.064  0.0628 -0.2606 -0.1390
 5118W        W 8637   9.499   9.300   2.305 -0.0373  0.0821  0.0318
 5119W        W 8638   6.666   0.774   3.400 -0.2471  0.0817 -0.1657
 5120W        W 8639   7.035   7.733   9.954 -0.0056  0.1238  0.2980
 5121W        W 8640   6.028   6.786  10.600  0.1824  0.1809  0.4119
 5122W        W 8641   1.264   2.228  12.477  0.1969 -0.1776 -0.2122
 5123W        W 8642   4.850   4.496   3.242 -0.2766  0.1287  0.1757
 5124W        W 8643   1.772   9.547  11.306 -0.0055 -0.0493  0.2109
 5125W        W 8644   8.448   4.965   4.823  0.0012  0.1043 -0.0080
 5126W        W 8645   2.736   4.243  11.891  0.1095 -0.3216  0.0400
 5127W        W 8646   2.802   5.099   4.527 -0.0272  0.0043  0.0172
 5128W        W 8647   1.245   8.696   8.889  0.4476  0.1133  0.3081
 5129W        W 8648   5.930   5.847   3.738  0.2783  0.2619  0.1519
 5130W        W 8649   1.495   7.789   4.678  0.0738 -0.3555 -0.0084
 5131W        W 8650   6.817   5.691   9.517 -0.0959 -0.0755  0.0827
 5132W        W 8651   4.438   6.333   1.284  0.3005 -0.3889 -0.0694
 5133W        W 8652   3.514   7.909   3.948 -0.0501  0.4758 -0.1723
 5134W        W 8653   6.636   2.212   9.384  0.0432  0.0292  0.0839
 5135W        W 8654   9.365   8.698   3.858 -0.1860 -0.1286  0.0368
 5136W        W 8655   3.162   7.691  12.414  0.2107  0.1444  0.1636
 5137W        W 8656   5.203   9.490   2.742  0.1319 -0.1914  0.0618
 5138W        W 8657   6.400   4.240   9.257 -0.0080 -0.1128 -0.0610
 5139W        W 8658   9.305   6.410   4.197  0.1316  0.1727 -0.0708
 5140W        W 8659   9.048   4.996   0.057 -0.2330 -0.0681  0.0321
 5141W        W 8660   4.370   0.417  12.469  0.0222 -0.2775 -0.4840
 5142W        W 8661   5.605   0.030   1.552  0.2846  0.2638 -0.1822
 5143W        W 8662   6.843   7.827   1.963 -0.0424 -0.0231  0.2302
 5144W        W 8663   6.104   7.143   1.244 -0.0439 -0.3904  0.3149
 5145W        W 8664   5.476   7.502  10.835 -0.0406 -0.0323  0.0078
 5146W        W 8665   5.984   1.464   1.680  0.3179  0.3839 -0.1828
 5147W        W 8666   7.304   9.208   0.814  0.0857  0.0074 -0.0100
 5148W        W 8667   3.433   6.219  12.534 -0.0953 -0.1690  0.0854
 5149W        W 8668   1.746   6.187   8.222  0.0211 -0.0701 -0.0525
 5150W        W 8669   3.426   3.354   9.012 -0.0327 -0.0771 -0.2653
 5151W        W 8670   8.519   6.803  10.994 -0.1552  0.2187 -0.1602
 5152W        W 8671   5.947   0.040   0.371  0.0028  0.2458  0.1392
 5153W        W 8672   5.655   4.636   0.760 -0.0607  0.2105  0.3728
 5154W        W 8673   1.438   7.820   2.419 -0.1279 -0.1064  0.1308
 5155W        W 8674   1.364   2.119   2.547  0.2601 -0.1053 -0.1794
 5156W        W 8675   1.647   4.869  11.568  0.1236  0.1880 -0.1056
 5157W        W 8676   5.010   2.591   3.973  0.1819 -0.0174  0.0668
 5158W        W 8677   2.024   4.735  12.060 -0.1403  0.0055  0.1122
 5159W        W 8678   4.375   5.740   2.847  0.1630 -0.2259 -0.0637
 5160W        W 8679   0.784   3.740   2.035 -0.0596  0.1686  0.3164
 5161W        W 8680   4.258   5.283   0.991  0.0005  0.0825 -0.0558
 5162W        W 8681   3.553   9.584   2.704  0.1244  0.2694 -0.2182
 5163W        W 8682   0.292   9.137   0.186  0.0141 -0.1187 -0.1001
 5164W        W 8683   2.282   9.027   9.931  0.3957 -0.3283 -0.2496
 5165W        W 8684   4.730   5.495   1.107  0.1056  0.1032  0.1340
 5166W        W 8685   8.534   1.055   2.162  0.0309  0.0775 -0.1197
 5167W        W 8686   6.993   1.563  10.288  0.0447 -0.3668 -0.5688
 5168W        W 8687   9.082   8.379   2.893 -0.5599  0.0779  0.0607
 5169W        W 8688   4.863   8.216  10.089  0.4976  0.1215 -0.2411
 5170W        W 8689   9.069   2.767   8.969  0.2313 -0.1663 -0.3479
 5171W        W 8690   0.766   4.682  11.615  0.4577  0.2534  0.3699
 5172W        W 8691   7.306   4.184   3.405  0.1330  0.1522  0.3107
 5173W        W 8692   8.196   6.627  11.737  0.1616 -0.1798  0.1059
 5174W        W 8693   0.360   7.670   1.383  0.2716 -0.1807  0.0673
 5175W        W 8694   8.870   4.173   8.948  0.1783 -0.1143  0.2950
 5176W        W 8695   3.385   1.271  11.838  0.1630 -0.1556 -0.0332
 5177W        W 8696   0.238   8.212  12.065 -0.1362  0.3132  0.0018
 5178W        W 8697   8.467   7.709  11.723  0.1553  0.0187 -0.0247
 5179W        W 8698   6.117   2.426  12.069  0.1862 -0.0502  0.2340
 5180W        W 8699   6.479   2.084   2.495 -0.1395 -0.1061  0.3465
 5181W        W 8700   4.838   2.571  11.509  0.0416  0.3195  0.1454
 5182W        W 8701   6.071   2.378  10.519 -0.1335  0.2184 -0.1019
 5183W        W 8702   8.506   1.527   2.411 -0.0770  0.3483  0.2022
 5184W        W 8703   3.052   8.750   2.849  0.3454  0.0124  0.1546
 5185W        W 8704   1.172   7.396   8.172 -0.1266  0.1459  0.1989
 5186W        W 8705   9.315   6.627   9.137  0.1005 -0.0442 -0.3628
 5187W        W 8706   6.321   5.092   8.023 -0.0406  0.2085 -0.0717
 5188W        W 8707   4.802   1.801  11.521  0.0116  0.2291 -0.1788
 5189W        W 8708   2.916   3.935   1.822  0.1929 -0.1290 -0.0970
 5190W        W 8709   5.796   8.778   3.913 -0.0893  0.3198 -0.1090
 5191W        W 8710   6.643   6.604   1.614  0.2524 -0.0203  0.0730
 5192W        W 8711   2.969   7.983   3.683 -0.0540  0.0281  0.0357
 5193W        W 8712   4.181   7.913   9.500  0.0631 -0.0262  0.1740
 5194W        W 8713   7.466   2.206   1.168  0.1307 -0.1628  0.0090
 5195W        W 8714   4.844   9.178   1.906  0.1076  0.0457  0.2061
 5196W        W 8715   5.645   2.203  11.854 -0.1403  0.1258  0.3304
 5197W        W 8716   8.136   5.067  10.145 -0.1777 -0.0492 -0.0515
 5198W        W 8717   7.706   7.309   2.348  0.0478  0.0829 -0.1966
 5199W        W 8718   8.825   5.976  11.256  0.2784  0.1104 -0.0336
 5200W        W 8719   8.836   6.235  10.170  0.1328  0.0323  0.1859
 5201W        W 8720   2.779   2.390  11.688 -0.0815 -0.0419 -0.0470
 5202W        W 8721   1.802   6.719   8.366 -0.0215 -0.0096  0.0712
 5203W        W 8722   9.335   5.073  12.202 -0.0004 -0.3938  0.2497
 5204W        W 8723   3.269   6.558   3.435 -0.2584 -0.0572  0.2688
 5205W        W 8724   7.079   6.010   1.060 -0.0602 -0.1357 -0.0984
 5206W        W 8725   9.503   4.333   3.502  0.0224 -0.1804 -0.1961
 5207W        W 8726   8.931   3.345  12.576 -0.0747  0.1876  0.0500
 5208W        W 8727   8.131   5.523   3.283  0.0301  0.0256 -0.1994
 5209W        W 8728   5.063   7.268  11.535 -0.1575 -0.2497  0.1212
 5210W        W 8729   9.642   4.917  10.040  0.0463  0.0070  0.1784
 5211W        W 8730   8.097   4.566   2.259  0.0552 -0.1981  0.1197
 5212W        W 8731   5.592   3.328  11.712  0.0294 -0.0872 -0.2661
 5213W        W 8732   9.051   0.704   4.666 -0.1006  0.1404  0.2158
 5214W        W 8733   9.269   3.688   2.322  0.2673  0.0501  0.0306
 5215W        W 8734   5.160   4.536   8.239  0.2709 -0.1540  0.1127
 5216W        W 8735   7.953   7.989   1.870 -0.0938  0.0172 -0.0275
 5217W        W 8736   9.407   5.220  11.630 -0.0324  0.0410 -0.1362
 5218W        W 8737   2.186   6.394  11.800  0.4480 -0.0379  0.1080
 5219W        W 8738   3.015   9.188  10.274 -0.0755  0.2160  0.1224
 5220W        W 8739   2.397   0.948   2.939 -0.1197  0.1536  0.0258
 5221W        W 8740   4.989   5.998  11.272 -0.2422 -0.0945 -0.1613
 5222W        W 8741   5.739   4.153   0.968 -0.2423 -0.2746 -0.1935
 5223W        W 8742   5.549   0.415  10.145 -0.1442  0.0241 -0.2851
 5224W        W 8743   5.371   1.482   1.030 -0.2738 -0.0767 -0.0626
 5225W        W 8744   7.726   5.857   3.970  0.0914 -0.3639 -0.0707
 5226W        W 8745   4.115   7.337  12.177 -0.0939 -0.1675 -0.0419
 5227W        W 8746   3.464   1.163   0.467  0.4019 -0.0436 -0.2372
 5228W        W 8747   7.230   5.297  10.883 -0.2699  0.1758  0.3412
 5229W        W 8748   5.574   0.652   0.975 -0.4569  0.0578 -0.1686
 5230W        W 8749   9.254   3.688   0.627  0.1410  0.2848  0.1629
 5231W        W 8750   3.744   0.309   2.397 -0.1731 -0.3552  0.2529
 5232W        W 8751   8.344   2.527   4.039 -0.1669 -0.0394  0.0042
 5233W        W 8752   1.782   8.147   4.352  0.0745 -0.0011  0.1692
 5234W        W 8753   1.752   3.919   2.189 -0.0738 -0.3215 -0.1831
 5235W        W 8754   4.409   8.765   0.914  0.1091  0.2235  0.1311
 5236W        W 8755   1.120   4.568  10.771 -0.0596  0.0222 -0.1054
 5237W        W 8756   4.629   8.224   3.231  0.2558  0.1995 -0.4544
 5238W        W 8757   2.182   0.110   1.857  0.0821 -0.2119  0.0234
 5239W        W 8758   1.314   8.147   8.728 -0.0734 -0.3986 -0.2041
 5240W        W 8759   6.184   5.334  11.085  0.0862 -0.0309  0.2519
 5241W        W 8760   2.959   3.520   2.098  0.1861  0.1123 -0.1419
 5242W        W 8761   2.417   4.624   2.555  0.1926 -0.1433  0.0043
 5243W        W 8762   7.037   1.087   3.404  0.0030 -0.4598 -0.2014
 5244W        W 8763   8.227   8.225   3.899  0.1116  0.1320  0.1388
 5245W        W 8764   1.395   5.729   2.896 -0.3502  0.0384 -0.0139
 5246W        W 8765   9.326   0.375  11.485  0.1838 -0.1792  0.0517
 5247W        W 8766   4.311   3.094  12.224  0.1159 -0.0194 -0.0041
 5248W        W 8767   2.607   8.906  10.350 -0.1133  0.1148  0.0970
 5249W        W 8768   0.083   6.026   2.703 -0.3635 -0.1098 -0.1921
 5250W        W 8769   8.159   5.590   2.016 -0.0468 -0.1839  0.2848
 5251W        W 8770   2.615   4.535  12.286 -0.4285  0.0460  0.0455
 5252W        W 8771   1.484   0.679  10.211 -0.0695 -0.1009  0.2127
 5253W        W 8772   5.661   6.328   3.253  0.1790 -0.4801 -0.0487
 5254W        W 8773   0.555   9.433   1.011  0.0269 -0.2749 -0.0854
 5255W        W 8774   3.638   7.039   3.672  0.1777 -0.0817  0.3134
 5256W        W 8775   5.889   3.030  10.631  0.1817 -0.0166  0.0753
 5257W        W 8776   4.113   8.733  10.439  0.1001  0.0775 -0.1940
 5258W        W 8777   7.046   5.910   0.385  0.1182  0.2199 -0.0581
 5259W        W 8778   7.364   0.270   3.314 -0.2444  0.1409 -0.0682
 5260W        W 8779   9.365   1.297   0.420 -0.0482 -0.1584  0.1211
 5261W        W 8780   2.648   5.746   9.851 -0.0735 -0.2421  0.1005
 5262W        W 8781   5.875   3.664   0.975  0.2792  0.0379 -0.0161
 5263W        W 8782   0.471   6.198   4.435  0.2124  0.0457 -0.2655
 5264W        W 8783   8.752   0.873   0.907  0.1661  0.0109  0.0106
 5265W        W 8784   4.203   3.045   1.259  0.1294  0.2797  0.1773
 5266W        W 8785   1.402   4.099  11.939  0.1397 -0.0966  0.3496
 5267W        W 8786   7.343   1.689   8.549 -0.1244  0.1892  0.1444
 5268W        W 8787   4.328   4.028  12.606 -0.6541  0.0897 -0.0941
 5269W        W 8788   6.929   8.205   0.017 -0.0574 -0.1081  0.0507
 5270W        W 8789   8.918   2.510   8.532  0.1403 -0.2340 -0.2902
 5271W        W 8790   8.265   1.088  10.063 -0.0580  0.0708  0.1026
 5272W        W 8791   0.507   6.670   8.943  0.0161 -0.3731 -0.1000
 5273W        W 8792   1.152   8.438  11.008 -0.1348  0.2088 -0.0173
 5274W        W 8793   3.343   8.630   0.605 -0.0444 -0.0946 -0.0185
 5275W        W 8794   4.569   3.996   9.454  0.2300  0.1423 -0.3837
 5276W        W 8795   7.169   8.760   0.980  0.0523 -0.3579  0.0435
 5277W        W 8796   6.212   4.936   4.424  0.1335 -0.5226 -0.3755
 5278W        W 8797   4.410   1.703  11.108 -0.0282 -0.0933 -0.0436
 5279W        W 8798   1.682   5.604   9.963 -0.2280 -0.2290  0.2269
 5280W        W 8799   0.181   0.062  11.653  0.1353  0.0898  0.2994
 5281W        W 8800   8.086   3.616   9.056 -0.0619 -0.0574  0.0946
 5282W        W 8801   6.765   2.173   9.917 -0.0862 -0.1549 -0.2585
 5283W        W 8802   9.410   5.555  12.099  0.0588  0.0276  0.0583
 5284W        W 8803   6.653   1.294   8.498 -0.2311 -0.1946  0.1832
 5285W        W 8804   7.129   1.176   8.547 -0.2820 -0.0535  0.1327
 5286W        W 8805   2.701   7.354   9.957  0.5106 -0.2825  0.4874
 5287W        W 8806   2.859   5.724   3.493 -0.3045 -0.4481 -0.2044
 5288W        W 8807   9.360   9.572  11.538 -0.2767  0.1912 -0.2565
 5289W        W 8808   0.732   6.336   9.182  0.0762 -0.0425  0.3908
 5290W        W 8809   9.218   0.700   2.279 -0.1578 -0.0543 -0.0077
 5291W        W 8810   4.419   3.551   1.837  0.1057  0.2831 -0.1126
 5292W        W 8811   6.546   5.293   9.583 -0.1828  0.2531 -0.0872
 5293W        W 8812   8.959   8.287   4.470 -0.0007  0.1851 -0.1828
 5294W        W 8813   3.159   4.547   2.487 -0.3000  0.2362 -0.0471
 5295W        W 8814   4.475   6.335   2.047  0.3775 -0.0363 -0.0347
 5296W        W 8815   0.177   3.474   1.414 -0.2252 -0.0229  0.0060
 5297W        W 8816   0.803   9.608   1.427 -0.0400 -0.1146  0.1589
 5298W        W 8817   1.631   4.266   9.904 -0.2116  0.2844  0.2499
 5299W        W 8818   1.422   7.326  12.096  0.2685  0.3179 -0.4355
 5300W        W 8819   8.191   2.059   1.776  0.0183  0.1148  0.0166
 5301W        W 8820   4.806   2.124   9.439  0.4279  0.0026 -0.3175
 5302W        W 8821   0.412   7.097   0.510  0.0905  0.1164  0.4982
 5303W        W 8822   8.996   9.061   1.509 -0.1793 -0.1802  0.3163
 5304W        W 8823   1.154   7.011  10.433  0.0146  0.0153 -0.0569
 5305W        W 8824   5.894   0.891   9.815 -0.3014  0.3287  0.0273
 5306W        W 8825   2.088   8.959   3.391  0.2365  0.1093 -0.2746
 5307W        W 8826   1.543   4.984  10.590  0.0265 -0.1310  0.3089
 5308W        W 8827   3.857   6.667   2.784 -0.0111  0.2297 -0.0934
 5309W        W 8828   6.572   7.492   1.277  0.3583 -0.1386  0.1471
 5310W        W 8829   5.233   8.890  10.796  0.2173  0.1621 -0.0120
 5311W        W 8830   3.994   3.327  12.552 -0.1151 -0.1630 -0.2555
 5312W        W 8831   9.373   8.336  10.160  0.0601 -0.3132  0.1849
 5313W        W 8832   4.168   4.403   0.344  0.0117 -0.1003  0.4325
 5314W        W 8833   9.135   4.966  10.163  0.1523 -0.2604  0.0499
 5315W        W 8834   5.961   3.630  11.903 -0.1653  0.0871  0.1875
 5316W        W 8835   5.663   7.592   0.259  0.0445 -0.1766 -0.1313
 5317W        W 8836   6.658   5.372   2.633  0.5060 -0.1314  0.1080
 5318W        W 8837   2.814   2.593  11.068 -0.0316  0.0239 -0.4479
 5319W        W 8838   4.433   4.237   4.146 -0.3455  0.1522  0.0556
 5320W        W 8839   6.901   8.266   1.793 -0.0825  0.3391 -0.1519
 5321W        W 8840   1.396   4.054   0.217 -0.1925  0.0587 -0.1311
 5322W        W 8841   6.331   5.672   2.303 -0.0145  0.1005 -0.0227
 5323W        W 8842   4.925   1.059   3.495  0.3206  0.0197 -0.1885
 5324W        W 8843   4.600   7.106   8.493  0.2335 -0.0192 -0.3745
 5325W        W 8844   3.764   2.313   1.377 -0.1655  0.1714  0.0791
 5326W        W 8845   7.455   0.136   2.667 -0.3191 -0.1548 -0.0624
 5327W        W 8846   4.253   3.852   2.885  0.2031 -0.0542 -0.0500
 5328W        W 8847   2.615   8.190   8.928 -0.1130  0.2918  0.3695
 5329W        W 8848   1.471   9.261  11.606 -0.5150  0.0491  0.2108
 5330W        W 8849   8.813   4.513   0.651  0.0822  0.0734  0.0614
 5331W        W 8850   9.284   2.058  10.849 -0.0727 -0.1129  0.2527
 5332W        W 8851   2.889   7.462   1.460  0.2344  0.1073 -0.0852
 5333W        W 8852   7.100   2.932   0.558  0.2046  0.2136  0.1409
 5334W        W 8853   2.934   6.189   8.430 -0.3043  0.2611 -0.0690
 5335W        W 8854   9.563   8.718  12.526  0.0831 -0.0950 -0.2008
 5336W        W 8855   8.975   2.675   9.533 -0.3238 -0.1863 -0.3363
 5337W        W 8856   1.375   0.624  11.715  0.2372 -0.0065  0.0937
 5338W        W 8857   5.613   5.670   1.599 -0.1573  0.2460  0.0193
 5339W        W 8858   2.500   3.442   0.048  0.2702  0.1155  0.0392
 5340W        W 8859   1.683   9.606   1.936 -0.1343 -0.1487  0.0520
 5341W        W 8860   3.683   0.049   1.309 -0.1159 -0.0733 -0.0604
 5342W        W 8861   0.483   6.336   7.916 -0.4269 -0.1211  0.0433
 5343W        W 8862   7.428   7.967  12.509  0.0111 -0.1007  0.2295
 5344W        W 8863   2.356   0.069   3.954  0.1947  0.0641  0.0614
 5345W        W 8864   1.529   5.266   0.462 -0.1119 -0.1598 -0.3619
 5346W        W 8865   8.912   6.719   2.896  0.2997 -0.0538 -0.0739
 5347W        W 8866   7.460   7.168   3.547  0.1672 -0.1455  0.0650
 5348W        W 8867   5.172   6.671   0.616  0.1889  0.0248  0.1889
 5349W        W 8868   1.080   5.703  10.454  0.2069  0.1707  0.0143
 5350W        W 8869   0.991   2.238   9.461  0.0279  0.1658  0.2088
 5351W        W 8870   1.224   5.061   0.141  0.2047 -0.0943  0.1012
 5352W        W 8871   8.205   3.033  11.912  0.0694  0.2807  0.0021
 5353W        W 8872   9.275   2.752   0.969  0.1327  0.1381 -0.0784
 5354W        W 8873   9.331   0.509   1.781  0.0969  0.2217 -0.3829
 5355W        W 8874   7.225   7.745   1.608  0.1210  0.0897  0.0782
 5356W        W 8875   1.146   6.828   1.826  0.1161 -0.2094  0.2551
 5357W        W 8876   9.142   8.697   3.363 -0.1932 -0.3335  0.3062
 5358W        W 8877   5.076   7.742   9.928  0.0196 -0.1829  0.0602
 5359W        W 8878   9.494   4.031   1.735 -0.0620  0.1367 -0.1226
 5360W        W 8879   4.667   8.472   0.169 -0.0471 -0.2971  0.1970
 5361W        W 8880   5.369   0.703   9.336 -0.1886 -0.0454  0.2014
 5362W        W 8881   1.031   8.187  11.431 -0.3142  0.1126 -0.0163
 5363W        W 8882   6.781   2.805   8.540 -0.2786 -0.1825  0.0646
 5364W        W 8883   0.933   1.763   9.504 -0.2315  0.3400  0.1250
 5365W        W 8884   2.421   1.158   8.957 -0.4446  0.2002 -0.0149
 5366W        W 8885   9.009   1.858  12.482  0.1298  0.1091  0.1973
 5367W        W 8886   3.216   5.825   9.054 -0.3012  0.3020  0.0425
 5368W        W 8887   2.314   0.998   1.827  0.0533 -0.4822 -0.0409
 5369W        W 8888   6.919   2.400   3.786 -0.0612  0.1095  0.0423
 5370W        W 8889   3.844   8.030  11.850  0.1671  0.0425  0.1894
 5371W        W 8890   9.323   7.754  10.021  0.0775  0.1577 -0.1538
 5372W        W 8891   9.212   2.531  11.744 -0.0189 -0.0424  0.1110
 5373W        W 8892   1.583   7.745   8.797 -0.0046 -0.0161 -0.1718
 5374W        W 8893   3.035   1.920   1.603  0.0298  0.1332  0.2167
 5375W        W 8894   9.479   6.906   0.885  0.1075  0.0371  0.0544
 5376W        W 8895   8.677   7.106   4.509  0.1153 -0.1482  0.1936
 5377W        W 8896   9.030   9.641   0.261 -0.0007 -0.1193  0.2443
 5378W        W 8897   2.829   9.359  11.397 -0.1315 -0.1068 -0.0474
 5379W        W 8898   1.062   0.467   0.684 -0.1369 -0.0148  0.4587
 5380W        W 8899   0.114   5.657   3.167  0.0046 -0.1904 -0.2615
 5381W        W 8900   8.726   6.535   0.719  0.2475 -0.1343  0.6830
 5382W        W 8901   6.222   1.127   0.016 -0.2726  0.3429 -0.1618
 5383W        W 8902   7.005   4.692   0.616  0.1311 -0.1136 -0.1039
 5384W        W 8903   2.685   1.399  10.616  0.0957 -0.0001  0.0778
 5385W        W 8904   1.565   4.440   2.205  0.1357 -0.1250  0.2313
 5386W        W 8905   6.471   7.078   1.621 -0.0320 -0.0267 -0.0274
 5387W        W 8906   7.229   9.485  12.497  0.3972  0.0322 -0.2411
 5388W        W 8907   0.646   8.213  10.366 -0.0167  0.1647  0.2076
 5389W        W 8908   1.164   3.412  12.355  0.1431 -0.1546  0.1154
 5390W        W 8909   7.928   3.009   2.628  0.0672  0.1574  0.2143
 5391W        W 8910   2.953   1.589   9.686  0.1627 -0.0150  0.0836
 5392W        W 8911   2.466   5.660   3.782 -0.1505 -0.3155  0.2966
 5393W        W 8912   2.521   9.618   2.139  0.0087 -0.0143 -0.1124
 5394W        W 8913   5.871   4.097  11.555  0.3669  0.1384  0.0912
 5395W        W 8914   6.886   9.213   1.200  0.1355 -0.0772  0.2369
 5396W        W 8915   8.495   3.940   9.202  0.1283  0.0527 -0.0265
 5397W        W 8916   2.196   2.900   1.449  0.2477  0.0856  0.0208
 5398W        W 8917   2.412   3.933   1.755  0.0539 -0.2135  0.0906
 5399W        W 8918   5.927   4.961  11.416  0.0802 -0.2913 -0.3179
 5400W        W 8919   0.237   8.419   4.011 -0.1359 -0.2916 -0.3856
 5401W        W 8920   3.004   0.024  12.326  0.1317 -0.1255  0.2255
 5402W        W 8921   1.988   1.565   9.283  0.1838 -0.0083 -0.2474
 5403W        W 8922   5.942   8.320   4.047 -0.1308  0.0223 -0.2635
 5404W        W 8923   1.454   3.120   2.091  0.0446  0.0045  0.0293
 5405W        W 8924   5.793   6.412   9.683 -0.1621 -0.2850 -0.0536
 5406W        W 8925   1.481   6.812  10.728  0.0828  0.0748 -0.3265
 5407W        W 8926   1.204   9.429   4.196 -0.3070  0.3177  0.0456
 5408W        W 8927   2.463   6.081   1.908  0.0528  0.3857  0.4188
 5409W        W 8928   0.255   6.635   0.374 -0.0011  0.2695  0.1767
 5410W        W 8929   4.730   4.959  10.409 -0.0860 -0.0552  0.1972
 5411W        W 8930   4.239   0.850  11.620 -0.1370  0.0219 -0.1345
 5412W        W 8931   8.872   1.953  11.113  0.1984  0.0199  0.3425
 5413W        W 8932   8.713   7.452   3.521  0.1776  0.2905 -0.1565
 5414W        W 8933   1.959   1.018   0.791  0.0210 -0.1864 -0.5062
 5415W        W 8934   8.534   8.333  11.714 -0.4002 -0.2956  0.1180
 5416W        W 8935   4.864   7.930   0.085  0.0535  0.0479  0.1171
 5417W        W 8936   8.799   0.046   9.897 -0.2213  0.2243 -0.1726
 5418W        W 8937   3.333   8.145   0.518  0.2367 -0.3765  0.0913
 5419W        W 8938   2.318   7.030  10.210  0.0436  0.0633 -0.3884
 5420W        W 8939   6.172   0.894  11.221 -0.0212  0.1375  0.0016
 5421W        W 8940   2.819   4.954   2.452  0.1491 -0.1966 -0.1315
 5422W        W 8941   1.637   2.686  12.059 -0.2276  0.2146  0.2069
 5423W        W 8942   3.400   7.179   1.518  0.0617  0.2280  0.3761
 5424W        W 8943   1.992   0.023   2.339  0.2386 -0.2233  0.0176
 5425W        W 8944   9.575   1.466   3.799 -0.0179  0.1193 -0.3311
 5426W        W 8945   1.593   6.090  10.172 -0.2129 -0.0280  0.1407
 5427W        W 8946   0.201   2.953   1.488  0.2332  0.1994  0.0989
 5428W        W 8947   8.841   6.528   8.466 -0.3295  0.1118 -0.2859
 5429W        W 8948   7.046   1.331   1.066 -0.0080 -0.1805  0.0086
 5430W        W 8949   9.564   5.610  11.248  0.0933  0.2916 -0.0521
 5431W        W 8950   1.936   8.195  10.408  0.0720  0.1770 -0.1889
 5432W        W 8951   2.267   3.483  11.350 -0.0430 -0.2627  0.4747
 5433W        W 8952   1.880   0.131  12.144  0.1981  0.0701 -0.3535
 5434W        W 8953   1.800   9.518   3.382  0.0719  0.5161  0.0517
 5435W        W 8954   5.003   5.757   3.591 -0.0318 -0.1404  0.3179
 5436W        W 8955   7.190   5.425   2.880 -0.0886 -0.1758 -0.0629
 5437W        W 8956   2.025   4.848   1.821 -0.2237 -0.4774  0.5539
 5438W        W 8957   5.840   3.226   1.308 -0.0720 -0.1070 -0.0997
 5439W        W 8958   1.362   2.765   2.947  0.0663 -0.2765 -0.0145
 5440W        W 8959   6.140   9.634   2.710  0.1148  0.3249 -0.3054
 5441W        W 8960   5.108   4.677  10.641  0.3497  0.4827  0.1367
 5442W        W 8961   5.218   8.519  12.624 -0.0105  0.0039 -0.1363
 5443W        W 8962   5.876   2.412   9.936  0.2510  0.0464  0.2909
 5444W        W 8963   8.619   7.223  10.171 -0.0852  0.1994 -0.1060
 5445W        W 8964   2.752   4.612   2.895  0.0470  0.0289  0.0862
 5446W        W 8965   0.448   7.464   9.790  0.0404 -0.3256 -0.2913
 5447W        W 8966   3.771   6.633   0.744 -0.0334  0.0821  0.3421
 5448W        W 8967   0.579   3.895   0.708 -0.0532  0.1710 -0.4128
 5449W        W 8968   7.486   8.394  11.968 -0.1336  0.1587 -0.2481
 5450W        W 8969   3.247   4.067   0.219  0.0574  0.2190  0.0489
 5451W        W 8970   2.193   7.952   4.492 -0.0640  0.1827 -0.0956
 5452W        W 8971   3.516   3.654   0.032 -0.1992  0.1147 -0.1096
 5453W        W 8972   1.416   2.653  10.365 -0.0475  0.0337 -0.1327
 5454W        W 8973   8.949   1.970   0.328  0.1560  0.1598 -0.2728
 5455W        W 8974   5.788   7.805   3.771 -0.2550 -0.0550 -0.1450
 5456W        W 8975   6.370   6.334  11.063 -0.0608  0.0966  0.3197
 5457W        W 8976   4.969   6.611  10.727 -0.0288  0.2608 -0.0185
 5458W        W 8977   0.685   4.192   1.152  0.0347 -0.2159  0.0022
 5459W        W 8978   4.785   1.158   1.818 -0.1558 -0.0783 -0.1833
 5460W        W 8979   1.998   0.123   2.944  0.0201 -0.0446 -0.2298
 5461W        W 8980   3.432   2.962  11.586  0.0451 -0.0946  0.1625
 5462W        W 8981   1.764   8.868   3.779  0.1860 -0.0922 -0.1196
 5463W        W 8982   4.662   7.274   9.872 -0.1030 -0.4387  0.0148
 5464W        W 8983   7.311   9.447   9.623 -0.5041  0.0042 -0.1744
 5465W        W 8984   5.993   5.502   8.888 -0.0613  0.1373 -0.1816
 5466W        W 8985   4.803   0.193   2.028  0.1815  0.2535 -0.0926
 5467W        W 8986   4.644   8.435  11.396  0.0954 -0.1693  0.2961
 5468W        W 8987   4.829   4.548  11.052  0.2266  0.1866 -0.1502
 5469W        W 8988   6.079   0.166   3.184  0.1254 -0.0689  0.0015
 5470W        W 8989   0.478   2.905  11.113 -0.1322 -0.1553 -0.2129
 5471W        W 8990   4.487   9.051   1.301  0.0564 -0.0332  0.0312
 5472W        W 8991   3.394   6.078   0.370 -0.1088 -0.0663 -0.2312
 5473W        W 8992   7.038   3.234  12.421  0.0324  0.1145 -0.0597
 5474W        W 8993   6.084   4.331   1.998  0.1644  0.0210  0.1370
 5475W        W 8994   1.325   3.550   1.955  0.1295 -0.0748  0.2697
 5476W        W 8995   5.349   2.745   3.076  0.0775 -0.4725  0.0608
 5477W        W 8996   1.855   0.650  11.960 -0.0253  0.0237  0.3811
 5478W        W 8997   1.787   2.820   0.383 -0.0113 -0.0926  0.0596
 5479W        W 8998   6.038   7.764   2.374  0.0084 -0.1146 -0.0239
 5480W        W 8999   8.579   7.379   0.037 -0.1434 -0.2891  0.0384
 5481W        W 9000   3.682   9.508   8.957 -0.0662  0.0856 -0.0059
 5482W        W 9001   2.383   0.634  10.217  0.2360 -0.0136  0.1299
 5483W        W 9002   4.785   7.637  12.234  0.0811 -0.1375 -0.1472
 5484W        W 9003   3.796   6.537  12.483  0.2665 -0.0643  0.1639
 5485W        W 9004   7.288   9.442   4.029  0.0276 -0.1097  0.0523
 5486W        W 9005   9.459   3.757   1.255  0.1919  0.1842 -0.2990
 5487W        W 9006   1.484   8.654   8.394  0.0958  0.0999 -0.0711
 5488W        W 9007   8.825   9.014   3.113 -0.0873 -0.3100  0.1175
 5489W        W 9008   3.377   3.663   2.355 -0.1344 -0.1469  0.1022
 5490W        W 9009   4.322   8.344   2.756 -0.0865  0.0491 -0.1190
 5491W        W 9010   7.951   5.290  11.402  0.1605  0.2504 -0.0323
 5492W        W 9011   2.736   7.863   4.679 -0.3603 -0.3227  0.2763
 5493W        W 9012   3.224   7.558   3.518 -0.0994 -0.0031  0.2552
 5494W        W 9013   3.336   3.173   2.064 -0.1485  0.0579  0.1400
 5495W        W 9014   7.994   1.653  10.120  0.3268  0.1641  0.2648
 5496W        W 9015   6.546   3.157  12.330  0.0337  0.1321 -0.1734
 5497W        W 9016   5.543   9.182   0.867  0.0771  0.4763  0.1588
 5498W        W 9017   2.536   0.269   9.287 -0.2200 -0.4180  0.2457
 5499W        W 9018   2.969   3.192   2.538  0.1039 -0.1699 -0.0458
 5500W        W 9019   2.249   5.906  11.888  0.4460  0.2386  0.1102
 5501W        W 9020   1.051   1.199  10.395 -0.0168  0.1584  0.1579
 5502W        W 9021   4.375   6.119   9.938 -0.1146  0.0230  0.1726
 5503W        W 9022   4.055   0.429   3.294 -0.1933  0.0698  0.2002
 5504W        W 9023   6.025   8.519   1.923  0.0378  0.1151 -0.0722
 5505W        W 9024   7.142   0.856   1.696 -0.2214  0.0940  0.0738
 5506W        W 9025   1.029   0.788   2.504  0.0554 -0.1409  0.1066
 5507W        W 9026   6.598   9.150   1.647  0.0880  0.0146 -0.0250
 5508W        W 9027   4.201   2.075   1.193 -0.1392  0.0657  0.1859
 5509W        W 9028   9.502   8.812   0.934 -0.0970 -0.0530 -0.3077
 5510W        W 9029   5.901   8.081   1.067 -0.2594  0.1171 -0.3484
 5511W        W 9030   9.636   1.608  10.004  0.0585 -0.5203 -0.2615
 5512W        W 9031   2.458   8.672   0.711 -0.1426 -0.1956 -0.2227
 5513W        W 9032   4.837   3.464  11.377 -0.0527 -0.0679  0.2058
 5514W        W 9033   0.185   0.994   3.646  0.1120  0.0704  0.0788
 5515W        W 9034   1.574   2.590  12.536 -0.1033 -0.1131 -0.0910
 5516W        W 9035   4.862   7.189  10.375  0.3060  0.3670 -0.1211
 5517W        W 9036   3.901   5.818   0.276  0.2944  0.4380  0.1718
 5518W        W 9037   0.736   5.369   0.018  0.1078 -0.0187 -0.2913
 5519W        W 9038   2.168   8.342  11.167  0.3309  0.0134  0.1876
 5520W        W 9039   5.510   1.519   1.502 -0.2375  0.0419  0.1625
 5521W        W 9040   4.931   7.743   2.123  0.0760 -0.0362  0.2804
 5522W        W 9041   8.217   3.513  11.092 -0.1364  0.0368  0.0276
 5523W        W 9042   5.935   4.504   9.536 -0.1205  0.1464  0.2298
 5524W        W 9043   9.214   3.092   3.835  0.2297 -0.2175  0.3802
 5525W        W 9044   7.590   6.230   3.246  0.2632 -0.0774  0.1228
 5526W        W 9045   7.963   4.863   2.642  0.0087  0.1489  0.2221
 5527W        W 9046   1.716   5.868   8.595 -0.1539  0.0558 -0.1256
 5528W        W 9047   9.571   5.055  10.514  0.0551 -0.2157  0.1336
 5529W        W 9048   8.050   3.992   9.421  0.4486  0.1219  0.0771
 5530W        W 9049   6.361   7.465   0.417 -0.2243  0.1105  0.3793
 5531W        W 9050   2.082   7.598   1.897 -0.2464 -0.1196  0.1959
 5532W        W 9051   7.342   6.854  10.245  0.1284  0.0060 -0.1960
 5533W        W 9052   0.216   3.237   0.128 -0.0569  0.2968 -0.1339
 5534W        W 9053   5.811   5.917   9.860 -0.0972  0.0367 -0.2733
 5535W        W 9054   5.350   1.161   3.661  0.0957 -0.3131 -0.1342
 5536W        W 9055   4.374   3.851   0.969  0.2422 -0.0706 -0.3505
 5537W        W 9056   2.933   7.912   8.117  0.4693 -0.2530  0.0342
 5538W        W 9057   8.021   1.294   9.052  0.0291 -0.1891 -0.2206
 5539W        W 9058   0.868   8.585   2.881  0.2081 -0.0550 -0.2604
 5540W        W 9059   9.595   9.610   0.210  0.2529 -0.0238 -0.2326
 5541W        W 9060   7.598   4.476   4.407  0.0570 -0.3658 -0.1541
 5542W        W 9061   1.908   5.225  12.243  0.3660 -0.1575  0.3512
 5543W        W 9062   9.373   5.957   3.056 -0.0838 -0.1705  0.1796
 5544W        W 9063   3.880   7.266   1.523  0.2644 -0.3262 -0.0421
 5545W        W 9064   0.024   3.369   0.675  0.1487 -0.0928  0.0384
 5546W        W 9065   8.037   3.316   9.955  0.0081 -0.1197  0.0785
 5547W        W 9066   1.963   4.906   3.999  0.2727  0.3925  0.1910
 5548W        W 9067   6.773   1.097   1.958 -0.1194  0.1662 -0.1096
 5549W        W 9068   0.799   6.706   0.554 -0.3081 -0.0839 -0.0494
 5550W        W 9069   1.440   0.614   1.277  0.2474  0.1731  0.2309
 5551W        W 9070   4.255   5.226  11.973  0.1024 -0.0562  0.0529
 5552W        W 9071   0.726   4.953   0.374  0.0621 -0.0983 -0.1112
 5553W        W 9072   7.890   5.792   0.982 -0.0024 -0.2716 -0.0120
 5554W        W 9073   2.349   4.863   3.771  0.1656  0.3240 -0.0610
 5555W        W 9074   2.250   9.367   8.624 -0.3300 -0.1675 -0.1655
 5556W        W 9075   4.690   6.095   0.901  0.0218  0.2841  0.4900
 5557W        W 9076   9.658   3.991   2.259  0.1409  0.0338  0.0374
 5558W        W 9077   4.056   8.401   2.295  0.2777 -0.1901  0.0066
 5559W        W 9078   2.555   6.733   4.653 -0.1113  0.1992  0.1333
 5560W        W 9079   0.724   2.417   8.465 -0.0064 -0.0848  0.0807
 5561W        W 9080   8.175   0.229  11.847  0.3992 -0.3227  0.2079
 5562W        W 9081   8.711   7.371   8.895  0.1459 -0.1561 -0.1600
 5563W        W 9082   2.643   7.567  11.471  0.6454  0.2155 -0.1559
 5564W        W 9083   5.002   7.056   8.194  0.0010 -0.0072  0.1647
 5565W        W 9084   2.497   3.896  12.360 -0.3024 -0.4036  0.1305
 5566W        W 9085   1.944   9.094   9.320  0.1369 -0.2149  0.2012
 5567W        W 9086   7.098   9.118   3.708  0.0317 -0.0067 -0.1905
 5568W        W 9087   2.624   1.034   9.826  0.1256 -0.0880  0.1231
 5569W        W 9088   0.919   0.453   3.894  0.1730 -0.0555  0.1964
 5570W        W 9089   8.646   7.746   0.379 -0.1938  0.1953  0.0804
 5571W        W 9090   6.067   1.413   0.368  0.1386  0.0770 -0.0626
 5572W        W 9091   6.496   2.445   0.076  0.1367 -0.0414  0.2791
 5573W        W 9092   1.336   7.333  11.074  0.1531 -0.1033  0.1837
 5574W        W 9093   8.217   6.153   2.316 -0.1739 -0.0785  0.0191
 5575W        W 9094   5.386   7.888   0.721  0.0681  0.1390 -0.0004
 5576W        W 9095   5.100   9.113   3.685 -0.1470 -0.1366  0.1152
 5577W        W 9096   3.212   8.486   3.291 -0.0611  0.0089  0.1876
 5578W        W 9097   7.103   8.031  11.633 -0.2989 -0.1847 -0.0118
 5579W        W 9098   5.117   2.439   0.222 -0.1080 -0.0605  0.0078
 5580W        W 9099   0.073   3.371   1.920  0.0280  0.0921  0.0937
 5581W        W 9100   7.726   0.976  11.923 -0.1761 -0.3083 -0.1608
 5582W        W 9101   8.631   4.709  11.381 -0.3172  0.1969 -0.2001
 5583W        W 9102   8.026   6.510   3.101  0.2101  0.1092 -0.1623
 5584W        W 9103   2.714   1.772   1.953  0.1225  0.3651 -0.0690
 5585W        W 9104   5.926   4.222   9.152 -0.2620  0.0203  0.0297
 5586W        W 9105   5.353   3.288  11.275 -0.1077  0.0672  0.0675
 5587W        W 9106   3.206   3.276  10.464  0.2231  0.2281  0.3575
 5588W        W 9107   2.920   1.702   9.162  0.1292  0.0065 -0.0971
 5589W        W 9108   9.547   4.915   0.041 -0.2760  0.0369 -0.2819
 5590W        W 9109   6.824   3.228   1.809 -0.1024 -0.2549 -0.2527
 5591W        W 9110   9.295   1.662  12.158 -0.4414 -0.2540 -0.0531
 5592W        W 9111   8.416   0.308  10.034  0.0530 -0.2818  0.3674
 5593W        W 9112   0.208   6.529   2.754 -0.4043 -0.0907  0.4202
 5594W        W 9113   4.921   2.665   1.717 -0.1518 -0.1741  0.0803
 5595W        W 9114   6.916   3.325  11.889  0.1076 -0.0996  0.1237
 5596W        W 9115   1.803   2.524   1.467  0.2596  0.0513 -0.1719
 5597W        W 9116   3.898   1.833  10.114 -0.3067 -0.2497  0.3288
 5598W        W 9117   0.346   7.321   9.343 -0.0246  0.1758  0.3428
 5599W        W 9118   4.895   3.300   1.921  0.0443 -0.2510  0.2582
 5600W        W 9119   4.929   1.226   0.428 -0.1210  0.2219 -0.2919
 5601W        W 9120   5.974   6.339   1.682  0.0386  0.0119  0.0002
 5602W        W 9121   7.891   7.794  12.553 -0.3511 -0.2011  0.2707
 5603W        W 9122   4.162   6.783  12.155  0.0837 -0.0209  0.0136
 5604W        W 9123   7.792   8.594  12.362  0.0080 -0.0178  0.3079
 5605W        W 9124   8.149   8.586  10.296 -0.0415  0.1636 -0.2431
 5606W        W 9125   3.352   6.301   8.851 -0.0441  0.1767 -0.3080
 5607W        W 9126   5.424   4.370   1.366 -0.2380 -0.4618  0.0835
 5608W        W 9127   6.233   4.376   0.134  0.0192 -0.1948  0.2548
 5609W        W 9128   4.224   0.508  12.006 -0.0206  0.1146  0.0376
 5610W        W 9129   7.198   4.291  10.804 -0.1895  0.0450 -0.3245
 5611W        W 9130   1.233   3.747   2.839 -0.2774  0.2403 -0.0654
 5612W        W 9131   2.202   0.613   0.620 -0.2659  0.1822  0.0072
 5613W        W 9132   9.015   0.181   9.200  0.0239  0.2264 -0.1058
 5614W        W 9133   1.354   5.181  12.305  0.0105  0.0053 -0.0819
 5615W        W 9134   5.231   8.431   0.536  0.1806 -0.0044  0.1739
 5616W        W 9135   1.265   0.891  12.155 -0.1168 -0.5322 -0.1322
 5617W        W 9136   7.109   8.196   0.897  0.0915  0.0128 -0.0524
 5618W        W 9137   0.355   6.394   4.914  0.1833  0.2213  0.1501
 5619W        W 9138   0.728   2.739  12.061 -0.0479 -0.0160 -0.0070
 5620W        W 9139   4.635   6.348  10.288 -0.3770  0.0219  0.0099
 5621W        W 9140   1.259   1.576   3.051 -0.0060  0.1109  0.0365
 5622W        W 9141   5.580   5.425   3.917 -0.0790  0.0617 -0.0139
 5623W        W 9142   6.610   7.252  10.540  0.0138 -0.1461 -0.2210
 5624W        W 9143   1.041   1.947   0.324 -0.2356  0.0806 -0.0666
 5625W        W 9144   5.744   1.963   2.971  0.1210  0.3366  0.0026
 5626W        W 9145   1.577   2.096  10.279 -0.0994 -0.1100  0.0262
 5627W        W 9146   1.467   1.699  12.241 -0.1725 -0.0912  0.0537
 5628W        W 9147   6.918   5.004   2.713 -0.1316 -0.1845  0.0042
 5629W        W 9148   5.778   4.278   3.345  0.1763  0.3138  0.0857
 5630W        W 9149   9.553   7.752   1.160  0.0498  0.1001 -0.0738
 5631W        W 9150   0.680   6.997   0.119 -0.1268  0.1088 -0.2041
 5632W        W 9151   1.472   8.390   4.622 -0.0041 -0.3370 -0.2735
 5633W        W 9152   6.954   5.222   4.998 -0.1131  0.1782 -0.0968
 5634W        W 9153   3.239   2.428   9.633 -0.1519  0.0187 -0.0559
 5635W        W 9154   2.225   4.233   9.835  0.0480  0.0929 -0.1253
 5636W        W 9155   0.389   3.500   0.967 -0.1089  0.2241 -0.0556
 5637W        W 9156   3.070   6.108   9.794  0.1187  0.0727  0.2649
 5638W        W 9157   2.443   8.040   3.036  0.1894  0.3839  0.4150
 5639W        W 9158   8.978   0.732  11.289 -0.1009  0.2368  0.0617
 5640W        W 9159   9.259   7.858   8.458 -0.0508  0.2631  0.1225
 5641W        W 9160   5.545   5.061  10.570 -0.0809 -0.3843 -0.1302
 5642W        W 9161   8.971   8.470  12.034 -0.2260 -0.1354  0.1947
 5643W        W 9162   4.051   9.426   1.605 -0.0337 -0.2636  0.2330
 5644W        W 9163   7.814   0.151   2.371 -0.1820  0.1276 -0.0214
 5645W        W 9164   0.381   3.933   8.205 -0.0256  0.1543  0.0699
 5646W        W 9165   7.108   2.654   8.121 -0.0016 -0.1266  0.1415
 5647W        W 9166   0.634   2.107   1.401  0.0538 -0.1043 -0.1510
 5648W        W 9167   3.836   2.690   0.670 -0.1060 -0.2635 -0.3903
 5649W        W 9168   3.348   7.061   2.847 -0.1424 -0.2304 -0.0196
 5650W        W 9169   6.245   7.357  10.945  0.0001 -0.1342 -0.0621
 5651W        W 9170   9.092   8.818  12.383  0.0182 -0.2348  0.1116
 5652W        W 9171   6.363   6.374   9.074 -0.0722 -0.0023  0.1597
 5653W        W 9172   2.356   7.224  12.595 -0.1165  0.0418 -0.1436
 5654W        W 9173   9.063   5.451  11.376  0.2509  0.0489 -0.0162
 5655W        W 9174   3.477   2.801   9.260  0.2636 -0.2659  0.0612
 5656W        W 9175   9.012   9.486   0.732 -0.1391  0.0704  0.0004
 5657W        W 9176   3.672   3.403   1.326 -0.1824  0.0734  0.1937
 5658W        W 9177   5.975   0.376   0.750 -0.0038 -0.0437  0.0387
 5659W        W 9178   2.618   6.891   9.742  0.6447  0.2010  0.0602
 5660W        W 9179   0.893   3.021   3.438 -0.1935 -0.2402 -0.1254
 5661W        W 9180   7.816   0.833   8.973  0.2857 -0.2206  0.2426
 5662W        W 9181   4.165   0.716  11.098  0.1442  0.2163  0.0538
 5663W        W 9182   2.835   0.336   8.499 -0.0572 -0.0428  0.0426
 5664W        W 9183   9.384   6.367   1.655  0.2074  0.1690  0.0429
 5665W        W 9184   1.429   6.929   4.845 -0.4009  0.4506  0.3872
 5666W        W 9185   4.167   9.584  10.266  0.0401  0.2172 -0.0361
 5667W        W 9186   5.203   2.250  10.625  0.1583 -0.1615  0.3000
 5668W        W 9187   0.022   5.861   8.715 -0.1158  0.2073 -0.1486
 5669W        W 9188   0.965   6.704   1.332 -0.1367 -0.0047 -0.1651
 5670W        W 9189   9.069   3.208  11.545  0.0459  0.0251 -0.1426
 5671W        W 9190   7.233   9.045   1.646  0.2585  0.3607  0.1496
 5672W        W 9191   2.621   5.120   0.959 -0.4547  0.2911  0.0303
 5673W        W 9192   0.096   2.982   1.021  0.0532  0.2421 -0.0557
 5674W        W 9193   4.603   8.065   1.654  0.0559  0.1079 -0.0653
 5675W        W 9194   6.541   1.342  11.188  0.0015 -0.3379 -0.0439
 5676W        W 9195   3.716   0.777   0.786 -0.2647  0.2007  0.0814
 5677W        W 9196   3.395   9.495   9.482  0.0152 -0.0409 -0.2615
 5678W        W 9197   1.514   0.386   1.979 -0.4348 -0.1761 -0.1010
 5679W        W 9198   3.466   8.145   2.490 -0.3038 -0.0447  0.2090
 5680W        W 9199   4.260   8.655  12.462 -0.2382  0.0189 -0.0895
 5681W        W 9200   9.013   4.354  11.080  0.0971  0.0845  0.1207
 5682W        W 9201   3.511   1.103  10.485  0.3600 -0.4562 -0.2519
 5683W        W 9202   3.282   3.795   9.738 -0.1016  0.4543  0.0975
 5684W        W 9203   7.375   7.819   4.217 -0.2349  0.0636  0.0247
 5685W        W 9204   8.144   3.236   0.704 -0.3230 -0.0596  0.0765
 5686W        W 9205   5.642   6.626   1.974  0.1549 -0.2252  0.0977
 5687W        W 9206   0.869   1.355   1.597  0.2537  0.2481 -0.0003
 5688W        W 9207   7.062   6.597   1.024 -0.1422  0.0215  0.0437
 5689W        W 9208   2.970   6.816   2.548  0.1786 -0.1241  0.0878
 5690W        W 9209   2.823   7.062   7.858  0.0559  0.0616  0.2412
 5691W        W 9210   4.080   4.515  10.284 -0.1908 -0.3140  0.1958
 5692W        W 9211   9.156   9.008  11.290  0.0823 -0.2294  0.1417
 5693W        W 9212   5.390   8.427  12.075 -0.1859  0.1594  0.1322
 5694W        W 9213   3.983   7.939   0.660  0.2246 -0.0340 -0.0302
 5695W        W 9214   7.979   7.630   8.870  0.0678 -0.2279  0.1228
 5696W        W 9215   2.654   8.580   4.078  0.0317 -0.1901  0.0172
 5697W        W 9216   6.803   5.336   9.062 -0.0647 -0.2744 -0.0596
 5698W        W 9217   0.360   8.394   9.320 -0.2993 -0.1917 -0.0518
 5699W        W 9218   6.179   2.371   9.104 -0.1450  0.0561  0.1497
 5700W        W 9219   3.761   5.153   3.570  0.1963 -0.0525  0.1204
 5701W        W 9220   8.795   6.246   4.349 -0.1527  0.1782  0.0096
 5702W        W 9221   6.355   5.917   2.737 -0.0383 -0.2087  0.0857
 5703W        W 9222   5.248   1.213   9.341 -0.1551 -0.0796  0.2059
 5704W        W 9223   7.144   1.098   0.079  0.3847 -0.0949 -0.3339
 5705W        W 9224   0.947   0.870  11.719 -0.1673  0.0155  0.3151
 5706W        W 9225   1.628   9.442   1.133 -0.0904 -0.0946 -0.3224
 5707W        W 9226   3.142   0.154  10.226 -0.1597 -0.1689 -0.0683
 5708W        W 9227   8.000   6.142   1.359  0.2506 -0.4035 -0.3697
 5709W        W 9228   5.946   1.201   8.741 -0.0121 -0.1381 -0.1902
 5710W        W 9229   5.949   7.276   0.643  0.0788  0.0354  0.1601
 5711W        W 9230   6.882   4.333   1.801  0.1998 -0.2312  0.1231
 5712W        W 9231   8.723   4.093  10.772 -0.2083  0.1446 -0.1071
 5713W        W 9232   2.037   2.452   0.185 -0.2103 -0.4199  0.1944
 5714W        W 9233   8.033   2.675   9.076  0.0397  0.1226  0.0581
 5715W        W 9234   4.902   1.987   2.882 -0.1713 -0.2348 -0.1936
 5716W        W 9235   1.578   3.719   8.516 -0.1576  0.0208  0.1666
 5717W        W 9236   0.918   8.203   9.503 -0.1987  0.0683 -0.1143
 5718W        W 9237   9.565   5.581   2.727 -0.0739 -0.0348  0.0980
 5719W        W 9238   2.330   3.977   4.007  0.1948 -0.1912  0.0493
 5720W        W 9239   4.612   7.913   9.136  0.1191  0.0608 -0.3104
 5721W        W 9240   0.298   3.728   8.756 -0.0251 -0.1370 -0.1336
 5722W        W 9241   7.728   3.081  10.349  0.2020 -0.0753 -0.1974
 5723W        W 9242   0.446   0.825  11.886  0.1435  0.1851  0.0575
 5724W        W 9243   6.458   5.315   5.023  0.0796 -0.3377  0.1528
 5725W        W 9244   0.010   2.027  12.155 -0.0421  0.1453  0.0872
 5726W        W 9245   3.070   2.820   1.103  0.0368 -0.0131  0.1427
 5727W        W 9246   2.510   9.335   0.130  0.3268 -0.0882 -0.0850
 5728W        W 9247   6.575   2.707   9.219 -0.0020 -0.1954  0.2718
 5729W        W 9248   7.455   0.300   9.740 -0.3758  0.1614 -0.2808
 5730W        W 9249   0.372   3.604   3.815  0.1530  0.1422  0.1698
 5731W        W 9250   4.372   7.801  11.008  0.1750 -0.1048 -0.0736
 5732W        W 9251   1.605   7.763   5.154 -0.0038  0.2497  0.0869
 5733W        W 9252   5.481   8.682   8.944  0.2066  0.2593  0.3019
 5734W        W 9253   3.454   5.020   9.691 -0.2105  0.0224 -0.1182
 5735W        W 9254   7.923   1.090  11.383 -0.0162 -0.1917 -0.2510
 5736W        W 9255   8.460   9.155   1.690  0.0226 -0.0025  0.2184
 5737W        W 9256   4.620   3.696  10.455 -0.3582  0.1327 -0.2722
 5738W        W 9257   9.109   5.526   2.894 -0.3767 -0.3873 -0.1752
 5739W        W 9258   5.734   1.473   2.824 -0.0008  0.0863  0.0060
 5740W        W 9259   6.269   6.024  12.467 -0.1661  0.2213  0.0571
 5741W        W 9260   7.768   9.043   2.865 -0.1286 -0.0052  0.2820
 5742W        W 9261   4.748   6.619   0.810  0.0335 -0.1597 -0.0556
 5743W        W 9262   7.323   7.190   1.609 -0.2466  0.2368 -0.1986
 5744W        W 9263   2.423   5.760  10.603  0.0972  0.1535 -0.1386
 5745W        W 9264   6.608   4.730   4.185  0.0641  0.0832 -0.2317
 5746W        W 9265   3.878   1.743  11.330  0.0108 -0.2211  0.4331
 5747W        W 9266   0.798   0.400   2.676 -0.2694 -0.2512 -0.3264
 5748W        W 9267   0.602   6.612   2.108  0.2767 -0.1918  0.2238
 5749W        W 9268   5.851   4.485  11.229  0.3245  0.0930 -0.0538
 5750W        W 9269   5.691   6.732  11.373  0.0117 -0.0236 -0.0113
 5751W        W 9270   9.519   1.113  12.082 -0.4692  0.0791  0.0453
 5752W        W 9271   7.044   8.511   9.367  0.1902  0.1040  0.0900
 5753W        W 9272   1.302   2.747   0.589  0.1291 -0.0488 -0.1746
 5754W        W 9273   6.989   0.993   8.983 -0.1695  0.2294  0.0396
 5755W        W 9274   8.908   0.789   1.947  0.0417  0.0992 -0.1784
 5756W        W 9275   8.925   1.267   0.688  0.3396  0.0906  0.2498
 5757W        W 9276   8.018   1.782  10.647  0.0336  0.1768  0.3674
 5758W        W 9277   9.018   6.102   3.800 -0.2411 -0.0060 -0.2408
 5759W        W 9278   5.882   3.522   1.818 -0.1417  0.0080  0.2053
 5760W        W 9279   0.281   7.067   2.734 -0.0830 -0.3534 -0.1142
 5761W        W 9280   2.832   1.376  11.163  0.1430  0.0457 -0.0076
 5762W        W 9281   9.632   2.504   1.291  0.0390 -0.2431  0.1627
 5763W        W 9282   2.523   6.285   0.148 -0.2793  0.3432 -0.0133
 5764W        W 9283   3.556   4.195  12.425  0.1837 -0.0747 -0.1663
 5765W        W 9284   3.557   7.861   8.974 -0.0574 -0.0278  0.0930
 5766W        W 9285   5.121   7.980  12.069 -0.1266 -0.0992 -0.0463
 5767W        W 9286   5.727   0.935  10.343  0.2988 -0.2850  0.1126
 5768W        W 9287   8.281   8.580  11.399  0.0009  0.1327 -0.1589
 5769W        W 9288   0.077   2.591  11.047  0.0920  0.1732 -0.2861
 5770W        W 9289   0.782   3.919   3.781  0.2282 -0.0420  0.1075
 5771W        W 9290   1.692   5.537   3.280  0.1666  0.1331  0.0023
 5772W        W 9291   9.560   8.287   0.959  0.2754  0.0833  0.0832
 5773W        W 9292   9.059   7.989   0.309 -0.0514 -0.0193 -0.1811
 5774W        W 9293   2.618   4.936  10.889 -0.0445 -0.2500 -0.5175
 5775W        W 9294   3.931   4.294  11.315  0.1178 -0.0878  0.0959
 5776W        W 9295   2.080   1.492  10.640  0.0246 -0.1211  0.1195
 5777W        W 9296   7.165   5.010   9.090 -0.0546  0.0406 -0.0890
 5778W        W 9297   8.671   1.692   3.712  0.0632  0.0889 -0.1170
 5779W        W 9298   1.523   3.432  10.527  0.0449  0.0417  0.0174
 5780W        W 9299   2.357   6.897   8.075 -0.1033  0.0645  0.0302
 5781W        W 9300   5.022   8.139  11.246  0.2222  0.0418  0.2177
 5782W        W 9301   7.660   6.271  11.546 -0.2087 -0.0805 -0.1199
 5783W        W 9302   6.801   8.700   8.983  0.0188  0.0804 -0.1841
 5784W        W 9303   8.546   2.436   2.709 -0.0261  0.0098 -0.1073
 5785W        W 9304   5.301   6.191  12.430 -0.1730  0.0398  0.2535
 5786W        W 9305   9.597   4.728   0.517  0.0889 -0.0019  0.1419
 5787W        W 9306   6.117   6.326   3.579  0.0664 -0.0151 -0.2700
 5788W        W 9307   8.537   0.839   4.738  0.2358 -0.0601  0.1308
 5789W        W 9308   7.342   0.305   1.608  0.1124 -0.0072  0.0900
 5790W        W 9309   9.046   4.682   9.730 -0.0933  0.0380  0.1512
 5791W        W 9310   0.558   4.359   2.499  0.0030  0.0287  0.1666
 5792W        W 9311   0.068   1.491   0.744  0.0420 -0.4185  0.1209
 5793W        W 9312   5.192   1.935   3.314 -0.4008  0.0578 -0.0233
 5794W        W 9313   6.811   8.985  10.421  0.0792  0.1954  0.2432
 5795W        W 9314   8.604   9.603  12.020  0.0288  0.3581 -0.3130
 5796W        W 9315   0.935   3.172   0.615  0.0615  0.0510  0.5069
 5797W        W 9316   4.772   5.408  10.079  0.1652 -0.2810  0.0102
 5798W        W 9317   7.137   0.221   1.112  0.0701 -0.1602 -0.3448
 5799W        W 9318   9.039   8.132   9.264  0.1567  0.0146 -0.0219
 5800W        W 9319   0.015   8.320  11.654  0.2892 -0.2972 -0.1282
 5801W        W 9320   0.757   7.079  10.135  0.2340  0.1096  0.5505
 5802W        W 9321   1.701   0.822  12.511 -0.0503 -0.0632  0.0054
 5803W        W 9322   5.027   8.256   9.566  0.0360 -0.0259  0.1573
 5804W        W 9323   5.361   0.497  12.375 -0.0776 -0.1269 -0.2848
 5805W        W 9324   7.187   3.759  12.293  0.1924  0.2270 -0.0906
 5806W        W 9325   5.425   5.976  10.994  0.0070  0.0748 -0.1337
 5807W        W 9326   2.054   5.224   4.489 -0.0186  0.0494 -0.1943
 5808W        W 9327   7.472   1.114   0.934  0.1180  0.0706  0.0417
 5809W        W 9328   0.042   3.250   3.929  0.0497 -0.0564  0.3894
 5810W        W 9329   3.117   6.543   7.924  0.3053 -0.1623 -0.3636
 5811W        W 9330   5.724   4.563   2.910  0.2426 -0.0339  0.1371
 5812W        W 9331   8.790   1.814   9.010 -0.2666  0.5396 -0.1470
 5813W        W 9332   3.286   0.266   1.414  0.2720 -0.3848  0.0536
 5814W        W 9333   8.369   6.945  10.530 -0.0110 -0.2231  0.0039
 5815W        W 9334   2.316   2.335  10.125 -0.1395  0.1588 -0.1115
 5816W        W 9335   0.604   2.000  10.840 -0.1311  0.1478  0.2621
 5817W        W 9336   7.678   2.981   9.838 -0.4983  0.3081  0.0986
 5818W        W 9337   0.055   0.759   3.212  0.0089  0.3069  0.2063
 5819W        W 9338   9.157   3.231   2.557 -0.1666  0.1123  0.4934
 5820W        W 9339   3.164   0.874   2.653 -0.1701 -0.1118 -0.1262
 5821W        W 9340   8.875   8.907   3.722 -0.1288 -0.1578  0.0857
 5822W        W 9341   6.163   1.627  10.879 -0.2935 -0.2334  0.0477
 5823W        W 9342   9.263   5.280   2.479 -0.0511  0.0168  0.0052
 5824W        W 9343   3.304   4.682   0.339 -0.0571  0.1395 -0.2560
 5825W        W 9344   1.347   0.110   9.009  0.2221 -0.0020 -0.2434
 5826W        W 9345   5.205   0.334   9.742 -0.1912  0.1194 -0.0440
 5827W        W 9346   3.987   7.503  11.687 -0.2552  0.0852 -0.1686
 5828W        W 9347   9.002   1.728   3.082 -0.1726 -0.3762 -0.1270
 5829W        W 9348   5.261   2.584  11.833 -0.0728 -0.2559  0.1799
 5830W        W 9349   8.576   0.895  11.631  0.0266 -0.0706 -0.2503
 5831W        W 9350   0.719   9.395   3.241  0.0195 -0.3763 -0.1666
 5832W        W 9351   4.585   2.069   8.586  0.0323  0.0950  0.0398
 5833W        W 9352   0.158   1.850   0.014 -0.1378 -0.1086  0.2070
 5834W        W 9353   7.137   8.442   2.703  0.1378  0.1040  0.1944
 5835W        W 9354   5.226   3.245  10.776  0.2800 -0.2261  0.0994
 5836W        W 9355   2.231   8.700   2.031 -0.0755  0.1760 -0.1251
 5837W        W 9356   3.035   9.522   1.352  0.1748  0.1378 -0.1745
 5838W        W 9357   9.040   4.176  11.702 -0.2799 -0.2789 -0.2974
 5839W        W 9358   4.611   7.053   4.059 -0.1302 -0.0572 -0.0030
 5840W        W 9359   0.418   2.190  11.892  0.0827 -0.3030 -0.1615
 5841W        W 9360   6.130   7.410   4.579 -0.2100  0.1662 -0.0185
 5842W        W 9361   2.033   8.032   3.427  0.2374 -0.1494  0.0580
 5843W        W 9362   2.940   7.858   3.076  0.1895  0.0248 -0.2897
 5844W        W 9363   2.859   1.133   9.386 -0.0593 -0.0675  0.0539
 5845W        W 9364   1.733   8.774  11.715 -0.3408  0.1863 -0.0703
 5846W        W 9365   5.473   4.087   9.345  0.0210 -0.0231  0.2317
 5847W        W 9366   2.944   4.584   9.220  0.0298 -0.1092 -0.0919
 5848W        W 9367   8.992   2.236   2.445 -0.0474  0.1254 -0.3194
 5849W        W 9368   6.821   0.387   3.748  0.0321  0.3173 -0.2738
 5850W        W 9369   7.542   0.585   0.884 -0.0732  0.1191 -0.0137
 5851W        W 9370   3.214   8.526  11.491  0.0514 -0.1955 -0.0795
 5852W        W 9371   8.949   5.196   3.456 -0.1622 -0.1396 -0.2465
 5853W        W 9372   2.447   9.130   9.429 -0.1574 -0.1568  0.2100
 5854W        W 9373   1.240   6.147  11.286 -0.0301  0.2336  0.2429
 5855W        W 9374   0.849   3.901  10.266 -0.3499  0.0862 -0.1712
 5856W        W 9375   2.143   7.637  12.328 -0.0031  0.1484  0.1757
 5857W        W 9376   5.323   4.912   9.520  0.0654 -0.4383  0.1437
 5858W        W 9377   8.806   7.650   0.836  0.0863 -0.2929 -0.1907
 5859W        W 9378   6.243   9.417   8.601 -0.2094  0.1980  0.3227
 5860W        W 9379   7.018   2.841   2.819 -0.4096  0.0035 -0.2665
 5861W        W 9380   4.651   6.007   1.676  0.0365 -0.0733 -0.1791
 5862W        W 9381   1.387   8.613   2.992 -0.3217  0.1269  0.2001
 5863W        W 9382   3.049   8.880   0.117  0.0631 -0.1140  0.3461
 5864W        W 9383   6.655   1.010   0.279 -0.2133 -0.2079  0.2197
 5865W        W 9384   8.191   9.323  11.936  0.0839 -0.3673  0.0980
 5866W        W 9385   3.487   3.435  10.920 -0.0106  0.2105  0.2059
 5867W        W 9386   7.661   7.818   2.291  0.0915 -0.0929 -0.2173
 5868W        W 9387   6.453   8.192   1.928  0.0107  0.3441  0.3072
 5869W        W 9388   9.522   6.888  10.455 -0.3700 -0.2870  0.0667
 5870W        W 9389   0.384   9.525   0.466 -0.0745 -0.1604 -0.0248
 5871W        W 9390   7.299   5.280  10.342  0.2147 -0.0566  0.1568
 5872W        W 9391   4.721   9.119  10.813 -0.3969 -0.1122 -0.1317
 5873W        W 9392   7.111   3.030   1.143  0.1439  0.1649 -0.2788
 5874W        W 9393   3.925   3.852   2.392  0.0981  0.0049  0.0789
 5875W        W 9394   0.186   6.548  12.140  0.2210 -0.1676 -0.2482
 5876W        W 9395   1.808   7.668   4.272  0.0516 -0.1787  0.1745
 5877W        W 9396   3.077   2.908   9.803  0.2913  0.2537  0.0489
 5878W        W 9397   1.330   5.231  10.224  0.0317  0.0544  0.2747
 5879W        W 9398   7.861   6.238   5.151 -0.3379  0.2619  0.4086
 5880W        W 9399   2.795   8.792  11.634 -0.0364 -0.0830  0.1212
 5881W        W 9400   5.467   0.060  10.799  0.1140 -0.3431 -0.1808
 5882W        W 9401   1.317   7.454   0.919 -0.2940  0.2621  0.2770
 5883W        W 9402   5.360   7.537   2.926 -0.0463 -0.0075 -0.0964
 5884W        W 9403   6.215   1.808   2.846 -0.0548 -0.3013 -0.1667
 5885W        W 9404   1.304   6.261   4.082 -0.0102  0.0008  0.4313
 5886W        W 9405   0.598   8.164   3.090 -0.0014  0.0704  0.0131
 5887W        W 9406   3.681   7.580   2.495  0.3749 -0.0890  0.3009
 5888W        W 9407   2.099   7.861  10.882 -0.2587 -0.1638  0.1888
 5889W        W 9408   4.633   8.548   4.308  0.1801 -0.2607  0.1475
 5890W        W 9409   0.440   5.700   2.520  0.1659 -0.0190  0.1420
 5891W        W 9410   8.914   9.198   9.864 -0.3138 -0.1167  0.0637
 5892W        W 9411   7.010   3.472   3.849 -0.1301  0.0503 -0.0760
 5893W        W 9412   4.976   0.926  11.018 -0.0454  0.3396 -0.1573
 5894W        W 9413   5.464   8.886   0.221 -0.1371  0.1360 -0.1535
 5895W        W 9414   8.412   0.129   1.441 -0.2019  0.0868 -0.0425
 5896W        W 9415   4.214   0.131   1.150 -0.2451 -0.0393  0.0424
 5897W        W 9416   9.604   5.862   0.772 -0.0427 -0.0176  0.0071
 5898W        W 9417   8.014   3.468   2.896  0.2328  0.0187 -0.1262
 5899W        W 9418   6.716   0.575   9.097 -0.0276 -0.0234  0.1793
 5900W        W 9419   0.568   9.139   2.828  0.2498 -0.0066 -0.3206
 5901W        W 9420   9.442   3.323   1.075  0.0523  0.0764 -0.1608
 5902W        W 9421   7.085   4.876   2.041 -0.1211  0.0524 -0.1060
 5903W        W 9422   0.764   8.753  11.637  0.0971 -0.2601  0.4240
 5904W        W 9423   9.139   5.958   9.866  0.3799 -0.1249 -0.0747
 5905W        W 9424   4.836   4.148   2.816  0.2013 -0.1899  0.0625
 5906W        W 9425   6.791   8.396  11.741 -0.2398 -0.0141  0.4405
 5907W        W 9426   5.782   2.931   0.348 -0.0594 -0.0045  0.2025
 5908W        W 9427   1.606   0.550   0.649 -0.2555 -0.1669 -0.1202
 5909W        W 9428   2.406   6.054   9.436 -0.1663 -0.0958  0.1514
 5910W        W 9429   4.146   5.729  11.986 -0.0661  0.0842 -0.2088
 5911W        W 9430   6.466   1.037   2.327  0.1441  0.3271 -0.4107
 5912W        W 9431   1.695   8.772   1.691  0.1180  0.1421  0.1867
 5913W        W 9432   7.570   5.697  10.784  0.2463 -0.1761  0.0179
 5914W        W 9433   6.713   2.511   1.694 -0.0205  0.2906  0.1616
 5915W        W 9434   1.196   4.275  10.362 -0.1768  0.0201  0.1554
 5916W        W 9435   1.562   3.516   0.034  0.0771 -0.0113  0.1015
 5917W        W 9436   1.487   0.348  11.292 -0.2691 -0.0781 -0.0142
 5918W        W 9437   4.286   8.887   9.599 -0.1051  0.0153  0.0094
 5919W        W 9438   8.816   2.507   1.152  0.0958 -0.3113  0.1662
 5920W        W 9439   0.673   6.287  11.928  0.0262 -0.1732 -0.2179
 5921W        W 9440   1.883   6.268   3.660 -0.1447 -0.0912 -0.0680
 5922W        W 9441   5.787   9.044   2.057  0.1905  0.2699  0.3022
 5923W        W 9442   7.383   8.010  10.818  0.3101  0.2741 -0.1960
 5924W        W 9443   3.820   8.120  10.943 -0.0738  0.3822 -0.2490
 5925W        W 9444   0.172   7.572   2.044  0.0270  0.1097  0.1317
 5926W        W 9445   7.986   3.178   2.165 -0.1683 -0.1695  0.2145
 5927W        W 9446   8.239   5.090   1.722 -0.2333  0.1153 -0.2941
 5928W        W 9447   8.890   4.291   9.946  0.2640  0.0048 -0.1047
 5929W        W 9448   9.030   3.506   1.390 -0.1990 -0.1939 -0.1726
 5930W        W 9449   3.438   2.048  10.948  0.2567 -0.1242  0.0929
 5931W        W 9450   0.288   5.767   4.151 -0.2014 -0.0531 -0.2737
 5932W        W 9451   5.465   8.585   2.087 -0.0632  0.1110  0.1512
 5933W        W 9452   5.760   0.466   9.628  0.1427 -0.0562  0.0144
 5934W        W 9453   8.850   7.805   2.290 -0.0573  0.0834  0.0443
 5935W        W 9454   2.476   7.806   9.411  0.1129 -0.1401  0.2777
 5936W        W 9455   7.736   1.720   2.158 -0.1269  0.1218  0.0791
 5937W        W 9456   1.948   4.631   9.676 -0.3042 -0.0214 -0.0423
 5938W        W 9457   8.023   4.849   0.044  0.1493  0.1173  0.4305
 5939W        W 9458   1.977   5.751  12.290  0.2651 -0.0602  0.1355
 5940W        W 9459   4.056   7.094   9.645 -0.2420 -0.3262 -0.1454
 5941W        W 9460   0.304   8.607  12.345  0.0763  0.0828 -0.3023
 5942W        W 9461   2.278   4.250   9.312  0.0664 -0.2448  0.2046
 5943W        W 9462   0.119   2.656  10.153 -0.1405  0.1378  0.0928
 5944W        W 9463   1.039   3.426  11.463 -0.1162  0.0895 -0.0174
 5945W        W 9464   8.333   4.539   1.811  0.0209  0.0800 -0.2558
 5946W        W 9465   7.279   0.392  10.546 -0.2998 -0.1034  0.0174
 5947W        W 9466   8.809   7.935  10.912  0.2981 -0.2327 -0.1535
 5948W        W 9467   4.120   4.814  11.673  0.0906 -0.2372  0.1751
 5949W        W 9468   6.345   5.187   8.997  0.1086 -0.0302 -0.0205
 5950W        W 9469   3.610   6.229  10.572 -0.2218  0.3601  0.2699
 5951W        W 9470   3.426   2.551  11.065  0.1051 -0.2271 -0.1097
 5952W        W 9471   6.338   5.129   3.380 -0.1128  0.0504 -0.2177
 5953W        W 9472   4.659   2.867   3.183  0.0154 -0.0587 -0.1832
 5954W        W 9473   3.257   0.349   2.682 -0.0811  0.2017 -0.2246
 5955W        W 9474   7.693   6.311   2.767 -0.0219 -0.1215 -0.1986
 5956W        W 9475   5.459   6.053   9.070  0.1170 -0.3150  0.0178
 5957W        W 9476   8.362   2.948  10.013  0.2390  0.2240 -0.0383
 5958W        W 9477   0.590   4.708   8.425  0.3744 -0.0007  0.0409
 5959W        W 9478   1.382   7.091   3.238  0.2819  0.0577 -0.1447
 5960W        W 9479   5.888   7.517   2.865  0.1540 -0.1467 -0.0504
 5961W        W 9480   4.239   2.504  10.860  0.0960  0.3867  0.0451
 5962W        W 9481   5.326   2.739   0.562  0.1776 -0.2742 -0.3480
 5963W        W 9482   9.531   2.379  10.583  0.0021  0.2555  0.0439
 5964W        W 9483   0.863   4.314  11.224  0.0872 -0.0844  0.3089
 5965W        W 9484   1.171   2.092  10.757  0.0626 -0.1436  0.1146
 5966W        W 9485   3.229   6.019   0.860  0.0267 -0.1270  0.0593
 5967W        W 9486   1.099   0.000  12.617  0.1277  0.0601 -0.2157
 5968W        W 9487   6.903   9.570   8.481 -0.1440  0.0328 -0.1337
 5969W        W 9488   1.887   1.745  11.204 -0.1309  0.1973  0.0053
 5970W        W 9489   0.652   0.577   8.132  0.2101  0.0125 -0.1653
 5971W        W 9490   2.546   3.183  11.661  0.2389 -0.0202  0.0155
 5972W        W 9491   5.838   4.586   1.584 -0.2688 -0.0902  0.1129
 5973W        W 9492   9.556   2.927   0.491 -0.1123 -0.0295 -0.2445
 5974W        W 9493   6.613   5.370  11.353 -0.3101 -0.1778  0.0863
 5975W        W 9494   0.301   8.222   8.841 -0.0913 -0.0224  0.1121
 5976W        W 9495   6.792   2.090   0.156  0.0296 -0.0008 -0.0822
 5977W        W 9496   6.765   0.708  10.503 -0.0654  0.1226 -0.1356
 5978W        W 9497   1.017   8.101   3.794 -0.0828  0.0098 -0.1053
 5979W        W 9498   0.170   9.434   1.960  0.0875 -0.0889  0.2471
 5980W        W 9499   1.000   4.100  11.685 -0.0852 -0.0989 -0.0486
 5981W        W 9500   7.488   5.890   9.377  0.2814 -0.0963 -0.2180
 5982W        W 9501   0.008   4.500   1.491  0.2514 -0.1297 -0.2150
 5983W        W 9502   3.732   4.626  11.020  0.2066 -0.0104 -0.0889
 5984W        W 9503   0.126   0.329   0.568 -0.1387 -0.1628  0.1251
 5985W        W 9504   8.224   1.271   4.540 -0.3029  0.0300 -0.0599
 5986W        W 9505   3.594   5.470   9.732  0.2624  0.0284  0.1308
 5987W        W 9506   8.949   3.224   9.864 -0.2199  0.1700  0.3545
 5988W        W 9507   4.993   2.165  11.860 -0.3302  0.1725 -0.0215
 5989W        W 9508   2.536   5.092   9.331  0.0115  0.0873  0.0185
 5990W        W 9509   0.072   9.003   2.907 -0.1794  0.0660  0.0853
 5991W        W 9510   4.692   7.341   2.486  0.3893 -0.3055  0.1593
 5992W        W 9511   9.556   0.712   8.920  0.3425 -0.1304 -0.1107
 5993W        W 9512   0.476   4.209  10.384 -0.1924  0.1510 -0.1783
 5994W        W 9513   5.616   2.117   2.133  0.1275  0.0243 -0.0527
 5995W        W 9514   1.938   2.048   9.345  0.1406  0.0278 -0.1525
 5996W        W 9515   7.723   9.292   9.020  0.0929 -0.2827  0.1103
 5997W        W 9516   6.729   4.974   1.165  0.3268 -0.0512 -0.0073
 5998W        W 9517   2.991   8.444  11.929  0.3213  0.1515  0.1806
 5999W        W 9518   9.146   6.511  10.500 -0.2663 -0.2237 -0.0827
 6000W        W 9519   1.533   7.915  11.441 -0.0387  0.0382  0.3409
 6001W        W 9520   2.798   0.670   2.905 -0.0365 -0.1479 -0.2588
 6002W        W 9521   6.631   8.817   1.114 -0.1232 -0.0582  0.3345
 6003W        W 9522   6.956   8.390  10.798 -0.2090 -0.1600  0.0750
 6004W        W 9523   8.345   4.278   3.886 -0.1758  0.1210  0.0545
 6005W        W 9524   9.659   2.560  12.078  0.1184  0.2098  0.2481
 6006W        W 9525   7.309   1.534   3.508  0.0932  0.0414 -0.1004
 6007W        W 9526   5.020   1.167  11.481  0.1197 -0.0891  0.2781
 6008W        W 9527   2.637   0.129   2.695  0.3690 -0.1924 -0.1325
 6009W        W 9528   1.802   2.578   9.433 -0.1344 -0.0253 -0.1677
 6010W        W 9529   8.471   3.464   2.980 -0.0733  0.0035  0.1637
 6011W        W 9530   5.260   0.323   1.947  0.1899 -0.0296 -0.1627
 6012W        W 9531   7.049   4.513   0.155 -0.2083  0.1528  0.1288
 6013W        W 9532   5.814   2.726   2.797  0.2035 -0.2043 -0.0277
 6014W        W 9533   6.596   7.030   9.123  0.1204 -0.0134  0.0451
 6015W        W 9534   3.882   0.463   1.124 -0.0531 -0.1211  0.2598
 6016W        W 9535   5.689   0.546   1.777  0.3883  0.2600 -0.3513
 6017W        W 9536   7.700   6.992   9.947 -0.1511  0.1100 -0.1928
 6018W        W 9537   5.174   4.721   0.469  0.3957 -0.4421 -0.1227
 6019W        W 9538   1.993   3.700   1.269  0.1364  0.2580  0.0593
 6020W        W 9539   7.007   3.741   0.935  0.4262  0.4424  0.3155
 6021W        W 9540   4.244   2.244  12.348 -0.2165  0.2190 -0.1995
 6022W        W 9541   5.831   9.063   8.980  0.0830 -0.2001 -0.3107
 6023W        W 9542   0.092   0.830   2.653 -0.0752  0.0864 -0.0920
 6024W        W 9543   0.314   3.072  10.111 -0.1031  0.2368 -0.0591
 6025W        W 9544   1.138   2.521  12.004 -0.1793 -0.2275  0.1673
 6026W        W 9545   7.249   2.546   8.570 -0.0878  0.1696 -0.0586
 6027W        W 9546   7.861   3.025  10.884 -0.1100 -0.0857 -0.0902
 6028W        W 9547   8.836   2.567   4.156  0.1032  0.1635  0.0553
 6029W        W 9548   6.096   3.846   9.433  0.0498  0.1392  0.0498
 6030W        W 9549   0.238   1.477  10.457  0.0217  0.4104 -0.2467
 6031W        W 9550   9.163   0.525   3.523 -0.2126  0.2524 -0.1698
 6032W        W 9551   7.521   9.481   3.548  0.0834 -0.0814 -0.1447
 6033W        W 9552   5.704   4.008   0.469  0.1530 -0.0921 -0.1351
 6034W        W 9553   1.398   0.869  11.133  0.2320  0.1998  0.0506
 6035W        W 9554   1.537   5.375   2.380 -0.1016  0.0837 -0.2368
 6036W        W 9555   0.632   8.607   8.622 -0.0559  0.1287  0.1685
 6037W        W 9556   4.048   6.202   2.974  0.1043  0.2030  0.2572
 6038W        W 9557   3.568   4.452   4.184  0.1303 -0.0518  0.0667
 6039W        W 9558   1.205   4.330   2.564 -0.2234  0.1413  0.1752
 6040W        W 9559   8.169   0.779   0.205  0.1601 -0.1410 -0.0556
 6041W        W 9560   4.758   0.517   3.599 -0.0287  0.0853 -0.0787
 6042W        W 9561   3.047   3.354   3.286  0.2564  0.1214  0.2827
 6043W        W 9562   7.818   7.447  12.192  0.0565  0.3065  0.1719
 6044W        W 9563   0.535   0.664   9.326 -0.2217  0.1957 -0.1830
 6045W        W 9564   2.368   2.116   2.332  0.0060 -0.0538 -0.0967
 6046W        W 9565   4.878   4.820   9.433  0.0915  0.0381  0.4823
 6047W        W 9566   8.998   4.695   1.839  0.0993  0.5290  0.2307
 6048W        W 9567   3.935   6.970  11.725 -0.2706  0.1175  0.0052
 6049W        W 9568   4.366   3.745  12.150  0.0020 -0.0324  0.2151
 6050W        W 9569   6.880   3.890  11.871 -0.0906  0.0375 -0.0245
 6051W        W 9570   4.712   4.072  10.897  0.0150  0.4645 -0.0038
 6052W        W 9571   9.611   1.187   9.666 -0.1804 -0.0937 -0.1921
 6053W        W 9572   6.946   6.181  11.138  0.0777  0.0478 -0.1094
 6054W        W 9573   7.735   6.184  10.199 -0.1187  0.0873 -0.0763
 6055W        W 9574   6.971   7.396   3.453  0.0973  0.2278 -0.4460
 6056W        W 9575   4.228   7.581   1.640 -0.3932  0.2089  0.0978
 6057W        W 9576   7.702   0.963   3.769  0.1892 -0.0039  0.2984
 6058W        W 9577   0.259   2.846  12.392  0.0088 -0.2640  0.2537
 6059W        W 9578   8.872   4.428  10.449 -0.2505  0.0066 -0.0048
 6060W        W 9579   3.953   0.244   2.850 -0.0453 -0.4141  0.1435
 6061W        W 9580   5.379   1.790  10.661 -0.0095  0.0898  0.0647
 6062W        W 9581   4.708   4.633   0.829 -0.1995  0.1083 -0.1244
 6063W        W 9582   0.263   0.021   1.435 -0.3270 -0.1558  0.2314
 6064W        W 9583   1.152   8.178  10.565 -0.2639  0.4071  0.1935
 6065W        W 9584   7.729   1.961   0.796 -0.0470 -0.1522 -0.2927
 6066W        W 9585   0.716   6.135  11.182  0.3102  0.1289 -0.0520
 6067W        W 9586   3.954   7.056  10.122  0.0134  0.0280 -0.4039
 6068W        W 9587   1.197   4.754   2.868  0.0424  0.0742  0.3390
 6069W        W 9588   2.428   3.741   0.926 -0.4268 -0.3462 -0.0109
 6070W        W 9589   5.412   3.823   0.107  0.0354 -0.1971  0.1675
 6071W        W 9590   0.065   2.459   4.518  0.1153  0.3892 -0.0748
 6072W        W 9591   1.253   7.278   0.014 -0.1489 -0.1379  0.0731
 6073W        W 9592   6.694   2.391  10.888  0.0707  0.2173 -0.1759
 6074W        W 9593   5.266   2.213   1.612 -0.1670  0.1377 -0.0205
 6075W        W 9594   0.051   9.244  11.786  0.1397  0.0208  0.0555
 6076W        W 9595   7.319   7.433  12.432  0.0574  0.4353 -0.1283
 6077W        W 9596   4.952   4.985   4.075  0.1684  0.3285 -0.3094
 6078W        W 9597   7.319   5.829   2.524  0.2205 -0.1364  0.0303
 6079W        W 9598   5.621   1.119   0.770 -0.0803  0.0513  0.0117
 6080W        W 9599   3.495   5.161   0.378 -0.2330  0.2515  0.1059
 6081W        W 9600   5.750   1.023   2.600  0.1330 -0.2445  0.0764
 6082W        W 9601   0.274   2.070   8.300 -0.0811  0.2850  0.1910
 6083W        W 9602   0.448   0.125   3.411 -0.2199  0.1479  0.0920
 6084W        W 9603   7.729   8.257   0.161  0.2846  0.2531 -0.0165
 6085W        W 9604   6.814   9.630   4.171 -0.3060  0.3833 -0.0863
 6086W        W 9605   8.441   1.060   3.136  0.2990  0.1103 -0.2168
 6087W        W 9606   7.443   7.663   3.236 -0.1453 -0.2111 -0.2874
 6088W        W 9607   4.733   5.007   2.420  0.1047  0.0671  0.0022
 6089W        W 9608   8.511   4.597  10.097 -0.0152  0.1262 -0.1435
 6090W        W 9609   1.320   1.377   9.586 -0.2912  0.0201  0.1895
 6091W        W 9610   9.563   6.475   8.780 -0.0062  0.0012  0.1341
 6092W        W 9611   3.470   0.936   0.025  0.0782  0.0571 -0.1777
 6093W        W 9612   2.334   2.439   0.635  0.1151  0.1069 -0.1831
 6094W        W 9613   9.427   9.035   9.677  0.1723  0.0827  0.0976
 6095W        W 9614   6.871   0.137  11.243  0.1261  0.0654 -0.4497
 6096W        W 9615   1.366   1.526   1.008 -0.1632 -0.2596  0.2925
 6097W        W 9616   8.641   8.822   1.135  0.0308  0.1456 -0.0911
 6098W        W 9617   4.256   8.240  11.196 -0.0754 -0.2686  0.1809
 6099W        W 9618   4.558   6.238   2.855 -0.0469 -0.3318 -0.1310
 6100W        W 9619   0.626   8.749  10.226  0.2081 -0.1494 -0.1468
 6101W        W 9620   8.295   8.596   0.923 -0.0472  0.0049 -0.0796
 6102W        W 9621   8.617   8.799   8.754  0.2086  0.1092 -0.2550
 6103W        W 9622   9.605   0.694   9.436 -0.2291  0.3495 -0.2713
 6104W        W 9623   4.735   4.119   1.785 -0.0875  0.0133 -0.2157
 6105W        W 9624   9.277   2.053   2.845 -0.1634  0.0507  0.1722
 6106W        W 9625   6.230   7.105  10.196  0.0606 -0.3180 -0.0128
 6107W        W 9626   0.532   7.194  12.326  0.0234 -0.4532  0.1940
 6108W        W 9627   4.089   0.056   0.154 -0.4862 -0.0247 -0.3627
 6109W        W 9628   1.011   4.926   1.280  0.2033 -0.3180  0.2652
 6110W        W 9629   5.157   4.913  12.624  0.0152 -0.0978 -0.1465
 6111W        W 9630   9.082   2.665   2.776  0.0192 -0.0687 -0.1169
 6112W        W 9631   7.745   1.136   2.706 -0.0284  0.1175  0.2127
 6113W        W 9632   4.743   0.893   8.497 -0.0067 -0.2228  0.4433
 6114W        W 9633   5.667   4.640   2.084 -0.4345  0.1538 -0.1266
 6115W        W 9634   4.457   8.913   0.390  0.1252 -0.1366 -0.1190
 6116W        W 9635   7.427   9.073  11.261  0.1650  0.1260  0.2108
 6117W        W 9636   3.122   4.819   1.369 -0.1615  0.0816 -0.2969
 6118W        W 9637   3.381   9.151   3.065 -0.0249  0.1456  0.1922
 6119W        W 9638   0.973   1.891   9.020 -0.0083 -0.2762 -0.2349
 6120W        W 9639   1.553   6.629   2.478 -0.0899  0.0798  0.2190
 6121W        W 9640   5.626   7.716   3.330 -0.3865 -0.0764 -0.1014
 6122W        W 9641   6.797   1.285   4.384 -0.1659 -0.0095 -0.2557
 6123W        W 9642   2.603   2.401   0.194 -0.0718  0.0622  0.1952
 6124W        W 9643   2.939   5.564   7.667 -0.0685 -0.2108 -0.3095
 6125W        W 9644   5.387   5.893   3.895  0.1403  0.2817  0.0087
 6126W        W 9645   2.072   4.395   1.386  0.1002 -0.1274  0.0948
 6127W        W 9646   2.924   7.490  10.713 -0.1585  0.0019 -0.2650
 6128W        W 9647   5.178   1.571   8.769  0.0352  0.2719  0.2647
 6129W        W 9648   1.641   3.799   0.921  0.1023  0.1377  0.0141
 6130W        W 9649   6.437   3.447  11.886  0.0152 -0.3352 -0.1967
 6131W        W 9650   1.011   6.801   3.401  0.1658 -0.0904  0.0360
 6132W        W 9651   6.330   2.117   8.645 -0.3016  0.0173 -0.0838
 6133W        W 9652   5.769   6.777   3.544  0.1562  0.0052  0.0008
 6134W        W 9653   3.662   3.964   1.522  0.0248  0.1461 -0.2073
 6135W        W 9654   4.580   3.322   1.096  0.2394  0.1486 -0.1428
 6136W        W 9655   8.693   0.464  12.242  0.0140 -0.0541  0.1975
 6137W        W 9656   1.604   5.121   3.021 -0.1538  0.1157 -0.0421
 6138W        W 9657   3.149   4.942   3.696 -0.0174  0.2171 -0.0960
 6139W        W 9658   4.482   5.584   8.816 -0.2752 -0.1104 -0.1722
 6140W        W 9659   5.048   5.741   8.937  0.1196 -0.1808  0.2205
 6141W        W 9660   3.009   6.526   1.819 -0.0205  0.1172  0.1212
 6142W        W 9661   2.541   6.347   2.791 -0.3198  0.2136  0.1654
 6143W        W 9662   3.845   5.641   8.753 -0.3983 -0.0686  0.1360
 6144W        W 9663   4.349   7.713  12.483 -0.0011 -0.3584 -0.2641
 6145W        W 9664   8.164   4.379  12.044 -0.2372  0.1259  0.2004
 6146W        W 9665   0.388   1.238  10.907  0.1114 -0.0044  0.0422
 6147W        W 9666   1.115   6.396  10.847  0.4786  0.2118  0.0875
 6148W        W 9667   7.597   4.801   1.033 -0.1474  0.0287  0.2183
 6149W        W 9668   8.369   1.599   1.027 -0.3432 -0.1779  0.2210
 6150W        W 9669   2.459   8.969  12.431  0.1079 -0.0221  0.3270
 6151W        W 9670   6.511   4.833   2.395  0.2249  0.2606 -0.1288
 6152W        W 9671   3.832   7.515   9.352 -0.1836 -0.2822 -0.2109
 6153W        W 9672   1.754   7.182   1.081  0.0683 -0.2844 -0.1570
 6154W        W 9673   4.948   4.596   1.295  0.1313 -0.2322  0.1291
 6155W        W 9674   7.154   5.830   3.263 -0.0433  0.1504 -0.1568
 6156W        W 9675   2.647   1.938  11.888 -0.2082  0.0419 -0.0866
 6157W        W 9676   4.536   3.079   1.619  0.0364 -0.2614 -0.1988
 6158W        W 9677   0.324   0.671  10.336 -0.0815 -0.0296  0.6026
 6159W        W 9678   2.346   6.377   4.881  0.0773  0.3187 -0.0732
 6160W        W 9679   1.243   3.019   2.538  0.2345 -0.4266  0.2369
 6161W        W 9680   8.855   3.635   0.310 -0.1351 -0.1592  0.0663
 6162W        W 9681   2.001   5.386   8.115 -0.1455  0.1833 -0.2020
 6163W        W 9682   6.230   1.829   1.988  0.0938  0.2026 -0.1465
 6164W        W 9683   4.366   3.978   2.159 -0.2165 -0.0202  0.0795
 6165W        W 9684   7.843   7.767  10.590  0.1523 -0.0164  0.0545
 6166W        W 9685   1.142   5.716   9.988 -0.1023  0.0453  0.2142
 6167W        W 9686   1.946   2.373   8.851  0.5050 -0.0968 -0.0550
 6168W        W 9687   3.324   7.262   4.014 -0.1701 -0.0208 -0.1378
 6169W        W 9688   3.184   5.911  10.377 -0.2679  0.1603  0.0524
 6170W        W 9689   5.900   3.517   0.424 -0.1170  0.0783 -0.1375
 6171W        W 9690   4.020   7.910   1.198  0.0032 -0.3362  0.0918
 6172W        W 9691   3.092   7.415   8.235  0.1961 -0.1100  0.0259
 6173W        W 9692   6.546   5.516  10.162 -0.0187 -0.0384 -0.2211
 6174W        W 9693   3.171   4.237   1.549 -0.1390 -0.1444 -0.1089
 6175W        W 9694   7.083   5.511   1.071  0.0475 -0.0316  0.0018
 6176W        W 9695   2.484   8.274   3.762  0.1982 -0.2839 -0.1390
 6177W        W 9696   3.177   6.802   1.240  0.1043  0.2996  0.1842
 6178W        W 9697   6.792   5.378   1.457 -0.0130 -0.0247  0.1675
 6179W        W 9698   9.483   3.763   2.817  0.1432 -0.0861  0.0921
 6180W        W 9699   6.124   2.307   2.143 -0.0307  0.0569  0.0295
 6181W        W 9700   6.873   9.167  11.267 -0.3878  0.2464  0.0095
 6182W        W 9701   4.717   4.197   8.267 -0.1461 -0.3928 -0.0125
 6183W        W 9702   6.102   8.674   9.306 -0.1035  0.0178 -0.0142
 6184W        W 9703   7.351   6.916   8.701 -0.0707 -0.0589 -0.2376
 6185W        W 9704   6.615   3.767   3.857 -0.3374 -0.0394 -0.0137
 6186W        W 9705   0.377   7.925   3.987  0.0042 -0.1522  0.2712
 6187W        W 9706   0.756   9.650  12.192  0.1837 -0.0328 -0.4037
 6188W        W 9707   7.175   8.267   8.014 -0.0081  0.1240  0.0635
 6189W        W 9708   5.797   2.271   2.553 -0.2154 -0.0629 -0.0722
 6190W        W 9709   1.156   4.282   9.231  0.1359  0.1223 -0.3896
 6191W        W 9710   5.198   4.109   0.480 -0.0022 -0.0101 -0.1263
 6192W        W 9711   3.785   8.815   0.823 -0.0327 -0.1736 -0.3152
 6193W        W 9712   5.333   0.516   1.474 -0.2389 -0.1402  0.2622
 6194W        W 9713   6.832   8.230   9.766  0.0584 -0.3438  0.3668
 6195W        W 9714   2.149   5.736   1.614  0.1297  0.3151  0.4921
 6196W        W 9715   4.476   7.759   1.263  0.2987 -0.0912  0.1401
 6197W        W 9716   6.648   3.078   4.219  0.1272  0.2682 -0.3949
 6198W        W 9717   4.003   1.847  10.845  0.1497  0.4311 -0.0519
 6199W        W 9718   0.696   7.111   1.798 -0.4243 -0.1478 -0.0071
 6200W        W 9719   1.743   4.986   9.006  0.2179  0.0992  0.1541
 6201W        W 9720   2.350   9.360   2.594 -0.0236  0.1003 -0.1279
 6202W        W 9721   4.299   9.354   2.582  0.1579 -0.1189 -0.1063
 6203W        W 9722   2.937   4.555  10.843  0.2814  0.0651  0.2193
 6204W        W 9723   7.928   5.697   9.067  0.3794 -0.0716 -0.0012
 6205W        W 9724   4.566   3.379  11.823  0.2201 -0.0881 -0.1799
 6206W        W 9725   0.705   3.563   2.914  0.0160 -0.1096  0.1847
 6207W        W 9726   2.609   7.961  11.162  0.1330 -0.3081 -0.2435
 6208W        W 9727   4.107   7.815   3.824 -0.3283 -0.2991  0.0423
 6209W        W 9728   4.248   4.356  10.962  0.0787  0.2270  0.0789
 6210W        W 9729   4.250   4.349  11.784  0.1722  0.1127  0.0320
 6211W        W 9730   1.767   2.068  12.447  0.2514 -0.1605  0.0640
 6212W        W 9731   4.974   1.290  10.659  0.2361  0.1523 -0.0340
 6213W        W 9732   5.525   2.594   4.005  0.2068 -0.2294  0.1485
 6214W        W 9733   5.327   8.616   3.525  0.2363 -0.0683  0.4071
 6215W        W 9734   5.768   3.580  11.303 -0.0928 -0.4440  0.1004
 6216W        W 9735   6.766   4.895   3.270  0.2482  0.0687 -0.0331
 6217W        W 9736   7.376   9.411   1.332  0.1528  0.3842 -0.0455
 6218W        W 9737   3.599   9.243  11.727  0.1308 -0.1451 -0.1127
 6219W        W 9738   6.899   0.141   0.404  0.2398  0.3016 -0.0630
 6220W        W 9739   4.985   8.858   0.445  0.0512 -0.2038  0.2189
 6221W        W 9740   6.580   7.515   3.118  0.0340 -0.3084 -0.0468
 6222W        W 9741   9.233   2.341  11.295  0.0100  0.0487 -0.0281
 6223W        W 9742   8.843   2.334   9.007  0.0750 -0.0596 -0.2097
 6224W        W 9743   3.697   0.623   8.949 -0.0097 -0.0617  0.1160
 6225W        W 9744   0.665   9.600  11.620  0.2631 -0.3680 -0.0626
 6226W        W 9745   8.518   8.904   9.680 -0.1353  0.1131 -0.0158
 6227W        W 9746   1.556   1.727  10.795 -0.2351  0.4445 -0.0348
 6228W        W 9747   3.906   0.599   8.450  0.1832 -0.0058 -0.0681
 6229W        W 9748   7.227   5.356   9.431  0.0133 -0.2010 -0.0550
 6230W        W 9749   8.706   1.266   1.742 -0.2430  0.1385 -0.0321
 6231W        W 9750   3.147   7.844   4.298  0.2037 -0.0480  0.2337
 6232W        W 9751   2.135   1.000   1.313  0.1741 -0.2523  0.2311
 6233W        W 9752   5.636   1.477   9.028  0.1488  0.1809 -0.1101
 6234W        W 9753   2.951   8.843  11.127  0.1929 -0.2307 -0.0680
 6235W        W 9754   4.822   6.898   2.258 -0.0942 -0.2994  0.2594
 6236W        W 9755   0.259   6.778  10.766 -0.0186 -0.0780  0.0915
 6237W        W 9756   0.686   4.019  12.247 -0.2410  0.0307 -0.2057
 6238W        W 9757   5.460   7.300   3.737  0.2585 -0.3003  0.0361
 6239W        W 9758   9.517   8.929  10.957 -0.0928 -0.1349 -0.0821
 6240W        W 9759   1.677   0.343   3.392  0.0781 -0.1096  0.2074
 6241W        W 9760   6.887   7.766  10.390 -0.2118 -0.1620  0.0691
 6242W        W 9761   0.751   4.084   9.032 -0.0363 -0.1729 -0.4350
 6243W        W 9762   9.537   6.454   9.516 -0.1107 -0.1069 -0.3242
 6244W        W 9763   9.448   6.214   3.583 -0.0196  0.2626  0.0945
 6245W        W 9764   0.605   1.791  12.130  0.1717 -0.2435  0.2268
 6246W        W 9765   6.203   8.394  10.909  0.2271 -0.0187  0.2150
 6247W        W 9766   5.152   8.063   2.497 -0.2371  0.1675 -0.1041
 6248W        W 9767   3.486   4.388  11.535  0.1326 -0.0728 -0.1898
 6249W        W 9768   2.618   4.322   0.624  0.3904  0.1172 -0.1032
 6250W        W 9769   7.414   5.160  11.353 -0.1300  0.1438 -0.2745
 6251W        W 9770   2.758   2.062  10.880  0.2318  0.0791 -0.1517
 6252W        W 9771   4.425   7.155   8.983  0.0068 -0.1236  0.2380
 6253W        W 9772   0.909   5.873   0.234 -0.3270 -0.1820 -0.0046
 6254W        W 9773   8.757   2.955   2.441 -0.0639 -0.0264 -0.1465
 6255W        W 9774   6.117   5.035   9.558 -0.0930 -0.0007  0.0649
 6256W        W 9775   6.928   2.842  12.083 -0.2049 -0.1364  0.1040
 6257W        W 9776   4.386   0.317   8.357 -0.2032  0.1008 -0.1807
 6258W        W 9777   0.434   6.994   9.750  0.2240  0.2196 -0.1910
 6259W        W 9778   2.454   1.359   2.170  0.0747 -0.4099 -0.3100
 6260W        W 9779   3.911   2.163   0.680 -0.0023 -0.0761 -0.1021
 6261W        W 9780   6.317   9.283   0.031  0.0960  0.1645  0.2663
 6262W        W 9781   3.964   8.412   3.601  0.2359  0.0933 -0.1321
 6263W        W 9782   8.375   1.935  11.371  0.1841  0.2003 -0.2322
 6264W        W 9783   6.407   5.050  11.664  0.0833 -0.1476  0.0791
 6265W        W 9784   3.844   5.203   0.017  0.1129  0.0049 -0.0299
 6266W        W 9785   8.522   6.924   2.499  0.1062  0.1070  0.1429
 6267W        W 9786   9.135   2.959   0.235  0.0178  0.1249  0.0837
 6268W        W 9787   3.011   0.659  10.077  0.0790  0.1825 -0.0919
 6269W        W 9788   1.933   6.155  11.413 -0.1122 -0.3608 -0.0309
 6270W        W 9789   7.053   5.773   1.599 -0.1177  0.0725  0.1272
 6271W        W 9790   1.419   5.564   1.419  0.3032  0.1373 -0.1180
 6272W        W 9791   4.792   6.633   3.219 -0.0853 -0.0625  0.3209
 6273W        W 9792   3.998   2.106   9.266 -0.0179  0.1948  0.2387
 6274W        W 9793   4.939   6.643   0.199 -0.0020  0.2441  0.0206
 6275W        W 9794   7.834   4.079   3.621  0.1661  0.2570 -0.0859
 6276W        W 9795   2.640   0.238   3.532  0.0549  0.1100 -0.0474
 6277W        W 9796   8.218   6.525   0.509  0.1355  0.0947 -0.0415
 6278W        W 9797   2.322   0.470   3.135 -0.1087  0.1945  0.3688
 6279W        W 9798   2.578   9.150  10.800 -0.2106 -0.1734 -0.1115
 6280W        W 9799   8.805   6.433   9.714 -0.1310  0.0951  0.1721
 6281W        W 9800   2.987   0.367  11.451  0.2157 -0.0106 -0.2452
 6282W        W 9801   1.936   4.748   3.460 -0.0794  0.1981 -0.3413
 6283W        W 9802   9.095   0.938   8.723  0.2684 -0.1939 -0.0016
 6284W        W 9803   5.307   5.357   3.526  0.0538 -0.0114 -0.1743
 6285W        W 9804   9.029   9.071  10.842 -0.0176  0.3052  0.3369
 6286W        W 9805   0.316   7.462   8.837 -0.0492 -0.0574 -0.0653
 6287W        W 9806   0.547   7.201  10.571  0.1229 -0.2288 -0.0494
 6288W        W 9807   7.854   4.165  10.537 -0.1290  0.1030  0.1084
 6289W        W 9808   8.633   3.237  11.321 -0.1804 -0.2789  0.3985
 6290W        W 9809   2.944   3.387  10.866 -0.4378  0.0651 -0.1443
 6291W        W 9810   3.870   4.274  10.644  0.4110 -0.1595  0.0363
 6292W        W 9811   1.885   0.700  11.389  0.2994 -0.2283 -0.3283
 6293W        W 9812   4.614   4.947   9.892 -0.0442 -0.1711  0.1063
 6294W        W 9813   1.921   2.946  12.549 -0.0165  0.1663 -0.1081
 6295W        W 9814   3.104   1.963  11.656  0.2369  0.4481  0.0770
 6296W        W 9815   1.065   0.175  11.499 -0.2627 -0.1563 -0.2223
 6297W        W 9816   5.031   5.281  11.666 -0.0831 -0.2817 -0.0513
 6298W        W 9817   0.801   4.274   2.911 -0.1050  0.1331 -0.1208
 6299W        W 9818   8.317   7.850  10.896 -0.4352 -0.0124  0.1623
 6300W        W 9819   8.984   6.540  11.105 -0.0755 -0.2851 -0.0359
 6301W        W 9820   6.399   4.798   8.433 -0.2620 -0.3939  0.1151
 6302W        W 9821   3.495   7.709   0.737 -0.0826  0.3138  0.1068
 6303W        W 9822   1.024   6.930   8.127 -0.1021 -0.0220 -0.1031
 6304W        W 9823   5.650   0.907  11.239  0.2436  0.1235  0.1544
 6305W        W 9824   7.566   1.792   0.351 -0.1048  0.2084  0.1007
 6306W        W 9825   0.204   2.653   0.269  0.2245 -0.1833  0.1016
 6307W        W 9826   1.977   0.383  10.363  0.2845 -0.2433 -0.0674
 6308W        W 9827   9.369   9.657   2.736  0.1226  0.0295 -0.0803
 6309W        W 9828   2.368   2.433   3.451 -0.0496  0.1249 -0.1273
 6310W        W 9829   6.860   4.175  12.318 -0.1012 -0.0352 -0.0397
 6311W        W 9830   0.136   1.882   3.677 -0.0533  0.1616 -0.1059
 6312W        W 9831   6.892   8.327   3.162  0.1715  0.1165 -0.0212
 6313W        W 9832   8.799   8.876   0.207 -0.0663  0.3643  0.2594
 6314W        W 9833   1.104   0.702   3.030  0.0136  0.0603  0.2157
 6315W        W 9834   5.229   9.310  11.931  0.0809 -0.0769  0.2560
 6316W        W 9835   9.292   3.938  11.369 -0.0809 -0.1575  0.2569
 6317W        W 9836   5.037   3.356   9.237  0.0565 -0.1193  0.1603
 6318W        W 9837   2.380   4.012  10.323  0.0956 -0.1970 -0.0725
 6319W        W 9838   8.152   2.709   3.617  0.1564  0.0614  0.0172
 6320W        W 9839   6.920   1.315   2.395  0.2137  0.1440 -0.0987
 6321W        W 9840   0.754   2.414  11.635 -0.0781  0.3314  0.2040
 6322W        W 9841   3.192   1.056   9.858  0.1967  0.2597  0.2697
 6323W        W 9842   1.659   8.007   0.465 -0.2935 -0.0163  0.4034
 6324W        W 9843   1.901   0.166   0.797  0.0537  0.3249 -0.0117
 6325W        W 9844   2.716   3.296  10.276 -0.2939  0.1924  0.1306
 6326W        W 9845   1.264   8.453   1.686 -0.1467 -0.0746  0.0619
 6327W        W 9846   3.972   6.200   1.203  0.1282  0.0368  0.2277
 6328W        W 9847   4.754   7.110   4.543  0.1889 -0.2330  0.4698
 6329W        W 9848   9.474   8.265   1.481  0.2964  0.1063 -0.0394
 6330W        W 9849   9.132   4.665   3.260  0.0827 -0.1835 -0.1891
 6331W        W 9850   4.152   7.837   4.815  0.1737 -0.0517 -0.0193
 6332W        W 9851   3.716   3.830  10.602  0.0059 -0.1333  0.4831
 6333W        W 9852   1.625   8.349  10.093  0.2691 -0.0684  0.2637
 6334W        W 9853   5.559   7.861   7.805  0.1728  0.3020  0.3694
 6335W        W 9854   6.707   5.757   0.775 -0.2042  0.0213 -0.1561
 6336W        W 9855   5.169   3.717   9.568  0.1827 -0.0949 -0.0286
 6337W        W 9856   4.680   9.270   9.933 -0.2327 -0.0389 -0.2153
 6338W        W 9857   5.431   0.659   2.780 -0.0210  0.0302 -0.1461
 6339W        W 9858   5.821   2.449   1.735  0.0911  0.1026 -0.2965
 6340W        W 9859   9.548   2.775   9.442  0.0635  0.3107 -0.0530
 6341W        W 9860   1.016   4.379  12.108 -0.3123  0.1332 -0.1991
 6342W        W 9861   7.818   9.302  10.888 -0.0981 -0.0689  0.2163
 6343W        W 9862   1.197   1.782  10.362  0.3431 -0.0631  0.1919
 6344W        W 9863   1.103   6.395   2.350  0.1069  0.1143 -0.0315
 6345W        W 9864   2.390   3.256  10.743 -0.0380 -0.2673  0.0600
 6346W        W 9865   7.501   8.595   9.562 -0.1361  0.0918 -0.2127
 6347W        W 9866   8.104   4.008   2.902 -0.2612 -0.2265 -0.1103
 6348W        W 9867   4.621   7.178   3.352  0.0261  0.1282  0.2211
 6349W        W 9868   3.756   2.544  11.556  0.1576 -0.0544  0.3685
 6350W        W 9869   4.540   1.348  11.468  0.0651 -0.0271  0.0711
 6351W        W 9870   4.228   6.113   0.743 -0.3036 -0.0275  0.0150
 6352W        W 9871   1.693   9.057  10.182 -0.1401 -0.0891 -0.2605
 6353W        W 9872   1.952   7.170   3.037  0.0003  0.1329  0.0058
 6354W        W 9873   2.104   2.561   2.318 -0.1383  0.2622 -0.0016
 6355W        W 9874   7.967   6.166  12.350 -0.0570  0.0151 -0.0511
 6356W        W 9875   5.034   7.416   0.911  0.0816 -0.0600  0.0229
 6357W        W 9876   5.593   7.634  10.052 -0.1468 -0.0238  0.1539
 6358W        W 9877   1.362   9.278   1.628 -0.2289  0.2748  0.1255
 6359W        W 9878   7.582   6.369   9.449  0.0027 -0.2204 -0.0835
 6360W        W 9879   9.578   8.113   9.285  0.2135 -0.1542 -0.0096
 6361W        W 9880   4.433   5.077   8.891  0.0505 -0.0836  0.1939
 6362W        W 9881   0.648   0.429  10.626  0.1873 -0.1427 -0.0452
 6363W        W 9882   9.006   4.760   8.427  0.0573  0.0587 -0.2264
 6364W        W 9883   4.189   6.644  10.017 -0.0444 -0.1942  0.1865
 6365W        W 9884   2.741   1.192   2.667  0.2189 -0.3063  0.1523
 6366W        W 9885   5.577   7.723  11.818 -0.0546  0.0723 -0.0897
 6367W        W 9886   3.559   5.416   2.558 -0.1984 -0.0066 -0.0186
 6368W        W 9887   8.631   3.230  10.831  0.0703 -0.1002  0.2235
 6369W        W 9888   6.576   3.007   2.681  0.1058  0.0299 -0.1023
 6370W        W 9889   1.624   8.109   9.162 -0.2670 -0.3209  0.1407
 6371W        W 9890   7.262   7.531   2.091  0.1620  0.0858 -0.2686
 6372W        W 9891   1.198   8.711  11.408 -0.3704  0.0094 -0.1718
 6373W        W 9892   7.250   6.049  10.640 -0.1505  0.3538 -0.1970
 6374W        W 9893   9.005   0.766  11.889  0.4210  0.1907 -0.0739
 6375W        W 9894   9.657   2.077   1.464  0.1356 -0.0121 -0.3966
 6376W        W 9895   1.968   6.346   8.613 -0.2659  0.0415 -0.2073
 6377W        W 9896   5.409   3.028   1.089 -0.2396  0.2420  0.0756
 6378W        W 9897   1.173   4.716  10.169  0.0513  0.0762 -0.2026
 6379W        W 9898   9.503   6.510  10.854  0.1872 -0.1209 -0.0256
 6380W        W 9899   2.716   9.339   1.680  0.0548 -0.0198 -0.1860
 6381W        W 9900   6.778   5.496   0.214  0.1141  0.2983 -0.2133
 6382W        W 9901   8.764   5.513   9.235  0.1027 -0.2053 -0.3148
 6383W        W 9902   7.821   3.831  11.109 -0.1638  0.0736  0.0567
 6384W        W 9903   7.893   8.745   0.272  0.1908  0.2606  0.0239
 6385W        W 9904   4.457   2.578   1.907  0.0902  0.0534 -0.0266
 6386W        W 9905   2.755   7.231   4.688  0.1245 -0.1054  0.3119
 6387W        W 9906   6.384   3.623   0.922 -0.0170 -0.2524  0.1099
 6388W        W 9907   6.910   8.003  11.152  0.2274  0.0886 -0.0716
 6389W        W 9908   3.221   5.893  11.085  0.2473  0.1423 -0.1229
 6390W        W 9909   1.329   4.516  12.513  0.1536 -0.0151 -0.3354
 6391W        W 9910   0.577   6.686  11.511 -0.1822 -0.0914  0.3440
 6392W        W 9911   6.799   4.841  12.132  0.1592  0.2348  0.0854
 6393W        W 9912   3.104   9.331  11.836 -0.0720 -0.2138  0.4419
 6394W        W 9913   0.979   2.472   0.138  0.0560 -0.0615 -0.3703
 6395W        W 9914   5.783   4.682  11.868  0.1229  0.1684  0.0146
 6396W        W 9915   7.176   4.101  11.494  0.0599 -0.1100 -0.1197
 6397W        W 9916   2.647   9.090   2.213  0.1770 -0.0127 -0.0423
 6398W        W 9917   6.040   4.868  10.897  0.0285 -0.0198 -0.0942
 6399W        W 9918   0.370   6.124   1.047  0.1278 -0.0563  0.1464
 6400W        W 9919   3.659   2.751  11.986  0.0319  0.0031 -0.1235
 6401W        W 9920   9.628   3.315   2.412 -0.4050  0.1861  0.2140
 6402W        W 9921   7.089   7.457   2.959 -0.0759  0.0131  0.1160
 6403W        W 9922   7.033   7.424   4.399  0.1477 -0.1378  0.0024
 6404W        W 9923   0.202   6.938   4.781  0.0256  0.1016 -0.0021
 6405W        W 9924   7.844   7.141   8.529 -0.1724 -0.1195  0.1553
 6406W        W 9925   1.204   1.779  11.438 -0.1450  0.0114 -0.1080
 6407W        W 9926   0.497   4.525   9.005 -0.0585 -0.3722 -0.0354
 6408W        W 9927   7.150   5.608  12.530 -0.0878  0.0972  0.0216
 6409W        W 9928   5.744   4.500   0.240  0.0238  0.0291  0.2296
 6410W        W 9929   0.605   0.987  11.414  0.1268  0.0234  0.1540
 6411W        W 9930   5.397   7.157  11.183 -0.4408  0.1872  0.2982
 6412W        W 9931   4.885   0.403  12.267  0.1242  0.4369  0.0967
 6413W        W 9932   4.760   0.889  10.414  0.1610  0.1555 -0.2529
 6414W        W 9933   3.610   1.864  12.359 -0.0828 -0.0983 -0.1059
 6415W        W 9934   9.361   6.430  10.030  0.0616 -0.1397  0.1716
 6416W        W 9935   4.502   5.542   1.633  0.1085  0.1028 -0.1278
 6417W        W 9936   4.399   8.308   3.820 -0.4213 -0.2353 -0.2229
 6418W        W 9937   8.463   4.693   0.913  0.0211  0.1742 -0.1204
 6419W        W 9938   7.343   4.113   1.805 -0.2050 -0.0146 -0.1765
 6420W        W 9939   7.965   1.610  11.445 -0.0133  0.0822 -0.2800
 6421W        W 9940   4.931   8.399  12.254  0.0869 -0.1688 -0.0043
 6422W        W 9941   0.345   8.986  11.000 -0.1245 -0.1383  0.0143
 6423W        W 9942   0.601   6.162   3.964 -0.0365  0.3841  0.1866
 6424W        W 9943   6.012   0.025  11.957  0.2273 -0.0947  0.3378
 6425W        W 9944   1.312   7.674   1.428 -0.1891  0.3239  0.0961
 6426W        W 9945   0.924   2.491   1.301 -0.1535 -0.2227 -0.4450
 6427W        W 9946   7.663   1.441   9.498 -0.1000 -0.2357  0.3207
 6428W        W 9947   0.580   0.121   0.079 -0.0808  0.0008 -0.0878
 6429W        W 9948   5.377   4.528   3.382 -0.0130  0.1299  0.1696
 6430W        W 9949   3.293   6.948   1.998 -0.1387 -0.1932 -0.2098
 6431W        W 9950   6.383   5.718  10.627  0.3852  0.2449  0.3965
 6432W        W 9951   9.249   7.041   3.159  0.3254 -0.1825  0.0852
 6433W        W 9952   5.794   8.296  11.810  0.0952  0.1513 -0.0490
 6434W        W 9953   6.893   8.896  11.842  0.0264 -0.1960  0.1861
 6435W        W 9954   7.264   4.989   0.296 -0.0840  0.0974 -0.0710
 6436W        W 9955   2.734   5.967   2.311 -0.1972  0.0990 -0.1071
 6437W        W 9956   6.298   5.524   0.142  0.3397 -0.1608  0.2357
 6438W        W 9957   1.837   2.803  10.833 -0.1802 -0.0796  0.1967
 6439W        W 9958   9.155   7.242  12.101 -0.2265 -0.0668 -0.3120
 6440W        W 9959   8.012   5.354   3.894  0.1393  0.0420 -0.1722
 6441W        W 9960   1.677   7.755   2.829  0.0863 -0.0282  0.0390
 6442W        W 9961   7.710   6.905   1.617 -0.1496 -0.0688  0.1990
 6443W        W 9962   4.629   5.019   1.201 -0.3747  0.0189  0.1664
 6444W        W 9963   8.032   1.580  12.350  0.2168  0.1615 -0.2396
 6445W        W 9964   5.260   6.674   1.544 -0.1526  0.1793  0.1586
 6446W        W 9965   0.296   4.044   3.599  0.1138  0.1310  0.0481
 6447W        W 9966   3.643   0.423   0.224  0.0501  0.0202  0.0362
 6448W        W 9967   6.316   5.157  10.555 -0.3823  0.0551 -0.2791
 6449W        W 9968   7.151   5.628   3.694  0.1982  0.0551 -0.0181
 6450W        W 9969   6.956   9.091  12.333  0.3062  0.0609 -0.1401
 6451W        W 9970   3.200   7.066   3.393 -0.3673  0.2615 -0.0227
 6452W        W 9971   2.402   6.809  11.670  0.2360 -0.0673  0.2363
 6453W        W 9972   8.968   2.167   3.890 -0.0581 -0.1366  0.0105
 6454W        W 9973   5.394   5.518  11.887 -0.1658  0.1872  0.2904
 6455W        W 9974   3.344   9.083  11.355  0.3298 -0.1063  0.0648
 6456W        W 9975   0.944   0.689   1.141  0.2139 -0.3041 -0.1030
 6457W        W 9976   1.359   3.666   9.671  0.0167  0.0711  0.2115
 6458W        W 9977   9.399   6.326  11.779 -0.0882 -0.2807 -0.0597
 6459W        W 9978   2.028   4.772  10.680  0.1425  0.1317  0.2483
 6460W        W 9979   7.573   4.509   8.676  0.1511 -0.1062  0.2143
 6461W        W 9980   1.820   2.120  11.556 -0.0110 -0.1312 -0.1440
 6462W        W 9981   9.246   8.849   2.857  0.1801 -0.1496 -0.0437
 6463W        W 9982   9.353   8.547   9.434  0.1280  0.2943 -0.2453
 6464W        W 9983   8.108   7.287  10.867  0.2423  0.1767 -0.2027
 6465W        W 9984   2.745   5.813  11.968  0.0534 -0.2241 -0.2675
 6466W        W 9985   2.633   8.483  11.318  0.0976  0.0670  0.2552
 6467W        W 9986   5.658   3.405  10.838 -0.2244 -0.4069 -0.0213
 6468W        W 9987   8.125   1.431  11.012  0.2639 -0.1507 -0.2001
 6469W        W 9988   1.613   9.057   3.211  0.1340  0.3223 -0.1347
 6470W        W 9989   7.498   8.755   2.535  0.0477 -0.0354 -0.4080
 6471W        W 9990   4.867   5.711   2.925  0.1728  0.0553 -0.0976
 6472W        W 9991   1.091   5.638   2.436 -0.1159  0.0028  0.0190
 6473W        W 9992   3.756   6.580   5.196 -0.0198 -0.2758  0.2375
 6474W        W 9993   7.601   7.511   0.263 -0.3600  0.2800  0.3680
 6475W        W 9994   0.607   5.804  10.133 -0.1070  0.3678  0.1637
 6476W        W 9995   0.083   7.824   9.676  0.1314  0.1054  0.4437
 6477W        W 9996   0.413   8.963   9.580 -0.1038 -0.4529  0.1067
 6478W        W 9997   1.029   6.173   8.786 -0.1745 -0.2301  0.0283
 6479W        W 9998   0.952   6.705   8.811 -0.2609 -0.1376 -0.1382
 6480W        W 9999   0.010   8.765  10.016 -0.1377 -0.2257  0.0725
 6481W        W10000   5.680   7.537  12.305 -0.0252  0.0103  0.2706
 6482W        W10001   7.601   5.829   2.946 -0.2288  0.2283  0.1993
 6483W        W10002   9.513   0.476  10.171 -0.0005  0.1129  0.0122
 6484W        W10003   8.736   5.032  10.995 -0.0971  0.0506 -0.1430
 6485W        W10004   7.282   9.349  11.628 -0.1969 -0.0055 -0.1891
 6486W        W10005   0.946   0.607  11.238  0.1651 -0.2439  0.2074
 6487W        W10006   7.295   1.065  10.460  0.3004 -0.1753 -0.3026
 6488W        W10007   6.884   2.734  11.537  0.0067  0.1059 -0.0313
 6489W        W10008   4.032   8.065   8.996  0.0735  0.3263 -0.1095
 6490W        W10009   2.766   7.283   2.502 -0.1334  0.0322  0.1852
 6491W        W10010   6.027   8.383   2.817 -0.0166  0.3226  0.0049
 6492W        W10011   5.185   1.834   2.142 -0.3143  0.0094 -0.2917
 6493W        W10012   3.920   9.122   8.779 -0.3954  0.2446  0.2029
 6494W        W10013   5.291   8.003  10.820  0.1567  0.0062  0.2074
 6495W        W10014   4.220   5.069   1.482  0.1512 -0.4421  0.2124
 6496W        W10015   2.191   6.071   4.470  0.2735  0.0213 -0.2011
 6497W        W10016   8.096   6.008   2.802 -0.0489 -0.0785  0.1588
 6498W        W10017   4.917   4.808   8.908 -0.2515  0.2179 -0.2779
 6499W        W10018   4.357   1.834  10.237 -0.0754  0.0223 -0.1089
 6500W        W10019   4.267   4.953   0.156  0.1751  0.3849  0.1289
 6501W        W10020   1.599   8.452   0.742  0.3532 -0.0308  0.1892
 6502W        W10021   6.879   3.075   9.430 -0.2812  0.1187  0.0019
 6503W        W10022   6.511   2.904  11.857  0.4151 -0.1315  0.3492
 6504W        W10023   5.071   3.692   1.659 -0.0505  0.1767  0.0727
 6505W        W10024   0.180   5.626  11.658 -0.0416 -0.1834  0.1905
 6506W        W10025   8.183   1.250  11.843 -0.0519 -0.2164  0.3082
 6507W        W10026   5.424   7.164   8.554  0.2541 -0.1936 -0.2477
 6508W        W10027   0.614   3.301   8.866 -0.1453 -0.2287  0.2430
 6509W        W10028   2.902   3.051  12.404  0.3842 -0.0342  0.2747
 6510W        W10029   7.182   8.625  10.436 -0.0001  0.0871  0.1151
 6511W        W10030   0.472   5.510   1.222 -0.0722 -0.0886  0.3703
 6512W        W10031   0.137   9.602   0.878 -0.2936 -0.2269 -0.2254
 6513W        W10032   7.194   4.940  11.847 -0.2347 -0.0127  0.1766
 6514W        W10033   4.732   8.335  10.913 -0.2182 -0.1077  0.2506
 6515W        W10034   9.128   7.498  10.885 -0.0994  0.1219 -0.0479
 6516W        W10035   4.688   9.136   9.416  0.1126  0.0221  0.0022
 6517W        W10036   6.295   3.840   2.183  0.0629 -0.1438  0.1781
 6518W        W10037   0.802   5.287  10.114 -0.1342  0.2024 -0.1373
 6519W        W10038   2.900   8.896   1.283 -0.4257 -0.2406  0.1283
 6520W        W10039   5.937   7.770   9.555  0.0595  0.0240 -0.1516
 6521W        W10040   4.164   8.057   3.318 -0.3307  0.1160 -0.1744
 6522W        W10041   1.938   3.310  11.775  0.1182 -0.2915 -0.2694
 6523W        W10042   1.328   7.481   9.667  0.2916 -0.0825 -0.2978
 6524W        W10043   0.992   7.026  11.456  0.0415 -0.1245  0.2970
 6525W        W10044   6.157   2.207   3.408 -0.0725  0.0470 -0.0577
 6526W        W10045   1.489   5.734  12.100 -0.0575  0.0937 -0.1998
 6527W        W10046   7.289   4.639  11.466  0.3220  0.0731  0.0421
 6528W        W10047   5.274   5.392  11.230 -0.0571  0.2421  0.0422
 6529W        W10048   2.329   1.485   2.955  0.0899  0.0244  0.0629
 6530W        W10049   9.552   4.613   9.667  0.1833 -0.0366 -0.0679
 6531W        W10050   4.737   1.415  11.887  0.3324  0.0688 -0.3760
 6532W        W10051   6.340   5.047   1.471  0.0892  0.2791 -0.2651
 6533W        W10052   3.398   7.775   9.925  0.1099 -0.2126 -0.1982
 6534W        W10053   0.814   1.558   2.128  0.1517 -0.0606  0.2352
 6535W        W10054   1.581   4.936   9.878  0.1740  0.0024 -0.4329
 6536W        W10055   7.759   6.596   8.965  0.0546 -0.1903  0.1134
 6537W        W10056   3.107   6.829   0.083  0.2859 -0.0794 -0.0808
 6538W        W10057   8.067   9.102  10.446  0.2021  0.0249  0.1761
 6539W        W10058   2.583   5.966   1.418 -0.0410  0.2075  0.1258
 6540W        W10059   7.033   4.114   1.358 -0.0729  0.0885  0.1394
 6541W        W10060   8.930   1.782   2.193  0.1481  0.0771  0.1720
 6542W        W10061   1.747   8.599   3.362 -0.2564  0.0172  0.1648
 6543W        W10062   6.388   1.140  10.777  0.3020 -0.0730 -0.0656
 6544W        W10063   6.523   5.525   8.724 -0.1762  0.0265 -0.1437
 6545W        W10064   5.909   8.643   0.367  0.0197  0.1491 -0.2928
 6546W        W10065   2.362   8.245   9.642 -0.1914  0.1063  0.0221
 6547W        W10066   3.508   2.539   0.323  0.1976  0.0153  0.0341
 6548W        W10067   7.782   0.287   0.620 -0.5885 -0.2430  0.1054
 6549W        W10068   2.385   8.948   8.355  0.0591 -0.2219 -0.0624
 6550W        W10069   8.621   8.283   1.179  0.0118 -0.0303  0.1004
 6551W        W10070   8.156   2.744   0.520 -0.0395  0.3036 -0.0098
 6552W        W10071   6.617   1.894  11.638 -0.1497 -0.2820 -0.1222
 6553W        W10072   0.231   0.313   9.758  0.1480 -0.1227 -0.0696
 6554W        W10073   5.660   6.771   0.417  0.0724 -0.1128 -0.1394
 6555W        W10074   2.031   0.422   4.265 -0.0785 -0.1530  0.0065
 6556W        W10075   6.796   6.995   1.293 -0.0659 -0.0796 -0.0485
 6557W        W10076   6.934   3.785  10.875  0.0892  0.0198  0.3333
 6558W        W10077   3.747   6.199   3.481  0.0374  0.0361 -0.2487
 6559W        W10078   1.874   2.134   2.204  0.1620 -0.1498 -0.0872
 6560W        W10079   5.957   5.286  12.432 -0.0656 -0.6637  0.1494
 6561W        W10080   7.207   2.088   9.684  0.1685 -0.0700 -0.2288
 6562W        W10081   1.017   8.979   3.191  0.3489 -0.1177 -0.0683
 6563W        W10082   0.189   3.123   3.303  0.3523 -0.5134 -0.0368
 6564W        W10083   9.566   5.316   8.522  0.0002  0.0193 -0.0059
 6565W        W10084   3.242   1.911   9.982  0.1957  0.1292  0.1513
 6566W        W10085   9.496   9.319   0.608 -0.0556 -0.2045  0.1330
 6567W        W10086   7.081   2.011  10.945 -0.0320 -0.0771 -0.0589
 6568W        W10087   4.591   2.567   3.568  0.1511 -0.1888  0.0149
 6569W        W10088   7.917   2.710   4.917  0.3336 -0.0933 -0.1657
 6570W        W10089   0.462   1.165   3.264 -0.3221  0.0515  0.1503
 6571W        W10090   0.607   7.106  11.113  0.2448  0.1890 -0.3396
 6572W        W10091   3.701   1.933   1.077  0.1365 -0.1087  0.2102
 6573W        W10092   3.925   7.721   3.016  0.0657  0.0330 -0.2202
 6574W        W10093   7.959   8.811   2.397  0.0752  0.1030  0.0540
 6575W        W10094   5.986   0.894   4.210  0.0201  0.3546  0.1171
 6576W        W10095   7.361   1.718   7.732  0.1652 -0.0777  0.0212
 6577W        W10096   0.150   6.528   1.789 -0.1164 -0.0089 -0.0520
 6578W        W10097   2.710   1.030  10.303 -0.2181  0.0919 -0.0356
 6579W        W10098   1.595   7.142   8.430 -0.2229  0.1427  0.0852
 6580W        W10099   4.952   5.709   0.618 -0.1504 -0.1124 -0.1155
 6581W        W10100   9.407   5.230   3.240 -0.1115 -0.3081  0.0022
 6582W        W10101   1.297   4.490  11.517  0.0709  0.1845 -0.0001
 6583W        W10102   5.132   9.405   3.273  0.0146  0.1704  0.2351
 6584W        W10103   7.712   5.230   1.688  0.1806 -0.3943  0.1280
 6585W        W10104   8.162   0.976   3.583 -0.0859 -0.3520 -0.1772
 6586W        W10105   1.566   1.074  11.629 -0.0671  0.0915  0.2012
 6587W        W10106   1.879   1.172  12.172  0.0227  0.4073  0.0594
 6588W        W10107   2.651   2.776  12.006  0.1170 -0.1370 -0.2987
 6589W        W10108   4.951   3.587  10.061 -0.1291 -0.2689 -0.2064
 6590W        W10109   9.438   8.755  10.434  0.0566 -0.2623  0.1617
 6591W        W10110   2.740   0.042  11.823  0.0794 -0.2731  0.0619
 6592W        W10111   8.316   5.351   9.108  0.1121 -0.2305 -0.1443
 6593W        W10112   4.569   5.309   4.097  0.0705 -0.1032 -0.0830
 6594W        W10113   8.209   3.552   3.405 -0.0471  0.3091 -0.1037
 6595W        W10114   4.176   6.191  10.458 -0.2339  0.1479 -0.1091
 6596W        W10115   5.864   2.271   1.271  0.0291  0.0650  0.0721
 6597W        W10116   3.845   4.087  10.168 -0.2699  0.0656 -0.1237
 6598W        W10117   8.343   4.354   9.619 -0.2237  0.0614 -0.1945
 6599W        W10118   2.860   5.762   9.362 -0.1714  0.0991  0.3636
 6600W        W10119   2.003   6.047  10.885  0.2265  0.0054 -0.3403
 6601W        W10120   4.578   7.445  10.744  0.0247 -0.0403  0.0352
 6602W        W10121   7.608   4.146   9.540  0.1443 -0.2017  0.1243
 6603W        W10122   2.723   9.260   0.949  0.2655  0.1581 -0.3171
 6604W        W10123   0.353   8.574   2.921  0.0454  0.0426 -0.1910
 6605W        W10124   6.865   0.395   1.652 -0.0371  0.4798  0.0391
 6606W        W10125   3.495   0.283   9.792  0.3868  0.2367  0.0374
 6607W        W10126   8.824   3.601   2.681  0.2331 -0.2164 -0.3513
 6608W        W10127   1.260   1.775   2.044 -0.2322  0.0196  0.1320
 6609W        W10128   2.632   3.183   3.439  0.1908 -0.1176 -0.0043
 6610W        W10129   6.321   3.147   1.681 -0.3611  0.0730  0.2055
 6611W        W10130   9.199   8.442   0.661  0.2246 -0.1176 -0.1151
 6612W        W10131   8.453   5.421  10.519  0.0541  0.0220  0.1465
 6613W        W10132   5.426   3.258   1.577 -0.2046  0.1751 -0.4330
 6614W        W10133   9.482   2.661  12.543  0.1698  0.2694 -0.0359
 6615W        W10134   6.462   2.844   0.454 -0.2653 -0.1171 -0.0095
 6616W        W10135   7.039   5.791   9.058  0.0227  0.1217  0.2587
 6617W        W10136   1.951   5.026   8.519 -0.2365 -0.1425 -0.0319
 6618W        W10137   1.002   3.714  11.978  0.2704  0.0002 -0.1358
 6619W        W10138   4.483   5.433   2.439 -0.1262 -0.0623  0.0239
 6620W        W10139   8.603   7.883   8.854 -0.0452  0.1038  0.1661
 6621W        W10140   6.608   1.898  11.109 -0.2899 -0.2296 -0.1272
 6622W        W10141   8.090   0.175   1.032  0.0793  0.2590  0.1343
 6623W        W10142   9.271   8.255   8.736  0.0086  0.2820 -0.1178
 6624W        W10143   2.518   5.593   9.028  0.1840  0.0449  0.1314
 6625W        W10144   8.094   5.689   4.271 -0.2107 -0.0615 -0.0697
 6626W        W10145   4.189   0.111  11.170 -0.0256 -0.3530  0.1513
 6627W        W10146   8.676   5.730  11.692  0.1388  0.4477  0.0870
 6628W        W10147   3.543   1.276   1.016  0.0153  0.0749 -0.0612
 6629W        W10148   0.798   8.044  10.983 -0.0502 -0.0376 -0.0473
 6630W        W10149   6.313   0.012   4.586 -0.1579  0.1461  0.3771
 6631W        W10150   6.518   4.634   1.860  0.1606 -0.0069 -0.1151
 6632W        W10151   4.268   6.420   4.688 -0.1143  0.0781 -0.0422
 6633W        W10152   1.413   6.433  12.143  0.0720  0.1270 -0.1504
 6634W        W10153   4.667   9.589   1.124 -0.0044  0.1357 -0.0089
 6635W        W10154   2.671   9.213   8.903 -0.0345  0.2076  0.4117
 6636W        W10155   0.196   0.342   8.154  0.0066 -0.2018 -0.0545
 6637W        W10156   2.413   2.866  12.534  0.0392 -0.1023  0.0167
 6638W        W10157   9.603   9.500   9.803  0.1872  0.0439 -0.0301
 6639W        W10158   2.702   7.536  12.306 -0.1794 -0.0751  0.2171
 6640W        W10159   2.546   4.854   2.047  0.0684  0.1950  0.1958
 6641W        W10160   1.687   8.181  10.946 -0.1129 -0.1279  0.2084
 6642W        W10161   6.319   6.281   0.709 -0.1732 -0.0500 -0.0607
 6643W        W10162   2.286   5.163   2.300  0.1700 -0.2187 -0.1178
 6644W        W10163   4.267   2.900   9.707 -0.4297 -0.0871  0.2124
 6645W        W10164   8.529   1.806   0.065 -0.1326 -0.0871  0.2405
 6646W        W10165   0.865   4.370   0.004 -0.1019  0.0249 -0.1692
 6647W        W10166   0.993   7.602   2.275 -0.0955  0.0290  0.1549
 6648W        W10167   3.258   0.821   9.218 -0.1415  0.0846  0.0654
 6649W        W10168   9.435   4.499   1.908  0.0258  0.1506 -0.3577
 6650W        W10169   5.163   3.490   1.249 -0.1794 -0.1330 -0.1095
 6651W        W10170   0.414   5.958   9.493 -0.2032  0.2982 -0.0521
 6652W        W10171   8.827   6.389   2.530 -0.1534 -0.0212 -0.2694
 6653W        W10172   5.138   3.636   3.213 -0.0230 -0.1460 -0.0230
 6654W        W10173   0.183   9.195   1.558  0.0430  0.1467  0.3985
 6655W        W10174   8.579   9.544  10.299 -0.0046 -0.1632 -0.1401
 6656W        W10175   2.552   6.114  11.597 -0.2280  0.1922  0.1299
 6657W        W10176   2.308   2.603   2.777  0.1769  0.0948 -0.0849
 6658W        W10177   4.576   4.274   1.334 -0.0186 -0.2564 -0.4995
 6659W        W10178   9.279   8.042  11.024 -0.1350 -0.3356  0.0565
 6660W        W10179   3.561   6.689   1.550 -0.0722 -0.1737 -0.2541
 6661W        W10180   0.698   1.868  11.574  0.0047 -0.0679  0.0305
 6662W        W10181   7.437   0.806  11.416 -0.1625 -0.1254 -0.1320
 6663W        W10182   5.292   8.496  11.075 -0.0890  0.1193  0.2122
 6664W        W10183   5.299   5.725   9.933  0.1217 -0.1236 -0.0853
 6665W        W10184   8.386   6.818   3.075 -0.1739 -0.3691  0.0574
 6666W        W10185   8.121   0.913  12.375  0.1379 -0.1522 -0.0893
 6667W        W10186   5.541   7.682   8.592 -0.0395  0.1152  0.0008
 6668W        W10187   9.543   6.759   3.980  0.1965  0.1127 -0.0818
 6669W        W10188   0.661   8.001  12.401  0.0181  0.2489  0.0287
 6670W        W10189   7.467   7.653   3.729  0.0268  0.0367 -0.1755
 6671W        W10190   8.274   4.512   2.991  0.2063  0.1416  0.2208
 6672W        W10191   4.075   4.155   1.226 -0.0110 -0.1779 -0.0883
 6673W        W10192   6.463   8.364   1.098 -0.0497 -0.0762  0.1710
 6674W        W10193   4.546   5.377   0.251  0.1505  0.3975  0.2767
 6675W        W10194   1.171   5.241   2.735 -0.1256 -0.1597  0.1991
 6676W        W10195   2.943   5.160  10.554 -0.0048 -0.0473 -0.0963
 6677W        W10196   2.014   8.032   9.939 -0.2744  0.1838 -0.1632
 6678W        W10197   5.166   6.480   8.898 -0.0608 -0.3109 -0.2832
 6679W        W10198   1.758   1.021   1.777 -0.1749  0.0684  0.0607
 6680W        W10199   2.491   7.094   1.248 -0.1515 -0.2310  0.3127
 6681W        W10200   3.349   3.396   0.823 -0.2542  0.3202  0.0083
 6682W        W10201   6.634   4.537   9.743  0.2769 -0.0259  0.1117
 6683W        W10202   3.592   7.041   1.092  0.0625 -0.2716 -0.1527
 6684W        W10203   5.713   5.763   7.943 -0.3196 -0.1828 -0.3140
 6685W        W10204   1.873   9.225   2.554 -0.1520  0.4085 -0.0166
 6686W        W10205   7.335   6.264   0.724  0.0821 -0.1909  0.0756
 6687W        W10206   1.547   0.911   9.567 -0.2000 -0.0902 -0.0176
 6688W        W10207   4.896   8.737   8.840 -0.1049 -0.3094 -0.0012
 6689W        W10208   5.392   5.480   0.889  0.0316 -0.0311 -0.3827
 6690W        W10209   5.614   0.208   0.056  0.0395 -0.0283  0.0404
 6691W        W10210   2.192   5.030   9.755 -0.1293  0.0005  0.0632
 6692W        W10211   4.501   4.142  11.368  0.2803 -0.2005 -0.2579
 6693W        W10212   3.797   5.417   1.304 -0.1436 -0.0970 -0.0670
 6694W        W10213   0.875   3.670   4.240  0.2649 -0.0034 -0.1261
 6695W        W10214   6.578   5.724   1.852  0.1181 -0.1046  0.1513
 6696W        W10215   6.628   4.101   0.117 -0.2153 -0.0771 -0.2832
 6697W        W10216   6.142   0.553   0.239 -0.0561  0.0418  0.1163
 6698W        W10217   5.830   0.824  11.701  0.1909  0.1074  0.3966
 6699W        W10218   0.103   2.128  10.968  0.1903  0.3111 -0.2316
 6700W        W10219   2.959   8.325  10.982  0.0371 -0.3005  0.2693
 6701W        W10220   7.297   3.462   1.269 -0.1165  0.1239  0.0738
 6702W        W10221   4.171   3.375   9.672 -0.0725 -0.3007 -0.0071
 6703W        W10222   3.944   8.815   0.325 -0.1889 -0.1131 -0.0448
 6704W        W10223   8.564   1.894   9.548 -0.3839  0.2264 -0.1016
 6705ION    NA+10224   4.886   7.706   2.717 -0.1324  0.2392 -0.2548
 6706ION    NA+10225   8.022   8.390   4.346  0.0215  0.2535  0.2075
 6707ION    NA+10226   8.813   1.120  10.519  0.0187  0.0329 -0.0960
 6708ION    NA+10227   2.251   2.558   1.812  0.0092 -0.0171 -0.0090
 6709ION    NA+10228   1.461   1.735   9.232 -0.2483 -0.1372 -0.0805
 6710ION    NA+10229   8.505   8.791   8.279 -0.0290 -0.2833 -0.0413
 6711ION    NA+10230   9.380   3.941   0.217 -0.0345  0.0754  0.0969
 6712ION    NA+10231   4.302   2.719  10.338 -0.0011  0.0887 -0.0829
 6713ION    NA+10232   4.093   5.414   3.209  0.0864  0.0054 -0.0737
 6714ION    NA+10233   3.579   7.274   9.773 -0.0329 -0.2613  0.2452
 6715ION    NA+10234   3.562   7.008   0.143 -0.1733 -0.4139  0.2969
 6716ION    NA+10235   6.003   8.789  11.631  0.1839  0.0943 -0.2814
 6717ION    NA+10236   6.910   6.462   9.898  0.2578  0.2771  0.0784
 6718ION    NA+10237   1.098   0.232  10.912  0.1844 -0.0496 -0.1936
 6719ION    NA+10238   0.245   8.603   1.685 -0.1759 -0.0219 -0.2155
 6720ION    NA+10239   8.653   2.127   4.434  0.0700 -0.1075  0.1048
 6721ION    NA+10240   2.533   1.397  11.610  0.3020  0.1823 -0.3075
 6722ION    NA+10241   7.817   0.544  12.194 -0.0055 -0.0998  0.2890
 6723ION    NA+10242   1.069   7.948   0.046  0.0450  0.4211 -0.2833
 6724ION    NA+10243   2.605   3.054  11.133  0.3029 -0.0110  0.0078
 6725ION    NA+10244   0.916   4.194   2.169 -0.0238 -0.0718  0.1103
 6726ION    NA+10245   9.412   0.752   1.342 -0.0254 -0.1269  0.1161
 6727ION    NA+10246   9.422   7.308  12.517 -0.3651  0.1653 -0.0884
 6728ION    NA+10247   4.405   7.229   0.456 -0.2275 -0.1214  0.2480
 6729ION    NA+10248   4.969   3.066  11.650  0.3325  0.0347 -0.1700
 6730ION    NA+10249   2.402   8.936   1.157  0.0574 -0.0399  0.4645
 6731ION    NA+10250   1.284   8.053   0.832 -0.0976 -0.1155 -0.1056
 6732ION    NA+10251   0.716   4.507   3.760  0.0300 -0.3315 -0.0629
 6733ION    NA+10252   5.534   6.562  12.120  0.0314 -0.3127 -0.2676
 6734ION    NA+10253   9.628   4.944   8.225 -0.0514  0.1506  0.3264
 6735ION    NA+10254   6.234   4.097   1.084  0.0515  0.1223  0.3018
 6736ION    NA+10255   8.819   5.694   1.663  0.1543 -0.1594  0.0322
 6737ION    NA+10256   7.463   4.841   9.579  0.2019  0.0872  0.0816
 6738ION    NA+10257   8.522   8.949  10.197  0.0358 -0.3226 -0.1994
 6739ION    NA+10258   5.971   6.955   1.871 -0.0203  0.0428 -0.0403
 6740ION    NA+10259   7.819   2.044   2.701  0.1585 -0.1541  0.1856
 6741ION    NA+10260   7.632   3.916   8.239 -0.1099  0.0408 -0.0047
 6742ION    NA+10261   9.279   6.600   8.168  0.0560  0.2998  0.0521
 6743ION    NA+10262   7.660   1.661  11.071 -0.0978  0.1330  0.1456
 6744ION    NA+10263   3.429   5.862   4.585 -0.2288  0.2320 -0.4220
 6745ION    NA+10264   5.758   7.528   1.056  0.0635 -0.0767  0.2533
 6746ION    NA+10265   6.252   5.631   9.296  0.1212 -0.1280  0.4521
 6747ION    NA+10266   0.665   5.787   8.991 -0.2351  0.0586 -0.0818
 6748ION    NA+10267   4.869   1.863   9.000 -0.3358 -0.3224  0.0230
 6749ION    NA+10268   4.600   6.795   1.271 -0.1927 -0.1246  0.0744
 6750ION    NA+10269   9.513   1.914   3.292  0.0065  0.2554 -0.0962
 6751ION    NA+10270   6.116   3.178  11.684 -0.0279  0.0825  0.1252
 6752ION    NA+10271   3.755   3.135   0.930 -0.0539 -0.0274 -0.2767
 6753ION    NA+10272   7.843   7.945  11.097 -0.0462  0.2008  0.1096
 6754ION    NA+10273   1.257   2.649   3.443 -0.1491 -0.0671 -0.1039
 6755ION    NA+10274   5.720   5.290   2.208  0.1790  0.0142 -0.1350
 6756ION    NA+10275   7.476   9.071   0.080  0.0223  0.0927  0.2031
 6757ION    NA+10276   0.762   8.063   8.692 -0.2365 -0.1032 -0.2288
 6758ION    NA+10277   4.807   1.405   1.370  0.0953 -0.2277 -0.1285
 6759ION    NA+10278   7.170   9.614  12.022 -0.1122  0.0235 -0.1766
 6760ION    NA+10279   1.983   7.873   8.423 -0.0488  0.2602  0.1834
 6761ION    NA+10280   6.251   3.902   4.175 -0.1536 -0.1642 -0.1085
 6762ION    NA+10281   0.532   2.153   8.919  0.2613 -0.0496 -0.0848
 6763ION    NA+10282   1.559   7.425  11.570  0.3282  0.0025 -0.0462
 6764ION    NA+10283   6.392   9.310   1.185  0.2858  0.0669 -0.2645
 6765ION    NA+10284   5.774   6.380  11.760  0.5346 -0.1211  0.3005
 6766ION    NA+10285   8.534   2.522  11.880  0.1036  0.2459  0.0813
 6767ION    NA+10286   9.060   6.302   3.284 -0.0055 -0.2202 -0.0457
 6768ION    NA+10287   0.147   5.284   3.538 -0.0551  0.1683  0.3934
 6769ION    NA+10288   0.289   8.850   9.080  0.0166  0.0438  0.1304
 6770ION    NA+10289   3.746   2.161   9.729  0.3049  0.0490  0.1575
 6771ION    NA+10290   3.579   9.420   8.455 -0.3068 -0.0135  0.1080
 6772ION    NA+10291   0.512   2.372   9.996 -0.1451 -0.0537 -0.0324
 6773ION    NA+10292   0.361   5.725   4.651  0.1757  0.2759 -0.1640
 6774ION    NA+10293   0.928   8.656   3.878  0.0449 -0.0997 -0.1436
 6775ION    NA+10294   0.133   1.011   8.203 -0.0565 -0.0218 -0.1680
 6776ION    CL-10295   0.869   8.507   3.365  0.0207 -0.2326  0.0823
 6777ION    CL-10296   0.015   2.175  10.138 -0.0119 -0.1162 -0.0558
 6778ION    CL-10297   3.280   7.208  12.322 -0.1104 -0.2004  0.2199
 6779ION    CL-10298   1.105   4.457   1.558 -0.2063  0.1683  0.1819
 6780ION    CL-10299   0.133   4.835   3.690 -0.1548 -0.1859  0.4293
 6781ION    CL-10300   5.578   9.021  11.786 -0.2817  0.0617 -0.1937
 6782ION    CL-10301   7.089   7.751   0.169  0.1612  0.0651  0.2544
 6783ION    CL-10302   4.819   8.333   2.723 -0.0310  0.0254 -0.0144
 6784ION    CL-10303   3.368   7.473   0.298  0.2855 -0.0521 -0.0074
 6785ION    CL-10304   7.032   3.610   2.499 -0.0425 -0.0115  0.0018
 6786ION    CL-10305   3.897   3.032   0.334  0.2561 -0.0686 -0.1094
 6787ION    CL-10306   5.193   1.003   1.333  0.0536  0.1710  0.0595
 6788ION    CL-10307   0.372   1.771   3.145  0.2227  0.0750 -0.2323
 6789ION    CL-10308   6.459   3.745   9.764 -0.3382 -0.1334 -0.4836
 6790ION    CL-10309   8.367   5.946   1.738 -0.1507  0.1118  0.2479
 6791ION    CL-10310   8.828   8.504   9.640  0.1623  0.1138 -0.1155
 6792ION    CL-10311   0.352   7.488   4.199  0.1614 -0.1468 -0.0070
 6793ION    CL-10312   0.425   6.206   8.670 -0.1490  0.4051 -0.1483
 6794ION    CL-10313   2.786   0.924  11.369  0.0581  0.0167 -0.0603
 6795ION    CL-10314   8.588   6.388   3.053  0.2350  0.2508 -0.2052
 6796ION    CL-10315   3.206   4.205   9.435  0.0890 -0.0204 -0.1690
 6797ION    CL-10316   0.720   8.078   0.438 -0.2071 -0.1519 -0.0887
 6798ION    CL-10317   2.752   3.744  10.533 -0.1277 -0.0665 -0.0411
 6799ION    CL-10318   8.264   1.457   3.559 -0.0631 -0.0347 -0.3084
 6800ION    CL-10319   8.683   5.715   9.694  0.2255 -0.1610  0.3440
 6801ION    CL-10320   0.797   2.867   1.713 -0.1880  0.0831  0.4556
 6802ION    CL-10321   2.046   2.133   1.569 -0.1616  0.1396 -0.1645
 6803ION    CL-10322   5.377   6.060  11.933  0.0725  0.3887 -0.0519
 6804ION    CL-10323   5.113   7.165   2.516  0.0594  0.1980  0.0632
 6805ION    CL-10324   7.582   3.656   9.218 -0.0342  0.2254 -0.2026
 6806ION    CL-10325   8.174   4.899   9.340 -0.2319  0.1085 -0.1428
 6807ION    CL-10326   8.282   6.637   9.053  0.1273 -0.0796 -0.1719
 6808ION    CL-10327   8.048   8.960   9.915 -0.1763  0.1808 -0.2071
 6809ION    CL-10328   1.308   5.152   8.747 -0.2582  0.2290 -0.2908
 6810ION    CL-10329   0.806   8.382   9.076 -0.0004  0.2515  0.2517
 6811ION    CL-10330   3.878   1.001   1.282 -0.0953 -0.1708 -0.3907
 6812ION    CL-10331   8.423   7.914   3.578  0.0982  0.1001 -0.1759
 6813ION    CL-10332   7.368   0.618  12.512 -0.2349 -0.1578  0.2838
 6814ION    CL-10333   4.409   9.601   9.521 -0.0342  0.1805  0.1381
 6815ION    CL-10334   4.726   6.636   8.634 -0.0928 -0.0427 -0.0021
 6816ION    CL-10335   7.219   5.845   4.158  0.1265 -0.3886  0.2761
 6817ION    CL-10336   4.763   1.877   9.839 -0.1964  0.2014 -0.2530
 6818ION    CL-10337   9.196   1.599   3.547 -0.0257  0.0353  0.2619
 6819ION    CL-10338   0.535   8.918   1.942  0.3797  0.0223  0.3838
 6820ION    CL-10339   0.482   5.397   9.337  0.2227 -0.0008 -0.0195
 6821ION    CL-10340   7.246   4.528  12.291  0.0679  0.0226 -0.2341
 6822ION    CL-10341   1.637   7.059   2.037 -0.0543 -0.1068 -0.0924
 6823ION    CL-10342   3.486   6.994   9.368  0.0515 -0.2090  0.3100
 6824ION    CL-10343   2.457   7.247   3.229 -0.1247 -0.3992 -0.1254
 6825ION    CL-10344   5.303   0.670  11.616  0.1091  0.1551  0.1376
 6826ION    CL-10345   4.246   5.267   3.640 -0.0996  0.1377  0.1014
 6827ION    CL-10346   2.924   2.354  10.082  0.0441 -0.3826 -0.0078
 6828ION    CL-10347   2.469   8.991  11.272  0.2624 -0.5410  0.0391
 6829ION    CL-10348   4.449   6.760   0.297  0.0861 -0.0622  0.1822
 6830ION    CL-10349   1.543   7.798  12.532 -0.2795 -0.0948  0.1581
 6831ION    CL-10350   6.649   1.006   1.023  0.3181  0.0049  0.0988
 6832ION    CL-10351   5.744   5.764   9.344 -0.4020  0.0052  0.0938
 6833ION    CL-10352   8.479   3.907   9.765  0.2627 -0.1412  0.1918
 6834ION    CL-10353   1.882   1.635   9.777  0.1301 -0.0264 -0.1109
 6835ION    CL-10354   5.675   7.250   1.518 -0.2535 -0.1914 -0.0299
 6836ION    CL-10355   4.494   7.606   0.805 -0.1459  0.0973  0.0460
 6837ION    CL-10356   3.333   8.915   3.573 -0.1914 -0.0585  0.1184
 6838ION    CL-10357   1.312   9.440  10.720 -0.0483  0.1839 -0.3074
 6839ION    CL-10358   4.918   6.390   1.240 -0.1994 -0.0842  0.0776
 6840ION    CL-10359   9.609   7.089   0.367  0.1734  0.2348  0.0105
 6841ION    CL-10360   7.333   6.781   9.196  0.1684  0.0262 -0.2008
 6842ION    CL-10361   5.261   0.100   9.226 -0.1428 -0.3111  0.2099
 6843ION    CL-10362   4.307   3.320   2.945 -0.1204 -0.0702  0.0955
 6844ION    CL-10363   4.070   2.456   9.889 -0.1385 -0.0560 -0.1152
 6845ION    CL-10364   2.315   2.690  10.986  0.0893 -0.0458  0.1884
 6846ION    CL-10365   7.689   0.698  10.585  0.2243 -0.0460 -0.0029
   9.66664   9.66664  12.62957
