Protein in INSANE! Membrane UpperLeaflet>POPC=1.0 LowerLeaflet>POPC=1.0
12676
    1AU     AUC    1   5.748   5.867   6.009
    1AU     AUC    2   6.012   5.861   5.855
    1AU     AUC    3   6.001   5.849   6.159
    1AU     AUC    4   5.502   5.874   5.845
    1AU     AUC    5   5.485   5.888   6.154
    1AU     AUC    6   5.607   6.130   6.012
    1AU     AUC    7   5.917   6.118   5.994
    1AU     AUC    8   5.587   5.614   6.014
    1AU     AUC    9   5.880   5.605   6.030
    1AU     AUC   10   5.732   5.715   6.269
    1AU     AUC   11   5.770   6.027   6.262
    1AU     AUC   12   5.749   5.707   5.750
    1AU     AUC   13   5.742   6.009   5.748
    1AU     AUC   14   6.261   5.852   5.687
    1AU     AUC   15   6.269   5.854   6.001
    1AU     AUC   16   6.258   5.843   6.309
    1AU     AUC   17   5.241   5.869   5.684
    1AU     AUC   18   5.229   5.894   5.990
    1AU     AUC   19   5.236   5.910   6.313
    1AU     AUC   20   5.472   6.404   6.016
    1AU     AUC   21   5.778   6.393   6.005
    1AU     AUC   22   6.071   6.378   6.006
    1AU     AUC   23   5.399   5.364   6.016
    1AU     AUC   24   5.717   5.342   6.006
    1AU     AUC   25   6.030   5.337   6.035
    1AU     AUC   26   5.705   5.558   6.519
    1AU     AUC   27   5.745   5.870   6.537
    1AU     AUC   28   5.775   6.182   6.527
    1AU     AUC   29   5.755   5.539   5.503
    1AU     AUC   30   5.758   5.857   5.487
    1AU     AUC   31   5.748   6.169   5.485
    1AU     AUC   32   6.007   5.704   6.434
    1AU     AUC   33   6.020   5.999   6.429
    1AU     AUC   34   6.017   5.697   5.590
    1AU     AUC   35   6.025   6.005   5.581
    1AU     AUC   36   5.471   5.738   6.432
    1AU     AUC   37   5.497   6.048   6.435
    1AU     AUC   38   5.499   5.712   5.573
    1AU     AUC   39   5.490   6.021   5.586
    1AU     AUC   40   6.175   6.123   5.836
    1AU     AUC   41   6.184   6.096   6.153
    1AU     AUC   42   5.339   6.138   5.856
    1AU     AUC   43   5.346   6.156   6.174
    1AU     AUC   44   6.155   5.592   5.861
    1AU     AUC   45   6.155   5.589   6.177
    1AU     AUC   46   5.321   5.622   5.840
    1AU     AUC   47   5.319   5.637   6.181
    1AU     AUC   48   5.611   6.291   6.278
    1AU     AUC   49   5.933   6.287   6.252
    1AU     AUC   50   5.556   5.448   6.262
    1AU     AUC   51   5.875   5.446   6.290
    1AU     AUC   52   5.601   6.288   5.747
    1AU     AUC   53   5.921   6.270   5.738
    1AU     AUC   54   5.571   5.466   5.747
    1AU     AUC   55   5.897   5.436   5.769
    1AU    AUSL   56   6.083   5.796   6.603
    1AU    AUSL   57   6.030   5.370   6.647
    1AU     AUL   58   6.264   5.446   6.911
    1AU       S   59   6.310   5.055   6.629
    1AU     LIG   60   6.387   4.708   6.888
    1AU     LIG   61   6.538   4.377   7.196
    1AU     LIG   62   6.707   4.069   7.518
    1AU     LIG   63   6.662   3.853   7.945
    1AU     LIG   64   6.754   3.704   8.388
    1AU     LIG   65   7.036   3.608   8.749
    1AU       S   66   6.148   5.811   7.172
    1AU     LIG   67   6.311   5.599   7.565
    1AU     LIG   68   6.592   5.370   7.897
    1AU     LIG   69   6.989   5.252   8.160
    1AU     LIG   70   7.378   5.293   8.450
    1AU     LIG   71   7.653   5.550   8.751
    1AU     LIG   72   7.871   5.621   9.157
    1AU    AUSL   73   5.801   5.646   6.874
    1AU    AUSL   74   5.691   6.049   6.796
    1AU     AUL   75   5.743   6.007   7.217
    1AU       S   76   5.869   5.631   7.020
    1AU     LIG   77   5.841   5.381   7.449
    1AU     LIG   78   6.105   5.177   7.814
    1AU     LIG   79   6.275   4.971   8.233
    1AU     LIG   80   6.281   4.737   8.676
    1AU     LIG   81   6.416   4.629   9.129
    1AU     LIG   82   6.553   4.820   9.544
    1AU       S   83   5.374   5.760   7.153
    1AU     LIG   84   5.332   5.684   7.627
    1AU     LIG   85   5.139   5.629   8.066
    1AU     LIG   86   5.054   5.796   8.509
    1AU     LIG   87   5.137   6.055   8.913
    1AU     LIG   88   5.004   6.281   9.310
    1AU     LIG   89   4.703   6.482   9.624
    1AU    AUSL   90   6.085   6.162   6.796
    1AU    AUSL   91   6.412   6.030   6.486
    1AU     AUL   92   6.378   5.881   6.793
    1AU       S   93   6.102   6.190   6.997
    1AU     LIG   94   6.173   6.536   7.311
    1AU     LIG   95   6.381   6.609   7.738
    1AU     LIG   96   6.465   6.673   8.211
    1AU     LIG   97   6.524   6.798   8.687
    1AU     LIG   98   6.646   6.862   9.165
    1AU     LIG   99   6.606   6.822   9.644
    1AU       S  100   6.698   6.091   6.532
    1AU     LIG  101   7.007   6.119   6.862
    1AU     LIG  102   7.186   6.391   7.200
    1AU     LIG  103   7.432   6.685   7.489
    1AU     LIG  104   7.736   6.790   7.855
    1AU     LIG  105   8.164   6.841   8.106
    1AU     LIG  106   8.575   6.981   8.336
    1AU    AUSL  107   6.269   5.897   5.393
    1AU    AUSL  108   6.085   6.298   5.349
    1AU     AUL  109   6.282   6.133   5.096
    1AU       S  110   6.296   5.707   4.857
    1AU     LIG  111   6.620   5.741   4.586
    1AU     LIG  112   6.794   5.526   4.221
    1AU     LIG  113   6.957   5.430   3.801
    1AU     LIG  114   7.373   5.446   3.571
    1AU     LIG  115   7.659   5.687   3.290
    1AU     LIG  116   7.837   5.751   2.844
    1AU       S  117   6.532   6.502   5.240
    1AU     LIG  118   6.766   6.613   4.890
    1AU     LIG  119   7.014   6.790   4.540
    1AU     LIG  120   7.135   6.878   4.112
    1AU     LIG  121   7.294   7.168   3.797
    1AU     LIG  122   7.529   7.551   3.693
    1AU     LIG  123   7.530   8.002   3.542
    1AU    AUSL  124   6.016   5.600   5.214
    1AU    AUSL  125   6.364   5.511   5.506
    1AU     AUL  126   6.477   5.696   5.275
    1AU       S  127   6.413   5.217   5.297
    1AU     LIG  128   6.628   4.902   5.022
    1AU     LIG  129   6.883   4.553   4.805
    1AU     LIG  130   7.118   4.339   4.440
    1AU     LIG  131   7.489   4.402   4.131
    1AU     LIG  132   7.861   4.467   3.832
    1AU     LIG  133   8.235   4.293   3.600
    1AU       S  134   6.156   5.495   4.981
    1AU     LIG  135   6.200   5.100   4.765
    1AU     LIG  136   6.169   5.032   4.281
    1AU     LIG  137   6.240   5.072   3.787
    1AU     LIG  138   6.299   5.008   3.297
    1AU     LIG  139   6.391   5.009   2.809
    1AU     LIG  140   6.621   5.000   2.368
    1AU    AUSL  141   5.858   5.961   5.401
    1AU    AUSL  142   5.616   5.712   5.159
    1AU     AUL  143   5.894   5.903   5.012
    1AU       S  144   5.297   5.776   4.869
    1AU     LIG  145   5.375   5.494   4.471
    1AU     LIG  146   5.227   5.222   4.084
    1AU     LIG  147   5.075   4.902   3.740
    1AU     LIG  148   5.002   4.755   3.281
    1AU     LIG  149   4.812   4.906   2.866
    1AU     LIG  150   4.679   5.127   2.454
    1AU       S  151   6.016   5.472   5.083
    1AU     LIG  152   5.999   5.492   4.515
    1AU     LIG  153   6.288   5.506   4.098
    1AU     LIG  154   6.446   5.528   3.622
    1AU     LIG  155   6.502   5.776   3.196
    1AU     LIG  156   6.711   6.136   2.933
    1AU     LIG  157   6.851   6.369   2.541
    1AU    AUSL  158   5.299   5.937   6.730
    1AU    AUSL  159   5.447   6.346   6.639
    1AU     AUL  160   5.499   6.258   6.933
    1AU       S  161   5.220   5.951   7.160
    1AU     LIG  162   4.905   5.653   7.355
    1AU     LIG  163   4.757   5.449   7.767
    1AU     LIG  164   4.521   5.336   8.186
    1AU     LIG  165   4.190   5.298   8.557
    1AU     LIG  166   3.980   5.455   8.975
    1AU     LIG  167   3.628   5.746   9.166
    1AU       S  168   5.055   6.341   6.850
    1AU     LIG  169   5.024   6.514   7.292
    1AU     LIG  170   4.890   6.796   7.672
    1AU     LIG  171   4.794   6.945   8.126
    1AU     LIG  172   4.763   7.283   8.467
    1AU     LIG  173   4.569   7.656   8.704
    1AU     LIG  174   4.318   8.067   8.785
    1AU    AUSL  175   5.597   5.730   6.529
    1AU    AUSL  176   5.071   5.671   6.506
    1AU     AUL  177   5.104   5.779   6.747
    1AU       S  178   4.895   5.351   6.715
    1AU     LIG  179   4.470   5.130   6.593
    1AU     LIG  180   4.084   4.901   6.749
    1AU     LIG  181   3.887   4.630   7.072
    1AU     LIG  182   3.713   4.331   7.386
    1AU     LIG  183   3.446   4.145   7.717
    1AU     LIG  184   3.150   4.265   8.076
    1AU       S  185   5.392   5.643   7.096
    1AU     LIG  186   5.305   5.274   7.325
    1AU     LIG  187   5.206   5.189   7.773
    1AU     LIG  188   5.002   5.132   8.198
    1AU     LIG  189   4.867   4.889   8.593
    1AU     LIG  190   4.839   4.741   9.048
    1AU     LIG  191   4.728   4.893   9.473
    1AU    AUSL  192   5.339   5.838   5.438
    1AU    AUSL  193   5.511   5.423   5.436
    1AU     AUL  194   5.484   5.454   5.125
    1AU       S  195   5.090   5.680   5.079
    1AU     LIG  196   4.924   5.455   4.725
    1AU     LIG  197   4.798   5.434   4.266
    1AU     LIG  198   4.661   5.245   3.835
    1AU     LIG  199   4.305   5.126   3.501
    1AU     LIG  200   3.996   5.185   3.123
    1AU     LIG  201   3.826   5.525   2.822
    1AU       S  202   5.074   5.170   5.217
    1AU     LIG  203   4.927   4.723   5.253
    1AU     LIG  204   4.519   4.504   5.126
    1AU     LIG  205   4.220   4.318   4.782
    1AU     LIG  206   4.187   4.121   4.336
    1AU     LIG  207   4.304   3.835   3.947
    1AU     LIG  208   4.152   3.511   3.623
    1AU    AUSL  209   5.552   6.143   5.182
    1AU    AUSL  210   5.106   6.181   5.473
    1AU     AUL  211   5.195   6.098   5.208
    1AU       S  212   4.953   6.490   5.276
    1AU     LIG  213   4.684   6.695   4.947
    1AU     LIG  214   4.541   6.688   4.478
    1AU     LIG  215   4.433   6.860   4.046
    1AU     LIG  216   4.112   7.013   3.743
    1AU     LIG  217   3.667   7.147   3.736
    1AU     LIG  218   3.444   7.527   3.596
    1AU       S  219   5.444   5.901   4.877
    1AU     LIG  220   5.168   5.959   4.443
    1AU     LIG  221   5.128   5.751   4.016
    1AU     LIG  222   5.091   5.845   3.545
    1AU     LIG  223   5.180   6.075   3.125
    1AU     LIG  224   5.124   6.231   2.672
    1AU     LIG  225   4.888   6.303   2.264
    1AU    AUSL  226   6.384   6.476   5.955
    1AU    AUSL  227   6.419   6.221   5.608
    1AU     AUL  228   6.503   6.674   5.725
    1AU       S  229   6.652   6.214   5.388
    1AU     LIG  230   6.934   6.149   5.045
    1AU     LIG  231   7.193   6.334   4.695
    1AU     LIG  232   7.474   6.565   4.380
    1AU     LIG  233   7.905   6.564   4.155
    1AU     LIG  234   8.279   6.807   3.989
    1AU     LIG  235   8.451   7.030   3.591
    1AU       S  236   6.829   6.361   5.877
    1AU     LIG  237   7.288   6.469   6.007
    1AU     LIG  238   7.794   6.538   6.023
    1AU     LIG  239   8.288   6.614   5.993
    1AU     LIG  240   8.677   6.942   6.007
    1AU     LIG  241   8.977   7.349   6.021
    1AU     LIG  242   9.224   7.752   6.171
    1AU    AUSL  243   6.603   5.884   5.751
    1AU    AUSL  244   6.585   5.729   6.169
    1AU     AUL  245   6.867   5.659   5.946
    1AU       S  246   6.824   6.110   5.838
    1AU     LIG  247   7.251   6.123   5.642
    1AU     LIG  248   7.756   6.125   5.721
    1AU     LIG  249   8.266   6.154   5.698
    1AU     LIG  250   8.759   6.078   5.660
    1AU     LIG  251   9.201   6.279   5.656
    1AU     LIG  252   9.568   6.578   5.490
    1AU       S  253   6.872   5.246   6.201
    1AU     LIG  254   7.072   4.856   6.293
    1AU     LIG  255   7.532   4.695   6.294
    1AU     LIG  256   8.009   4.583   6.252
    1AU     LIG  257   8.466   4.425   6.243
    1AU     LIG  258   8.864   4.338   6.474
    1AU     LIG  259   9.193   4.417   6.817
    1AU    AUSL  260   6.385   6.075   6.073
    1AU    AUSL  261   6.280   6.406   6.356
    1AU     AUL  262   6.527   6.411   6.229
    1AU       S  263   6.580   6.295   6.659
    1AU     LIG  264   6.921   6.618   6.770
    1AU     LIG  265   7.152   6.895   7.095
    1AU     LIG  266   7.468   7.208   7.294
    1AU     LIG  267   7.695   7.657   7.290
    1AU     LIG  268   7.885   8.111   7.369
    1AU     LIG  269   8.111   8.480   7.591
    1AU       S  270   6.844   6.130   6.070
    1AU     LIG  271   7.180   6.098   6.343
    1AU     LIG  272   7.649   6.093   6.240
    1AU     LIG  273   8.136   6.144   6.188
    1AU     LIG  274   8.629   6.198   6.139
    1AU     LIG  275   9.116   6.313   6.173
    1AU     LIG  276   9.470   6.567   6.404
    1AU    AUSL  277   5.095   6.441   6.094
    1AU    AUSL  278   5.145   6.158   6.418
    1AU     AUL  279   5.112   6.619   6.348
    1AU       S  280   4.944   6.237   6.612
    1AU     LIG  281   4.637   6.227   7.042
    1AU     LIG  282   4.519   6.543   7.406
    1AU     LIG  283   4.390   6.700   7.867
    1AU     LIG  284   4.048   6.815   8.221
    1AU     LIG  285   3.606   7.027   8.334
    1AU     LIG  286   3.233   7.256   8.543
    1AU       S  287   4.723   6.472   6.161
    1AU     LIG  288   4.576   6.929   6.013
    1AU     LIG  289   4.353   7.389   6.047
    1AU     LIG  290   4.032   7.764   6.158
    1AU     LIG  291   3.562   7.917   6.077
    1AU     LIG  292   3.118   8.139   6.124
    1AU     LIG  293   2.713   8.163   6.417
    1AU    AUSL  294   5.176   6.103   5.868
    1AU    AUSL  295   5.269   6.522   5.720
    1AU     AUL  296   4.996   6.439   5.749
    1AU       S  297   4.603   6.395   5.997
    1AU     LIG  298   4.399   6.639   5.611
    1AU     LIG  299   4.006   6.814   5.368
    1AU     LIG  300   3.508   6.819   5.282
    1AU     LIG  301   3.038   6.944   5.192
    1AU     LIG  302   2.582   6.747   5.198
    1AU     LIG  303   2.116   6.891   5.113
    1AU       S  304   5.092   6.715   5.378
    1AU     LIG  305   5.062   7.035   5.059
    1AU     LIG  306   4.934   7.409   4.812
    1AU     LIG  307   4.568   7.677   4.803
    1AU     LIG  308   4.451   8.084   4.605
    1AU     LIG  309   4.230   8.434   4.393
    1AU     LIG  310   3.855   8.726   4.336
    1AU    AUSL  311   4.876   6.019   6.149
    1AU    AUSL  312   4.936   5.780   5.782
    1AU     AUL  313   4.773   6.038   5.771
    1AU       S  314   4.575   5.582   5.910
    1AU     LIG  315   4.235   5.487   6.267
    1AU     LIG  316   3.745   5.403   6.254
    1AU     LIG  317   3.299   5.245   6.130
    1AU     LIG  318   2.885   5.047   5.900
    1AU     LIG  319   2.390   4.977   5.912
    1AU     LIG  320   1.986   4.918   5.648
    1AU       S  321   4.682   6.076   6.242
    1AU     LIG  322   4.460   6.355   6.571
    1AU     LIG  323   4.050   6.547   6.745
    1AU     LIG  324   3.572   6.676   6.777
    1AU     LIG  325   3.104   6.818   6.821
    1AU     LIG  326   2.687   7.038   6.888
    1AU     LIG  327   2.258   6.885   6.793
    1AU    AUSL  328   6.430   5.338   6.081
    1AU    AUSL  329   6.378   5.542   6.470
    1AU     AUL  330   6.679   5.594   6.429
    1AU       S  331   6.581   5.068   6.048
    1AU     LIG  332   6.738   4.684   5.912
    1AU     LIG  333   7.185   4.490   5.940
    1AU     LIG  334   7.652   4.323   5.951
    1AU     LIG  335   8.111   4.148   5.972
    1AU     LIG  336   8.489   3.910   6.166
    1AU     LIG  337   8.853   3.821   6.504
    1AU       S  338   6.390   5.228   6.532
    1AU     LIG  339   6.790   4.992   6.703
    1AU     LIG  340   6.940   4.643   7.013
    1AU     LIG  341   7.113   4.379   7.394
    1AU     LIG  342   7.423   4.252   7.762
    1AU     LIG  343   7.781   4.233   8.115
    1AU     LIG  344   8.198   4.229   8.373
    1AU    AUSL  345   6.281   5.672   5.876
    1AU    AUSL  346   6.201   5.210   5.760
    1AU     AUL  347   6.546   5.407   5.709
    1AU       S  348   6.640   5.241   6.113
    1AU     LIG  349   7.078   5.037   5.814
    1AU     LIG  350   7.544   4.833   5.793
    1AU     LIG  351   8.005   4.641   5.744
    1AU     LIG  352   8.450   4.443   5.717
    1AU     LIG  353   8.853   4.425   5.477
    1AU     LIG  354   9.233   4.670   5.528
    1AU       S  355   6.421   4.997   5.515
    1AU     LIG  356   6.545   4.572   5.416
    1AU     LIG  357   6.651   4.205   5.113
    1AU     LIG  358   6.859   3.808   4.908
    1AU     LIG  359   7.073   3.346   4.877
    1AU     LIG  360   7.493   3.119   4.772
    1AU     LIG  361   7.973   3.119   4.659
    1AU    AUSL  362   5.016   5.391   5.962
    1AU    AUSL  363   5.119   5.505   5.539
    1AU     AUL  364   4.845   5.618   5.523
    1AU       S  365   4.988   5.182   5.482
    1AU     LIG  366   4.548   5.057   5.364
    1AU     LIG  367   4.171   4.892   5.128
    1AU     LIG  368   3.862   4.678   4.864
    1AU     LIG  369   3.734   4.407   4.519
    1AU     LIG  370   3.393   4.408   4.195
    1AU     LIG  371   3.126   4.404   3.802
    1AU       S  372   4.730   5.370   5.896
    1AU     LIG  373   4.412   5.080   6.013
    1AU     LIG  374   4.040   4.989   6.248
    1AU     LIG  375   3.586   4.852   6.292
    1AU     LIG  376   3.118   4.711   6.217
    1AU     LIG  377   2.711   4.448   6.099
    1AU     LIG  378   2.501   4.036   5.962
    1AU    AUSL  379   5.186   5.750   6.127
    1AU    AUSL  380   5.262   5.355   6.303
    1AU     AUL  381   4.891   5.546   6.291
    1AU       S  382   4.980   5.167   6.529
    1AU     LIG  383   4.785   4.849   6.299
    1AU     LIG  384   4.381   4.630   6.416
    1AU     LIG  385   4.089   4.352   6.693
    1AU     LIG  386   3.837   4.040   6.984
    1AU     LIG  387   3.616   3.729   7.297
    1AU     LIG  388   3.470   3.263   7.383
    1AU       S  389   4.611   5.651   5.956
    1AU     LIG  390   4.095   5.585   5.796
    1AU     LIG  391   3.580   5.599   5.801
    1AU     LIG  392   3.089   5.531   5.774
    1AU     LIG  393   2.833   5.457   6.175
    1AU     LIG  394   2.377   5.331   6.307
    1AU     LIG  395   1.946   5.216   6.501
    1AU    AUSL  396   5.802   6.543   6.542
    1AU    AUSL  397   5.473   6.336   6.226
    1AU     AUL  398   5.504   6.633   6.623
    1AU       S  399   5.104   6.457   6.769
    1AU     LIG  400   4.740   6.728   6.923
    1AU     LIG  401   4.687   7.076   7.266
    1AU     LIG  402   4.676   7.568   7.409
    1AU     LIG  403   4.590   8.070   7.431
    1AU     LIG  404   4.306   8.462   7.502
    1AU     LIG  405   3.864   8.569   7.644
    1AU       S  406   5.869   6.928   6.514
    1AU     LIG  407   6.021   7.131   6.878
    1AU     LIG  408   6.061   7.563   7.041
    1AU     LIG  409   6.105   7.884   7.393
    1AU     LIG  410   6.083   8.153   7.796
    1AU     LIG  411   5.926   8.490   8.103
    1AU     LIG  412   5.861   8.947   8.222
    1AU    AUSL  413   5.557   6.732   6.183
    1AU    AUSL  414   6.016   6.698   5.763
    1AU     AUL  415   5.695   6.972   5.940
    1AU       S  416   5.716   7.005   6.396
    1AU     LIG  417   5.808   7.449   6.538
    1AU     LIG  418   5.743   7.870   6.742
    1AU     LIG  419   5.498   8.273   6.822
    1AU     LIG  420   5.378   8.738   6.894
    1AU     LIG  421   5.305   9.219   6.997
    1AU     LIG  422   5.167   9.658   7.131
    1AU       S  423   6.084   6.975   5.662
    1AU     LIG  424   6.325   7.347   5.593
    1AU     LIG  425   6.436   7.750   5.346
    1AU     LIG  426   6.746   8.142   5.264
    1AU     LIG  427   6.857   8.618   5.255
    1AU     LIG  428   6.887   9.099   5.197
    1AU     LIG  429   6.880   9.574   5.121
    1AU    AUSL  430   5.960   6.570   6.156
    1AU    AUSL  431   5.939   6.179   6.418
    1AU     AUL  432   6.132   6.558   6.565
    1AU       S  433   6.507   6.332   6.751
    1AU     LIG  434   6.661   6.425   7.172
    1AU     LIG  435   6.888   6.688   7.514
    1AU     LIG  436   7.152   6.883   7.880
    1AU     LIG  437   7.245   7.122   8.297
    1AU     LIG  438   7.288   7.531   8.565
    1AU     LIG  439   7.439   7.871   8.878
    1AU       S  440   6.048   6.863   6.226
    1AU     LIG  441   6.260   7.233   6.412
    1AU     LIG  442   6.341   7.687   6.609
    1AU     LIG  443   6.645   8.108   6.669
    1AU     LIG  444   6.787   8.591   6.752
    1AU     LIG  445   6.652   9.059   6.742
    1AU     LIG  446   6.691   9.542   6.816
    1AU    AUSL  447   5.689   5.292   6.426
    1AU    AUSL  448   6.055   5.413   6.231
    1AU     AUL  449   5.872   5.166   6.684
    1AU       S  450   5.753   4.746   6.546
    1AU     LIG  451   5.675   4.371   6.801
    1AU     LIG  452   5.371   4.035   6.858
    1AU     LIG  453   5.312   3.580   6.894
    1AU     LIG  454   5.334   3.239   7.227
    1AU     LIG  455   5.381   3.059   7.677
    1AU     LIG  456   5.488   2.764   8.039
    1AU       S  457   6.328   5.056   6.450
    1AU     LIG  458   6.534   4.673   6.387
    1AU     LIG  459   6.696   4.334   6.682
    1AU     LIG  460   6.921   4.068   7.027
    1AU     LIG  461   7.200   3.745   7.282
    1AU     LIG  462   7.513   3.344   7.354
    1AU     LIG  463   7.900   3.037   7.398
    1AU    AUSL  464   5.502   5.059   6.142
    1AU    AUSL  465   5.404   5.416   6.701
    1AU     AUL  466   5.425   5.078   6.504
    1AU       S  467   5.587   4.661   6.405
    1AU     LIG  468   5.374   4.270   6.377
    1AU     LIG  469   5.226   3.816   6.414
    1AU     LIG  470   4.983   3.424   6.510
    1AU     LIG  471   4.729   3.025   6.532
    1AU     LIG  472   4.626   2.645   6.771
    1AU     LIG  473   4.660   2.204   6.863
    1AU       S  474   5.142   5.293   6.796
    1AU     LIG  475   4.843   4.893   6.913
    1AU     LIG  476   4.456   4.614   6.959
    1AU     LIG  477   4.231   4.274   7.214
    1AU     LIG  478   4.037   3.950   7.510
    1AU     LIG  479   4.018   3.693   7.917
    1AU     LIG  480   4.041   3.627   8.390
    1AU    AUSL  481   5.947   5.017   6.203
    1AU    AUSL  482   5.465   5.062   5.726
    1AU     AUL  483   5.639   4.818   5.982
    1AU       S  484   5.389   4.707   5.591
    1AU     LIG  485   5.132   4.356   5.566
    1AU     LIG  486   5.067   3.882   5.519
    1AU     LIG  487   5.074   3.405   5.448
    1AU     LIG  488   4.821   2.987   5.393
    1AU     LIG  489   4.690   2.524   5.295
    1AU     LIG  490   4.708   2.170   4.974
    1AU       S  491   5.901   4.825   6.356
    1AU     LIG  492   5.953   4.324   6.359
    1AU     LIG  493   5.733   3.913   6.503
    1AU     LIG  494   5.675   3.431   6.535
    1AU     LIG  495   5.912   2.985   6.523
    1AU     LIG  496   6.091   2.568   6.704
    1AU     LIG  497   6.282   2.188   6.914
    1AU    AUSL  498   5.751   6.522   5.446
    1AU    AUSL  499   6.057   6.289   5.784
    1AU     AUL  500   6.121   6.561   5.454
    1AU       S  501   5.813   6.873   5.301
    1AU     LIG  502   6.151   7.090   5.079
    1AU     LIG  503   6.164   7.514   4.866
    1AU     LIG  504   6.087   7.764   4.447
    1AU     LIG  505   6.008   8.100   4.101
    1AU     LIG  506   5.992   8.554   3.936
    1AU     LIG  507   6.067   8.892   3.599
    1AU       S  508   6.533   6.291   5.485
    1AU     LIG  509   7.019   6.527   5.378
    1AU     LIG  510   7.251   6.751   5.009
    1AU     LIG  511   7.418   7.110   4.723
    1AU     LIG  512   7.632   7.565   4.697
    1AU     LIG  513   7.823   8.009   4.591
    1AU     LIG  514   7.823   8.416   4.328
    1AU    AUSL  515   5.658   6.503   5.856
    1AU    AUSL  516   5.515   6.217   5.580
    1AU     AUL  517   5.499   6.701   5.607
    1AU       S  518   5.892   6.967   5.531
    1AU     LIG  519   5.882   7.419   5.352
    1AU     LIG  520   5.934   7.882   5.178
    1AU     LIG  521   5.799   8.358   5.082
    1AU     LIG  522   5.481   8.750   4.999
    1AU     LIG  523   5.408   9.230   4.852
    1AU     LIG  524   4.967   9.405   4.753
    1AU       S  525   5.305   6.550   5.220
    1AU     LIG  526   5.167   6.619   4.790
    1AU     LIG  527   4.972   6.956   4.503
    1AU     LIG  528   4.927   7.017   4.015
    1AU     LIG  529   4.930   7.327   3.639
    1AU     LIG  530   4.622   7.648   3.451
    1AU     LIG  531   4.275   7.882   3.197
    1AU    AUSL  532   5.821   5.156   5.469
    1AU    AUSL  533   5.405   5.447   5.845
    1AU     AUL  534   5.454   5.144   5.467
    1AU       S  535   5.015   5.057   5.632
    1AU     LIG  536   4.727   4.768   5.748
    1AU     LIG  537   4.293   4.649   5.578
    1AU     LIG  538   4.018   4.394   5.264
    1AU     LIG  539   3.741   4.112   4.971
    1AU     LIG  540   3.451   3.697   4.907
    1AU     LIG  541   3.262   3.342   4.646
    1AU       S  542   5.723   4.794   5.364
    1AU     LIG  543   5.411   4.569   5.111
    1AU     LIG  544   5.272   4.132   5.116
    1AU     LIG  545   5.277   3.671   5.054
    1AU     LIG  546   5.380   3.295   4.798
    1AU     LIG  547   5.372   3.113   4.346
    1AU     LIG  548   5.460   2.842   3.964
    1AU    AUSL  549   5.809   5.238   5.888
    1AU    AUSL  550   5.946   5.519   5.603
    1AU     AUL  551   5.991   5.001   5.695
    1AU       S  552   5.647   4.719   5.543
    1AU     LIG  553   5.644   4.270   5.471
    1AU     LIG  554   5.571   3.806   5.449
    1AU     LIG  555   5.626   3.341   5.341
    1AU     LIG  556   5.966   2.975   5.403
    1AU     LIG  557   6.276   2.609   5.323
    1AU     LIG  558   6.493   2.218   5.117
    1AU       S  559   6.239   5.108   5.293
    1AU     LIG  560   6.158   4.713   5.107
    1AU     LIG  561   6.369   4.488   4.775
    1AU     LIG  562   6.632   4.159   4.561
    1AU     LIG  563   6.748   3.939   4.157
    1AU     LIG  564   6.931   3.727   3.781
    1AU     LIG  565   7.226   3.571   3.461
    2POPC   NC3  566   1.437   2.504   7.911
    2POPC   PO4  567   1.148   3.073   8.151
    2POPC   GL1  568   1.246   2.983   7.727
    2POPC   GL2  569   0.910   2.839   7.695
    2POPC   C1A  570   1.276   2.725   7.321
    2POPC   D2A  571   1.476   2.689   6.941
    2POPC   C3A  572   1.358   2.750   6.539
    2POPC   C4A  573   1.659   2.979   6.303
    2POPC   C1B  574   0.895   3.061   7.297
    2POPC   C2B  575   1.020   3.029   6.865
    2POPC   C3B  576   0.864   2.875   6.469
    2POPC   C4B  577   1.117   2.772   6.079
    3POPC   NC3  578   2.753   1.964   8.105
    3POPC   PO4  579   3.232   2.322   7.726
    3POPC   GL1  580   3.003   1.928   7.620
    3POPC   GL2  581   2.676   1.759   7.644
    3POPC   C1A  582   2.998   1.891   7.218
    3POPC   D2A  583   3.024   2.057   6.837
    3POPC   C3A  584   3.036   1.864   6.491
    3POPC   C4A  585   3.065   1.953   6.105
    3POPC   C1B  586   2.506   2.006   7.320
    3POPC   C2B  587   2.518   2.123   6.893
    3POPC   C3B  588   2.526   2.024   6.465
    3POPC   C4B  589   2.607   2.136   6.016
    4POPC   NC3  590   8.540   5.211   8.175
    4POPC   PO4  591   9.028   5.465   8.258
    4POPC   GL1  592   8.926   5.281   7.816
    4POPC   GL2  593   8.958   4.922   7.681
    4POPC   C1A  594   8.954   5.295   7.319
    4POPC   D2A  595   9.188   5.205   6.894
    4POPC   C3A  596   9.036   5.252   6.432
    4POPC   C4A  597   8.759   5.274   6.052
    4POPC   C1B  598   8.999   4.794   7.193
    4POPC   C2B  599   8.880   4.824   6.725
    4POPC   C3B  600   8.828   4.806   6.275
    4POPC   C4B  601   8.913   4.499   5.974
    5POPC   NC3  602   1.401   0.506   8.106
    5POPC   PO4  603   0.842   0.819   7.981
    5POPC   GL1  604   0.982   0.419   7.742
    5POPC   GL2  605   1.240   0.145   7.783
    5POPC   C1A  606   0.907   0.301   7.304
    5POPC   D2A  607   0.821   0.501   6.904
    5POPC   C3A  608   0.844   0.185   6.596
    5POPC   C4A  609   0.864  11.485   6.229
    5POPC   C1B  610   1.419   0.371   7.415
    5POPC   C2B  611   1.337   0.534   6.977
    5POPC   C3B  612   1.223   0.516   6.532
    5POPC   C4B  613   1.282   0.263   6.175
    6POPC   NC3  614   7.694   2.570   8.022
    6POPC   PO4  615   7.608   3.181   8.010
    6POPC   GL1  616   7.474   2.890   7.653
    6POPC   GL2  617   7.130   2.756   7.659
    6POPC   C1A  618   7.469   2.819   7.183
    6POPC   D2A  619   7.345   2.879   6.723
    6POPC   C3A  620   7.589   2.776   6.327
    6POPC   C4A  621   7.644   2.911   5.877
    6POPC   C1B  622   7.182   2.430   7.356
    6POPC   C2B  623   7.196   2.402   6.905
    6POPC   C3B  624   7.103   2.505   6.459
    6POPC   C4B  625   7.267   2.478   6.048
    7POPC   NC3  626   2.107   5.670   8.144
    7POPC   PO4  627   1.637   6.106   8.057
    7POPC   GL1  628   1.659   5.950   7.674
    7POPC   GL2  629   2.015   5.922   7.660
    7POPC   C1A  630   1.647   6.127   7.257
    7POPC   D2A  631   1.849   6.025   6.886
    7POPC   C3A  632   1.683   6.054   6.463
    7POPC   C4A  633   1.716   5.686   6.229
    7POPC   C1B  634   1.850   5.656   7.314
    7POPC   C2B  635   1.989   5.530   6.914
    7POPC   C3B  636   2.097   5.737   6.537
    7POPC   C4B  637   2.182   5.761   6.070
    8POPC   NC3  638   0.401   5.475   8.158
    8POPC   PO4  639   0.037   4.973   8.125
    8POPC   GL1  640   0.238   4.987   7.794
    8POPC   GL2  641   0.557   5.064   7.859
    8POPC   C1A  642   0.114   4.832   7.379
    8POPC   D2A  643   0.182   4.635   6.970
    8POPC   C3A  644   0.007   4.780   6.597
    8POPC   C4A  645   0.210   4.860   6.237
    8POPC   C1B  646   0.558   5.139   7.440
    8POPC   C2B  647   0.500   5.026   7.028
    8POPC   C3B  648   0.448   5.151   6.571
    8POPC   C4B  649   0.623   5.152   6.146
    9POPC   NC3  650  11.196   5.284   8.136
    9POPC   PO4  651  11.097   4.633   8.346
    9POPC   GL1  652  11.136   4.776   7.851
    9POPC   GL2  653  11.260   5.099   7.691
    9POPC   C1A  654  11.059   4.792   7.376
    9POPC   D2A  655  11.049   5.074   6.984
    9POPC   C3A  656  10.979   4.910   6.581
    9POPC   C4A  657  11.087   4.819   6.181
    9POPC   C1B  658  11.379   5.283   7.312
    9POPC   C2B  659   0.048   5.194   6.887
    9POPC   C3B  660  11.411   5.262   6.408
    9POPC   C4B  661  11.179   5.291   5.978
   10POPC   NC3  662  11.329   8.219   8.126
   10POPC   PO4  663  10.675   8.378   8.074
   10POPC   GL1  664  10.917   8.256   7.677
   10POPC   GL2  665  11.276   8.240   7.621
   10POPC   C1A  666  10.991   8.275   7.204
   10POPC   D2A  667  10.915   8.482   6.843
   10POPC   C3A  668  11.042   8.200   6.589
   10POPC   C4A  669  10.994   8.043   6.202
   10POPC   C1B  670  11.383   7.945   7.292
   10POPC   C2B  671  11.462   8.100   6.891
   10POPC   C3B  672  11.476   7.986   6.475
   10POPC   C4B  673  11.414   8.307   6.183
   11POPC   NC3  674   3.543   2.429   8.053
   11POPC   PO4  675   4.192   2.541   8.300
   11POPC   GL1  676   3.960   2.518   7.802
   11POPC   GL2  677   3.611   2.741   7.650
   11POPC   C1A  678   3.832   2.406   7.362
   11POPC   D2A  679   3.667   2.659   7.081
   11POPC   C3A  680   3.781   2.540   6.695
   11POPC   C4A  681   3.732   2.802   6.372
   11POPC   C1B  682   3.222   2.804   7.308
   11POPC   C2B  683   3.068   2.945   6.887
   11POPC   C3B  684   3.194   2.842   6.448
   11POPC   C4B  685   3.405   3.159   6.188
   12POPC   NC3  686   4.786   7.968   8.053
   12POPC   PO4  687   5.158   7.564   7.965
   12POPC   GL1  688   5.055   7.879   7.608
   12POPC   GL2  689   5.090   8.228   7.716
   12POPC   C1A  690   4.977   7.895   7.128
   12POPC   D2A  691   5.135   7.906   6.685
   12POPC   C3A  692   4.796   7.968   6.360
   12POPC   C4A  693   4.423   8.107   6.095
   12POPC   C1B  694   5.195   8.323   7.267
   12POPC   C2B  695   4.998   8.389   6.837
   12POPC   C3B  696   5.180   8.325   6.392
   12POPC   C4B  697   5.252   7.955   6.111
   13POPC   NC3  698   8.498   0.970   7.966
   13POPC   PO4  699   7.790   0.986   8.159
   13POPC   GL1  700   8.020   1.121   7.770
   13POPC   GL2  701   7.815   1.363   7.557
   13POPC   C1A  702   8.101   0.918   7.361
   13POPC   D2A  703   7.957   1.042   6.927
   13POPC   C3A  704   8.243   0.960   6.583
   13POPC   C4A  705   8.286   1.099   6.160
   13POPC   C1B  706   8.170   1.418   7.257
   13POPC   C2B  707   8.250   1.446   6.800
   13POPC   C3B  708   7.945   1.355   6.455
   13POPC   C4B  709   7.761   1.647   6.161
   14POPC   NC3  710   1.126   9.578   8.104
   14POPC   PO4  711   0.861  10.194   8.116
   14POPC   GL1  712   1.040   9.933   7.744
   14POPC   GL2  713   1.410   9.856   7.749
   14POPC   C1A  714   0.879   9.923   7.325
   14POPC   D2A  715   1.139   9.928   6.956
   14POPC   C3A  716   1.101   9.639   6.602
   14POPC   C4A  717   1.154   9.864   6.228
   14POPC   C1B  718   1.318   9.652   7.364
   14POPC   C2B  719   1.504   9.533   6.968
   14POPC   C3B  720   1.617   9.641   6.576
   14POPC   C4B  721   1.493   9.484   6.190
   15POPC   NC3  722   1.270  10.565   8.180
   15POPC   PO4  723   0.730  10.702   7.825
   15POPC   GL1  724   0.970  10.428   7.646
   15POPC   GL2  725   1.339  10.392   7.691
   15POPC   C1A  726   1.064  10.391   7.236
   15POPC   D2A  727   1.327  10.481   6.915
   15POPC   C3A  728   1.154  10.284   6.557
   15POPC   C4A  729   0.919  10.320   6.190
   15POPC   C1B  730   1.533  10.191   7.309
   15POPC   C2B  731   1.621  10.053   6.866
   15POPC   C3B  732   1.622  10.123   6.397
   15POPC   C4B  733   1.408  10.340   6.078
   16POPC   NC3  734   3.613   9.376   8.264
   16POPC   PO4  735   3.076   9.220   7.976
   16POPC   GL1  736   3.448   9.471   7.768
   16POPC   GL2  737   3.668   9.781   7.819
   16POPC   C1A  738   3.474   9.571   7.321
   16POPC   D2A  739   3.339   9.740   6.909
   16POPC   C3A  740   3.313   9.555   6.464
   16POPC   C4A  741   3.198   9.535   6.021
   16POPC   C1B  742   3.735  10.003   7.384
   16POPC   C2B  743   3.830   9.957   6.909
   16POPC   C3B  744   3.797   9.735   6.475
   16POPC   C4B  745   3.669   9.736   6.013
   17POPC   NC3  746  10.452   1.280   8.285
   17POPC   PO4  747  10.390   1.841   7.980
   17POPC   GL1  748  10.317   1.539   7.662
   17POPC   GL2  749  10.437   1.198   7.734
   17POPC   C1A  750  10.542   1.415   7.268
   17POPC   D2A  751  10.667   1.227   6.884
   17POPC   C3A  752  10.625   1.561   6.622
   17POPC   C4A  753  10.530   1.575   6.217
   17POPC   C1B  754  10.104   1.164   7.386
   17POPC   C2B  755  10.180   1.062   6.966
   17POPC   C3B  756  10.230   1.220   6.540
   17POPC   C4B  757  10.243   1.075   6.087
   18POPC   NC3  758   3.824  11.341   8.166
   18POPC   PO4  759   3.281   0.053   7.844
   18POPC   GL1  760   3.637  11.393   7.684
   18POPC   GL2  761   3.565  11.047   7.687
   18POPC   C1A  762   3.764  11.340   7.276
   18POPC   D2A  763   3.716  11.036   6.954
   18POPC   C3A  764   3.688  11.190   6.574
   18POPC   C4A  765   3.740   0.015   6.293
   18POPC   C1B  766   3.298  11.068   7.292
   18POPC   C2B  767   3.228  10.922   6.850
   18POPC   C3B  768   3.273  10.982   6.395
   18POPC   C4B  769   3.598  11.000   6.075
   19POPC   NC3  770  11.307   6.277   8.089
   19POPC   PO4  771  11.205   6.905   7.889
   19POPC   GL1  772  11.225   6.726   7.557
   19POPC   GL2  773  11.286   6.372   7.602
   19POPC   C1A  774  11.112   6.858   7.168
   19POPC   D2A  775  11.100   7.012   6.757
   19POPC   C3A  776  11.211   6.804   6.320
   19POPC   C4A  777  10.895   6.944   5.941
   19POPC   C1B  778  11.196   6.352   7.190
   19POPC   C2B  779  11.047   6.503   6.805
   19POPC   C3B  780  11.069   6.311   6.441
   19POPC   C4B  781  11.476   6.229   6.263
   20POPC   NC3  782  10.403   0.294   8.447
   20POPC   PO4  783  10.916   0.157   8.077
   20POPC   GL1  784  10.689   0.293   7.694
   20POPC   GL2  785  10.305   0.361   7.710
   20POPC   C1A  786  10.521   0.254   7.248
   20POPC   D2A  787  10.469   0.006   6.888
   20POPC   C3A  788  10.546   0.255   6.536
   20POPC   C4A  789  10.684   0.183   6.121
   20POPC   C1B  790  10.356   0.709   7.361
   20POPC   C2B  791  10.494   0.665   6.902
   20POPC   C3B  792  10.274   0.705   6.497
   20POPC   C4B  793  10.218   0.422   6.178
   21POPC   NC3  794   6.967   1.067   7.965
   21POPC   PO4  795   6.285   1.133   8.056
   21POPC   GL1  796   6.520   0.936   7.707
   21POPC   GL2  797   6.289   0.751   7.502
   21POPC   C1A  798   6.836   1.001   7.347
   21POPC   D2A  799   6.795   1.230   6.983
   21POPC   C3A  800   6.597   0.996   6.686
   21POPC   C4A  801   6.555   1.237   6.343
   21POPC   C1B  802   6.337   1.140   7.245
   21POPC   C2B  803   6.298   1.465   6.906
   21POPC   C3B  804   6.363   1.688   6.491
   21POPC   C4B  805   6.209   1.507   6.101
   22POPC   NC3  806   9.054  11.026   8.115
   22POPC   PO4  807   9.301  10.503   7.889
   22POPC   GL1  808   9.073  10.836   7.639
   22POPC   GL2  809   8.994  11.236   7.663
   22POPC   C1A  810   8.915  10.903   7.231
   22POPC   D2A  811   8.643  10.772   6.902
   22POPC   C3A  812   8.685  10.987   6.529
   22POPC   C4A  813   8.988  10.986   6.266
   22POPC   C1B  814   8.639  11.312   7.377
   22POPC   C2B  815   8.748  11.308   6.937
   22POPC   C3B  816   8.665   0.007   6.534
   22POPC   C4B  817   8.747  11.431   6.103
   23POPC   NC3  818   0.485   1.090   7.850
   23POPC   PO4  819   0.817   1.608   7.972
   23POPC   GL1  820   0.682   1.492   7.596
   23POPC   GL2  821   0.293   1.504   7.637
   23POPC   C1A  822   0.583   1.569   7.180
   23POPC   D2A  823   0.492   1.321   6.831
   23POPC   C3A  824   0.479   1.596   6.493
   23POPC   C4A  825   0.288   1.541   6.096
   23POPC   C1B  826   0.144   1.265   7.275
   23POPC   C2B  827  11.466   1.093   6.921
   23POPC   C3B  828   0.079   1.235   6.511
   23POPC   C4B  829   0.466   1.071   6.315
   24POPC   NC3  830   4.244   8.605   8.188
   24POPC   PO4  831   4.056   9.217   8.175
   24POPC   GL1  832   4.056   9.020   7.795
   24POPC   GL2  833   4.376   8.936   7.727
   24POPC   C1A  834   4.038   8.941   7.331
   24POPC   D2A  835   4.161   8.614   7.019
   24POPC   C3A  836   4.114   8.706   6.557
   24POPC   C4A  837   4.083   8.497   6.158
   24POPC   C1B  838   4.536   8.886   7.283
   24POPC   C2B  839   4.414   9.020   6.843
   24POPC   C3B  840   4.528   8.957   6.399
   24POPC   C4B  841   4.682   9.144   6.036
   25POPC   NC3  842   3.543   1.354   8.175
   25POPC   PO4  843   3.218   0.701   8.060
   25POPC   GL1  844   3.251   0.888   7.651
   25POPC   GL2  845   3.516   1.134   7.564
   25POPC   C1A  846   3.146   1.024   7.238
   25POPC   D2A  847   3.343   1.072   6.832
   25POPC   C3A  848   3.137   1.108   6.435
   25POPC   C4A  849   3.167   1.463   6.148
   25POPC   C1B  850   3.810   1.394   7.267
   25POPC   C2B  851   3.979   1.518   6.847
   25POPC   C3B  852   3.913   1.454   6.407
   25POPC   C4B  853   3.610   1.175   6.327
   26POPC   NC3  854   5.619   9.654   8.263
   26POPC   PO4  855   6.084  10.025   8.222
   26POPC   GL1  856   5.935   9.749   7.800
   26POPC   GL2  857   5.605   9.553   7.760
   26POPC   C1A  858   5.947   9.871   7.313
   26POPC   D2A  859   6.167   9.774   6.897
   26POPC   C3A  860   5.954   9.815   6.485
   26POPC   C4A  861   5.993   9.869   6.035
   26POPC   C1B  862   5.631   9.472   7.316
   26POPC   C2B  863   5.633   9.637   6.884
   26POPC   C3B  864   5.502   9.505   6.458
   26POPC   C4B  865   5.711   9.446   6.039
   27POPC   NC3  866  11.072  10.455   8.063
   27POPC   PO4  867  10.741   9.925   7.788
   27POPC   GL1  868  11.145  10.104   7.609
   27POPC   GL2  869  11.396  10.394   7.684
   27POPC   C1A  870  11.178  10.065   7.184
   27POPC   D2A  871  10.904  10.120   6.844
   27POPC   C3A  872  11.165  10.308   6.562
   27POPC   C4A  873  11.247  10.149   6.165
   27POPC   C1B  874  11.161  10.569   7.340
   27POPC   C2B  875  10.997  10.645   6.943
   27POPC   C3B  876  11.064  10.848   6.555
   27POPC   C4B  877  11.299  10.675   6.233
   28POPC   NC3  878   5.445   0.125   7.917
   28POPC   PO4  879   5.014   0.591   8.225
   28POPC   GL1  880   5.219   0.547   7.765
   28POPC   GL2  881   5.122   0.273   7.541
   28POPC   C1A  882   5.367   0.605   7.274
   28POPC   D2A  883   5.076   0.358   6.976
   28POPC   C3A  884   5.162   0.329   6.525
   28POPC   C4A  885   5.268   0.668   6.292
   28POPC   C1B  886   4.878   0.645   7.389
   28POPC   C2B  887   4.639   0.683   7.022
   28POPC   C3B  888   4.767   0.684   6.584
   28POPC   C4B  889   4.802   0.981   6.249
   29POPC   NC3  890   8.692   2.612   8.074
   29POPC   PO4  891   8.242   2.964   8.061
   29POPC   GL1  892   8.555   2.934   7.680
   29POPC   GL2  893   8.753   2.610   7.549
   29POPC   C1A  894   8.846   3.073   7.338
   29POPC   D2A  895   8.954   3.351   6.970
   29POPC   C3A  896   8.980   3.177   6.541
   29POPC   C4A  897   8.684   3.031   6.183
   29POPC   C1B  898   9.066   2.630   7.184
   29POPC   C2B  899   9.008   2.640   6.737
   29POPC   C3B  900   9.055   2.705   6.309
   29POPC   C4B  901   9.045   2.569   5.877
   30POPC   NC3  902   7.313  10.627   8.242
   30POPC   PO4  903   7.154  10.820   7.692
   30POPC   GL1  904   7.317  10.458   7.554
   30POPC   GL2  905   7.447  10.225   7.812
   30POPC   C1A  906   7.293  10.416   7.123
   30POPC   D2A  907   7.013  10.515   6.794
   30POPC   C3A  908   7.248  10.737   6.503
   30POPC   C4A  909   7.537  10.680   6.195
   30POPC   C1B  910   7.659  10.104   7.408
   30POPC   C2B  911   7.675  10.147   6.965
   30POPC   C3B  912   7.514  10.307   6.597
   30POPC   C4B  913   7.485  10.135   6.190
   31POPC   NC3  914  10.252   4.556   7.656
   31POPC   PO4  915  10.093   4.040   7.916
   31POPC   GL1  916   9.981   4.139   7.500
   31POPC   GL2  917   9.713   4.348   7.506
   31POPC   C1A  918  10.047   4.307   7.061
   31POPC   D2A  919  10.183   4.665   6.776
   31POPC   C3A  920  10.074   4.596   6.336
   31POPC   C4A  921   9.787   4.262   6.209
   31POPC   C1B  922   9.545   4.090   7.154
   31POPC   C2B  923   9.326   3.908   6.775
   31POPC   C3B  924   9.320   4.133   6.395
   31POPC   C4B  925   9.316   4.594   6.339
   32POPC   NC3  926   0.367   2.075   7.974
   32POPC   PO4  927   1.017   2.348   7.848
   32POPC   GL1  928   0.835   2.030   7.591
   32POPC   GL2  929   0.496   1.952   7.520
   32POPC   C1A  930   0.752   2.152   7.161
   32POPC   D2A  931   0.469   1.984   6.868
   32POPC   C3A  932   0.717   2.075   6.533
   32POPC   C4A  933   0.852   1.919   6.152
   32POPC   C1B  934   0.144   1.831   7.280
   32POPC   C2B  935   0.082   1.620   6.890
   32POPC   C3B  936  11.484   1.767   6.472
   32POPC   C4B  937   0.295   2.033   6.265
   33POPC   NC3  938   9.429   5.657   8.280
   33POPC   PO4  939   9.881   6.065   8.163
   33POPC   GL1  940   9.928   5.806   7.763
   33POPC   GL2  941  10.129   6.001   7.562
   33POPC   C1A  942   9.884   5.652   7.306
   33POPC   D2A  943   9.858   5.795   6.861
   33POPC   C3A  944   9.741   5.593   6.480
   33POPC   C4A  945   9.866   5.667   6.063
   33POPC   C1B  946   9.911   6.179   7.202
   33POPC   C2B  947   9.819   6.305   6.749
   33POPC   C3B  948   9.713   6.091   6.353
   33POPC   C4B  949   9.433   5.918   6.037
   34POPC   NC3  950   5.082   1.084   8.179
   34POPC   PO4  951   5.680   0.718   8.132
   34POPC   GL1  952   5.429   0.996   7.779
   34POPC   GL2  953   5.180   1.290   7.724
   34POPC   C1A  954   5.382   1.097   7.311
   34POPC   D2A  955   5.085   0.943   6.989
   34POPC   C3A  956   5.184   1.063   6.586
   34POPC   C4A  957   5.257   1.180   6.136
   34POPC   C1B  958   4.903   1.294   7.333
   34POPC   C2B  959   4.775   1.379   6.895
   34POPC   C3B  960   4.897   1.455   6.455
   34POPC   C4B  961   5.002   1.616   6.038
   35POPC   NC3  962   7.697   9.181   8.064
   35POPC   PO4  963   8.430   9.246   8.038
   35POPC   GL1  964   8.318   9.071   7.641
   35POPC   GL2  965   7.993   9.019   7.681
   35POPC   C1A  966   8.176   8.845   7.237
   35POPC   D2A  967   8.074   8.708   6.793
   35POPC   C3A  968   8.371   8.701   6.439
   35POPC   C4A  969   8.319   8.846   6.024
   35POPC   C1B  970   7.789   9.151   7.288
   35POPC   C2B  971   7.962   9.207   6.852
   35POPC   C3B  972   8.038   9.106   6.395
   35POPC   C4B  973   7.856   9.066   5.947
   36POPC   NC3  974   8.919  10.359   8.116
   36POPC   PO4  975   8.560  11.011   8.120
   36POPC   GL1  976   8.589  10.631   7.742
   36POPC   GL2  977   8.858  10.361   7.628
   36POPC   C1A  978   8.519  10.459   7.278
   36POPC   D2A  979   8.595  10.265   6.839
   36POPC   C3A  980   8.391  10.551   6.498
   36POPC   C4A  981   8.549  10.728   6.095
   36POPC   C1B  982   9.066  10.408   7.219
   36POPC   C2B  983   9.132  10.645   6.824
   36POPC   C3B  984   8.908  10.520   6.461
   36POPC   C4B  985   8.946  10.130   6.301
   37POPC   NC3  986   7.082   8.783   7.959
   37POPC   PO4  987   7.759   8.634   8.183
   37POPC   GL1  988   7.663   8.637   7.771
   37POPC   GL2  989   7.509   8.879   7.682
   37POPC   C1A  990   7.690   8.610   7.299
   37POPC   D2A  991   7.590   8.850   6.920
   37POPC   C3A  992   7.488   8.638   6.552
   37POPC   C4A  993   7.841   8.651   6.268
   37POPC   C1B  994   7.298   8.984   7.321
   37POPC   C2B  995   7.121   9.036   6.923
   37POPC   C3B  996   7.146   9.077   6.485
   37POPC   C4B  997   7.400   8.974   6.152
   38POPC   NC3  998   0.576  11.044   8.075
   38POPC   PO4  999   1.135  10.978   8.461
   38POPC   GL1 1000   1.172  10.984   7.914
   38POPC   GL2 1001   0.935  11.212   7.739
   38POPC   C1A 1002   1.249  10.858   7.421
   38POPC   D2A 1003   1.239  11.049   6.972
   38POPC   C3A 1004   1.206  10.834   6.559
   38POPC   C4A 1005   0.953  10.864   6.196
   38POPC   C1B 1006   1.189  11.369   7.373
   38POPC   C2B 1007   1.444   0.025   7.034
   38POPC   C3B 1008   1.339   0.016   6.622
   38POPC   C4B 1009   1.306  11.259   6.272
   39POPC   NC3 1010   9.377   8.540   8.049
   39POPC   PO4 1011   9.279   7.882   8.026
   39POPC   GL1 1012   9.597   8.047   7.706
   39POPC   GL2 1013   9.843   8.333   7.692
   39POPC   C1A 1014   9.615   8.008   7.248
   39POPC   D2A 1015   9.828   7.783   6.902
   39POPC   C3A 1016   9.674   7.797   6.457
   39POPC   C4A 1017   9.718   7.791   6.012
   39POPC   C1B 1018   9.683   8.529   7.324
   39POPC   C2B 1019   9.539   8.427   6.912
   39POPC   C3B 1020   9.697   8.439   6.497
   39POPC   C4B 1021   9.518   8.223   6.141
   40POPC   NC3 1022   1.163   1.282   7.998
   40POPC   PO4 1023   1.722   0.849   8.112
   40POPC   GL1 1024   1.517   0.921   7.751
   40POPC   GL2 1025   1.606   1.245   7.667
   40POPC   C1A 1026   1.605   0.846   7.305
   40POPC   D2A 1027   1.748   0.839   6.860
   40POPC   C3A 1028   1.405   0.986   6.584
   40POPC   C4A 1029   1.046   0.960   6.285
   40POPC   C1B 1030   1.378   1.326   7.298
   40POPC   C2B 1031   1.308   1.406   6.856
   40POPC   C3B 1032   0.947   1.362   6.574
   40POPC   C4B 1033   0.814   1.408   6.146
   41POPC   NC3 1034   8.026   3.361   8.046
   41POPC   PO4 1035   8.341   3.850   7.888
   41POPC   GL1 1036   8.347   3.441   7.670
   41POPC   GL2 1037   8.006   3.504   7.543
   41POPC   C1A 1038   8.382   3.271   7.261
   41POPC   D2A 1039   8.452   3.554   6.910
   41POPC   C3A 1040   8.525   3.420   6.503
   41POPC   C4A 1041   8.314   3.382   6.122
   41POPC   C1B 1042   7.944   3.452   7.074
   41POPC   C2B 1043   8.039   3.297   6.638
   41POPC   C3B 1044   7.823   3.249   6.231
   41POPC   C4B 1045   7.474   3.390   5.957
   42POPC   NC3 1046  11.133   9.771   7.989
   42POPC   PO4 1047  10.685   9.212   7.843
   42POPC   GL1 1048  10.952   9.496   7.579
   42POPC   GL2 1049  11.333   9.576   7.576
   42POPC   C1A 1050  10.795   9.664   7.186
   42POPC   D2A 1051  10.623   9.479   6.806
   42POPC   C3A 1052  10.691   9.775   6.482
   42POPC   C4A 1053  10.895   9.790   6.059
   42POPC   C1B 1054  11.355   9.592   7.139
   42POPC   C2B 1055  11.109   9.637   6.776
   42POPC   C3B 1056  11.033   9.410   6.405
   42POPC   C4B 1057  11.343   9.515   6.089
   43POPC   NC3 1058  11.420   7.223   8.135
   43POPC   PO4 1059  11.155   7.824   7.922
   43POPC   GL1 1060  11.269   7.425   7.674
   43POPC   GL2 1061  10.989   7.210   7.562
   43POPC   C1A 1062  11.419   7.239   7.263
   43POPC   D2A 1063   0.066   6.939   6.928
   43POPC   C3A 1064   0.012   7.170   6.520
   43POPC   C4A 1065  11.368   7.542   6.270
   43POPC   C1B 1066  10.953   7.566   7.286
   43POPC   C2B 1067  11.008   7.804   6.916
   43POPC   C3B 1068  10.898   7.665   6.505
   43POPC   C4B 1069  10.969   7.250   6.345
   44POPC   NC3 1070   1.530   8.060   8.255
   44POPC   PO4 1071   0.852   8.135   8.284
   44POPC   GL1 1072   1.156   8.149   7.893
   44POPC   GL2 1073   1.085   8.489   7.738
   44POPC   C1A 1074   1.395   8.180   7.465
   44POPC   D2A 1075   1.496   8.270   7.013
   44POPC   C3A 1076   1.618   8.216   6.580
   44POPC   C4A 1077   1.396   8.120   6.200
   44POPC   C1B 1078   0.900   8.342   7.344
   44POPC   C2B 1079   1.034   8.067   7.043
   44POPC   C3B 1080   1.117   8.175   6.635
   44POPC   C4B 1081   0.913   8.292   6.258
   45POPC   NC3 1082   3.325   3.404   8.070
   45POPC   PO4 1083   2.687   3.225   8.067
   45POPC   GL1 1084   2.648   3.187   7.642
   45POPC   GL2 1085   2.469   3.496   7.604
   45POPC   C1A 1086   2.876   3.288   7.237
   45POPC   D2A 1087   2.742   3.385   6.796
   45POPC   C3A 1088   2.932   3.370   6.369
   45POPC   C4A 1089   2.978   3.816   6.164
   45POPC   C1B 1090   2.342   3.303   7.234
   45POPC   C2B 1091   2.130   3.506   6.932
   45POPC   C3B 1092   2.338   3.633   6.591
   45POPC   C4B 1093   2.408   3.271   6.379
   46POPC   NC3 1094  10.752   8.855   8.116
   46POPC   PO4 1095  11.319   9.336   8.078
   46POPC   GL1 1096  11.300   9.057   7.744
   46POPC   GL2 1097  11.181   8.703   7.859
   46POPC   C1A 1098  11.436   9.101   7.304
   46POPC   D2A 1099  11.277   9.148   6.866
   46POPC   C3A 1100  11.495   9.150   6.471
   46POPC   C4A 1101  11.212   9.004   6.161
   46POPC   C1B 1102  11.077   8.729   7.407
   46POPC   C2B 1103  11.360   8.647   7.026
   46POPC   C3B 1104  11.322   8.656   6.557
   46POPC   C4B 1105  10.978   8.563   6.245
   47POPC   NC3 1106   0.640   3.024   8.127
   47POPC   PO4 1107   0.208   2.491   8.101
   47POPC   GL1 1108   0.400   2.726   7.774
   47POPC   GL2 1109   0.550   2.454   7.642
   47POPC   C1A 1110   0.428   2.840   7.327
   47POPC   D2A 1111   0.513   2.986   6.931
   47POPC   C3A 1112   0.218   2.991   6.616
   47POPC   C4A 1113   0.409   2.944   6.217
   47POPC   C1B 1114   0.293   2.346   7.288
   47POPC   C2B 1115   0.340   2.491   6.887
   47POPC   C3B 1116   0.357   2.497   6.477
   47POPC   C4B 1117   0.689   2.462   6.208
   48POPC   NC3 1118   5.415   0.404   8.349
   48POPC   PO4 1119   5.947   0.201   7.926
   48POPC   GL1 1120   5.705   0.339   7.580
   48POPC   GL2 1121   5.753   0.625   7.613
   48POPC   C1A 1122   5.517   0.141   7.218
   48POPC   D2A 1123   5.589   0.366   6.824
   48POPC   C3A 1124   5.665   0.125   6.460
   48POPC   C4A 1125   5.410  11.409   6.215
   48POPC   C1B 1126   5.965   0.457   7.197
   48POPC   C2B 1127   6.248   0.696   6.991
   48POPC   C3B 1128   6.113   0.815   6.610
   48POPC   C4B 1129   5.870   0.550   6.256
   49POPC   NC3 1130  10.759   4.886   8.198
   49POPC   PO4 1131  10.768   5.522   8.097
   49POPC   GL1 1132  10.754   5.209   7.745
   49POPC   GL2 1133  10.470   5.019   7.773
   49POPC   C1A 1134  10.631   5.036   7.285
   49POPC   D2A 1135  10.542   5.073   6.832
   49POPC   C3A 1136  10.464   4.933   6.435
   49POPC   C4A 1137  10.669   5.088   6.128
   49POPC   C1B 1138  10.241   5.297   7.470
   49POPC   C2B 1139  10.177   5.377   6.990
   49POPC   C3B 1140  10.204   5.368   6.515
   49POPC   C4B 1141   9.892   5.166   6.204
   50POPC   NC3 1142   8.189  10.713   8.100
   50POPC   PO4 1143   8.506  10.174   8.024
   50POPC   GL1 1144   8.383  10.123   7.635
   50POPC   GL2 1145   8.104  10.395   7.633
   50POPC   C1A 1146   8.158  10.083   7.246
   50POPC   D2A 1147   8.106  10.397   6.936
   50POPC   C3A 1148   8.152  10.084   6.622
   50POPC   C4A 1149   8.418  10.100   6.253
   50POPC   C1B 1150   7.763  10.576   7.327
   50POPC   C2B 1151   7.638  10.745   6.924
   50POPC   C3B 1152   7.886  10.704   6.568
   50POPC   C4B 1153   7.945  10.371   6.268
   51POPC   NC3 1154   9.941   1.793   8.059
   51POPC   PO4 1155   9.341   1.570   8.306
   51POPC   GL1 1156   9.437   1.811   7.852
   51POPC   GL2 1157   9.650   2.139   7.776
   51POPC   C1A 1158   9.445   1.875   7.368
   51POPC   D2A 1159   9.705   1.893   6.947
   51POPC   C3A 1160   9.522   1.930   6.523
   51POPC   C4A 1161   9.323   1.778   6.142
   51POPC   C1B 1162   9.795   2.247   7.335
   51POPC   C2B 1163   9.508   2.381   6.978
   51POPC   C3B 1164   9.509   2.458   6.519
   51POPC   C4B 1165   9.849   2.250   6.249
   52POPC   NC3 1166  10.509   2.273   8.181
   52POPC   PO4 1167  10.814   1.732   8.315
   52POPC   GL1 1168  10.793   2.073   7.808
   52POPC   GL2 1169  10.413   2.081   7.561
   52POPC   C1A 1170  10.820   2.148   7.313
   52POPC   D2A 1171  10.573   1.912   6.991
   52POPC   C3A 1172  10.555   2.077   6.538
   52POPC   C4A 1173  10.561   2.086   6.075
   52POPC   C1B 1174  10.101   1.818   7.316
   52POPC   C2B 1175  10.145   1.570   6.950
   52POPC   C3B 1176  10.131   1.746   6.556
   52POPC   C4B 1177  10.122   1.839   6.132
   53POPC   NC3 1178   2.861   5.786   8.271
   53POPC   PO4 1179   3.264   6.141   8.045
   53POPC   GL1 1180   2.903   5.957   7.770
   53POPC   GL2 1181   2.594   5.701   7.726
   53POPC   C1A 1182   2.887   5.857   7.319
   53POPC   D2A 1183   2.946   6.085   6.921
   53POPC   C3A 1184   3.026   5.815   6.565
   53POPC   C4A 1185   3.171   5.861   6.142
   53POPC   C1B 1186   2.387   5.704   7.266
   53POPC   C2B 1187   2.511   5.568   6.806
   53POPC   C3B 1188   2.559   5.795   6.389
   53POPC   C4B 1189   2.676   5.915   5.957
   54POPC   NC3 1190   8.968   9.313   8.088
   54POPC   PO4 1191   9.090   9.962   8.267
   54POPC   GL1 1192   8.844   9.865   7.808
   54POPC   GL2 1193   8.808   9.534   7.656
   54POPC   C1A 1194   8.759   9.958   7.316
   54POPC   D2A 1195   8.954   9.877   6.861
   54POPC   C3A 1196   8.694   9.721   6.482
   54POPC   C4A 1197   8.734   9.622   5.994
   54POPC   C1B 1198   9.123   9.585   7.301
   54POPC   C2B 1199   9.214   9.329   6.961
   54POPC   C3B 1200   9.162   9.331   6.535
   54POPC   C4B 1201   9.147   9.663   6.260
   55POPC   NC3 1202   9.758   0.249   7.956
   55POPC   PO4 1203   9.270  11.423   8.097
   55POPC   GL1 1204   9.292   0.171   7.707
   55POPC   GL2 1205   9.456   0.515   7.611
   55POPC   C1A 1206   9.521   0.105   7.308
   55POPC   D2A 1207   9.479   0.373   6.958
   55POPC   C3A 1208   9.340   0.147   6.605
   55POPC   C4A 1209   9.309   0.310   6.188
   55POPC   C1B 1210   9.861   0.503   7.326
   55POPC   C2B 1211   9.943   0.610   6.878
   55POPC   C3B 1212   9.742   0.466   6.477
   55POPC   C4B 1213   9.759   0.495   6.009
   56POPC   NC3 1214   0.469   8.334   8.458
   56POPC   PO4 1215   0.214   8.198   7.878
   56POPC   GL1 1216   0.368   8.014   7.551
   56POPC   GL2 1217   0.696   8.034   7.685
   56POPC   C1A 1218   0.437   8.088   7.137
   56POPC   D2A 1219   0.643   8.274   6.811
   56POPC   C3A 1220   0.397   8.281   6.490
   56POPC   C4A 1221   0.354   8.065   6.143
   56POPC   C1B 1222   0.760   7.734   7.343
   56POPC   C2B 1223   0.698   7.707   6.875
   56POPC   C3B 1224   0.729   7.878   6.449
   56POPC   C4B 1225   0.759   7.880   5.931
   57POPC   NC3 1226   0.604   4.078   7.954
   57POPC   PO4 1227   0.411   3.432   8.143
   57POPC   GL1 1228   0.447   3.592   7.738
   57POPC   GL2 1229   0.587   3.264   7.647
   57POPC   C1A 1230   0.416   3.830   7.341
   57POPC   D2A 1231   0.639   3.915   6.937
   57POPC   C3A 1232   0.483   3.837   6.552
   57POPC   C4A 1233   0.649   3.717   6.135
   57POPC   C1B 1234   0.270   3.328   7.317
   57POPC   C2B 1235   0.379   3.474   6.918
   57POPC   C3B 1236   0.580   3.344   6.529
   57POPC   C4B 1237   0.222   3.442   6.241
   58POPC   NC3 1238   5.199  10.954   8.126
   58POPC   PO4 1239   4.964   0.059   7.971
   58POPC   GL1 1240   4.820  11.352   7.614
   58POPC   GL2 1241   4.944  11.062   7.681
   58POPC   C1A 1242   5.073  11.365   7.239
   58POPC   D2A 1243   5.261  11.381   6.831
   58POPC   C3A 1244   4.899  11.401   6.543
   58POPC   C4A 1245   4.913  11.475   6.110
   58POPC   C1B 1246   5.091  10.862   7.300
   58POPC   C2B 1247   5.210  10.830   6.873
   58POPC   C3B 1248   5.211  11.015   6.463
   58POPC   C4B 1249   5.159  10.937   6.038
   59POPC   NC3 1250   2.930   0.281   8.083
   59POPC   PO4 1251   2.470   0.813   7.952
   59POPC   GL1 1252   2.783   0.632   7.702
   59POPC   GL2 1253   2.583   0.341   7.680
   59POPC   C1A 1254   2.997   0.536   7.321
   59POPC   D2A 1255   2.907   0.299   6.952
   59POPC   C3A 1256   2.921   0.445   6.539
   59POPC   C4A 1257   2.878   0.240   6.157
   59POPC   C1B 1258   2.469   0.436   7.242
   59POPC   C2B 1259   2.278   0.720   6.912
   59POPC   C3B 1260   2.192   0.767   6.469
   59POPC   C4B 1261   2.490   0.728   6.061
   60POPC   NC3 1262   9.000   1.248   8.247
   60POPC   PO4 1263   8.379   1.411   8.084
   60POPC   GL1 1264   8.593   1.363   7.640
   60POPC   GL2 1265   8.822   1.088   7.593
   60POPC   C1A 1266   8.650   1.300   7.168
   60POPC   D2A 1267   8.880   1.258   6.783
   60POPC   C3A 1268   8.615   1.383   6.443
   60POPC   C4A 1269   8.672   1.348   5.963
   60POPC   C1B 1270   9.124   1.112   7.244
   60POPC   C2B 1271   9.196   0.824   6.930
   60POPC   C3B 1272   9.232   0.974   6.553
   60POPC   C4B 1273   9.081   1.293   6.260
   61POPC   NC3 1274   2.335  10.409   7.940
   61POPC   PO4 1275   1.731  10.687   8.117
   61POPC   GL1 1276   1.856  10.515   7.723
   61POPC   GL2 1277   1.863  10.136   7.735
   61POPC   C1A 1278   1.781  10.657   7.311
   61POPC   D2A 1279   1.693  10.845   6.929
   61POPC   C3A 1280   1.918  10.725   6.586
   61POPC   C4A 1281   1.824  10.637   6.198
   61POPC   C1B 1282   2.064  10.223   7.338
   61POPC   C2B 1283   2.001  10.373   6.931
   61POPC   C3B 1284   2.118  10.203   6.507
   61POPC   C4B 1285   2.042  10.230   6.047
   62POPC   NC3 1286   0.263   4.589   8.238
   62POPC   PO4 1287   0.073   4.066   7.987
   62POPC   GL1 1288   0.054   4.438   7.754
   62POPC   GL2 1289   0.391   4.514   7.743
   62POPC   C1A 1290   0.194   4.301   7.338
   62POPC   D2A 1291   0.158   4.077   6.967
   62POPC   C3A 1292   0.172   4.267   6.584
   62POPC   C4A 1293   0.234   4.062   6.191
   62POPC   C1B 1294   0.587   4.623   7.375
   62POPC   C2B 1295   0.694   4.502   6.960
   62POPC   C3B 1296   0.525   4.636   6.585
   62POPC   C4B 1297   0.550   4.457   6.186
   63POPC   NC3 1298   1.198   8.885   8.051
   63POPC   PO4 1299   1.571   9.489   8.109
   63POPC   GL1 1300   1.460   9.302   7.718
   63POPC   GL2 1301   1.118   9.231   7.677
   63POPC   C1A 1302   1.387   9.148   7.279
   63POPC   D2A 1303   1.120   9.163   6.937
   63POPC   C3A 1304   1.349   9.171   6.587
   63POPC   C4A 1305   1.212   9.081   6.212
   63POPC   C1B 1306   0.968   8.877   7.379
   63POPC   C2B 1307   1.139   8.644   6.986
   63POPC   C3B 1308   1.099   8.696   6.536
   63POPC   C4B 1309   0.801   8.770   6.178
   64POPC   NC3 1310   9.809  10.887   8.075
   64POPC   PO4 1311  10.158   0.060   8.129
   64POPC   GL1 1312   9.995  11.271   7.810
   64POPC   GL2 1313   9.625  11.266   7.733
   64POPC   C1A 1314   9.950  11.014   7.416
   64POPC   D2A 1315   9.768  11.149   7.022
   64POPC   C3A 1316   9.899  11.086   6.598
   64POPC   C4A 1317   9.859  10.856   6.218
   64POPC   C1B 1318   9.387  11.112   7.352
   64POPC   C2B 1319   9.265  11.159   6.881
   64POPC   C3B 1320   9.420  11.174   6.420
   64POPC   C4B 1321   9.240  11.321   5.982
   65POPC   NC3 1322   0.792   7.706   8.067
   65POPC   PO4 1323   1.413   7.643   8.086
   65POPC   GL1 1324   1.171   7.610   7.736
   65POPC   GL2 1325   1.119   7.260   7.804
   65POPC   C1A 1326   1.270   7.705   7.323
   65POPC   D2A 1327   1.443   7.769   6.933
   65POPC   C3A 1328   1.175   7.661   6.633
   65POPC   C4A 1329   1.131   7.671   6.219
   65POPC   C1B 1330   1.035   7.251   7.345
   65POPC   C2B 1331   0.934   7.124   6.899
   65POPC   C3B 1332   1.019   7.187   6.455
   65POPC   C4B 1333   1.458   7.288   6.336
   66POPC   NC3 1334   8.923   0.258   8.130
   66POPC   PO4 1335   9.197   0.836   8.128
   66POPC   GL1 1336   8.950   0.611   7.745
   66POPC   GL2 1337   8.754   0.279   7.659
   66POPC   C1A 1338   8.841   0.676   7.292
   66POPC   D2A 1339   8.652   0.824   6.880
   66POPC   C3A 1340   8.725   0.897   6.390
   66POPC   C4A 1341   8.628   0.820   5.913
   66POPC   C1B 1342   8.988   0.175   7.294
   66POPC   C2B 1343   8.826   0.321   6.923
   66POPC   C3B 1344   8.968   0.496   6.578
   66POPC   C4B 1345   8.786   0.428   6.203
   67POPC   NC3 1346   4.298   3.003   8.263
   67POPC   PO4 1347   3.682   3.134   8.098
   67POPC   GL1 1348   4.024   3.040   7.785
   67POPC   GL2 1349   4.350   2.825   7.737
   67POPC   C1A 1350   4.017   2.917   7.349
   67POPC   D2A 1351   4.166   2.766   6.944
   67POPC   C3A 1352   4.215   2.912   6.507
   67POPC   C4A 1353   4.398   3.085   6.122
   67POPC   C1B 1354   4.328   2.475   7.366
   67POPC   C2B 1355   4.159   2.268   6.952
   67POPC   C3B 1356   4.244   2.398   6.527
   67POPC   C4B 1357   4.568   2.580   6.259
   68POPC   NC3 1358   9.967   9.344   8.119
   68POPC   PO4 1359   9.810   8.729   8.024
   68POPC   GL1 1360   9.710   8.952   7.676
   68POPC   GL2 1361   9.339   9.044   7.727
   68POPC   C1A 1362   9.968   8.981   7.304
   68POPC   D2A 1363   9.929   8.751   6.889
   68POPC   C3A 1364   9.888   8.918   6.442
   68POPC   C4A 1365  10.014   9.195   6.062
   68POPC   C1B 1366   9.367   8.930   7.257
   68POPC   C2B 1367   9.454   8.925   6.774
   68POPC   C3B 1368   9.389   8.883   6.360
   68POPC   C4B 1369   9.180   8.488   6.395
   69POPC   NC3 1370  11.469   3.636   8.164
   69POPC   PO4 1371  10.727   3.551   7.947
   69POPC   GL1 1372  10.837   3.505   7.559
   69POPC   GL2 1373  11.114   3.303   7.685
   69POPC   C1A 1374  10.820   3.745   7.199
   69POPC   D2A 1375  10.860   3.622   6.769
   69POPC   C3A 1376  10.739   3.882   6.433
   69POPC   C4A 1377  10.966   3.739   6.049
   69POPC   C1B 1378  11.258   3.135   7.307
   69POPC   C2B 1379  11.337   3.263   6.870
   69POPC   C3B 1380  11.260   3.249   6.406
   69POPC   C4B 1381  11.005   2.963   6.156
   70POPC   NC3 1382   1.194   5.997   7.907
   70POPC   PO4 1383   0.886   5.440   8.102
   70POPC   GL1 1384   0.987   5.589   7.682
   70POPC   GL2 1385   1.341   5.542   7.696
   70POPC   C1A 1386   0.881   5.472   7.249
   70POPC   D2A 1387   0.675   5.490   6.864
   70POPC   C3A 1388   0.921   5.377   6.483
   70POPC   C4A 1389   1.057   5.454   6.045
   70POPC   C1B 1390   1.309   5.746   7.280
   70POPC   C2B 1391   1.219   5.587   6.860
   70POPC   C3B 1392   1.247   5.757   6.436
   70POPC   C4B 1393   1.328   5.915   6.028
   71POPC   NC3 1394   9.791   6.575   8.119
   71POPC   PO4 1395  10.413   6.432   7.880
   71POPC   GL1 1396  10.524   6.303   7.547
   71POPC   GL2 1397  10.802   6.445   7.525
   71POPC   C1A 1398  10.422   6.210   7.156
   71POPC   D2A 1399  10.572   6.316   6.763
   71POPC   C3A 1400  10.274   6.553   6.556
   71POPC   C4A 1401   9.978   6.530   6.256
   71POPC   C1B 1402  10.672   6.636   7.183
   71POPC   C2B 1403  10.641   6.822   6.817
   71POPC   C3B 1404  10.725   6.728   6.398
   71POPC   C4B 1405  10.419   6.761   6.079
   72POPC   NC3 1406   2.878   1.023   8.029
   72POPC   PO4 1407   3.070   1.604   8.072
   72POPC   GL1 1408   3.000   1.361   7.665
   72POPC   GL2 1409   2.706   1.152   7.591
   72POPC   C1A 1410   2.852   1.420   7.207
   72POPC   D2A 1411   2.697   1.653   6.882
   72POPC   C3A 1412   2.765   1.443   6.531
   72POPC   C4A 1413   2.648   1.631   6.179
   72POPC   C1B 1414   2.625   0.935   7.247
   72POPC   C2B 1415   2.835   0.824   6.880
   72POPC   C3B 1416   2.680   0.918   6.492
   72POPC   C4B 1417   2.393   1.195   6.302
   73POPC   NC3 1418   9.669   7.638   8.061
   73POPC   PO4 1419   9.626   7.003   8.115
   73POPC   GL1 1420   9.611   7.295   7.675
   73POPC   GL2 1421   9.827   7.601   7.563
   73POPC   C1A 1422   9.458   7.469   7.228
   73POPC   D2A 1423   9.494   7.407   6.741
   73POPC   C3A 1424   9.330   7.095   6.385
   73POPC   C4A 1425   9.357   6.844   5.966
   73POPC   C1B 1426   9.949   7.355   7.182
   73POPC   C2B 1427  10.023   7.338   6.732
   73POPC   C3B 1428   9.813   7.277   6.351
   73POPC   C4B 1429   9.856   7.000   6.005
   74POPC   NC3 1430  10.513   3.922   8.098
   74POPC   PO4 1431  10.660   4.548   7.900
   74POPC   GL1 1432  10.720   4.401   7.535
   74POPC   GL2 1433  10.502   4.122   7.597
   74POPC   C1A 1434  10.741   4.276   7.129
   74POPC   D2A 1435  10.685   4.578   6.837
   74POPC   C3A 1436  10.647   4.468   6.436
   74POPC   C4A 1437  10.641   4.604   6.012
   74POPC   C1B 1438  10.355   3.935   7.244
   74POPC   C2B 1439  10.455   3.944   6.858
   74POPC   C3B 1440  10.256   4.171   6.593
   74POPC   C4B 1441  10.325   4.149   6.204
   75POPC   NC3 1442   4.926  10.352   8.148
   75POPC   PO4 1443   5.495   9.994   7.992
   75POPC   GL1 1444   5.278  10.258   7.684
   75POPC   GL2 1445   5.098  10.578   7.729
   75POPC   C1A 1446   5.167  10.218   7.219
   75POPC   D2A 1447   5.072  10.245   6.752
   75POPC   C3A 1448   4.974   9.920   6.387
   75POPC   C4A 1449   4.951   9.914   5.880
   75POPC   C1B 1450   4.761  10.493   7.398
   75POPC   C2B 1451   4.694  10.627   6.927
   75POPC   C3B 1452   4.885  10.619   6.472
   75POPC   C4B 1453   5.071  10.354   6.122
   76POPC   NC3 1454   7.608   8.202   8.057
   76POPC   PO4 1455   7.020   8.333   7.915
   76POPC   GL1 1456   7.211   8.487   7.542
   76POPC   GL2 1457   7.433   8.238   7.574
   76POPC   C1A 1458   7.212   8.531   7.085
   76POPC   D2A 1459   7.161   8.230   6.760
   76POPC   C3A 1460   7.070   8.380   6.371
   76POPC   C4A 1461   7.062   8.620   6.000
   76POPC   C1B 1462   7.398   8.068   7.195
   76POPC   C2B 1463   7.611   8.000   6.814
   76POPC   C3B 1464   7.425   7.958   6.388
   76POPC   C4B 1465   7.522   7.830   5.944
   77POPC   NC3 1466   2.445  11.236   8.491
   77POPC   PO4 1467   3.059  11.389   8.310
   77POPC   GL1 1468   2.780  11.388   7.823
   77POPC   GL2 1469   2.548  11.118   7.798
   77POPC   C1A 1470   2.784  11.498   7.358
   77POPC   D2A 1471   2.897  11.300   6.943
   77POPC   C3A 1472   2.709  11.459   6.550
   77POPC   C4A 1473   2.438  11.428   6.185
   77POPC   C1B 1474   2.732  10.992   7.376
   77POPC   C2B 1475   2.692  10.850   6.955
   77POPC   C3B 1476   2.787  10.958   6.531
   77POPC   C4B 1477   2.631  10.928   6.106
   78POPC   NC3 1478   7.812   0.536   8.031
   78POPC   PO4 1479   8.522   0.509   8.071
   78POPC   GL1 1480   8.284   0.551   7.727
   78POPC   GL2 1481   8.143   0.231   7.730
   78POPC   C1A 1482   8.380   0.444   7.314
   78POPC   D2A 1483   8.206   0.587   6.953
   78POPC   C3A 1484   8.419   0.469   6.579
   78POPC   C4A 1485   8.235   0.580   6.202
   78POPC   C1B 1486   7.861   0.376   7.389
   78POPC   C2B 1487   7.814   0.254   6.970
   78POPC   C3B 1488   7.862   0.461   6.576
   78POPC   C4B 1489   7.730   0.192   6.268
   79POPC   NC3 1490   2.040   0.509   8.001
   79POPC   PO4 1491   2.457   0.063   8.176
   79POPC   GL1 1492   2.173   0.033   7.790
   79POPC   GL2 1493   1.914   0.252   7.580
   79POPC   C1A 1494   2.240  11.450   7.355
   79POPC   D2A 1495   2.421  11.488   6.964
   79POPC   C3A 1496   2.173   0.095   6.591
   79POPC   C4A 1497   2.151   0.349   6.208
   79POPC   C1B 1498   1.900   0.399   7.149
   79POPC   C2B 1499   1.745   0.339   6.724
   79POPC   C3B 1500   1.702   0.594   6.353
   79POPC   C4B 1501   1.695   0.431   5.944
   80POPC   NC3 1502  10.809   3.251   8.282
   80POPC   PO4 1503  10.127   3.321   8.246
   80POPC   GL1 1504  10.315   3.333   7.753
   80POPC   GL2 1505  10.336   3.648   7.647
   80POPC   C1A 1506  10.630   3.059   7.478
   80POPC   D2A 1507  10.809   3.234   7.097
   80POPC   C3A 1508  10.816   3.096   6.658
   80POPC   C4A 1509  10.739   3.380   6.327
   80POPC   C1B 1510  10.341   3.426   7.249
   80POPC   C2B 1511  10.236   3.485   6.824
   80POPC   C3B 1512  10.278   3.656   6.405
   80POPC   C4B 1513  10.476   3.698   6.001
   81POPC   NC3 1514  10.753   6.761   7.923
   81POPC   PO4 1515  10.548   7.386   8.057
   81POPC   GL1 1516  10.487   7.137   7.688
   81POPC   GL2 1517  10.136   7.192   7.657
   81POPC   C1A 1518  10.603   7.143   7.239
   81POPC   D2A 1519  10.706   7.336   6.848
   81POPC   C3A 1520  10.465   7.174   6.494
   81POPC   C4A 1521  10.545   7.272   6.098
   81POPC   C1B 1522  10.342   7.550   7.427
   81POPC   C2B 1523  10.338   7.660   6.991
   81POPC   C3B 1524  10.377   7.676   6.540
   81POPC   C4B 1525  10.153   7.574   6.145
   82POPC   NC3 1526   0.555   9.926   7.894
   82POPC   PO4 1527   0.804   9.240   8.074
   82POPC   GL1 1528   0.669   9.448   7.705
   82POPC   GL2 1529   0.314   9.483   7.725
   82POPC   C1A 1530   0.836   9.421   7.270
   82POPC   D2A 1531   0.686   9.688   6.899
   82POPC   C3A 1532   0.526   9.565   6.489
   82POPC   C4A 1533   0.832   9.452   6.178
   82POPC   C1B 1534   0.354   9.598   7.301
   82POPC   C2B 1535   0.242   9.915   7.005
   82POPC   C3B 1536   0.014   9.923   6.641
   82POPC   C4B 1537   0.177   9.879   6.240
   83POPC   NC3 1538   3.332   1.971   7.993
   83POPC   PO4 1539   3.918   1.642   8.242
   83POPC   GL1 1540   3.639   1.610   7.747
   83POPC   GL2 1541   3.523   1.949   7.518
   83POPC   C1A 1542   3.337   1.536   7.359
   83POPC   D2A 1543   3.417   1.709   6.988
   83POPC   C3A 1544   3.424   1.552   6.609
   83POPC   C4A 1545   3.532   1.810   6.269
   83POPC   C1B 1546   3.422   2.203   7.132
   83POPC   C2B 1547   3.288   2.472   6.802
   83POPC   C3B 1548   3.406   2.313   6.413
   83POPC   C4B 1549   3.812   2.309   6.235
   84POPC   NC3 1550   6.732  10.726   7.850
   84POPC   PO4 1551   7.070  10.229   8.187
   84POPC   GL1 1552   6.895  10.233   7.740
   84POPC   GL2 1553   6.514  10.274   7.716
   84POPC   C1A 1554   6.819  10.396   7.284
   84POPC   D2A 1555   6.503  10.568   6.978
   84POPC   C3A 1556   6.567  10.457   6.535
   84POPC   C4A 1557   6.743  10.812   6.361
   84POPC   C1B 1558   6.418  10.097   7.304
   84POPC   C2B 1559   6.598  10.067   6.868
   84POPC   C3B 1560   6.472   9.944   6.425
   84POPC   C4B 1561   6.523   9.938   5.945
   85POPC   NC3 1562   9.684   2.653   7.954
   85POPC   PO4 1563   9.079   2.440   7.906
   85POPC   GL1 1564   9.238   2.798   7.655
   85POPC   GL2 1565   9.451   2.573   7.505
   85POPC   C1A 1566   9.350   3.070   7.262
   85POPC   D2A 1567   9.434   2.887   6.848
   85POPC   C3A 1568   9.487   3.000   6.428
   85POPC   C4A 1569   9.486   2.772   6.065
   85POPC   C1B 1570   9.734   2.754   7.229
   85POPC   C2B 1571   9.968   2.632   6.882
   85POPC   C3B 1572   9.961   2.707   6.448
   85POPC   C4B 1573   9.953   2.987   6.125
   86POPC   NC3 1574   0.230   9.134   8.086
   86POPC   PO4 1575   0.075   8.555   8.362
   86POPC   GL1 1576   0.229   8.692   7.846
   86POPC   GL2 1577   0.584   8.869   7.783
   86POPC   C1A 1578   0.428   8.575   7.387
   86POPC   D2A 1579   0.636   8.743   6.995
   86POPC   C3A 1580   0.362   8.778   6.605
   86POPC   C4A 1581   0.282   8.648   6.155
   86POPC   C1B 1582   0.453   9.089   7.392
   86POPC   C2B 1583   0.484   9.220   6.942
   86POPC   C3B 1584   0.748   9.117   6.572
   86POPC   C4B 1585   0.450   9.126   6.208
   87POPC   NC3 1586   6.353   2.384   8.056
   87POPC   PO4 1587   6.994   2.392   7.998
   87POPC   GL1 1588   6.780   2.275   7.643
   87POPC   GL2 1589   6.618   2.579   7.587
   87POPC   C1A 1590   6.721   2.268   7.180
   87POPC   D2A 1591   6.692   2.483   6.779
   87POPC   C3A 1592   6.582   2.359   6.367
   87POPC   C4A 1593   6.781   2.633   6.040
   87POPC   C1B 1594   6.448   2.721   7.163
   87POPC   C2B 1595   6.441   2.928   6.732
   87POPC   C3B 1596   6.352   2.810   6.298
   87POPC   C4B 1597   6.119   2.933   5.919
   88POPC   NC3 1598   5.879  10.237   7.870
   88POPC   PO4 1599   5.378  10.538   8.257
   88POPC   GL1 1600   5.589  10.667   7.824
   88POPC   GL2 1601   5.847  10.849   7.626
   88POPC   C1A 1602   5.524  10.587   7.338
   88POPC   D2A 1603   5.620  10.495   6.876
   88POPC   C3A 1604   5.401  10.552   6.461
   88POPC   C4A 1605   5.492  10.575   5.971
   88POPC   C1B 1606   6.067  10.567   7.303
   88POPC   C2B 1607   6.082  10.278   6.973
   88POPC   C3B 1608   6.037  10.357   6.576
   88POPC   C4B 1609   5.738  10.235   6.272
   89POPC   NC3 1610   1.153   1.916   7.974
   89POPC   PO4 1611   1.587   2.321   8.319
   89POPC   GL1 1612   1.617   2.061   7.820
   89POPC   GL2 1613   1.426   1.757   7.589
   89POPC   C1A 1614   1.499   2.176   7.354
   89POPC   D2A 1615   1.257   2.207   6.991
   89POPC   C3A 1616   1.466   2.212   6.605
   89POPC   C4A 1617   1.165   2.313   6.298
   89POPC   C1B 1618   1.113   1.768   7.273
   89POPC   C2B 1619   0.954   1.780   6.879
   89POPC   C3B 1620   1.176   1.817   6.527
   89POPC   C4B 1621   1.298   1.549   6.227
   90POPC   NC3 1622   6.142   0.687   8.000
   90POPC   PO4 1623   6.890   0.591   7.979
   90POPC   GL1 1624   6.822   0.538   7.569
   90POPC   GL2 1625   6.921   0.222   7.482
   90POPC   C1A 1626   6.755   0.557   7.106
   90POPC   D2A 1627   6.600   0.463   6.719
   90POPC   C3A 1628   6.857   0.598   6.444
   90POPC   C4A 1629   6.699   0.822   6.120
   90POPC   C1B 1630   6.440   0.278   7.379
   90POPC   C2B 1631   6.305   0.144   6.987
   90POPC   C3B 1632   6.100   0.316   6.667
   90POPC   C4B 1633   6.212   0.190   6.274
   91POPC   NC3 1634   4.222   2.076   8.307
   91POPC   PO4 1635   3.783   2.047   7.930
   91POPC   GL1 1636   4.028   2.007   7.586
   91POPC   GL2 1637   4.125   1.686   7.550
   91POPC   C1A 1638   3.866   1.913   7.157
   91POPC   D2A 1639   3.741   2.013   6.721
   91POPC   C3A 1640   4.074   1.930   6.424
   91POPC   C4A 1641   4.286   2.174   6.066
   91POPC   C1B 1642   4.376   1.871   7.213
   91POPC   C2B 1643   4.416   1.773   6.779
   91POPC   C3B 1644   4.572   1.840   6.349
   91POPC   C4B 1645   4.542   1.770   5.890
   92POPC   NC3 1646   7.480  11.116   7.826
   92POPC   PO4 1647   6.807  11.176   8.003
   92POPC   GL1 1648   6.843  11.158   7.549
   92POPC   GL2 1649   7.170  11.245   7.414
   92POPC   C1A 1650   6.886  10.927   7.123
   92POPC   D2A 1651   7.204  11.120   6.857
   92POPC   C3A 1652   7.061  11.203   6.428
   92POPC   C4A 1653   7.102  10.906   6.026
   92POPC   C1B 1654   7.612  11.214   7.209
   92POPC   C2B 1655   7.800  11.230   6.823
   92POPC   C3B 1656   7.668  11.151   6.409
   92POPC   C4B 1657   7.416  11.316   6.093
   93POPC   NC3 1658   0.481  10.484   8.140
   93POPC   PO4 1659   0.099   9.931   7.914
   93POPC   GL1 1660   0.209  10.039   7.512
   93POPC   GL2 1661   0.429  10.333   7.599
   93POPC   C1A 1662   0.101  10.361   7.196
   93POPC   D2A 1663   0.209  10.604   6.825
   93POPC   C3A 1664   0.226  10.358   6.476
   93POPC   C4A 1665   0.593  10.072   6.506
   93POPC   C1B 1666   0.561  10.591   7.233
   93POPC   C2B 1667   0.826  10.735   6.919
   93POPC   C3B 1668   0.703  10.594   6.555
   93POPC   C4B 1669   0.520  10.624   6.165
   94POPC   NC3 1670   4.564   0.570   8.077
   94POPC   PO4 1671   4.041   0.160   7.887
   94POPC   GL1 1672   4.278   0.380   7.566
   94POPC   GL2 1673   4.607   0.313   7.650
   94POPC   C1A 1674   4.164   0.453   7.107
   94POPC   D2A 1675   3.861   0.315   6.737
   94POPC   C3A 1676   4.019   0.450   6.302
   94POPC   C4A 1677   4.381   0.712   6.167
   94POPC   C1B 1678   4.645   0.186   7.230
   94POPC   C2B 1679   4.573   0.227   6.792
   94POPC   C3B 1680   4.499   0.205   6.363
   94POPC   C4B 1681   4.414  11.364   6.073
   95POPC   NC3 1682   7.124   1.960   7.918
   95POPC   PO4 1683   7.723   2.117   8.160
   95POPC   GL1 1684   7.561   2.124   7.681
   95POPC   GL2 1685   7.438   1.785   7.537
   95POPC   C1A 1686   7.573   2.142   7.189
   95POPC   D2A 1687   7.415   1.946   6.794
   95POPC   C3A 1688   7.498   2.140   6.394
   95POPC   C4A 1689   7.463   2.013   5.973
   95POPC   C1B 1690   7.105   1.928   7.210
   95POPC   C2B 1691   6.904   2.001   6.759
   95POPC   C3B 1692   6.986   2.033   6.291
   95POPC   C4B 1693   6.751   2.145   5.925
   96POPC   NC3 1694  11.133   4.290   8.047
   96POPC   PO4 1695  11.044   3.670   8.351
   96POPC   GL1 1696  11.152   3.806   7.835
   96POPC   GL2 1697  10.975   3.988   7.660
   96POPC   C1A 1698  11.323   3.794   7.346
   96POPC   D2A 1699  11.162   4.015   6.918
   96POPC   C3A 1700  11.252   3.956   6.439
   96POPC   C4A 1701  10.961   4.218   6.142
   96POPC   C1B 1702  11.192   4.295   7.374
   96POPC   C2B 1703  11.186   4.530   6.970
   96POPC   C3B 1704  11.148   4.431   6.560
   96POPC   C4B 1705  11.411   4.445   6.185
   97POPC   NC3 1706   8.069   1.765   8.178
   97POPC   PO4 1707   8.564   2.183   8.162
   97POPC   GL1 1708   8.522   1.858   7.798
   97POPC   GL2 1709   8.202   1.691   7.701
   97POPC   C1A 1710   8.529   1.797   7.334
   97POPC   D2A 1711   8.275   1.929   6.975
   97POPC   C3A 1712   8.420   1.883   6.527
   97POPC   C4A 1713   8.272   1.651   6.189
   97POPC   C1B 1714   7.939   1.851   7.405
   97POPC   C2B 1715   7.801   1.683   7.015
   97POPC   C3B 1716   7.895   1.834   6.612
   97POPC   C4B 1717   8.022   2.102   6.270
   98POPC   NC3 1718  11.029   5.859   8.257
   98POPC   PO4 1719   0.123   5.997   7.890
   98POPC   GL1 1720  11.298   5.869   7.630
   98POPC   GL2 1721  11.120   5.598   7.731
   98POPC   C1A 1722  11.327   5.792   7.195
   98POPC   D2A 1723  11.243   5.571   6.811
   98POPC   C3A 1724  11.230   5.769   6.397
   98POPC   C4A 1725  11.016   5.978   6.045
   98POPC   C1B 1726  10.909   5.478   7.344
   98POPC   C2B 1727  10.758   5.519   6.938
   98POPC   C3B 1728  10.845   5.395   6.526
   98POPC   C4B 1729  10.772   5.567   6.149
   99POPC   NC3 1730   1.491   6.506   8.243
   99POPC   PO4 1731   0.897   6.386   7.967
   99POPC   GL1 1732   1.206   6.436   7.660
   99POPC   GL2 1733   1.302   6.776   7.703
   99POPC   C1A 1734   1.154   6.250   7.250
   99POPC   D2A 1735   1.313   6.097   6.842
   99POPC   C3A 1736   1.183   6.270   6.429
   99POPC   C4A 1737   1.489   6.398   6.120
   99POPC   C1B 1738   1.027   6.744   7.300
   99POPC   C2B 1739   1.152   6.620   6.879
   99POPC   C3B 1740   1.309   6.767   6.471
   99POPC   C4B 1741   1.080   6.715   6.097
  100POPC   NC3 1742   1.374   4.396   8.019
  100POPC   PO4 1743   0.717   4.608   8.108
  100POPC   GL1 1744   0.939   4.420   7.683
  100POPC   GL2 1745   1.285   4.163   7.576
  100POPC   C1A 1746   0.865   4.160   7.314
  100POPC   D2A 1747   1.112   4.065   6.928
  100POPC   C3A 1748   0.861   4.207   6.557
  100POPC   C4A 1749   1.002   4.149   6.135
  100POPC   C1B 1750   1.316   4.446   7.254
  100POPC   C2B 1751   1.237   4.542   6.833
  100POPC   C3B 1752   1.345   4.333   6.461
  100POPC   C4B 1753   1.399   4.534   6.087
  101POPC   NC3 1754   7.262   9.815   8.112
  101POPC   PO4 1755   7.246   9.215   7.935
  101POPC   GL1 1756   7.504   9.394   7.635
  101POPC   GL2 1757   7.460   9.722   7.660
  101POPC   C1A 1758   7.404   9.489   7.190
  101POPC   D2A 1759   7.480   9.388   6.771
  101POPC   C3A 1760   7.217   9.622   6.463
  101POPC   C4A 1761   7.148   9.429   6.071
  101POPC   C1B 1762   7.180   9.953   7.336
  101POPC   C2B 1763   7.144   9.998   6.853
  101POPC   C3B 1764   7.002  10.129   6.414
  101POPC   C4B 1765   7.041   9.944   5.974
  102POPC   NC3 1766   2.144   8.569   7.976
  102POPC   PO4 1767   1.499   8.521   8.097
  102POPC   GL1 1768   1.658   8.554   7.714
  102POPC   GL2 1769   1.766   8.887   7.744
  102POPC   C1A 1770   1.553   8.677   7.295
  102POPC   D2A 1771   1.677   8.916   6.906
  102POPC   C3A 1772   1.648   8.720   6.478
  102POPC   C4A 1773   1.779   8.452   6.105
  102POPC   C1B 1774   2.033   8.794   7.390
  102POPC   C2B 1775   2.196   8.863   7.030
  102POPC   C3B 1776   2.148   8.854   6.637
  102POPC   C4B 1777   2.127   8.807   6.226
  103POPC   NC3 1778   2.974   6.468   7.972
  103POPC   PO4 1779   2.447   5.988   8.126
  103POPC   GL1 1780   2.454   6.189   7.693
  103POPC   GL2 1781   2.514   6.521   7.702
  103POPC   C1A 1782   2.524   6.195   7.238
  103POPC   D2A 1783   2.455   6.060   6.806
  103POPC   C3A 1784   2.738   6.243   6.437
  103POPC   C4A 1785   2.560   6.439   6.053
  103POPC   C1B 1786   2.645   6.681   7.284
  103POPC   C2B 1787   2.652   6.531   6.860
  103POPC   C3B 1788   2.707   6.736   6.478
  103POPC   C4B 1789   2.883   6.855   6.091
  104POPC   NC3 1790   7.706   1.346   8.447
  104POPC   PO4 1791   7.186   1.494   7.960
  104POPC   GL1 1792   7.288   1.279   7.579
  104POPC   GL2 1793   7.485   0.979   7.723
  104POPC   C1A 1794   7.339   1.461   7.129
  104POPC   D2A 1795   7.476   1.449   6.665
  104POPC   C3A 1796   7.262   1.599   6.249
  104POPC   C4A 1797   7.437   1.501   5.800
  104POPC   C1B 1798   7.567   0.999   7.263
  104POPC   C2B 1799   7.243   0.999   6.922
  104POPC   C3B 1800   7.103   1.091   6.499
  104POPC   C4B 1801   7.485   1.144   6.241
  105POPC   NC3 1802   3.726  10.278   8.021
  105POPC   PO4 1803   3.274   9.840   8.157
  105POPC   GL1 1804   3.266  10.100   7.783
  105POPC   GL2 1805   3.254  10.482   7.795
  105POPC   C1A 1806   3.220  10.041   7.341
  105POPC   D2A 1807   3.361  10.245   6.962
  105POPC   C3A 1808   3.226  10.091   6.554
  105POPC   C4A 1809   3.509  10.155   6.245
  105POPC   C1B 1810   3.525  10.502   7.409
  105POPC   C2B 1811   3.775  10.532   7.024
  105POPC   C3B 1812   3.595  10.600   6.589
  105POPC   C4B 1813   3.841  10.560   6.199
  106POPC   NC3 1814   0.619   6.814   7.862
  106POPC   PO4 1815   0.179   6.510   8.282
  106POPC   GL1 1816   0.203   6.531   7.818
  106POPC   GL2 1817   0.463   6.328   7.650
  106POPC   C1A 1818   0.161   6.617   7.341
  106POPC   D2A 1819   0.141   6.408   6.925
  106POPC   C3A 1820   0.228   6.644   6.539
  106POPC   C4A 1821   0.274   6.639   6.104
  106POPC   C1B 1822   0.622   6.413   7.230
  106POPC   C2B 1823   0.603   6.728   6.911
  106POPC   C3B 1824   0.789   6.679   6.517
  106POPC   C4B 1825   0.693   6.366   6.235
  107POPC   NC3 1826   5.855  10.536   8.291
  107POPC   PO4 1827   5.606  11.221   8.109
  107POPC   GL1 1828   5.440  11.164   7.682
  107POPC   GL2 1829   5.716  11.340   7.604
  107POPC   C1A 1830   5.537  11.098   7.220
  107POPC   D2A 1831   5.875  10.934   7.001
  107POPC   C3A 1832   5.714  10.956   6.613
  107POPC   C4A 1833   5.838  10.740   6.265
  107POPC   C1B 1834   5.968  11.410   7.293
  107POPC   C2B 1835   5.848  11.427   6.903
  107POPC   C3B 1836   6.095  11.317   6.620
  107POPC   C4B 1837   5.956  11.237   6.256
  108POPC   NC3 1838   9.937   3.620   7.960
  108POPC   PO4 1839   9.882   3.030   7.813
  108POPC   GL1 1840   9.873   3.293   7.485
  108POPC   GL2 1841   9.869   3.647   7.435
  108POPC   C1A 1842   9.840   3.247   7.079
  108POPC   D2A 1843   9.882   3.116   6.724
  108POPC   C3A 1844   9.824   3.409   6.401
  108POPC   C4A 1845   9.632   3.382   6.002
  108POPC   C1B 1846   9.475   3.574   7.178
  108POPC   C2B 1847   9.418   3.400   6.750
  108POPC   C3B 1848   9.297   3.594   6.335
  108POPC   C4B 1849   9.479   3.864   5.990
  109POPC   NC3 1850   2.054   4.592   8.059
  109POPC   PO4 1851   2.053   3.995   8.144
  109POPC   GL1 1852   1.816   4.161   7.786
  109POPC   GL2 1853   2.144   4.177   7.646
  109POPC   C1A 1854   1.747   4.153   7.312
  109POPC   D2A 1855   1.625   4.190   6.861
  109POPC   C3A 1856   1.837   4.440   6.506
  109POPC   C4A 1857   1.898   4.754   6.148
  109POPC   C1B 1858   2.204   3.895   7.279
  109POPC   C2B 1859   2.120   4.019   6.854
  109POPC   C3B 1860   2.269   4.135   6.428
  109POPC   C4B 1861   1.999   4.189   6.079
  110POPC   NC3 1862  10.201   8.471   8.057
  110POPC   PO4 1863  10.357   9.125   8.248
  110POPC   GL1 1864  10.269   8.888   7.775
  110POPC   GL2 1865  10.573   8.677   7.680
  110POPC   C1A 1866  10.200   8.544   7.370
  110POPC   D2A 1867  10.427   8.579   6.943
  110POPC   C3A 1868  10.270   8.591   6.521
  110POPC   C4A 1869  10.252   8.752   6.090
  110POPC   C1B 1870  10.559   8.897   7.311
  110POPC   C2B 1871  10.799   8.998   6.990
  110POPC   C3B 1872  10.753   8.892   6.585
  110POPC   C4B 1873  10.699   8.993   6.185
  111POPC   NC3 1874   0.480   0.562   8.122
  111POPC   PO4 1875   0.307  11.416   8.109
  111POPC   GL1 1876   0.516   0.077   7.715
  111POPC   GL2 1877   0.488   0.448   7.596
  111POPC   C1A 1878   0.455   0.023   7.259
  111POPC   D2A 1879   0.371   0.257   6.865
  111POPC   C3A 1880   0.370   0.039   6.437
  111POPC   C4A 1881   0.462   0.138   5.970
  111POPC   C1B 1882   0.338   0.763   7.251
  111POPC   C2B 1883   0.364   0.805   6.793
  111POPC   C3B 1884   0.536   0.570   6.474
  111POPC   C4B 1885   0.829   0.510   6.168
  112POPC   NC3 1886  10.594   9.588   8.076
  112POPC   PO4 1887   9.959   9.816   8.200
  112POPC   GL1 1888  10.214   9.833   7.786
  112POPC   GL2 1889  10.401   9.563   7.623
  112POPC   C1A 1890  10.275   9.899   7.293
  112POPC   D2A 1891  10.070   9.662   6.956
  112POPC   C3A 1892  10.204   9.648   6.552
  112POPC   C4A 1893  10.002   9.700   6.151
  112POPC   C1B 1894  10.341   9.354   7.251
  112POPC   C2B 1895  10.285   9.102   6.886
  112POPC   C3B 1896  10.326   9.167   6.465
  112POPC   C4B 1897  10.474   9.467   6.137
  113POPC   NC3 1898   9.564  10.045   8.353
  113POPC   PO4 1899   9.311   9.589   7.919
  113POPC   GL1 1900   9.702   9.684   7.750
  113POPC   GL2 1901   9.913   9.430   7.624
  113POPC   C1A 1902   9.742   9.840   7.325
  113POPC   D2A 1903   9.546   9.726   6.928
  113POPC   C3A 1904   9.739   9.895   6.569
  113POPC   C4A 1905   9.544   9.942   6.183
  113POPC   C1B 1906   9.615   9.358   7.325
  113POPC   C2B 1907   9.771   9.259   6.942
  113POPC   C3B 1908   9.781   9.386   6.568
  113POPC   C4B 1909   9.575   9.400   6.230
  114POPC   NC3 1910  10.187  10.320   8.120
  114POPC   PO4 1911  10.847  10.101   8.272
  114POPC   GL1 1912  10.640  10.402   7.822
  114POPC   GL2 1913  10.340  10.304   7.644
  114POPC   C1A 1914  10.714  10.339   7.307
  114POPC   D2A 1915  10.489  10.423   6.920
  114POPC   C3A 1916  10.671  10.525   6.537
  114POPC   C4A 1917  10.746  10.224   6.277
  114POPC   C1B 1918  10.300  10.634   7.354
  114POPC   C2B 1919  10.081  10.733   6.970
  114POPC   C3B 1920  10.173  10.634   6.542
  114POPC   C4B 1921  10.344  10.475   6.118
  115POPC   NC3 1922  10.645   7.837   7.984
  115POPC   PO4 1923   9.977   8.011   8.072
  115POPC   GL1 1924  10.182   7.938   7.720
  115POPC   GL2 1925  10.404   8.184   7.675
  115POPC   C1A 1926  10.112   8.011   7.292
  115POPC   D2A 1927  10.028   8.257   6.947
  115POPC   C3A 1928  10.077   8.090   6.550
  115POPC   C4A 1929  10.070   8.260   6.142
  115POPC   C1B 1930  10.614   7.973   7.320
  115POPC   C2B 1931  10.575   8.090   6.874
  115POPC   C3B 1932  10.561   8.175   6.443
  115POPC   C4B 1933  10.523   7.908   6.096
  116POPC   NC3 1934   0.119   7.753   7.918
  116POPC   PO4 1935   0.603   7.296   7.871
  116POPC   GL1 1936   0.282   7.370   7.631
  116POPC   GL2 1937   0.153   7.032   7.664
  116POPC   C1A 1938   0.269   7.598   7.234
  116POPC   D2A 1939   0.034   7.590   6.835
  116POPC   C3A 1940   0.326   7.585   6.465
  116POPC   C4A 1941   0.665   7.455   6.177
  116POPC   C1B 1942   0.432   7.064   7.268
  116POPC   C2B 1943   0.444   7.260   6.868
  116POPC   C3B 1944   0.505   7.086   6.484
  116POPC   C4B 1945   0.672   6.972   6.080
  117POPC   NC3 1946   8.385   9.734   8.058
  117POPC   PO4 1947   7.687   9.631   8.154
  117POPC   GL1 1948   7.998   9.521   7.810
  117POPC   GL2 1949   7.968   9.858   7.737
  117POPC   C1A 1950   8.344   9.598   7.424
  117POPC   D2A 1951   8.435   9.738   6.959
  117POPC   C3A 1952   8.222   9.564   6.572
  117POPC   C4A 1953   8.066   9.730   6.212
  117POPC   C1B 1954   7.858   9.651   7.345
  117POPC   C2B 1955   7.903   9.710   6.937
  117POPC   C3B 1956   7.702   9.797   6.550
  117POPC   C4B 1957   7.652   9.417   6.277
  118POPC   NC3 1958   3.593   0.387   7.927
  118POPC   PO4 1959   3.806   1.039   7.961
  118POPC   GL1 1960   3.790   0.707   7.602
  118POPC   GL2 1961   3.785   0.348   7.461
  118POPC   C1A 1962   3.549   0.718   7.208
  118POPC   D2A 1963   3.350   0.546   6.836
  118POPC   C3A 1964   3.587   0.712   6.511
  118POPC   C4A 1965   3.645   0.750   6.051
  118POPC   C1B 1966   3.414   0.217   7.236
  118POPC   C2B 1967   3.378  11.445   6.907
  118POPC   C3B 1968   3.237   0.011   6.506
  118POPC   C4B 1969   3.361   0.363   6.245
  119POPC   NC3 1970  11.283   2.374   8.202
  119POPC   PO4 1971  10.740   2.725   8.225
  119POPC   GL1 1972  10.920   2.576   7.862
  119POPC   GL2 1973  11.239   2.769   7.870
  119POPC   C1A 1974  10.986   2.660   7.434
  119POPC   D2A 1975  10.865   2.736   7.036
  119POPC   C3A 1976  10.922   2.408   6.769
  119POPC   C4A 1977  10.922   2.407   6.315
  119POPC   C1B 1978  11.476   2.692   7.500
  119POPC   C2B 1979  11.427   2.732   7.048
  119POPC   C3B 1980  11.238   2.789   6.657
  119POPC   C4B 1981  11.426   2.720   6.292
  120POPC   NC3 1982   8.133  11.364   8.118
  120POPC   PO4 1983   7.739  10.826   8.127
  120POPC   GL1 1984   7.934  10.901   7.680
  120POPC   GL2 1985   7.945  11.244   7.620
  120POPC   C1A 1986   8.083  10.937   7.198
  120POPC   D2A 1987   8.284  11.107   6.817
  120POPC   C3A 1988   8.197  11.065   6.365
  120POPC   C4A 1989   8.015  10.823   6.036
  120POPC   C1B 1990   8.136  11.449   7.285
  120POPC   C2B 1991   8.323   0.095   6.940
  120POPC   C3B 1992   8.133   0.036   6.571
  120POPC   C4B 1993   8.260   0.070   6.186
  121POPC   NC3 1994   6.052   1.526   8.098
  121POPC   PO4 1995   5.387   1.569   8.115
  121POPC   GL1 1996   5.699   1.415   7.750
  121POPC   GL2 1997   5.925   1.099   7.701
  121POPC   C1A 1998   5.914   1.448   7.339
  121POPC   D2A 1999   5.777   1.353   6.923
  121POPC   C3A 2000   5.972   1.346   6.514
  121POPC   C4A 2001   5.745   1.315   6.083
  121POPC   C1B 2002   5.859   0.949   7.249
  121POPC   C2B 2003   5.600   0.877   6.870
  121POPC   C3B 2004   5.663   0.967   6.431
  121POPC   C4B 2005   6.109   0.989   6.149
  122POPC   NC3 2006  10.766   1.578   7.888
  122POPC   PO4 2007  11.377   1.929   8.090
  122POPC   GL1 2008  11.311   2.200   7.715
  122POPC   GL2 2009  11.207   1.875   7.569
  122POPC   C1A 2010  11.296   2.277   7.254
  122POPC   D2A 2011  11.476   2.125   6.898
  122POPC   C3A 2012  11.382   2.285   6.550
  122POPC   C4A 2013  11.369   2.241   6.140
  122POPC   C1B 2014  11.137   1.792   7.126
  122POPC   C2B 2015  11.027   1.922   6.709
  122POPC   C3B 2016  10.996   1.863   6.272
  122POPC   C4B 2017  10.901   1.672   5.863
  123POPC   NC3 2018   1.307   3.489   8.029
  123POPC   PO4 2019   1.064   4.059   8.007
  123POPC   GL1 2020   0.951   3.745   7.680
  123POPC   GL2 2021   1.277   3.608   7.528
  123POPC   C1A 2022   0.844   3.568   7.266
  123POPC   D2A 2023   1.118   3.536   6.913
  123POPC   C3A 2024   0.990   3.702   6.533
  123POPC   C4A 2025   1.146   3.660   6.125
  123POPC   C1B 2026   1.379   3.242   7.251
  123POPC   C2B 2027   1.502   3.188   6.795
  123POPC   C3B 2028   1.250   3.246   6.414
  123POPC   C4B 2029   1.330   3.206   5.929
  124POPC   NC3 2030   9.312  10.048   7.852
  124POPC   PO4 2031   9.740  10.459   8.237
  124POPC   GL1 2032   9.814  10.511   7.751
  124POPC   GL2 2033   9.829  10.177   7.728
  124POPC   C1A 2034   9.586  10.615   7.310
  124POPC   D2A 2035   9.523  10.241   6.999
  124POPC   C3A 2036   9.393  10.280   6.559
  124POPC   C4A 2037   9.393  10.655   6.322
  124POPC   C1B 2038   9.956  10.288   7.297
  124POPC   C2B 2039  10.054  10.166   6.884
  124POPC   C3B 2040  10.210  10.136   6.468
  124POPC   C4B 2041   9.876  10.316   6.232
  125POPC   NC3 2042  11.042   0.625   7.977
  125POPC   PO4 2043   0.142   0.875   8.049
  125POPC   GL1 2044   0.007   0.537   7.730
  125POPC   GL2 2045  11.281   0.230   7.713
  125POPC   C1A 2046   0.056   0.349   7.301
  125POPC   D2A 2047  11.419   0.554   6.933
  125POPC   C3A 2048   0.039   0.485   6.528
  125POPC   C4A 2049  11.498   0.256   6.181
  125POPC   C1B 2050  11.048   0.355   7.327
  125POPC   C2B 2051  10.932   0.270   6.909
  125POPC   C3B 2052  11.065   0.281   6.495
  125POPC   C4B 2053  11.062   0.532   6.186
  126POPC   NC3 2054   0.468   6.178   8.135
  126POPC   PO4 2055  11.456   5.654   8.245
  126POPC   GL1 2056   0.126   5.495   7.749
  126POPC   GL2 2057   0.482   5.665   7.711
  126POPC   C1A 2058   0.300   5.552   7.275
  126POPC   D2A 2059   0.316   5.872   6.983
  126POPC   C3A 2060   0.225   5.651   6.617
  126POPC   C4A 2061   0.380   5.620   6.225
  126POPC   C1B 2062   0.700   5.927   7.401
  126POPC   C2B 2063   0.833   5.966   6.968
  126POPC   C3B 2064   0.745   5.891   6.530
  126POPC   C4B 2065   0.815   5.890   6.093
  127POPC   NC3 2066  10.330   6.005   8.021
  127POPC   PO4 2067  10.856   6.284   8.204
  127POPC   GL1 2068  10.837   6.018   7.811
  127POPC   GL2 2069  10.606   5.755   7.680
  127POPC   C1A 2070  10.866   5.987   7.326
  127POPC   D2A 2071  10.974   5.996   6.878
  127POPC   C3A 2072  10.744   5.913   6.517
  127POPC   C4A 2073  10.577   6.239   6.243
  127POPC   C1B 2074  10.432   5.719   7.275
  127POPC   C2B 2075  10.363   5.828   6.848
  127POPC   C3B 2076  10.193   6.034   6.530
  127POPC   C4B 2077  10.317   5.797   6.251
  128POPC   NC3 2078   2.072   6.307   8.013
  128POPC   PO4 2079   1.774   6.845   8.115
  128POPC   GL1 2080   1.826   6.744   7.667
  128POPC   GL2 2081   1.719   6.443   7.672
  128POPC   C1A 2082   1.653   6.642   7.205
  128POPC   D2A 2083   1.647   6.484   6.753
  128POPC   C3A 2084   1.839   6.734   6.406
  128POPC   C4A 2085   2.275   6.878   6.278
  128POPC   C1B 2086   2.071   6.374   7.379
  128POPC   C2B 2087   2.141   6.428   6.958
  128POPC   C3B 2088   2.245   6.417   6.514
  128POPC   C4B 2089   2.013   6.325   6.145
  129POPC   NC3 2090  10.295   2.948   8.042
  129POPC   PO4 2091  10.024   2.337   8.105
  129POPC   GL1 2092  10.299   2.519   7.788
  129POPC   GL2 2093  10.053   2.612   7.587
  129POPC   C1A 2094  10.503   2.550   7.371
  129POPC   D2A 2095  10.441   2.417   6.944
  129POPC   C3A 2096  10.492   2.628   6.529
  129POPC   C4A 2097  10.298   2.532   6.113
  129POPC   C1B 2098  10.195   2.929   7.267
  129POPC   C2B 2099  10.376   2.985   6.901
  129POPC   C3B 2100  10.318   3.118   6.474
  129POPC   C4B 2101  10.480   3.016   6.095
  130POPC   NC3 2102   4.353  10.517   7.961
  130POPC   PO4 2103   3.727  10.726   8.060
  130POPC   GL1 2104   3.933  10.679   7.705
  130POPC   GL2 2105   4.005  10.370   7.605
  130POPC   C1A 2106   3.993  10.893   7.364
  130POPC   D2A 2107   4.210  10.938   6.995
  130POPC   C3A 2108   4.096  10.725   6.649
  130POPC   C4A 2109   4.356  10.625   6.300
  130POPC   C1B 2110   4.251  10.465   7.260
  130POPC   C2B 2111   4.249  10.293   6.866
  130POPC   C3B 2112   4.568  10.252   6.570
  130POPC   C4B 2113   4.590  10.176   6.145
  131POPC   NC3 2114   0.995   4.985   8.106
  131POPC   PO4 2115   1.637   4.777   8.017
  131POPC   GL1 2116   1.274   4.809   7.650
  131POPC   GL2 2117   1.039   5.097   7.627
  131POPC   C1A 2118   1.007   4.841   7.207
  131POPC   D2A 2119   0.918   4.950   6.771
  131POPC   C3A 2120   0.990   4.703   6.413
  131POPC   C4A 2121   1.102   4.967   6.142
  131POPC   C1B 2122   1.331   5.224   7.296
  131POPC   C2B 2123   1.420   5.021   6.905
  131POPC   C3B 2124   1.486   4.878   6.488
  131POPC   C4B 2125   1.474   5.264   6.283
  132POPC   NC3 2126   5.423   2.018   8.070
  132POPC   PO4 2127   6.070   2.018   8.087
  132POPC   GL1 2128   5.949   1.866   7.663
  132POPC   GL2 2129   5.595   1.893   7.609
  132POPC   C1A 2130   5.881   1.924   7.178
  132POPC   D2A 2131   5.922   1.815   6.733
  132POPC   C3A 2132   6.100   2.133   6.441
  132POPC   C4A 2133   5.971   2.493   6.196
  132POPC   C1B 2134   5.411   1.598   7.323
  132POPC   C2B 2135   5.281   1.448   6.907
  132POPC   C3B 2136   5.476   1.507   6.482
  132POPC   C4B 2137   5.789   1.789   6.224
  133POPC   NC3 2138  11.491  11.247   7.811
  133POPC   PO4 2139   0.201  10.850   8.294
  133POPC   GL1 2140   0.230  10.796   7.768
  133POPC   GL2 2141   0.427  11.066   7.596
  133POPC   C1A 2142   0.095  10.869   7.274
  133POPC   D2A 2143  11.458  11.039   6.831
  133POPC   C3A 2144   0.187  10.937   6.404
  133POPC   C4A 2145   0.152  10.810   5.898
  133POPC   C1B 2146   0.751  11.090   7.287
  133POPC   C2B 2147   0.793  11.292   6.911
  133POPC   C3B 2148   0.666  11.117   6.526
  133POPC   C4B 2149   0.534  11.135   6.077
  134POPC   NC3 2150   2.298   3.607   8.088
  134POPC   PO4 2151   1.692   3.254   7.974
  134POPC   GL1 2152   1.940   3.311   7.601
  134POPC   GL2 2153   1.970   3.668   7.665
  134POPC   C1A 2154   1.865   3.113   7.174
  134POPC   D2A 2155   2.000   3.012   6.758
  134POPC   C3A 2156   1.914   3.364   6.489
  134POPC   C4A 2157   1.636   3.514   6.175
  134POPC   C1B 2158   1.735   3.633   7.256
  134POPC   C2B 2159   1.641   3.682   6.816
  134POPC   C3B 2160   1.827   3.880   6.456
  134POPC   C4B 2161   2.139   3.704   6.140
  135POPC   NC3 2162   1.625   2.880   8.227
  135POPC   PO4 2163   2.216   2.448   8.045
  135POPC   GL1 2164   1.932   2.471   7.745
  135POPC   GL2 2165   1.873   2.818   7.776
  135POPC   C1A 2166   1.801   2.578   7.324
  135POPC   D2A 2167   1.827   2.328   6.957
  135POPC   C3A 2168   1.828   2.555   6.573
  135POPC   C4A 2169   1.635   2.480   6.177
  135POPC   C1B 2170   2.195   2.858   7.459
  135POPC   C2B 2171   2.286   2.538   7.093
  135POPC   C3B 2172   2.326   2.518   6.623
  135POPC   C4B 2173   2.167   2.818   6.302
  136POPC   NC3 2174   2.775   8.884   8.026
  136POPC   PO4 2175   2.513   8.422   7.763
  136POPC   GL1 2176   2.464   8.899   7.614
  136POPC   GL2 2177   2.772   9.114   7.562
  136POPC   C1A 2178   2.393   9.240   7.268
  136POPC   D2A 2179   2.584   9.160   6.850
  136POPC   C3A 2180   2.531   9.107   6.411
  136POPC   C4A 2181   2.570   8.888   5.982
  136POPC   C1B 2182   2.694   8.793   7.194
  136POPC   C2B 2183   2.577   8.607   6.772
  136POPC   C3B 2184   2.808   8.679   6.390
  136POPC   C4B 2185   3.044   9.077   6.263
  137POPC   NC3 2186   2.016   2.047   8.189
  137POPC   PO4 2187   1.524   1.583   8.041
  137POPC   GL1 2188   1.895   1.658   7.760
  137POPC   GL2 2189   2.152   1.930   7.721
  137POPC   C1A 2190   1.840   1.597   7.330
  137POPC   D2A 2191   1.586   1.806   6.992
  137POPC   C3A 2192   1.684   1.696   6.555
  137POPC   C4A 2193   1.742   1.959   6.178
  137POPC   C1B 2194   2.005   2.082   7.365
  137POPC   C2B 2195   2.090   1.873   6.967
  137POPC   C3B 2196   2.035   2.074   6.573
  137POPC   C4B 2197   2.136   2.300   6.192
  138POPC   NC3 2198   1.772  11.109   8.345
  138POPC   PO4 2199   1.699   0.182   8.030
  138POPC   GL1 2200   1.670  11.302   7.778
  138POPC   GL2 2201   1.954  11.060   7.819
  138POPC   C1A 2202   1.704  11.179   7.341
  138POPC   D2A 2203   1.925  11.312   6.966
  138POPC   C3A 2204   1.768  11.225   6.565
  138POPC   C4A 2205   1.748   0.030   6.259
  138POPC   C1B 2206   2.196  10.944   7.452
  138POPC   C2B 2207   2.196  10.866   7.013
  138POPC   C3B 2208   2.297  11.092   6.642
  138POPC   C4B 2209   2.148  11.031   6.241
  139POPC   NC3 2210   4.500  11.482   8.047
  139POPC   PO4 2211   4.726  10.776   8.064
  139POPC   GL1 2212   4.443  10.964   7.730
  139POPC   GL2 2213   4.131  11.157   7.788
  139POPC   C1A 2214   4.589  10.969   7.322
  139POPC   D2A 2215   4.647  11.228   6.974
  139POPC   C3A 2216   4.535  11.021   6.608
  139POPC   C4A 2217   4.705  11.015   6.245
  139POPC   C1B 2218   4.277  11.351   7.386
  139POPC   C2B 2219   4.168  11.454   6.976
  139POPC   C3B 2220   4.168  11.375   6.556
  139POPC   C4B 2221   4.069  11.048   6.266
  140POPC   NC3 2222   9.468   1.202   8.041
  140POPC   PO4 2223  10.059   1.338   8.066
  140POPC   GL1 2224   9.776   1.436   7.675
  140POPC   GL2 2225   9.531   1.144   7.557
  140POPC   C1A 2226   9.698   1.451   7.202
  140POPC   D2A 2227   9.361   1.440   6.876
  140POPC   C3A 2228   9.518   1.418   6.465
  140POPC   C4A 2229   9.877   1.425   6.233
  140POPC   C1B 2230   9.641   0.941   7.177
  140POPC   C2B 2231   9.720   1.064   6.767
  140POPC   C3B 2232   9.791   0.947   6.351
  140POPC   C4B 2233   9.426   0.849   6.122
  141POPC   NC3 2234   2.874  10.050   8.284
  141POPC   PO4 2235   2.729  10.671   8.049
  141POPC   GL1 2236   2.739  10.572   7.655
  141POPC   GL2 2237   2.793  10.227   7.610
  141POPC   C1A 2238   2.470  10.528   7.301
  141POPC   D2A 2239   2.495  10.367   6.909
  141POPC   C3A 2240   2.432  10.599   6.562
  141POPC   C4A 2241   2.504  10.427   6.179
  141POPC   C1B 2242   2.971  10.478   7.213
  141POPC   C2B 2243   2.969  10.498   6.739
  141POPC   C3B 2244   3.006  10.541   6.315
  141POPC   C4B 2245   2.955  10.186   6.106
  142POPC   NC3 2246   6.983   0.118   7.973
  142POPC   PO4 2247   7.724   0.040   7.970
  142POPC   GL1 2248   7.439   0.140   7.618
  142POPC   GL2 2249   7.333   0.471   7.727
  142POPC   C1A 2250   7.325   0.129   7.143
  142POPC   D2A 2251   7.428   0.055   6.679
  142POPC   C3A 2252   7.206   0.222   6.321
  142POPC   C4A 2253   7.389   0.287   5.893
  142POPC   C1B 2254   7.239   0.611   7.297
  142POPC   C2B 2255   7.200   0.506   6.837
  142POPC   C3B 2256   7.398   0.665   6.484
  142POPC   C4B 2257   7.206   0.730   6.108
  143POPC   NC3 2258   2.970   9.642   7.857
  143POPC   PO4 2259   2.441   9.982   8.102
  143POPC   GL1 2260   2.348   9.915   7.669
  143POPC   GL2 2261   2.517   9.598   7.600
  143POPC   C1A 2262   2.524   9.984   7.249
  143POPC   D2A 2263   2.874  10.031   6.950
  143POPC   C3A 2264   2.686  10.075   6.526
  143POPC   C4A 2265   2.427   9.903   6.160
  143POPC   C1B 2266   2.820   9.557   7.219
  143POPC   C2B 2267   2.877   9.565   6.762
  143POPC   C3B 2268   2.797   9.597   6.343
  143POPC   C4B 2269   2.707   9.360   6.006
  144POPC   NC3 2270   1.705   7.298   8.050
  144POPC   PO4 2271   1.975   7.839   8.373
  144POPC   GL1 2272   1.851   7.862   7.894
  144POPC   GL2 2273   2.070   8.110   7.752
  144POPC   C1A 2274   1.771   7.818   7.398
  144POPC   D2A 2275   1.914   7.941   6.929
  144POPC   C3A 2276   1.741   7.739   6.497
  144POPC   C4A 2277   1.800   7.866   6.039
  144POPC   C1B 2278   1.916   8.301   7.342
  144POPC   C2B 2279   1.947   8.456   6.902
  144POPC   C3B 2280   2.123   8.355   6.489
  144POPC   C4B 2281   2.236   8.138   6.096
  145POPC   NC3 2282   2.599   2.758   8.037
  145POPC   PO4 2283   3.102   2.321   8.229
  145POPC   GL1 2284   2.770   2.404   7.736
  145POPC   GL2 2285   2.473   2.469   7.584
  145POPC   C1A 2286   2.856   2.375   7.228
  145POPC   D2A 2287   2.785   2.540   6.831
  145POPC   C3A 2288   2.888   2.372   6.452
  145POPC   C4A 2289   3.055   2.458   6.081
  145POPC   C1B 2290   2.658   2.829   7.270
  145POPC   C2B 2291   2.510   2.952   6.830
  145POPC   C3B 2292   2.677   2.849   6.374
  145POPC   C4B 2293   2.513   3.020   5.931
  146POPC   NC3 2294  11.229   1.545   8.320
  146POPC   PO4 2295  10.819   1.054   8.091
  146POPC   GL1 2296  11.001   1.147   7.671
  146POPC   GL2 2297  11.376   1.135   7.691
  146POPC   C1A 2298  11.076   1.287   7.214
  146POPC   D2A 2299  11.137   1.436   6.754
  146POPC   C3A 2300  10.985   1.310   6.379
  146POPC   C4A 2301  10.678   1.003   6.402
  146POPC   C1B 2302  11.292   0.832   7.355
  146POPC   C2B 2303  10.998   0.819   6.990
  146POPC   C3B 2304  11.158   0.860   6.567
  146POPC   C4B 2305  11.443   0.865   6.198
  147POPC   NC3 2306   1.913   1.278   8.096
  147POPC   PO4 2307   2.349   1.718   8.145
  147POPC   GL1 2308   2.319   1.413   7.759
  147POPC   GL2 2309   2.121   1.098   7.671
  147POPC   C1A 2310   2.357   1.481   7.289
  147POPC   D2A 2311   2.384   1.260   6.856
  147POPC   C3A 2312   2.219   1.587   6.546
  147POPC   C4A 2313   1.977   1.518   6.140
  147POPC   C1B 2314   2.043   1.092   7.231
  147POPC   C2B 2315   1.876   1.341   6.889
  147POPC   C3B 2316   1.877   1.176   6.486
  147POPC   C4B 2317   1.599   1.138   6.138
  148POPC   NC3 2318  11.492  11.241   8.417
  148POPC   PO4 2319  11.248  10.867   7.912
  148POPC   GL1 2320  11.146  11.055   7.507
  148POPC   GL2 2321  10.956  11.320   7.676
  148POPC   C1A 2322  11.350  11.382   7.209
  148POPC   D2A 2323  11.404   0.055   6.796
  148POPC   C3A 2324  11.334  11.320   6.405
  148POPC   C4A 2325   0.065  11.285   6.011
  148POPC   C1B 2326  10.841  11.373   7.267
  148POPC   C2B 2327  10.974  11.246   6.896
  148POPC   C3B 2328  10.838  11.335   6.537
  148POPC   C4B 2329  10.877  11.151   6.187
  149POPC   NC3 2330   5.216   8.770   8.021
  149POPC   PO4 2331   4.651   8.417   8.081
  149POPC   GL1 2332   4.809   8.656   7.690
  149POPC   GL2 2333   4.879   9.028   7.728
  149POPC   C1A 2334   5.041   8.796   7.298
  149POPC   D2A 2335   4.903   8.939   6.900
  149POPC   C3A 2336   4.992   8.791   6.514
  149POPC   C4A 2337   4.691   8.470   6.376
  149POPC   C1B 2338   4.861   9.280   7.341
  149POPC   C2B 2339   4.740   9.412   6.930
  149POPC   C3B 2340   4.854   9.351   6.496
  149POPC   C4B 2341   5.091   9.468   6.109
  150POPC   NC3 2342   4.381   9.524   8.070
  150POPC   PO4 2343   4.503  10.104   8.056
  150POPC   GL1 2344   4.186   9.901   7.735
  150POPC   GL2 2345   4.085   9.527   7.662
  150POPC   C1A 2346   4.234   9.900   7.266
  150POPC   D2A 2347   4.541   9.875   6.913
  150POPC   C3A 2348   4.314   9.832   6.505
  150POPC   C4A 2349   4.075  10.088   6.222
  150POPC   C1B 2350   4.332   9.377   7.303
  150POPC   C2B 2351   4.207   9.484   6.879
  150POPC   C3B 2352   4.194   9.341   6.447
  150POPC   C4B 2353   4.122   9.529   6.051
  151POPC   NC3 2354   8.961   1.991   8.033
  151POPC   PO4 2355   9.111   1.412   7.834
  151POPC   GL1 2356   8.984   1.715   7.576
  151POPC   GL2 2357   8.954   2.087   7.542
  151POPC   C1A 2358   9.011   1.676   7.169
  151POPC   D2A 2359   8.754   1.732   6.869
  151POPC   C3A 2360   9.004   1.708   6.540
  151POPC   C4A 2361   8.810   1.778   6.175
  151POPC   C1B 2362   8.854   2.169   7.126
  151POPC   C2B 2363   9.119   2.137   6.773
  151POPC   C3B 2364   9.090   2.197   6.332
  151POPC   C4B 2365   8.692   2.307   6.148
  152POPC   NC3 2366  10.575  11.323   8.027
  152POPC   PO4 2367  10.257  10.772   8.010
  152POPC   GL1 2368  10.445  11.018   7.639
  152POPC   GL2 2369  10.424  11.376   7.568
  152POPC   C1A 2370  10.416  11.088   7.179
  152POPC   D2A 2371  10.579  10.927   6.853
  152POPC   C3A 2372  10.401  11.098   6.560
  152POPC   C4A 2373  10.408  10.953   6.191
  152POPC   C1B 2374  10.062   0.014   7.361
  152POPC   C2B 2375   9.944   0.117   6.962
  152POPC   C3B 2376  10.058   0.076   6.549
  152POPC   C4B 2377  10.237  11.419   6.197
  153POPC   NC3 2378   2.027   9.532   8.169
  153POPC   PO4 2379   2.337   8.988   8.082
  153POPC   GL1 2380   2.112   9.268   7.720
  153POPC   GL2 2381   1.896   9.598   7.693
  153POPC   C1A 2382   1.875   9.260   7.311
  153POPC   D2A 2383   1.994   9.336   6.890
  153POPC   C3A 2384   1.859   9.219   6.471
  153POPC   C4A 2385   2.149   9.308   6.155
  153POPC   C1B 2386   1.831   9.773   7.295
  153POPC   C2B 2387   2.100   9.856   6.944
  153POPC   C3B 2388   2.169   9.677   6.544
  153POPC   C4B 2389   1.932   9.754   6.185
  154POPC   NC3 2390   6.059  11.247   7.957
  154POPC   PO4 2391   6.188  10.621   7.927
  154POPC   GL1 2392   6.347  10.951   7.602
  154POPC   GL2 2393   6.385  11.332   7.572
  154POPC   C1A 2394   6.358  11.048   7.161
  154POPC   D2A 2395   6.546  11.101   6.765
  154POPC   C3A 2396   6.256  10.852   6.534
  154POPC   C4A 2397   6.294  10.792   6.097
  154POPC   C1B 2398   6.716  11.412   7.157
  154POPC   C2B 2399   6.915   0.071   6.787
  154POPC   C3B 2400   6.711   0.087   6.383
  154POPC   C4B 2401   6.476  11.244   6.252
  155POPC   NC3 2402   8.413   8.789   8.139
  155POPC   PO4 2403   9.029   8.839   8.169
  155POPC   GL1 2404   8.806   8.925   7.794
  155POPC   GL2 2405   8.622   8.637   7.689
  155POPC   C1A 2406   8.765   9.036   7.356
  155POPC   D2A 2407   8.597   8.830   6.979
  155POPC   C3A 2408   8.469   9.131   6.694
  155POPC   C4A 2409   8.669   9.232   6.313
  155POPC   C1B 2410   9.009   8.586   7.426
  155POPC   C2B 2411   9.070   8.640   6.960
  155POPC   C3B 2412   8.925   8.878   6.589
  155POPC   C4B 2413   8.811   8.767   6.152
  156POPC   NC3 2414   4.124   1.363   7.937
  156POPC   PO4 2415   4.660   1.011   7.964
  156POPC   GL1 2416   4.480   1.195   7.613
  156POPC   GL2 2417   4.430   0.877   7.461
  156POPC   C1A 2418   4.353   1.349   7.218
  156POPC   D2A 2419   4.353   1.088   6.877
  156POPC   C3A 2420   4.394   1.320   6.548
  156POPC   C4A 2421   4.447   1.361   6.168
  156POPC   C1B 2422   4.041   0.942   7.258
  156POPC   C2B 2423   3.848   1.006   6.866
  156POPC   C3B 2424   4.044   0.947   6.474
  156POPC   C4B 2425   4.038   1.075   6.049
  157POPC   NC3 2426   0.885   8.144   3.990
  157POPC   PO4 2427   1.437   7.765   3.942
  157POPC   GL1 2428   1.401   7.967   4.311
  157POPC   GL2 2429   1.296   8.294   4.259
  157POPC   C1A 2430   1.294   7.825   4.712
  157POPC   D2A 2431   1.205   7.560   5.050
  157POPC   C3A 2432   1.286   7.844   5.381
  157POPC   C4A 2433   1.361   7.760   5.793
  157POPC   C1B 2434   1.016   8.257   4.627
  157POPC   C2B 2435   0.945   8.067   5.021
  157POPC   C3B 2436   0.875   8.147   5.445
  157POPC   C4B 2437   1.109   8.198   5.793
  158POPC   NC3 2438   3.621   1.784   4.084
  158POPC   PO4 2439   4.144   2.264   3.896
  158POPC   GL1 2440   3.839   2.199   4.358
  158POPC   GL2 2441   3.513   2.017   4.522
  158POPC   C1A 2442   3.849   2.236   4.799
  158POPC   D2A 2443   3.525   2.017   5.062
  158POPC   C3A 2444   3.545   2.178   5.476
  158POPC   C4A 2445   3.470   2.190   5.903
  158POPC   C1B 2446   3.474   1.600   4.724
  158POPC   C2B 2447   3.587   1.416   5.120
  158POPC   C3B 2448   3.707   1.655   5.461
  158POPC   C4B 2449   3.340   1.743   5.722
  159POPC   NC3 2450   0.705   5.686   3.935
  159POPC   PO4 2451   0.898   6.286   3.933
  159POPC   GL1 2452   0.603   6.150   4.251
  159POPC   GL2 2453   0.383   5.886   4.250
  159POPC   C1A 2454   0.629   5.961   4.684
  159POPC   D2A 2455   0.791   5.858   5.109
  159POPC   C3A 2456   0.515   5.791   5.453
  159POPC   C4A 2457   0.615   5.537   5.789
  159POPC   C1B 2458   0.306   5.581   4.626
  159POPC   C2B 2459   0.177   5.725   5.053
  159POPC   C3B 2460   0.036   5.571   5.479
  159POPC   C4B 2461  11.466   5.730   5.920
  160POPC   NC3 2462   2.030   4.545   4.112
  160POPC   PO4 2463   1.705   4.107   3.791
  160POPC   GL1 2464   1.592   4.066   4.239
  160POPC   GL2 2465   1.914   4.070   4.453
  160POPC   C1A 2466   1.476   4.290   4.626
  160POPC   D2A 2467   1.764   4.440   4.911
  160POPC   C3A 2468   1.659   4.328   5.328
  160POPC   C4A 2469   1.745   4.453   5.735
  160POPC   C1B 2470   2.198   3.777   4.748
  160POPC   C2B 2471   2.258   3.780   5.223
  160POPC   C3B 2472   2.136   4.071   5.590
  160POPC   C4B 2473   2.269   4.492   5.786
  161POPC   NC3 2474   0.493   1.496   4.178
  161POPC   PO4 2475   0.423   1.002   3.729
  161POPC   GL1 2476   0.396   0.984   4.242
  161POPC   GL2 2477   0.564   1.149   4.541
  161POPC   C1A 2478   0.144   0.902   4.674
  161POPC   D2A 2479   0.264   1.183   5.022
  161POPC   C3A 2480   0.407   1.058   5.425
  161POPC   C4A 2481   0.233   1.091   5.848
  161POPC   C1B 2482   0.626   1.518   4.837
  161POPC   C2B 2483   0.584   1.531   5.285
  161POPC   C3B 2484   0.585   1.434   5.701
  161POPC   C4B 2485   0.730   0.983   5.858
  162POPC   NC3 2486   2.273   1.575   4.118
  162POPC   PO4 2487   2.560   0.950   3.927
  162POPC   GL1 2488   2.421   1.066   4.337
  162POPC   GL2 2489   2.064   1.114   4.335
  162POPC   C1A 2490   2.335   0.897   4.765
  162POPC   D2A 2491   2.048   0.907   5.145
  162POPC   C3A 2492   2.226   1.010   5.539
  162POPC   C4A 2493   2.064   1.005   5.991
  162POPC   C1B 2494   1.948   1.266   4.758
  162POPC   C2B 2495   1.855   1.368   5.209
  162POPC   C3B 2496   1.855   1.346   5.645
  162POPC   C4B 2497   1.566   1.593   5.816
  163POPC   NC3 2498   1.235   3.283   4.062
  163POPC   PO4 2499   0.804   3.677   3.736
  163POPC   GL1 2500   0.844   3.503   4.291
  163POPC   GL2 2501   1.157   3.531   4.502
  163POPC   C1A 2502   0.833   3.343   4.790
  163POPC   D2A 2503   0.969   3.554   5.212
  163POPC   C3A 2504   0.917   3.429   5.677
  163POPC   C4A 2505   0.850   3.227   6.099
  163POPC   C1B 2506   1.442   3.301   4.713
  163POPC   C2B 2507   1.507   3.450   5.073
  163POPC   C3B 2508   1.512   3.345   5.463
  163POPC   C4B 2509   1.359   3.686   5.682
  164POPC   NC3 2510   9.617   7.500   3.834
  164POPC   PO4 2511   9.810   6.976   4.005
  164POPC   GL1 2512   9.730   7.260   4.332
  164POPC   GL2 2513   9.953   7.507   4.375
  164POPC   C1A 2514   9.624   7.286   4.783
  164POPC   D2A 2515   9.349   7.520   5.101
  164POPC   C3A 2516   9.388   7.343   5.532
  164POPC   C4A 2517   9.483   7.351   5.962
  164POPC   C1B 2518  10.157   7.371   4.769
  164POPC   C2B 2519  10.103   7.059   5.098
  164POPC   C3B 2520   9.848   7.068   5.464
  164POPC   C4B 2521   9.914   7.451   5.695
  165POPC   NC3 2522  11.179   3.097   3.980
  165POPC   PO4 2523  10.891   2.427   3.969
  165POPC   GL1 2524  10.985   2.525   4.365
  165POPC   GL2 2525  11.301   2.716   4.351
  165POPC   C1A 2526  11.149   2.427   4.765
  165POPC   D2A 2527  10.909   2.558   5.097
  165POPC   C3A 2528  11.120   2.452   5.434
  165POPC   C4A 2529  11.239   2.628   5.824
  165POPC   C1B 2530  11.485   2.825   4.776
  165POPC   C2B 2531  11.298   2.904   5.178
  165POPC   C3B 2532  11.274   3.084   5.562
  165POPC   C4B 2533   0.002   3.056   5.938
  166POPC   NC3 2534  11.125   8.763   3.721
  166POPC   PO4 2535  10.938   9.087   4.324
  166POPC   GL1 2536  11.023   8.700   4.480
  166POPC   GL2 2537  11.228   8.631   4.219
  166POPC   C1A 2538  11.159   8.673   4.908
  166POPC   D2A 2539  11.246   9.042   5.159
  166POPC   C3A 2540  10.923   9.064   5.446
  166POPC   C4A 2541  10.898   8.782   5.780
  166POPC   C1B 2542  11.410   8.372   4.570
  166POPC   C2B 2543  11.490   8.306   5.038
  166POPC   C3B 2544  11.499   8.620   5.389
  166POPC   C4B 2545  11.386   8.678   5.823
  167POPC   NC3 2546   8.831   5.408   3.922
  167POPC   PO4 2547   8.546   5.968   3.947
  167POPC   GL1 2548   8.691   5.711   4.317
  167POPC   GL2 2549   9.047   5.613   4.342
  167POPC   C1A 2550   8.766   5.695   4.774
  167POPC   D2A 2551   8.740   5.434   5.148
  167POPC   C3A 2552   8.715   5.555   5.591
  167POPC   C4A 2553   8.460   5.734   5.949
  167POPC   C1B 2554   9.277   5.813   4.701
  167POPC   C2B 2555   9.125   5.830   5.149
  167POPC   C3B 2556   9.189   5.763   5.604
  167POPC   C4B 2557   8.970   5.740   6.015
  168POPC   NC3 2558   8.336   3.552   4.027
  168POPC   PO4 2559   8.008   3.948   4.214
  168POPC   GL1 2560   8.140   3.595   4.516
  168POPC   GL2 2561   8.436   3.365   4.493
  168POPC   C1A 2562   8.258   3.469   4.955
  168POPC   D2A 2563   8.555   3.563   5.291
  168POPC   C3A 2564   8.349   3.669   5.700
  168POPC   C4A 2565   7.935   3.663   5.924
  168POPC   C1B 2566   8.493   3.025   4.812
  168POPC   C2B 2567   8.439   3.047   5.280
  168POPC   C3B 2568   8.219   3.124   5.691
  168POPC   C4B 2569   8.149   2.874   6.079
  169POPC   NC3 2570   8.978   9.034   4.109
  169POPC   PO4 2571   8.442   9.147   3.704
  169POPC   GL1 2572   8.528   8.836   4.200
  169POPC   GL2 2573   8.771   8.612   4.321
  169POPC   C1A 2574   8.612   8.875   4.722
  169POPC   D2A 2575   8.710   8.630   5.135
  169POPC   C3A 2576   8.610   8.762   5.573
  169POPC   C4A 2577   8.684   9.117   5.796
  169POPC   C1B 2578   9.067   8.647   4.707
  169POPC   C2B 2579   9.222   8.623   5.136
  169POPC   C3B 2580   9.112   8.831   5.519
  169POPC   C4B 2581   9.245   8.701   5.915
  170POPC   NC3 2582  10.509   1.363   3.876
  170POPC   PO4 2583   9.982   0.812   3.899
  170POPC   GL1 2584  10.064   1.223   4.115
  170POPC   GL2 2585  10.355   1.115   4.305
  170POPC   C1A 2586  10.065   1.505   4.498
  170POPC   D2A 2587  10.181   1.372   4.900
  170POPC   C3A 2588  10.140   1.485   5.324
  170POPC   C4A 2589  10.005   1.419   5.742
  170POPC   C1B 2590  10.594   1.167   4.696
  170POPC   C2B 2591  10.513   1.099   5.162
  170POPC   C3B 2592  10.459   1.204   5.604
  170POPC   C4B 2593  10.718   1.212   5.933
  171POPC   NC3 2594   8.202   8.751   3.835
  171POPC   PO4 2595   8.509   9.328   4.177
  171POPC   GL1 2596   8.199   9.151   4.423
  171POPC   GL2 2597   8.027   8.916   4.267
  171POPC   C1A 2598   8.167   9.085   4.832
  171POPC   D2A 2599   8.291   8.927   5.209
  171POPC   C3A 2600   8.216   9.124   5.594
  171POPC   C4A 2601   8.291   9.349   6.000
  171POPC   C1B 2602   8.213   8.628   4.558
  171POPC   C2B 2603   8.242   8.475   4.963
  171POPC   C3B 2604   8.221   8.465   5.421
  171POPC   C4B 2605   7.990   8.538   5.797
  172POPC   NC3 2606   6.644   0.318   3.687
  172POPC   PO4 2607   7.097   0.629   3.893
  172POPC   GL1 2608   6.913   0.307   4.167
  172POPC   GL2 2609   6.550   0.327   4.194
  172POPC   C1A 2610   6.855   0.236   4.613
  172POPC   D2A 2611   6.892   0.386   5.052
  172POPC   C3A 2612   6.748   0.363   5.490
  172POPC   C4A 2613   6.861   0.383   5.955
  172POPC   C1B 2614   6.344   0.414   4.598
  172POPC   C2B 2615   6.356   0.524   5.056
  172POPC   C3B 2616   6.246   0.386   5.498
  172POPC   C4B 2617   6.295   0.567   5.915
  173POPC   NC3 2618   3.425   8.304   3.555
  173POPC   PO4 2619   2.959   8.091   3.920
  173POPC   GL1 2620   3.009   8.292   4.355
  173POPC   GL2 2621   3.359   8.182   4.383
  173POPC   C1A 2622   3.167   8.343   4.819
  173POPC   D2A 2623   3.367   8.149   5.229
  173POPC   C3A 2624   3.397   8.289   5.687
  173POPC   C4A 2625   3.563   8.438   6.094
  173POPC   C1B 2626   3.434   7.903   4.758
  173POPC   C2B 2627   3.645   7.712   5.133
  173POPC   C3B 2628   3.680   7.851   5.571
  173POPC   C4B 2629   3.940   8.147   5.810
  174POPC   NC3 2630   9.525   9.728   3.888
  174POPC   PO4 2631  10.026   9.304   3.978
  174POPC   GL1 2632   9.915   9.614   4.243
  174POPC   GL2 2633   9.628   9.415   4.354
  174POPC   C1A 2634   9.829   9.851   4.632
  174POPC   D2A 2635   9.840  10.068   5.043
  174POPC   C3A 2636   9.603   9.996   5.428
  174POPC   C4A 2637   9.836  10.026   5.789
  174POPC   C1B 2638   9.623   9.400   4.809
  174POPC   C2B 2639   9.905   9.366   5.172
  174POPC   C3B 2640   9.883   9.491   5.622
  174POPC   C4B 2641   9.463   9.601   5.784
  175POPC   NC3 2642   8.943   0.467   3.743
  175POPC   PO4 2643   8.468   0.793   3.718
  175POPC   GL1 2644   8.883   0.591   4.206
  175POPC   GL2 2645   8.956   0.247   4.210
  175POPC   C1A 2646   8.869   0.688   4.708
  175POPC   D2A 2647   8.663   0.726   5.140
  175POPC   C3A 2648   8.932   0.641   5.496
  175POPC   C4A 2649   9.377   0.677   5.653
  175POPC   C1B 2650   8.809   0.155   4.634
  175POPC   C2B 2651   8.855   0.237   5.075
  175POPC   C3B 2652   8.637   0.218   5.457
  175POPC   C4B 2653   8.474   0.338   5.818
  176POPC   NC3 2654   8.115   9.421   3.889
  176POPC   PO4 2655   7.726   8.886   3.854
  176POPC   GL1 2656   7.733   9.311   4.184
  176POPC   GL2 2657   8.034   9.614   4.332
  176POPC   C1A 2658   7.763   9.346   4.640
  176POPC   D2A 2659   7.756   9.275   5.056
  176POPC   C3A 2660   7.780   9.631   5.313
  176POPC   C4A 2661   7.966   9.579   5.698
  176POPC   C1B 2662   8.172   9.638   4.773
  176POPC   C2B 2663   8.264   9.451   5.178
  176POPC   C3B 2664   8.487   9.545   5.533
  176POPC   C4B 2665   8.365   9.887   5.790
  177POPC   NC3 2666   2.979   0.305   4.022
  177POPC   PO4 2667   2.396   0.177   3.783
  177POPC   GL1 2668   2.510   0.253   4.231
  177POPC   GL2 2669   2.646   0.595   4.309
  177POPC   C1A 2670   2.425   0.331   4.687
  177POPC   D2A 2671   2.230   0.449   5.057
  177POPC   C3A 2672   2.501   0.490   5.405
  177POPC   C4A 2673   2.519   0.273   5.806
  177POPC   C1B 2674   2.835   0.668   4.752
  177POPC   C2B 2675   2.976   0.643   5.212
  177POPC   C3B 2676   2.894   0.757   5.660
  177POPC   C4B 2677   3.014   0.724   6.113
  178POPC   NC3 2678   2.082  11.375   3.944
  178POPC   PO4 2679   1.557  11.021   3.708
  178POPC   GL1 2680   1.601  11.258   4.155
  178POPC   GL2 2681   1.906  11.101   4.332
  178POPC   C1A 2682   1.591  11.330   4.635
  178POPC   D2A 2683   1.892  11.159   4.984
  178POPC   C3A 2684   1.768  11.247   5.438
  178POPC   C4A 2685   1.830  11.074   5.861
  178POPC   C1B 2686   2.261  11.329   4.558
  178POPC   C2B 2687   2.395  11.388   4.958
  178POPC   C3B 2688   2.399  11.101   5.272
  178POPC   C4B 2689   2.351  11.157   5.724
  179POPC   NC3 2690  10.677   8.765   4.102
  179POPC   PO4 2691  10.066   8.483   3.951
  179POPC   GL1 2692  10.143   8.863   4.222
  179POPC   GL2 2693  10.347   8.777   4.480
  179POPC   C1A 2694   9.961   9.059   4.624
  179POPC   D2A 2695  10.159   8.930   5.041
  179POPC   C3A 2696  10.011   8.940   5.489
  179POPC   C4A 2697  10.089   8.491   5.665
  179POPC   C1B 2698  10.631   8.765   4.801
  179POPC   C2B 2699  10.713   8.693   5.180
  179POPC   C3B 2700  10.483   8.767   5.510
  179POPC   C4B 2701  10.440   9.113   5.768
  180POPC   NC3 2702   2.372  10.224   3.871
  180POPC   PO4 2703   3.011   9.963   3.858
  180POPC   GL1 2704   2.715  10.046   4.206
  180POPC   GL2 2705   2.620  10.407   4.276
  180POPC   C1A 2706   2.684  10.033   4.666
  180POPC   D2A 2707   2.995  10.148   5.004
  180POPC   C3A 2708   2.854  10.159   5.448
  180POPC   C4A 2709   2.462  10.179   5.725
  180POPC   C1B 2710   2.771  10.532   4.671
  180POPC   C2B 2711   2.550  10.429   5.051
  180POPC   C3B 2712   2.509  10.603   5.444
  180POPC   C4B 2713   2.818  10.561   5.789
  181POPC   NC3 2714  11.342   4.290   4.010
  181POPC   PO4 2715  11.240   4.939   3.803
  181POPC   GL1 2716  11.274   4.729   4.256
  181POPC   GL2 2717  11.038   4.443   4.374
  181POPC   C1A 2718  11.429   4.609   4.672
  181POPC   D2A 2719  11.172   4.442   5.026
  181POPC   C3A 2720  11.354   4.492   5.436
  181POPC   C4A 2721  11.089   4.497   5.764
  181POPC   C1B 2722  11.230   4.132   4.635
  181POPC   C2B 2723  11.355   3.933   5.039
  181POPC   C3B 2724  11.212   3.999   5.454
  181POPC   C4B 2725  11.343   4.037   5.861
  182POPC   NC3 2726   2.703  11.095   3.509
  182POPC   PO4 2727   2.926  10.515   3.870
  182POPC   GL1 2728   2.868  10.880   4.274
  182POPC   GL2 2729   2.728  11.257   4.248
  182POPC   C1A 2730   2.774  11.048   4.717
  182POPC   D2A 2731   2.861  10.822   5.109
  182POPC   C3A 2732   2.845  10.995   5.516
  182POPC   C4A 2733   3.107  10.966   5.913
  182POPC   C1B 2734   2.824   0.042   4.594
  182POPC   C2B 2735   2.828   0.177   5.021
  182POPC   C3B 2736   2.702  11.493   5.420
  182POPC   C4B 2737   2.805  11.359   5.853
  183POPC   NC3 2738   9.031   8.205   3.961
  183POPC   PO4 2739   8.448   8.360   3.935
  183POPC   GL1 2740   8.650   8.128   4.317
  183POPC   GL2 2741   8.996   7.968   4.398
  183POPC   C1A 2742   8.734   8.263   4.754
  183POPC   D2A 2743   8.572   8.126   5.158
  183POPC   C3A 2744   8.714   8.256   5.556
  183POPC   C4A 2745   8.520   8.382   5.950
  183POPC   C1B 2746   9.165   7.946   4.818
  183POPC   C2B 2747   9.050   7.926   5.253
  183POPC   C3B 2748   9.090   7.804   5.678
  183POPC   C4B 2749   8.735   7.828   5.982
  184POPC   NC3 2750   1.169  10.313   3.886
  184POPC   PO4 2751   1.539  10.763   4.187
  184POPC   GL1 2752   1.464  10.348   4.304
  184POPC   GL2 2753   1.113  10.526   4.325
  184POPC   C1A 2754   1.599  10.115   4.689
  184POPC   D2A 2755   1.648  10.307   5.116
  184POPC   C3A 2756   1.566  10.064   5.486
  184POPC   C4A 2757   1.546   9.890   5.889
  184POPC   C1B 2758   1.145  10.356   4.698
  184POPC   C2B 2759   1.150  10.531   5.066
  184POPC   C3B 2760   1.237  10.452   5.446
  184POPC   C4B 2761   1.066  10.600   5.783
  185POPC   NC3 2762   4.584   8.939   3.872
  185POPC   PO4 2763   4.052   9.156   3.824
  185POPC   GL1 2764   4.124   9.168   4.282
  185POPC   GL2 2765   4.344   8.943   4.392
  185POPC   C1A 2766   4.074   9.224   4.768
  185POPC   D2A 2767   4.186   9.393   5.222
  185POPC   C3A 2768   4.040   9.232   5.637
  185POPC   C4A 2769   4.152   9.010   6.042
  185POPC   C1B 2770   4.562   9.071   4.776
  185POPC   C2B 2771   4.559   8.961   5.196
  185POPC   C3B 2772   4.469   8.956   5.617
  185POPC   C4B 2773   4.517   8.643   5.937
  186POPC   NC3 2774  11.150   9.377   4.039
  186POPC   PO4 2775  10.739  10.005   3.982
  186POPC   GL1 2776  10.916   9.971   4.403
  186POPC   GL2 2777  11.151   9.705   4.429
  186POPC   C1A 2778  10.809   9.733   4.811
  186POPC   D2A 2779  10.882   9.564   5.240
  186POPC   C3A 2780  11.039   9.844   5.539
  186POPC   C4A 2781  11.429   9.908   5.747
  186POPC   C1B 2782  11.267   9.472   4.815
  186POPC   C2B 2783  11.433   9.558   5.230
  186POPC   C3B 2784  11.269   9.405   5.592
  186POPC   C4B 2785  10.916   9.323   5.873
  187POPC   NC3 2786   2.353   5.962   3.728
  187POPC   PO4 2787   3.028   6.148   3.848
  187POPC   GL1 2788   2.737   6.050   4.200
  187POPC   GL2 2789   2.505   5.743   4.170
  187POPC   C1A 2790   2.899   5.952   4.647
  187POPC   D2A 2791   3.155   5.975   5.050
  187POPC   C3A 2792   2.977   5.973   5.490
  187POPC   C4A 2793   3.018   6.269   5.851
  187POPC   C1B 2794   2.414   5.798   4.607
  187POPC   C2B 2795   2.323   5.877   5.054
  187POPC   C3B 2796   2.463   5.782   5.471
  187POPC   C4B 2797   2.505   5.460   5.793
  188POPC   NC3 2798  11.404   8.018   3.988
  188POPC   PO4 2799  10.716   8.244   3.850
  188POPC   GL1 2800  10.948   8.213   4.236
  188POPC   GL2 2801  11.060   7.899   4.354
  188POPC   C1A 2802  10.923   8.243   4.692
  188POPC   D2A 2803  10.772   8.183   5.082
  188POPC   C3A 2804  11.046   8.373   5.368
  188POPC   C4A 2805  11.068   8.294   5.781
  188POPC   C1B 2806  11.353   7.897   4.701
  188POPC   C2B 2807  11.194   7.874   5.090
  188POPC   C3B 2808  11.351   7.978   5.464
  188POPC   C4B 2809  11.353   7.879   5.888
  189POPC   NC3 2810   1.751   9.845   4.062
  189POPC   PO4 2811   1.169   9.881   3.717
  189POPC   GL1 2812   1.228   9.865   4.175
  189POPC   GL2 2813   1.343   9.541   4.214
  189POPC   C1A 2814   1.133   9.844   4.631
  189POPC   D2A 2815   1.228   9.988   5.061
  189POPC   C3A 2816   0.930   9.935   5.390
  189POPC   C4A 2817   1.084  10.078   5.766
  189POPC   C1B 2818   1.538   9.532   4.634
  189POPC   C2B 2819   1.360   9.460   5.048
  189POPC   C3B 2820   1.407   9.580   5.461
  189POPC   C4B 2821   1.139   9.573   5.800
  190POPC   NC3 2822   1.271   7.317   3.891
  190POPC   PO4 2823   1.552   6.800   3.707
  190POPC   GL1 2824   1.486   6.935   4.155
  190POPC   GL2 2825   1.163   6.850   4.292
  190POPC   C1A 2826   1.487   7.053   4.629
  190POPC   D2A 2827   1.649   7.158   5.060
  190POPC   C3A 2828   1.450   7.328   5.462
  190POPC   C4A 2829   1.675   7.367   5.868
  190POPC   C1B 2830   0.963   6.961   4.713
  190POPC   C2B 2831   0.843   7.062   5.161
  190POPC   C3B 2832   0.927   6.991   5.611
  190POPC   C4B 2833   1.131   7.232   5.938
  191POPC   NC3 2834   9.825   5.507   3.879
  191POPC   PO4 2835   9.266   5.255   3.990
  191POPC   GL1 2836   9.525   5.437   4.382
  191POPC   GL2 2837   9.795   5.698   4.389
  191POPC   C1A 2838   9.648   5.472   4.853
  191POPC   D2A 2839   9.609   5.694   5.270
  191POPC   C3A 2840   9.606   5.468   5.674
  191POPC   C4A 2841   9.409   5.405   6.095
  191POPC   C1B 2842   9.858   5.941   4.805
  191POPC   C2B 2843   9.888   6.115   5.229
  191POPC   C3B 2844   9.681   6.080   5.623
  191POPC   C4B 2845   9.608   6.384   5.952
  192POPC   NC3 2846   2.817   2.280   3.904
  192POPC   PO4 2847   3.447   2.212   4.057
  192POPC   GL1 2848   3.112   1.924   4.218
  192POPC   GL2 2849   2.839   2.129   4.375
  192POPC   C1A 2850   3.018   1.772   4.654
  192POPC   D2A 2851   2.918   2.083   4.945
  192POPC   C3A 2852   3.066   1.971   5.320
  192POPC   C4A 2853   3.021   2.182   5.662
  192POPC   C1B 2854   2.539   1.933   4.652
  192POPC   C2B 2855   2.505   1.819   5.073
  192POPC   C3B 2856   2.566   1.976   5.491
  192POPC   C4B 2857   2.825   1.688   5.721
  193POPC   NC3 2858   1.940   2.377   3.759
  193POPC   PO4 2859   1.826   1.679   4.064
  193POPC   GL1 2860   1.912   2.113   4.231
  193POPC   GL2 2861   2.269   2.114   4.273
  193POPC   C1A 2862   2.008   2.336   4.670
  193POPC   D2A 2863   2.280   2.278   5.042
  193POPC   C3A 2864   2.144   2.289   5.452
  193POPC   C4A 2865   1.816   2.273   5.756
  193POPC   C1B 2866   2.053   1.836   4.659
  193POPC   C2B 2867   1.996   1.845   5.091
  193POPC   C3B 2868   1.898   1.840   5.508
  193POPC   C4B 2869   2.179   1.897   5.859
  194POPC   NC3 2870   8.222   1.921   3.904
  194POPC   PO4 2871   7.706   2.355   3.857
  194POPC   GL1 2872   7.951   2.218   4.237
  194POPC   GL2 2873   8.060   1.872   4.373
  194POPC   C1A 2874   8.116   2.296   4.661
  194POPC   D2A 2875   7.932   2.279   5.073
  194POPC   C3A 2876   8.096   2.375   5.487
  194POPC   C4A 2877   8.262   2.394   5.899
  194POPC   C1B 2878   8.136   1.796   4.831
  194POPC   C2B 2879   8.106   1.516   5.182
  194POPC   C3B 2880   7.833   1.632   5.510
  194POPC   C4B 2881   7.949   1.960   5.785
  195POPC   NC3 2882   0.856   1.092   3.596
  195POPC   PO4 2883   0.887   1.678   4.010
  195POPC   GL1 2884   0.972   1.329   4.269
  195POPC   GL2 2885   1.304   1.235   4.223
  195POPC   C1A 2886   1.043   1.247   4.704
  195POPC   D2A 2887   1.082   1.491   5.095
  195POPC   C3A 2888   0.992   1.246   5.459
  195POPC   C4A 2889   1.201   1.194   5.842
  195POPC   C1B 2890   1.492   1.034   4.553
  195POPC   C2B 2891   1.469   1.110   4.977
  195POPC   C3B 2892   1.462   1.048   5.399
  195POPC   C4B 2893   1.670   0.876   5.709
  196POPC   NC3 2894  11.013  10.366   4.074
  196POPC   PO4 2895  10.911  10.920   3.804
  196POPC   GL1 2896  10.932  10.842   4.241
  196POPC   GL2 2897  11.307  10.732   4.262
  196POPC   C1A 2898  10.824  10.672   4.661
  196POPC   D2A 2899  10.831  10.839   5.086
  196POPC   C3A 2900  10.886  10.677   5.513
  196POPC   C4A 2901  10.833  10.669   6.023
  196POPC   C1B 2902  11.308  10.494   4.645
  196POPC   C2B 2903  11.057  10.350   4.996
  196POPC   C3B 2904  11.222  10.297   5.395
  196POPC   C4B 2905  11.267  10.474   5.778
  197POPC   NC3 2906   7.239   1.022   4.076
  197POPC   PO4 2907   7.794   1.483   3.961
  197POPC   GL1 2908   7.666   1.222   4.278
  197POPC   GL2 2909   7.390   1.386   4.424
  197POPC   C1A 2910   7.584   0.975   4.661
  197POPC   D2A 2911   7.206   1.056   4.913
  197POPC   C3A 2912   7.282   1.038   5.349
  197POPC   C4A 2913   7.421   1.010   5.758
  197POPC   C1B 2914   7.336   1.547   4.846
  197POPC   C2B 2915   7.241   1.553   5.295
  197POPC   C3B 2916   6.934   1.349   5.576
  197POPC   C4B 2917   6.998   1.217   5.999
  198POPC   NC3 2918   9.710   8.967   3.952
  198POPC   PO4 2919   9.206   8.619   4.074
  198POPC   GL1 2920   9.431   8.846   4.362
  198POPC   GL2 2921   9.717   8.635   4.359
  198POPC   C1A 2922   9.514   8.884   4.798
  198POPC   D2A 2923   9.271   9.130   5.096
  198POPC   C3A 2924   9.512   9.165   5.441
  198POPC   C4A 2925   9.579   9.087   5.838
  198POPC   C1B 2926   9.948   8.559   4.736
  198POPC   C2B 2927   9.795   8.582   5.162
  198POPC   C3B 2928   9.600   8.654   5.554
  198POPC   C4B 2929   9.749   8.653   6.014
  199POPC   NC3 2930   8.881  10.540   4.046
  199POPC   PO4 2931   9.077   9.895   3.896
  199POPC   GL1 2932   9.062  10.150   4.300
  199POPC   GL2 2933   8.691  10.228   4.396
  199POPC   C1A 2934   9.051  10.359   4.731
  199POPC   D2A 2935   8.962  10.155   5.142
  199POPC   C3A 2936   9.067  10.383   5.519
  199POPC   C4A 2937   9.053  10.607   5.931
  199POPC   C1B 2938   8.551  10.198   4.805
  199POPC   C2B 2939   8.467   9.943   5.160
  199POPC   C3B 2940   8.535  10.236   5.458
  199POPC   C4B 2941   8.712  10.255   5.867
  200POPC   NC3 2942   1.496   8.896   3.873
  200POPC   PO4 2943   0.910   8.614   3.978
  200POPC   GL1 2944   1.191   8.777   4.340
  200POPC   GL2 2945   1.107   9.101   4.365
  200POPC   C1A 2946   1.343   8.625   4.786
  200POPC   D2A 2947   1.301   8.420   5.227
  200POPC   C3A 2948   1.083   8.646   5.581
  200POPC   C4A 2949   1.287   8.626   6.011
  200POPC   C1B 2950   1.105   9.086   4.823
  200POPC   C2B 2951   1.317   8.964   5.232
  200POPC   C3B 2952   1.328   9.096   5.666
  200POPC   C4B 2953   0.928   9.108   5.816
  201POPC   NC3 2954   9.728   4.048   3.863
  201POPC   PO4 2955   9.727   3.349   3.877
  201POPC   GL1 2956   9.758   3.657   4.266
  201POPC   GL2 2957   9.433   3.800   4.387
  201POPC   C1A 2958   9.782   3.766   4.751
  201POPC   D2A 2959   9.552   3.846   5.154
  201POPC   C3A 2960   9.773   3.976   5.563
  201POPC   C4A 2961   9.980   3.843   5.980
  201POPC   C1B 2962   9.393   3.427   4.689
  201POPC   C2B 2963   9.478   3.286   5.107
  201POPC   C3B 2964   9.496   3.478   5.511
  201POPC   C4B 2965   9.162   3.571   5.739
  202POPC   NC3 2966   5.914   1.148   3.968
  202POPC   PO4 2967   5.403   1.580   3.878
  202POPC   GL1 2968   5.499   1.550   4.292
  202POPC   GL2 2969   5.542   1.207   4.306
  202POPC   C1A 2970   5.660   1.429   4.723
  202POPC   D2A 2971   5.463   1.391   5.095
  202POPC   C3A 2972   5.771   1.476   5.371
  202POPC   C4A 2973   5.956   1.669   5.713
  202POPC   C1B 2974   5.435   0.970   4.704
  202POPC   C2B 2975   5.476   0.827   5.119
  202POPC   C3B 2976   5.499   1.050   5.501
  202POPC   C4B 2977   5.954   1.107   5.675
  203POPC   NC3 2978   9.578   2.842   3.855
  203POPC   PO4 2979  10.139   2.450   3.874
  203POPC   GL1 2980   9.888   2.416   4.247
  203POPC   GL2 2981   9.626   2.665   4.343
  203POPC   C1A 2982   9.985   2.493   4.676
  203POPC   D2A 2983   9.879   2.276   5.041
  203POPC   C3A 2984   9.920   2.526   5.403
  203POPC   C4A 2985   9.871   2.565   5.841
  203POPC   C1B 2986   9.534   2.786   4.785
  203POPC   C2B 2987   9.416   2.545   5.145
  203POPC   C3B 2988   9.448   2.650   5.559
  203POPC   C4B 2989   9.704   3.017   5.661
  204POPC   NC3 2990  11.351   5.214   4.157
  204POPC   PO4 2991  10.775   4.831   4.199
  204POPC   GL1 2992  10.835   4.898   4.542
  204POPC   GL2 2993  10.949   5.247   4.480
  204POPC   C1A 2994  10.740   4.732   4.951
  204POPC   D2A 2995  10.977   4.801   5.318
  204POPC   C3A 2996  10.885   4.964   5.680
  204POPC   C4A 2997  10.725   5.347   5.701
  204POPC   C1B 2998  11.192   5.046   4.838
  204POPC   C2B 2999  11.475   4.902   5.122
  204POPC   C3B 3000  11.407   5.049   5.506
  204POPC   C4B 3001  11.447   4.828   5.826
  205POPC   NC3 3002  10.311   3.631   3.867
  205POPC   PO4 3003  10.930   4.001   3.953
  205POPC   GL1 3004  10.625   3.699   4.274
  205POPC   GL2 3005  10.280   3.534   4.350
  205POPC   C1A 3006  10.618   3.407   4.698
  205POPC   D2A 3007  10.542   3.581   5.129
  205POPC   C3A 3008  10.523   3.308   5.499
  205POPC   C4A 3009  10.817   3.296   5.824
  205POPC   C1B 3010  10.298   3.809   4.713
  205POPC   C2B 3011  10.120   3.890   5.126
  205POPC   C3B 3012  10.234   3.740   5.546
  205POPC   C4B 3013  10.132   3.368   5.843
  206POPC   NC3 3014   3.702   1.041   3.770
  206POPC   PO4 3015   3.529   1.577   3.684
  206POPC   GL1 3016   3.433   1.365   4.261
  206POPC   GL2 3017   3.484   1.003   4.237
  206POPC   C1A 3018   3.700   1.156   4.680
  206POPC   D2A 3019   3.829   0.919   5.104
  206POPC   C3A 3020   3.729   1.105   5.549
  206POPC   C4A 3021   3.671   1.411   5.904
  206POPC   C1B 3022   3.328   0.816   4.617
  206POPC   C2B 3023   3.320   0.984   5.033
  206POPC   C3B 3024   3.223   1.152   5.436
  206POPC   C4B 3025   3.294   1.062   5.865
  207POPC   NC3 3026   5.772   9.748   3.891
  207POPC   PO4 3027   5.667   9.171   4.063
  207POPC   GL1 3028   5.647   9.456   4.434
  207POPC   GL2 3029   5.626   9.801   4.391
  207POPC   C1A 3030   5.783   9.588   4.875
  207POPC   D2A 3031   5.718   9.480   5.337
  207POPC   C3A 3032   6.078   9.524   5.669
  207POPC   C4A 3033   6.306   9.479   6.103
  207POPC   C1B 3034   5.322   9.768   4.748
  207POPC   C2B 3035   5.217   9.589   5.205
  207POPC   C3B 3036   5.354   9.644   5.674
  207POPC   C4B 3037   5.428   9.868   6.102
  208POPC   NC3 3038   0.505  11.396   3.894
  208POPC   PO4 3039   0.773  10.785   3.874
  208POPC   GL1 3040   0.672  11.017   4.232
  208POPC   GL2 3041   0.299  11.095   4.283
  208POPC   C1A 3042   0.695  11.123   4.665
  208POPC   D2A 3043   0.774  11.236   5.097
  208POPC   C3A 3044   0.910  10.909   5.367
  208POPC   C4A 3045   0.621  10.823   5.689
  208POPC   C1B 3046   0.242  10.844   4.703
  208POPC   C2B 3047   0.373  10.861   5.187
  208POPC   C3B 3048   0.299  11.188   5.540
  208POPC   C4B 3049   0.115   0.115   5.601
  209POPC   NC3 3050   3.291  10.295   3.626
  209POPC   PO4 3051   3.678   9.871   4.007
  209POPC   GL1 3052   3.672   9.817   4.403
  209POPC   GL2 3053   3.723   9.475   4.376
  209POPC   C1A 3054   3.321   9.826   4.703
  209POPC   D2A 3055   3.260   9.683   5.106
  209POPC   C3A 3056   3.471   9.794   5.493
  209POPC   C4A 3057   3.287  10.006   5.794
  209POPC   C1B 3058   3.566   9.384   4.801
  209POPC   C2B 3059   3.666   9.386   5.253
  209POPC   C3B 3060   3.541   9.334   5.701
  209POPC   C4B 3061   3.672   9.251   6.153
  210POPC   NC3 3062   0.206   8.018   3.394
  210POPC   PO4 3063   0.314   7.815   4.058
  210POPC   GL1 3064   0.249   8.014   4.389
  210POPC   GL2 3065   0.564   8.161   4.378
  210POPC   C1A 3066   0.403   7.876   4.782
  210POPC   D2A 3067   0.221   7.779   5.143
  210POPC   C3A 3068   0.375   7.981   5.517
  210POPC   C4A 3069   0.159   8.278   5.738
  210POPC   C1B 3070   0.411   8.378   4.717
  210POPC   C2B 3071   0.494   8.297   5.103
  210POPC   C3B 3072   0.515   8.501   5.441
  210POPC   C4B 3073   0.642   8.400   5.849
  211POPC   NC3 3074   7.829  10.379   3.916
  211POPC   PO4 3075   8.459  10.724   3.896
  211POPC   GL1 3076   8.227  10.529   4.265
  211POPC   GL2 3077   8.192  10.152   4.219
  211POPC   C1A 3078   8.122  10.673   4.715
  211POPC   D2A 3079   7.889  10.744   5.123
  211POPC   C3A 3080   8.158  10.609   5.465
  211POPC   C4A 3081   8.240  10.405   5.848
  211POPC   C1B 3082   8.070  10.150   4.632
  211POPC   C2B 3083   8.108  10.279   5.060
  211POPC   C3B 3084   8.010  10.098   5.460
  211POPC   C4B 3085   7.891  10.046   5.885
  212POPC   NC3 3086   1.613   5.344   3.993
  212POPC   PO4 3087   1.844   5.992   3.794
  212POPC   GL1 3088   1.782   5.987   4.233
  212POPC   GL2 3089   1.974   5.746   4.354
  212POPC   C1A 3090   1.604   5.992   4.632
  212POPC   D2A 3091   1.663   5.999   5.055
  212POPC   C3A 3092   1.929   6.045   5.381
  212POPC   C4A 3093   1.783   5.952   5.806
  212POPC   C1B 3094   1.934   5.637   4.778
  212POPC   C2B 3095   1.969   5.548   5.202
  212POPC   C3B 3096   2.015   5.531   5.638
  212POPC   C4B 3097   1.952   5.283   6.004
  213POPC   NC3 3098   5.620  11.272   3.583
  213POPC   PO4 3099   6.188   0.173   3.804
  213POPC   GL1 3100   6.097   0.038   4.231
  213POPC   GL2 3101   5.800  11.326   4.224
  213POPC   C1A 3102   5.999   0.034   4.696
  213POPC   D2A 3103   6.087  11.218   5.033
  213POPC   C3A 3104   6.082  11.393   5.432
  213POPC   C4A 3105   6.155  11.212   5.809
  213POPC   C1B 3106   5.776  11.082   4.617
  213POPC   C2B 3107   5.626  10.954   5.046
  213POPC   C3B 3108   5.666  11.101   5.468
  213POPC   C4B 3109   5.634  11.080   5.906
  214POPC   NC3 3110   0.223   4.949   3.790
  214POPC   PO4 3111   0.871   4.561   3.884
  214POPC   GL1 3112   0.675   4.751   4.297
  214POPC   GL2 3113   0.393   4.986   4.287
  214POPC   C1A 3114   0.744   4.977   4.692
  214POPC   D2A 3115   0.766   4.830   5.114
  214POPC   C3A 3116   0.399   4.690   5.369
  214POPC   C4A 3117   0.468   4.804   5.803
  214POPC   C1B 3118   0.229   5.051   4.690
  214POPC   C2B 3119   0.412   5.242   5.048
  214POPC   C3B 3120   0.404   5.199   5.484
  214POPC   C4B 3121   0.190   5.265   5.897
  215POPC   NC3 3122   5.674   0.216   3.904
  215POPC   PO4 3123   5.490   0.880   3.921
  215POPC   GL1 3124   5.646   0.683   4.313
  215POPC   GL2 3125   5.697   0.322   4.385
  215POPC   C1A 3126   5.816   0.617   4.766
  215POPC   D2A 3127   5.849   0.402   5.167
  215POPC   C3A 3128   5.791   0.599   5.602
  215POPC   C4A 3129   5.595   0.828   5.939
  215POPC   C1B 3130   5.485   0.017   4.648
  215POPC   C2B 3131   5.630  11.449   5.083
  215POPC   C3B 3132   5.625   0.109   5.519
  215POPC   C4B 3133   5.835   0.126   5.923
  216POPC   NC3 3134   2.915   7.604   4.014
  216POPC   PO4 3135   2.321   7.942   4.015
  216POPC   GL1 3136   2.636   7.941   4.312
  216POPC   GL2 3137   2.416   7.937   4.559
  216POPC   C1A 3138   2.913   7.909   4.702
  216POPC   D2A 3139   2.867   8.089   5.149
  216POPC   C3A 3140   2.977   8.006   5.602
  216POPC   C4A 3141   2.696   7.877   5.962
  216POPC   C1B 3142   2.601   8.314   4.745
  216POPC   C2B 3143   2.470   8.398   5.180
  216POPC   C3B 3144   2.517   8.228   5.585
  216POPC   C4B 3145   2.663   8.385   5.973
  217POPC   NC3 3146   1.827   6.483   3.904
  217POPC   PO4 3147   2.432   6.378   3.869
  217POPC   GL1 3148   2.234   6.195   4.239
  217POPC   GL2 3149   2.047   6.486   4.359
  217POPC   C1A 3150   2.065   6.146   4.711
  217POPC   D2A 3151   2.223   6.386   5.073
  217POPC   C3A 3152   2.131   6.539   5.478
  217POPC   C4A 3153   1.770   6.435   5.703
  217POPC   C1B 3154   1.815   6.587   4.764
  217POPC   C2B 3155   1.706   6.556   5.200
  217POPC   C3B 3156   1.754   6.903   5.508
  217POPC   C4B 3157   2.001   6.861   5.871
  218POPC   NC3 3158   0.498   3.354   3.950
  218POPC   PO4 3159   0.106   3.919   3.930
  218POPC   GL1 3160   0.394   3.760   4.280
  218POPC   GL2 3161   0.379   3.434   4.431
  218POPC   C1A 3162   0.627   3.805   4.679
  218POPC   D2A 3163   0.383   3.794   5.068
  218POPC   C3A 3164   0.508   3.674   5.478
  218POPC   C4A 3165   0.274   3.759   5.808
  218POPC   C1B 3166   0.356   3.199   4.768
  218POPC   C2B 3167   0.488   3.295   5.149
  218POPC   C3B 3168   0.282   3.187   5.480
  218POPC   C4B 3169   0.445   3.276   5.824
  219POPC   NC3 3170  10.266   7.073   4.021
  219POPC   PO4 3171  10.932   7.351   3.972
  219POPC   GL1 3172  10.818   7.134   4.306
  219POPC   GL2 3173  10.507   7.277   4.405
  219POPC   C1A 3174  10.827   7.049   4.728
  219POPC   D2A 3175  10.687   6.912   5.130
  219POPC   C3A 3176  10.651   7.129   5.508
  219POPC   C4A 3177  10.274   7.101   5.726
  219POPC   C1B 3178  10.622   7.647   4.646
  219POPC   C2B 3179  10.455   7.761   5.048
  219POPC   C3B 3180  10.300   7.487   5.340
  219POPC   C4B 3181  10.482   7.576   5.706
  220POPC   NC3 3182  10.580   4.495   3.965
  220POPC   PO4 3183  10.121   3.998   4.084
  220POPC   GL1 3184  10.243   4.350   4.334
  220POPC   GL2 3185  10.540   4.479   4.471
  220POPC   C1A 3186  10.189   4.297   4.766
  220POPC   D2A 3187  10.435   4.310   5.077
  220POPC   C3A 3188  10.206   4.268   5.448
  220POPC   C4A 3189  10.105   4.403   5.838
  220POPC   C1B 3190  10.702   4.121   4.646
  220POPC   C2B 3191  10.852   4.014   5.055
  220POPC   C3B 3192  10.797   4.287   5.417
  220POPC   C4B 3193  10.580   4.174   5.782
  221POPC   NC3 3194   5.019   8.153   3.867
  221POPC   PO4 3195   4.757   7.651   4.155
  221POPC   GL1 3196   4.947   7.907   4.478
  221POPC   GL2 3197   4.918   8.233   4.367
  221POPC   C1A 3198   4.869   8.085   4.900
  221POPC   D2A 3199   4.575   8.240   5.206
  221POPC   C3A 3200   4.563   8.037   5.608
  221POPC   C4A 3201   4.752   7.738   5.899
  221POPC   C1B 3202   5.204   8.403   4.674
  221POPC   C2B 3203   5.310   8.237   5.102
  221POPC   C3B 3204   5.048   8.184   5.488
  221POPC   C4B 3205   4.891   8.271   5.928
  222POPC   NC3 3206   1.296   4.314   3.894
  222POPC   PO4 3207   1.205   3.749   4.074
  222POPC   GL1 3208   1.063   4.030   4.394
  222POPC   GL2 3209   1.074   4.400   4.336
  222POPC   C1A 3210   1.071   4.004   4.855
  222POPC   D2A 3211   1.314   3.947   5.228
  222POPC   C3A 3212   1.272   4.192   5.652
  222POPC   C4A 3213   1.512   4.033   6.042
  222POPC   C1B 3214   1.015   4.514   4.757
  222POPC   C2B 3215   1.125   4.421   5.175
  222POPC   C3B 3216   0.868   4.524   5.511
  222POPC   C4B 3217   0.935   4.583   5.888
  223POPC   NC3 3218   2.531   8.354   3.999
  223POPC   PO4 3219   2.695   9.054   3.975
  223POPC   GL1 3220   2.729   8.745   4.311
  223POPC   GL2 3221   2.421   8.682   4.437
  223POPC   C1A 3222   2.853   8.755   4.771
  223POPC   D2A 3223   2.941   8.607   5.183
  223POPC   C3A 3224   2.794   8.676   5.576
  223POPC   C4A 3225   3.090   8.644   5.954
  223POPC   C1B 3226   2.528   9.096   4.636
  223POPC   C2B 3227   2.559   9.193   5.079
  223POPC   C3B 3228   2.650   9.178   5.525
  223POPC   C4B 3229   3.059   9.104   5.740
  224POPC   NC3 3230  10.283   0.389   3.886
  224POPC   PO4 3231  10.723   0.102   4.227
  224POPC   GL1 3232  10.305   0.232   4.392
  224POPC   GL2 3233  10.234   0.607   4.374
  224POPC   C1A 3234  10.192   0.294   4.827
  224POPC   D2A 3235  10.356   0.490   5.208
  224POPC   C3A 3236  10.428   0.228   5.578
  224POPC   C4A 3237  10.044   0.130   5.776
  224POPC   C1B 3238  10.540   0.668   4.728
  224POPC   C2B 3239  10.828   0.696   5.098
  224POPC   C3B 3240  10.659   0.753   5.526
  224POPC   C4B 3241  10.611   0.701   5.998
  225POPC   NC3 3242   2.210   3.063   4.043
  225POPC   PO4 3243   1.783   2.808   3.687
  225POPC   GL1 3244   1.760   2.650   4.150
  225POPC   GL2 3245   2.071   2.612   4.252
  225POPC   C1A 3246   1.668   2.738   4.626
  225POPC   D2A 3247   1.624   2.935   5.048
  225POPC   C3A 3248   1.768   2.698   5.420
  225POPC   C4A 3249   1.706   2.854   5.828
  225POPC   C1B 3250   2.181   2.830   4.642
  225POPC   C2B 3251   2.124   2.853   5.077
  225POPC   C3B 3252   2.341   2.773   5.440
  225POPC   C4B 3253   2.172   2.651   5.822
  226POPC   NC3 3254   6.905   7.891   3.856
  226POPC   PO4 3255   6.984   8.452   3.828
  226POPC   GL1 3256   7.068   8.441   4.302
  226POPC   GL2 3257   7.353   8.249   4.404
  226POPC   C1A 3258   7.053   8.423   4.796
  226POPC   D2A 3259   7.283   8.329   5.198
  226POPC   C3A 3260   7.121   8.317   5.604
  226POPC   C4A 3261   7.059   8.058   5.978
  226POPC   C1B 3262   7.571   8.404   4.787
  226POPC   C2B 3263   7.790   8.287   5.185
  226POPC   C3B 3264   7.627   8.226   5.615
  226POPC   C4B 3265   7.495   8.337   6.059
  227POPC   NC3 3266   1.303   0.330   4.064
  227POPC   PO4 3267   1.015   0.905   3.972
  227POPC   GL1 3268   1.098   0.726   4.386
  227POPC   GL2 3269   0.987   0.381   4.477
  227POPC   C1A 3270   1.100   0.747   4.834
  227POPC   D2A 3271   0.827   0.880   5.143
  227POPC   C3A 3272   1.006   0.700   5.518
  227POPC   C4A 3273   1.240   0.684   5.901
  227POPC   C1B 3274   1.394   0.345   4.726
  227POPC   C2B 3275   1.256   0.302   5.153
  227POPC   C3B 3276   1.402   0.305   5.552
  227POPC   C4B 3277   1.481  11.449   5.823
  228POPC   NC3 3278  10.870   7.805   3.899
  228POPC   PO4 3279  11.466   7.694   3.657
  228POPC   GL1 3280  11.372   7.541   4.171
  228POPC   GL2 3281  11.337   7.206   4.259
  228POPC   C1A 3282  11.100   7.472   4.627
  228POPC   D2A 3283  10.861   7.422   5.074
  228POPC   C3A 3284  11.004   7.571   5.501
  228POPC   C4A 3285  10.919   7.604   5.966
  228POPC   C1B 3286  11.336   7.029   4.670
  228POPC   C2B 3287  11.194   6.887   5.059
  228POPC   C3B 3288  11.161   7.072   5.467
  228POPC   C4B 3289  11.265   7.262   5.866
  229POPC   NC3 3290   4.435   2.626   3.957
  229POPC   PO4 3291   4.000   2.955   4.017
  229POPC   GL1 3292   4.053   2.671   4.400
  229POPC   GL2 3293   4.304   2.377   4.375
  229POPC   C1A 3294   3.885   2.739   4.832
  229POPC   D2A 3295   3.672   2.637   5.235
  229POPC   C3A 3296   3.883   2.721   5.628
  229POPC   C4A 3297   4.108   2.663   6.038
  229POPC   C1B 3298   4.323   2.461   4.800
  229POPC   C2B 3299   4.166   2.487   5.202
  229POPC   C3B 3300   4.293   2.418   5.607
  229POPC   C4B 3301   4.557   2.736   5.774
  230POPC   NC3 3302   4.815   9.854   4.086
  230POPC   PO4 3303   5.441  10.061   3.976
  230POPC   GL1 3304   5.384  10.270   4.354
  230POPC   GL2 3305   5.261  10.626   4.321
  230POPC   C1A 3306   5.227  10.296   4.748
  230POPC   D2A 3307   5.058  10.481   5.106
  230POPC   C3A 3308   5.109  10.145   5.388
  230POPC   C4A 3309   5.378  10.164   5.705
  230POPC   C1B 3310   4.901  10.714   4.607
  230POPC   C2B 3311   4.791  10.926   5.010
  230POPC   C3B 3312   4.734  10.758   5.410
  230POPC   C4B 3313   5.109  10.611   5.630
  231POPC   NC3 3314  10.515   2.671   4.059
  231POPC   PO4 3315  10.724   3.286   3.929
  231POPC   GL1 3316  10.806   3.039   4.313
  231POPC   GL2 3317  10.497   2.973   4.472
  231POPC   C1A 3318  10.964   2.939   4.728
  231POPC   D2A 3319  10.816   3.093   5.131
  231POPC   C3A 3320  10.813   2.862   5.524
  231POPC   C4A 3321  10.735   2.616   5.886
  231POPC   C1B 3322  10.547   2.578   4.709
  231POPC   C2B 3323  10.415   2.362   5.092
  231POPC   C3B 3324  10.416   2.513   5.507
  231POPC   C4B 3325  10.239   2.883   5.680
  232POPC   NC3 3326   7.255  10.813   4.031
  232POPC   PO4 3327   6.942  11.439   3.815
  232POPC   GL1 3328   7.021  11.248   4.258
  232POPC   GL2 3329   7.355  11.103   4.430
  232POPC   C1A 3330   6.939  11.220   4.727
  232POPC   D2A 3331   6.983  11.402   5.153
  232POPC   C3A 3332   7.065  11.189   5.558
  232POPC   C4A 3333   6.944  11.391   5.955
  232POPC   C1B 3334   7.369  10.931   4.862
  232POPC   C2B 3335   7.472  11.256   5.173
  232POPC   C3B 3336   7.558  11.380   5.578
  232POPC   C4B 3337   7.531  10.959   5.765
  233POPC   NC3 3338   1.532   3.690   3.765
  233POPC   PO4 3339   1.690   3.155   4.097
  233POPC   GL1 3340   1.636   3.546   4.287
  233POPC   GL2 3341   1.970   3.574   4.329
  233POPC   C1A 3342   1.557   3.786   4.672
  233POPC   D2A 3343   1.786   3.940   4.992
  233POPC   C3A 3344   1.765   3.790   5.379
  233POPC   C4A 3345   1.865   3.620   5.735
  233POPC   C1B 3346   1.947   3.319   4.727
  233POPC   C2B 3347   1.989   3.349   5.167
  233POPC   C3B 3348   2.006   3.149   5.550
  233POPC   C4B 3349   2.040   3.212   6.001
  234POPC   NC3 3350   9.050   1.989   3.862
  234POPC   PO4 3351   8.461   2.351   4.026
  234POPC   GL1 3352   8.839   2.229   4.256
  234POPC   GL2 3353   8.784   1.910   4.284
  234POPC   C1A 3354   9.021   2.123   4.690
  234POPC   D2A 3355   8.970   2.301   5.088
  234POPC   C3A 3356   9.024   2.015   5.407
  234POPC   C4A 3357   9.004   2.066   5.820
  234POPC   C1B 3358   8.541   2.006   4.626
  234POPC   C2B 3359   8.593   1.866   5.052
  234POPC   C3B 3360   8.330   1.924   5.407
  234POPC   C4B 3361   8.486   1.944   5.824
  235POPC   NC3 3362   9.540   0.253   3.777
  235POPC   PO4 3363   9.216   0.834   3.880
  235POPC   GL1 3364   9.409   0.537   4.193
  235POPC   GL2 3365   9.781   0.423   4.186
  235POPC   C1A 3366   9.274   0.401   4.617
  235POPC   D2A 3367   9.232   0.594   5.052
  235POPC   C3A 3368   9.307   0.289   5.345
  235POPC   C4A 3369   9.510   0.178   5.716
  235POPC   C1B 3370   9.776   0.519   4.613
  235POPC   C2B 3371   9.718   0.404   5.043
  235POPC   C3B 3372   9.842   0.503   5.469
  235POPC   C4B 3373  10.192   0.646   5.727
  236POPC   NC3 3374   8.790   1.029   3.968
  236POPC   PO4 3375   8.615   1.687   3.845
  236POPC   GL1 3376   8.642   1.437   4.217
  236POPC   GL2 3377   9.032   1.450   4.196
  236POPC   C1A 3378   8.557   1.485   4.672
  236POPC   D2A 3379   8.592   1.334   5.103
  236POPC   C3A 3380   8.713   1.592   5.482
  236POPC   C4A 3381   9.083   1.568   5.737
  236POPC   C1B 3382   8.996   1.197   4.583
  236POPC   C2B 3383   9.077   1.094   5.020
  236POPC   C3B 3384   8.939   1.139   5.437
  236POPC   C4B 3385   9.069   1.045   5.827
  237POPC   NC3 3386   0.266   7.362   3.892
  237POPC   PO4 3387   0.891   7.027   3.905
  237POPC   GL1 3388   0.666   7.132   4.333
  237POPC   GL2 3389   0.332   7.261   4.368
  237POPC   C1A 3390   0.608   7.332   4.787
  237POPC   D2A 3391   0.354   7.247   5.181
  237POPC   C3A 3392   0.476   7.242   5.652
  237POPC   C4A 3393   0.215   7.159   6.052
  237POPC   C1B 3394   0.111   7.452   4.701
  237POPC   C2B 3395  11.374   7.392   5.093
  237POPC   C3B 3396   0.032   7.499   5.523
  237POPC   C4B 3397   0.281   7.636   5.899
  238POPC   NC3 3398   5.529   2.010   3.973
  238POPC   PO4 3399   5.942   2.388   4.112
  238POPC   GL1 3400   5.862   2.000   4.352
  238POPC   GL2 3401   5.996   1.677   4.233
  238POPC   C1A 3402   5.538   1.909   4.679
  238POPC   D2A 3403   5.336   1.895   5.103
  238POPC   C3A 3404   5.594   1.948   5.478
  238POPC   C4A 3405   5.811   2.150   5.842
  238POPC   C1B 3406   6.081   1.722   4.721
  238POPC   C2B 3407   6.057   1.872   5.177
  238POPC   C3B 3408   6.236   2.084   5.545
  238POPC   C4B 3409   6.279   1.990   5.995
  239POPC   NC3 3410   0.703   6.664   4.126
  239POPC   PO4 3411   0.107   6.908   3.960
  239POPC   GL1 3412   0.228   6.751   4.321
  239POPC   GL2 3413   0.153   6.398   4.263
  239POPC   C1A 3414   0.318   6.902   4.729
  239POPC   D2A 3415   0.457   6.746   5.074
  239POPC   C3A 3416   0.342   6.781   5.495
  239POPC   C4A 3417   0.644   6.585   5.766
  239POPC   C1B 3418   0.374   6.390   4.669
  239POPC   C2B 3419   0.453   6.227   5.094
  239POPC   C3B 3420   0.315   6.272   5.505
  239POPC   C4B 3421   0.371   6.095   5.919
  240POPC   NC3 3422  10.352   9.636   3.902
  240POPC   PO4 3423  10.830   9.110   3.802
  240POPC   GL1 3424  10.500   9.243   4.175
  240POPC   GL2 3425  10.670   9.540   4.291
  240POPC   C1A 3426  10.419   9.271   4.659
  240POPC   D2A 3427  10.578   9.195   5.076
  240POPC   C3A 3428  10.375   9.417   5.377
  240POPC   C4A 3429  10.580   9.660   5.668
  240POPC   C1B 3430  10.354   9.775   4.551
  240POPC   C2B 3431  10.231   9.737   4.990
  240POPC   C3B 3432  10.183   9.902   5.440
  240POPC   C4B 3433  10.333  10.019   5.911
  241POPC   NC3 3434   4.835  11.178   3.842
  241POPC   PO4 3435   5.500  10.951   3.880
  241POPC   GL1 3436   5.325  11.141   4.251
  241POPC   GL2 3437   5.004  11.266   4.316
  241POPC   C1A 3438   5.262  11.053   4.693
  241POPC   D2A 3439   5.135  11.319   5.015
  241POPC   C3A 3440   5.152  11.097   5.391
  241POPC   C4A 3441   5.238  11.359   5.734
  241POPC   C1B 3442   4.731  11.311   4.686
  241POPC   C2B 3443   4.621  11.456   5.105
  241POPC   C3B 3444   4.541  11.309   5.509
  241POPC   C4B 3445   4.783  11.117   5.764
  242POPC   NC3 3446  11.307   5.980   3.607
  242POPC   PO4 3447  10.953   5.622   4.056
  242POPC   GL1 3448  11.124   5.729   4.422
  242POPC   GL2 3449  11.430   5.692   4.282
  242POPC   C1A 3450  11.213   5.563   4.844
  242POPC   D2A 3451  11.060   5.370   5.267
  242POPC   C3A 3452  11.048   5.711   5.592
  242POPC   C4A 3453  10.894   6.127   5.547
  242POPC   C1B 3454   0.012   6.010   4.602
  242POPC   C2B 3455  11.251   6.087   4.941
  242POPC   C3B 3456  11.369   6.051   5.357
  242POPC   C4B 3457  11.376   6.211   5.772
  243POPC   NC3 3458   8.068  11.098   3.876
  243POPC   PO4 3459   7.684  10.745   4.205
  243POPC   GL1 3460   7.956  11.038   4.381
  243POPC   GL2 3461   8.340  11.045   4.303
  243POPC   C1A 3462   7.835  11.127   4.782
  243POPC   D2A 3463   7.977  11.254   5.159
  243POPC   C3A 3464   7.975  11.069   5.557
  243POPC   C4A 3465   7.893  11.302   5.959
  243POPC   C1B 3466   8.354  11.151   4.732
  243POPC   C2B 3467   8.399  10.958   5.115
  243POPC   C3B 3468   8.499  11.196   5.452
  243POPC   C4B 3469   8.369  11.175   5.877
  244POPC   NC3 3470   2.253   9.002   4.071
  244POPC   PO4 3471   1.708   9.311   3.870
  244POPC   GL1 3472   1.632   9.128   4.327
  244POPC   GL2 3473   1.748   8.816   4.312
  244POPC   C1A 3474   1.618   9.057   4.822
  244POPC   D2A 3475   1.786   8.742   5.157
  244POPC   C3A 3476   1.705   8.741   5.631
  244POPC   C4A 3477   1.689   8.984   6.031
  244POPC   C1B 3478   1.959   8.728   4.659
  244POPC   C2B 3479   2.267   8.779   4.933
  244POPC   C3B 3480   2.281   8.839   5.372
  244POPC   C4B 3481   2.135   9.048   5.727
  245POPC   NC3 3482   4.345   0.550   3.820
  245POPC   PO4 3483   4.169  11.387   3.909
  245POPC   GL1 3484   4.269   0.206   4.259
  245POPC   GL2 3485   4.261   0.547   4.352
  245POPC   C1A 3486   4.354   0.210   4.720
  245POPC   D2A 3487   4.135   0.284   5.103
  245POPC   C3A 3488   4.372   0.291   5.450
  245POPC   C4A 3489   4.336   0.299   5.878
  245POPC   C1B 3490   4.260   0.728   4.796
  245POPC   C2B 3491   4.503   0.743   5.197
  245POPC   C3B 3492   4.526   0.733   5.659
  245POPC   C4B 3493   4.051   0.683   5.732
  246POPC   NC3 3494   8.737   9.569   3.856
  246POPC   PO4 3495   9.353   9.278   3.949
  246POPC   GL1 3496   9.089   9.482   4.324
  246POPC   GL2 3497   8.791   9.722   4.326
  246POPC   C1A 3498   8.901   9.304   4.756
  246POPC   D2A 3499   8.762   9.159   5.217
  246POPC   C3A 3500   9.045   9.354   5.563
  246POPC   C4A 3501   9.124   9.213   6.019
  246POPC   C1B 3502   8.906   9.828   4.735
  246POPC   C2B 3503   8.883   9.650   5.159
  246POPC   C3B 3504   8.881   9.860   5.557
  246POPC   C4B 3505   9.156  10.000   5.856
  247POPC   NC3 3506   2.253   0.598   3.908
  247POPC   PO4 3507   1.750   0.231   4.049
  247POPC   GL1 3508   2.018   0.246   4.344
  247POPC   GL2 3509   2.122   0.594   4.393
  247POPC   C1A 3510   1.929   0.189   4.744
  247POPC   D2A 3511   1.772   0.136   5.113
  247POPC   C3A 3512   2.149   0.075   5.405
  247POPC   C4A 3513   2.034   0.045   5.826
  247POPC   C1B 3514   1.834   0.698   4.715
  247POPC   C2B 3515   1.627   0.636   5.100
  247POPC   C3B 3516   1.861   0.502   5.440
  247POPC   C4B 3517   2.125   0.564   5.743
  248POPC   NC3 3518  10.471   6.137   3.733
  248POPC   PO4 3519  10.619   6.757   3.967
  248POPC   GL1 3520  10.545   6.703   4.347
  248POPC   GL2 3521  10.404   6.382   4.254
  248POPC   C1A 3522  10.391   6.789   4.740
  248POPC   D2A 3523  10.227   6.536   5.059
  248POPC   C3A 3524  10.314   6.695   5.429
  248POPC   C4A 3525  10.034   6.602   5.747
  248POPC   C1B 3526  10.459   6.272   4.684
  248POPC   C2B 3527  10.354   6.015   5.016
  248POPC   C3B 3528  10.347   6.167   5.437
  248POPC   C4B 3529  10.501   6.372   5.772
  249POPC   NC3 3530   0.443   1.978   3.737
  249POPC   PO4 3531   0.105   2.286   4.150
  249POPC   GL1 3532   0.246   1.941   4.319
  249POPC   GL2 3533   0.572   2.004   4.247
  249POPC   C1A 3534   0.208   1.793   4.732
  249POPC   D2A 3535   0.373   1.941   5.099
  249POPC   C3A 3536   0.186   1.848   5.449
  249POPC   C4A 3537   0.014   2.212   5.641
  249POPC   C1B 3538   0.648   2.074   4.677
  249POPC   C2B 3539   0.664   2.344   5.037
  249POPC   C3B 3540   0.500   2.314   5.475
  249POPC   C4B 3541   0.494   1.991   5.807
  250POPC   NC3 3542   0.497   8.844   3.883
  250POPC   PO4 3543  11.442   8.431   3.789
  250POPC   GL1 3544   0.224   8.526   4.198
  250POPC   GL2 3545   0.555   8.665   4.333
  250POPC   C1A 3546   0.166   8.817   4.604
  250POPC   D2A 3547   0.340   8.804   5.044
  250POPC   C3A 3548   0.213   9.122   5.390
  250POPC   C4A 3549   0.081   9.126   5.848
  250POPC   C1B 3550   0.798   8.711   4.668
  250POPC   C2B 3551   0.874   8.680   5.082
  250POPC   C3B 3552   0.727   8.974   5.367
  250POPC   C4B 3553   0.495   8.884   5.753
  251POPC   NC3 3554  11.196  11.273   3.694
  251POPC   PO4 3555  10.692   0.175   3.730
  251POPC   GL1 3556  11.189   0.065   4.098
  251POPC   GL2 3557  11.291  11.239   4.203
  251POPC   C1A 3558  11.227   0.033   4.621
  251POPC   D2A 3559  11.053  11.300   5.024
  251POPC   C3A 3560  11.187  11.368   5.468
  251POPC   C4A 3561  11.129   0.000   5.921
  251POPC   C1B 3562  11.207  11.025   4.636
  251POPC   C2B 3563  11.336  10.827   5.028
  251POPC   C3B 3564  11.388  10.853   5.449
  251POPC   C4B 3565  11.177  10.990   5.818
  252POPC   NC3 3566   4.187   1.021   4.191
  252POPC   PO4 3567   4.645   1.403   3.813
  252POPC   GL1 3568   4.654   1.246   4.219
  252POPC   GL2 3569   4.411   1.443   4.371
  252POPC   C1A 3570   4.694   1.187   4.690
  252POPC   D2A 3571   4.562   1.228   5.109
  252POPC   C3A 3572   4.609   1.461   5.467
  252POPC   C4A 3573   4.758   1.227   5.804
  252POPC   C1B 3574   4.191   1.325   4.767
  252POPC   C2B 3575   4.086   1.349   5.202
  252POPC   C3B 3576   4.235   1.130   5.532
  252POPC   C4B 3577   4.160   1.463   5.767
  253POPC   NC3 3578   5.563  10.497   3.925
  253POPC   PO4 3579   6.062  10.090   3.891
  253POPC   GL1 3580   5.890  10.236   4.287
  253POPC   GL2 3581   5.931  10.595   4.292
  253POPC   C1A 3582   5.761  10.115   4.747
  253POPC   D2A 3583   5.557   9.962   5.158
  253POPC   C3A 3584   5.806   9.956   5.522
  253POPC   C4A 3585   5.873  10.280   5.785
  253POPC   C1B 3586   5.643  10.599   4.654
  253POPC   C2B 3587   5.581  10.457   5.083
  253POPC   C3B 3588   5.608  10.593   5.476
  253POPC   C4B 3589   5.962  10.759   5.715
  254POPC   NC3 3590   1.878  10.672   3.883
  254POPC   PO4 3591   2.453  11.039   3.889
  254POPC   GL1 3592   2.368  10.877   4.324
  254POPC   GL2 3593   2.131  10.624   4.367
  254POPC   C1A 3594   2.313  10.847   4.791
  254POPC   D2A 3595   2.048  10.646   5.077
  254POPC   C3A 3596   2.035  10.823   5.470
  254POPC   C4A 3597   2.208  10.682   5.858
  254POPC   C1B 3598   2.200  10.295   4.704
  254POPC   C2B 3599   2.157  10.105   5.132
  254POPC   C3B 3600   2.027  10.327   5.491
  254POPC   C4B 3601   1.687  10.532   5.701
  255POPC   NC3 3602   9.680  11.092   3.893
  255POPC   PO4 3603   9.127   0.042   3.727
  255POPC   GL1 3604   9.423  11.494   4.189
  255POPC   GL2 3605   9.475  11.162   4.334
  255POPC   C1A 3606   9.599   0.009   4.673
  255POPC   D2A 3607   9.442  11.347   5.115
  255POPC   C3A 3608   9.665  11.243   5.547
  255POPC   C4A 3609   9.731  11.361   6.061
  255POPC   C1B 3610   9.574  10.954   4.716
  255POPC   C2B 3611   9.275  10.852   5.040
  255POPC   C3B 3612   9.212  10.900   5.485
  255POPC   C4B 3613   9.487  10.890   5.870
  256POPC   NC3 3614   9.163   4.776   4.044
  256POPC   PO4 3615   8.620   5.004   3.921
  256POPC   GL1 3616   8.771   5.148   4.360
  256POPC   GL2 3617   9.111   5.108   4.451
  256POPC   C1A 3618   8.760   5.007   4.826
  256POPC   D2A 3619   8.891   4.962   5.285
  256POPC   C3A 3620   8.734   4.892   5.708
  256POPC   C4A 3621   8.389   4.882   6.014
  256POPC   C1B 3622   9.145   5.345   4.828
  256POPC   C2B 3623   9.233   5.348   5.273
  256POPC   C3B 3624   9.123   5.245   5.683
  256POPC   C4B 3625   9.217   4.934   5.975
  257POPC   NC3 3626   2.897   3.785   4.009
  257POPC   PO4 3627   2.674   3.177   3.952
  257POPC   GL1 3628   2.677   3.384   4.315
  257POPC   GL2 3629   2.387   3.292   4.467
  257POPC   C1A 3630   2.781   3.547   4.717
  257POPC   D2A 3631   2.966   3.383   5.086
  257POPC   C3A 3632   2.866   3.522   5.506
  257POPC   C4A 3633   3.100   3.418   5.863
  257POPC   C1B 3634   2.448   3.199   4.891
  257POPC   C2B 3635   2.472   3.250   5.311
  257POPC   C3B 3636   2.360   3.502   5.660
  257POPC   C4B 3637   2.605   3.526   5.996
  258POPC   NC3 3638   4.166  10.610   3.999
  258POPC   PO4 3639   4.383   9.987   4.117
  258POPC   GL1 3640   4.109  10.139   4.450
  258POPC   GL2 3641   3.841  10.296   4.296
  258POPC   C1A 3642   4.212  10.167   4.914
  258POPC   D2A 3643   4.612  10.200   5.180
  258POPC   C3A 3644   4.671  10.291   5.627
  258POPC   C4A 3645   4.700  10.633   5.923
  258POPC   C1B 3646   3.932  10.585   4.682
  258POPC   C2B 3647   3.882  10.511   5.132
  258POPC   C3B 3648   4.128  10.305   5.438
  258POPC   C4B 3649   4.232  10.430   5.853
  259POPC   NC3 3650   5.090   0.656   3.966
  259POPC   PO4 3651   5.261   0.013   3.764
  259POPC   GL1 3652   5.220   0.222   4.203
  259POPC   GL2 3653   4.846   0.269   4.309
  259POPC   C1A 3654   5.277   0.486   4.599
  259POPC   D2A 3655   5.324   0.344   5.037
  259POPC   C3A 3656   5.298   0.508   5.479
  259POPC   C4A 3657   5.343   0.340   5.915
  259POPC   C1B 3658   4.851   0.299   4.786
  259POPC   C2B 3659   4.857   0.394   5.243
  259POPC   C3B 3660   4.849   0.282   5.686
  259POPC   C4B 3661   4.831   0.473   6.100
  260POPC   NC3 3662   1.867   7.957   4.016
  260POPC   PO4 3663   2.089   8.575   4.012
  260POPC   GL1 3664   2.112   8.294   4.347
  260POPC   GL2 3665   1.779   8.299   4.427
  260POPC   C1A 3666   2.103   8.271   4.813
  260POPC   D2A 3667   1.785   8.222   5.119
  260POPC   C3A 3668   2.022   8.363   5.460
  260POPC   C4A 3669   2.199   8.556   5.802
  260POPC   C1B 3670   1.798   7.894   4.670
  260POPC   C2B 3671   1.712   7.695   5.086
  260POPC   C3B 3672   1.783   7.860   5.509
  260POPC   C4B 3673   1.588   8.232   5.684
  261POPC   NC3 3674   8.790   2.722   4.093
  261POPC   PO4 3675   9.319   3.036   4.178
  261POPC   GL1 3676   9.107   2.884   4.517
  261POPC   GL2 3677   9.118   2.575   4.494
  261POPC   C1A 3678   9.014   2.843   4.951
  261POPC   D2A 3679   8.960   2.743   5.385
  261POPC   C3A 3680   9.162   3.034   5.689
  261POPC   C4A 3681   9.169   3.171   6.072
  261POPC   C1B 3682   8.682   2.514   4.706
  261POPC   C2B 3683   8.460   2.353   5.088
  261POPC   C3B 3684   8.628   2.361   5.525
  261POPC   C4B 3685   8.594   2.769   5.757
  262POPC   NC3 3686   3.231  10.840   3.943
  262POPC   PO4 3687   3.328   0.013   3.987
  262POPC   GL1 3688   3.229  11.294   4.342
  262POPC   GL2 3689   3.513  11.124   4.328
  262POPC   C1A 3690   3.240  11.316   4.794
  262POPC   D2A 3691   3.257  11.133   5.191
  262POPC   C3A 3692   3.216  11.364   5.562
  262POPC   C4A 3693   3.322  11.422   5.998
  262POPC   C1B 3694   3.694  11.046   4.727
  262POPC   C2B 3695   3.749  11.013   5.155
  262POPC   C3B 3696   3.642  11.056   5.556
  262POPC   C4B 3697   3.817  10.698   5.712
  263POPC   NC3 3698  11.239   2.114   3.952
  263POPC   PO4 3699   0.144   1.611   3.900
  263POPC   GL1 3700  11.285   1.710   4.281
  263POPC   GL2 3701  10.974   1.987   4.342
  263POPC   C1A 3702  11.209   1.866   4.749
  263POPC   D2A 3703  11.345   2.065   5.115
  263POPC   C3A 3704  11.178   1.859   5.480
  263POPC   C4A 3705  11.394   1.799   5.903
  263POPC   C1B 3706  10.749   2.117   4.721
  263POPC   C2B 3707  10.833   2.054   5.132
  263POPC   C3B 3708  10.706   2.098   5.530
  263POPC   C4B 3709  10.990   2.175   5.840
  264POPC   NC3 3710   4.368   1.782   3.757
  264POPC   PO4 3711   3.890   1.357   4.068
  264POPC   GL1 3712   3.937   1.645   4.442
  264POPC   GL2 3713   4.169   1.859   4.233
  264POPC   C1A 3714   3.924   1.733   4.901
  264POPC   D2A 3715   4.014   2.017   5.222
  264POPC   C3A 3716   4.144   1.931   5.593
  264POPC   C4A 3717   3.896   1.871   5.937
  264POPC   C1B 3718   4.313   1.941   4.666
  264POPC   C2B 3719   4.426   1.751   5.081
  264POPC   C3B 3720   4.635   1.980   5.439
  264POPC   C4B 3721   4.735   2.249   5.813
  265POPC   NC3 3722   1.134   6.640   3.754
  265POPC   PO4 3723   1.492   6.436   4.207
  265POPC   GL1 3724   1.319   6.415   4.550
  265POPC   GL2 3725   1.006   6.388   4.440
  265POPC   C1A 3726   1.316   6.651   4.897
  265POPC   D2A 3727   1.288   6.858   5.263
  265POPC   C3A 3728   1.320   6.658   5.647
  265POPC   C4A 3729   1.527   6.892   5.998
  265POPC   C1B 3730   0.843   6.473   4.835
  265POPC   C2B 3731   0.864   6.539   5.273
  265POPC   C3B 3732   0.837   6.198   5.512
  265POPC   C4B 3733   1.040   6.277   5.871
  266POPC   NC3 3734   1.384   6.077   3.950
  266POPC   PO4 3735   1.130   5.446   3.945
  266POPC   GL1 3736   1.317   5.671   4.282
  266POPC   GL2 3737   1.042   5.884   4.303
  266POPC   C1A 3738   1.401   5.539   4.706
  266POPC   D2A 3739   1.263   5.677   5.119
  266POPC   C3A 3740   1.541   5.652   5.440
  266POPC   C4A 3741   1.511   5.481   5.814
  266POPC   C1B 3742   1.120   5.982   4.730
  266POPC   C2B 3743   1.209   6.208   5.104
  266POPC   C3B 3744   1.353   6.114   5.503
  266POPC   C4B 3745   1.067   5.749   5.622
  267POPC   NC3 3746   7.263   2.204   3.929
  267POPC   PO4 3747   7.118   1.587   3.606
  267POPC   GL1 3748   7.221   1.711   4.070
  267POPC   GL2 3749   7.549   1.862   4.200
  267POPC   C1A 3750   7.145   1.916   4.532
  267POPC   D2A 3751   7.165   1.998   5.017
  267POPC   C3A 3752   6.875   1.939   5.378
  267POPC   C4A 3753   7.055   1.800   5.761
  267POPC   C1B 3754   7.651   1.937   4.648
  267POPC   C2B 3755   7.670   1.847   5.084
  267POPC   C3B 3756   7.471   1.986   5.467
  267POPC   C4B 3757   7.164   2.273   5.609
  268POPC   NC3 3758  10.292   8.214   3.648
  268POPC   PO4 3759  10.047   7.671   3.897
  268POPC   GL1 3760  10.353   7.794   4.231
  268POPC   GL2 3761  10.423   8.162   4.276
  268POPC   C1A 3762  10.162   7.880   4.663
  268POPC   D2A 3763   9.943   8.102   4.984
  268POPC   C3A 3764  10.091   7.986   5.370
  268POPC   C4A 3765  10.140   7.936   5.768
  268POPC   C1B 3766  10.405   8.318   4.719
  268POPC   C2B 3767  10.304   8.407   5.164
  268POPC   C3B 3768  10.532   8.244   5.546
  268POPC   C4B 3769  10.585   8.396   5.965
  269POPC   NC3 3770   2.850   9.489   3.874
  269POPC   PO4 3771   2.211   9.771   3.933
  269POPC   GL1 3772   2.487   9.537   4.254
  269POPC   GL2 3773   2.825   9.576   4.395
  269POPC   C1A 3774   2.459   9.578   4.730
  269POPC   D2A 3775   2.743   9.685   5.070
  269POPC   C3A 3776   2.492   9.760   5.413
  269POPC   C4A 3777   2.330   9.522   5.738
  269POPC   C1B 3778   2.986   9.327   4.763
  269POPC   C2B 3779   3.061   9.236   5.215
  269POPC   C3B 3780   3.004   9.568   5.535
  269POPC   C4B 3781   2.798   9.809   5.825
  270POPC   NC3 3782   3.847  11.049   3.757
  270POPC   PO4 3783   4.509  10.855   3.790
  270POPC   GL1 3784   4.573  10.923   4.230
  270POPC   GL2 3785   4.494  11.247   4.260
  270POPC   C1A 3786   4.407  10.866   4.658
  270POPC   D2A 3787   4.363  10.645   5.049
  270POPC   C3A 3788   4.205  10.864   5.401
  270POPC   C4A 3789   4.292  10.938   5.825
  270POPC   C1B 3790   4.140  11.280   4.565
  270POPC   C2B 3791   4.176  11.238   5.006
  270POPC   C3B 3792   4.045  11.369   5.419
  270POPC   C4B 3793   3.949  11.340   5.856
  271POPC   NC3 3794   2.841   6.572   3.881
  271POPC   PO4 3795   2.922   7.143   3.971
  271POPC   GL1 3796   2.868   6.809   4.356
  271POPC   GL2 3797   2.583   6.576   4.323
  271POPC   C1A 3798   2.938   6.590   4.815
  271POPC   D2A 3799   3.083   6.450   5.276
  271POPC   C3A 3800   2.890   6.690   5.610
  271POPC   C4A 3801   2.486   6.836   5.732
  271POPC   C1B 3802   2.539   6.305   4.659
  271POPC   C2B 3803   2.697   6.208   5.075
  271POPC   C3B 3804   2.584   6.297   5.500
  271POPC   C4B 3805   2.262   6.145   5.756
  272POPC   NC3 3806   6.953   3.090   4.089
  272POPC   PO4 3807   6.817   2.411   3.970
  272POPC   GL1 3808   7.086   2.580   4.330
  272POPC   GL2 3809   7.460   2.515   4.294
  272POPC   C1A 3810   7.077   2.797   4.770
  272POPC   D2A 3811   7.274   2.877   5.198
  272POPC   C3A 3812   7.108   2.788   5.640
  272POPC   C4A 3813   7.161   2.976   6.085
  272POPC   C1B 3814   7.393   2.374   4.720
  272POPC   C2B 3815   7.445   2.395   5.161
  272POPC   C3B 3816   7.599   2.514   5.559
  272POPC   C4B 3817   7.767   2.426   5.970
  273POPC   NC3 3818   1.931   9.745   3.574
  273POPC   PO4 3819   1.960  10.247   4.089
  273POPC   GL1 3820   2.124   9.896   4.401
  273POPC   GL2 3821   1.992   9.502   4.318
  273POPC   C1A 3822   1.986   9.759   4.769
  273POPC   D2A 3823   1.728   9.789   5.075
  273POPC   C3A 3824   1.957   9.675   5.376
  273POPC   C4A 3825   2.017   9.886   5.703
  273POPC   C1B 3826   2.049   9.249   4.649
  273POPC   C2B 3827   2.043   9.233   5.076
  273POPC   C3B 3828   1.763   9.203   5.400
  273POPC   C4B 3829   1.785   9.426   5.791
  274POPC   NC3 3830   7.259   8.826   3.882
  274POPC   PO4 3831   7.069   9.398   4.142
  274POPC   GL1 3832   7.325   9.130   4.437
  274POPC   GL2 3833   7.459   8.794   4.347
  274POPC   C1A 3834   7.313   8.980   4.875
  274POPC   D2A 3835   7.324   8.837   5.286
  274POPC   C3A 3836   7.118   9.063   5.673
  274POPC   C4A 3837   6.814   9.057   6.056
  274POPC   C1B 3838   7.748   8.848   4.656
  274POPC   C2B 3839   7.824   8.772   5.055
  274POPC   C3B 3840   7.801   8.873   5.455
  274POPC   C4B 3841   7.502   8.714   5.737
  275POPC   NC3 3842   2.777   1.298   3.729
  275POPC   PO4 3843   2.633   1.841   3.989
  275POPC   GL1 3844   2.742   1.542   4.307
  275POPC   GL2 3845   2.912   1.247   4.229
  275POPC   C1A 3846   2.554   1.416   4.710
  275POPC   D2A 3847   2.349   1.311   5.088
  275POPC   C3A 3848   2.302   1.537   5.446
  275POPC   C4A 3849   2.359   1.410   5.836
  275POPC   C1B 3850   3.041   1.242   4.665
  275POPC   C2B 3851   2.826   1.124   5.067
  275POPC   C3B 3852   2.711   1.215   5.509
  275POPC   C4B 3853   2.789   1.166   5.977
  276POPC   NC3 3854   3.775   2.553   3.992
  276POPC   PO4 3855   3.191   2.475   3.678
  276POPC   GL1 3856   3.119   2.572   4.199
  276POPC   GL2 3857   3.463   2.567   4.429
  276POPC   C1A 3858   3.023   2.512   4.682
  276POPC   D2A 3859   3.227   2.436   5.120
  276POPC   C3A 3860   3.241   2.637   5.553
  276POPC   C4A 3861   3.487   2.689   5.956
  276POPC   C1B 3862   3.384   2.851   4.813
  276POPC   C2B 3863   3.425   3.107   5.205
  276POPC   C3B 3864   3.490   3.101   5.663
  276POPC   C4B 3865   3.866   3.112   5.972
  277POPC   NC3 3866   9.026  11.084   3.608
  277POPC   PO4 3867   9.329  10.712   4.114
  277POPC   GL1 3868   9.007  10.916   4.347
  277POPC   GL2 3869   8.968  11.234   4.202
  277POPC   C1A 3870   8.777  10.846   4.738
  277POPC   D2A 3871   8.802  10.626   5.137
  277POPC   C3A 3872   8.671  10.725   5.559
  277POPC   C4A 3873   8.842  11.043   5.796
  277POPC   C1B 3874   9.117  11.260   4.686
  277POPC   C2B 3875   8.907  11.211   5.103
  277POPC   C3B 3876   9.036  11.391   5.493
  277POPC   C4B 3877   9.012   0.240   5.787
  278POPC   NC3 3878   6.344   2.585   4.032
  278POPC   PO4 3879   6.525   3.200   4.113
  278POPC   GL1 3880   6.627   2.815   4.421
  278POPC   GL2 3881   6.590   2.430   4.438
  278POPC   C1A 3882   6.577   2.716   4.884
  278POPC   D2A 3883   6.758   2.918   5.247
  278POPC   C3A 3884   6.570   2.927   5.658
  278POPC   C4A 3885   6.651   3.137   6.053
  278POPC   C1B 3886   6.881   2.324   4.748
  278POPC   C2B 3887   6.947   2.452   5.173
  278POPC   C3B 3888   6.699   2.452   5.540
  278POPC   C4B 3889   6.345   2.480   5.846
  279POPC   NC3 3890   0.416   2.797   3.749
  279POPC   PO4 3891   0.115   3.100   4.175
  279POPC   GL1 3892   0.497   2.891   4.345
  279POPC   GL2 3893   0.489   2.501   4.404
  279POPC   C1A 3894   0.657   2.793   4.773
  279POPC   D2A 3895   0.507   2.799   5.177
  279POPC   C3A 3896   0.757   2.982   5.470
  279POPC   C4A 3897   0.683   2.785   5.816
  279POPC   C1B 3898   0.214   2.349   4.781
  279POPC   C2B 3899   0.099   2.490   5.186
  279POPC   C3B 3900   0.172   2.705   5.568
  279POPC   C4B 3901   0.259   2.519   5.959
  280POPC   NC3 3902  11.204   3.689   3.779
  280POPC   PO4 3903   0.006   3.152   3.659
  280POPC   GL1 3904  11.431   3.527   4.167
  280POPC   GL2 3905  11.098   3.516   4.250
  280POPC   C1A 3906  11.491   3.624   4.650
  280POPC   D2A 3907  11.497   3.382   5.058
  280POPC   C3A 3908   0.006   3.599   5.414
  280POPC   C4A 3909  11.340   3.514   5.825
  280POPC   C1B 3910  11.001   3.701   4.613
  280POPC   C2B 3911  11.035   3.531   4.984
  280POPC   C3B 3912  11.010   3.502   5.392
  280POPC   C4B 3913  10.760   3.767   5.574
  281POPC   NC3 3914   3.332  10.152   4.133
  281POPC   PO4 3915   3.703  10.722   4.066
  281POPC   GL1 3916   3.378  10.625   4.365
  281POPC   GL2 3917   3.418  10.364   4.581
  281POPC   C1A 3918   3.226  10.809   4.725
  281POPC   D2A 3919   3.386  10.637   5.088
  281POPC   C3A 3920   3.263  10.703   5.507
  281POPC   C4A 3921   3.364  10.525   5.926
  281POPC   C1B 3922   3.701  10.151   4.789
  281POPC   C2B 3923   3.495  10.139   5.122
  281POPC   C3B 3924   3.571  10.303   5.484
  281POPC   C4B 3925   3.788  10.186   5.815
  282POPC   NC3 3926   3.785   0.093   4.076
  282POPC   PO4 3927   3.940   0.707   3.955
  282POPC   GL1 3928   3.746   0.566   4.315
  282POPC   GL2 3929   3.415   0.456   4.248
  282POPC   C1A 3930   3.837   0.334   4.690
  282POPC   D2A 3931   3.697   0.006   4.998
  282POPC   C3A 3932   3.617   0.149   5.434
  282POPC   C4A 3933   3.716   0.292   5.854
  282POPC   C1B 3934   3.310   0.311   4.674
  282POPC   C2B 3935   3.491   0.503   5.059
  282POPC   C3B 3936   3.431   0.654   5.495
  282POPC   C4B 3937   3.197   0.361   5.758
  283POPC   NC3 3938   4.080   9.614   3.976
  283POPC   PO4 3939   4.782   9.360   3.994
  283POPC   GL1 3940   4.535   9.467   4.394
  283POPC   GL2 3941   4.210   9.638   4.454
  283POPC   C1A 3942   4.491   9.580   4.858
  283POPC   D2A 3943   4.707   9.459   5.248
  283POPC   C3A 3944   4.518   9.474   5.678
  283POPC   C4A 3945   4.603   9.640   6.131
  283POPC   C1B 3946   3.965   9.716   4.807
  283POPC   C2B 3947   3.899   9.856   5.203
  283POPC   C3B 3948   3.987   9.750   5.596
  283POPC   C4B 3949   4.325   9.932   5.794
  284POPC   NC3 3950  10.399  10.279   3.805
  284POPC   PO4 3951  10.087  10.840   3.900
  284POPC   GL1 3952  10.391  10.722   4.209
  284POPC   GL2 3953  10.546  10.402   4.299
  284POPC   C1A 3954  10.316  10.759   4.647
  284POPC   D2A 3955  10.419  10.545   5.019
  284POPC   C3A 3956  10.364  10.801   5.329
  284POPC   C4A 3957  10.444  10.777   5.721
  284POPC   C1B 3958  10.604  10.202   4.705
  284POPC   C2B 3959  10.590  10.075   5.139
  284POPC   C3B 3960  10.529  10.296   5.504
  284POPC   C4B 3961  10.823  10.224   5.789
  285POPC   NC3 3962   0.915   5.016   3.954
  285POPC   PO4 3963   0.342   5.399   3.974
  285POPC   GL1 3964   0.725   5.378   4.329
  285POPC   GL2 3965   1.085   5.204   4.393
  285POPC   C1A 3966   0.872   5.493   4.745
  285POPC   D2A 3967   1.130   5.197   4.984
  285POPC   C3A 3968   1.198   5.238   5.431
  285POPC   C4A 3969   0.887   5.082   5.699
  285POPC   C1B 3970   1.338   4.884   4.623
  285POPC   C2B 3971   1.437   4.794   5.080
  285POPC   C3B 3972   1.346   4.732   5.536
  285POPC   C4B 3973   1.521   4.974   5.863
  286POPC   NC3 3974   7.206   9.815   4.024
  286POPC   PO4 3975   7.917   9.866   3.893
  286POPC   GL1 3976   7.687   9.964   4.330
  286POPC   GL2 3977   7.468   9.680   4.423
  286POPC   C1A 3978   7.684   9.872   4.830
  286POPC   D2A 3979   7.341   9.878   5.157
  286POPC   C3A 3980   7.497   9.998   5.569
  286POPC   C4A 3981   7.517   9.716   5.900
  286POPC   C1B 3982   7.313   9.493   4.821
  286POPC   C2B 3983   7.322   9.371   5.273
  286POPC   C3B 3984   7.123   9.601   5.582
  286POPC   C4B 3985   6.727   9.498   5.780
  287POPC   NC3 3986   7.412   0.284   3.848
  287POPC   PO4 3987   7.694   0.908   3.892
  287POPC   GL1 3988   7.713   0.668   4.272
  287POPC   GL2 3989   7.390   0.548   4.293
  287POPC   C1A 3990   7.724   0.459   4.715
  287POPC   D2A 3991   7.762   0.259   5.193
  287POPC   C3A 3992   7.670   0.600   5.548
  287POPC   C4A 3993   7.715   0.692   6.046
  287POPC   C1B 3994   7.213   0.607   4.669
  287POPC   C2B 3995   7.371   0.582   5.079
  287POPC   C3B 3996   7.272   0.292   5.392
  287POPC   C4B 3997   7.139   0.631   5.616
  288POPC   NC3 3998   5.217   9.119   4.030
  288POPC   PO4 3999   4.882   8.592   3.841
  288POPC   GL1 4000   4.787   8.708   4.288
  288POPC   GL2 4001   4.848   9.029   4.364
  288POPC   C1A 4002   4.676   8.556   4.724
  288POPC   D2A 4003   4.944   8.577   5.109
  288POPC   C3A 4004   4.882   8.672   5.552
  288POPC   C4A 4005   5.016   8.763   5.998
  288POPC   C1B 4006   5.050   8.900   4.729
  288POPC   C2B 4007   5.047   9.073   5.168
  288POPC   C3B 4008   4.988   9.191   5.603
  288POPC   C4B 4009   5.358   9.127   5.851
  289POPC   NC3 4010   5.083   1.252   3.888
  289POPC   PO4 4011   4.657   0.742   4.085
  289POPC   GL1 4012   4.864   0.768   4.436
  289POPC   GL2 4013   5.085   1.015   4.357
  289POPC   C1A 4014   4.965   0.790   4.859
  289POPC   D2A 4015   5.054   1.094   5.087
  289POPC   C3A 4016   4.959   0.933   5.438
  289POPC   C4A 4017   5.081   0.811   5.829
  289POPC   C1B 4018   5.144   1.404   4.647
  289POPC   C2B 4019   4.941   1.580   5.049
  289POPC   C3B 4020   5.112   1.459   5.473
  289POPC   C4B 4021   5.437   1.530   5.762
  290POPC   NC3 4022   4.330   7.511   4.205
  290POPC   PO4 4023   3.763   7.601   4.256
  290POPC   GL1 4024   4.003   7.360   4.572
  290POPC   GL2 4025   4.164   7.059   4.433
  290POPC   C1A 4026   4.141   7.419   4.995
  290POPC   D2A 4027   4.355   7.706   5.273
  290POPC   C3A 4028   4.174   7.696   5.670
  290POPC   C4A 4029   3.843   7.423   5.835
  290POPC   C1B 4030   4.508   7.142   4.732
  290POPC   C2B 4031   4.589   7.232   5.172
  290POPC   C3B 4032   4.332   7.205   5.555
  290POPC   C4B 4033   4.080   6.966   5.865
  291POPC   NC3 4034   0.432   0.560   3.893
  291POPC   PO4 4035   0.094  11.500   3.746
  291POPC   GL1 4036   0.206   0.139   4.234
  291POPC   GL2 4037   0.345   0.475   4.374
  291POPC   C1A 4038   0.539   0.101   4.622
  291POPC   D2A 4039   0.764   0.276   5.000
  291POPC   C3A 4040   0.677   0.127   5.436
  291POPC   C4A 4041   0.947   0.224   5.776
  291POPC   C1B 4042   0.586   0.654   4.703
  291POPC   C2B 4043   0.363   0.651   5.116
  291POPC   C3B 4044   0.423   0.565   5.575
  291POPC   C4B 4045   0.360   0.634   6.013
  292POPC   NC3 4046  10.363   2.278   3.499
  292POPC   PO4 4047  10.193   1.710   3.876
  292POPC   GL1 4048  10.210   2.005   4.228
  292POPC   GL2 4049  10.500   2.196   4.276
  292POPC   C1A 4050  10.208   2.035   4.684
  292POPC   D2A 4051  10.350   1.862   5.059
  292POPC   C3A 4052  10.101   1.994   5.399
  292POPC   C4A 4053  10.147   2.167   5.768
  292POPC   C1B 4054  10.553   1.723   4.471
  292POPC   C2B 4055  10.750   1.618   4.874
  292POPC   C3B 4056  10.708   1.588   5.349
  292POPC   C4B 4057  10.420   1.714   5.713
  293POPC   NC3 4058   1.360   1.709   4.031
  293POPC   PO4 4059   1.488   2.252   3.720
  293POPC   GL1 4060   1.403   2.268   4.193
  293POPC   GL2 4061   1.079   2.118   4.236
  293POPC   C1A 4062   1.501   2.237   4.674
  293POPC   D2A 4063   1.677   2.259   5.134
  293POPC   C3A 4064   1.403   2.054   5.471
  293POPC   C4A 4065   1.329   2.032   5.922
  293POPC   C1B 4066   1.114   1.879   4.634
  293POPC   C2B 4067   1.075   2.045   5.046
  293POPC   C3B 4068   0.868   1.942   5.421
  293POPC   C4B 4069   1.031   1.673   5.744
  294POPC   NC3 4070   0.449  10.492   3.745
  294POPC   PO4 4071   0.793  10.111   4.054
  294POPC   GL1 4072   0.623  10.485   4.255
  294POPC   GL2 4073   0.301  10.584   4.236
  294POPC   C1A 4074   0.708  10.615   4.665
  294POPC   D2A 4075   0.708  10.283   4.972
  294POPC   C3A 4076   0.719  10.421   5.365
  294POPC   C4A 4077   0.650  10.334   5.764
  294POPC   C1B 4078   0.294  10.320   4.635
  294POPC   C2B 4079   0.149  10.406   5.066
  294POPC   C3B 4080   0.216  10.446   5.517
  294POPC   C4B 4081   0.197  10.293   5.960
  295POPC   NC3 4082   2.922   2.856   3.734
  295POPC   PO4 4083   2.394   2.480   3.871
  295POPC   GL1 4084   2.576   2.556   4.239
  295POPC   GL2 4085   2.646   2.855   4.341
  295POPC   C1A 4086   2.518   2.441   4.623
  295POPC   D2A 4087   2.580   2.672   4.961
  295POPC   C3A 4088   2.738   2.452   5.317
  295POPC   C4A 4089   2.688   2.565   5.754
  295POPC   C1B 4090   2.879   3.005   4.699
  295POPC   C2B 4091   2.981   2.885   5.141
  295POPC   C3B 4092   2.876   3.006   5.547
  295POPC   C4B 4093   3.012   2.936   5.965
  296POPC   NC3 4094   1.189  10.997   3.993
  296POPC   PO4 4095   0.859   0.145   4.031
  296POPC   GL1 4096   1.084  11.379   4.339
  296POPC   GL2 4097   1.173  11.022   4.491
  296POPC   C1A 4098   1.107  11.436   4.773
  296POPC   D2A 4099   1.361  11.283   5.103
  296POPC   C3A 4100   1.140  11.373   5.448
  296POPC   C4A 4101   0.984  11.198   5.818
  296POPC   C1B 4102   1.471  10.848   4.815
  296POPC   C2B 4103   1.567  10.808   5.240
  296POPC   C3B 4104   1.389  10.950   5.603
  296POPC   C4B 4105   1.417  10.851   6.027
  297POPC   NC3 4106   9.930   8.072   4.112
  297POPC   PO4 4107   9.306   7.834   3.906
  297POPC   GL1 4108   9.511   7.834   4.289
  297POPC   GL2 4109   9.456   8.197   4.310
  297POPC   C1A 4110   9.655   7.786   4.720
  297POPC   D2A 4111   9.843   7.604   5.129
  297POPC   C3A 4112   9.613   7.797   5.482
  297POPC   C4A 4113   9.698   8.176   5.675
  297POPC   C1B 4114   9.495   8.332   4.750
  297POPC   C2B 4115   9.477   8.188   5.188
  297POPC   C3B 4116   9.223   8.305   5.563
  297POPC   C4B 4117   9.029   8.243   5.972
  298POPC   NC3 4118   6.511  11.360   3.946
  298POPC   PO4 4119   6.518  10.735   3.898
  298POPC   GL1 4120   6.566  10.974   4.308
  298POPC   GL2 4121   6.541  11.340   4.429
  298POPC   C1A 4122   6.426  10.950   4.735
  298POPC   D2A 4123   6.599  11.061   5.111
  298POPC   C3A 4124   6.402  10.913   5.468
  298POPC   C4A 4125   6.644  11.003   5.840
  298POPC   C1B 4126   6.484  11.464   4.807
  298POPC   C2B 4127   6.489   0.055   5.171
  298POPC   C3B 4128   6.590  11.391   5.525
  298POPC   C4B 4129   6.475   0.084   5.868
  299POPC   NC3 4130  11.087   6.903   3.921
  299POPC   PO4 4131  10.937   6.213   3.761
  299POPC   GL1 4132  10.981   6.480   4.210
  299POPC   GL2 4133  11.217   6.687   4.335
  299POPC   C1A 4134  10.888   6.541   4.702
  299POPC   D2A 4135  10.729   6.398   5.129
  299POPC   C3A 4136  10.858   6.634   5.526
  299POPC   C4A 4137  10.967   6.464   5.962
  299POPC   C1B 4138  11.395   6.523   4.685
  299POPC   C2B 4139   0.026   6.490   5.082
  299POPC   C3B 4140  11.359   6.582   5.442
  299POPC   C4B 4141  11.374   6.761   5.832
  300POPC   NC3 4142  11.484   1.143   3.849
  300POPC   PO4 4143  10.828   1.033   3.907
  300POPC   GL1 4144  11.096   0.917   4.236
  300POPC   GL2 4145  11.371   1.142   4.328
  300POPC   C1A 4146  11.072   0.929   4.690
  300POPC   D2A 4147  11.003   1.225   5.037
  300POPC   C3A 4148  10.993   1.140   5.469
  300POPC   C4A 4149  11.068   0.885   5.828
  300POPC   C1B 4150  11.388   1.375   4.704
  300POPC   C2B 4151  11.408   1.546   5.122
  300POPC   C3B 4152  11.449   1.391   5.547
  300POPC   C4B 4153  11.291   1.316   5.980
  301POPC   NC3 4154  10.770   5.207   3.946
  301POPC   PO4 4155  10.248   4.813   3.800
  301POPC   GL1 4156  10.258   4.872   4.260
  301POPC   GL2 4157  10.429   5.174   4.397
  301POPC   C1A 4158  10.273   4.816   4.733
  301POPC   D2A 4159  10.144   4.716   5.165
  301POPC   C3A 4160  10.425   4.727   5.542
  301POPC   C4A 4161  10.237   4.889   5.939
  301POPC   C1B 4162  10.588   5.224   4.836
  301POPC   C2B 4163  10.561   5.140   5.253
  301POPC   C3B 4164  10.247   5.243   5.552
  301POPC   C4B 4165  10.288   5.398   5.963
  302POPC   NC3 4166   9.626   1.113   3.877
  302POPC   PO4 4167   9.432   1.724   3.887
  302POPC   GL1 4168   9.566   1.449   4.267
  302POPC   GL2 4169   9.441   1.076   4.342
  302POPC   C1A 4170   9.518   1.414   4.725
  302POPC   D2A 4171   9.711   1.233   5.091
  302POPC   C3A 4172   9.470   1.183   5.490
  302POPC   C4A 4173   9.491   1.337   5.927
  302POPC   C1B 4174   9.861   1.031   4.570
  302POPC   C2B 4175  10.075   0.854   4.947
  302POPC   C3B 4176  10.040   0.985   5.392
  302POPC   C4B 4177   9.812   0.959   5.806
  303POPC   NC3 4178   9.700  10.578   3.858
  303POPC   PO4 4179  10.033  10.003   3.836
  303POPC   GL1 4180  10.039  10.311   4.208
  303POPC   GL2 4181   9.866  10.650   4.343
  303POPC   C1A 4182  10.099  10.302   4.657
  303POPC   D2A 4183   9.914  10.578   4.991
  303POPC   C3A 4184  10.035  10.402   5.395
  303POPC   C4A 4185   9.964  10.573   5.796
  303POPC   C1B 4186   9.586  10.382   4.639
  303POPC   C2B 4187   9.431  10.371   5.082
  303POPC   C3B 4188   9.552  10.520   5.481
  303POPC   C4B 4189   9.494  10.376   5.899
  304POPC   NC3 4190   6.680   1.717   3.668
  304POPC   PO4 4191   6.350   1.289   3.973
  304POPC   GL1 4192   6.558   1.068   4.360
  304POPC   GL2 4193   6.840   0.795   4.323
  304POPC   C1A 4194   6.568   1.226   4.835
  304POPC   D2A 4195   6.564   1.606   5.147
  304POPC   C3A 4196   6.496   1.649   5.624
  304POPC   C4A 4197   6.689   1.642   6.057
  304POPC   C1B 4198   6.725   0.747   4.746
  304POPC   C2B 4199   6.810   0.863   5.188
  304POPC   C3B 4200   6.689   0.873   5.610
  304POPC   C4B 4201   6.477   1.181   5.831
  305POPC   NC3 4202  10.942   0.471   4.000
  305POPC   PO4 4203   0.031   0.705   4.053
  305POPC   GL1 4204  11.321   0.485   4.406
  305POPC   GL2 4205  10.952   0.462   4.505
  305POPC   C1A 4206  11.302   0.502   4.873
  305POPC   D2A 4207  11.355   0.874   5.117
  305POPC   C3A 4208  11.455   0.837   5.502
  305POPC   C4A 4209  11.422   0.538   5.790
  305POPC   C1B 4210  10.728   0.205   4.845
  305POPC   C2B 4211  10.807   0.183   5.237
  305POPC   C3B 4212  11.147   0.388   5.383
  305POPC   C4B 4213  10.927   0.399   5.726
  306POPC   NC3 4214   0.781   9.690   3.875
  306POPC   PO4 4215   0.292   9.257   3.915
  306POPC   GL1 4216   0.593   9.194   4.292
  306POPC   GL2 4217   0.800   9.517   4.389
  306POPC   C1A 4218   0.595   9.177   4.773
  306POPC   D2A 4219   0.638   9.477   5.138
  306POPC   C3A 4220   0.622   9.445   5.592
  306POPC   C4A 4221   0.342   9.534   5.920
  306POPC   C1B 4222   0.612   9.819   4.729
  306POPC   C2B 4223   0.373   9.931   5.139
  306POPC   C3B 4224   0.421   9.929   5.594
  306POPC   C4B 4225   0.661   9.904   6.016
  307POPC   NC3 4226  10.778   6.033   4.161
  307POPC   PO4 4227  10.181   5.806   3.893
  307POPC   GL1 4228  10.453   5.659   4.245
  307POPC   GL2 4229  10.287   5.889   4.420
  307POPC   C1A 4230  10.685   5.696   4.689
  307POPC   D2A 4231  10.835   5.831   5.094
  307POPC   C3A 4232  10.559   5.702   5.393
  307POPC   C4A 4233  10.543   5.855   5.808
  307POPC   C1B 4234  10.190   5.560   4.722
  307POPC   C2B 4235  10.101   5.582   5.171
  307POPC   C3B 4236  10.076   5.754   5.604
  307POPC   C4B 4237  10.085   6.118   5.937
  308POPC   NC3 4238  10.575  11.254   3.938
  308POPC   PO4 4239   9.904   0.005   3.912
  308POPC   GL1 4240   9.989  11.259   4.290
  308POPC   GL2 4241  10.335  11.207   4.363
  308POPC   C1A 4242  10.039  11.245   4.761
  308POPC   D2A 4243   9.969  11.465   5.155
  308POPC   C3A 4244  10.191  11.265   5.462
  308POPC   C4A 4245  10.072  11.085   5.826
  308POPC   C1B 4246  10.648  11.157   4.683
  308POPC   C2B 4247  10.528  11.260   5.073
  308POPC   C3B 4248  10.710  11.182   5.458
  308POPC   C4B 4249  10.560  11.288   5.827
  309POPC   NC3 4250   0.619   4.061   3.936
  309POPC   PO4 4251   0.230   4.579   4.050
  309POPC   GL1 4252   0.265   4.258   4.306
  309POPC   GL2 4253   0.591   4.256   4.395
  309POPC   C1A 4254   0.218   4.105   4.700
  309POPC   D2A 4255   0.158   4.336   5.060
  309POPC   C3A 4256   0.238   4.134   5.433
  309POPC   C4A 4257   0.217   4.375   5.788
  309POPC   C1B 4258   0.497   4.530   4.730
  309POPC   C2B 4259   0.651   4.288   5.068
  309POPC   C3B 4260   0.827   4.040   5.375
  309POPC   C4B 4261   0.654   4.107   5.781
  310POPC   NC3 4262   9.940   4.531   3.638
  310POPC   PO4 4263   9.377   4.347   3.955
  310POPC   GL1 4264   9.740   4.454   4.226
  310POPC   GL2 4265   9.788   4.161   4.429
  310POPC   C1A 4266   9.790   4.586   4.702
  310POPC   D2A 4267   9.801   4.310   5.107
  310POPC   C3A 4268   9.718   4.497   5.519
  310POPC   C4A 4269   9.718   4.739   5.940
  310POPC   C1B 4270   9.459   4.186   4.735
  310POPC   C2B 4271   9.249   4.257   5.142
  310POPC   C3B 4272   9.276   4.122   5.566
  310POPC   C4B 4273   9.389   4.350   5.903
  311POPC   NC3 4274   6.367  10.356   4.082
  311POPC   PO4 4275   6.982  10.221   3.923
  311POPC   GL1 4276   6.842  10.536   4.281
  311POPC   GL2 4277   6.515  10.491   4.528
  311POPC   C1A 4278   6.893  10.711   4.745
  311POPC   D2A 4279   6.648  10.561   5.136
  311POPC   C3A 4280   6.834  10.630   5.570
  311POPC   C4A 4281   6.746  10.444   6.015
  311POPC   C1B 4282   6.140  10.513   4.823
  311POPC   C2B 4283   6.096  10.487   5.290
  311POPC   C3B 4284   6.353  10.426   5.685
  311POPC   C4B 4285   6.248  10.308   6.130
  312POPC   NC3 4286   8.136   0.590   3.985
  312POPC   PO4 4287   7.854   0.020   3.877
  312POPC   GL1 4288   8.027   0.179   4.287
  312POPC   GL2 4289   8.406   0.265   4.314
  312POPC   C1A 4290   8.067   0.081   4.736
  312POPC   D2A 4291   8.354   0.060   5.087
  312POPC   C3A 4292   8.145   0.046   5.532
  312POPC   C4A 4293   7.953   0.294   5.831
  312POPC   C1B 4294   8.415   0.445   4.748
  312POPC   C2B 4295   8.142   0.545   5.016
  312POPC   C3B 4296   8.193   0.530   5.431
  312POPC   C4B 4297   8.128   0.796   5.759
  313POPC   NC3 4298   8.124   1.162   3.923
  313POPC   PO4 4299   8.460   0.789   4.236
  313POPC   GL1 4300   8.119   0.996   4.419
  313POPC   GL2 4301   8.145   1.371   4.385
  313POPC   C1A 4302   8.183   1.124   4.841
  313POPC   D2A 4303   8.229   0.987   5.237
  313POPC   C3A 4304   8.423   1.157   5.556
  313POPC   C4A 4305   8.256   1.499   5.718
  313POPC   C1B 4306   7.816   1.440   4.705
  313POPC   C2B 4307   7.680   1.251   5.095
  313POPC   C3B 4308   7.825   1.125   5.492
  313POPC   C4B 4309   7.869   1.219   5.916
  314POPC   NC3 4310   9.316   3.463   4.034
  314POPC   PO4 4311   8.602   3.165   4.029
  314POPC   GL1 4312   8.913   3.310   4.345
  314POPC   GL2 4313   8.940   3.647   4.405
  314POPC   C1A 4314   8.890   3.347   4.828
  314POPC   D2A 4315   8.980   3.262   5.281
  314POPC   C3A 4316   8.723   3.296   5.694
  314POPC   C4A 4317   8.806   3.523   6.087
  314POPC   C1B 4318   9.105   3.821   4.822
  314POPC   C2B 4319   9.034   3.777   5.267
  314POPC   C3B 4320   8.800   3.915   5.646
  314POPC   C4B 4321   8.986   4.004   6.037
  315POPC   NC3 4322   6.832  10.535   3.626
  315POPC   PO4 4323   7.486  10.608   3.697
  315POPC   GL1 4324   7.385  10.340   4.182
  315POPC   GL2 4325   7.311  10.572   4.483
  315POPC   C1A 4326   7.257  10.106   4.631
  315POPC   D2A 4327   7.120  10.338   5.027
  315POPC   C3A 4328   7.049  10.186   5.471
  315POPC   C4A 4329   7.225  10.413   5.857
  315POPC   C1B 4330   7.646  10.415   4.754
  315POPC   C2B 4331   7.617  10.295   5.143
  315POPC   C3B 4332   7.481  10.533   5.434
  315POPC   C4B 4333   7.735  10.496   5.767
  316POPC   NC3 4334   1.369   2.682   3.801
  316POPC   PO4 4335   0.831   2.983   3.940
  316POPC   GL1 4336   0.966   2.640   4.214
  316POPC   GL2 4337   1.279   2.773   4.295
  316POPC   C1A 4338   1.024   2.432   4.640
  316POPC   D2A 4339   1.240   2.550   5.043
  316POPC   C3A 4340   0.974   2.499   5.404
  316POPC   C4A 4341   0.912   2.295   5.797
  316POPC   C1B 4342   1.133   2.924   4.683
  316POPC   C2B 4343   1.132   3.068   5.120
  316POPC   C3B 4344   1.279   2.894   5.514
  316POPC   C4B 4345   1.369   2.502   5.724
  317POPC   NC3 4346   9.808   1.990   3.921
  317POPC   PO4 4347   9.270   2.443   3.847
  317POPC   GL1 4348   9.398   2.219   4.225
  317POPC   GL2 4349   9.303   1.902   4.339
  317POPC   C1A 4350   9.496   2.290   4.681
  317POPC   D2A 4351   9.420   2.026   5.055
  317POPC   C3A 4352   9.559   2.162   5.481
  317POPC   C4A 4353   9.455   2.264   5.936
  317POPC   C1B 4354   9.718   1.867   4.562
  317POPC   C2B 4355   9.847   1.752   4.982
  317POPC   C3B 4356   9.665   1.666   5.405
  317POPC   C4B 4357   9.718   1.828   5.833
  318POPC   NC3 4358   3.342   5.823   3.775
  318POPC   PO4 4359   3.613   5.338   3.808
  318POPC   GL1 4360   3.507   5.090   4.222
  318POPC   GL2 4361   3.196   4.880   4.255
  318POPC   C1A 4362   3.637   5.118   4.695
  318POPC   D2A 4363   3.765   5.234   5.142
  318POPC   C3A 4364   3.452   5.203   5.498
  318POPC   C4A 4365   3.382   4.868   5.797
  318POPC   C1B 4366   3.338   4.708   4.672
  318POPC   C2B 4367   3.452   4.819   5.125
  318POPC   C3B 4368   3.781   4.808   5.456
  318POPC   C4B 4369   3.871   4.671   5.885
  319W        W 4370  11.240  10.755   8.531
  320W        W 4371   8.599   4.374   3.147
  321W        W 4372   5.757   3.549   8.129
  322W        W 4373   6.758   6.830  11.800
  323W        W 4374   7.635   8.417   9.839
  324W        W 4375   2.212   9.706   8.626
  325W        W 4376   5.972   3.876   8.574
  326W        W 4377   0.946   5.088   2.228
  327W        W 4378   3.657   0.784   3.122
  328W        W 4379   9.284   0.760  11.230
  329W        W 4380   7.621   6.117   8.372
  330W        W 4381   8.664   5.491   8.638
  331W        W 4382  10.953   9.106   9.085
  332W        W 4383   9.757   9.393   9.116
  333W        W 4384  10.457   6.562   2.973
  334W        W 4385   7.802  10.866   2.215
  335W        W 4386  10.256   6.664  10.841
  336W        W 4387   7.493   1.370   0.148
  337W        W 4388   5.119   6.451   0.859
  338W        W 4389   0.743   4.367  11.642
  339W        W 4390   0.127   8.141  10.787
  340W        W 4391   8.004   2.315   2.935
  341W        W 4392   4.069  10.749  11.507
  342W        W 4393   3.172   7.616   9.995
  343W        W 4394   1.438   0.901   1.883
  344W        W 4395   9.694   6.606   9.988
  345W        W 4396   7.229   8.028   0.760
  346W        W 4397  10.997   5.440  10.565
  347W        W 4398   6.676   0.760   1.758
  348W        W 4399   3.254   7.048   1.781
  349W        W 4400   5.541   3.602   9.483
  350W        W 4401   1.855   9.489  11.788
  351W        W 4402   4.765   2.836   0.529
  352W        W 4403   9.924  11.420   3.180
  353W        W 4404   8.625   3.399   2.129
  354W        W 4405   1.519   7.588  10.016
  355W        W 4406   0.401   8.515  11.534
  356W        W 4407   0.909   7.048   8.232
  357W        W 4408   2.460   9.931   0.351
  358W        W 4409   6.404   3.623   8.762
  359W        W 4410   7.577   9.494   8.998
  360W        W 4411  10.635   5.081  11.985
  361W        W 4412   6.135   8.449  10.404
  362W        W 4413   1.097   1.399   9.782
  363W        W 4414   6.518   2.923  11.636
  364W        W 4415   2.302  10.842   1.353
  365W        W 4416   1.825   5.524   2.478
  366W        W 4417   9.413   8.837   3.027
  367W        W 4418   4.641  10.771   2.780
  368W        W 4419   5.205   5.455   1.823
  369W        W 4420   8.474   6.943   3.052
  370W        W 4421   7.620   6.574   9.487
  371W        W 4422   5.575   2.621   1.482
  372W        W 4423  11.119  10.514   2.886
  373W        W 4424   7.750   9.523   3.513
  374W        W 4425   5.573   6.655  10.535
  375W        W 4426   1.431   9.907   0.492
  376W        W 4427   9.852   4.743   0.727
  377W        W 4428   7.599   5.205  10.105
  378W        W 4429   2.232   3.699   2.323
  379W        W 4430   1.453   8.128   2.734
  380W        W 4431   3.750   3.735   1.271
  381W        W 4432   9.303   2.459   2.472
  382W        W 4433   5.144   3.224   1.340
  383W        W 4434   5.656   0.362  11.105
  384W        W 4435   5.393   6.056   9.831
  385W        W 4436   4.838   1.164   3.115
  386W        W 4437   9.409   4.620  11.954
  387W        W 4438   4.960  10.554  10.442
  388W        W 4439   8.629   9.878   2.578
  389W        W 4440  11.175   2.648   8.795
  390W        W 4441   2.680   5.918   1.838
  391W        W 4442   2.961   8.043   9.289
  392W        W 4443   2.723   1.974  11.763
  393W        W 4444   0.860   9.335   2.622
  394W        W 4445   5.391   4.462   3.915
  395W        W 4446   2.705   8.613   3.247
  396W        W 4447   1.716   7.924   3.540
  397W        W 4448   5.179   3.652   1.858
  398W        W 4449   6.945   7.558   1.326
  399W        W 4450   3.189   7.441   2.566
  400W        W 4451   3.781   0.477  10.684
  401W        W 4452  11.408   2.581  10.866
  402W        W 4453   5.372  10.842  10.582
  403W        W 4454   1.383   9.141   0.698
  404W        W 4455   8.692  10.526  11.738
  405W        W 4456   5.060   2.393   8.131
  406W        W 4457   3.122   6.618   1.492
  407W        W 4458   0.221   6.554  11.493
  408W        W 4459   3.317   4.759  11.056
  409W        W 4460  10.358   4.143   1.243
  410W        W 4461   3.570   5.543  11.290
  411W        W 4462   5.947  10.426  10.962
  412W        W 4463   7.604   5.081  11.924
  413W        W 4464   2.790   9.137   3.471
  414W        W 4465   6.447  10.206   3.563
  415W        W 4466   3.301   3.396   0.458
  416W        W 4467   8.207   9.061  11.262
  417W        W 4468   2.333   2.269   9.146
  418W        W 4469   8.997   5.393  11.557
  419W        W 4470   5.250   2.627  10.777
  420W        W 4471   9.996   6.646   2.757
  421W        W 4472   6.960   4.637  10.745
  422W        W 4473   4.281   6.992   0.716
  423W        W 4474  11.308   6.062  10.390
  424W        W 4475   1.295   6.464   0.178
  425W        W 4476   9.048   8.887   0.528
  426W        W 4477   6.436   4.045   9.147
  427W        W 4478   2.312   9.670  11.926
  428W        W 4479  10.988   7.461   1.449
  429W        W 4480  10.032  10.763  10.401
  430W        W 4481   3.937   0.161  11.105
  431W        W 4482   7.069   7.519   0.297
  432W        W 4483   7.835   0.850   2.618
  433W        W 4484   7.070   0.256  11.531
  434W        W 4485   8.615   2.246  11.875
  435W        W 4486   4.217   5.709   0.343
  436W        W 4487   4.254   3.758   1.380
  437W        W 4488   5.530   1.955   9.471
  438W        W 4489   8.437   7.125   1.652
  439W        W 4490   7.600   1.687   3.399
  440W        W 4491  10.030  10.824   1.287
  441W        W 4492   8.021   4.105   1.195
  442W        W 4493   5.612   9.636   9.431
  443W        W 4494   1.266   6.515   1.135
  444W        W 4495   9.454   7.923   2.876
  445W        W 4496   6.953  11.309   2.806
  446W        W 4497   5.466   4.167   2.246
  447W        W 4498   2.245   2.784   8.924
  448W        W 4499   0.951  10.883   9.852
  449W        W 4500   2.831   7.504   1.837
  450W        W 4501   4.213  11.103   3.428
  451W        W 4502   4.725   0.774  11.937
  452W        W 4503   7.664   3.653  10.448
  453W        W 4504  10.879   8.842   1.467
  454W        W 4505  10.447   0.572   1.412
  455W        W 4506   3.192   8.116   9.759
  456W        W 4507   3.136   1.631   2.491
  457W        W 4508   9.321   7.545  10.785
  458W        W 4509   2.990  11.187   2.243
  459W        W 4510   7.778   9.276  11.722
  460W        W 4511   9.539   2.599   0.450
  461W        W 4512   7.057   1.701   0.204
  462W        W 4513   4.155   8.753   8.950
  463W        W 4514   0.892   1.382   0.034
  464W        W 4515   7.151   8.883   3.162
  465W        W 4516   3.147   5.667   9.434
  466W        W 4517  10.012   7.096   0.492
  467W        W 4518   5.528   8.397   9.950
  468W        W 4519   0.655   0.951   0.280
  469W        W 4520   1.102   9.504   0.383
  470W        W 4521   7.086   4.314   0.879
  471W        W 4522   2.739  10.826   2.002
  472W        W 4523   4.326  10.776   0.026
  473W        W 4524   9.224  10.065  11.062
  474W        W 4525   3.200   6.472   8.901
  475W        W 4526   5.991   5.736  11.369
  476W        W 4527   5.920   6.042   9.813
  477W        W 4528   2.163   4.853   3.280
  478W        W 4529   9.569   1.070   9.621
  479W        W 4530  10.706   0.886  11.380
  480W        W 4531   4.716   0.643  11.042
  481W        W 4532   2.300   7.621   8.039
  482W        W 4533   2.484   4.819   8.310
  483W        W 4534   7.983   9.592   9.362
  484W        W 4535   3.758   2.554   8.701
  485W        W 4536   4.558   7.148  11.799
  486W        W 4537   3.834   9.023   8.586
  487W        W 4538   0.911   8.469   1.749
  488W        W 4539   9.456   6.513  10.424
  489W        W 4540   3.062   7.136   9.518
  490W        W 4541   5.090  10.727   9.960
  491W        W 4542   7.007   1.808  10.816
  492W        W 4543   5.107   2.337   3.226
  493W        W 4544   2.287   7.178   9.879
  494W        W 4545   3.049   1.743   3.738
  495W        W 4546   7.972   6.086   3.223
  496W        W 4547  11.441   3.422   2.747
  497W        W 4548   5.947   6.451   0.401
  498W        W 4549   4.116  11.245   2.147
  499W        W 4550   0.932   2.707   1.211
  500W        W 4551   5.515   2.725   3.250
  501W        W 4552   4.863   4.337   0.888
  502W        W 4553   9.713   3.359  10.679
  503W        W 4554   5.134   9.836   2.218
  504W        W 4555   6.123  10.812  10.001
  505W        W 4556   1.447   3.328   1.489
  506W        W 4557   7.221   0.888   9.263
  507W        W 4558   0.832   6.539   1.396
  508W        W 4559   9.865   8.470   0.659
  509W        W 4560   1.660   4.031   9.669
  510W        W 4561   4.496   5.296  11.225
  511W        W 4562  10.547  10.068   2.242
  512W        W 4563  11.416   4.714  11.888
  513W        W 4564   8.176   5.461   8.469
  514W        W 4565  10.845   9.352   1.561
  515W        W 4566   1.225   2.824   2.951
  516W        W 4567   7.429   6.593   8.503
  517W        W 4568   0.052   4.827   0.363
  518W        W 4569   2.758   8.568   0.363
  519W        W 4570   2.628   4.649   1.948
  520W        W 4571   4.644  10.232   0.930
  521W        W 4572   3.878   1.752   2.172
  522W        W 4573   7.572   2.396   2.679
  523W        W 4574   2.333   6.961  10.809
  524W        W 4575   6.330   9.529   9.681
  525W        W 4576   6.186   5.077  10.849
  526W        W 4577   3.155   8.646   9.879
  527W        W 4578   8.255   4.804   3.608
  528W        W 4579   8.861   8.542  11.251
  529W        W 4580   3.304   8.095   0.362
  530W        W 4581   7.439   2.680   1.840
  531W        W 4582   6.734   0.786   9.235
  532W        W 4583   9.741   7.553   1.315
  533W        W 4584   8.456   6.082   3.440
  534W        W 4585   0.922   5.590   9.581
  535W        W 4586   1.798  11.006  10.278
  536W        W 4587   4.943   0.081  10.320
  537W        W 4588   8.546   6.641   2.173
  538W        W 4589   1.297   7.478  10.886
  539W        W 4590   0.336   1.682   0.789
  540W        W 4591   5.658   2.809  11.022
  541W        W 4592   5.545   2.321   3.576
  542W        W 4593   6.662   8.734  11.207
  543W        W 4594   3.546   0.997   1.292
  544W        W 4595   7.429   1.304   0.931
  545W        W 4596   7.367   6.161   0.338
  546W        W 4597   0.886   8.657   8.404
  547W        W 4598  11.443   5.169   3.372
  548W        W 4599   9.041   6.015   8.272
  549W        W 4600   3.895  10.791  11.003
  550W        W 4601   0.841   7.887   1.964
  551W        W 4602  10.524   9.919   1.285
  552W        W 4603   5.588   7.164   1.700
  553W        W 4604   7.623  10.081   0.096
  554W        W 4605   2.642   7.565   0.275
  555W        W 4606   9.883   6.493   2.289
  556W        W 4607  10.955   6.480   9.626
  557W        W 4608  10.046   3.325   1.361
  558W        W 4609   1.515  11.354  11.991
  559W        W 4610   7.749   1.920   2.557
  560W        W 4611   9.433   7.031  10.734
  561W        W 4612   0.402   1.170   0.711
  562W        W 4613   5.636   7.940   2.817
  563W        W 4614   6.100  11.316   2.657
  564W        W 4615   1.185   6.575   0.650
  565W        W 4616  10.808  11.294   1.151
  566W        W 4617   4.606   7.096   9.853
  567W        W 4618  11.460   2.580   3.151
  568W        W 4619   5.553   4.170   8.674
  569W        W 4620   2.290   9.202   2.791
  570W        W 4621   2.487   8.163  11.816
  571W        W 4622   9.051  10.499  10.828
  572W        W 4623   0.996   1.878   0.002
  573W        W 4624   1.340   8.685   1.950
  574W        W 4625   6.495   7.184   3.110
  575W        W 4626   4.874   1.999   1.401
  576W        W 4627   9.878   9.787  10.389
  577W        W 4628   9.608   6.779   9.197
  578W        W 4629   1.127   5.678   0.500
  579W        W 4630   5.822  10.450   9.450
  580W        W 4631   8.008   0.571  11.422
  581W        W 4632   9.290   2.137   3.437
  582W        W 4633   6.406   5.745   2.220
  583W        W 4634   1.823   2.214   9.269
  584W        W 4635   9.412   3.248   3.500
  585W        W 4636   4.318   2.629  11.102
  586W        W 4637   5.689   8.691   9.566
  587W        W 4638  10.871   6.757  11.968
  588W        W 4639   8.178  10.962   0.741
  589W        W 4640   1.310   9.002  11.489
  590W        W 4641   2.157   1.817   2.673
  591W        W 4642   2.626   0.317   2.830
  592W        W 4643   3.236   3.725   0.052
  593W        W 4644   4.633   6.163   3.516
  594W        W 4645   9.403   4.352   9.870
  595W        W 4646   4.293   7.953  10.338
  596W        W 4647   0.843   8.906   1.421
  597W        W 4648   7.379   3.126   9.465
  598W        W 4649   5.110   9.504   9.443
  599W        W 4650   3.038   6.054  11.940
  600W        W 4651   0.497   8.564   2.007
  601W        W 4652   4.303   7.187   8.876
  602W        W 4653   9.889   1.958   1.705
  603W        W 4654   0.827   3.521   3.076
  604W        W 4655   2.745   9.346   9.907
  605W        W 4656   7.393   4.855  10.497
  606W        W 4657   4.791   6.635   1.230
  607W        W 4658   7.384   1.696  11.782
  608W        W 4659   9.421   3.167  11.499
  609W        W 4660   8.712   9.890   0.318
  610W        W 4661  10.346   9.455  10.008
  611W        W 4662   2.435   2.301  10.096
  612W        W 4663  10.769   9.539   8.809
  613W        W 4664   6.973   9.980   3.216
  614W        W 4665   3.510   5.108   3.344
  615W        W 4666   5.597   9.711   1.863
  616W        W 4667   5.570   2.439   9.238
  617W        W 4668   8.575  11.282   2.150
  618W        W 4669   6.294   7.051  10.472
  619W        W 4670   2.314   7.681  11.846
  620W        W 4671   1.403   2.839   1.942
  621W        W 4672   0.202   2.216   1.469
  622W        W 4673   4.117   6.355   8.608
  623W        W 4674   6.674   7.210  11.431
  624W        W 4675   0.237   5.354   1.488
  625W        W 4676   0.305   4.272   3.094
  626W        W 4677   3.793  10.223   0.181
  627W        W 4678   8.832   4.337   0.121
  628W        W 4679   1.399   1.012   2.769
  629W        W 4680   2.390   9.588  10.150
  630W        W 4681   7.879   9.311   0.750
  631W        W 4682  11.425   5.641  11.715
  632W        W 4683   5.692   8.503   1.382
  633W        W 4684   7.189  10.191   1.398
  634W        W 4685   2.788   9.584  11.540
  635W        W 4686   6.014   6.889   1.811
  636W        W 4687  10.989   7.431  11.387
  637W        W 4688   1.409   6.685   2.168
  638W        W 4689   3.591  10.411  10.469
  639W        W 4690   3.610   9.470   3.243
  640W        W 4691   0.711   6.740   9.074
  641W        W 4692   8.987   6.822   9.542
  642W        W 4693   8.673   6.649   1.666
  643W        W 4694  11.431   5.773   1.112
  644W        W 4695   3.605   1.826   2.664
  645W        W 4696  10.487   0.739   0.935
  646W        W 4697   1.818  10.177  11.278
  647W        W 4698   4.141   5.694  11.840
  648W        W 4699  11.289   7.453  11.793
  649W        W 4700   8.543   0.565  10.215
  650W        W 4701   6.240   9.760   0.357
  651W        W 4702   1.781   7.307   0.254
  652W        W 4703   4.098   0.448   1.428
  653W        W 4704   5.195   1.667  11.733
  654W        W 4705   8.112   7.114   9.958
  655W        W 4706   8.433   1.183  10.843
  656W        W 4707   5.100   4.457  11.211
  657W        W 4708   7.129   7.139   1.108
  658W        W 4709   0.793   1.874   2.349
  659W        W 4710   7.964   0.325   0.263
  660W        W 4711   5.129  10.073   3.144
  661W        W 4712   0.709   8.900  11.097
  662W        W 4713   5.195   1.861   3.127
  663W        W 4714   2.656   5.191   3.664
  664W        W 4715   5.741   3.156   2.126
  665W        W 4716   3.616   4.849   0.625
  666W        W 4717   8.929   3.757   0.734
  667W        W 4718   7.640   9.147   3.080
  668W        W 4719   7.462   8.152   2.061
  669W        W 4720   1.290  11.373  11.021
  670W        W 4721   0.998   3.040   9.680
  671W        W 4722   9.049   0.262  11.460
  672W        W 4723   5.796   5.766  11.860
  673W        W 4724   4.966  10.232  10.042
  674W        W 4725   3.579   7.014   9.607
  675W        W 4726   6.573  11.086  10.969
  676W        W 4727   9.605   5.515   9.457
  677W        W 4728   2.102   4.194  10.573
  678W        W 4729   7.449   4.223   1.925
  679W        W 4730   0.902   7.606   9.387
  680W        W 4731   2.465  10.360  10.076
  681W        W 4732   7.107  10.545   8.736
  682W        W 4733   7.175  11.132   0.378
  683W        W 4734   0.799   3.373  10.040
  684W        W 4735   4.699   6.161   0.803
  685W        W 4736   3.647   2.379  11.797
  686W        W 4737   2.196   6.247   2.976
  687W        W 4738   8.329   5.284   2.812
  688W        W 4739   8.808   3.792   9.091
  689W        W 4740  10.733   4.835   3.620
  690W        W 4741   5.842  10.554   0.175
  691W        W 4742   2.341  11.330   9.063
  692W        W 4743   5.688   1.789   1.003
  693W        W 4744   8.149   8.267   2.261
  694W        W 4745   2.299   1.725  11.913
  695W        W 4746   1.415   5.171   2.650
  696W        W 4747   5.488   2.653   0.951
  697W        W 4748   3.119   9.466   9.173
  698W        W 4749   2.989   4.137   0.226
  699W        W 4750   4.725   7.241   0.537
  700W        W 4751  10.008   0.771   3.404
  701W        W 4752  10.592   5.183   2.281
  702W        W 4753   8.072   4.605   9.462
  703W        W 4754   1.681   2.324   2.320
  704W        W 4755   9.275   3.265  10.931
  705W        W 4756   7.129   0.939  11.322
  706W        W 4757   9.602   8.974   0.870
  707W        W 4758   4.353   9.941  10.663
  708W        W 4759  10.647   3.225   0.694
  709W        W 4760   4.903   1.279   1.215
  710W        W 4761   1.253   9.774   9.812
  711W        W 4762   6.538   9.969   9.626
  712W        W 4763   2.189   8.636   1.616
  713W        W 4764   1.865   8.562  10.003
  714W        W 4765   9.352   9.471   2.306
  715W        W 4766   2.761   2.189   0.253
  716W        W 4767   3.131   3.170   1.793
  717W        W 4768  10.054   9.633   3.064
  718W        W 4769   0.237   0.578   0.119
  719W        W 4770   4.147   9.518  10.958
  720W        W 4771   5.089   9.396  11.073
  721W        W 4772   9.201   6.580  10.863
  722W        W 4773   8.115  10.041   9.103
  723W        W 4774   7.918   0.354  10.955
  724W        W 4775   8.073   1.446   1.865
  725W        W 4776   1.119   7.978  11.594
  726W        W 4777   7.178   3.677   1.232
  727W        W 4778   0.528   7.693   1.459
  728W        W 4779  10.313   0.256   1.012
  729W        W 4780   6.327   1.708   2.310
  730W        W 4781   2.602   5.582   3.341
  731W        W 4782   3.520   8.379  11.306
  732W        W 4783   0.690  10.387   1.370
  733W        W 4784   3.675   7.911  11.522
  734W        W 4785   5.203   3.057  11.576
  735W        W 4786   6.497   2.805   3.470
  736W        W 4787   0.767   0.684   3.213
  737W        W 4788   7.011   8.422   1.902
  738W        W 4789   5.611   7.802   9.856
  739W        W 4790   5.864  10.535   2.100
  740W        W 4791   0.488  11.038   0.661
  741W        W 4792   8.288   6.360  10.995
  742W        W 4793   0.011   7.644   9.608
  743W        W 4794   1.539   7.942  10.913
  744W        W 4795   2.207   1.260   1.011
  745W        W 4796   5.677   5.541   2.728
  746W        W 4797  10.010   8.165   1.076
  747W        W 4798   3.242  10.802   0.866
  748W        W 4799  10.885   8.684   8.786
  749W        W 4800   6.707   3.235   8.916
  750W        W 4801   2.743   4.220  11.206
  751W        W 4802  10.346   5.585   1.899
  752W        W 4803  11.417   4.548   1.680
  753W        W 4804   5.012   2.056   9.542
  754W        W 4805   8.562   7.203  11.173
  755W        W 4806  10.892   4.692   1.687
  756W        W 4807   4.795   2.671  10.972
  757W        W 4808   0.954   9.001   9.198
  758W        W 4809   7.138   4.255   9.980
  759W        W 4810   9.017  11.457   9.511
  760W        W 4811  11.448   5.682  10.745
  761W        W 4812   5.709   1.099   1.811
  762W        W 4813   0.696   0.325  10.958
  763W        W 4814  10.860   7.021   1.705
  764W        W 4815  10.137   4.489   9.882
  765W        W 4816   6.679   9.109  11.658
  766W        W 4817   2.065   6.855   3.637
  767W        W 4818   7.612   0.722   2.044
  768W        W 4819  10.020   5.686  10.640
  769W        W 4820   2.605   1.805   1.754
  770W        W 4821   4.165   1.765   3.107
  771W        W 4822   6.781   5.154   0.447
  772W        W 4823   1.949   0.684   0.198
  773W        W 4824   8.541   8.942   2.735
  774W        W 4825   5.073   6.690  10.326
  775W        W 4826   6.999   1.045   3.612
  776W        W 4827   9.696   4.945   3.872
  777W        W 4828   6.270   5.703   1.271
  778W        W 4829   0.844   5.075   1.716
  779W        W 4830   7.810   4.651  10.741
  780W        W 4831   0.042   8.574   9.415
  781W        W 4832   5.944  10.107  10.491
  782W        W 4833   4.809   5.677   2.084
  783W        W 4834  10.855   0.885   1.312
  784W        W 4835   6.692   2.582   9.366
  785W        W 4836   6.047   2.151   2.246
  786W        W 4837  10.282   0.249  10.717
  787W        W 4838  10.511   5.639  10.486
  788W        W 4839   9.357   7.657   3.413
  789W        W 4840   2.833   8.615   2.737
  790W        W 4841   1.195   9.607   1.729
  791W        W 4842   5.803  10.067   0.371
  792W        W 4843   6.597   3.180  11.168
  793W        W 4844   7.472   7.637   1.259
  794W        W 4845   5.581   1.809   3.453
  795W        W 4846   6.377  10.605  11.191
  796W        W 4847   7.425   7.701   2.306
  797W        W 4848   7.554   6.730  11.424
  798W        W 4849  10.539   6.578  10.369
  799W        W 4850   8.509   9.883   8.796
  800W        W 4851   9.125   8.956  11.155
  801W        W 4852  11.454   5.591   1.866
  802W        W 4853   0.909  10.072   0.390
  803W        W 4854   2.722   6.610  10.940
  804W        W 4855  10.347   5.107   3.148
  805W        W 4856   9.994   1.707  10.278
  806W        W 4857   6.435   3.790   9.598
  807W        W 4858   1.334   5.478   3.210
  808W        W 4859   0.068  11.348  10.674
  809W        W 4860   9.552   0.228   0.538
  810W        W 4861   5.069   0.460   0.789
  811W        W 4862   3.645   2.330   1.206
  812W        W 4863   9.996   0.257   0.275
  813W        W 4864   4.577   2.197   0.981
  814W        W 4865   2.552   8.332   0.795
  815W        W 4866   0.543   9.195   0.775
  816W        W 4867   5.921   7.817  11.980
  817W        W 4868   6.494   5.117   1.863
  818W        W 4869   4.772   8.325   1.545
  819W        W 4870   3.206   1.387   2.040
  820W        W 4871  10.431   0.604   9.412
  821W        W 4872   3.847   0.380   9.682
  822W        W 4873   6.315   7.210   9.487
  823W        W 4874   2.233   5.234   9.484
  824W        W 4875   5.443   0.791   9.857
  825W        W 4876   0.910   8.351   3.527
  826W        W 4877   5.640   9.940  11.842
  827W        W 4878   2.197   3.364   2.784
  828W        W 4879  11.376   7.024  10.520
  829W        W 4880   2.714   4.501   0.951
  830W        W 4881   1.447   9.919   9.363
  831W        W 4882   7.047   4.828   0.749
  832W        W 4883   1.827   8.154   1.386
  833W        W 4884   7.826   4.188   8.698
  834W        W 4885  10.921   2.080   2.253
  835W        W 4886  11.277   9.931   0.755
  836W        W 4887   1.148   0.545   2.862
  837W        W 4888   7.779  10.658   0.789
  838W        W 4889   0.677   8.887   2.768
  839W        W 4890  10.024   5.662   0.968
  840W        W 4891   8.066  10.746   1.224
  841W        W 4892   6.256   9.196   3.137
  842W        W 4893   1.519   6.231   9.892
  843W        W 4894   6.433   0.294  11.660
  844W        W 4895   0.951   8.404   9.858
  845W        W 4896   6.670   9.415   1.069
  846W        W 4897  10.839   2.168   1.748
  847W        W 4898   4.222  10.783   2.446
  848W        W 4899   2.658   3.680   2.040
  849W        W 4900   7.870   0.338   2.700
  850W        W 4901   6.533   8.115  11.347
  851W        W 4902   0.663   2.150   1.731
  852W        W 4903   0.783   0.814   0.761
  853W        W 4904   1.287   3.123  11.575
  854W        W 4905  11.384   4.088   3.484
  855W        W 4906   2.367   2.454   0.455
  856W        W 4907   8.365   7.494   2.294
  857W        W 4908   1.199   9.407   9.444
  858W        W 4909   4.264  11.283  11.359
  859W        W 4910   1.755   5.085   1.676
  860W        W 4911   3.823   9.268   0.452
  861W        W 4912   3.509  11.394  11.959
  862W        W 4913   7.499   5.007   0.929
  863W        W 4914   2.548   4.637  11.781
  864W        W 4915   7.740   1.434   0.567
  865W        W 4916   7.904   1.931   0.714
  866W        W 4917   0.936   2.738   8.480
  867W        W 4918   3.175   7.503   1.086
  868W        W 4919   2.705   4.094   1.256
  869W        W 4920   6.978   0.326   2.753
  870W        W 4921   2.518   8.075   8.157
  871W        W 4922   4.916   2.857   4.020
  872W        W 4923   4.281   3.362  11.494
  873W        W 4924   2.254   3.809   1.326
  874W        W 4925  11.148   7.711   0.741
  875W        W 4926   0.999   8.891   0.425
  876W        W 4927   8.481   1.758   3.256
  877W        W 4928   1.362  10.032  11.733
  878W        W 4929   9.905   8.988   9.390
  879W        W 4930   0.348   2.730   0.045
  880W        W 4931   9.796   7.415   8.511
  881W        W 4932   3.918   2.168   2.890
  882W        W 4933   6.950   5.846  10.355
  883W        W 4934   4.233   2.196   3.382
  884W        W 4935   4.277   0.862   2.209
  885W        W 4936   7.739  10.174   0.584
  886W        W 4937   0.487   6.272   1.663
  887W        W 4938   0.292   1.888  10.296
  888W        W 4939  11.412   4.670  10.560
  889W        W 4940   3.600   0.469   2.720
  890W        W 4941   5.706   1.323   0.771
  891W        W 4942   1.134  10.443   9.509
  892W        W 4943  10.898  10.415   9.284
  893W        W 4944   6.275  10.243   0.207
  894W        W 4945   4.541  11.154   9.169
  895W        W 4946   4.176   4.717   2.814
  896W        W 4947   6.638   9.487  10.473
  897W        W 4948  11.349   7.619   9.112
  898W        W 4949  10.321   9.576  10.523
  899W        W 4950   3.904   6.166  10.664
  900W        W 4951   4.110   4.136   9.278
  901W        W 4952   1.704   9.512   8.607
  902W        W 4953   1.349   8.702   1.062
  903W        W 4954   0.866   6.356   2.936
  904W        W 4955   3.611  11.430   9.544
  905W        W 4956   4.823   8.394   2.856
  906W        W 4957   8.323  10.230   2.788
  907W        W 4958   5.559  10.601   2.962
  908W        W 4959   7.583   8.451  10.365
  909W        W 4960   0.166   1.475  11.906
  910W        W 4961   5.995   3.172   0.101
  911W        W 4962   0.649   7.050   9.484
  912W        W 4963   3.424   8.909   1.951
  913W        W 4964  11.287   8.025   3.068
  914W        W 4965   1.713   7.354   2.930
  915W        W 4966   3.069   5.300   8.237
  916W        W 4967   8.153   2.803  11.285
  917W        W 4968   9.282   0.436   2.760
  918W        W 4969   8.622   1.043   2.604
  919W        W 4970   9.377   2.152   0.314
  920W        W 4971  10.958  10.572   0.766
  921W        W 4972   2.276   9.104   9.985
  922W        W 4973   6.592   1.960   1.468
  923W        W 4974   5.651   1.944   1.996
  924W        W 4975   4.293   0.732  11.372
  925W        W 4976   6.122   3.820   0.394
  926W        W 4977   4.747   6.275  10.318
  927W        W 4978   0.302   2.247  10.884
  928W        W 4979   8.013   7.976   1.363
  929W        W 4980   6.588  10.435  10.750
  930W        W 4981   2.126   4.303   0.510
  931W        W 4982   3.177   5.531  10.512
  932W        W 4983   4.487   8.831   9.346
  933W        W 4984  10.381   2.416  10.917
  934W        W 4985   9.675   4.131   1.847
  935W        W 4986   1.510   6.339   3.521
  936W        W 4987   5.131   1.994   3.634
  937W        W 4988   3.214  10.259   2.701
  938W        W 4989   8.565   3.363   3.077
  939W        W 4990   6.146   1.395   2.691
  940W        W 4991  11.016   3.642   1.415
  941W        W 4992   8.572   6.131   9.168
  942W        W 4993  11.123   8.087   3.544
  943W        W 4994   8.042  11.412   8.891
  944W        W 4995   6.011  10.428   2.641
  945W        W 4996   3.577   6.383   2.707
  946W        W 4997   3.655   3.714   3.056
  947W        W 4998   9.421  10.531  10.284
  948W        W 4999   0.424   7.009   2.554
  949W        W 5000   2.086   9.976   2.861
  950W        W 5001   9.772   3.276  11.862
  951W        W 5002   7.609   2.237  10.931
  952W        W 5003   9.013  11.061   0.422
  953W        W 5004   9.298   5.097   1.456
  954W        W 5005   6.739   8.928   9.211
  955W        W 5006   8.284   9.148  11.760
  956W        W 5007   5.752   3.756   1.624
  957W        W 5008   1.336   3.768   2.874
  958W        W 5009   5.240   8.041   9.641
  959W        W 5010   0.987   1.683   1.464
  960W        W 5011   0.264   9.499   1.474
  961W        W 5012  10.411   3.259   2.182
  962W        W 5013   2.640  10.920   8.952
  963W        W 5014   5.764   7.186  11.280
  964W        W 5015   1.319   0.473   3.346
  965W        W 5016   8.605   5.903  10.968
  966W        W 5017   5.169   4.631  11.749
  967W        W 5018   1.022   0.631   1.736
  968W        W 5019   5.599   7.551  10.964
  969W        W 5020   2.114   5.969  10.927
  970W        W 5021   9.470   5.178   3.431
  971W        W 5022   3.760   8.029   8.917
  972W        W 5023   4.144   7.655   9.043
  973W        W 5024   7.155   2.313   3.023
  974W        W 5025   8.742   4.953  10.771
  975W        W 5026   0.803   0.194   1.859
  976W        W 5027   4.376   1.329   1.367
  977W        W 5028   7.000   2.744   8.982
  978W        W 5029   7.647   3.850   3.277
  979W        W 5030   0.001   4.269   0.148
  980W        W 5031   2.666   8.497   1.728
  981W        W 5032  10.873  10.362   0.307
  982W        W 5033   3.140   2.910   9.159
  983W        W 5034   1.392   2.769  10.998
  984W        W 5035   3.267   9.848   8.851
  985W        W 5036   5.056   5.863  11.363
  986W        W 5037   5.125   9.615   8.068
  987W        W 5038  10.952   8.118   2.684
  988W        W 5039   6.435   9.132   1.839
  989W        W 5040   5.666  10.112   8.518
  990W        W 5041   7.047   8.382   9.076
  991W        W 5042   6.005   5.532   9.659
  992W        W 5043   8.883   5.517  10.577
  993W        W 5044   7.453   3.609   0.772
  994W        W 5045   6.300   2.685   2.871
  995W        W 5046   8.093   5.529   0.692
  996W        W 5047   1.434   6.239   9.009
  997W        W 5048   6.678   0.066  10.840
  998W        W 5049   8.072   6.434   0.293
  999W        W 5050  10.563   4.490   9.608
 1000W        W 5051   9.591   3.561   2.660
 1001W        W 5052   4.172   2.832  10.033
 1002W        W 5053   0.338   4.539   9.807
 1003W        W 5054  10.001   9.079  11.523
 1004W        W 5055   2.627   6.570   2.917
 1005W        W 5056   3.222  10.534   3.168
 1006W        W 5057   9.957   1.726   3.433
 1007W        W 5058   9.421   5.559  11.757
 1008W        W 5059   7.997   9.925   3.254
 1009W        W 5060   1.236   4.550   9.860
 1010W        W 5061   9.017   9.367  11.467
 1011W        W 5062   3.601   0.418   0.043
 1012W        W 5063   3.062   3.078   8.400
 1013W        W 5064   0.251   9.117   0.049
 1014W        W 5065   8.152   8.931   0.579
 1015W        W 5066   9.727   6.679   0.478
 1016W        W 5067   9.326   9.376   9.939
 1017W        W 5068   5.226   1.941   0.719
 1018W        W 5069   3.140   2.380   2.160
 1019W        W 5070   9.322   5.912   1.941
 1020W        W 5071   0.939   1.531  11.098
 1021W        W 5072   2.884   1.626  10.491
 1022W        W 5073   3.782   0.267   9.177
 1023W        W 5074   0.393   6.463   3.300
 1024W        W 5075   1.842   3.619   9.398
 1025W        W 5076   9.902  10.042   3.334
 1026W        W 5077   5.944   0.500   9.295
 1027W        W 5078  11.371   7.030   1.706
 1028W        W 5079   7.671   2.612  11.946
 1029W        W 5080   8.424   0.250   0.474
 1030W        W 5081   5.768  10.897   9.185
 1031W        W 5082   8.431   8.095   9.097
 1032W        W 5083   0.310   5.172   3.013
 1033W        W 5084   4.817   8.897   0.909
 1034W        W 5085   0.539   3.988  11.885
 1035W        W 5086   0.397   6.269   9.756
 1036W        W 5087   8.742   1.458  11.770
 1037W        W 5088  11.244  11.182  10.295
 1038W        W 5089   2.609   8.109   2.105
 1039W        W 5090   3.631   8.414   9.735
 1040W        W 5091   7.887   6.948   2.587
 1041W        W 5092   9.567   2.384  11.105
 1042W        W 5093   6.933   0.809   1.290
 1043W        W 5094   6.253   6.384   8.565
 1044W        W 5095   2.185   8.321  10.712
 1045W        W 5096   0.929   1.364   9.108
 1046W        W 5097   2.064   6.853   9.514
 1047W        W 5098   9.787  10.257   9.011
 1048W        W 5099  11.047   7.716  10.502
 1049W        W 5100   1.188   1.972   0.710
 1050W        W 5101   8.599   9.933   1.142
 1051W        W 5102   6.028   8.197   3.049
 1052W        W 5103  11.035   9.844   0.321
 1053W        W 5104   4.807   9.791   2.630
 1054W        W 5105   6.137   1.378   1.150
 1055W        W 5106   1.762  11.243  11.097
 1056W        W 5107   9.415   6.643   0.085
 1057W        W 5108   8.267   0.244   3.028
 1058W        W 5109   2.441   0.712   0.309
 1059W        W 5110   2.586   6.125  11.037
 1060W        W 5111   3.771   0.069   0.382
 1061W        W 5112   7.990   8.968   1.579
 1062W        W 5113   6.636   8.912   0.336
 1063W        W 5114   0.895   3.419  11.438
 1064W        W 5115   0.855   6.778  10.905
 1065W        W 5116   8.176   6.676   1.760
 1066W        W 5117   2.433   4.839   1.194
 1067W        W 5118   9.411   2.431  10.635
 1068W        W 5119   5.097   2.642   1.296
 1069W        W 5120   0.889   3.655  10.882
 1070W        W 5121   7.565   7.223   0.305
 1071W        W 5122  10.140   7.917   0.670
 1072W        W 5123   6.709   9.326   9.975
 1073W        W 5124   9.853  10.159   1.814
 1074W        W 5125   2.196   4.676   0.159
 1075W        W 5126   2.192   7.950   2.366
 1076W        W 5127  11.176   6.481  11.257
 1077W        W 5128  10.934   9.999  10.068
 1078W        W 5129   1.598   2.362   1.453
 1079W        W 5130   6.501   1.712   1.003
 1080W        W 5131   1.930   1.341   9.401
 1081W        W 5132  11.384   7.254   0.810
 1082W        W 5133   9.870  10.836   9.914
 1083W        W 5134   1.180   9.593   0.871
 1084W        W 5135   0.730   2.329  11.298
 1085W        W 5136   9.511  10.364   0.030
 1086W        W 5137   9.330   7.625   1.010
 1087W        W 5138  10.876   7.190   3.070
 1088W        W 5139   6.605   1.457   1.463
 1089W        W 5140   5.518   6.691   1.822
 1090W        W 5141   9.411   1.901  11.059
 1091W        W 5142   9.289   1.429  11.829
 1092W        W 5143   4.699   7.752   2.951
 1093W        W 5144   6.551   3.734  10.910
 1094W        W 5145   5.147   8.025   3.027
 1095W        W 5146   9.519   8.876  10.810
 1096W        W 5147   9.483   1.642   1.505
 1097W        W 5148   2.870   9.471   2.202
 1098W        W 5149  11.317   5.103   2.874
 1099W        W 5150   7.610   9.323  10.494
 1100W        W 5151   2.875   0.941  11.427
 1101W        W 5152   2.223   4.381   9.824
 1102W        W 5153   3.771   7.973  11.024
 1103W        W 5154   5.148   6.658  10.846
 1104W        W 5155   9.748   7.016   0.944
 1105W        W 5156   0.170   2.807   9.006
 1106W        W 5157   3.679  10.344   2.911
 1107W        W 5158   3.204  11.364  10.624
 1108W        W 5159  10.959  10.831   2.538
 1109W        W 5160  10.839   6.344   2.754
 1110W        W 5161  11.126  11.115  11.522
 1111W        W 5162   0.388   6.013  10.760
 1112W        W 5163   8.182   2.807   1.260
 1113W        W 5164   7.497   2.597   9.036
 1114W        W 5165   7.041   7.044   2.072
 1115W        W 5166   0.339   9.040   3.118
 1116W        W 5167   9.858   1.815   1.193
 1117W        W 5168   2.909   5.491   0.724
 1118W        W 5169   7.947   8.362  11.330
 1119W        W 5170   7.897   0.655   3.096
 1120W        W 5171   8.994   8.703   2.770
 1121W        W 5172   2.079   0.902   0.653
 1122W        W 5173   8.008   3.847  10.088
 1123W        W 5174   9.378   7.423   9.839
 1124W        W 5175   0.852   0.490   8.845
 1125W        W 5176   4.746   4.358   2.925
 1126W        W 5177   7.038   5.026  11.333
 1127W        W 5178  11.012   4.074   0.613
 1128W        W 5179   4.412   1.304   2.765
 1129W        W 5180   2.503   4.212  10.212
 1130W        W 5181   6.423   2.748   1.666
 1131W        W 5182   3.326   0.449   9.435
 1132W        W 5183   7.033   2.949   9.822
 1133W        W 5184   5.174   4.034   8.365
 1134W        W 5185   0.063   2.865  11.253
 1135W        W 5186   6.840  10.743   0.582
 1136W        W 5187   2.695  10.810   9.921
 1137W        W 5188   4.559   2.210  11.943
 1138W        W 5189   7.094   6.514  11.419
 1139W        W 5190  10.265   4.051  10.425
 1140W        W 5191   7.887   5.023   1.472
 1141W        W 5192   6.347   3.288   3.255
 1142W        W 5193   4.284   4.221   2.651
 1143W        W 5194  11.364   7.504   3.181
 1144W        W 5195   1.248   6.658   9.782
 1145W        W 5196   9.467   4.055   2.842
 1146W        W 5197   4.735   4.106   8.645
 1147W        W 5198  10.031   8.618   1.948
 1148W        W 5199   0.875   7.700  10.674
 1149W        W 5200   8.984   5.622   0.973
 1150W        W 5201   0.934   0.227  10.211
 1151W        W 5202   1.123  10.201   2.760
 1152W        W 5203  10.103   3.059  10.538
 1153W        W 5204  11.018   1.168   0.560
 1154W        W 5205   4.603   2.253   2.384
 1155W        W 5206   7.168   1.357   9.013
 1156W        W 5207   3.812   0.390  10.195
 1157W        W 5208   2.476   1.777   8.808
 1158W        W 5209   6.705  10.908   8.733
 1159W        W 5210   3.831   4.621  11.359
 1160W        W 5211   6.199   2.967  10.325
 1161W        W 5212   3.042   5.535   8.836
 1162W        W 5213   0.277   3.151  10.838
 1163W        W 5214   2.439   4.629  11.283
 1164W        W 5215   0.116   1.787   8.871
 1165W        W 5216   4.229   5.037   9.562
 1166W        W 5217   9.973   1.741   2.698
 1167W        W 5218   9.077   4.287   2.593
 1168W        W 5219  11.268   3.117  10.882
 1169W        W 5220   8.365   1.749   0.863
 1170W        W 5221   1.271   8.457  11.561
 1171W        W 5222   6.930   6.230   9.153
 1172W        W 5223  11.391   3.187   1.344
 1173W        W 5224  10.697   1.855   3.939
 1174W        W 5225   1.175  10.282  10.422
 1175W        W 5226   9.091   9.032   1.998
 1176W        W 5227   8.973   1.890  11.930
 1177W        W 5228   4.265   9.935   2.770
 1178W        W 5229   8.968   6.923   1.198
 1179W        W 5230   6.858   3.077   9.372
 1180W        W 5231   6.217   8.515  11.276
 1181W        W 5232   9.432   3.620   3.135
 1182W        W 5233   8.556   2.068   1.283
 1183W        W 5234   8.517   8.030   2.754
 1184W        W 5235   9.879   9.318  10.651
 1185W        W 5236   7.483   2.781   2.344
 1186W        W 5237   8.957   7.137  10.851
 1187W        W 5238  10.805   9.796   1.876
 1188W        W 5239   4.728   9.480   8.475
 1189W        W 5240   8.144   1.772   2.267
 1190W        W 5241   8.016   6.435  11.442
 1191W        W 5242   7.587   5.316  10.611
 1192W        W 5243   7.045   9.060  11.998
 1193W        W 5244   7.117  10.991   9.051
 1194W        W 5245   8.875   4.573   8.642
 1195W        W 5246   4.162   2.593   3.019
 1196W        W 5247   5.670   3.850   0.716
 1197W        W 5248   1.254   6.542  11.272
 1198W        W 5249   8.493   8.990   3.231
 1199W        W 5250   4.173   0.445   8.853
 1200W        W 5251   8.729  10.910   0.963
 1201W        W 5252   6.560   8.446   9.692
 1202W        W 5253   2.326   8.649  10.340
 1203W        W 5254   0.500   1.091  11.808
 1204W        W 5255   0.411   4.394   1.717
 1205W        W 5256   0.424   0.481   2.074
 1206W        W 5257  11.292  10.781   0.403
 1207W        W 5258  10.526   4.812  10.008
 1208W        W 5259   1.825   1.750  10.101
 1209W        W 5260   6.474   4.743   0.388
 1210W        W 5261   1.210   4.994   3.188
 1211W        W 5262  10.331   6.283  11.234
 1212W        W 5263   6.120   9.630  10.566
 1213W        W 5264  10.935   7.861   1.768
 1214W        W 5265   3.305   8.342   8.940
 1215W        W 5266   2.280   6.176   9.343
 1216W        W 5267   9.889   5.459   8.688
 1217W        W 5268  10.412   2.144   9.584
 1218W        W 5269   1.847   0.150   2.697
 1219W        W 5270   3.377   1.282   8.784
 1220W        W 5271   7.192   7.291  10.067
 1221W        W 5272   8.589  10.782   0.476
 1222W        W 5273   6.413   8.003   9.010
 1223W        W 5274   6.618   5.424   0.057
 1224W        W 5275   7.482   1.533   2.381
 1225W        W 5276   6.758   9.496   3.220
 1226W        W 5277   3.463   8.639  11.766
 1227W        W 5278   5.896   2.943   0.839
 1228W        W 5279  10.877   5.544  10.073
 1229W        W 5280   2.416   1.787  11.395
 1230W        W 5281   7.215  10.634   0.223
 1231W        W 5282   0.025  10.892   0.883
 1232W        W 5283   3.305   7.466   2.062
 1233W        W 5284   8.908   7.576  11.099
 1234W        W 5285   6.244  10.027  10.929
 1235W        W 5286   3.734  10.925  10.007
 1236W        W 5287  10.082   9.100   1.791
 1237W        W 5288   3.793   7.034   0.513
 1238W        W 5289   9.412   7.155   1.858
 1239W        W 5290   3.618   9.366   9.262
 1240W        W 5291   3.839   9.858   1.204
 1241W        W 5292   1.335   5.318   9.439
 1242W        W 5293  11.371   8.526   8.924
 1243W        W 5294   8.275   6.336   8.799
 1244W        W 5295   6.926  11.454   3.291
 1245W        W 5296   2.386   1.332   9.137
 1246W        W 5297   6.371   9.165  11.268
 1247W        W 5298   3.120   1.846   9.526
 1248W        W 5299   6.566   2.467  11.899
 1249W        W 5300   3.723   9.824   2.050
 1250W        W 5301   6.174  11.064  11.289
 1251W        W 5302   7.158   7.064   0.563
 1252W        W 5303   2.360   9.929   1.725
 1253W        W 5304   8.502   9.412  11.060
 1254W        W 5305   5.523   5.643   9.549
 1255W        W 5306   7.651   7.992  10.145
 1256W        W 5307   1.145   0.345  11.210
 1257W        W 5308   1.302   8.156   1.924
 1258W        W 5309   7.551  10.868  11.446
 1259W        W 5310   1.693   4.549   9.578
 1260W        W 5311   8.890   1.649   2.918
 1261W        W 5312   5.146   8.634   0.320
 1262W        W 5313   5.636  10.017   1.415
 1263W        W 5314   9.854  10.281  10.340
 1264W        W 5315   9.008   3.697   8.637
 1265W        W 5316   5.652   8.644   0.460
 1266W        W 5317   2.030  11.300  11.916
 1267W        W 5318   7.439   4.001  11.936
 1268W        W 5319   4.569   6.748   2.921
 1269W        W 5320   5.353   5.070   2.619
 1270W        W 5321   9.509   3.036   2.489
 1271W        W 5322   9.150   1.231  10.041
 1272W        W 5323   0.641   0.543  10.499
 1273W        W 5324   4.557  10.368   8.513
 1274W        W 5325   1.234   3.551   9.858
 1275W        W 5326   0.748   0.064  11.406
 1276W        W 5327   0.637   7.157   1.286
 1277W        W 5328  10.428  10.836  11.004
 1278W        W 5329   1.918   5.045   2.632
 1279W        W 5330   1.470   9.729   1.275
 1280W        W 5331   3.662   2.342   0.695
 1281W        W 5332   6.710   6.837   2.392
 1282W        W 5333   8.446   7.098   0.330
 1283W        W 5334   5.270   3.299   2.244
 1284W        W 5335   0.254   2.292   9.125
 1285W        W 5336   1.754   6.877   2.737
 1286W        W 5337   5.273   0.163   0.399
 1287W        W 5338   0.040  10.300   2.343
 1288W        W 5339   6.745   9.996  11.000
 1289W        W 5340   6.013   8.501  11.780
 1290W        W 5341   8.051   7.241  11.120
 1291W        W 5342   9.821   9.413   0.680
 1292W        W 5343   2.405  11.335   0.272
 1293W        W 5344   2.386   9.433   0.373
 1294W        W 5345   8.509   5.604   3.589
 1295W        W 5346   4.249   3.559   0.915
 1296W        W 5347   6.976   2.348  10.982
 1297W        W 5348   8.435   3.281   9.474
 1298W        W 5349   9.193  10.107   0.400
 1299W        W 5350  10.183   8.598  11.575
 1300W        W 5351  11.432   8.615   9.906
 1301W        W 5352   6.515   0.637   0.058
 1302W        W 5353   6.083  11.052   3.453
 1303W        W 5354   0.144   7.190   9.836
 1304W        W 5355   2.917   7.574   2.992
 1305W        W 5356   0.437   9.006   1.749
 1306W        W 5357  10.525   8.496  11.958
 1307W        W 5358   7.207   5.669   1.082
 1308W        W 5359   3.380   5.273   9.151
 1309W        W 5360   9.897   8.142   2.823
 1310W        W 5361   2.910   5.474   1.744
 1311W        W 5362   2.411   3.299   1.187
 1312W        W 5363   3.887   1.294   8.622
 1313W        W 5364   8.705   6.669  10.836
 1314W        W 5365  10.428   1.506  10.456
 1315W        W 5366   7.162   6.506   3.160
 1316W        W 5367  11.474   6.133   0.004
 1317W        W 5368   0.168   1.074   0.253
 1318W        W 5369  11.448   3.382  10.456
 1319W        W 5370   8.860   3.202   8.591
 1320W        W 5371   0.073   6.092   1.919
 1321W        W 5372   5.978   4.076   9.455
 1322W        W 5373   9.880   3.701   0.629
 1323W        W 5374   4.649   8.543   0.464
 1324W        W 5375  10.831   3.478   2.400
 1325W        W 5376   0.480   9.995   2.208
 1326W        W 5377   5.049  11.451   0.837
 1327W        W 5378   7.272   6.197  10.609
 1328W        W 5379   3.778  11.135  11.420
 1329W        W 5380   2.672   9.303  11.948
 1330W        W 5381  10.620   7.861   0.519
 1331W        W 5382   1.708   4.869  11.045
 1332W        W 5383   6.898  11.418   9.480
 1333W        W 5384   1.895   8.826   0.272
 1334W        W 5385   8.551   2.352   2.388
 1335W        W 5386   3.674   2.856   0.725
 1336W        W 5387  10.669  11.415   0.672
 1337W        W 5388   2.862   4.183   2.657
 1338W        W 5389   3.151   0.330   1.520
 1339W        W 5390   0.268   5.528   9.820
 1340W        W 5391   6.306  10.450  10.313
 1341W        W 5392   4.930   0.649   1.661
 1342W        W 5393   0.250   3.129   0.390
 1343W        W 5394   2.958   0.135  10.172
 1344W        W 5395   0.488   3.093  11.426
 1345W        W 5396   1.985   8.122  11.882
 1346W        W 5397   4.614   7.602  11.559
 1347W        W 5398   7.331   0.509   8.924
 1348W        W 5399   6.575   7.887   2.350
 1349W        W 5400   7.548   2.293   0.778
 1350W        W 5401   3.752   5.189   0.252
 1351W        W 5402   3.712   4.491   1.906
 1352W        W 5403   8.147   4.623   8.662
 1353W        W 5404   7.853   8.458  11.927
 1354W        W 5405   5.510   8.990   8.612
 1355W        W 5406   0.858   9.226   3.126
 1356W        W 5407   2.805   2.110  10.370
 1357W        W 5408   0.513   1.314   2.641
 1358W        W 5409   5.320  11.356   1.754
 1359W        W 5410  10.280   9.473  11.327
 1360W        W 5411  10.732  10.416   1.331
 1361W        W 5412   2.785   2.395   0.779
 1362W        W 5413   8.037   6.000   4.126
 1363W        W 5414   2.318  10.883  11.799
 1364W        W 5415   6.980   1.520   0.721
 1365W        W 5416   0.028   9.963   8.839
 1366W        W 5417   0.495   3.065   9.764
 1367W        W 5418  10.641   3.916   0.281
 1368W        W 5419   2.818   3.768   9.458
 1369W        W 5420   4.593   9.490  10.695
 1370W        W 5421   5.681   1.716   2.922
 1371W        W 5422   3.393   1.410   2.877
 1372W        W 5423   5.252   9.455   8.556
 1373W        W 5424   0.220   0.331  10.763
 1374W        W 5425  10.884  10.125  11.300
 1375W        W 5426   4.633  10.061   2.216
 1376W        W 5427   4.938   0.770   9.769
 1377W        W 5428   4.050   4.653   3.541
 1378W        W 5429  10.539   7.227  11.541
 1379W        W 5430   6.787   3.665   9.199
 1380W        W 5431   4.510   4.444   9.561
 1381W        W 5432   3.829   0.417  11.580
 1382W        W 5433  10.882   4.178   1.131
 1383W        W 5434   5.149   9.851   3.620
 1384W        W 5435   4.352   1.425   9.953
 1385W        W 5436   7.475   0.813   3.413
 1386W        W 5437   9.046   0.784   2.449
 1387W        W 5438   8.544   7.585   9.259
 1388W        W 5439   3.692   2.650   9.269
 1389W        W 5440   8.547   7.527   2.790
 1390W        W 5441   9.025   4.609   1.309
 1391W        W 5442   8.597   2.578   0.530
 1392W        W 5443   6.076   3.307   1.152
 1393W        W 5444   2.718   7.949   2.651
 1394W        W 5445   3.196  10.308   0.103
 1395W        W 5446  10.610   9.838  10.899
 1396W        W 5447   7.604   4.375   1.455
 1397W        W 5448   2.389   7.855  10.709
 1398W        W 5449   8.641   6.358  11.729
 1399W        W 5450   8.963   9.631  11.017
 1400W        W 5451   5.768   0.379   0.507
 1401W        W 5452   6.069   8.108   8.602
 1402W        W 5453   6.059   7.288   4.026
 1403W        W 5454   4.086  10.945   9.047
 1404W        W 5455   0.873   3.925  11.325
 1405W        W 5456   4.332   8.841   0.754
 1406W        W 5457   2.794   2.480  11.837
 1407W        W 5458   7.782   6.656   9.982
 1408W        W 5459   9.559   2.897   9.469
 1409W        W 5460  10.098   9.003   9.861
 1410W        W 5461   3.679   0.786   8.967
 1411W        W 5462   4.739   9.069  11.462
 1412W        W 5463   8.811  10.884   2.385
 1413W        W 5464   3.880   5.268  10.572
 1414W        W 5465   6.678   3.769   0.259
 1415W        W 5466   8.032   9.622   9.892
 1416W        W 5467   9.096   5.734   2.795
 1417W        W 5468   7.665   4.158  11.039
 1418W        W 5469  10.718   9.800  11.767
 1419W        W 5470   3.140   9.088  10.151
 1420W        W 5471   5.825   5.203  11.610
 1421W        W 5472   3.389   6.069  10.680
 1422W        W 5473   6.511   6.675   1.670
 1423W        W 5474   9.547   6.156  10.810
 1424W        W 5475   6.925  10.866  10.658
 1425W        W 5476   8.147   8.984   1.089
 1426W        W 5477   3.333   8.056  10.232
 1427W        W 5478   4.236   2.322  10.443
 1428W        W 5479  10.829   2.763   9.177
 1429W        W 5480   0.493  10.965   1.176
 1430W        W 5481   0.977  11.330   1.398
 1431W        W 5482   8.915   7.328   9.526
 1432W        W 5483   2.176   3.406   1.890
 1433W        W 5484   9.171   7.083  11.943
 1434W        W 5485   2.908   7.874  11.926
 1435W        W 5486   2.385   0.541   1.990
 1436W        W 5487   1.155   9.651   2.915
 1437W        W 5488   8.839   0.742  11.467
 1438W        W 5489   2.933   3.006   3.134
 1439W        W 5490   4.275   2.812   0.361
 1440W        W 5491   4.640   4.260   9.116
 1441W        W 5492   4.716   2.963   1.433
 1442W        W 5493   5.220   5.601  10.953
 1443W        W 5494   5.712  11.084   3.075
 1444W        W 5495  11.054   6.057   9.903
 1445W        W 5496   1.277   4.806   9.407
 1446W        W 5497   2.330   4.346   8.445
 1447W        W 5498   2.399   2.697  11.568
 1448W        W 5499   5.795   7.119  10.419
 1449W        W 5500   1.274   1.105  11.120
 1450W        W 5501   8.718   4.268   9.197
 1451W        W 5502   7.405   5.203   1.845
 1452W        W 5503   5.134   1.698  11.249
 1453W        W 5504   6.599   6.131  10.039
 1454W        W 5505   6.585   4.509   2.526
 1455W        W 5506   1.188   5.667   1.326
 1456W        W 5507  10.288   0.641   0.096
 1457W        W 5508   3.113   8.872   2.362
 1458W        W 5509   3.413  10.767  10.866
 1459W        W 5510   8.112   4.095   3.150
 1460W        W 5511   3.154   3.532   2.756
 1461W        W 5512   4.711  10.930   9.697
 1462W        W 5513   9.891   0.280  10.324
 1463W        W 5514   5.678   3.400   8.950
 1464W        W 5515   9.087   4.596  10.952
 1465W        W 5516  10.689   1.805   0.867
 1466W        W 5517   5.202   3.729   1.373
 1467W        W 5518   9.094   4.173   8.869
 1468W        W 5519   9.745   5.290   1.233
 1469W        W 5520   9.939   8.147   0.276
 1470W        W 5521  10.401  10.934   3.322
 1471W        W 5522  10.105   2.398   2.802
 1472W        W 5523   1.277   2.377   1.053
 1473W        W 5524   7.097   0.294   1.322
 1474W        W 5525   2.168   2.098  10.990
 1475W        W 5526   7.376   7.192   2.442
 1476W        W 5527   0.006   9.565   2.765
 1477W        W 5528   9.135   6.592   9.109
 1478W        W 5529   3.150   8.940   9.147
 1479W        W 5530   4.112   9.548  10.428
 1480W        W 5531   1.913   2.217   0.429
 1481W        W 5532   4.823  10.575   1.286
 1482W        W 5533   6.214   6.213   3.025
 1483W        W 5534   3.714   5.397  11.779
 1484W        W 5535   0.128   8.887   2.141
 1485W        W 5536   6.059   6.214  11.946
 1486W        W 5537   0.898   6.453   1.912
 1487W        W 5538   5.184   3.633  10.993
 1488W        W 5539   9.278   6.304  11.285
 1489W        W 5540   8.964   3.252  10.504
 1490W        W 5541   4.573   0.261  11.968
 1491W        W 5542   1.768   9.197  11.361
 1492W        W 5543   9.566   0.603   9.412
 1493W        W 5544   9.754   0.780  11.426
 1494W        W 5545  10.370  11.375   1.928
 1495W        W 5546  10.823   1.313  11.106
 1496W        W 5547   3.718   3.362  10.933
 1497W        W 5548   0.464   3.829   2.310
 1498W        W 5549   4.599   0.751   0.776
 1499W        W 5550   9.033   8.096  10.165
 1500W        W 5551  10.801   0.303   1.006
 1501W        W 5552  10.158  10.400   9.962
 1502W        W 5553   8.546  11.240   0.180
 1503W        W 5554   1.007  10.570   2.463
 1504W        W 5555   5.130  11.467   2.739
 1505W        W 5556   5.486   4.047   3.588
 1506W        W 5557   1.984   9.886   9.387
 1507W        W 5558   4.938   1.239   2.618
 1508W        W 5559   6.640   2.672  10.389
 1509W        W 5560   5.167   3.993   3.984
 1510W        W 5561   9.077   6.338   8.679
 1511W        W 5562   8.903   7.418   1.223
 1512W        W 5563  10.589   4.306  10.103
 1513W        W 5564   2.186   9.135  11.975
 1514W        W 5565   8.086   5.028   4.044
 1515W        W 5566   7.618   7.133   1.254
 1516W        W 5567   1.668   6.931   3.240
 1517W        W 5568   0.055   5.962   9.943
 1518W        W 5569   4.432  10.404  11.364
 1519W        W 5570   9.510   9.887   1.253
 1520W        W 5571   5.538   9.636  11.339
 1521W        W 5572   2.650   1.069   1.273
 1522W        W 5573   3.349   2.244   9.264
 1523W        W 5574  11.055   9.431  11.719
 1524W        W 5575   2.294   2.250   0.912
 1525W        W 5576   9.049   6.786   1.968
 1526W        W 5577   7.796   5.737   9.867
 1527W        W 5578  11.093   4.481  10.899
 1528W        W 5579   8.000   4.705   2.192
 1529W        W 5580   7.367   4.703  11.030
 1530W        W 5581   4.252  11.416   2.605
 1531W        W 5582   3.678   6.594   0.280
 1532W        W 5583   5.938   0.929   8.539
 1533W        W 5584  10.859   8.200   0.222
 1534W        W 5585  10.794   1.840  10.470
 1535W        W 5586   9.413   2.632   2.011
 1536W        W 5587   1.628   1.344   9.823
 1537W        W 5588   0.501  10.518   2.338
 1538W        W 5589   9.337  11.364  11.212
 1539W        W 5590   9.977  11.463   9.540
 1540W        W 5591   2.910   5.356   0.217
 1541W        W 5592   3.378   2.568  10.656
 1542W        W 5593   4.361   3.794  11.203
 1543W        W 5594   6.593   2.229   0.960
 1544W        W 5595   2.136   1.777   9.198
 1545W        W 5596   2.184  11.418  11.419
 1546W        W 5597   4.363   0.799   0.310
 1547W        W 5598   9.575   8.036  10.090
 1548W        W 5599   4.906   8.590  10.890
 1549W        W 5600   0.593   5.915   0.707
 1550W        W 5601   3.232   4.295  11.297
 1551W        W 5602   2.243   8.638   2.976
 1552W        W 5603   1.827   0.261   9.500
 1553W        W 5604   6.379   4.020  10.469
 1554W        W 5605   4.110  11.253  10.836
 1555W        W 5606   5.994   6.168   0.864
 1556W        W 5607   0.276   1.624   9.865
 1557W        W 5608   1.451  10.232   1.348
 1558W        W 5609   3.735   6.585   9.388
 1559W        W 5610   1.136   1.836   8.978
 1560W        W 5611   7.958   0.437   1.773
 1561W        W 5612   6.274   8.800   9.998
 1562W        W 5613   8.006   4.166  11.424
 1563W        W 5614   8.605   8.409   2.001
 1564W        W 5615   8.208   6.535   3.249
 1565W        W 5616   9.623   6.947   2.289
 1566W        W 5617   0.701  11.385   0.982
 1567W        W 5618   8.772   8.717   3.767
 1568W        W 5619  11.450   9.144  10.748
 1569W        W 5620   1.294   5.977   0.057
 1570W        W 5621   8.904   6.108   0.533
 1571W        W 5622   8.506   3.410   8.911
 1572W        W 5623   4.726   8.101  11.636
 1573W        W 5624  11.276   9.656   1.738
 1574W        W 5625   6.767   8.051   9.396
 1575W        W 5626   7.130  10.503   9.254
 1576W        W 5627  10.964  10.632  11.429
 1577W        W 5628   5.493   6.119   2.293
 1578W        W 5629   6.376   6.173   2.534
 1579W        W 5630   3.277   8.566  10.401
 1580W        W 5631   2.690   5.535   2.835
 1581W        W 5632   0.299   9.465  11.328
 1582W        W 5633   3.164   6.215   3.384
 1583W        W 5634   0.575   1.491   3.665
 1584W        W 5635   0.294   7.081  11.784
 1585W        W 5636   3.679   3.855  11.816
 1586W        W 5637   9.833  11.493   1.816
 1587W        W 5638  10.396   1.289  11.364
 1588W        W 5639   6.245   7.898   0.389
 1589W        W 5640  11.003  10.017   1.470
 1590W        W 5641  10.825   1.356   9.620
 1591W        W 5642  10.448   6.490  11.990
 1592W        W 5643   0.747   1.203   3.104
 1593W        W 5644   0.910   3.785   2.566
 1594W        W 5645   9.687   2.162   2.607
 1595W        W 5646   3.157   2.083  10.754
 1596W        W 5647   4.521   0.958  10.101
 1597W        W 5648   1.367   2.337   1.922
 1598W        W 5649   8.857   4.599   2.224
 1599W        W 5650   5.801   9.021   9.949
 1600W        W 5651  11.018   9.851   2.327
 1601W        W 5652   8.859   1.728   1.034
 1602W        W 5653   8.007   7.468   1.312
 1603W        W 5654   9.017   7.687   2.873
 1604W        W 5655  10.049   6.978   9.039
 1605W        W 5656   3.385   3.391   1.402
 1606W        W 5657   9.174   7.587  11.943
 1607W        W 5658  10.634   3.614   9.655
 1608W        W 5659   8.089  10.306  11.880
 1609W        W 5660  10.078   8.875   8.906
 1610W        W 5661   6.968   4.622  11.732
 1611W        W 5662   6.572   1.132   9.582
 1612W        W 5663   6.275   8.984   2.673
 1613W        W 5664  10.006   8.954  11.010
 1614W        W 5665   8.321   6.833   0.765
 1615W        W 5666   2.840  11.400   8.813
 1616W        W 5667   2.500   0.067  10.376
 1617W        W 5668   6.644  10.911   1.350
 1618W        W 5669   4.582   9.048  11.936
 1619W        W 5670   9.409   2.876   0.891
 1620W        W 5671   5.015   2.847   3.162
 1621W        W 5672   0.171  10.331   1.435
 1622W        W 5673   9.830   4.805   2.311
 1623W        W 5674  10.103   0.383   9.769
 1624W        W 5675   3.312   9.964   1.301
 1625W        W 5676  10.910   6.469   1.301
 1626W        W 5677   6.109   3.655   1.996
 1627W        W 5678   4.134   4.258  11.193
 1628W        W 5679   0.698  10.785   3.381
 1629W        W 5680   9.386   8.051   1.825
 1630W        W 5681   0.435   6.180  11.768
 1631W        W 5682   4.223  10.103   3.279
 1632W        W 5683   9.466   3.933   2.317
 1633W        W 5684   2.878   2.592  10.504
 1634W        W 5685   0.770   4.205   0.698
 1635W        W 5686   1.822   0.921   8.662
 1636W        W 5687   3.805   3.611  11.378
 1637W        W 5688   2.191   5.718   9.112
 1638W        W 5689   8.109   5.840  10.981
 1639W        W 5690   4.969   9.517   8.965
 1640W        W 5691   3.878   7.534   3.251
 1641W        W 5692   5.617   3.671   2.095
 1642W        W 5693   5.064   3.556   2.791
 1643W        W 5694   0.060   6.702   2.384
 1644W        W 5695  10.475   3.233   2.695
 1645W        W 5696   5.659   7.635   1.952
 1646W        W 5697   7.302   0.831   8.286
 1647W        W 5698   7.975   5.000  10.399
 1648W        W 5699   4.442   1.089  11.052
 1649W        W 5700   2.663   3.297   0.219
 1650W        W 5701   0.420   0.295   3.434
 1651W        W 5702   3.195   3.626  10.554
 1652W        W 5703   3.181   6.054   9.794
 1653W        W 5704   9.887   2.842   1.132
 1654W        W 5705   0.422   8.620  10.058
 1655W        W 5706   7.097   2.834   0.461
 1656W        W 5707   8.086  10.056   2.374
 1657W        W 5708   0.839   8.356  11.283
 1658W        W 5709   6.201   5.299   2.401
 1659W        W 5710   1.893   2.273   1.863
 1660W        W 5711   3.226   5.312   2.479
 1661W        W 5712   5.809   5.044   0.394
 1662W        W 5713   5.164   9.747  11.713
 1663W        W 5714   1.373   5.761   1.791
 1664W        W 5715   2.159   9.025   8.924
 1665W        W 5716  10.562   6.983   9.076
 1666W        W 5717   5.539   7.965   8.686
 1667W        W 5718   4.737   0.934   3.612
 1668W        W 5719   6.433   2.115   9.306
 1669W        W 5720   1.264   7.646   9.011
 1670W        W 5721  11.227   2.816   1.713
 1671W        W 5722   3.416   2.233   3.016
 1672W        W 5723  10.854   3.674   0.929
 1673W        W 5724  11.010   6.164   0.541
 1674W        W 5725   0.878   8.642  10.292
 1675W        W 5726   2.672   0.527  11.238
 1676W        W 5727  11.473   8.076   2.591
 1677W        W 5728   7.309  10.798   2.135
 1678W        W 5729  10.425   0.442   8.936
 1679W        W 5730   5.489   6.672   0.371
 1680W        W 5731   2.697   0.252   0.241
 1681W        W 5732   3.513   4.004   2.013
 1682W        W 5733   9.624   2.917  11.071
 1683W        W 5734   4.610   9.365   9.392
 1684W        W 5735   8.708   5.116   0.346
 1685W        W 5736   5.079   4.037   0.086
 1686W        W 5737   1.675   9.493   9.614
 1687W        W 5738   4.777   1.468  11.526
 1688W        W 5739   5.641   9.388  11.780
 1689W        W 5740   1.811   0.483   1.193
 1690W        W 5741   2.704   3.639   3.052
 1691W        W 5742   9.967   4.833   1.257
 1692W        W 5743   9.018   4.822   2.667
 1693W        W 5744   0.065   9.440   3.286
 1694W        W 5745   4.556   4.816   0.468
 1695W        W 5746  10.772   5.741   3.591
 1696W        W 5747   7.083   9.873   2.244
 1697W        W 5748   6.136   4.885  10.396
 1698W        W 5749  10.985   0.745   0.838
 1699W        W 5750   8.458  10.045  10.363
 1700W        W 5751   2.703   3.658   1.535
 1701W        W 5752   3.828  10.257   0.693
 1702W        W 5753  11.132   0.041  11.800
 1703W        W 5754   4.449   9.318   1.286
 1704W        W 5755   4.660  10.786   1.730
 1705W        W 5756   9.068  11.369  10.543
 1706W        W 5757   4.237   7.764  10.948
 1707W        W 5758   5.503  10.777   1.182
 1708W        W 5759   7.919   3.202  11.616
 1709W        W 5760   5.523   6.815  10.053
 1710W        W 5761  10.136   5.173  10.518
 1711W        W 5762   6.241   3.169   2.163
 1712W        W 5763   8.449   5.183   3.331
 1713W        W 5764  10.820   0.756   0.336
 1714W        W 5765  10.106   6.296  11.683
 1715W        W 5766   8.929   3.552   9.961
 1716W        W 5767   4.815   6.980   2.466
 1717W        W 5768   3.349   8.148  11.825
 1718W        W 5769   1.078   7.930  11.088
 1719W        W 5770   2.246   0.944   3.101
 1720W        W 5771   4.208   8.404   9.487
 1721W        W 5772   8.130   7.838   3.052
 1722W        W 5773   7.867  11.487  10.395
 1723W        W 5774   1.467   3.746   1.186
 1724W        W 5775   7.213   4.711   8.265
 1725W        W 5776   6.183  11.208   9.090
 1726W        W 5777   7.867   5.475   1.743
 1727W        W 5778   5.613   1.727   8.988
 1728W        W 5779   2.767   2.684   1.969
 1729W        W 5780   0.424   4.075   0.364
 1730W        W 5781   2.423   8.582   8.814
 1731W        W 5782   3.852  11.129   8.624
 1732W        W 5783   8.408  10.935  11.783
 1733W        W 5784   9.497   0.088   9.381
 1734W        W 5785   5.548   8.002   3.696
 1735W        W 5786   8.979   9.976   3.008
 1736W        W 5787   0.419   0.333   1.037
 1737W        W 5788   6.322   8.022   0.900
 1738W        W 5789   6.207   4.075   8.141
 1739W        W 5790   5.185   2.565  11.778
 1740W        W 5791   3.140   8.336   3.081
 1741W        W 5792   3.069   5.575   1.233
 1742W        W 5793   0.746  10.455  10.636
 1743W        W 5794   5.333   6.947   3.561
 1744W        W 5795   6.012   4.205   3.647
 1745W        W 5796   8.878   5.071   1.132
 1746W        W 5797   6.184   4.315   0.982
 1747W        W 5798   4.695   3.737  10.800
 1748W        W 5799   6.598   7.975   8.525
 1749W        W 5800   0.924   2.934   0.750
 1750W        W 5801   1.692   3.256   1.916
 1751W        W 5802  10.945   5.540   2.188
 1752W        W 5803   9.443   4.253  10.894
 1753W        W 5804   3.670   6.164   9.675
 1754W        W 5805   3.620   3.545   9.898
 1755W        W 5806   6.318   5.377  10.441
 1756W        W 5807   9.901   4.682   8.904
 1757W        W 5808  10.836   7.572   9.033
 1758W        W 5809   4.251   5.586  10.877
 1759W        W 5810   5.738  10.472   8.895
 1760W        W 5811   5.912   3.780   2.861
 1761W        W 5812   7.210  10.124   0.432
 1762W        W 5813   3.388   9.773   3.597
 1763W        W 5814  11.446   8.055   1.878
 1764W        W 5815   5.691   4.114   0.259
 1765W        W 5816   4.181   6.653   0.321
 1766W        W 5817   6.916   0.765  10.313
 1767W        W 5818  10.446  10.548   0.565
 1768W        W 5819   2.915   2.965  11.911
 1769W        W 5820  10.025   2.555  11.284
 1770W        W 5821   4.440   6.650   3.566
 1771W        W 5822   1.327   8.936   2.423
 1772W        W 5823   2.165   3.325  10.489
 1773W        W 5824   7.936   9.164   9.681
 1774W        W 5825   3.282   4.012   2.877
 1775W        W 5826  11.146   9.479   9.517
 1776W        W 5827   2.754   3.743   8.953
 1777W        W 5828   9.094   8.060   2.273
 1778W        W 5829   7.808   2.837   2.803
 1779W        W 5830   7.502   3.142  10.907
 1780W        W 5831   8.511   0.620   1.194
 1781W        W 5832   6.548   0.789  11.557
 1782W        W 5833   6.513   2.238   2.418
 1783W        W 5834   9.663   8.693  11.316
 1784W        W 5835   3.220   9.814   2.359
 1785W        W 5836   4.607   0.350   1.390
 1786W        W 5837   6.712   1.095  11.966
 1787W        W 5838   5.223   1.004   3.458
 1788W        W 5839   4.481   5.379  10.443
 1789W        W 5840   1.017   8.522   9.369
 1790W        W 5841  10.782   8.478  10.891
 1791W        W 5842   7.090   9.726   1.203
 1792W        W 5843   1.951   2.238   9.999
 1793W        W 5844   6.525   8.345   0.231
 1794W        W 5845   3.377   9.105  11.520
 1795W        W 5846   5.997   7.886  11.023
 1796W        W 5847   6.233   6.470   9.836
 1797W        W 5848   1.230   0.975   0.927
 1798W        W 5849   1.444   3.093   9.909
 1799W        W 5850   1.694   4.559   3.328
 1800W        W 5851   4.035   6.748   2.882
 1801W        W 5852   6.024   1.836   9.497
 1802W        W 5853  10.777   9.126   2.959
 1803W        W 5854   9.764   8.456   8.925
 1804W        W 5855   1.493   8.026   0.028
 1805W        W 5856   9.394   6.665   1.031
 1806W        W 5857   9.379   4.677   3.576
 1807W        W 5858   0.660   6.726  11.787
 1808W        W 5859   2.613  10.559  11.442
 1809W        W 5860   3.805   2.159   9.035
 1810W        W 5861  10.900  10.908   9.963
 1811W        W 5862  10.946   6.653   3.169
 1812W        W 5863   8.024  10.089  10.098
 1813W        W 5864   4.677  10.911   3.292
 1814W        W 5865   1.473   9.647   0.061
 1815W        W 5866   9.514   2.660   1.474
 1816W        W 5867   4.283  10.815  10.617
 1817W        W 5868   9.240   5.164  10.715
 1818W        W 5869   3.227   3.834  11.538
 1819W        W 5870   5.711   4.236   9.939
 1820W        W 5871   4.086  10.034  10.231
 1821W        W 5872   1.301   9.128   2.903
 1822W        W 5873   2.572  10.022   3.005
 1823W        W 5874   6.633   9.440   9.262
 1824W        W 5875   1.625   5.551   0.458
 1825W        W 5876   8.874   4.188   9.678
 1826W        W 5877   9.918   7.175   2.640
 1827W        W 5878   2.494   5.336   1.014
 1828W        W 5879   4.174   3.103  11.060
 1829W        W 5880   1.404   5.784   9.641
 1830W        W 5881   1.057   2.935   3.474
 1831W        W 5882   1.719   6.628  11.001
 1832W        W 5883   1.162  10.962   9.366
 1833W        W 5884   4.132   5.225  11.554
 1834W        W 5885   0.565  10.242   8.873
 1835W        W 5886   5.017   5.798   9.586
 1836W        W 5887   1.374   3.798   1.830
 1837W        W 5888   0.220   3.512   9.867
 1838W        W 5889   9.974   0.501   8.695
 1839W        W 5890   9.525   1.952   9.021
 1840W        W 5891   4.626   3.227   0.250
 1841W        W 5892   9.137   0.428   9.591
 1842W        W 5893   3.584   4.221   3.277
 1843W        W 5894   8.528   5.379  10.948
 1844W        W 5895   5.675   8.711   1.867
 1845W        W 5896  10.026   2.715   9.354
 1846W        W 5897  10.219   3.417  10.885
 1847W        W 5898   8.080   9.560   8.857
 1848W        W 5899   0.797   8.250   2.309
 1849W        W 5900   0.748   8.094   9.300
 1850W        W 5901   9.088   6.663   2.909
 1851W        W 5902   8.537  10.356   0.189
 1852W        W 5903   6.576   2.645  11.186
 1853W        W 5904   0.249   5.869   1.472
 1854W        W 5905   1.816   2.794   1.200
 1855W        W 5906   3.488   8.401   1.617
 1856W        W 5907   3.835   4.810  10.863
 1857W        W 5908   8.051   2.642   8.444
 1858W        W 5909   1.534  11.024   0.850
 1859W        W 5910   6.722   9.903   0.361
 1860W        W 5911   5.846   6.228  11.470
 1861W        W 5912   4.660  11.280   2.911
 1862W        W 5913   7.163   9.384   1.959
 1863W        W 5914  10.652  11.397  11.788
 1864W        W 5915   2.009   6.286  11.866
 1865W        W 5916   7.472   3.336   1.580
 1866W        W 5917   5.797   4.117   3.201
 1867W        W 5918   8.065  10.827   1.728
 1868W        W 5919   2.461  10.882  10.899
 1869W        W 5920  11.273   4.272   2.984
 1870W        W 5921   7.183   2.627   9.458
 1871W        W 5922   9.273   0.655   1.767
 1872W        W 5923   7.193   3.261   3.038
 1873W        W 5924   2.207   3.688   3.256
 1874W        W 5925  10.324   3.411   9.988
 1875W        W 5926   1.409   9.213   1.997
 1876W        W 5927   3.732   2.090   8.451
 1877W        W 5928  10.285   3.938   9.904
 1878W        W 5929   6.932   5.365   2.031
 1879W        W 5930   4.563   2.724   0.993
 1880W        W 5931   6.245   3.666   1.492
 1881W        W 5932   8.350  10.812   9.500
 1882W        W 5933   4.744   5.234   0.760
 1883W        W 5934   7.111   4.531   1.712
 1884W        W 5935  11.034  11.339   0.270
 1885W        W 5936   9.734   5.952  11.719
 1886W        W 5937   6.682  10.433   9.465
 1887W        W 5938   5.293  10.965   8.984
 1888W        W 5939   6.289   2.349   1.364
 1889W        W 5940   4.590   0.570   2.450
 1890W        W 5941   0.497   2.773  10.553
 1891W        W 5942  10.872   1.996   2.745
 1892W        W 5943   6.470   6.077   0.978
 1893W        W 5944   1.921  10.093   1.918
 1894W        W 5945   1.156   0.854   9.113
 1895W        W 5946   3.487   9.607   9.690
 1896W        W 5947  10.384   2.809   2.430
 1897W        W 5948   1.260   8.025   9.384
 1898W        W 5949   0.362   0.844   2.438
 1899W        W 5950   1.703   5.556   1.428
 1900W        W 5951   3.200   8.861   3.179
 1901W        W 5952  10.051   4.996  10.035
 1902W        W 5953   2.085   1.811   1.746
 1903W        W 5954   8.440   3.263  10.420
 1904W        W 5955   3.787   3.100  11.381
 1905W        W 5956   9.076   6.058   9.094
 1906W        W 5957  11.179   5.725  11.221
 1907W        W 5958   1.769   4.595   1.494
 1908W        W 5959   8.762   2.517   2.842
 1909W        W 5960  11.357  10.565  11.103
 1910W        W 5961  10.059   2.612  10.317
 1911W        W 5962   8.234   0.932  10.405
 1912W        W 5963   5.503   2.099   2.565
 1913W        W 5964   5.609   0.370   9.637
 1914W        W 5965  10.962   5.212  11.498
 1915W        W 5966  10.126   3.633   9.510
 1916W        W 5967   0.275   7.265   2.973
 1917W        W 5968   3.327  11.359   1.413
 1918W        W 5969   6.715   6.152   8.693
 1919W        W 5970   1.404   7.052   8.391
 1920W        W 5971  11.310   5.721   9.211
 1921W        W 5972  10.126   6.052   2.223
 1922W        W 5973   5.063  10.327   2.312
 1923W        W 5974   0.427   9.887   3.480
 1924W        W 5975   9.182   9.585   0.332
 1925W        W 5976   8.986  10.450   2.195
 1926W        W 5977   1.817   8.939   1.827
 1927W        W 5978   2.240   2.773  10.060
 1928W        W 5979   4.106   4.245   1.553
 1929W        W 5980   2.186   1.946   3.784
 1930W        W 5981   4.108   3.336  10.039
 1931W        W 5982   0.184   1.478   1.692
 1932W        W 5983   8.519  10.725   2.783
 1933W        W 5984   4.633   3.860   2.802
 1934W        W 5985   6.627   8.443  10.227
 1935W        W 5986   2.993  10.440  10.107
 1936W        W 5987   3.185   1.775   9.012
 1937W        W 5988   9.592  10.774   1.006
 1938W        W 5989   3.499   8.004   0.927
 1939W        W 5990   5.410   7.827   9.186
 1940W        W 5991   4.040   2.562   2.527
 1941W        W 5992   7.695  11.036   0.462
 1942W        W 5993   3.612   2.111   0.243
 1943W        W 5994   6.638   1.257   9.053
 1944W        W 5995   8.091   8.327   2.771
 1945W        W 5996   0.889   0.383   2.358
 1946W        W 5997   6.900   3.318   0.573
 1947W        W 5998   4.169   9.068   1.694
 1948W        W 5999   3.467   0.520   3.730
 1949W        W 6000   3.672   3.558   1.788
 1950W        W 6001   9.928   4.765  10.784
 1951W        W 6002   7.243   1.877   2.677
 1952W        W 6003   8.673   3.691  11.303
 1953W        W 6004  11.411   9.895   9.329
 1954W        W 6005   9.807   0.096   0.996
 1955W        W 6006   1.468   5.104   2.123
 1956W        W 6007   2.436   6.136   8.852
 1957W        W 6008   3.374   9.488   0.404
 1958W        W 6009   8.611   5.260  11.860
 1959W        W 6010   5.988   6.064  10.979
 1960W        W 6011  10.514   3.427   0.259
 1961W        W 6012   3.108  11.350  11.124
 1962W        W 6013   8.627   8.797   1.228
 1963W        W 6014   1.778   5.978   2.211
 1964W        W 6015   1.663  10.812   9.263
 1965W        W 6016  11.287   9.761  11.363
 1966W        W 6017   5.300   8.952   0.696
 1967W        W 6018  10.567  11.346  10.936
 1968W        W 6019  11.445   7.567   1.701
 1969W        W 6020   9.909   5.597   0.026
 1970W        W 6021   1.398   1.434   3.083
 1971W        W 6022   4.771   1.701  11.984
 1972W        W 6023   6.527   7.561   1.010
 1973W        W 6024   4.967   6.560   3.596
 1974W        W 6025   3.841   3.164   1.491
 1975W        W 6026   7.126   8.848  11.058
 1976W        W 6027   3.265   2.679   1.753
 1977W        W 6028   2.257   7.921   1.195
 1978W        W 6029   3.672   0.288   3.216
 1979W        W 6030   4.159  11.198  10.294
 1980W        W 6031  10.423   5.179  11.477
 1981W        W 6032   2.836   8.798   0.800
 1982W        W 6033  10.829   3.279   9.299
 1983W        W 6034   3.944   7.138   9.265
 1984W        W 6035   3.854   3.384  11.827
 1985W        W 6036  11.380   3.124  10.005
 1986W        W 6037   2.219   8.916  11.314
 1987W        W 6038   6.217  10.807  10.737
 1988W        W 6039   2.193   2.222  11.487
 1989W        W 6040   3.263   9.061  10.640
 1990W        W 6041   1.294   5.291   1.651
 1991W        W 6042   9.748   4.601  10.199
 1992W        W 6043   3.901   8.185   8.375
 1993W        W 6044   8.060  10.449   2.054
 1994W        W 6045   6.976   8.431   0.559
 1995W        W 6046   5.549   2.367   9.752
 1996W        W 6047   0.691   5.987   1.222
 1997W        W 6048   1.680   6.708  11.986
 1998W        W 6049   6.080   8.880   1.600
 1999W        W 6050   0.621   1.835   9.057
 2000W        W 6051   2.765   1.123  10.436
 2001W        W 6052   6.087   0.433   2.285
 2002W        W 6053   8.565   9.736   1.625
 2003W        W 6054  11.431   0.905  11.850
 2004W        W 6055   7.221   7.834   9.937
 2005W        W 6056   8.636  10.025  11.084
 2006W        W 6057   3.336   2.248   9.782
 2007W        W 6058   1.807   6.442   1.940
 2008W        W 6059   3.650   8.910   9.038
 2009W        W 6060   2.255   3.675  11.280
 2010W        W 6061  10.062   0.217   1.440
 2011W        W 6062   8.257   1.553  11.303
 2012W        W 6063   2.905   1.865  11.236
 2013W        W 6064   8.383   9.584   0.022
 2014W        W 6065   0.302   8.046   9.562
 2015W        W 6066   2.701   3.464   8.524
 2016W        W 6067   1.251   9.357   3.448
 2017W        W 6068  10.819   7.037  10.835
 2018W        W 6069   3.838   7.489   0.249
 2019W        W 6070   2.001   7.713   3.175
 2020W        W 6071   1.846   1.364   1.963
 2021W        W 6072   9.389   9.360  11.871
 2022W        W 6073   1.623  10.499   1.769
 2023W        W 6074   7.999  11.445   0.901
 2024W        W 6075   8.599   0.594   2.290
 2025W        W 6076   4.268   4.566  11.689
 2026W        W 6077   2.425   7.439   4.083
 2027W        W 6078   9.506   9.833   9.052
 2028W        W 6079   8.059   5.305   3.617
 2029W        W 6080   9.640  10.963  11.296
 2030W        W 6081   8.900   3.631  10.840
 2031W        W 6082   6.100   9.487   0.756
 2032W        W 6083   2.629  10.883   0.204
 2033W        W 6084  10.394   0.435   3.280
 2034W        W 6085   1.552   2.420   0.097
 2035W        W 6086  10.880   1.245   8.592
 2036W        W 6087   9.088  11.283   2.189
 2037W        W 6088   8.165   7.540   1.816
 2038W        W 6089   3.119   1.430   3.341
 2039W        W 6090   2.248   4.901   3.791
 2040W        W 6091   0.135   6.778  10.147
 2041W        W 6092  10.365   7.004  11.973
 2042W        W 6093  10.816   6.106  11.199
 2043W        W 6094   1.640   2.799   3.216
 2044W        W 6095  10.091   2.738   8.847
 2045W        W 6096   4.816  10.070   1.368
 2046W        W 6097   5.690  11.343   8.940
 2047W        W 6098   2.780   4.560   1.463
 2048W        W 6099   4.496  11.260  11.962
 2049W        W 6100   8.970   9.494  10.305
 2050W        W 6101   3.042   7.801   0.709
 2051W        W 6102   5.678   8.168   1.846
 2052W        W 6103   6.423   3.348   9.347
 2053W        W 6104   1.110   2.206   1.497
 2054W        W 6105   5.544   5.709   0.452
 2055W        W 6106   8.910   5.927  11.418
 2056W        W 6107  11.483   6.742   0.860
 2057W        W 6108   6.746  10.423   1.523
 2058W        W 6109   4.376   6.533   0.963
 2059W        W 6110  10.784   5.150   1.390
 2060W        W 6111   0.391  10.335   9.899
 2061W        W 6112   6.959   3.767   2.287
 2062W        W 6113   4.030   7.931   0.976
 2063W        W 6114   5.511   3.301   1.694
 2064W        W 6115  11.262   0.407  11.095
 2065W        W 6116   1.856  10.413   2.743
 2066W        W 6117   0.999   9.940   1.336
 2067W        W 6118  10.458   8.956  11.279
 2068W        W 6119   9.693   8.146   9.566
 2069W        W 6120   1.904   2.520  11.758
 2070W        W 6121   5.957   6.184   8.931
 2071W        W 6122   0.649   1.646   1.882
 2072W        W 6123   2.217  11.332  10.911
 2073W        W 6124   4.198  10.276   2.379
 2074W        W 6125   5.261   9.608   4.103
 2075W        W 6126   2.950   8.388   8.116
 2076W        W 6127   2.839   2.937  10.898
 2077W        W 6128   7.392   2.995  11.750
 2078W        W 6129   5.453   4.658   0.349
 2079W        W 6130   1.786   0.250   3.221
 2080W        W 6131  10.901   5.977   2.425
 2081W        W 6132   6.947   9.919  11.479
 2082W        W 6133   5.762   4.769  10.046
 2083W        W 6134  11.473   5.066   1.829
 2084W        W 6135   8.154   2.865   8.940
 2085W        W 6136   4.122   3.033   2.723
 2086W        W 6137   3.591  11.056   0.380
 2087W        W 6138   2.304   9.058   3.271
 2088W        W 6139   1.680   1.874   0.772
 2089W        W 6140   0.300  10.042  10.640
 2090W        W 6141  10.452   5.467   9.368
 2091W        W 6142  10.814   9.670  10.445
 2092W        W 6143   1.387   1.766  11.281
 2093W        W 6144   9.231   3.899   1.843
 2094W        W 6145   2.628   3.189   1.800
 2095W        W 6146   8.564   1.864   9.546
 2096W        W 6147   8.198  11.098  10.453
 2097W        W 6148   8.227   5.065   0.478
 2098W        W 6149   2.407   5.331   0.027
 2099W        W 6150   3.187   7.971   1.329
 2100W        W 6151   3.657   7.579   9.209
 2101W        W 6152   1.331   9.439   2.450
 2102W        W 6153   7.591  10.398   9.007
 2103W        W 6154   0.082   0.549   9.818
 2104W        W 6155  10.387   2.420   0.301
 2105W        W 6156  11.045   5.985  11.645
 2106W        W 6157   1.969   3.173   9.141
 2107W        W 6158  10.012   6.172   9.894
 2108W        W 6159   6.142  10.841   2.925
 2109W        W 6160  11.445   2.756   2.179
 2110W        W 6161   7.145   7.022  11.531
 2111W        W 6162   0.049   3.350  11.370
 2112W        W 6163   5.723   0.786   2.215
 2113W        W 6164   0.198   3.177  11.860
 2114W        W 6165   3.889   1.048  11.387
 2115W        W 6166   1.897   0.242  10.869
 2116W        W 6167   6.015   4.393  10.317
 2117W        W 6168   9.366   7.584   8.833
 2118W        W 6169   3.310   5.116   9.641
 2119W        W 6170   3.392   3.251   3.147
 2120W        W 6171   3.588   9.324  10.245
 2121W        W 6172  10.162   0.267   2.871
 2122W        W 6173   3.998   8.908   9.429
 2123W        W 6174   5.406   8.087   4.207
 2124W        W 6175   2.183   8.426   2.115
 2125W        W 6176  10.420   6.534   2.434
 2126W        W 6177   8.119   9.970   0.261
 2127W        W 6178  11.322   3.908   1.022
 2128W        W 6179   0.847   7.425   1.753
 2129W        W 6180  10.494   6.769   1.344
 2130W        W 6181   1.921   9.686  11.318
 2131W        W 6182   3.291   2.235  10.283
 2132W        W 6183   8.549   2.677   3.636
 2133W        W 6184   4.611   2.406   9.577
 2134W        W 6185   3.177   9.414  11.924
 2135W        W 6186   2.112   5.611   0.336
 2136W        W 6187  10.024   1.219   2.577
 2137W        W 6188   1.042   3.650   1.479
 2138W        W 6189   9.586   9.795  10.816
 2139W        W 6190   0.787   6.138  10.402
 2140W        W 6191  10.120   0.847   9.051
 2141W        W 6192   9.162   1.280   3.224
 2142W        W 6193   9.255   8.366  11.476
 2143W        W 6194   1.888   1.930   1.276
 2144W        W 6195   4.372   4.396   0.188
 2145W        W 6196   8.645   1.754   0.424
 2146W        W 6197   9.763   6.722   1.847
 2147W        W 6198   1.678   9.403   1.611
 2148W        W 6199   4.495   8.373  10.041
 2149W        W 6200   3.762   9.670   8.854
 2150W        W 6201   3.627   0.259   2.253
 2151W        W 6202   0.458   8.867   9.248
 2152W        W 6203   2.457   3.220   3.201
 2153W        W 6204   5.060   2.982  10.017
 2154W        W 6205   5.228   8.633   3.080
 2155W        W 6206   1.438   1.743  11.783
 2156W        W 6207   9.993  10.509  11.817
 2157W        W 6208   4.559   4.216   3.398
 2158W        W 6209   4.124   2.557   0.776
 2159W        W 6210   8.284   3.691   1.871
 2160W        W 6211   0.533  10.348   1.845
 2161W        W 6212   7.865   4.095   9.338
 2162W        W 6213   0.837   3.629   9.043
 2163W        W 6214   7.058   3.368  11.052
 2164W        W 6215   1.619  10.546  10.386
 2165W        W 6216   6.612   4.553   0.860
 2166W        W 6217   5.253   1.156   9.561
 2167W        W 6218   0.119   7.085   1.250
 2168W        W 6219   2.119  11.317   2.314
 2169W        W 6220   7.089   0.410   9.421
 2170W        W 6221   2.749   5.651  11.776
 2171W        W 6222   5.560   9.451   2.283
 2172W        W 6223   0.824   4.826  10.934
 2173W        W 6224   1.743   8.065  10.067
 2174W        W 6225   2.507   9.034   1.567
 2175W        W 6226   9.633   8.454   1.646
 2176W        W 6227   8.427   2.353   3.208
 2177W        W 6228   7.026   9.725   0.717
 2178W        W 6229   9.588   7.462  11.641
 2179W        W 6230  11.256   6.081   1.486
 2180W        W 6231  10.592   6.125   2.061
 2181W        W 6232   7.677   0.673   9.267
 2182W        W 6233   1.525   9.495  11.001
 2183W        W 6234   9.976   1.715   2.171
 2184W        W 6235   3.222   6.071   1.270
 2185W        W 6236   3.792   9.266  11.253
 2186W        W 6237   5.094   5.566   0.255
 2187W        W 6238   8.645   3.744  10.389
 2188W        W 6239   0.926   9.771  11.418
 2189W        W 6240   9.897   8.891   2.393
 2190W        W 6241  11.059   3.166   0.967
 2191W        W 6242   9.819   7.458   9.030
 2192W        W 6243  10.830   7.538  10.920
 2193W        W 6244   5.461   4.087   9.530
 2194W        W 6245   7.105   7.465  11.274
 2195W        W 6246   1.774   0.509   1.718
 2196W        W 6247   9.263   0.774  10.735
 2197W        W 6248   3.721   3.277   1.011
 2198W        W 6249   8.382   6.325   0.795
 2199W        W 6250   1.793   9.036   9.802
 2200W        W 6251   3.137   0.247   0.011
 2201W        W 6252   1.358   7.100   0.076
 2202W        W 6253   2.844   7.926  10.948
 2203W        W 6254  10.444  11.365   3.033
 2204W        W 6255   0.784   9.893  10.034
 2205W        W 6256   6.466   9.982   1.814
 2206W        W 6257   6.552   0.871   3.365
 2207W        W 6258   7.675   6.345   1.195
 2208W        W 6259   7.909   5.584   0.203
 2209W        W 6260   9.399   3.758  10.817
 2210W        W 6261  10.411   7.006   2.706
 2211W        W 6262   2.286   8.455   0.195
 2212W        W 6263   5.104   7.026   1.866
 2213W        W 6264   8.467  11.325  11.205
 2214W        W 6265   5.535  10.232   3.459
 2215W        W 6266  10.455   2.752  11.888
 2216W        W 6267   6.642   0.919  11.055
 2217W        W 6268  11.013   1.319   2.944
 2218W        W 6269   7.619   3.052   3.247
 2219W        W 6270   8.903   4.232  11.646
 2220W        W 6271   1.582  10.247   0.159
 2221W        W 6272  10.657   3.542   1.819
 2222W        W 6273  11.121   9.951  10.886
 2223W        W 6274   7.533   6.251  11.526
 2224W        W 6275   4.586   9.315   0.741
 2225W        W 6276  10.284  11.138   9.265
 2226W        W 6277   5.429   3.788   3.063
 2227W        W 6278   5.617   4.842   0.818
 2228W        W 6279   0.518   0.748  10.028
 2229W        W 6280   1.486   8.661   0.544
 2230W        W 6281   7.397   5.769  11.520
 2231W        W 6282   0.445   3.558  11.642
 2232W        W 6283  10.247   3.657   3.355
 2233W        W 6284   1.397   3.554   8.970
 2234W        W 6285  10.650   7.468  10.313
 2235W        W 6286  10.819   9.065   9.579
 2236W        W 6287   3.533   4.657   0.146
 2237W        W 6288  10.536  10.573   2.329
 2238W        W 6289   6.614   6.327   9.535
 2239W        W 6290   6.211   0.643   0.466
 2240W        W 6291   6.499   7.513  10.522
 2241W        W 6292   5.160   3.544   9.157
 2242W        W 6293   4.639   2.456   1.426
 2243W        W 6294   4.047   4.772   0.294
 2244W        W 6295  10.929   6.906  11.482
 2245W        W 6296   8.099   5.922   1.562
 2246W        W 6297  10.468   4.093  11.404
 2247W        W 6298   6.742   9.817  10.085
 2248W        W 6299   8.409   3.511   9.974
 2249W        W 6300   3.320   9.295   1.339
 2250W        W 6301   8.236   1.191   9.975
 2251W        W 6302   9.759   6.053  10.344
 2252W        W 6303   2.657   1.184   3.259
 2253W        W 6304   4.247   7.186   0.227
 2254W        W 6305   3.723   1.826  10.978
 2255W        W 6306   1.784   3.722   2.606
 2256W        W 6307   7.941   9.795   0.865
 2257W        W 6308  11.279   7.268  10.975
 2258W        W 6309  10.513   7.840   2.690
 2259W        W 6310   9.397   8.512  10.445
 2260W        W 6311   6.683  10.307   9.980
 2261W        W 6312   7.098   5.156  11.811
 2262W        W 6313   2.360   9.427   2.156
 2263W        W 6314   4.316   8.554   2.891
 2264W        W 6315  10.413   7.991   0.060
 2265W        W 6316   5.546   7.124   2.201
 2266W        W 6317   2.905   7.260  10.285
 2267W        W 6318   3.823   4.572   9.057
 2268W        W 6319   0.372   0.988  10.517
 2269W        W 6320  11.211   3.688   9.982
 2270W        W 6321   6.244   3.173   2.735
 2271W        W 6322   1.197   8.783  11.942
 2272W        W 6323   3.549   8.487   2.252
 2273W        W 6324   0.075  10.099  11.102
 2274W        W 6325   0.363   6.391   9.269
 2275W        W 6326   3.765  10.533   2.454
 2276W        W 6327   1.945   4.312  11.920
 2277W        W 6328   7.949   1.418   2.635
 2278W        W 6329   2.222  10.795  10.087
 2279W        W 6330   1.232  10.941  11.857
 2280W        W 6331   7.556   4.510   0.966
 2281W        W 6332   4.603   0.713   8.943
 2282W        W 6333   7.718   8.477  10.864
 2283W        W 6334   3.402   1.755  10.433
 2284W        W 6335   8.543   8.170  10.435
 2285W        W 6336   3.367   0.293   8.372
 2286W        W 6337   6.214   7.001  11.405
 2287W        W 6338   0.449   8.135   1.712
 2288W        W 6339   4.458   0.424   3.333
 2289W        W 6340   6.307   6.971   2.677
 2290W        W 6341   2.456   6.620   0.181
 2291W        W 6342   2.957   5.124  10.016
 2292W        W 6343   5.941  10.926   0.952
 2293W        W 6344   8.984   9.101   0.054
 2294W        W 6345   0.577  11.479   2.302
 2295W        W 6346   8.698   0.294   3.323
 2296W        W 6347   4.586  10.402  10.846
 2297W        W 6348   4.237   7.620   2.737
 2298W        W 6349   1.681   9.007   8.741
 2299W        W 6350   5.494   0.188   0.896
 2300W        W 6351   5.313   6.871  11.286
 2301W        W 6352  10.288   9.897   2.644
 2302W        W 6353   2.583   8.555  11.507
 2303W        W 6354  10.903   4.342  11.352
 2304W        W 6355   1.419   2.845   0.871
 2305W        W 6356   3.133  11.358   9.692
 2306W        W 6357   7.542   7.528   9.388
 2307W        W 6358   6.632   1.970   0.045
 2308W        W 6359   8.387   5.532   1.687
 2309W        W 6360   2.175  10.000  10.375
 2310W        W 6361   2.792   7.049   0.165
 2311W        W 6362   2.338   7.627   2.775
 2312W        W 6363  11.413   7.703   2.225
 2313W        W 6364   2.735   6.028   9.546
 2314W        W 6365   6.137   0.914   2.513
 2315W        W 6366   0.055   2.700   1.313
 2316W        W 6367   7.330   0.353  11.971
 2317W        W 6368   4.538  10.445   9.823
 2318W        W 6369   9.480   5.561   1.596
 2319W        W 6370   5.614   9.937   9.994
 2320W        W 6371  10.909   0.267   8.912
 2321W        W 6372   6.200   8.462   2.645
 2322W        W 6373   6.962   5.998   1.727
 2323W        W 6374   8.537   9.424   9.048
 2324W        W 6375   6.752   8.984   8.297
 2325W        W 6376   8.363  11.195   1.161
 2326W        W 6377   6.484   3.644   0.718
 2327W        W 6378   5.577   6.917   3.104
 2328W        W 6379   8.045   6.580   2.255
 2329W        W 6380   9.456   0.044   2.426
 2330W        W 6381   1.962   4.607  11.457
 2331W        W 6382   6.512   2.749   1.150
 2332W        W 6383   1.934   7.616   1.453
 2333W        W 6384   4.499   8.211  11.171
 2334W        W 6385  10.614   9.210   0.995
 2335W        W 6386   6.438   4.341  11.417
 2336W        W 6387   3.226   1.823   0.418
 2337W        W 6388   9.018   6.725   3.793
 2338W        W 6389   1.758   8.666   1.354
 2339W        W 6390   7.475   4.679   0.493
 2340W        W 6391   3.008   0.465   1.996
 2341W        W 6392   0.733   6.755   3.503
 2342W        W 6393   8.003   5.096   0.956
 2343W        W 6394   3.693   3.070  10.108
 2344W        W 6395   9.704   6.206   0.670
 2345W        W 6396   7.786   3.757   8.964
 2346W        W 6397   2.983   9.710   9.597
 2347W        W 6398   8.147  10.885   0.226
 2348W        W 6399  10.420   5.753   1.310
 2349W        W 6400   6.107   0.426   0.924
 2350W        W 6401   0.045   2.301   0.979
 2351W        W 6402   5.695   0.894   0.011
 2352W        W 6403   9.798   4.257  11.993
 2353W        W 6404   0.228   6.768   2.948
 2354W        W 6405   0.186  10.957   9.477
 2355W        W 6406   5.464   3.227  10.776
 2356W        W 6407   2.150   6.828  11.273
 2357W        W 6408   4.077   0.492   2.978
 2358W        W 6409   2.763   5.565   2.297
 2359W        W 6410  10.897   6.491   2.260
 2360W        W 6411   8.380   2.409  10.589
 2361W        W 6412   6.286   5.217   0.541
 2362W        W 6413   8.958   7.942   1.273
 2363W        W 6414  10.851   7.250  11.961
 2364W        W 6415   5.079   2.271   8.625
 2365W        W 6416   5.871   6.737  11.985
 2366W        W 6417   3.634   5.594   1.186
 2367W        W 6418   2.764  10.049   2.508
 2368W        W 6419   7.658   9.946   1.329
 2369W        W 6420   8.131   5.794   2.080
 2370W        W 6421   7.626   2.902  10.425
 2371W        W 6422   9.112   4.095   1.352
 2372W        W 6423   6.198   4.118  10.972
 2373W        W 6424   7.786   3.455   2.940
 2374W        W 6425   6.065   9.631  11.315
 2375W        W 6426  10.412   1.164  10.837
 2376W        W 6427   7.730   4.386   3.338
 2377W        W 6428   6.251   6.488   1.250
 2378W        W 6429  10.977   2.810   3.051
 2379W        W 6430   7.249   6.599  11.882
 2380W        W 6431   7.971   2.111   3.431
 2381W        W 6432   0.373   3.183  10.259
 2382W        W 6433   0.099  11.320   2.359
 2383W        W 6434   1.624   1.784   8.533
 2384W        W 6435   4.095   3.966   0.104
 2385W        W 6436   8.515   4.682   1.863
 2386W        W 6437   9.758   2.072   3.106
 2387W        W 6438   0.892   5.544   0.937
 2388W        W 6439   7.938   3.255  10.641
 2389W        W 6440   3.234   7.928   2.755
 2390W        W 6441   1.793   5.525   1.954
 2391W        W 6442   2.902  10.505   2.367
 2392W        W 6443   5.455   3.746   9.986
 2393W        W 6444   0.081   6.981   0.405
 2394W        W 6445   1.583   7.543   8.579
 2395W        W 6446   6.648   2.430   3.169
 2396W        W 6447   8.503   1.293   0.212
 2397W        W 6448   1.856   2.768   1.716
 2398W        W 6449   3.616   1.792   0.846
 2399W        W 6450   4.576  11.295   1.880
 2400W        W 6451   0.939   5.516   1.951
 2401W        W 6452   5.286   7.090   2.673
 2402W        W 6453   7.099  10.846  11.695
 2403W        W 6454  10.729   8.510  11.414
 2404W        W 6455   9.821   7.095  11.067
 2405W        W 6456   4.662   1.703  11.072
 2406W        W 6457   9.999   6.565   0.897
 2407W        W 6458   2.920   5.086   9.071
 2408W        W 6459  10.783   4.635  10.460
 2409W        W 6460   0.309   6.276  10.265
 2410W        W 6461   3.273   6.919   0.307
 2411W        W 6462   6.186   1.446   0.645
 2412W        W 6463   1.834   7.155  11.783
 2413W        W 6464   0.733   9.396   1.632
 2414W        W 6465   4.026   1.781   9.749
 2415W        W 6466   7.396  10.810  10.921
 2416W        W 6467   0.677   0.435   0.364
 2417W        W 6468  11.149   6.921   2.181
 2418W        W 6469   5.245   2.623  11.280
 2419W        W 6470   6.546  10.504  11.764
 2420W        W 6471   9.933   6.907   8.529
 2421W        W 6472   3.346   3.628   0.943
 2422W        W 6473   7.853   1.800   9.555
 2423W        W 6474   1.302   9.928   2.374
 2424W        W 6475   9.872   7.112   9.974
 2425W        W 6476   5.379   1.199   0.313
 2426W        W 6477   6.971  10.839  11.178
 2427W        W 6478   5.462   4.323  10.394
 2428W        W 6479   1.825   7.064  10.778
 2429W        W 6480   2.249   8.060   3.485
 2430W        W 6481   5.385   2.294   0.290
 2431W        W 6482   8.985   0.069   0.502
 2432W        W 6483   8.992   5.557  11.077
 2433W        W 6484   1.873   1.196   2.874
 2434W        W 6485   2.807   5.945   0.954
 2435W        W 6486   4.334   3.906   1.862
 2436W        W 6487  10.539   9.321  10.913
 2437W        W 6488  10.097   1.385   3.067
 2438W        W 6489   8.863  10.786   9.946
 2439W        W 6490  10.919   9.949   9.543
 2440W        W 6491  10.078   4.796   1.854
 2441W        W 6492   0.590   0.441   2.787
 2442W        W 6493   8.161   9.744   2.775
 2443W        W 6494   2.225   6.684  10.053
 2444W        W 6495   0.921  10.837   1.454
 2445W        W 6496   2.710   1.452  10.001
 2446W        W 6497   9.895   9.271   8.629
 2447W        W 6498   6.510   7.844   1.451
 2448W        W 6499   0.270   4.752   3.329
 2449W        W 6500   8.362   9.182  10.611
 2450W        W 6501   3.214   3.145   0.893
 2451W        W 6502  10.929  11.496  10.019
 2452W        W 6503   8.578   5.511   9.559
 2453W        W 6504  10.590   8.986  10.009
 2454W        W 6505   1.285   1.489   0.922
 2455W        W 6506   8.482  10.418   2.345
 2456W        W 6507  11.176   5.626   3.214
 2457W        W 6508   6.002   6.702  10.221
 2458W        W 6509   7.326   3.231   1.082
 2459W        W 6510   9.539   4.643   9.263
 2460W        W 6511   3.590   5.060  11.401
 2461W        W 6512   2.926  10.551   0.510
 2462W        W 6513   6.196   1.046  11.283
 2463W        W 6514   5.680   8.765   3.302
 2464W        W 6515   2.735   0.477   0.697
 2465W        W 6516   8.485   7.649   1.414
 2466W        W 6517   3.167   4.267   1.709
 2467W        W 6518   0.098   0.396   3.011
 2468W        W 6519   8.290   5.514   4.042
 2469W        W 6520   1.663   9.476   2.833
 2470W        W 6521  10.701   1.252   0.137
 2471W        W 6522   6.598   5.051   0.920
 2472W        W 6523   2.194   9.486   9.663
 2473W        W 6524   1.325   6.151   3.000
 2474W        W 6525   1.948   4.612   2.893
 2475W        W 6526   8.962   5.906   9.840
 2476W        W 6527   2.213   6.663   2.636
 2477W        W 6528  11.020   8.722   3.194
 2478W        W 6529   8.500   4.169  11.318
 2479W        W 6530   3.156   5.004   2.995
 2480W        W 6531   3.615   9.841  10.255
 2481W        W 6532   7.787   0.278  11.781
 2482W        W 6533   6.201  10.798   9.458
 2483W        W 6534  10.558   8.194   2.324
 2484W        W 6535   5.206  11.454   2.237
 2485W        W 6536   0.531   5.031   0.244
 2486W        W 6537   3.331   4.221  11.856
 2487W        W 6538   3.880   1.710  10.275
 2488W        W 6539   3.668   0.248   0.853
 2489W        W 6540   3.226   9.758   0.838
 2490W        W 6541   7.468   8.910   9.693
 2491W        W 6542   5.253   8.766   1.165
 2492W        W 6543   2.306  11.375   2.799
 2493W        W 6544   9.035   3.114   2.292
 2494W        W 6545   1.398   0.749   1.385
 2495W        W 6546  10.865   0.016  11.324
 2496W        W 6547   8.030   1.778   3.005
 2497W        W 6548  11.284  11.237   9.273
 2498W        W 6549   9.914   5.235   0.377
 2499W        W 6550   5.522   5.356   0.037
 2500W        W 6551   3.143   9.213   9.630
 2501W        W 6552   3.631   4.945   2.252
 2502W        W 6553   1.786   7.644   9.125
 2503W        W 6554   9.348   8.460   9.888
 2504W        W 6555   8.974   6.381   0.117
 2505W        W 6556  10.605   8.961   1.909
 2506W        W 6557   3.265  11.442   0.470
 2507W        W 6558   1.102   9.344   1.300
 2508W        W 6559   5.276   0.477   3.518
 2509W        W 6560   7.128  10.868   2.623
 2510W        W 6561   2.093   7.232   3.291
 2511W        W 6562   1.712   5.051   3.090
 2512W        W 6563   5.687   5.667  10.057
 2513W        W 6564   0.083   3.596   2.047
 2514W        W 6565   0.898   7.182  11.854
 2515W        W 6566   9.679   7.987  10.930
 2516W        W 6567   1.327   3.630  11.197
 2517W        W 6568   8.282  10.911   2.358
 2518W        W 6569   1.777   4.720  10.567
 2519W        W 6570   9.825   5.678   1.986
 2520W        W 6571   3.467   8.045   9.344
 2521W        W 6572   2.603   4.135   3.110
 2522W        W 6573   6.258   1.143   9.980
 2523W        W 6574   5.498   3.758   2.563
 2524W        W 6575   3.084   8.637  11.424
 2525W        W 6576   9.507   5.738   1.118
 2526W        W 6577   8.340   4.176   9.525
 2527W        W 6578   2.260   0.273  11.969
 2528W        W 6579   6.510   4.021   3.676
 2529W        W 6580   4.721   9.730   0.986
 2530W        W 6581   2.761   6.223   1.409
 2531W        W 6582  10.990   6.562  10.697
 2532W        W 6583   1.706   4.081   0.354
 2533W        W 6584   2.923   0.308  10.711
 2534W        W 6585  10.433   9.458   1.871
 2535W        W 6586   2.744   7.557  11.310
 2536W        W 6587   0.416   3.105   1.378
 2537W        W 6588   4.654  10.401   3.168
 2538W        W 6589   0.047   9.630  10.889
 2539W        W 6590   5.644   6.205   1.807
 2540W        W 6591   6.236   8.083   9.488
 2541W        W 6592   2.638   5.110  11.272
 2542W        W 6593   6.062   2.010  11.379
 2543W        W 6594   1.359   4.183   0.005
 2544W        W 6595   6.580   7.609   1.920
 2545W        W 6596   3.605   9.386   3.832
 2546W        W 6597   0.970   7.180   9.094
 2547W        W 6598   7.543   2.288   2.190
 2548W        W 6599  11.333   6.988   3.157
 2549W        W 6600   7.120  10.523   9.839
 2550W        W 6601   8.911   9.202  10.725
 2551W        W 6602  10.337   2.780   0.859
 2552W        W 6603   8.735   6.836  11.948
 2553W        W 6604  11.074   8.986   1.003
 2554W        W 6605  10.384   0.866   9.837
 2555W        W 6606  10.393   3.680   0.696
 2556W        W 6607   1.871   5.853   9.861
 2557W        W 6608   9.737  10.595   2.833
 2558W        W 6609   9.774   0.924  11.921
 2559W        W 6610  10.867   3.494  10.830
 2560W        W 6611   8.787   5.650   9.111
 2561W        W 6612   5.726   3.622   3.433
 2562W        W 6613   3.766   9.869   8.350
 2563W        W 6614   7.486   9.198   0.230
 2564W        W 6615  10.278   5.299   3.921
 2565W        W 6616   0.186   5.657   3.265
 2566W        W 6617   1.687   5.091  11.505
 2567W        W 6618  10.396   8.104  11.461
 2568W        W 6619   6.814   7.200   3.591
 2569W        W 6620   9.661   5.065  10.374
 2570W        W 6621   0.253   1.927   0.342
 2571W        W 6622   7.064   9.486   0.275
 2572W        W 6623   3.031   4.678   9.636
 2573W        W 6624   6.388   4.682  10.015
 2574W        W 6625   4.758   0.489   9.391
 2575W        W 6626   4.904   4.380  10.344
 2576W        W 6627   7.069   1.793   3.147
 2577W        W 6628   8.933   6.309   9.523
 2578W        W 6629   9.849   9.599   2.595
 2579W        W 6630   4.614   8.359  10.544
 2580W        W 6631   4.863   5.714   1.546
 2581W        W 6632   2.208   2.063   9.607
 2582W        W 6633  11.230   5.292   8.916
 2583W        W 6634   6.484   2.698   2.173
 2584W        W 6635   9.353   8.523   0.756
 2585W        W 6636  10.299   3.112   3.694
 2586W        W 6637   2.906   2.466   9.982
 2587W        W 6638  10.570   3.686   2.952
 2588W        W 6639   3.607   7.565  10.248
 2589W        W 6640   1.749   8.433  10.480
 2590W        W 6641   4.994   3.510   0.932
 2591W        W 6642   0.976   2.634   1.744
 2592W        W 6643   3.824  10.921   9.485
 2593W        W 6644  11.395   2.145   3.451
 2594W        W 6645   8.925   5.103   9.797
 2595W        W 6646  11.403   5.508   3.741
 2596W        W 6647   7.365   6.430   0.770
 2597W        W 6648   1.206   0.967   3.233
 2598W        W 6649   3.138   0.195   2.412
 2599W        W 6650   2.734   6.902   9.913
 2600W        W 6651   8.049   3.819  11.035
 2601W        W 6652   9.706   5.224   2.554
 2602W        W 6653   7.208  10.062   8.975
 2603W        W 6654   2.289   5.733   9.601
 2604W        W 6655   3.592   1.777   9.361
 2605W        W 6656  10.972   4.801   9.361
 2606W        W 6657   8.538  11.200   3.682
 2607W        W 6658   3.895   9.325   1.342
 2608W        W 6659   8.036   9.197  10.189
 2609W        W 6660   0.934   5.341   9.091
 2610W        W 6661   0.371   7.678   1.979
 2611W        W 6662   1.612  11.323   2.384
 2612W        W 6663   9.320  10.380   1.353
 2613W        W 6664   0.863   4.828   9.087
 2614W        W 6665   3.275  10.288   0.854
 2615W        W 6666   7.162   2.218   9.156
 2616W        W 6667   9.510   1.504  10.334
 2617W        W 6668   3.788   5.072   1.236
 2618W        W 6669  10.385   7.904  10.329
 2619W        W 6670  10.982   9.333   2.064
 2620W        W 6671   1.818   0.440   0.669
 2621W        W 6672   2.841   9.926  11.959
 2622W        W 6673   0.508   3.216   2.698
 2623W        W 6674   3.902   5.627   1.612
 2624W        W 6675   9.221  10.622  11.704
 2625W        W 6676   2.189   1.750   0.865
 2626W        W 6677   2.223   6.176   2.466
 2627W        W 6678  10.970   7.511   3.489
 2628W        W 6679   7.256   5.668  10.737
 2629W        W 6680   2.746   9.050   2.966
 2630W        W 6681   1.360   5.463  11.128
 2631W        W 6682   5.637   0.728   8.934
 2632W        W 6683   0.397  10.979   2.129
 2633W        W 6684   9.547  10.591   9.365
 2634W        W 6685  10.332   2.265   1.661
 2635W        W 6686   3.136   1.658   0.910
 2636W        W 6687   4.512   3.671   9.939
 2637W        W 6688   7.917   7.120   1.674
 2638W        W 6689   2.060   4.228   8.859
 2639W        W 6690   0.403   4.772  10.262
 2640W        W 6691  10.739   8.619   0.888
 2641W        W 6692   5.402   2.827   1.912
 2642W        W 6693   3.142   7.489  11.005
 2643W        W 6694   5.585   4.100   1.243
 2644W        W 6695   4.569  11.320  10.584
 2645W        W 6696   0.980   9.774  11.948
 2646W        W 6697   3.939  10.614   1.523
 2647W        W 6698   5.070  10.320  11.010
 2648W        W 6699   4.193  10.591   3.450
 2649W        W 6700   4.726   4.284  10.814
 2650W        W 6701  10.811   1.185   2.074
 2651W        W 6702   2.486   7.582   3.287
 2652W        W 6703  10.400  10.367   9.142
 2653W        W 6704   4.699   8.854   1.410
 2654W        W 6705   4.722   3.922   1.514
 2655W        W 6706   7.723   3.996   2.796
 2656W        W 6707   6.988   3.812   0.746
 2657W        W 6708   4.235   3.275   2.279
 2658W        W 6709   5.754   7.137   0.696
 2659W        W 6710   9.506  10.570   0.497
 2660W        W 6711   9.544   0.998   0.816
 2661W        W 6712  10.320   8.356  10.580
 2662W        W 6713   0.438   6.922  11.237
 2663W        W 6714   8.025   1.739  10.034
 2664W        W 6715   8.418   5.039   8.638
 2665W        W 6716   9.854   7.634   9.885
 2666W        W 6717   1.622  10.331   3.220
 2667W        W 6718   0.857   0.997  10.328
 2668W        W 6719  10.275  11.393   3.549
 2669W        W 6720   6.196   9.919  10.055
 2670W        W 6721   9.106   8.912   1.057
 2671W        W 6722   9.817  10.361   1.235
 2672W        W 6723   6.129   2.954  11.225
 2673W        W 6724   8.895   1.019  11.003
 2674W        W 6725  11.243   0.227   2.240
 2675W        W 6726   2.800   5.084   2.665
 2676W        W 6727   8.527  11.256   2.662
 2677W        W 6728   3.216  10.996   1.798
 2678W        W 6729   1.431   3.300   9.456
 2679W        W 6730   9.513   3.671  11.650
 2680W        W 6731   9.823   2.157  10.507
 2681W        W 6732   7.320   8.940   2.164
 2682W        W 6733   7.585  11.195   8.993
 2683W        W 6734   5.772   7.781   3.280
 2684W        W 6735   7.979   0.496  10.452
 2685W        W 6736   6.974   0.480   2.262
 2686W        W 6737   1.025   9.258  11.888
 2687W        W 6738   4.753   0.975  11.465
 2688W        W 6739   7.439   0.036   2.667
 2689W        W 6740   6.971   6.706   0.869
 2690W        W 6741   6.071   7.433   2.697
 2691W        W 6742   6.619   2.673   0.650
 2692W        W 6743   6.710   3.053   2.974
 2693W        W 6744   7.174   8.917   2.647
 2694W        W 6745   6.582   8.351   1.419
 2695W        W 6746   4.785   2.902   8.702
 2696W        W 6747   8.502   6.069   0.202
 2697W        W 6748   3.827   9.876  10.735
 2698W        W 6749  10.416   1.590   1.391
 2699W        W 6750   2.378   6.054  10.468
 2700W        W 6751   0.262   4.502   8.902
 2701W        W 6752   8.434   7.132  11.657
 2702W        W 6753   1.411  10.042   1.877
 2703W        W 6754   5.627   1.462   9.409
 2704W        W 6755   3.748   0.850   9.477
 2705W        W 6756   9.785  11.254   1.369
 2706W        W 6757  10.540   2.668   9.599
 2707W        W 6758   8.121   0.511   0.862
 2708W        W 6759   8.672   3.188   3.537
 2709W        W 6760   9.928   2.355   1.328
 2710W        W 6761   7.626   9.823  10.280
 2711W        W 6762   3.315   0.688   2.325
 2712W        W 6763   6.144   1.812   1.826
 2713W        W 6764   3.262   7.862   3.263
 2714W        W 6765   5.050   9.140  10.269
 2715W        W 6766   2.425   5.208   9.021
 2716W        W 6767   7.760   5.500   3.980
 2717W        W 6768   4.090   5.734  10.428
 2718W        W 6769   2.231   4.649  10.818
 2719W        W 6770   0.625  10.236   9.442
 2720W        W 6771   8.180   6.791   9.045
 2721W        W 6772   6.105   9.580   9.218
 2722W        W 6773   5.880   3.897  10.268
 2723W        W 6774   8.993   8.196   2.759
 2724W        W 6775   0.196   6.043   2.668
 2725W        W 6776  11.143   8.829  10.500
 2726W        W 6777   5.397   0.351   1.848
 2727W        W 6778   0.415   7.853  10.495
 2728W        W 6779  10.851   9.607   3.660
 2729W        W 6780   0.425   3.902   1.806
 2730W        W 6781  11.349   9.840   9.836
 2731W        W 6782   0.720   5.519   1.470
 2732W        W 6783   0.532   8.490   9.574
 2733W        W 6784   0.631   1.909  10.664
 2734W        W 6785   7.198  10.071  10.078
 2735W        W 6786   4.543   5.809  10.157
 2736W        W 6787   7.852  10.898  10.158
 2737W        W 6788  10.073   6.568   3.301
 2738W        W 6789   7.406   0.821   1.106
 2739W        W 6790   5.597   5.155   9.721
 2740W        W 6791   9.913   3.975   2.582
 2741W        W 6792   5.593   8.448  10.468
 2742W        W 6793   8.465  10.199   1.873
 2743W        W 6794   5.209   4.945  11.130
 2744W        W 6795  10.950   8.200   9.006
 2745W        W 6796   7.478   3.477  11.907
 2746W        W 6797   7.147   5.152  10.854
 2747W        W 6798  11.336  10.271  11.526
 2748W        W 6799   0.977   1.141   1.812
 2749W        W 6800   2.216   6.464  10.920
 2750W        W 6801   5.215   4.127  10.807
 2751W        W 6802   8.886   2.302  10.493
 2752W        W 6803   2.911   7.146   2.231
 2753W        W 6804   7.802   3.089   0.088
 2754W        W 6805   8.092  11.358   0.412
 2755W        W 6806   7.542   1.257   9.402
 2756W        W 6807   4.326   8.278   2.030
 2757W        W 6808   2.637   6.722   1.392
 2758W        W 6809   6.485   3.200   1.429
 2759W        W 6810   2.400   4.726   8.834
 2760W        W 6811   7.087   9.914  11.994
 2761W        W 6812  11.130   5.716   0.725
 2762W        W 6813   5.930  10.079   1.829
 2763W        W 6814   9.595   7.972   2.380
 2764W        W 6815   5.254   4.749  10.194
 2765W        W 6816  10.032   1.360   9.035
 2766W        W 6817   5.587   0.390  11.998
 2767W        W 6818   4.820  10.374   0.329
 2768W        W 6819   7.614   8.149   1.089
 2769W        W 6820   2.235   6.127   0.345
 2770W        W 6821   2.841   9.023   1.953
 2771W        W 6822   2.244   0.428   1.505
 2772W        W 6823   2.197   4.687   2.365
 2773W        W 6824   4.027   2.053  11.899
 2774W        W 6825  10.530   1.232   2.737
 2775W        W 6826  10.204   5.082   9.075
 2776W        W 6827   7.735   4.521   2.835
 2777W        W 6828   2.132   5.061  11.227
 2778W        W 6829   3.948  10.686   0.354
 2779W        W 6830   8.646   7.857   3.210
 2780W        W 6831   2.910   9.621   1.244
 2781W        W 6832   5.604   1.223   2.508
 2782W        W 6833   7.694   4.640   8.443
 2783W        W 6834   2.553   4.217   9.439
 2784W        W 6835   7.000   7.575   0.804
 2785W        W 6836  10.280   4.558   0.950
 2786W        W 6837  10.386   8.675   2.302
 2787W        W 6838   4.624   2.764  11.876
 2788W        W 6839   6.480   2.202  10.223
 2789W        W 6840   8.314   3.172  11.963
 2790W        W 6841   8.240  10.492   8.909
 2791W        W 6842   5.781   9.840  10.918
 2792W        W 6843   8.489   9.134   0.245
 2793W        W 6844   5.314   2.276   1.758
 2794W        W 6845   8.505   4.632   1.362
 2795W        W 6846   5.528   8.937   2.347
 2796W        W 6847   5.891   1.206  10.783
 2797W        W 6848   9.762   4.500  11.211
 2798W        W 6849   6.516   0.591   2.746
 2799W        W 6850   2.913   3.258   1.302
 2800W        W 6851   7.251   9.404   3.365
 2801W        W 6852   3.217   6.270  10.255
 2802W        W 6853   5.062   6.488   1.799
 2803W        W 6854   4.477   7.958   9.343
 2804W        W 6855   5.700   7.482   9.433
 2805W        W 6856   9.463   3.368   9.752
 2806W        W 6857   9.523   1.209  11.301
 2807W        W 6858   3.715   4.607   2.616
 2808W        W 6859   5.505   3.684  10.533
 2809W        W 6860  10.105   7.631  11.775
 2810W        W 6861   0.785   6.927   1.752
 2811W        W 6862   0.430   7.922   0.737
 2812W        W 6863   5.668   0.763  11.487
 2813W        W 6864  11.016   8.244  10.232
 2814W        W 6865   9.924   0.206   2.256
 2815W        W 6866   9.838  11.365   9.052
 2816W        W 6867   8.620   9.292   1.907
 2817W        W 6868   7.163   1.838   8.803
 2818W        W 6869   4.692   9.083   8.959
 2819W        W 6870  10.094   4.678   9.392
 2820W        W 6871   1.348   4.164   1.469
 2821W        W 6872   7.142   0.403   3.432
 2822W        W 6873   2.424   0.988   2.210
 2823W        W 6874   1.384  11.475   3.495
 2824W        W 6875   2.990   7.069   8.100
 2825W        W 6876   8.481   0.204   9.010
 2826W        W 6877   0.647   5.785   9.066
 2827W        W 6878   9.956   9.801   8.778
 2828W        W 6879   6.635   1.273   2.435
 2829W        W 6880   4.537   1.820   9.051
 2830W        W 6881   0.275  11.277  11.625
 2831W        W 6882   9.014   6.847   0.386
 2832W        W 6883   6.259   8.999   0.752
 2833W        W 6884  10.651   7.031   2.216
 2834W        W 6885   8.941  10.003   1.944
 2835W        W 6886   3.704   0.631  11.148
 2836W        W 6887   7.874   1.651  11.933
 2837W        W 6888   3.115   1.118   2.528
 2838W        W 6889  11.384   1.285   8.793
 2839W        W 6890  10.233   6.157   2.723
 2840W        W 6891   0.453   3.550  11.130
 2841W        W 6892   8.596  10.135   3.909
 2842W        W 6893   5.245  10.593   1.867
 2843W        W 6894   6.615  10.944  11.521
 2844W        W 6895  10.912   6.847   2.663
 2845W        W 6896   7.494  10.502  11.814
 2846W        W 6897   5.623   6.120   9.366
 2847W        W 6898   1.785   6.013   2.740
 2848W        W 6899   2.394   7.059   2.314
 2849W        W 6900   0.259   9.925  11.572
 2850W        W 6901   2.253   3.879   2.792
 2851W        W 6902  11.444   8.465   3.290
 2852W        W 6903   7.132   6.415   9.632
 2853W        W 6904  10.458  10.567  11.531
 2854W        W 6905   1.067   7.438   2.231
 2855W        W 6906   3.972   3.708   2.177
 2856W        W 6907   8.960   6.358  10.471
 2857W        W 6908   6.562   8.529  11.662
 2858W        W 6909  10.441   1.905   2.394
 2859W        W 6910   1.279   3.340  10.331
 2860W        W 6911   6.056   7.139   2.246
 2861W        W 6912   4.516   3.929   9.503
 2862W        W 6913   0.862  10.719   1.999
 2863W        W 6914   0.381   8.842   0.448
 2864W        W 6915   3.773   2.180  10.086
 2865W        W 6916   7.101   0.413   9.964
 2866W        W 6917  11.071   3.811   1.946
 2867W        W 6918   7.122   0.326  11.012
 2868W        W 6919   7.533   6.673   3.832
 2869W        W 6920   9.627   7.814   0.035
 2870W        W 6921   5.012   8.182  11.181
 2871W        W 6922   4.897   7.991   2.547
 2872W        W 6923   1.612   5.809   8.470
 2873W        W 6924   6.120   9.656   2.042
 2874W        W 6925   1.749   4.162   1.807
 2875W        W 6926   1.065   7.364   8.605
 2876W        W 6927   5.346  10.307   0.406
 2877W        W 6928   0.506   9.941   0.036
 2878W        W 6929   8.351   8.660  11.952
 2879W        W 6930   8.671   5.623   3.103
 2880W        W 6931   5.585   4.714  11.438
 2881W        W 6932   0.761   1.880   0.454
 2882W        W 6933  10.122   4.275   0.408
 2883W        W 6934   6.631   1.921   0.553
 2884W        W 6935   5.319   7.397  11.382
 2885W        W 6936   5.456   9.129   9.461
 2886W        W 6937   5.657   0.775   3.273
 2887W        W 6938  10.350   4.235   2.532
 2888W        W 6939   2.077   8.790  10.837
 2889W        W 6940   6.072   7.093   1.340
 2890W        W 6941   4.781   3.845   3.677
 2891W        W 6942   5.923   2.365   2.707
 2892W        W 6943   9.331   3.773   9.048
 2893W        W 6944   1.717   4.664   1.985
 2894W        W 6945   4.767   2.267   9.100
 2895W        W 6946   2.188   6.635   1.148
 2896W        W 6947   0.025   7.528  10.583
 2897W        W 6948   3.939   9.304   2.859
 2898W        W 6949   2.004   4.163   2.396
 2899W        W 6950   5.138   2.343   4.029
 2900W        W 6951  10.065   2.204  10.041
 2901W        W 6952   3.409  10.265   2.201
 2902W        W 6953   3.801  10.782   3.164
 2903W        W 6954   7.056   9.142  10.552
 2904W        W 6955   7.991   2.806   2.280
 2905W        W 6956   7.086   3.803  10.795
 2906W        W 6957  10.855   2.626   0.236
 2907W        W 6958   7.173   9.583  10.326
 2908W        W 6959   2.304   9.937   2.269
 2909W        W 6960   4.078   6.490   2.031
 2910W        W 6961   7.590   4.719   1.866
 2911W        W 6962   0.401   1.367   8.978
 2912W        W 6963   0.898   3.759   2.010
 2913W        W 6964  11.334   6.257   2.355
 2914W        W 6965   6.767   8.926   2.258
 2915W        W 6966   2.101   0.726  10.847
 2916W        W 6967   2.896   4.679   8.689
 2917W        W 6968  11.037  10.415   9.794
 2918W        W 6969   7.568   3.597   9.936
 2919W        W 6970   0.719   3.095  11.882
 2920W        W 6971   7.708  10.322   3.333
 2921W        W 6972   4.200   3.396   1.765
 2922W        W 6973  10.874   9.476   9.958
 2923W        W 6974   9.548   8.364   3.167
 2924W        W 6975  11.078   4.543   8.875
 2925W        W 6976   8.338   9.496   1.010
 2926W        W 6977   0.963   0.149   9.705
 2927W        W 6978   9.049   4.759   0.282
 2928W        W 6979   6.726   3.810   1.436
 2929W        W 6980   5.174   5.988   1.891
 2930W        W 6981   0.783   3.039   3.065
 2931W        W 6982  10.439   5.746   8.431
 2932W        W 6983   1.005   7.947   0.095
 2933W        W 6984   7.564   3.648  10.958
 2934W        W 6985  11.250   0.260  10.544
 2935W        W 6986   1.925   8.372   2.659
 2936W        W 6987   1.815   3.689   1.579
 2937W        W 6988   8.418   4.773   0.014
 2938W        W 6989   4.755  11.206  11.146
 2939W        W 6990   0.917   3.117   1.527
 2940W        W 6991   7.282  10.021   2.733
 2941W        W 6992   6.918   4.142  11.511
 2942W        W 6993   3.312   2.732   9.614
 2943W        W 6994   1.124   1.927  10.849
 2944W        W 6995   0.648   9.301   9.473
 2945W        W 6996   1.818   8.306   0.349
 2946W        W 6997   7.400   4.849   1.407
 2947W        W 6998   5.414   7.040  11.756
 2948W        W 6999   4.679   3.461   1.329
 2949W        W 7000   0.784   5.095  10.436
 2950W        W 7001   9.933   3.222   3.342
 2951W        W 7002   1.762   8.155   9.330
 2952W        W 7003   3.037   4.778   3.425
 2953W        W 7004   9.686   1.986   0.699
 2954W        W 7005   0.731  10.115   0.893
 2955W        W 7006   2.745   8.366   9.633
 2956W        W 7007   3.765   7.966   9.951
 2957W        W 7008   8.717   3.028   2.714
 2958W        W 7009  10.584   8.200   9.961
 2959W        W 7010   0.452   1.766   3.267
 2960W        W 7011   1.718   9.961   9.810
 2961W        W 7012   2.767   4.757   3.896
 2962W        W 7013   9.949   9.907   9.864
 2963W        W 7014   0.015   0.195   1.353
 2964W        W 7015   6.634   4.542   1.943
 2965W        W 7016   1.708   0.006  11.550
 2966W        W 7017   5.014   4.337   9.477
 2967W        W 7018   5.215   8.947   3.539
 2968W        W 7019   8.192   3.077   3.652
 2969W        W 7020   7.680   6.584   8.964
 2970W        W 7021   7.178   7.565   2.765
 2971W        W 7022  10.242  10.426   2.751
 2972W        W 7023   7.177   4.223  11.045
 2973W        W 7024   9.755   3.682   3.514
 2974W        W 7025   2.762   0.739   1.654
 2975W        W 7026   8.604   9.038   0.800
 2976W        W 7027   5.018   3.152   1.828
 2977W        W 7028   3.106   0.749   1.263
 2978W        W 7029   4.824  10.693  11.226
 2979W        W 7030   2.264   5.200   4.213
 2980W        W 7031   7.120   0.498   0.803
 2981W        W 7032   2.803   6.113  11.497
 2982W        W 7033   2.124   0.750   9.969
 2983W        W 7034   1.823   9.985   8.887
 2984W        W 7035  10.710   8.626  10.363
 2985W        W 7036   0.512   5.024   8.363
 2986W        W 7037   4.157   2.667   9.518
 2987W        W 7038   7.157   6.362   3.994
 2988W        W 7039   7.479   9.062   1.649
 2989W        W 7040   3.213   6.580  10.738
 2990W        W 7041   0.993   4.424  11.207
 2991W        W 7042   2.260   3.762  10.250
 2992W        W 7043  11.303  10.930   3.343
 2993W        W 7044   9.879  10.949   3.428
 2994W        W 7045   5.960   0.932  10.332
 2995W        W 7046   1.263   7.669   0.864
 2996W        W 7047   6.904   7.026   1.569
 2997W        W 7048  10.782   6.058  10.325
 2998W        W 7049   8.642   0.455   9.446
 2999W        W 7050   4.730   4.776  10.994
 3000W        W 7051   9.636   3.614   1.689
 3001W        W 7052   9.399   6.447   2.093
 3002W        W 7053   5.775   9.927   2.398
 3003W        W 7054   8.481   7.827  10.983
 3004W        W 7055   4.671   3.639   0.540
 3005W        W 7056   3.693   3.517  10.420
 3006W        W 7057   9.131   2.729  10.325
 3007W        W 7058   4.264   7.770   0.404
 3008W        W 7059   0.682   1.580   9.506
 3009W        W 7060  10.468   0.407   0.534
 3010W        W 7061   0.268   5.861   9.434
 3011W        W 7062   1.173   8.247   8.925
 3012W        W 7063   9.085   1.720  11.452
 3013W        W 7064   8.921   9.095   1.514
 3014W        W 7065   4.599   0.239   0.872
 3015W        W 7066   1.349   3.694   0.199
 3016W        W 7067   9.276   5.634   3.269
 3017W        W 7068   8.409   8.996   9.875
 3018W        W 7069   4.014   7.448   0.738
 3019W        W 7070   9.037   2.241   1.162
 3020W        W 7071   8.384   4.375   2.242
 3021W        W 7072   6.023  10.491   0.656
 3022W        W 7073  11.279   1.816   1.663
 3023W        W 7074   7.120   4.834   2.121
 3024W        W 7075   2.098   4.210   3.159
 3025W        W 7076   3.275  10.828  10.367
 3026W        W 7077   0.854   5.340  11.356
 3027W        W 7078   5.539   2.798  10.005
 3028W        W 7079   1.838   1.680   3.077
 3029W        W 7080   4.475   7.591   0.905
 3030W        W 7081   1.766   6.039   9.394
 3031W        W 7082   4.195   7.583  11.863
 3032W        W 7083  11.123   9.190   3.402
 3033W        W 7084   4.013   6.666  10.375
 3034W        W 7085   6.173   7.920   2.663
 3035W        W 7086   5.421   1.894   8.558
 3036W        W 7087   0.569   3.416   1.789
 3037W        W 7088   3.594   1.239   3.308
 3038W        W 7089  11.021   1.050   2.511
 3039W        W 7090   4.653   8.076   0.208
 3040W        W 7091   7.455   4.009   9.668
 3041W        W 7092   7.060   6.735   3.614
 3042W        W 7093   8.703   6.465   3.171
 3043W        W 7094   5.974   5.955   0.381
 3044W        W 7095  10.490  10.788   1.859
 3045W        W 7096   4.790   1.981  11.514
 3046W        W 7097   1.463  10.346   9.081
 3047W        W 7098   8.040   3.276   1.600
 3048W        W 7099   6.324  10.721   2.305
 3049W        W 7100   5.507   8.375   9.090
 3050W        W 7101   3.266   9.618   4.152
 3051W        W 7102   2.087   5.559   3.906
 3052W        W 7103   3.985  11.032   1.204
 3053W        W 7104   7.023   3.229   0.070
 3054W        W 7105   7.876   0.815  10.041
 3055W        W 7106  10.153  10.312   8.650
 3056W        W 7107  11.484   4.126   2.020
 3057W        W 7108  10.064   3.470   2.892
 3058W        W 7109   6.741   7.337  11.926
 3059W        W 7110   2.625   0.874   9.035
 3060W        W 7111   2.571   9.596   2.622
 3061W        W 7112   0.860   6.813   2.741
 3062W        W 7113   1.408   1.239  11.941
 3063W        W 7114  11.362   1.317  11.535
 3064W        W 7115   2.045   4.857   9.840
 3065W        W 7116   3.246   5.071   8.672
 3066W        W 7117   5.091   3.913  10.352
 3067W        W 7118   1.218   1.231   1.372
 3068W        W 7119   9.959   2.263   9.044
 3069W        W 7120   7.454   4.970   9.673
 3070W        W 7121   8.963   9.158   3.024
 3071W        W 7122   2.216   9.979   9.859
 3072W        W 7123   4.612  11.098   2.369
 3073W        W 7124   6.671   7.807   0.099
 3074W        W 7125   1.716   8.686  11.409
 3075W        W 7126   8.528  10.733   1.942
 3076W        W 7127   9.968   1.467   1.634
 3077W        W 7128   7.862   3.686   2.409
 3078W        W 7129  10.829   3.099   0.031
 3079W        W 7130   1.607   7.408   3.461
 3080W        W 7131   7.563   6.564   2.440
 3081W        W 7132   9.599   6.591   3.087
 3082W        W 7133   8.437   0.640   1.715
 3083W        W 7134   8.341   0.140  10.383
 3084W        W 7135  11.460   8.039   8.754
 3085W        W 7136   3.062   7.038   2.915
 3086W        W 7137   9.869   0.928   2.961
 3087W        W 7138   2.119   1.283  10.005
 3088W        W 7139   1.701   4.575   2.469
 3089W        W 7140   3.737  10.052   9.792
 3090W        W 7141   0.713  10.563   0.599
 3091W        W 7142   5.168  11.050   3.482
 3092W        W 7143   0.043   8.542   1.769
 3093W        W 7144   8.008   1.949   1.232
 3094W        W 7145   1.191   3.213   0.077
 3095W        W 7146   7.557  11.483   0.658
 3096W        W 7147  11.200   2.244   1.360
 3097W        W 7148   6.777   8.630  10.704
 3098W        W 7149   3.803   3.714   0.737
 3099W        W 7150   8.710   1.433   9.292
 3100W        W 7151  10.946   5.063   3.225
 3101W        W 7152   9.376   8.407  10.973
 3102W        W 7153   4.754   1.668   2.888
 3103W        W 7154   6.286   7.243   3.578
 3104W        W 7155   5.993   6.219   2.211
 3105W        W 7156   0.334   8.797   8.746
 3106W        W 7157   2.951  10.922  10.777
 3107W        W 7158   6.853   2.347   0.327
 3108W        W 7159  11.203   0.774   3.669
 3109W        W 7160   4.067   7.068  11.701
 3110W        W 7161   9.762   1.437  11.982
 3111W        W 7162   1.492   7.796   3.105
 3112W        W 7163   3.862   2.751  10.854
 3113W        W 7164   3.312   4.724   9.056
 3114W        W 7165   2.242  10.419   3.112
 3115W        W 7166   5.526   3.596   3.904
 3116W        W 7167   9.478   3.342   9.249
 3117W        W 7168   6.216  10.715   8.947
 3118W        W 7169   1.327   3.635   2.327
 3119W        W 7170   1.012   3.145   9.161
 3120W        W 7171   6.271   8.775  10.834
 3121W        W 7172   5.495   5.560  11.408
 3122W        W 7173   1.807   2.807   2.256
 3123W        W 7174   1.038   8.463   0.730
 3124W        W 7175   3.827   9.482   2.413
 3125W        W 7176   5.204   2.558  10.290
 3126W        W 7177  10.632   4.415   0.257
 3127W        W 7178   4.016   4.932   8.201
 3128W        W 7179   2.787   4.613   9.189
 3129W        W 7180   1.653   5.146  10.306
 3130W        W 7181   8.898   9.618  11.912
 3131W        W 7182   9.970   0.762  10.549
 3132W        W 7183   2.975  10.896   2.665
 3133W        W 7184   8.900  10.991  10.863
 3134W        W 7185   7.107   8.437   2.862
 3135W        W 7186   4.357   8.032   1.384
 3136W        W 7187   4.208   9.778   2.271
 3137W        W 7188   0.959   9.359   9.915
 3138W        W 7189   1.226   8.779   8.789
 3139W        W 7190   9.852   3.628   9.940
 3140W        W 7191   4.205   3.587   9.233
 3141W        W 7192   9.363  10.005  10.376
 3142W        W 7193   8.885   9.471   8.653
 3143W        W 7194   7.668   8.121   2.522
 3144W        W 7195   1.352   8.399   1.486
 3145W        W 7196   8.647   2.628  11.033
 3146W        W 7197  11.315   9.347   1.284
 3147W        W 7198  10.704   6.085   0.957
 3148W        W 7199   1.900   7.908  10.539
 3149W        W 7200   1.913   0.843   2.127
 3150W        W 7201  10.376   9.395   2.747
 3151W        W 7202   2.766  11.296   9.330
 3152W        W 7203   4.186   0.924  11.833
 3153W        W 7204  10.241   8.602   0.988
 3154W        W 7205   6.636   7.664   2.795
 3155W        W 7206   3.595   0.488   1.321
 3156W        W 7207  10.747   4.827  11.231
 3157W        W 7208   3.184   6.409   0.298
 3158W        W 7209   6.715  11.424  11.343
 3159W        W 7210   1.143   1.618   8.415
 3160W        W 7211   3.819   8.802  11.448
 3161W        W 7212  10.449   4.718   1.415
 3162W        W 7213   5.393   6.524  11.808
 3163W        W 7214   5.172   0.759  11.260
 3164W        W 7215   1.311  11.048   0.367
 3165W        W 7216   3.196   3.876   1.363
 3166W        W 7217  11.275   5.766   8.708
 3167W        W 7218  10.425   3.057   9.050
 3168W        W 7219   1.358   0.086   2.987
 3169W        W 7220   6.251   7.666   3.139
 3170W        W 7221   7.875   4.154   0.712
 3171W        W 7222   6.731   3.677   3.280
 3172W        W 7223   3.855   6.584  11.791
 3173W        W 7224  10.680   5.661  11.438
 3174W        W 7225   4.759   9.909   9.711
 3175W        W 7226   4.053   0.927   1.209
 3176W        W 7227   9.599   4.280   3.313
 3177W        W 7228   8.506   8.691  10.554
 3178W        W 7229   0.076   8.980  10.242
 3179W        W 7230   0.751   6.372   0.873
 3180W        W 7231   4.283   9.022   3.116
 3181W        W 7232   6.269   0.141   0.509
 3182W        W 7233   5.866   3.317   3.057
 3183W        W 7234   2.244   5.302   2.992
 3184W        W 7235   6.451   5.877  10.538
 3185W        W 7236  10.370   7.187   9.989
 3186W        W 7237   9.818   5.751   0.508
 3187W        W 7238   3.529   8.468   0.635
 3188W        W 7239   8.374  10.031   0.703
 3189W        W 7240   9.189   6.494   3.369
 3190W        W 7241   9.169   7.977   8.537
 3191W        W 7242   1.976   2.716   0.210
 3192W        W 7243   1.665  10.019  10.323
 3193W        W 7244   4.480  10.936   1.257
 3194W        W 7245   6.224   5.728  10.087
 3195W        W 7246  10.549   3.682  11.798
 3196W        W 7247  10.005   1.821   8.760
 3197W        W 7248   9.962   6.155   3.588
 3198W        W 7249   6.964   1.304  10.976
 3199W        W 7250   0.330   2.910   3.275
 3200W        W 7251   8.488   5.841   0.679
 3201W        W 7252   8.867   5.459   1.456
 3202W        W 7253   3.318   2.722  10.165
 3203W        W 7254   4.654   6.694   9.140
 3204W        W 7255   8.483   7.437   9.785
 3205W        W 7256   3.695  10.177   8.967
 3206W        W 7257  10.683   9.493   9.312
 3207W        W 7258  11.331   8.378   0.243
 3208W        W 7259  10.897   7.002  10.321
 3209W        W 7260   3.579   1.374  11.169
 3210W        W 7261   2.098   4.438   3.615
 3211W        W 7262   3.141  10.368  11.138
 3212W        W 7263  11.232   9.386   0.199
 3213W        W 7264   8.061   7.954   0.334
 3214W        W 7265   5.791   0.551  10.648
 3215W        W 7266   0.430   8.158   1.183
 3216W        W 7267   1.283   4.348   1.934
 3217W        W 7268   2.082   5.113   8.078
 3218W        W 7269   4.018   7.928   2.359
 3219W        W 7270   7.026  10.826   1.704
 3220W        W 7271   9.426   9.866   1.767
 3221W        W 7272   3.379   4.277   2.446
 3222W        W 7273   1.644   0.550   9.101
 3223W        W 7274   0.341   3.508   8.874
 3224W        W 7275   8.079   7.664   9.994
 3225W        W 7276   9.160   1.456  11.023
 3226W        W 7277   0.797   1.266   1.036
 3227W        W 7278   3.814  11.057   2.540
 3228W        W 7279   7.367   2.438  11.337
 3229W        W 7280   4.091   4.702   2.298
 3230W        W 7281   2.776  10.299   3.417
 3231W        W 7282  10.924   9.628   1.127
 3232W        W 7283   3.088  10.443  10.639
 3233W        W 7284   5.823   1.712   2.432
 3234W        W 7285   2.844  10.078   1.016
 3235W        W 7286   9.748   4.782   3.226
 3236W        W 7287  10.855  11.312   2.700
 3237W        W 7288   6.717   1.256  11.454
 3238W        W 7289  11.034  10.372   2.324
 3239W        W 7290   0.998  11.274  10.454
 3240W        W 7291   9.293  11.326   1.395
 3241W        W 7292   0.928   6.982  11.380
 3242W        W 7293   9.344   1.943  10.534
 3243W        W 7294   5.457   1.420  10.975
 3244W        W 7295   1.734   2.064   2.748
 3245W        W 7296   7.796  10.116   2.819
 3246W        W 7297   3.229   7.316   9.064
 3247W        W 7298   4.849   8.230   2.098
 3248W        W 7299   2.794  10.587   1.033
 3249W        W 7300   8.650   2.115   1.821
 3250W        W 7301   5.698   5.113  11.075
 3251W        W 7302   0.647   3.297   0.971
 3252W        W 7303   6.579   1.245   1.934
 3253W        W 7304   0.830   4.008   9.437
 3254W        W 7305   6.981   9.997  10.547
 3255W        W 7306  10.882   8.574   2.221
 3256W        W 7307   3.611   7.544  10.770
 3257W        W 7308   0.279   2.634   0.542
 3258W        W 7309   9.002   1.870   1.502
 3259W        W 7310   0.462   9.478   9.916
 3260W        W 7311   0.711   5.786  11.584
 3261W        W 7312   1.452   1.957   0.264
 3262W        W 7313   9.503   2.862  11.993
 3263W        W 7314   4.894   9.561   1.436
 3264W        W 7315   2.496   7.565  10.226
 3265W        W 7316   6.549   6.713  10.770
 3266W        W 7317   0.396   4.767   9.335
 3267W        W 7318   8.926  10.014  10.644
 3268W        W 7319   2.882   7.199   1.414
 3269W        W 7320   7.084   3.603   1.771
 3270W        W 7321   1.004   0.953  11.788
 3271W        W 7322   9.947   1.254  11.569
 3272W        W 7323   1.704   5.694  10.831
 3273W        W 7324   5.418  11.310  10.347
 3274W        W 7325  10.547   4.605   9.102
 3275W        W 7326   0.308   7.153  10.809
 3276W        W 7327   5.433  10.396   9.778
 3277W        W 7328   1.410   0.807  11.520
 3278W        W 7329   9.840   9.356  10.120
 3279W        W 7330   2.690   2.643   9.146
 3280W        W 7331   4.977   5.358  11.321
 3281W        W 7332   1.715   4.779  11.914
 3282W        W 7333   8.891   2.915   0.793
 3283W        W 7334   4.519   7.855   2.219
 3284W        W 7335  11.456   0.741   1.389
 3285W        W 7336   6.700   7.979  10.468
 3286W        W 7337  11.271   1.574   9.784
 3287W        W 7338   4.862   9.351   9.852
 3288W        W 7339   1.831   8.987   2.831
 3289W        W 7340   8.211   8.507   1.397
 3290W        W 7341   4.142   4.704   1.296
 3291W        W 7342   0.825   9.772   9.535
 3292W        W 7343   0.938   6.426   2.409
 3293W        W 7344  10.360   8.359   2.776
 3294W        W 7345  10.928   5.702   1.208
 3295W        W 7346  10.086   5.236   2.188
 3296W        W 7347   5.780   1.197   2.994
 3297W        W 7348   9.581   8.870  11.817
 3298W        W 7349   1.207   6.711   9.223
 3299W        W 7350   5.202   5.087   0.991
 3300W        W 7351   1.241   2.476   3.343
 3301W        W 7352   5.299   2.547   2.797
 3302W        W 7353   2.318   4.777   0.662
 3303W        W 7354   1.969  10.879  10.770
 3304W        W 7355   2.219  11.257   0.742
 3305W        W 7356   0.305   8.996   9.733
 3306W        W 7357   1.214  11.272   9.990
 3307W        W 7358  11.214   6.219   8.952
 3308W        W 7359   3.631   1.764   3.192
 3309W        W 7360   3.230   8.492   9.412
 3310W        W 7361   0.055   2.935   9.540
 3311W        W 7362   6.424   3.329   0.325
 3312W        W 7363   5.059  10.830   2.462
 3313W        W 7364   2.813   0.242   9.582
 3314W        W 7365   0.817   5.811   0.082
 3315W        W 7366   2.016   7.994  11.045
 3316W        W 7367   8.824   0.754   9.833
 3317W        W 7368   2.361   1.408   2.892
 3318W        W 7369   9.495   7.123   0.344
 3319W        W 7370   7.356   8.894   8.385
 3320W        W 7371   0.070  10.553   1.903
 3321W        W 7372   1.789  10.302  10.783
 3322W        W 7373   0.784   7.299  10.991
 3323W        W 7374   8.149   4.263   2.672
 3324W        W 7375   0.439   2.719   2.348
 3325W        W 7376   8.261   6.685  11.882
 3326W        W 7377   6.926   2.717   1.766
 3327W        W 7378   5.726   5.611  10.943
 3328W        W 7379  11.248   0.719   8.849
 3329W        W 7380   4.768   7.963   9.777
 3330W        W 7381   4.375  10.857  11.102
 3331W        W 7382   3.235   0.946   9.592
 3332W        W 7383   2.438   2.816   0.048
 3333W        W 7384  10.391   3.159   9.550
 3334W        W 7385   3.406   4.657  11.631
 3335W        W 7386   3.934   8.834  10.953
 3336W        W 7387   2.683   7.258   2.672
 3337W        W 7388   3.541   5.508   8.727
 3338W        W 7389   9.471   8.035   9.070
 3339W        W 7390   8.031   0.841  10.864
 3340W        W 7391   8.235  10.510  10.333
 3341W        W 7392   5.123  11.470   8.995
 3342W        W 7393   9.109  10.903  10.382
 3343W        W 7394  10.821   7.954  11.224
 3344W        W 7395   0.724   2.579   9.818
 3345W        W 7396   1.883  10.525   1.292
 3346W        W 7397  11.000   4.404   3.650
 3347W        W 7398  11.372   3.110   3.162
 3348W        W 7399   2.451   7.147   8.971
 3349W        W 7400   6.499   4.315   9.583
 3350W        W 7401   1.897   3.823   0.859
 3351W        W 7402   9.536   4.584   1.391
 3352W        W 7403   7.944   9.805  11.782
 3353W        W 7404   7.529   7.718   0.452
 3354W        W 7405   5.021   6.491   0.262
 3355W        W 7406   6.414   4.137   8.634
 3356W        W 7407  10.238   9.081  10.363
 3357W        W 7408  11.287   6.546   0.304
 3358W        W 7409   6.512  10.936  10.329
 3359W        W 7410   5.066  11.339  10.757
 3360W        W 7411   4.740   4.135   9.908
 3361W        W 7412   4.654   9.219   1.792
 3362W        W 7413   8.861   6.576   0.808
 3363W        W 7414   2.493   3.224  11.726
 3364W        W 7415   8.766   8.001   9.480
 3365W        W 7416   6.478   2.776   8.942
 3366W        W 7417   3.730   5.688  10.821
 3367W        W 7418   3.193   1.417   9.793
 3368W        W 7419  10.122   7.917   2.382
 3369W        W 7420   9.885   7.014   3.104
 3370W        W 7421   7.422   5.734   1.786
 3371W        W 7422   2.679  10.438  10.938
 3372W        W 7423   2.184  10.484  11.063
 3373W        W 7424   5.180  10.211  11.934
 3374W        W 7425   8.995   6.593   2.425
 3375W        W 7426   1.980   8.935   3.648
 3376W        W 7427   9.537   2.651  11.526
 3377W        W 7428  11.433  10.253  10.111
 3378W        W 7429   3.131   1.815   2.984
 3379W        W 7430   4.913   5.689  10.526
 3380W        W 7431   4.674   3.429   9.485
 3381W        W 7432   8.043   1.069  11.338
 3382W        W 7433   0.830   9.282  11.402
 3383W        W 7434   7.380   3.607   2.682
 3384W        W 7435   1.686   6.692   8.934
 3385W        W 7436   3.779   9.784  11.251
 3386W        W 7437   5.265   0.672   9.377
 3387W        W 7438   5.732   5.142   9.225
 3388W        W 7439   7.513   9.417   9.504
 3389W        W 7440   3.020  10.393   1.884
 3390W        W 7441   9.789   0.397  10.852
 3391W        W 7442   3.692   3.329   2.721
 3392W        W 7443   8.210   5.873   9.442
 3393W        W 7444   6.937   6.419  10.962
 3394W        W 7445   2.566   8.803  11.949
 3395W        W 7446   3.732   5.044   8.834
 3396W        W 7447   2.263   1.377   0.502
 3397W        W 7448  11.091   0.829   1.776
 3398W        W 7449   7.952   0.790   0.470
 3399W        W 7450   9.443   5.512   0.261
 3400W        W 7451   5.746   7.662  11.483
 3401W        W 7452   6.840   9.502   8.055
 3402W        W 7453   4.485   8.119   0.740
 3403W        W 7454   8.864   6.192   2.740
 3404W        W 7455   0.432   4.539   0.152
 3405W        W 7456   6.251  10.254   9.219
 3406W        W 7457   8.433   7.060   2.560
 3407W        W 7458   2.669   9.220  10.405
 3408W        W 7459   1.920   7.080  10.250
 3409W        W 7460   3.593   3.796   2.516
 3410W        W 7461   3.374   5.442   0.462
 3411W        W 7462   6.071   5.418   1.921
 3412W        W 7463   3.892   0.874   1.682
 3413W        W 7464   7.427   2.162   3.464
 3414W        W 7465   5.748  10.923  10.968
 3415W        W 7466  11.336   8.104   9.825
 3416W        W 7467   0.713   6.002   2.611
 3417W        W 7468   5.787   8.495   2.322
 3418W        W 7469   0.747   3.361   2.272
 3419W        W 7470   7.465   3.339  11.381
 3420W        W 7471   6.041  11.466   3.136
 3421W        W 7472   5.221   1.215  10.582
 3422W        W 7473   7.430   8.528   0.278
 3423W        W 7474   1.743  10.029   0.950
 3424W        W 7475   3.743   7.023   3.253
 3425W        W 7476  11.121   8.477   1.189
 3426W        W 7477   4.618   6.208  11.752
 3427W        W 7478   1.654   4.299   0.824
 3428W        W 7479   8.018   4.622   1.178
 3429W        W 7480   6.789   4.032   2.713
 3430W        W 7481   9.055   3.235   1.407
 3431W        W 7482  10.667   7.992  10.735
 3432W        W 7483   0.132   1.071   9.907
 3433W        W 7484   9.264  10.308   9.005
 3434W        W 7485   7.954   8.218   9.291
 3435W        W 7486   8.033   0.931   1.814
 3436W        W 7487   6.157   6.746   3.111
 3437W        W 7488   4.525   1.267   0.869
 3438W        W 7489  11.444  10.751   9.983
 3439W        W 7490  11.313   6.514   2.811
 3440W        W 7491   4.538   1.598   8.554
 3441W        W 7492   2.291   3.862   9.160
 3442W        W 7493   8.948   9.897  11.482
 3443W        W 7494   1.909   5.926   0.691
 3444W        W 7495   2.922   9.057   0.333
 3445W        W 7496   2.322   1.046   9.566
 3446W        W 7497   5.047   0.789   1.177
 3447W        W 7498   9.300   1.325   1.165
 3448W        W 7499   8.349  10.886  10.908
 3449W        W 7500   0.308   5.735   0.079
 3450W        W 7501   6.686   4.220  10.932
 3451W        W 7502   2.348  11.375   1.413
 3452W        W 7503   3.714   1.408  10.665
 3453W        W 7504   4.001   1.479   3.510
 3454W        W 7505   8.899   9.951  10.110
 3455W        W 7506   7.171   2.343   8.653
 3456W        W 7507   0.977   2.639   9.371
 3457W        W 7508   9.384   4.389   8.516
 3458W        W 7509   3.788   1.275   9.137
 3459W        W 7510   4.637   3.353   3.665
 3460W        W 7511   8.449  10.318   9.458
 3461W        W 7512   0.741   7.106   3.144
 3462W        W 7513   4.486   0.130  11.018
 3463W        W 7514   4.374   6.622   2.451
 3464W        W 7515   5.639   8.013   1.203
 3465W        W 7516   4.951   3.935   3.190
 3466W        W 7517   6.204  10.185   2.225
 3467W        W 7518   5.612   3.078   1.238
 3468W        W 7519   0.403   2.195   2.484
 3469W        W 7520  10.886   2.140   0.391
 3470W        W 7521   6.990   6.508   1.652
 3471W        W 7522   4.619   0.935  10.609
 3472W        W 7523   5.203   2.082  10.036
 3473W        W 7524   8.095   7.867  11.319
 3474W        W 7525   6.437   7.652   4.049
 3475W        W 7526   8.141   6.178  11.854
 3476W        W 7527   8.789   4.765   3.486
 3477W        W 7528   1.889   1.693   0.344
 3478W        W 7529  11.190   3.352   1.809
 3479W        W 7530  11.039  10.856   9.009
 3480W        W 7531   3.726   7.918   1.457
 3481W        W 7532   9.107   1.669   2.453
 3482W        W 7533   0.252   1.874   9.422
 3483W        W 7534   0.376  10.878  11.268
 3484W        W 7535   5.541  10.682   0.674
 3485W        W 7536   8.805   4.067   2.187
 3486W        W 7537   2.061   6.097   8.468
 3487W        W 7538   9.594   1.492   8.776
 3488W        W 7539   0.525   5.592   2.847
 3489W        W 7540   2.324  10.831   2.300
 3490W        W 7541   8.784   5.816   1.841
 3491W        W 7542  10.499   4.656   2.795
 3492W        W 7543   1.344   6.110   2.477
 3493W        W 7544  10.367   1.381   9.916
 3494W        W 7545   7.609   8.065   0.110
 3495W        W 7546   6.577   8.974  10.367
 3496W        W 7547   8.015   7.716   9.147
 3497W        W 7548  10.411   9.824   9.609
 3498W        W 7549   6.453   1.924   9.782
 3499W        W 7550   8.900   0.771   2.945
 3500W        W 7551   7.191   2.064  10.012
 3501W        W 7552   8.294   0.226   8.487
 3502W        W 7553   3.245   7.037   9.989
 3503W        W 7554   0.969   3.753  10.363
 3504W        W 7555   5.739   6.519   8.610
 3505W        W 7556   8.950   6.028   3.221
 3506W        W 7557   6.506   6.680   0.681
 3507W        W 7558   9.362   4.379   0.963
 3508W        W 7559   6.700   0.401   0.494
 3509W        W 7560   2.401   3.713   0.836
 3510W        W 7561  11.445   0.419  11.636
 3511W        W 7562   7.629   7.553   1.763
 3512W        W 7563   1.650   1.337  10.343
 3513W        W 7564  11.043   9.449  10.853
 3514W        W 7565   6.355   9.870   8.861
 3515W        W 7566   4.181  10.508   1.040
 3516W        W 7567   2.747  10.470  11.949
 3517W        W 7568   5.601   2.208   3.081
 3518W        W 7569   5.639   0.678   0.992
 3519W        W 7570   5.319   1.377   3.094
 3520W        W 7571   3.311   8.047  10.725
 3521W        W 7572   4.328   5.072  10.811
 3522W        W 7573   2.246   2.483   3.332
 3523W        W 7574   7.280   4.580   3.507
 3524W        W 7575   1.937   9.860   0.255
 3525W        W 7576   6.070   3.685   9.136
 3526W        W 7577   7.228   7.485  11.788
 3527W        W 7578   3.728   2.612   0.270
 3528W        W 7579   5.996   8.239   3.549
 3529W        W 7580   9.514   0.508   0.962
 3530W        W 7581   5.659   3.125   3.563
 3531W        W 7582   9.439   7.034  10.213
 3532W        W 7583   3.770   4.109   9.657
 3533W        W 7584   1.690   3.100   0.423
 3534W        W 7585   3.337   5.986   8.745
 3535W        W 7586  10.725   9.045   2.430
 3536W        W 7587   1.943   1.651  10.602
 3537W        W 7588  11.330  10.420   9.019
 3538W        W 7589   4.378   4.408  10.335
 3539W        W 7590   3.364   2.838  11.566
 3540W        W 7591   4.104   7.440  11.347
 3541W        W 7592   3.835   4.495  10.027
 3542W        W 7593   1.641   0.415  11.271
 3543W        W 7594   4.826  11.345   1.335
 3544W        W 7595   9.293   9.156   8.496
 3545W        W 7596   1.989   2.056   8.785
 3546W        W 7597   3.022   4.101   0.820
 3547W        W 7598   2.856   3.671   1.029
 3548W        W 7599   6.209   9.959   2.696
 3549W        W 7600   2.170  10.839   9.164
 3550W        W 7601  10.893   6.979   9.468
 3551W        W 7602   5.217   8.530   9.495
 3552W        W 7603  11.126   3.779  10.492
 3553W        W 7604  11.194   8.295  11.210
 3554W        W 7605   0.249   7.555  11.993
 3555W        W 7606   0.340   8.131  10.060
 3556W        W 7607   4.304   5.124   2.081
 3557W        W 7608   6.090   3.654  11.918
 3558W        W 7609   6.568   2.073  11.532
 3559W        W 7610   7.173   3.179   2.496
 3560W        W 7611  10.021   4.386   1.554
 3561W        W 7612  10.224   6.577   0.434
 3562W        W 7613   8.489   3.792  11.938
 3563W        W 7614   4.936   8.412   0.889
 3564W        W 7615   9.972   1.328  11.064
 3565W        W 7616   3.535   6.204  11.994
 3566W        W 7617   2.580   7.065   3.134
 3567W        W 7618   1.490   1.212   8.392
 3568W        W 7619   0.402   5.574   1.050
 3569W        W 7620   6.006   8.413   0.760
 3570W        W 7621  10.319   4.747   2.320
 3571W        W 7622   7.697   6.669   1.594
 3572W        W 7623   6.446   8.564   3.603
 3573W        W 7624   1.715   8.366   0.912
 3574W        W 7625   0.622   7.081   8.698
 3575W        W 7626   1.381   1.405   8.843
 3576W        W 7627   9.504   6.087   8.556
 3577W        W 7628  11.363   1.561   9.253
 3578W        W 7629   5.870   5.064   2.707
 3579W        W 7630   7.600  11.460   0.155
 3580W        W 7631   1.413  10.743   1.315
 3581W        W 7632   7.943   1.502   1.011
 3582W        W 7633   2.391  10.635   3.566
 3583W        W 7634   0.407   8.470   3.538
 3584W        W 7635  11.184  11.334   8.796
 3585W        W 7636   6.132   7.644   2.213
 3586W        W 7637  11.040   2.283   0.870
 3587W        W 7638   9.457  11.153   1.843
 3588W        W 7639   9.658   6.633   3.603
 3589W        W 7640   3.355   0.435   0.493
 3590W        W 7641   6.592   5.319   1.355
 3591W        W 7642  10.147   6.929   2.258
 3592W        W 7643   6.760   1.206  10.065
 3593W        W 7644   4.464   9.538   8.922
 3594W        W 7645   3.283   0.057   3.470
 3595W        W 7646   2.855   6.712   0.540
 3596W        W 7647   1.303   1.673   2.293
 3597W        W 7648   0.793   7.099   9.993
 3598W        W 7649   2.964   7.037  10.790
 3599W        W 7650   3.811   2.596  11.352
 3600W        W 7651   9.029  10.500   9.438
 3601W        W 7652   0.309   3.395   3.123
 3602W        W 7653   2.122   8.570   0.656
 3603W        W 7654   5.227   9.863   1.141
 3604W        W 7655   3.756   8.411  10.246
 3605W        W 7656   5.337  11.322   1.253
 3606W        W 7657   3.355  10.024   3.158
 3607W        W 7658   3.832   4.363  11.819
 3608W        W 7659   2.440   7.972  11.319
 3609W        W 7660   5.485   7.000   9.553
 3610W        W 7661   6.264   5.875   8.641
 3611W        W 7662  10.252   9.400   9.001
 3612W        W 7663   4.672   6.435  10.823
 3613W        W 7664   2.908   5.273  10.871
 3614W        W 7665   3.032   2.118   3.360
 3615W        W 7666  10.064   5.660   9.670
 3616W        W 7667   3.636   4.343  10.964
 3617W        W 7668   6.577   1.214   0.901
 3618W        W 7669  10.325   1.080   1.305
 3619W        W 7670   2.127   8.096   8.980
 3620W        W 7671   2.182   7.149   2.790
 3621W        W 7672   0.725   4.673   2.443
 3622W        W 7673   3.184   5.782  11.502
 3623W        W 7674   7.539   1.528   2.905
 3624W        W 7675   3.724   7.743   2.779
 3625W        W 7676   6.237   0.062  11.254
 3626W        W 7677   1.944   6.311  11.346
 3627W        W 7678   5.244   4.243   0.520
 3628W        W 7679   5.454   3.343   0.812
 3629W        W 7680   4.009   0.684   3.455
 3630W        W 7681   7.695   6.956   2.106
 3631W        W 7682   2.652   9.359   9.411
 3632W        W 7683   2.712   3.776  11.468
 3633W        W 7684   8.419   5.309   9.070
 3634W        W 7685   5.747   6.530   9.676
 3635W        W 7686   8.399   4.185   1.788
 3636W        W 7687   8.088   8.141  10.886
 3637W        W 7688   2.335   8.635   9.798
 3638W        W 7689   4.823   1.725   0.963
 3639W        W 7690   5.339   9.879   8.902
 3640W        W 7691   3.714  10.139   1.640
 3641W        W 7692   5.483  10.183   2.050
 3642W        W 7693   9.741   6.107   2.584
 3643W        W 7694   6.907   9.363   1.515
 3644W        W 7695   0.295   4.118   0.872
 3645W        W 7696  10.692   6.627  11.117
 3646W        W 7697   6.588   1.917   7.981
 3647W        W 7698   1.926   1.407   8.865
 3648W        W 7699   7.434   3.997   2.367
 3649W        W 7700   3.170  10.036  10.372
 3650W        W 7701   4.821   2.003   0.407
 3651W        W 7702  10.149   5.701   2.977
 3652W        W 7703   4.135   0.482   0.907
 3653W        W 7704   7.872   6.258   1.890
 3654W        W 7705  10.969   6.548   8.615
 3655W        W 7706   0.660   9.290   0.281
 3656W        W 7707   6.161   3.202   9.861
 3657W        W 7708   0.905   0.157   3.247
 3658W        W 7709   2.102   2.401   1.390
 3659W        W 7710  10.826   0.317  10.826
 3660W        W 7711   8.567   4.128   1.317
 3661W        W 7712  10.562   4.980   0.921
 3662W        W 7713   5.885   7.998   9.067
 3663W        W 7714   1.747   7.377   1.890
 3664W        W 7715   1.160   3.321   1.928
 3665W        W 7716   3.574   1.390   2.396
 3666W        W 7717   8.189   2.223  10.135
 3667W        W 7718   4.593   4.837   1.508
 3668W        W 7719   0.285  10.558  10.366
 3669W        W 7720   1.053   3.270   2.675
 3670W        W 7721   9.906   7.686  11.289
 3671W        W 7722   8.630  10.393   3.151
 3672W        W 7723   6.510   4.835  11.485
 3673W        W 7724   8.136   3.589   3.321
 3674W        W 7725  10.604   2.734   3.455
 3675W        W 7726   5.550   6.163   0.148
 3676W        W 7727   1.908   6.188  10.248
 3677W        W 7728   7.329  11.027   0.852
 3678W        W 7729   1.896   9.812  10.816
 3679W        W 7730   5.176   8.864  11.238
 3680W        W 7731   3.886   9.931  11.739
 3681W        W 7732   7.016   4.354   3.916
 3682W        W 7733   2.564   1.687  10.885
 3683W        W 7734   6.867  11.330  10.433
 3684W        W 7735  11.246  10.334   1.142
 3685W        W 7736   5.486   4.050  11.233
 3686W        W 7737   7.126   9.662   9.304
 3687W        W 7738   4.366   4.319   2.142
 3688W        W 7739  10.255   5.296   2.674
 3689W        W 7740   2.258   0.722  11.715
 3690W        W 7741   8.084   9.637  10.444
 3691W        W 7742   1.773   2.286   3.229
 3692W        W 7743   6.025   3.233   1.675
 3693W        W 7744  10.873   1.734   9.265
 3694W        W 7745   2.250   6.165   1.462
 3695W        W 7746   0.190  11.359   0.997
 3696W        W 7747   9.585   5.372   0.759
 3697W        W 7748   4.225   1.889  11.215
 3698W        W 7749  10.097   3.851   1.621
 3699W        W 7750   3.175  10.452   1.364
 3700W        W 7751   4.898   8.623   9.099
 3701W        W 7752   8.728   8.294   3.490
 3702W        W 7753   3.048   3.100  10.444
 3703W        W 7754   5.359  11.150   0.314
 3704W        W 7755   8.431   6.726  11.334
 3705W        W 7756   6.730   7.144   0.799
 3706W        W 7757   6.091   1.606   9.948
 3707W        W 7758  10.118   8.477   1.471
 3708W        W 7759   7.972   0.994   9.543
 3709W        W 7760   1.150   1.481  10.319
 3710W        W 7761   5.936   9.388   1.638
 3711W        W 7762  11.405  11.499  11.353
 3712W        W 7763   1.167   4.256   2.682
 3713W        W 7764   3.132   1.301   0.535
 3714W        W 7765   9.463   3.890   0.892
 3715W        W 7766   3.119   8.490   1.957
 3716W        W 7767   3.756   4.701   3.121
 3717W        W 7768   6.196   0.805  10.822
 3718W        W 7769   4.410   1.823   2.128
 3719W        W 7770   1.332   6.580   2.695
 3720W        W 7771  11.000  10.777   2.016
 3721W        W 7772   3.027   4.640  11.986
 3722W        W 7773   6.469   9.569  10.970
 3723W        W 7774   4.072   8.661   9.905
 3724W        W 7775  10.283   3.233  11.869
 3725W        W 7776  10.125  11.480  11.833
 3726W        W 7777   4.192   8.302   0.369
 3727W        W 7778   9.932   2.196   0.310
 3728W        W 7779   1.167   4.054   9.834
 3729W        W 7780   9.460   6.764  11.252
 3730W        W 7781   1.275   7.114   1.867
 3731W        W 7782   2.901   2.334   9.489
 3732W        W 7783   3.013   0.573   9.917
 3733W        W 7784   4.256   7.236  10.873
 3734W        W 7785   0.809  11.048   2.959
 3735W        W 7786   5.498   6.584   2.682
 3736W        W 7787   6.071   4.647  11.724
 3737W        W 7788   7.175   3.684   0.288
 3738W        W 7789  10.200   6.686   9.974
 3739W        W 7790   9.026   9.576   2.720
 3740W        W 7791   0.308   2.456   1.945
 3741W        W 7792   3.761  10.002   2.529
 3742W        W 7793   0.011   5.269   9.406
 3743W        W 7794  11.473   5.293   1.005
 3744W        W 7795   4.970   5.202  10.315
 3745W        W 7796   7.125   2.897  10.315
 3746W        W 7797   9.788   0.516   2.637
 3747W        W 7798   3.517   1.329  11.692
 3748W        W 7799  11.035   8.590  11.860
 3749W        W 7800   4.159   2.342   1.282
 3750W        W 7801   9.945   6.579   9.537
 3751W        W 7802   0.287   1.270   3.315
 3752W        W 7803   4.121   3.087   0.751
 3753W        W 7804   9.948   6.687  11.987
 3754W        W 7805   1.681   1.458   1.305
 3755W        W 7806  10.708   4.038   1.622
 3756W        W 7807   0.345   7.504   1.018
 3757W        W 7808  11.460   0.451   1.813
 3758W        W 7809   0.187   3.050   0.913
 3759W        W 7810   3.719  11.134   1.658
 3760W        W 7811   2.031   6.874   0.311
 3761W        W 7812  11.426   3.890   9.506
 3762W        W 7813  10.274   6.099  10.353
 3763W        W 7814   1.449   7.820   1.401
 3764W        W 7815  11.097   1.702  11.308
 3765W        W 7816   2.260   8.127   1.681
 3766W        W 7817   3.703   7.434   2.383
 3767W        W 7818   8.015  10.256   1.038
 3768W        W 7819   1.359   5.596   2.259
 3769W        W 7820   7.354   8.568   0.903
 3770W        W 7821   5.256   9.045   2.782
 3771W        W 7822   6.036   3.104   8.132
 3772W        W 7823   6.761   3.665  10.428
 3773W        W 7824   5.984   4.219   8.955
 3774W        W 7825   9.485   1.890  11.905
 3775W        W 7826   6.437   8.108   3.820
 3776W        W 7827   9.149   3.339   0.922
 3777W        W 7828   4.229   9.281   2.165
 3778W        W 7829   4.778  10.886  10.760
 3779W        W 7830   0.843   4.621   1.461
 3780W        W 7831   4.279   2.310  11.505
 3781W        W 7832  10.042   6.393   8.536
 3782W        W 7833   1.024   7.505  11.393
 3783W        W 7834  10.134   9.740   2.185
 3784W        W 7835   6.756   6.420   1.218
 3785W        W 7836   6.146   6.535  11.187
 3786W        W 7837   2.433   9.368   1.186
 3787W        W 7838   5.533   9.405  10.794
 3788W        W 7839   1.833   0.823   9.537
 3789W        W 7840   5.711   8.849  10.824
 3790W        W 7841   6.174   0.951   9.113
 3791W        W 7842   6.999   9.577  10.834
 3792W        W 7843   5.640   1.823  10.567
 3793W        W 7844   1.801   3.571   9.929
 3794W        W 7845   4.745   1.132   1.681
 3795W        W 7846   7.439  10.224   8.525
 3796W        W 7847   4.694   7.103   1.041
 3797W        W 7848   6.539   2.867   9.913
 3798W        W 7849   9.955   6.663  11.322
 3799W        W 7850  10.812   4.663   2.304
 3800W        W 7851   5.489   4.610   1.426
 3801W        W 7852   0.187   6.028   8.941
 3802W        W 7853   7.533  10.814   9.340
 3803W        W 7854   7.976   9.520   2.343
 3804W        W 7855   2.243  11.038   3.272
 3805W        W 7856   3.655   4.157   0.240
 3806W        W 7857   0.371   8.846  10.637
 3807W        W 7858   8.606   2.721   0.029
 3808W        W 7859   9.818   6.602   1.362
 3809W        W 7860   5.133   0.174   9.508
 3810W        W 7861  11.472   8.176   1.405
 3811W        W 7862  10.005   7.088   1.394
 3812W        W 7863   7.726   5.892  10.640
 3813W        W 7864   6.287   3.578   8.226
 3814W        W 7865   5.093   6.753   3.012
 3815W        W 7866   0.625   1.302   1.500
 3816W        W 7867   4.187  10.472   2.889
 3817W        W 7868  10.929   7.724   0.104
 3818W        W 7869   1.857   1.484  11.886
 3819W        W 7870   7.224   1.209  10.497
 3820W        W 7871  10.052   8.402   3.247
 3821W        W 7872   7.968  11.497   9.536
 3822W        W 7873  10.311   8.479  11.093
 3823W        W 7874   2.402   8.933   0.434
 3824W        W 7875   1.214   4.618   3.505
 3825W        W 7876   5.472   0.834  10.370
 3826W        W 7877   1.962  10.280   0.554
 3827W        W 7878   9.260   7.144   0.809
 3828W        W 7879   2.387   1.961   1.330
 3829W        W 7880   2.716  10.618   1.548
 3830W        W 7881   2.311   7.632   9.033
 3831W        W 7882   4.839   9.027   0.391
 3832W        W 7883   1.670   3.155  10.621
 3833W        W 7884   6.026   9.258  10.905
 3834W        W 7885   8.387   2.944   1.787
 3835W        W 7886   3.449   3.389   2.245
 3836W        W 7887   0.887   0.489  11.914
 3837W        W 7888  10.760   4.528   3.218
 3838W        W 7889   1.757   7.897   1.837
 3839W        W 7890   4.633   9.815   1.777
 3840W        W 7891  11.134   5.104   0.038
 3841W        W 7892   1.640   1.779   9.078
 3842W        W 7893   5.028   2.501   9.833
 3843W        W 7894  10.464   0.926   8.683
 3844W        W 7895   2.696   1.401   2.351
 3845W        W 7896   4.750   3.269  11.755
 3846W        W 7897   5.115   8.168  10.662
 3847W        W 7898   7.730   4.293   0.256
 3848W        W 7899   8.982   8.378   0.374
 3849W        W 7900   9.596   0.296   9.854
 3850W        W 7901   4.236   7.316   1.729
 3851W        W 7902   8.731   8.530   9.055
 3852W        W 7903   3.847   7.078  10.629
 3853W        W 7904   5.100   6.028   0.493
 3854W        W 7905   6.767   8.045   9.922
 3855W        W 7906   9.702   7.657   1.814
 3856W        W 7907   6.533   1.934   3.239
 3857W        W 7908  11.053   9.396   2.595
 3858W        W 7909   2.387   1.464  10.414
 3859W        W 7910   0.904   1.399   0.567
 3860W        W 7911   4.189   0.004   3.118
 3861W        W 7912   0.089   8.917   3.548
 3862W        W 7913   0.472   6.478   2.623
 3863W        W 7914   5.668   1.365  10.344
 3864W        W 7915   3.159   3.722   3.279
 3865W        W 7916   7.127   3.570   9.582
 3866W        W 7917   8.649   1.842   2.313
 3867W        W 7918   1.779   2.583   2.753
 3868W        W 7919   3.228   0.983   1.707
 3869W        W 7920   2.573   2.714   2.912
 3870W        W 7921  10.354   6.994   1.781
 3871W        W 7922  10.017   4.341   2.151
 3872W        W 7923   0.952   5.963   2.171
 3873W        W 7924   0.840   1.048   9.513
 3874W        W 7925   5.633   5.099   1.266
 3875W        W 7926   6.823   2.407   1.389
 3876W        W 7927   7.051   6.688  10.534
 3877W        W 7928   0.082   7.201   2.148
 3878W        W 7929   2.648   9.651   0.785
 3879W        W 7930   4.219   5.217   0.044
 3880W        W 7931  11.057   2.831  11.269
 3881W        W 7932   1.206   5.643  11.591
 3882W        W 7933   5.135   7.732  11.033
 3883W        W 7934   4.408   2.088   1.672
 3884W        W 7935   5.711   8.560   2.829
 3885W        W 7936   9.419   5.659  10.834
 3886W        W 7937   4.100   7.083   9.758
 3887W        W 7938  11.329   3.339   8.645
 3888W        W 7939   8.681   2.820  10.538
 3889W        W 7940   8.441   8.517   8.603
 3890W        W 7941   4.917   2.491   0.209
 3891W        W 7942   3.948   7.965   9.426
 3892W        W 7943   3.226   2.880   2.216
 3893W        W 7944  10.803  10.165  10.530
 3894W        W 7945   2.884  10.026   9.185
 3895W        W 7946   1.214   6.614   3.212
 3896W        W 7947   7.682   0.249   3.396
 3897W        W 7948   3.382   6.648  11.218
 3898W        W 7949  10.935   1.785   3.197
 3899W        W 7950   4.071   1.311   2.349
 3900W        W 7951   6.682   2.167   8.425
 3901W        W 7952   3.790   7.233   1.492
 3902W        W 7953   1.124   6.983   1.369
 3903W        W 7954   3.714  11.471  10.515
 3904W        W 7955   2.215   4.625  10.290
 3905W        W 7956   3.861   1.362   1.431
 3906W        W 7957   7.870   8.576   0.902
 3907W        W 7958   5.426   1.143   1.155
 3908W        W 7959   0.033   3.640   1.552
 3909W        W 7960   0.502   5.376   9.376
 3910W        W 7961   5.225  10.949  11.059
 3911W        W 7962   7.033   9.482  11.725
 3912W        W 7963   1.828   0.289   2.193
 3913W        W 7964  11.282   2.552   9.296
 3914W        W 7965   0.809   1.773   0.976
 3915W        W 7966   7.099   2.133  11.875
 3916W        W 7967   5.310   5.142   0.477
 3917W        W 7968   1.816   3.877  10.983
 3918W        W 7969   0.270   1.298   9.467
 3919W        W 7970   5.867   9.636   1.182
 3920W        W 7971   5.045   3.058   2.700
 3921W        W 7972   1.225   2.299  11.188
 3922W        W 7973   7.971   4.661   0.674
 3923W        W 7974   9.641   2.373  11.932
 3924W        W 7975  11.397   6.604   3.521
 3925W        W 7976   2.766   0.745   9.500
 3926W        W 7977  10.909   3.588   8.849
 3927W        W 7978   8.578   3.859   3.191
 3928W        W 7979   5.270   2.753   0.485
 3929W        W 7980   2.172   1.309  11.525
 3930W        W 7981   2.432   8.359   2.563
 3931W        W 7982   0.265   0.777  11.490
 3932W        W 7983  11.076   1.621  10.804
 3933W        W 7984   1.480   1.855  10.461
 3934W        W 7985   2.907   6.921   9.050
 3935W        W 7986   3.081   8.297   2.427
 3936W        W 7987  10.623   7.870   3.469
 3937W        W 7988   3.488  10.574   1.772
 3938W        W 7989   2.408   9.862   1.203
 3939W        W 7990   0.761   1.168  10.805
 3940W        W 7991  11.218  10.589  11.937
 3941W        W 7992  11.253   7.869  11.490
 3942W        W 7993   5.307  10.013   2.662
 3943W        W 7994   6.117   4.765   0.737
 3944W        W 7995  11.470   4.901   1.316
 3945W        W 7996   6.514   0.829   8.749
 3946W        W 7997   3.573   6.147   0.492
 3947W        W 7998   8.476   4.012   9.975
 3948W        W 7999   2.859   9.107   1.212
 3949W        W 8000   9.931   2.831   8.375
 3950W        W 8001   8.409   4.288  11.816
 3951W        W 8002   8.917   2.623   2.176
 3952W        W 8003   7.600   0.741  11.126
 3953W        W 8004   8.235   6.446  10.079
 3954W        W 8005   9.158   1.277   9.013
 3955W        W 8006   8.314   6.973  10.777
 3956W        W 8007   9.089   6.932   8.101
 3957W        W 8008   2.818   0.422   3.563
 3958W        W 8009   9.536   6.258   9.068
 3959W        W 8010  10.312   9.428   1.387
 3960W        W 8011   8.956   8.084   8.992
 3961W        W 8012   4.995   4.700   1.233
 3962W        W 8013   2.819   5.923  10.180
 3963W        W 8014   6.264   4.289   0.484
 3964W        W 8015   5.601   3.884   9.074
 3965W        W 8016   3.649   2.517   2.074
 3966W        W 8017   2.596   9.504   3.137
 3967W        W 8018   0.530   9.845  11.067
 3968W        W 8019   7.853   2.424  10.496
 3969W        W 8020   4.194   9.978   8.867
 3970W        W 8021   2.684   0.575  10.332
 3971W        W 8022   3.457  10.139  11.478
 3972W        W 8023   9.476   1.626   0.351
 3973W        W 8024   7.754   1.320   9.865
 3974W        W 8025   3.611  10.301  10.964
 3975W        W 8026   7.725  11.082  10.657
 3976W        W 8027   4.185   3.468   0.400
 3977W        W 8028   7.527  10.351   9.572
 3978W        W 8029   1.615  10.496  11.690
 3979W        W 8030   7.615   6.131   3.802
 3980W        W 8031   9.888   2.756   2.289
 3981W        W 8032   6.672   9.934   1.349
 3982W        W 8033   6.671   3.351   9.786
 3983W        W 8034  11.319   9.002   9.565
 3984W        W 8035   2.817  10.076   1.522
 3985W        W 8036   7.210   8.470   2.371
 3986W        W 8037   9.171   5.491  10.088
 3987W        W 8038  10.703   2.349   1.268
 3988W        W 8039   5.632   4.865  11.931
 3989W        W 8040   6.115   2.323   3.205
 3990W        W 8041   0.632   5.868   9.957
 3991W        W 8042   4.640   6.844   0.201
 3992W        W 8043   2.215   3.913   1.840
 3993W        W 8044   4.523  10.788   8.810
 3994W        W 8045   0.982   6.644  10.380
 3995W        W 8046   9.247   9.013  10.343
 3996W        W 8047   0.427   0.057   0.583
 3997W        W 8048   8.574   7.960   2.246
 3998W        W 8049   1.451   9.348  10.069
 3999W        W 8050   4.328  10.393   0.538
 4000W        W 8051   4.556   0.859   1.272
 4001W        W 8052   0.311   0.685   8.698
 4002W        W 8053   7.616   9.030   1.120
 4003W        W 8054   5.400   0.410   3.012
 4004W        W 8055   0.043   5.270   2.310
 4005W        W 8056   0.830   6.261  10.902
 4006W        W 8057   9.696   9.602   0.227
 4007W        W 8058   5.247  11.404  11.280
 4008W        W 8059   0.817   4.625   1.959
 4009W        W 8060   7.648   7.560  10.418
 4010W        W 8061   8.147   0.455   3.493
 4011W        W 8062   4.456   7.123   9.354
 4012W        W 8063   4.185  10.077   1.860
 4013W        W 8064   3.100   3.624  10.055
 4014W        W 8065   9.541   0.701   3.534
 4015W        W 8066   3.361  10.987  11.687
 4016W        W 8067   1.038   5.128   0.305
 4017W        W 8068   7.853   2.415  11.491
 4018W        W 8069  10.865   4.998   0.475
 4019W        W 8070   5.017   0.442   2.180
 4020W        W 8071   6.316  11.255   1.143
 4021W        W 8072   1.915  10.865   9.702
 4022W        W 8073   3.751   4.992   1.750
 4023W        W 8074   8.816  10.617   3.558
 4024W        W 8075   6.038  10.011   0.853
 4025W        W 8076   3.548  10.651  11.345
 4026W        W 8077   5.030   3.427  10.563
 4027W        W 8078  10.872   7.721   3.034
 4028W        W 8079   3.113   7.403   0.362
 4029W        W 8080   9.586   4.929   4.364
 4030W        W 8081   4.805   7.974  10.282
 4031W        W 8082   3.318   2.699   3.242
 4032W        W 8083   0.559   0.855   1.714
 4033W        W 8084   7.478   9.859   3.190
 4034W        W 8085   2.886   4.511  10.385
 4035W        W 8086   5.118   8.982   2.041
 4036W        W 8087   5.216   3.211   8.761
 4037W        W 8088  10.304   6.966   9.534
 4038W        W 8089   9.122   3.694   9.500
 4039W        W 8090   8.806   1.301   1.289
 4040W        W 8091   2.793   1.271   9.496
 4041W        W 8092   2.107   2.884   3.034
 4042W        W 8093   5.816  10.601  10.499
 4043W        W 8094   3.746   2.629   9.838
 4044W        W 8095  10.866   3.284   9.952
 4045W        W 8096  11.086   5.083   2.419
 4046W        W 8097   8.045   0.995   3.451
 4047W        W 8098  11.014   3.119  10.424
 4048W        W 8099  11.386   2.324   0.407
 4049W        W 8100   3.331   9.350  11.062
 4050W        W 8101   5.142   1.589   9.245
 4051W        W 8102   9.562   7.539  10.320
 4052W        W 8103   4.212   2.842  11.541
 4053W        W 8104   6.589   0.436   1.372
 4054W        W 8105   0.119   8.556   1.073
 4055W        W 8106   0.054   2.356  10.384
 4056W        W 8107   0.521   3.863   3.341
 4057W        W 8108   2.623   6.176   3.323
 4058W        W 8109   2.858   2.030   1.171
 4059W        W 8110   2.855   3.352   3.503
 4060W        W 8111   8.850   0.376   1.858
 4061W        W 8112   0.529   9.345   3.488
 4062W        W 8113   8.937   5.131   2.266
 4063W        W 8114   6.157   3.087   3.733
 4064W        W 8115  11.269   5.627   9.706
 4065W        W 8116   9.158   8.088  11.935
 4066W        W 8117   7.653  11.254  11.133
 4067W        W 8118   1.802   2.465  10.882
 4068W        W 8119   2.313   0.057   3.276
 4069W        W 8120   3.305   9.646  11.475
 4070W        W 8121   6.659   7.020   0.311
 4071W        W 8122   1.300   7.646   1.841
 4072W        W 8123   9.470   8.675   8.532
 4073W        W 8124  10.035   4.859   2.786
 4074W        W 8125  10.144  11.429   0.652
 4075W        W 8126   9.646   4.066   1.342
 4076W        W 8127   4.606   2.107   8.629
 4077W        W 8128   6.699   0.408   3.187
 4078W        W 8129   9.690   1.487   0.810
 4079W        W 8130   4.636  11.490   9.536
 4080W        W 8131   6.032   1.302   2.177
 4081W        W 8132   9.839   7.508  10.777
 4082W        W 8133   7.929   5.004  11.537
 4083W        W 8134   7.910   9.472   0.191
 4084W        W 8135   5.631   5.698   1.903
 4085W        W 8136   8.227   2.276   0.905
 4086W        W 8137   2.930   9.808   3.379
 4087W        W 8138   6.756   8.967   0.837
 4088W        W 8139   6.433   9.877   3.161
 4089W        W 8140   5.438   5.898   1.469
 4090W        W 8141   8.493   8.227   0.202
 4091W        W 8142   6.393   2.266   1.870
 4092W        W 8143   0.760   3.292   0.398
 4093W        W 8144   9.548   8.945   8.971
 4094W        W 8145   8.300   3.022   9.925
 4095W        W 8146  11.049   2.914   9.613
 4096W        W 8147   4.660   2.979  11.350
 4097W        W 8148   6.595  11.338  11.840
 4098W        W 8149  10.203   2.307   8.596
 4099W        W 8150  10.420   0.372  11.681
 4100W        W 8151   0.752   4.334  10.002
 4101W        W 8152  11.282   4.846   0.807
 4102W        W 8153   8.451   2.044   2.792
 4103W        W 8154   5.521   9.749   3.259
 4104W        W 8155  10.531  10.888   1.364
 4105W        W 8156   8.994   8.672  10.740
 4106W        W 8157  11.367   8.740  11.376
 4107W        W 8158   7.065  10.086   9.575
 4108W        W 8159   0.157   0.742   3.407
 4109W        W 8160   4.964   1.869   8.289
 4110W        W 8161   7.862   1.156   2.222
 4111W        W 8162   8.036  11.294  11.905
 4112W        W 8163   6.435   6.431   9.042
 4113W        W 8164  10.586   9.565   3.215
 4114W        W 8165  11.022   4.693   2.796
 4115W        W 8166   0.012   9.815   2.250
 4116W        W 8167   8.986   2.184   9.552
 4117W        W 8168   4.582  10.996   0.403
 4118W        W 8169   7.109   2.314   2.485
 4119W        W 8170   5.746   1.255  11.353
 4120W        W 8171  10.453   0.809   3.656
 4121W        W 8172   0.002   6.172   3.175
 4122W        W 8173   5.252   5.491   1.271
 4123W        W 8174   2.665   6.959   1.838
 4124W        W 8175   5.093   7.607  10.042
 4125W        W 8176  10.869   5.463   8.588
 4126W        W 8177   0.803   5.620  10.443
 4127W        W 8178   5.566   9.568   2.765
 4128W        W 8179   3.100   8.466  10.928
 4129W        W 8180   5.559  10.206   0.900
 4130W        W 8181   1.386   1.899   1.203
 4131W        W 8182   4.148   7.556   1.300
 4132W        W 8183   3.819   0.011   1.282
 4133W        W 8184   6.141   0.835   3.024
 4134W        W 8185  11.156  10.522   1.605
 4135W        W 8186   0.902   0.498   3.665
 4136W        W 8187   9.997   3.292   0.326
 4137W        W 8188   4.275   9.087  11.236
 4138W        W 8189  11.127   3.922   0.121
 4139W        W 8190   3.805   3.123   0.302
 4140W        W 8191   0.128   3.121   1.793
 4141W        W 8192   6.490   7.355   2.402
 4142W        W 8193   4.773   6.968   3.351
 4143W        W 8194   4.518  10.309  10.333
 4144W        W 8195   9.581   2.464  10.172
 4145W        W 8196   0.756   8.746   3.260
 4146W        W 8197   9.460   6.232   1.478
 4147W        W 8198   6.985   1.760   9.297
 4148W        W 8199  11.239   3.056  11.681
 4149W        W 8200   8.110   8.122   0.822
 4150W        W 8201   6.578   1.598   2.859
 4151W        W 8202   9.054   2.248   9.046
 4152W        W 8203   8.762   4.612  11.325
 4153W        W 8204   2.311   1.803  10.050
 4154W        W 8205   1.924   5.341   9.902
 4155W        W 8206   1.073   2.324   0.234
 4156W        W 8207  11.206   6.909   9.873
 4157W        W 8208   2.110  10.927  11.304
 4158W        W 8209   7.930   4.054   1.693
 4159W        W 8210   0.935   8.447   2.801
 4160W        W 8211   8.600   1.890  11.491
 4161W        W 8212   6.945   4.672  10.237
 4162W        W 8213   7.039   1.296   9.504
 4163W        W 8214  11.246   1.337   1.897
 4164W        W 8215   4.343   5.612   1.880
 4165W        W 8216   9.119   8.518   1.789
 4166W        W 8217   5.112   9.568   2.978
 4167W        W 8218   6.029   2.883   3.259
 4168W        W 8219   2.191   7.473   0.501
 4169W        W 8220   8.293   2.694   2.722
 4170W        W 8221   9.062  11.233   2.713
 4171W        W 8222   2.551   9.016   8.550
 4172W        W 8223   4.919   2.932  10.522
 4173W        W 8224   8.858   9.532   9.795
 4174W        W 8225   5.227   7.501   9.578
 4175W        W 8226   9.231   6.090  11.767
 4176W        W 8227   8.005   8.711  10.023
 4177W        W 8228   5.503   8.063   0.250
 4178W        W 8229   9.527   1.530   9.815
 4179W        W 8230   6.099   3.811   1.006
 4180W        W 8231   1.147   7.444   3.162
 4181W        W 8232   3.781   9.001   3.241
 4182W        W 8233   4.863   1.003   0.390
 4183W        W 8234   2.462   7.991   9.379
 4184W        W 8235   2.182   8.430   1.145
 4185W        W 8236   2.045   4.257   9.369
 4186W        W 8237   4.679   5.275   0.254
 4187W        W 8238   1.466   8.631   2.818
 4188W        W 8239   4.396   9.453   2.638
 4189W        W 8240  11.307   7.784  10.989
 4190W        W 8241   6.102   5.904   1.818
 4191W        W 8242   0.354   8.040  11.765
 4192W        W 8243  10.884   8.127  11.722
 4193W        W 8244  10.827   1.488  10.111
 4194W        W 8245   8.410   9.398   9.573
 4195W        W 8246  11.427   4.382   0.641
 4196W        W 8247   5.909   4.651   9.223
 4197W        W 8248  10.477   5.090   1.791
 4198W        W 8249   5.205   3.960   0.931
 4199W        W 8250   4.684   6.957  10.876
 4200W        W 8251   1.182  10.701   3.575
 4201W        W 8252   5.406  10.349  10.282
 4202W        W 8253   7.687   2.714   9.506
 4203W        W 8254   6.651   0.924   0.469
 4204W        W 8255   8.134   8.685   1.979
 4205W        W 8256   0.783   1.072  11.316
 4206W        W 8257   1.566   0.858   0.570
 4207W        W 8258   8.553   5.580  11.410
 4208W        W 8259   4.545   7.530  10.558
 4209W        W 8260   1.501   3.058   9.032
 4210W        W 8261   2.551   8.617  11.006
 4211W        W 8262   6.343   2.336   0.362
 4212W        W 8263   9.277   4.194   9.367
 4213W        W 8264  11.234   5.367   1.454
 4214W        W 8265   4.353   6.670   9.978
 4215W        W 8266   9.643   1.020   1.705
 4216W        W 8267   9.131   8.068   0.800
 4217W        W 8268  10.452  10.321  11.034
 4218W        W 8269   9.821   9.562  11.649
 4219W        W 8270  10.469   8.492   9.032
 4220W        W 8271   3.022  10.957   1.320
 4221W        W 8272   0.726   3.835   9.909
 4222W        W 8273  10.200   7.659   1.118
 4223W        W 8274   9.113   1.734   8.756
 4224W        W 8275   9.496   8.434   2.153
 4225W        W 8276   7.407   7.577  10.869
 4226W        W 8277   0.870   9.544   2.142
 4227W        W 8278   1.962   9.577   1.191
 4228W        W 8279   4.175   6.248   9.749
 4229W        W 8280   0.525   2.611   1.507
 4230W        W 8281   5.907   5.732   2.314
 4231W        W 8282   5.064   0.485   8.942
 4232W        W 8283   7.730  10.571   0.253
 4233W        W 8284   7.678   9.021   2.572
 4234W        W 8285   7.427   2.775   0.895
 4235W        W 8286   8.236   1.319  11.756
 4236W        W 8287   2.335   8.484   9.303
 4237W        W 8288   7.980  11.324   2.504
 4238W        W 8289   4.245   7.005   1.240
 4239W        W 8290   8.539   0.183   1.484
 4240W        W 8291   9.290   4.487  11.419
 4241W        W 8292  11.322   1.237  11.016
 4242W        W 8293   3.684   1.341   9.638
 4243W        W 8294   9.114   5.734   8.698
 4244W        W 8295   9.996  10.567  11.300
 4245W        W 8296   2.285   7.254  11.543
 4246W        W 8297   4.842   2.122   1.923
 4247W        W 8298   5.240   1.197  10.070
 4248W        W 8299  11.416  10.432   3.286
 4249W        W 8300   1.760   8.413   1.822
 4250W        W 8301   6.034   3.722   3.833
 4251W        W 8302   4.124   4.759   8.671
 4252W        W 8303   8.127   9.428   1.817
 4253W        W 8304   5.858   8.966   0.017
 4254W        W 8305  11.157   4.278  10.267
 4255W        W 8306   4.050   1.486   0.946
 4256W        W 8307  11.398   7.663   1.196
 4257W        W 8308   5.263   8.445  11.530
 4258W        W 8309   4.727   4.321  11.814
 4259W        W 8310   9.985   1.668   0.362
 4260W        W 8311   8.404  10.334   1.390
 4261W        W 8312  10.525  10.818   8.938
 4262W        W 8313   0.486   9.575   2.993
 4263W        W 8314   7.392   4.093   9.152
 4264W        W 8315   1.719   5.981   3.255
 4265W        W 8316   4.304   0.258   0.432
 4266W        W 8317   6.192   7.490  11.276
 4267W        W 8318   7.164   9.142  10.054
 4268W        W 8319   2.912   0.954   2.106
 4269W        W 8320   9.397   8.936   3.539
 4270W        W 8321   2.233   2.832   2.546
 4271W        W 8322  11.226   0.041   0.894
 4272W        W 8323   6.603   3.641   1.911
 4273W        W 8324   6.152   2.498   0.837
 4274W        W 8325   2.009  10.738   0.834
 4275W        W 8326   7.972   4.037  11.904
 4276W        W 8327   7.443  10.918   9.869
 4277W        W 8328  10.972   1.241   9.121
 4278W        W 8329  10.721   6.541   1.778
 4279W        W 8330  10.369   6.036   9.519
 4280W        W 8331   8.353   2.359  11.454
 4281W        W 8332   8.441   1.528   2.702
 4282W        W 8333   3.109   2.121   2.596
 4283W        W 8334   7.586   2.545   3.173
 4284W        W 8335   7.914  10.413   8.518
 4285W        W 8336   4.954   8.983   9.493
 4286W        W 8337   5.050   8.833  11.841
 4287W        W 8338   2.700   2.206   2.987
 4288W        W 8339   6.486   5.910  11.927
 4289W        W 8340   7.572   6.882   0.818
 4290W        W 8341   5.337   0.351  11.515
 4291W        W 8342   9.175   2.811   2.809
 4292W        W 8343   1.754  11.253   2.982
 4293W        W 8344   4.229   9.536  11.986
 4294W        W 8345   9.002   4.106  11.170
 4295W        W 8346   1.805   9.165   2.346
 4296W        W 8347   6.880   9.424   2.434
 4297W        W 8348   8.367   1.586   1.369
 4298W        W 8349   7.003   6.947  11.018
 4299W        W 8350   9.031   3.072   3.204
 4300W        W 8351   3.550   9.335   0.896
 4301W        W 8352   8.386   1.098   2.148
 4302W        W 8353   6.959   4.660   1.233
 4303W        W 8354   1.814   8.889   0.881
 4304W        W 8355   3.615   1.743   1.734
 4305W        W 8356   5.617   1.740  11.460
 4306W        W 8357   4.238   3.178   9.573
 4307W        W 8358   8.535   2.798   8.585
 4308W        W 8359  10.681   2.312  10.528
 4309W        W 8360   6.331  10.737   8.414
 4310W        W 8361   9.360  10.801   9.822
 4311W        W 8362   1.729  10.894   0.007
 4312W        W 8363   2.753   5.644  11.258
 4313W        W 8364   0.128   2.409   9.631
 4314W        W 8365   4.405   8.658  10.939
 4315W        W 8366   9.088   2.399   1.682
 4316W        W 8367   0.575   2.922   1.900
 4317W        W 8368   2.436   2.526   9.627
 4318W        W 8369   2.832   0.039   3.213
 4319W        W 8370   3.627   0.760   0.851
 4320W        W 8371   1.885  10.019  11.764
 4321W        W 8372   1.828  10.627   8.786
 4322W        W 8373   1.009   0.663   9.877
 4323W        W 8374   8.570   5.345   0.796
 4324W        W 8375   6.754   7.481   8.672
 4325W        W 8376  10.403   5.532  11.880
 4326W        W 8377   5.121   7.380   2.278
 4327W        W 8378   1.233   2.633   9.871
 4328W        W 8379  10.045   6.769   4.394
 4329W        W 8380  10.727   5.117   9.004
 4330W        W 8381   4.141   6.463   4.215
 4331W        W 8382   0.599  11.021   8.587
 4332W        W 8383   5.594   8.002  10.716
 4333W        W 8384   8.697   7.124   2.119
 4334W        W 8385  10.959   0.824  10.934
 4335W        W 8386   6.830   6.133   0.242
 4336W        W 8387  10.356  11.486  11.371
 4337W        W 8388   8.520   1.634  10.016
 4338W        W 8389   3.249   3.037   2.695
 4339W        W 8390   3.551   9.056   0.054
 4340W        W 8391   8.592   9.635  10.622
 4341W        W 8392   9.996  11.330  10.534
 4342W        W 8393  10.902   5.098   9.809
 4343W        W 8394   7.150  11.402   9.921
 4344W        W 8395  10.507   6.561   0.864
 4345W        W 8396   5.491  10.948   2.139
 4346W        W 8397   9.912   9.199   0.019
 4347W        W 8398  10.189   7.992  10.936
 4348W        W 8399   0.908  10.606   9.034
 4349W        W 8400  11.417   2.244   2.339
 4350W        W 8401   5.180   1.757   1.753
 4351W        W 8402   0.385   8.507  11.028
 4352W        W 8403   0.493   8.130   2.694
 4353W        W 8404   8.471   7.197   8.887
 4354W        W 8405   8.401   5.152   1.339
 4355W        W 8406   0.321   7.467   0.497
 4356W        W 8407  10.041   7.025   3.572
 4357W        W 8408   3.062   2.575   2.808
 4358W        W 8409   5.637   7.141   0.206
 4359W        W 8410   2.316  10.831   2.809
 4360W        W 8411  11.317   9.087   2.941
 4361W        W 8412   9.331   9.359   1.279
 4362W        W 8413  11.456   4.143  10.708
 4363W        W 8414   0.987   8.005   1.506
 4364W        W 8415   1.549   9.716   3.266
 4365W        W 8416   6.557   3.420  11.832
 4366W        W 8417   4.263   0.364   9.373
 4367W        W 8418   4.137   0.024   1.715
 4368W        W 8419   8.375   4.205  10.432
 4369W        W 8420   7.602   8.569   2.802
 4370W        W 8421  10.353   1.034  10.315
 4371W        W 8422   7.588   6.684   2.936
 4372W        W 8423   6.031   4.564  10.790
 4373W        W 8424  11.428   2.155   2.858
 4374W        W 8425   9.280   6.446   0.546
 4375W        W 8426   9.901   7.920  10.476
 4376W        W 8427  10.621   1.753  11.422
 4377W        W 8428   6.273   6.583  11.676
 4378W        W 8429   6.197   1.401  10.433
 4379W        W 8430   4.546  10.910  11.586
 4380W        W 8431   9.880   8.124   1.980
 4381W        W 8432   6.120   9.186   1.196
 4382W        W 8433   5.543   7.037  10.857
 4383W        W 8434   0.541   7.369  11.442
 4384W        W 8435   0.628   4.240   2.682
 4385W        W 8436   2.048   5.632   8.650
 4386W        W 8437   3.540   1.781   9.878
 4387W        W 8438   5.441   5.651  10.504
 4388W        W 8439   6.403   9.528   1.503
 4389W        W 8440   0.859   4.625   0.968
 4390W        W 8441  10.454   7.400   3.638
 4391W        W 8442   6.269   4.137   2.736
 4392W        W 8443   2.448   2.641  11.050
 4393W        W 8444   1.697   7.400   0.739
 4394W        W 8445   1.667   3.290   0.994
 4395W        W 8446   0.047  10.953   8.920
 4396W        W 8447   7.390  10.035   0.911
 4397W        W 8448   9.321   1.049   2.119
 4398W        W 8449   1.241   4.262   0.499
 4399W        W 8450   5.607   4.360  11.813
 4400W        W 8451   8.477   2.372   9.595
 4401W        W 8452   1.822   1.017   1.562
 4402W        W 8453   8.699   2.133   0.776
 4403W        W 8454   4.513   2.194  10.917
 4404W        W 8455   1.503  11.265   9.037
 4405W        W 8456   9.908   9.161   2.847
 4406W        W 8457   8.453   4.856   0.907
 4407W        W 8458   0.442   0.272  11.756
 4408W        W 8459   5.169   7.751   1.350
 4409W        W 8460  10.455   1.734   2.886
 4410W        W 8461   7.901   6.492   0.771
 4411W        W 8462   5.981   5.243  10.073
 4412W        W 8463   4.650   5.299  11.734
 4413W        W 8464   8.683   2.122   9.987
 4414W        W 8465   1.708  11.313   9.877
 4415W        W 8466  11.496  10.338   9.572
 4416W        W 8467   2.851  11.146  10.310
 4417W        W 8468   4.488   0.297   2.022
 4418W        W 8469   5.719   9.403  10.318
 4419W        W 8470   5.623   0.263   1.380
 4420W        W 8471   7.861   0.994   0.940
 4421W        W 8472   7.738   9.944   8.799
 4422W        W 8473   1.822  10.944   1.591
 4423W        W 8474   1.252   7.989   9.894
 4424W        W 8475   4.468   9.324   3.551
 4425W        W 8476   6.030   6.679   0.849
 4426W        W 8477   8.190   7.056   2.109
 4427W        W 8478   0.324   4.832   2.147
 4428W        W 8479   4.636   9.798  10.253
 4429W        W 8480   0.429   0.250  10.101
 4430W        W 8481  11.237   0.845  11.373
 4431W        W 8482   7.603   9.884   2.356
 4432W        W 8483   5.176   9.991   8.423
 4433W        W 8484   4.049   9.256   8.990
 4434W        W 8485   5.062   2.977   0.065
 4435W        W 8486   3.484   5.993   3.050
 4436W        W 8487  10.364  10.082   0.755
 4437W        W 8488   3.123   5.271  11.356
 4438W        W 8489   0.445  10.847   9.894
 4439W        W 8490   2.308   5.527  11.066
 4440W        W 8491   6.647   0.548  10.690
 4441W        W 8492   1.186   0.512   0.434
 4442W        W 8493   3.324   7.959   1.838
 4443W        W 8494   0.975   2.912   2.196
 4444W        W 8495   2.732   5.565   9.786
 4445W        W 8496   3.498   0.591   1.853
 4446W        W 8497  10.479   1.803   3.466
 4447W        W 8498   7.637   0.397   0.943
 4448W        W 8499  10.760   2.989  10.886
 4449W        W 8500   8.424   1.250   8.919
 4450W        W 8501   7.955   8.691   9.511
 4451W        W 8502   3.370   9.989   9.356
 4452W        W 8503  10.896  10.918  10.561
 4453W        W 8504   0.215   1.954   1.908
 4454W        W 8505   0.513   9.350  10.862
 4455W        W 8506  10.644   2.586   8.715
 4456W        W 8507   6.950  10.401   2.882
 4457W        W 8508   4.577   4.800   0.985
 4458W        W 8509   8.514   3.961  10.856
 4459W        W 8510   8.340   2.154   0.391
 4460W        W 8511   0.831   7.314   2.669
 4461W        W 8512   8.190   3.759   8.645
 4462W        W 8513   3.511   7.605   0.614
 4463W        W 8514   1.623   1.056   9.123
 4464W        W 8515   6.170  10.298   8.652
 4465W        W 8516  11.292   3.792   2.403
 4466W        W 8517  10.405   0.035  10.241
 4467W        W 8518   8.477   8.101   1.164
 4468W        W 8519   0.051   9.504  11.784
 4469W        W 8520   5.263  10.358   1.380
 4470W        W 8521   5.595  10.448  11.725
 4471W        W 8522   2.881   9.575   0.335
 4472W        W 8523   8.150   2.762   0.314
 4473W        W 8524   1.417   4.659   2.878
 4474W        W 8525   2.836   6.402   9.946
 4475W        W 8526  10.823  10.899  11.867
 4476W        W 8527   8.073   9.372   8.377
 4477W        W 8528   9.450   5.345  11.257
 4478W        W 8529   8.955   5.230   3.293
 4479W        W 8530   3.408   2.208   1.718
 4480W        W 8531  10.490  10.910   2.737
 4481W        W 8532  10.422  11.307   9.766
 4482W        W 8533   1.284   4.762  10.326
 4483W        W 8534   2.661   0.047  11.281
 4484W        W 8535   8.140   2.745  11.781
 4485W        W 8536   1.355   7.002  11.071
 4486W        W 8537   1.487   6.294  11.686
 4487W        W 8538   2.177   5.785  11.880
 4488W        W 8539  11.344   9.014  11.794
 4489W        W 8540  10.039   2.966   2.796
 4490W        W 8541   4.506   2.972   3.083
 4491W        W 8542   9.968   3.211   9.256
 4492W        W 8543  10.891   3.140   1.479
 4493W        W 8544   9.196   3.638  11.262
 4494W        W 8545   3.499   2.295  11.076
 4495W        W 8546   8.002   0.315   9.956
 4496W        W 8547   2.110   0.868   9.111
 4497W        W 8548   1.918   3.139   9.645
 4498W        W 8549  10.264  11.272   1.145
 4499W        W 8550   6.668  11.329   1.975
 4500W        W 8551   4.066   2.992   9.121
 4501W        W 8552   3.969   0.982  10.832
 4502W        W 8553   1.695   2.224  11.371
 4503W        W 8554   3.190   0.715  11.822
 4504W        W 8555   3.347   6.548   9.840
 4505W        W 8556   8.728   9.049  10.267
 4506W        W 8557   5.673   4.051   8.187
 4507W        W 8558   5.875  10.998   0.454
 4508W        W 8559   0.163   0.351   2.501
 4509W        W 8560   5.581   9.727   0.706
 4510W        W 8561   1.193   3.745   3.383
 4511W        W 8562   9.027  10.576   0.245
 4512W        W 8563   2.879   1.349   8.983
 4513W        W 8564   9.523   0.993  10.336
 4514W        W 8565   6.979   1.834   1.142
 4515W        W 8566   1.211   0.216   9.115
 4516W        W 8567   8.949   7.173   1.657
 4517W        W 8568  11.215   9.360  10.363
 4518W        W 8569   9.151   9.562   3.287
 4519W        W 8570   3.901   6.929   2.427
 4520W        W 8571   3.753   7.097  10.120
 4521W        W 8572   4.619   6.394   3.986
 4522W        W 8573   4.718   7.514   9.550
 4523W        W 8574   7.034   8.738  11.582
 4524W        W 8575   1.297  10.487  10.873
 4525W        W 8576   5.686   8.476   8.608
 4526W        W 8577   9.378   1.093   0.235
 4527W        W 8578   1.999   6.988   0.824
 4528W        W 8579   1.137   7.104   9.575
 4529W        W 8580   5.824   5.287  10.566
 4530W        W 8581   6.867   8.530   1.052
 4531W        W 8582   4.045   7.540  10.522
 4532W        W 8583   6.033   2.800   1.327
 4533W        W 8584  11.463   5.140  11.589
 4534W        W 8585   6.686   9.542   1.948
 4535W        W 8586   6.862   8.153  11.780
 4536W        W 8587   4.281   6.983   2.100
 4537W        W 8588   6.079   7.389   1.767
 4538W        W 8589   6.208   0.479  10.327
 4539W        W 8590   9.638   7.995   0.793
 4540W        W 8591   9.910   3.826  10.801
 4541W        W 8592  11.201   1.321   0.067
 4542W        W 8593   5.998   2.667   9.077
 4543W        W 8594  11.373   2.486  11.548
 4544W        W 8595   3.101   6.644   2.043
 4545W        W 8596   6.253   9.051   9.097
 4546W        W 8597   6.832   0.257   0.005
 4547W        W 8598   2.294   0.951  10.401
 4548W        W 8599   7.111   0.290  10.498
 4549W        W 8600   8.084   8.417  10.449
 4550W        W 8601   7.952   3.320  10.146
 4551W        W 8602   9.625  10.475   3.329
 4552W        W 8603   2.631   8.105   8.904
 4553W        W 8604   7.900   3.200   9.639
 4554W        W 8605   9.847   6.128   1.149
 4555W        W 8606   2.470   6.552   9.625
 4556W        W 8607   4.598   9.506  11.217
 4557W        W 8608   5.965   4.394   8.461
 4558W        W 8609   7.750   7.930   9.648
 4559W        W 8610   1.211  11.443   0.953
 4560W        W 8611   6.599  10.815   9.800
 4561W        W 8612   4.683   6.310   8.788
 4562W        W 8613   8.562   9.441   2.875
 4563W        W 8614   5.033  11.049  11.565
 4564W        W 8615   4.594  11.230   0.856
 4565W        W 8616   0.047   9.947   3.135
 4566W        W 8617   4.542   3.361   2.749
 4567W        W 8618   3.338   7.158   0.762
 4568W        W 8619   3.002   9.795   2.868
 4569W        W 8620  10.741  10.328   1.849
 4570W        W 8621   7.515   7.195   2.931
 4571W        W 8622  10.471   6.517   9.372
 4572W        W 8623  11.464   6.794  10.981
 4573W        W 8624   1.293   8.780  10.566
 4574W        W 8625   3.417   9.297   8.771
 4575W        W 8626   8.813   3.051  10.055
 4576W        W 8627   9.627   5.767   9.912
 4577W        W 8628   9.470   6.083   3.436
 4578W        W 8629   2.680   2.304  11.365
 4579W        W 8630   1.472   2.659  11.495
 4580W        W 8631   9.867   8.397  10.316
 4581W        W 8632   9.700   4.768   9.724
 4582W        W 8633   8.117   2.269  11.941
 4583W        W 8634   9.827   4.123  10.053
 4584W        W 8635   2.366  10.163  11.891
 4585W        W 8636   1.320   5.555  10.517
 4586W        W 8637   7.472   1.207  10.967
 4587W        W 8638  10.064   2.696   3.261
 4588W        W 8639   2.151   6.769  11.789
 4589W        W 8640   1.700   3.922   3.308
 4590W        W 8641   5.959   9.133   2.099
 4591W        W 8642  10.488   2.738   2.936
 4592W        W 8643  10.868   8.666   0.377
 4593W        W 8644   6.427  10.691   3.357
 4594W        W 8645   9.386   0.842   1.306
 4595W        W 8646   9.303   3.938   3.565
 4596W        W 8647   4.546  10.811  10.184
 4597W        W 8648   6.421  10.753   0.909
 4598W        W 8649   9.476  11.057   8.448
 4599W        W 8650  10.901   4.026   3.282
 4600W        W 8651   0.773   8.586   8.915
 4601W        W 8652   0.394   5.665   2.358
 4602W        W 8653   4.636   3.198  10.867
 4603W        W 8654  10.288  10.096  10.573
 4604W        W 8655  11.376   4.413   1.151
 4605W        W 8656   8.000   9.932   1.876
 4606W        W 8657   9.919   4.381   2.907
 4607W        W 8658   2.215   4.853   1.689
 4608W        W 8659   6.526   0.711   9.986
 4609W        W 8660   8.623   6.636   9.251
 4610W        W 8661   5.900   3.385  10.288
 4611W        W 8662   7.190   6.163   1.205
 4612W        W 8663   4.232   6.681   9.469
 4613W        W 8664   8.644   2.139   3.602
 4614W        W 8665   7.450   4.268  11.497
 4615W        W 8666   4.244   0.560  10.883
 4616W        W 8667   9.282   3.368   0.007
 4617W        W 8668   0.307   2.693  10.070
 4618W        W 8669   3.801   2.208   9.556
 4619W        W 8670   7.430  11.309   9.484
 4620W        W 8671   0.159   2.253  11.940
 4621W        W 8672   8.025  11.283   1.992
 4622W        W 8673   1.455   8.424   9.692
 4623W        W 8674   2.324   7.680   9.750
 4624W        W 8675   4.972   2.823   2.252
 4625W        W 8676   5.578   7.114   1.189
 4626W        W 8677   5.661   4.230   2.722
 4627W        W 8678   8.839   9.454   1.141
 4628W        W 8679   8.320   0.203   2.484
 4629W        W 8680   2.794   4.733  10.890
 4630W        W 8681   5.198   9.272  11.544
 4631W        W 8682   6.051   0.366   2.807
 4632W        W 8683   4.196   7.532   9.535
 4633W        W 8684   2.349   3.474   9.477
 4634W        W 8685  11.286  11.245   1.325
 4635W        W 8686   8.410  10.832   3.329
 4636W        W 8687   1.218   2.666   8.916
 4637W        W 8688   2.687   8.613   2.221
 4638W        W 8689  10.105   9.784   0.446
 4639W        W 8690   1.860   2.028  11.928
 4640W        W 8691   5.781   1.234   8.958
 4641W        W 8692   1.836   3.711  10.505
 4642W        W 8693   4.587   3.177   9.962
 4643W        W 8694   5.687   3.644  11.005
 4644W        W 8695   6.438   8.270  10.857
 4645W        W 8696   9.415  10.954   3.115
 4646W        W 8697   1.202   3.170   8.649
 4647W        W 8698   7.714   8.576   2.285
 4648W        W 8699  11.003   8.629   9.320
 4649W        W 8700   3.120   0.814   0.749
 4650W        W 8701   4.718   9.065  10.957
 4651W        W 8702   3.156   0.867   9.095
 4652W        W 8703   6.337   8.875  11.926
 4653W        W 8704   5.144  10.567   3.318
 4654W        W 8705  11.314   2.607  10.000
 4655W        W 8706   8.080   0.898   9.046
 4656W        W 8707   6.748   7.704  11.561
 4657W        W 8708   2.152   9.809   0.741
 4658W        W 8709   0.357  10.956   2.641
 4659W        W 8710  11.073   2.613  10.479
 4660W        W 8711   7.549   5.982   0.850
 4661W        W 8712   3.176   4.361   1.211
 4662W        W 8713   2.342   4.133  11.605
 4663W        W 8714  10.042  10.253   2.309
 4664W        W 8715   7.077  10.395   2.389
 4665W        W 8716   8.248   8.519   3.391
 4666W        W 8717   1.297   9.279   8.945
 4667W        W 8718  10.922   0.869  11.852
 4668W        W 8719   6.494   0.080   2.866
 4669W        W 8720  10.375   8.988   0.082
 4670W        W 8721   2.691   1.167   0.320
 4671W        W 8722   7.828   7.718   0.877
 4672W        W 8723   7.514   4.621  10.049
 4673W        W 8724   5.674   3.586   0.263
 4674W        W 8725  10.488   3.638   1.320
 4675W        W 8726   8.271   2.459   1.962
 4676W        W 8727  11.482   9.013   9.086
 4677W        W 8728   3.239   3.361   9.457
 4678W        W 8729   1.675  10.689   0.449
 4679W        W 8730   2.282   4.373   1.457
 4680W        W 8731   0.552   7.062   0.236
 4681W        W 8732  11.080   7.109   9.000
 4682W        W 8733  10.121   9.098   0.941
 4683W        W 8734   1.476   3.204   3.605
 4684W        W 8735   4.814   0.471  11.518
 4685W        W 8736   0.835  10.908   0.228
 4686W        W 8737   9.523   2.385   0.999
 4687W        W 8738   2.877  10.938   8.484
 4688W        W 8739   4.976   9.393   3.466
 4689W        W 8740   8.074   8.468   0.400
 4690W        W 8741   0.564   2.313   0.266
 4691W        W 8742   0.829   7.414   3.567
 4692W        W 8743   8.045   2.120   8.597
 4693W        W 8744   8.560   8.466   2.508
 4694W        W 8745   6.153   6.205  10.273
 4695W        W 8746   0.306   5.264  10.263
 4696W        W 8747   9.824   9.444  11.136
 4697W        W 8748  10.274   0.739   2.738
 4698W        W 8749   2.888   5.051   2.177
 4699W        W 8750   4.972  11.064  10.324
 4700W        W 8751   4.044  10.560  10.258
 4701W        W 8752   9.603  11.019  10.314
 4702W        W 8753   2.955   4.973   1.689
 4703W        W 8754  10.121   3.765  11.252
 4704W        W 8755   5.112  10.935   1.511
 4705W        W 8756   7.519   0.585  10.653
 4706W        W 8757   6.733   6.288  10.518
 4707W        W 8758   6.242   7.131   0.863
 4708W        W 8759   0.128   4.124   2.618
 4709W        W 8760   7.033   1.445   2.122
 4710W        W 8761   2.971   6.880   1.008
 4711W        W 8762  10.593   0.785   1.851
 4712W        W 8763   9.610   1.666  11.479
 4713W        W 8764   2.451   7.032   0.553
 4714W        W 8765   3.163   9.597  10.083
 4715W        W 8766  10.453   8.975   9.238
 4716W        W 8767   5.127  10.554  11.583
 4717W        W 8768   4.781   5.242   1.271
 4718W        W 8769   8.101   0.644   2.236
 4719W        W 8770   0.576   8.663   0.891
 4720W        W 8771   3.516   4.653   3.590
 4721W        W 8772   6.110   5.199   1.047
 4722W        W 8773   2.032   9.081   1.341
 4723W        W 8774   4.837   0.990   9.314
 4724W        W 8775   0.901   2.424   0.706
 4725W        W 8776   8.619   4.634   9.524
 4726W        W 8777   7.258   9.975  11.084
 4727W        W 8778   4.266   7.134  10.278
 4728W        W 8779   7.393   0.807  10.202
 4729W        W 8780   2.583   4.264  10.723
 4730W        W 8781   0.453  10.815   1.658
 4731W        W 8782   9.742   6.623  10.849
 4732W        W 8783   5.875   6.876   3.530
 4733W        W 8784   5.646   4.537   3.469
 4734W        W 8785  10.798   9.568  11.299
 4735W        W 8786   1.561   6.906   0.530
 4736W        W 8787  10.335   3.688   2.478
 4737W        W 8788   8.881  10.914   3.112
 4738W        W 8789   6.343   0.684   9.524
 4739W        W 8790   9.881   0.437  11.803
 4740W        W 8791   6.035   2.663   9.949
 4741W        W 8792   3.160   1.000   3.044
 4742W        W 8793   1.611   0.680   9.968
 4743W        W 8794   4.723   5.252   1.783
 4744W        W 8795   1.819   0.466  11.747
 4745W        W 8796   1.696   3.369  11.945
 4746W        W 8797  11.416   6.157  10.940
 4747W        W 8798   0.702   9.583   1.064
 4748W        W 8799   6.105   7.895   1.769
 4749W        W 8800   1.263   8.291  10.701
 4750W        W 8801   2.709   0.376  11.733
 4751W        W 8802   5.544   6.705   0.888
 4752W        W 8803   0.254   6.182   1.017
 4753W        W 8804   1.701   9.543   9.113
 4754W        W 8805   7.762   6.570  11.885
 4755W        W 8806   9.974   8.008   9.144
 4756W        W 8807   1.941   7.145   8.991
 4757W        W 8808   7.370  11.295  10.365
 4758W        W 8809   4.853  10.841   0.003
 4759W        W 8810   1.416  10.668   2.773
 4760W        W 8811   8.493   9.897   3.130
 4761W        W 8812   8.138  11.446   3.455
 4762W        W 8813   8.043   0.220   1.318
 4763W        W 8814   4.696   2.209  10.066
 4764W        W 8815   2.247   5.698   2.220
 4765W        W 8816   4.326   1.888  10.162
 4766W        W 8817   9.419  10.119   9.462
 4767W        W 8818   1.400   1.473   0.412
 4768W        W 8819  10.400   5.499   8.858
 4769W        W 8820   5.713  11.389   2.296
 4770W        W 8821  10.293   5.253   1.304
 4771W        W 8822   3.677   8.242   2.707
 4772W        W 8823   2.636   9.071   2.443
 4773W        W 8824   5.018   6.199   1.398
 4774W        W 8825  11.436   4.720  10.072
 4775W        W 8826   2.494   7.175   3.637
 4776W        W 8827   0.698   7.574  10.203
 4777W        W 8828   8.017   0.421   8.893
 4778W        W 8829   1.887  11.328   3.479
 4779W        W 8830   1.032  10.535   1.030
 4780W        W 8831   0.163   9.345   0.480
 4781W        W 8832   9.061   3.430   1.872
 4782W        W 8833   9.680   3.710   0.117
 4783W        W 8834   5.971   1.683  11.816
 4784W        W 8835   9.965   5.269   1.692
 4785W        W 8836   6.096   6.407   1.747
 4786W        W 8837  10.422   5.815  10.989
 4787W        W 8838   6.601   4.328   1.422
 4788W        W 8839   8.206   3.722   2.815
 4789W        W 8840   0.948  11.206   3.591
 4790W        W 8841   3.893   9.773   3.531
 4791W        W 8842  11.232   1.197  10.194
 4792W        W 8843   5.334  10.699   0.072
 4793W        W 8844   6.256   1.533  11.415
 4794W        W 8845   3.222   7.204  11.879
 4795W        W 8846   5.923  11.083  10.399
 4796W        W 8847  11.120  11.226   2.234
 4797W        W 8848   6.065   7.581   0.748
 4798W        W 8849   6.522   9.848   0.846
 4799W        W 8850   1.931   3.287   2.360
 4800W        W 8851   2.893   2.253   1.704
 4801W        W 8852  10.030   9.926   1.368
 4802W        W 8853   2.012  10.480   0.065
 4803W        W 8854   6.172   8.672   9.459
 4804W        W 8855   0.834   2.770   2.649
 4805W        W 8856  10.840   2.242   9.241
 4806W        W 8857   4.248   1.072   3.693
 4807W        W 8858   2.256   3.119  11.277
 4808W        W 8859  10.753   0.083   2.282
 4809W        W 8860   2.545  11.369  11.778
 4810W        W 8861   1.046   1.377   2.727
 4811W        W 8862   1.300   1.051  10.089
 4812W        W 8863   3.107   1.181   0.010
 4813W        W 8864   8.544   3.576   0.405
 4814W        W 8865  11.481   3.870   0.500
 4815W        W 8866  10.433   5.314   9.877
 4816W        W 8867   2.237   5.183   8.558
 4817W        W 8868   2.667   5.070   3.175
 4818W        W 8869   6.544   3.951  11.809
 4819W        W 8870   8.452   9.333   2.398
 4820W        W 8871   8.187   2.358   1.461
 4821W        W 8872   0.189   9.518   0.964
 4822W        W 8873   3.218   1.604  10.905
 4823W        W 8874   1.990  11.465  10.447
 4824W        W 8875   7.083   9.313   8.480
 4825W        W 8876   7.265   4.279   2.760
 4826W        W 8877   9.973  11.440  11.031
 4827W        W 8878   8.384   0.821  11.682
 4828W        W 8879   4.678   3.742   9.065
 4829W        W 8880   5.993   9.618   3.021
 4830W        W 8881   9.013   1.726   9.788
 4831W        W 8882   5.744   6.425   3.102
 4832W        W 8883   6.922   2.173  10.465
 4833W        W 8884   5.445   4.508   8.306
 4834W        W 8885   2.755   7.072   8.569
 4835W        W 8886   4.668   4.820  10.488
 4836W        W 8887   7.927   6.217   9.749
 4837W        W 8888   3.545  11.262   2.130
 4838W        W 8889  11.265   2.036   9.470
 4839W        W 8890  10.308   0.538  10.223
 4840W        W 8891  10.406   8.342   0.483
 4841W        W 8892   4.528   2.390   0.517
 4842W        W 8893   6.985   8.924   1.765
 4843W        W 8894   5.137   2.618   8.998
 4844W        W 8895   6.985   2.754   2.266
 4845W        W 8896   2.582   0.946   0.776
 4846W        W 8897  10.557   3.512  11.272
 4847W        W 8898   9.635   4.088   0.444
 4848W        W 8899   6.104   8.172   1.331
 4849W        W 8900   3.134  11.305   0.947
 4850W        W 8901   0.241  10.024   0.899
 4851W        W 8902   5.702  10.488   1.620
 4852W        W 8903   6.934   2.946   0.958
 4853W        W 8904  10.454   4.887  10.811
 4854W        W 8905   3.515  10.844   1.302
 4855W        W 8906   8.037   2.311   2.411
 4856W        W 8907   8.358   0.204   1.975
 4857W        W 8908   2.419   5.121  10.797
 4858W        W 8909   1.844   9.598   2.063
 4859W        W 8910   2.261  10.501   9.623
 4860W        W 8911   3.028   9.334   2.658
 4861W        W 8912   6.777   2.617   2.710
 4862W        W 8913  10.684   5.489   3.144
 4863W        W 8914   6.826   8.012   1.082
 4864W        W 8915   3.911   8.766   0.445
 4865W        W 8916   8.549  10.872   9.025
 4866W        W 8917   9.935  10.949  10.877
 4867W        W 8918   0.295  11.417   8.797
 4868W        W 8919   9.388   7.506   2.561
 4869W        W 8920  11.432   6.557   1.344
 4870W        W 8921  10.479   3.205   3.209
 4871W        W 8922   4.893   1.773   2.312
 4872W        W 8923  10.334   4.643  11.901
 4873W        W 8924   7.586   2.028   3.022
 4874W        W 8925   6.115   8.418   1.776
 4875W        W 8926  10.853   0.606   2.299
 4876W        W 8927   3.896   1.395   2.847
 4877W        W 8928   1.450   6.100   0.563
 4878W        W 8929   6.169   5.047   0.025
 4879W        W 8930   7.050   5.166   1.160
 4880W        W 8931   2.355  10.327   1.363
 4881W        W 8932   8.858   1.300   2.234
 4882W        W 8933   8.563  10.374   9.953
 4883W        W 8934   0.737   0.580  11.426
 4884W        W 8935   1.502   4.112   2.320
 4885W        W 8936   4.078   6.318   8.088
 4886W        W 8937   8.864   2.097   3.140
 4887W        W 8938   2.181   2.370   2.288
 4888W        W 8939  10.597   0.335   9.829
 4889W        W 8940   0.768   9.490  10.393
 4890W        W 8941   3.589   7.474  11.264
 4891W        W 8942   7.725   5.074  11.052
 4892W        W 8943   3.141   6.729   8.464
 4893W        W 8944   0.924   7.970   0.582
 4894W        W 8945   5.992   2.577   3.646
 4895W        W 8946   3.183   7.607  10.519
 4896W        W 8947   8.373  10.880  10.006
 4897W        W 8948   9.579  10.907   8.949
 4898W        W 8949   3.509   8.891   9.526
 4899W        W 8950   7.790   3.614   1.894
 4900W        W 8951   2.954   1.156  10.923
 4901W        W 8952   2.309   7.440  11.064
 4902W        W 8953   7.958   5.513  10.313
 4903W        W 8954   5.199   8.616   1.661
 4904W        W 8955  11.457   2.051   9.944
 4905W        W 8956   6.615   1.440   0.366
 4906W        W 8957   2.608   5.765   0.255
 4907W        W 8958   0.865   3.592  11.951
 4908W        W 8959   3.695   6.287   8.983
 4909W        W 8960   0.875   9.544   9.074
 4910W        W 8961  10.148   6.584   3.836
 4911W        W 8962   4.665   7.480  11.063
 4912W        W 8963   7.116   8.059   0.230
 4913W        W 8964   9.998   5.171   9.541
 4914W        W 8965   0.321   1.656   2.300
 4915W        W 8966   2.874   1.400   2.863
 4916W        W 8967   1.487  10.412   2.287
 4917W        W 8968  11.424   6.989  11.450
 4918W        W 8969   9.504   3.445   2.164
 4919W        W 8970   8.975   0.866   9.354
 4920W        W 8971   3.665  10.353   1.178
 4921W        W 8972  10.908   2.211  11.439
 4922W        W 8973  10.445   0.109   9.343
 4923W        W 8974   9.258   6.086   2.431
 4924W        W 8975   6.893   7.488   3.185
 4925W        W 8976   6.266  11.306   1.655
 4926W        W 8977   6.404   5.863   9.629
 4927W        W 8978   7.246   2.737   1.363
 4928W        W 8979  10.234   6.507   1.927
 4929W        W 8980   0.770   5.758  11.043
 4930W        W 8981   5.462   2.837   2.418
 4931W        W 8982   7.524   0.473   0.447
 4932W        W 8983   1.126   6.025   0.947
 4933W        W 8984   3.614   8.533   3.153
 4934W        W 8985  10.209   1.150   0.032
 4935W        W 8986   2.764   1.904   0.674
 4936W        W 8987   3.193  10.470   9.558
 4937W        W 8988   3.920   6.971  11.161
 4938W        W 8989   7.423   1.977  10.529
 4939W        W 8990   4.238   2.396   8.829
 4940W        W 8991   3.398   9.878  11.931
 4941W        W 8992   8.754   3.832   1.711
 4942W        W 8993   8.029   6.469   2.771
 4943W        W 8994   1.154  10.443  11.965
 4944W        W 8995  10.441   7.482   0.158
 4945W        W 8996  10.849   1.558   2.451
 4946W        W 8997   9.936   8.950   0.466
 4947W        W 8998   9.620   4.210   8.982
 4948W        W 8999   2.619   1.354  11.256
 4949W        W 9000   4.205  11.014   1.684
 4950W        W 9001   7.009   0.820   3.134
 4951W        W 9002   8.528   8.825   1.711
 4952W        W 9003   1.684   3.080   2.776
 4953W        W 9004  11.500   2.877  10.452
 4954W        W 9005   8.879   7.821  10.625
 4955W        W 9006   5.934  10.439   1.170
 4956W        W 9007   2.840  11.389   2.693
 4957W        W 9008   2.601   2.442   1.292
 4958W        W 9009  10.322   7.425   2.399
 4959W        W 9010   9.332   4.813   2.284
 4960W        W 9011   2.912   5.079   1.205
 4961W        W 9012  10.368   1.658  10.964
 4962W        W 9013  10.911   6.119   3.243
 4963W        W 9014   1.270   4.296   9.405
 4964W        W 9015   1.355   0.368   2.004
 4965W        W 9016   7.220   7.916  11.505
 4966W        W 9017   3.817   8.151   1.936
 4967W        W 9018   1.696   8.134   2.276
 4968W        W 9019   5.886   7.251  11.769
 4969W        W 9020   0.642   3.257   3.490
 4970W        W 9021   2.178   5.813   3.261
 4971W        W 9022  10.345  11.399   2.524
 4972W        W 9023   6.460   0.954  10.427
 4973W        W 9024   6.510   6.221   2.023
 4974W        W 9025  10.128   5.106  11.920
 4975W        W 9026  11.000   4.972  10.793
 4976W        W 9027   8.788   6.495   8.286
 4977W        W 9028   1.749   4.980   0.775
 4978W        W 9029   6.453   5.718   0.423
 4979W        W 9030   6.662   4.940  11.965
 4980W        W 9031   6.244  10.434   1.660
 4981W        W 9032  11.085   0.500   9.910
 4982W        W 9033  10.160   3.780   0.230
 4983W        W 9034   5.223   6.716   2.264
 4984W        W 9035   9.363   5.960   9.500
 4985W        W 9036   0.409   9.028  11.587
 4986W        W 9037   2.310   3.732   0.331
 4987W        W 9038   4.933   9.971   9.221
 4988W        W 9039   9.093   5.518   9.550
 4989W        W 9040   1.738   6.754   9.889
 4990W        W 9041   4.748  11.473  11.567
 4991W        W 9042   7.045   5.542  11.207
 4992W        W 9043   2.497   4.141   2.271
 4993W        W 9044   6.737  11.048   3.557
 4994W        W 9045   7.903   5.912  11.446
 4995W        W 9046   6.728   7.981   0.580
 4996W        W 9047   3.509   7.924   2.316
 4997W        W 9048   8.385   6.060  11.405
 4998W        W 9049  11.419   6.438   9.859
 4999W        W 9050   1.987   2.677   9.400
 5000W        W 9051   7.331   9.729   8.602
 5001W        W 9052   5.793   6.665   1.387
 5002W        W 9053  11.262   2.146   8.965
 5003W        W 9054   8.267  10.561  11.443
 5004W        W 9055   0.180   8.078  11.281
 5005W        W 9056   9.986   5.150   3.513
 5006W        W 9057   0.919   9.046   3.671
 5007W        W 9058   2.875   6.533  11.917
 5008W        W 9059   7.293  10.450  11.336
 5009W        W 9060   4.014   0.198   3.566
 5010W        W 9061   8.042   6.849   1.234
 5011W        W 9062   8.615   4.040   2.713
 5012W        W 9063   3.630  11.231   0.871
 5013W        W 9064   0.694   7.746   2.427
 5014W        W 9065   5.449   9.420   3.663
 5015W        W 9066   0.994   9.614  10.903
 5016W        W 9067   7.402   2.576   9.910
 5017W        W 9068   4.162   6.079   1.676
 5018W        W 9069   7.615  11.022   2.686
 5019W        W 9070   8.561   7.415  10.703
 5020W        W 9071   6.547   6.140   8.205
 5021W        W 9072   2.675   6.459   0.950
 5022W        W 9073   3.265   2.619  11.999
 5023W        W 9074   6.542   8.465   9.172
 5024W        W 9075   2.624  11.110   1.053
 5025W        W 9076   6.591  10.305   2.515
 5026W        W 9077   3.107   1.199   1.065
 5027W        W 9078   8.736  10.319   9.037
 5028W        W 9079   5.461   3.137   9.291
 5029W        W 9080   5.940   5.793  10.507
 5030W        W 9081  10.035   3.700  11.739
 5031W        W 9082  10.006   5.599   9.166
 5032W        W 9083   8.521   2.603  10.100
 5033W        W 9084   5.291   2.140  11.489
 5034W        W 9085   0.557   2.312  10.351
 5035W        W 9086   1.372   9.509  11.558
 5036W        W 9087   6.672   8.392   2.306
 5037W        W 9088   8.176   9.452   3.224
 5038W        W 9089   9.870   8.652   2.843
 5039W        W 9090   2.518   6.669   3.463
 5040W        W 9091   1.364   1.455   1.821
 5041W        W 9092   9.808   9.337   2.159
 5042W        W 9093   5.318   5.115  11.601
 5043W        W 9094   6.707  11.438   1.434
 5044W        W 9095   8.876   8.347   8.077
 5045W        W 9096   2.744   7.914   9.877
 5046W        W 9097   1.672   1.566   2.611
 5047W        W 9098   5.793   9.126   0.532
 5048W        W 9099  10.923   5.550  11.882
 5049W        W 9100   1.458   4.532   8.996
 5050W        W 9101   5.596   6.150  10.660
 5051W        W 9102  11.219  10.770   9.485
 5052W        W 9103   9.356   1.838   1.055
 5053W        W 9104   5.284   1.392   8.621
 5054W        W 9105   9.627   3.795   9.485
 5055W        W 9106   2.488   2.935  10.516
 5056W        W 9107   3.754   8.458   9.240
 5057W        W 9108  11.135   1.495   0.961
 5058W        W 9109   8.621  10.829  10.460
 5059W        W 9110   5.601   7.638   8.284
 5060W        W 9111   1.382   5.683   2.751
 5061W        W 9112   7.571  10.922   1.286
 5062W        W 9113   0.473   1.475   0.308
 5063W        W 9114   4.514   1.268   0.002
 5064W        W 9115   0.266   7.499   2.521
 5065W        W 9116   2.471   5.301   0.516
 5066W        W 9117   7.810   5.500  11.712
 5067W        W 9118   7.586   8.918  10.186
 5068W        W 9119   3.073   1.835  10.050
 5069W        W 9120   4.002   0.461   1.957
 5070W        W 9121   7.501   0.679  11.611
 5071W        W 9122   4.087   4.821   0.806
 5072W        W 9123   9.590   1.365   2.920
 5073W        W 9124   6.649   7.552   9.167
 5074W        W 9125   3.250   7.818   8.925
 5075W        W 9126  11.483   0.786  10.824
 5076W        W 9127   1.416   5.073   8.985
 5077W        W 9128   7.210  10.415   3.310
 5078W        W 9129   1.337   2.335   2.876
 5079W        W 9130   8.782   3.134  10.995
 5080W        W 9131   1.775   7.646  11.867
 5081W        W 9132   4.096   2.218   2.177
 5082W        W 9133  10.107   1.722  11.403
 5083W        W 9134   3.352   8.628   2.723
 5084W        W 9135   7.843   7.442   3.260
 5085W        W 9136   4.600   4.403  11.324
 5086W        W 9137  11.307   9.257  11.275
 5087W        W 9138   8.562   7.180  10.240
 5088W        W 9139   3.453   7.076  10.971
 5089W        W 9140   1.939   0.261   9.999
 5090W        W 9141   2.925  10.051   0.506
 5091W        W 9142   0.529  11.031   9.090
 5092W        W 9143   1.777   6.446   2.454
 5093W        W 9144   3.599   8.859  10.019
 5094W        W 9145   8.549   2.851   3.163
 5095W        W 9146   7.002   0.708  11.783
 5096W        W 9147   9.341  11.166  11.696
 5097W        W 9148   9.321  11.076   9.370
 5098W        W 9149   2.673   5.572   9.262
 5099W        W 9150   1.379   7.894  10.410
 5100W        W 9151   4.353   9.100   8.579
 5101W        W 9152  11.112   9.598   3.093
 5102W        W 9153   0.798   6.611   0.270
 5103W        W 9154   3.806   8.010   0.514
 5104W        W 9155   2.469   9.613  11.131
 5105W        W 9156   9.018   6.290   1.785
 5106W        W 9157   4.342   7.117   2.620
 5107W        W 9158  10.782   8.241   3.148
 5108W        W 9159   6.620   9.409   0.553
 5109W        W 9160   1.366   0.462   0.932
 5110W        W 9161   4.537   3.023   1.918
 5111W        W 9162   8.565   3.575   8.348
 5112W        W 9163   4.488   5.984  10.653
 5113W        W 9164   4.491   1.455   3.330
 5114W        W 9165   3.467   9.118   2.799
 5115W        W 9166   0.822   5.315   3.148
 5116W        W 9167   0.270  10.990   3.663
 5117W        W 9168   0.238   9.442  10.417
 5118W        W 9169   1.850  10.913   2.597
 5119W        W 9170   1.975   3.198   3.420
 5120W        W 9171  11.442  10.807   2.341
 5121W        W 9172   0.387   5.409  11.659
 5122W        W 9173   1.753  11.352   1.899
 5123W        W 9174   3.757   7.622   1.897
 5124W        W 9175   7.991   6.934  11.522
 5125W        W 9176   4.602   4.374   1.706
 5126W        W 9177  10.807   0.941  10.096
 5127W        W 9178  10.624   2.240  11.871
 5128W        W 9179   5.477   5.212  10.206
 5129W        W 9180   7.445   8.854  10.672
 5130W        W 9181   4.039   3.125  10.512
 5131W        W 9182   0.727   4.330   9.054
 5132W        W 9183   3.230   6.684   9.371
 5133W        W 9184   4.486   3.734   2.324
 5134W        W 9185  10.866   2.142   3.559
 5135W        W 9186   6.538   9.818   2.330
 5136W        W 9187   0.968   1.599   3.329
 5137W        W 9188   0.944   1.897  11.492
 5138W        W 9189   1.388   9.919  11.245
 5139W        W 9190   2.634   3.787   9.932
 5140W        W 9191   3.387   3.199  11.968
 5141W        W 9192   0.988   7.941   2.840
 5142W        W 9193   8.156   4.619   3.146
 5143W        W 9194   5.992   2.847   8.586
 5144W        W 9195  10.401   6.998   3.227
 5145W        W 9196   6.204   1.787   0.269
 5146W        W 9197  11.474   9.205   1.771
 5147W        W 9198   0.413   9.549   2.473
 5148W        W 9199   5.040   4.302   3.565
 5149W        W 9200   1.567   1.902   1.697
 5150W        W 9201   2.224   0.781   1.147
 5151W        W 9202   5.247   1.253   1.621
 5152W        W 9203   3.060   5.363   3.375
 5153W        W 9204   6.052   7.438  10.765
 5154W        W 9205  10.840   2.786  10.056
 5155W        W 9206   6.175   2.143  11.869
 5156W        W 9207   4.596   4.837  11.960
 5157W        W 9208  10.596   1.398   3.233
 5158W        W 9209   0.889   8.429   1.226
 5159W        W 9210   5.706   0.948   9.403
 5160W        W 9211   6.896   4.081   1.845
 5161W        W 9212   3.594   5.203   8.320
 5162W        W 9213   8.838  11.369   1.178
 5163W        W 9214   3.713   7.459  11.748
 5164W        W 9215   9.065   2.289  10.983
 5165W        W 9216   9.983   9.810   9.308
 5166W        W 9217   4.203   5.177   1.582
 5167W        W 9218   2.369  10.354   2.600
 5168W        W 9219   1.299   4.736   0.702
 5169W        W 9220   1.273   8.142   1.054
 5170W        W 9221   1.904   4.091  10.116
 5171W        W 9222   2.707   4.633   2.450
 5172W        W 9223   7.910   8.808  11.576
 5173W        W 9224   8.558   5.746   2.618
 5174W        W 9225  10.266   7.018   0.943
 5175W        W 9226   0.927   4.173   3.528
 5176W        W 9227   0.916   5.524   2.517
 5177W        W 9228   8.778   6.090   1.014
 5178W        W 9229   1.683   4.178   2.825
 5179W        W 9230   2.086   9.538   3.131
 5180W        W 9231   5.122   7.017   0.211
 5181W        W 9232  10.738   2.674   1.665
 5182W        W 9233   9.526   5.745   9.001
 5183W        W 9234  10.850  10.429   8.759
 5184W        W 9235   3.608   4.207   1.459
 5185W        W 9236   0.424   5.477  10.764
 5186W        W 9237   6.088   7.634   1.266
 5187W        W 9238   9.670   1.183   3.376
 5188W        W 9239   3.371   4.289   9.888
 5189W        W 9240  10.845   1.005   3.385
 5190W        W 9241   8.099   1.908   9.104
 5191W        W 9242   6.075   0.934   3.532
 5192W        W 9243   0.711  10.860  10.326
 5193W        W 9244   6.906   9.612   8.859
 5194W        W 9245  11.068   2.477   2.638
 5195W        W 9246   9.211   5.358   9.087
 5196W        W 9247   0.922   4.159  10.764
 5197W        W 9248   9.524  10.387   2.386
 5198W        W 9249   3.847   6.465  11.286
 5199W        W 9250   1.829   7.547  10.938
 5200W        W 9251   3.702   6.114   2.003
 5201W        W 9252   2.678   1.761   9.281
 5202W        W 9253   8.914   4.156  10.177
 5203W        W 9254   4.963   3.069   9.179
 5204W        W 9255   6.394   6.214   0.503
 5205W        W 9256   8.645   1.905   9.038
 5206W        W 9257   9.342  10.834   2.227
 5207W        W 9258   9.111   5.204   0.026
 5208W        W 9259   4.655   9.491   0.265
 5209W        W 9260   3.393   7.030   2.314
 5210W        W 9261   1.999   6.345   9.740
 5211W        W 9262   6.781  11.132   0.907
 5212W        W 9263   3.997   1.002   9.933
 5213W        W 9264   6.113   0.505   8.816
 5214W        W 9265   9.115   6.607  11.669
 5215W        W 9266   9.558   1.460   1.951
 5216W        W 9267   8.961   8.485   8.568
 5217W        W 9268   6.557   6.786   3.438
 5218W        W 9269  10.413   5.223   0.436
 5219W        W 9270   0.804   7.122  10.515
 5220W        W 9271   2.251   5.573  10.583
 5221W        W 9272   1.514   4.983   9.842
 5222W        W 9273   0.259   2.143  11.445
 5223W        W 9274   9.457  11.483   2.957
 5224W        W 9275   7.980   1.198   0.174
 5225W        W 9276   3.359   7.068   1.280
 5226W        W 9277   3.565   8.465   1.124
 5227W        W 9278   8.937   7.312  11.542
 5228W        W 9279   2.466   4.236   0.101
 5229W        W 9280   0.872   0.320   1.326
 5230W        W 9281   5.294   1.104   9.062
 5231W        W 9282   7.951   9.350  10.880
 5232W        W 9283   1.252   8.651  11.091
 5233W        W 9284   2.655   0.088   2.198
 5234W        W 9285   3.167  10.834   0.142
 5235W        W 9286   0.643   5.484   0.440
 5236W        W 9287   1.115   1.843   9.498
 5237W        W 9288   2.071   2.911  10.825
 5238W        W 9289   8.474   4.926   2.316
 5239W        W 9290   6.645   0.424  11.205
 5240W        W 9291   9.373   9.857  11.952
 5241W        W 9292   9.677   8.539   1.147
 5242W        W 9293  11.142   8.186  10.711
 5243W        W 9294  11.035   3.972  10.979
 5244W        W 9295   9.317   2.170  11.506
 5245W        W 9296   3.205   4.781   2.516
 5246W        W 9297  11.225   0.475   0.081
 5247W        W 9298   1.476   2.751   9.435
 5248W        W 9299   9.815   2.141  11.490
 5249W        W 9300   7.595   4.125  10.173
 5250W        W 9301   0.683   7.609   3.060
 5251W        W 9302   0.946   2.792  11.362
 5252W        W 9303   6.072   2.056  10.844
 5253W        W 9304   7.222   1.480  11.358
 5254W        W 9305   1.803   8.201   3.119
 5255W        W 9306   3.920   2.796   1.157
 5256W        W 9307   8.534  10.016  11.813
 5257W        W 9308  10.399   1.261   1.792
 5258W        W 9309   1.716   0.027   0.938
 5259W        W 9310   9.255   7.616   1.548
 5260W        W 9311   9.565   8.940   9.879
 5261W        W 9312   9.124   5.414   1.903
 5262W        W 9313   3.709   3.106   9.591
 5263W        W 9314   1.721   0.764   3.114
 5264W        W 9315   7.082   6.318  10.144
 5265W        W 9316   5.125   0.747  10.748
 5266W        W 9317   2.864   2.811   1.496
 5267W        W 9318   1.342   8.916   9.533
 5268W        W 9319   4.400   9.957  11.668
 5269W        W 9320   9.364   3.852   9.937
 5270W        W 9321   2.814   0.036   1.251
 5271W        W 9322  10.771   5.377  11.022
 5272W        W 9323   1.335   7.583   0.363
 5273W        W 9324   0.032   4.784  11.032
 5274W        W 9325  11.050   3.516  11.804
 5275W        W 9326   1.224   4.666   2.337
 5276W        W 9327   4.963  10.388   9.548
 5277W        W 9328   4.281   7.127   3.156
 5278W        W 9329   3.422   6.668   0.725
 5279W        W 9330   5.719   8.523  11.342
 5280W        W 9331   9.631   5.129  11.943
 5281W        W 9332   3.403   0.241  10.942
 5282W        W 9333   6.449   3.586   2.399
 5283W        W 9334   9.123   2.429  11.908
 5284W        W 9335   2.735  10.291   9.640
 5285W        W 9336   4.853  10.090  11.453
 5286W        W 9337   8.918   2.933   1.781
 5287W        W 9338   2.876   9.432  10.862
 5288W        W 9339  11.291   1.232   3.376
 5289W        W 9340   3.450   8.839  11.074
 5290W        W 9341   0.374   4.474  10.721
 5291W        W 9342   6.233   8.651   1.159
 5292W        W 9343   2.297   5.652  10.096
 5293W        W 9344   0.475   1.786   1.387
 5294W        W 9345   0.798   6.558   9.546
 5295W        W 9346   0.892   1.365   2.256
 5296W        W 9347  10.782   4.159  11.831
 5297W        W 9348   1.212   9.758  10.312
 5298W        W 9349   4.344   6.527  11.324
 5299W        W 9350   9.147   7.107   2.353
 5300W        W 9351   1.225   6.242   9.472
 5301W        W 9352   3.350  11.286  10.152
 5302W        W 9353   5.126   0.304  11.002
 5303W        W 9354  11.443   1.698   3.193
 5304W        W 9355   1.424   3.147   2.347
 5305W        W 9356  10.831   7.412   0.491
 5306W        W 9357  10.748   6.573   0.411
 5307W        W 9358   5.180   9.942   1.692
 5308W        W 9359   9.481   4.881  11.077
 5309W        W 9360   7.025   0.992   0.801
 5310W        W 9361   2.086   1.558  11.071
 5311W        W 9362   6.188   0.875   1.926
 5312W        W 9363   7.965   1.361  10.921
 5313W        W 9364   1.594   4.205  10.543
 5314W        W 9365  10.808   8.626   2.731
 5315W        W 9366   5.279   0.683   0.287
 5316W        W 9367   3.595   9.641   1.592
 5317W        W 9368   3.349   6.686  11.848
 5318W        W 9369   8.381   1.686  10.835
 5319W        W 9370   1.489   4.512  11.308
 5320W        W 9371  10.393   1.570  11.833
 5321W        W 9372   5.228   0.344   9.992
 5322W        W 9373   9.886   2.687   9.836
 5323W        W 9374   6.622   4.053   0.991
 5324W        W 9375   1.327   6.090  10.373
 5325W        W 9376   7.686   2.170  10.077
 5326W        W 9377  10.627  11.078   2.253
 5327W        W 9378   9.748   5.261  10.840
 5328W        W 9379   0.025   5.559   2.784
 5329W        W 9380   5.821   6.075   2.697
 5330W        W 9381   6.841   9.778   3.661
 5331W        W 9382   3.888   4.207   2.310
 5332W        W 9383   9.875  11.418   2.676
 5333W        W 9384   4.681   7.357   1.991
 5334W        W 9385   3.880   0.574   0.451
 5335W        W 9386   8.704   7.382  11.992
 5336W        W 9387   5.137   3.501   0.017
 5337W        W 9388   1.417   7.522   9.490
 5338W        W 9389  11.364   5.567  10.230
 5339W        W 9390   2.385   2.986   9.385
 5340W        W 9391   8.998   1.466   0.228
 5341W        W 9392   8.015   7.436  11.577
 5342W        W 9393   8.061   8.791   2.990
 5343W        W 9394   7.652   1.523  10.572
 5344W        W 9395   5.703   2.361  11.276
 5345W        W 9396   7.956   1.876  11.052
 5346W        W 9397   1.413   0.049   0.493
 5347W        W 9398   6.647   4.997  10.563
 5348W        W 9399   1.010   1.981  10.348
 5349W        W 9400   1.761   3.490   3.060
 5350W        W 9401   0.052   9.006   0.834
 5351W        W 9402  10.127   4.229  11.010
 5352W        W 9403   3.003   7.882   8.016
 5353W        W 9404   2.033   5.105   0.355
 5354W        W 9405  10.388   1.427   2.271
 5355W        W 9406   1.375   0.256   2.505
 5356W        W 9407   0.100   5.285   8.543
 5357W        W 9408   2.697   0.880  11.892
 5358W        W 9409   2.717   0.577   2.395
 5359W        W 9410   4.702   7.931  10.807
 5360W        W 9411   0.456   4.539  11.235
 5361W        W 9412   0.964   5.805   3.012
 5362W        W 9413   9.003  10.892   1.846
 5363W        W 9414   3.771  11.493   2.806
 5364W        W 9415   6.438   1.510  11.893
 5365W        W 9416   6.646  10.433   8.935
 5366W        W 9417   4.318   4.682   9.150
 5367W        W 9418   7.223   3.362  10.549
 5368W        W 9419   9.431  10.244   0.874
 5369W        W 9420   9.066  10.806   9.016
 5370W        W 9421   1.910  11.260   9.378
 5371W        W 9422  10.239   9.619  11.972
 5372W        W 9423   0.397   4.630   0.701
 5373W        W 9424   6.074   4.600   2.676
 5374W        W 9425   8.024  10.051   9.596
 5375W        W 9426  11.429   0.124  10.090
 5376W        W 9427   4.413   2.788  10.610
 5377W        W 9428   2.833  10.803   9.428
 5378W        W 9429   5.512   4.607   9.617
 5379W        W 9430  10.337   2.904  10.010
 5380W        W 9431   5.071   0.345  11.953
 5381W        W 9432   7.518   4.019   1.068
 5382W        W 9433   6.804   7.116  10.394
 5383W        W 9434   4.582   4.636   2.504
 5384W        W 9435   7.126   5.296  10.357
 5385W        W 9436   6.240   3.873  11.420
 5386W        W 9437   2.921   6.617  11.412
 5387W        W 9438   9.923   9.603   1.733
 5388W        W 9439   9.010   8.950   8.878
 5389W        W 9440   8.961  11.482  11.957
 5390W        W 9441   7.527   9.685   0.495
 5391W        W 9442   2.669   1.438   0.848
 5392W        W 9443   1.191   8.388   0.238
 5393W        W 9444   8.100   2.364  11.009
 5394W        W 9445   1.151   9.145  11.026
 5395W        W 9446   5.714   1.455   1.429
 5396W        W 9447   6.192   3.794   3.335
 5397W        W 9448   4.153   8.238  10.744
 5398W        W 9449   8.091   6.769   9.569
 5399W        W 9450   3.864   8.660   1.851
 5400W        W 9451   9.031  11.405   3.215
 5401W        W 9452   4.163   8.863   1.235
 5402W        W 9453   6.094   1.902  10.367
 5403W        W 9454   8.660   9.482   3.362
 5404W        W 9455   3.653   7.510   9.721
 5405W        W 9456   3.567   0.975   2.678
 5406W        W 9457   1.215  10.831  10.309
 5407W        W 9458   8.856  10.401   1.143
 5408W        W 9459  11.313   4.696   2.159
 5409W        W 9460   5.244   2.744   8.501
 5410W        W 9461   4.283   5.202   1.079
 5411W        W 9462   1.727   6.457   3.037
 5412W        W 9463   0.255  11.428   9.302
 5413W        W 9464   3.251   1.272  10.511
 5414W        W 9465   9.999   8.620   0.065
 5415W        W 9466   3.407  10.994   8.395
 5416W        W 9467   5.429   9.503   1.432
 5417W        W 9468   5.510   8.936  10.350
 5418W        W 9469   6.037   4.521   9.691
 5419W        W 9470   2.906   8.133  11.467
 5420W        W 9471   8.482  11.261   8.666
 5421W        W 9472   0.831   2.358  10.798
 5422W        W 9473   9.457   4.543   0.488
 5423W        W 9474   2.447   3.237   2.300
 5424W        W 9475  10.091   2.265   2.276
 5425W        W 9476   7.288   6.164   8.776
 5426W        W 9477  10.669   0.296   2.786
 5427W        W 9478   7.571   0.450   1.443
 5428W        W 9479   7.598   9.931   9.284
 5429W        W 9480   3.654   2.689   2.858
 5430W        W 9481  10.392   5.999   9.015
 5431W        W 9482   0.392   3.701   9.389
 5432W        W 9483   8.738   6.350  10.007
 5433W        W 9484  10.974   4.599   9.889
 5434W        W 9485   5.031   4.753   0.668
 5435W        W 9486   3.832   9.877   3.030
 5436W        W 9487   9.019   3.806   2.890
 5437W        W 9488   2.159   0.849   2.606
 5438W        W 9489   7.042   5.500   1.551
 5439W        W 9490   0.029   6.145   0.540
 5440W        W 9491   4.658   9.861   3.118
 5441W        W 9492  10.680   3.099  11.544
 5442W        W 9493   9.897   2.249   9.556
 5443W        W 9494   3.148   4.251   8.870
 5444W        W 9495  10.034   0.366  11.321
 5445W        W 9496   8.051   2.656   3.363
 5446W        W 9497   3.939   5.250  11.088
 5447W        W 9498   1.154   4.249  10.306
 5448W        W 9499   0.445   1.213   2.076
 5449W        W 9500   4.318   0.257  11.518
 5450W        W 9501   3.357   0.333  10.417
 5451W        W 9502   5.869   0.531   1.750
 5452W        W 9503   5.273   7.895   2.219
 5453W        W 9504   4.649   8.525  11.933
 5454W        W 9505   8.430   7.189   1.147
 5455W        W 9506   9.478   6.546   2.593
 5456W        W 9507   8.292   3.821   9.148
 5457W        W 9508   3.288   7.938  11.205
 5458W        W 9509   8.208   3.214   8.532
 5459W        W 9510   7.434   6.118   2.147
 5460W        W 9511  10.832   5.678   9.053
 5461W        W 9512   5.965   9.168   9.495
 5462W        W 9513   5.732  11.013  11.958
 5463W        W 9514   8.916  10.011   9.582
 5464W        W 9515   5.238   1.624   9.757
 5465W        W 9516   8.993   6.436   1.306
 5466W        W 9517   4.774   9.927   0.027
 5467W        W 9518   7.717   7.583  11.967
 5468W        W 9519   0.697   2.224   1.204
 5469W        W 9520  10.928   4.293   9.321
 5470W        W 9521  10.808  11.058   8.566
 5471W        W 9522   1.289   5.248   0.755
 5472W        W 9523   7.023   9.838   1.721
 5473W        W 9524   8.090   5.416  11.288
 5474W        W 9525   1.181   5.231  10.139
 5475W        W 9526   2.706   3.286   0.743
 5476W        W 9527   7.494  10.555   1.684
 5477W        W 9528  10.011  10.448  10.809
 5478W        W 9529   6.279   6.657   2.195
 5479W        W 9530  10.274   9.192   2.276
 5480W        W 9531   2.401   2.308   1.808
 5481W        W 9532   8.851   7.638   0.785
 5482W        W 9533  10.956   4.716   1.187
 5483W        W 9534   9.811  10.988  11.790
 5484W        W 9535  11.134   2.242  11.942
 5485W        W 9536   3.902   1.597  11.485
 5486W        W 9537  11.433   4.275   8.521
 5487W        W 9538   7.580   7.085  11.799
 5488W        W 9539   5.945   2.762   1.865
 5489W        W 9540   1.815  10.883   2.092
 5490W        W 9541   6.046  10.580   3.721
 5491W        W 9542   8.749   8.932  11.590
 5492W        W 9543  10.526   4.086   3.638
 5493W        W 9544   4.600   0.458  10.418
 5494W        W 9545   5.234   0.848   2.441
 5495W        W 9546   7.373   7.630   3.224
 5496W        W 9547   9.659   2.642   2.829
 5497W        W 9548   1.793   0.437   8.475
 5498W        W 9549   8.059   6.830  10.375
 5499W        W 9550   9.387   1.086   8.557
 5500W        W 9551   6.904   2.470  11.521
 5501W        W 9552   8.619   0.748  10.673
 5502W        W 9553   0.726   7.587   8.915
 5503W        W 9554   2.190   3.637  11.813
 5504W        W 9555   9.431  10.834  10.802
 5505W        W 9556   8.883   4.339   1.739
 5506W        W 9557   4.843   7.137   8.953
 5507W        W 9558   5.324   8.288   2.614
 5508W        W 9559   0.490   3.187   9.256
 5509W        W 9560  10.529   6.130   0.346
 5510W        W 9561  10.923   6.615   9.117
 5511W        W 9562   0.960   6.158   0.437
 5512W        W 9563   5.857   1.377   0.240
 5513W        W 9564   1.358   8.958   1.529
 5514W        W 9565   7.722   2.471   1.269
 5515W        W 9566   2.716   3.016   8.796
 5516W        W 9567   9.470   9.158   0.350
 5517W        W 9568   3.679   0.868  11.829
 5518W        W 9569  10.091   5.171   0.846
 5519W        W 9570  11.076   7.391   2.010
 5520W        W 9571   1.636   8.033   8.798
 5521W        W 9572   1.570   2.890  11.944
 5522W        W 9573   4.167   1.267   9.497
 5523W        W 9574   6.079   3.254  11.611
 5524W        W 9575   6.156   6.727   9.383
 5525W        W 9576  11.353   8.904   0.318
 5526W        W 9577   4.094   9.296   0.883
 5527W        W 9578   8.048   5.226   2.359
 5528W        W 9579   6.881   1.672  11.703
 5529W        W 9580   5.295   7.154  10.418
 5530W        W 9581   9.122   8.076   3.243
 5531W        W 9582   7.221   3.785  11.323
 5532W        W 9583   7.116   8.949   1.255
 5533W        W 9584   0.380   5.036   9.778
 5534W        W 9585   9.602   8.890   1.960
 5535W        W 9586   8.425   0.287  10.889
 5536W        W 9587   3.675   4.584   1.076
 5537W        W 9588   6.139   0.309   9.823
 5538W        W 9589   1.520   5.668   0.939
 5539W        W 9590   4.428   0.831   9.607
 5540W        W 9591   3.713   3.626   0.255
 5541W        W 9592   8.793  10.322   0.635
 5542W        W 9593   0.681   4.628   8.629
 5543W        W 9594   2.654   6.440   1.864
 5544W        W 9595   0.690   6.611   8.390
 5545W        W 9596   3.152  11.498   1.894
 5546W        W 9597   9.455   9.754   0.729
 5547W        W 9598   4.492   4.331   1.224
 5548W        W 9599   8.215   3.218   2.637
 5549W        W 9600   7.815   9.073   2.077
 5550W        W 9601   8.576   8.670   0.433
 5551W        W 9602   0.801   8.344  11.835
 5552W        W 9603   9.592   5.553  10.378
 5553W        W 9604   1.289   8.311   3.184
 5554W        W 9605   5.577  10.830  10.095
 5555W        W 9606   5.062   7.615  10.546
 5556W        W 9607   2.027   2.502   8.522
 5557W        W 9608   7.698   8.578   1.375
 5558W        W 9609   5.083  10.467   2.816
 5559W        W 9610  10.999   6.650   0.834
 5560W        W 9611   2.321   2.281  11.979
 5561W        W 9612   9.999   7.650   2.800
 5562W        W 9613   3.671   1.701   8.860
 5563W        W 9614  10.347   7.120  11.068
 5564W        W 9615   2.314   0.971   1.685
 5565W        W 9616   2.592  11.067  11.345
 5566W        W 9617   5.575   0.882  10.986
 5567W        W 9618   4.425   9.849   9.317
 5568W        W 9619   6.447   6.572   0.153
 5569W        W 9620  10.837   3.056   2.011
 5570W        W 9621  10.445   1.120   9.355
 5571W        W 9622   5.969   5.752   9.206
 5572W        W 9623   2.224   2.340   2.807
 5573W        W 9624   8.100   7.835   2.546
 5574W        W 9625   7.506  10.987  11.987
 5575W        W 9626  11.353   8.543   2.788
 5576W        W 9627   4.876   3.982  11.217
 5577W        W 9628   5.604   1.941   1.491
 5578W        W 9629   0.363   2.677   2.835
 5579W        W 9630   7.662  11.378   9.940
 5580W        W 9631   7.742   8.931  11.094
 5581W        W 9632   5.958   3.977   2.374
 5582W        W 9633   5.224   7.438   0.489
 5583W        W 9634   8.173   1.930   1.744
 5584W        W 9635   8.646   8.041   8.596
 5585W        W 9636   5.059   9.350   0.019
 5586W        W 9637   6.976   4.128   3.451
 5587W        W 9638   6.503   7.332   1.482
 5588W        W 9639   6.213   0.432   3.341
 5589W        W 9640   0.392   3.580   0.168
 5590W        W 9641   7.779   7.120  10.707
 5591W        W 9642   0.072   9.784   0.261
 5592W        W 9643   9.058   2.787   0.309
 5593W        W 9644   8.148   1.658   0.372
 5594W        W 9645   2.174   3.882   9.718
 5595W        W 9646   9.500   9.605   8.590
 5596W        W 9647   3.368   8.292   8.432
 5597W        W 9648   5.469   4.395   9.135
 5598W        W 9649   0.781  10.578  11.145
 5599W        W 9650   8.944   8.593  10.228
 5600W        W 9651   5.628   7.577   1.447
 5601W        W 9652   4.269   4.058  10.732
 5602W        W 9653   4.804   1.726  10.008
 5603W        W 9654   8.561   6.697  10.355
 5604W        W 9655   4.046   9.099  10.180
 5605W        W 9656   3.824   5.285   0.780
 5606W        W 9657   8.846  10.063   3.480
 5607W        W 9658   3.681   5.888  11.648
 5608W        W 9659  10.953   3.136   3.477
 5609W        W 9660   4.778   2.609   2.744
 5610W        W 9661   4.065   0.906   2.678
 5611W        W 9662  10.324  10.494   1.054
 5612W        W 9663   3.854   4.889  11.820
 5613W        W 9664   8.616   4.463  10.844
 5614W        W 9665  10.827   0.337   1.859
 5615W        W 9666   3.701   9.455  11.749
 5616W        W 9667  10.243  10.730   9.566
 5617W        W 9668   7.860   5.087   8.656
 5618W        W 9669   9.544   1.206  10.798
 5619W        W 9670   0.355  11.369  11.106
 5620W        W 9671   9.549   0.277   1.419
 5621W        W 9672  11.367   8.102   9.293
 5622W        W 9673   6.022   8.969  10.432
 5623W        W 9674   0.391   0.853   1.136
 5624W        W 9675   6.881   1.661   9.818
 5625W        W 9676   1.325   4.075  11.514
 5626W        W 9677   9.818   7.499   0.801
 5627W        W 9678   7.894   2.708   9.985
 5628W        W 9679   2.681   8.302  10.637
 5629W        W 9680   9.309   6.484   8.250
 5630W        W 9681  11.341   0.006   2.741
 5631W        W 9682   3.728  11.284   3.301
 5632W        W 9683   3.009   7.822   2.249
 5633W        W 9684   3.704   2.932   2.404
 5634W        W 9685   3.648   6.212   3.539
 5635W        W 9686  11.445   9.861   1.282
 5636W        W 9687   7.722   5.178   0.485
 5637W        W 9688   3.151   2.425   1.305
 5638W        W 9689   0.749   7.940   9.804
 5639W        W 9690   0.516   5.796   1.885
 5640W        W 9691   9.552   3.168   1.330
 5641W        W 9692   5.957   8.275   0.230
 5642W        W 9693   2.314   8.932   2.022
 5643W        W 9694   4.576  10.316   9.050
 5644W        W 9695   7.853  11.425   3.010
 5645W        W 9696   9.433   8.159   0.363
 5646W        W 9697   4.200   6.102  11.072
 5647W        W 9698   1.347   6.995  10.560
 5648W        W 9699   8.448   6.234  10.531
 5649W        W 9700   9.322   4.974  11.581
 5650W        W 9701   0.936   3.729   0.946
 5651W        W 9702   8.004   9.034   3.448
 5652W        W 9703   0.412   9.311   8.991
 5653W        W 9704   8.670   1.222   3.086
 5654W        W 9705   8.547   4.730   9.021
 5655W        W 9706   6.463   6.225  10.954
 5656W        W 9707   2.933   4.703  11.430
 5657W        W 9708   2.274   0.548   9.519
 5658W        W 9709   6.565  11.217   2.479
 5659W        W 9710   5.637   5.149   1.773
 5660W        W 9711   6.054   6.292   8.097
 5661W        W 9712   9.796  10.648   2.026
 5662W        W 9713   3.233   3.775   9.131
 5663W        W 9714   1.151   3.261   1.088
 5664W        W 9715   9.091  11.246   9.977
 5665W        W 9716   9.598   2.892  10.483
 5666W        W 9717   5.074   3.250   0.487
 5667W        W 9718   3.376   9.308   2.292
 5668W        W 9719   5.086   7.785   0.122
 5669W        W 9720   3.078   4.130  10.802
 5670W        W 9721   3.638   1.264   0.694
 5671W        W 9722   6.538   4.144   3.165
 5672W        W 9723   7.539   0.314  10.203
 5673W        W 9724   3.611  10.525  11.830
 5674W        W 9725   9.060   2.743   1.264
 5675W        W 9726   3.827  10.834   2.054
 5676W        W 9727   6.158   9.984   1.389
 5677W        W 9728   5.238   7.940   0.871
 5678W        W 9729   7.950   1.398   9.135
 5679W        W 9730   3.386   7.689   0.059
 5680W        W 9731   7.698   1.156  11.731
 5681W        W 9732   9.928  10.737   0.273
 5682W        W 9733   7.279   8.015   9.433
 5683W        W 9734   7.595   9.747  10.780
 5684W        W 9735   3.328   5.244   1.966
 5685W        W 9736   8.440   4.711  10.419
 5686W        W 9737   3.078   0.590   2.758
 5687W        W 9738  10.570   2.364   2.563
 5688W        W 9739   9.995   0.829   9.534
 5689W        W 9740  10.228   9.360   9.511
 5690W        W 9741   9.448   2.731   3.329
 5691W        W 9742   7.380   9.085  11.445
 5692W        W 9743   8.041   3.347   9.155
 5693W        W 9744   5.820   5.542   1.449
 5694W        W 9745   2.186   5.319   3.484
 5695W        W 9746   0.716   5.726   3.438
 5696W        W 9747   4.081   1.443  11.026
 5697W        W 9748   2.662   4.145   1.768
 5698W        W 9749   5.556   8.257   3.232
 5699W        W 9750   6.619   9.981   8.136
 5700W        W 9751   3.348   1.909   1.308
 5701W        W 9752   1.000  10.976   0.791
 5702W        W 9753   6.675   6.705   2.928
 5703W        W 9754   3.878   4.380   0.630
 5704W        W 9755   2.317   0.042   9.536
 5705W        W 9756   0.017  11.392   3.227
 5706W        W 9757   9.161   6.636   9.994
 5707W        W 9758   7.908   4.169   2.201
 5708W        W 9759   9.103   4.265   3.147
 5709W        W 9760   3.250   9.930   1.826
 5710W        W 9761   2.688   6.639   2.377
 5711W        W 9762  10.398   7.059  10.511
 5712W        W 9763   6.765   2.081   2.820
 5713W        W 9764   2.707   9.059  11.482
 5714W        W 9765   4.467   6.764   8.651
 5715W        W 9766   2.109   8.646  11.754
 5716W        W 9767   7.694   3.774  11.525
 5717W        W 9768  10.415   7.624  11.235
 5718W        W 9769   4.415   0.724   1.741
 5719W        W 9770   3.898   4.385  10.527
 5720W        W 9771  10.240  10.434   1.566
 5721W        W 9772   0.083   0.966   1.829
 5722W        W 9773   2.147   7.468   1.005
 5723W        W 9774   1.145   0.236  10.686
 5724W        W 9775  11.306   1.232   1.395
 5725W        W 9776   3.471   9.626   2.768
 5726W        W 9777   3.572   2.315   2.520
 5727W        W 9778   7.659   0.175   9.173
 5728W        W 9779   1.774   1.255   3.381
 5729W        W 9780   3.192   5.706  10.991
 5730W        W 9781   6.970   4.647   0.271
 5731W        W 9782  11.023   0.105   3.121
 5732W        W 9783   4.312   8.667  11.537
 5733W        W 9784   1.221   0.625  10.360
 5734W        W 9785  10.000   1.889  11.894
 5735W        W 9786   5.638   3.253   9.827
 5736W        W 9787   2.517   8.558   8.315
 5737W        W 9788   1.298   1.069  10.607
 5738W        W 9789  10.936   3.302   2.919
 5739W        W 9790   3.971   8.367   1.379
 5740W        W 9791   8.684   7.881  11.908
 5741W        W 9792   9.370   1.829   2.856
 5742W        W 9793   9.432   4.916   0.981
 5743W        W 9794   1.912   3.640   8.881
 5744W        W 9795  11.396   8.860   1.406
 5745W        W 9796   4.218   9.971   0.864
 5746W        W 9797   2.769   1.665   0.201
 5747W        W 9798   7.217   3.826  10.282
 5748W        W 9799   7.720   8.016  11.628
 5749W        W 9800   3.146   3.678   1.836
 5750W        W 9801   5.200   9.042   9.029
 5751W        W 9802  10.633   7.692  11.695
 5752W        W 9803   2.718  10.245   8.742
 5753W        W 9804   0.056   7.483  11.355
 5754W        W 9805   0.279   1.189  11.224
 5755W        W 9806  10.769  11.272   3.428
 5756W        W 9807   5.783   1.516   8.530
 5757W        W 9808   3.292   1.358   9.293
 5758W        W 9809   6.032   6.539   2.657
 5759W        W 9810  10.943   6.252   0.053
 5760W        W 9811   3.867   3.873  10.955
 5761W        W 9812  11.367   7.190   9.415
 5762W        W 9813   0.164   1.406  10.328
 5763W        W 9814   0.795   0.844   2.172
 5764W        W 9815   1.058   6.079  11.348
 5765W        W 9816   3.173   4.951   0.397
 5766W        W 9817   0.692   8.417   0.354
 5767W        W 9818   6.706  11.373   0.364
 5768W        W 9819   8.993   0.943   0.950
 5769W        W 9820  11.287   1.123   9.521
 5770W        W 9821   0.904   4.206   2.246
 5771W        W 9822   8.095   9.239   2.764
 5772W        W 9823   9.472   2.146   1.458
 5773W        W 9824   1.260   7.565  11.857
 5774W        W 9825   2.231   6.133   1.960
 5775W        W 9826   9.481   9.337   1.768
 5776W        W 9827  10.574   6.251  10.762
 5777W        W 9828   9.405   7.024   3.318
 5778W        W 9829   8.600   6.138   1.476
 5779W        W 9830   7.070   6.253   8.310
 5780W        W 9831   0.944   5.326  10.852
 5781W        W 9832   8.877   9.583   2.226
 5782W        W 9833  11.323   7.431   0.306
 5783W        W 9834   8.735   0.311   2.783
 5784W        W 9835   6.701   3.175  10.273
 5785W        W 9836   5.975   9.964   3.404
 5786W        W 9837   5.958   4.580   0.218
 5787W        W 9838   5.730   7.367   3.600
 5788W        W 9839   6.339   8.086  11.841
 5789W        W 9840  11.376   5.761   2.344
 5790W        W 9841  10.805  10.874   0.369
 5791W        W 9842   7.012   3.709  11.806
 5792W        W 9843   6.861   2.289   2.045
 5793W        W 9844   8.156  10.452   0.499
 5794W        W 9845   2.785   1.280   1.742
 5795W        W 9846   8.532   6.661   1.187
 5796W        W 9847   7.983  10.548   2.572
 5797W        W 9848   5.620  10.981   1.638
 5798W        W 9849  11.431   4.782   9.585
 5799W        W 9850   2.888   0.393   9.104
 5800W        W 9851  10.764   4.128  10.556
 5801W        W 9852   3.104   7.129  11.374
 5802W        W 9853   4.634  10.276   2.671
 5803W        W 9854   1.233  10.094   0.903
 5804W        W 9855   5.494   3.661   8.560
 5805W        W 9856   2.309   7.208   0.056
 5806W        W 9857   6.137   9.813  11.841
 5807W        W 9858   4.064   7.536  10.023
 5808W        W 9859   5.283   8.602   4.162
 5809W        W 9860   7.432   0.966   2.888
 5810W        W 9861   0.246   1.358   1.170
 5811W        W 9862   7.135   9.617   9.816
 5812W        W 9863  10.536   2.788  10.477
 5813W        W 9864  11.357   0.734   2.226
 5814W        W 9865   1.330  11.025   3.208
 5815W        W 9866   2.488  10.798   0.689
 5816W        W 9867   0.934   9.567   8.574
 5817W        W 9868   6.714   2.305   8.923
 5818W        W 9869   2.636   0.769  10.796
 5819W        W 9870   4.575   6.190   0.288
 5820W        W 9871   3.431   0.908   0.320
 5821W        W 9872   0.565   9.489  11.794
 5822W        W 9873   5.907   2.282   1.708
 5823W        W 9874   2.779   3.341   9.750
 5824W        W 9875   2.851  10.091  11.457
 5825W        W 9876   5.139   3.294   9.631
 5826W        W 9877   0.196   3.997   8.997
 5827W        W 9878   8.197   3.686  11.519
 5828W        W 9879   6.596   0.139   0.933
 5829W        W 9880   1.781   1.373   0.752
 5830W        W 9881  11.386  10.654   3.769
 5831W        W 9882   0.096   3.835  10.296
 5832W        W 9883  10.248   4.621   3.252
 5833W        W 9884  10.488   7.951   9.068
 5834W        W 9885   5.318   8.024  10.227
 5835W        W 9886   6.973   6.614   0.341
 5836W        W 9887  10.398   6.740  11.533
 5837W        W 9888   6.155   4.568   1.700
 5838W        W 9889  10.533   7.864   1.439
 5839W        W 9890   6.296   7.945  10.051
 5840W        W 9891   4.035   6.442   1.319
 5841W        W 9892   6.714   5.557   0.842
 5842W        W 9893   0.370   0.888   2.958
 5843W        W 9894   3.091   6.216  11.084
 5844W        W 9895   7.282   4.166   0.436
 5845W        W 9896  10.133  10.268   0.280
 5846W        W 9897   6.892   2.163   9.600
 5847W        W 9898  11.059   3.799   2.840
 5848W        W 9899   6.674   0.280  10.235
 5849W        W 9900   1.815   4.384  10.962
 5850W        W 9901  10.849   1.888   9.756
 5851W        W 9902   9.123   7.703   9.272
 5852W        W 9903   0.073   0.069   0.044
 5853W        W 9904   8.274   5.690  11.815
 5854W        W 9905   0.362   9.047   1.238
 5855W        W 9906   4.366   1.756  11.686
 5856W        W 9907   4.193   8.647  10.423
 5857W        W 9908   0.809   4.847  11.462
 5858W        W 9909   6.479   7.189  10.956
 5859W        W 9910   1.740   5.265   8.448
 5860W        W 9911   7.581   0.943   1.570
 5861W        W 9912   7.142   0.145   0.398
 5862W        W 9913   3.514  10.475   9.967
 5863W        W 9914   2.370   0.350   9.065
 5864W        W 9915   9.856  10.087   2.816
 5865W        W 9916   8.242   7.639  11.967
 5866W        W 9917   4.745   6.729   0.677
 5867W        W 9918   9.416   9.266   2.766
 5868W        W 9919  11.087   5.012  10.277
 5869W        W 9920   2.869   4.229   9.850
 5870W        W 9921   3.527   3.047  10.586
 5871W        W 9922  10.922   2.656  11.729
 5872W        W 9923   7.555   1.861   0.335
 5873W        W 9924   7.560   6.677  10.468
 5874W        W 9925   1.904   5.237  10.772
 5875W        W 9926   4.678   9.519  11.720
 5876W        W 9927   7.023   4.319   2.279
 5877W        W 9928   7.109   3.388  10.058
 5878W        W 9929   5.660   5.804   1.009
 5879W        W 9930   2.834   2.860   9.587
 5880W        W 9931  10.605   7.447   1.840
 5881W        W 9932  10.505   4.980   9.489
 5882W        W 9933   7.610  10.425  10.073
 5883W        W 9934   6.305   7.557  11.769
 5884W        W 9935   5.573   8.096  11.742
 5885W        W 9936   9.134   4.163   0.507
 5886W        W 9937  11.256   3.072   9.130
 5887W        W 9938   2.828   8.356  10.149
 5888W        W 9939   7.176   9.251   0.834
 5889W        W 9940   4.215   2.310   9.882
 5890W        W 9941   3.849   6.642   9.883
 5891W        W 9942  11.047   2.721   1.222
 5892W        W 9943   0.221   7.781   2.944
 5893W        W 9944   4.015   1.473  11.966
 5894W        W 9945   5.141   4.661  10.699
 5895W        W 9946   0.282  10.711   0.322
 5896W        W 9947   7.026   7.926  10.917
 5897W        W 9948   1.754   1.792   9.586
 5898W        W 9949  10.135   1.240   3.570
 5899W        W 9950  10.850   9.147   0.534
 5900W        W 9951   8.084   1.552   3.531
 5901W        W 9952   3.602   4.691   8.502
 5902W        W 9953   7.933  10.104  10.595
 5903W        W 9954   5.192   8.073   1.749
 5904W        W 9955   1.808  10.000   2.404
 5905W        W 9956   2.339   1.925   0.392
 5906W        W 9957   6.597   8.180   2.805
 5907W        W 9958   9.794   1.205   1.242
 5908W        W 9959   2.705   3.230   2.745
 5909W        W 9960   8.944   6.857  11.269
 5910W        W 9961   6.136   0.553  11.263
 5911W        W 9962   2.755  10.503   2.916
 5912W        W 9963   9.949  10.802   8.576
 5913W        W 9964   4.630   3.891   0.992
 5914W        W 9965   9.418   9.871   9.900
 5915W        W 9966   5.217   3.731   0.478
 5916W        W 9967   3.289   2.901   0.408
 5917W        W 9968   3.243   1.216   3.832
 5918W        W 9969   0.780  11.194   1.859
 5919W        W 9970   3.709   8.396   0.161
 5920W        W 9971   4.786   8.571  11.411
 5921W        W 9972   9.978  11.339  10.036
 5922W        W 9973   3.778   0.172   8.663
 5923W        W 9974   2.185   9.441   1.670
 5924W        W 9975   9.917   3.772   2.125
 5925W        W 9976  10.898   4.057   9.778
 5926W        W 9977   5.192   7.263   3.182
 5927W        W 9978   5.099   9.470   1.891
 5928W        W 9979   9.058   3.643   2.351
 5929W        W 9980   1.104  10.407   1.673
 5930W        W 9981   1.393   1.442   9.364
 5931W        W 9982   3.318   6.619   3.670
 5932W        W 9983  10.573   7.389   9.446
 5933W        W 9984   6.231   5.590  10.897
 5934W        W 9985  11.323   6.983  11.972
 5935W        W 9986   6.095   5.647   0.780
 5936W        W 9987   4.174   7.935  11.446
 5937W        W 9988   1.263  10.885  11.225
 5938W        W 9989   0.808   3.275  10.537
 5939W        W 9990   4.207   7.820   1.816
 5940W        W 9991   2.956   8.960  11.046
 5941W        W 9992  10.914   1.637   0.435
 5942W        W 9993   4.182   0.183  10.516
 5943W        W 9994   6.400   3.660   2.893
 5944W        W 9995   0.820   7.863   1.057
 5945W        W 9996   1.714   8.948  10.324
 5946W        W 9997   7.312   6.046  11.095
 5947W        W 9998   6.838   7.190   2.734
 5948W        W 9999   8.871   2.221   0.306
 5949W        W10000   2.523   7.795   0.738
 5950W        W10001   6.763   5.483  10.682
 5951W        W10002   9.002   8.077  11.061
 5952W        W10003   3.390   1.821  11.377
 5953W        W10004   8.171   5.393   9.863
 5954W        W10005   0.844  10.694  11.639
 5955W        W10006   2.559   7.573   2.290
 5956W        W10007   2.406   2.905   3.587
 5957W        W10008   1.489   1.197   2.298
 5958W        W10009   4.699   1.955   3.315
 5959W        W10010   5.961   4.697   1.226
 5960W        W10011   8.554  10.403  10.738
 5961W        W10012   2.749   7.401  11.790
 5962W        W10013   8.656   2.842   9.611
 5963W        W10014   7.580   9.878   9.783
 5964W        W10015   4.670   4.281   3.928
 5965W        W10016   4.762   8.822   9.970
 5966W        W10017  11.172   4.305   2.470
 5967W        W10018   8.057  10.523   9.834
 5968W        W10019   1.564   9.984   2.840
 5969W        W10020   1.387  11.434   9.510
 5970W        W10021   2.587   4.118   0.580
 5971W        W10022   9.994   2.084  11.009
 5972W        W10023   4.114  11.204   0.304
 5973W        W10024   8.515   7.617  11.491
 5974W        W10025   7.680   9.585   2.799
 5975W        W10026   3.763   2.434   3.347
 5976W        W10027   7.750   1.509  11.379
 5977W        W10028   7.685   3.112   1.983
 5978W        W10029   9.886   5.403  11.555
 5979W        W10030   2.798   5.264   4.148
 5980W        W10031   8.887   0.507  11.025
 5981W        W10032   4.746   9.933   8.731
 5982W        W10033   6.314   7.037  11.920
 5983W        W10034   9.647   3.340   0.872
 5984W        W10035   0.252   6.949   9.142
 5985W        W10036   9.337   0.156   1.901
 5986W        W10037   8.526   4.664   8.286
 5987W        W10038   9.552   8.627   9.404
 5988W        W10039   2.340   0.552   3.415
 5989W        W10040   2.348   1.421   1.968
 5990W        W10041   6.983   5.651   0.339
 5991W        W10042  10.854   1.679   1.935
 5992W        W10043   0.376   4.237   9.410
 5993W        W10044   5.016  11.341  11.990
 5994W        W10045   6.218   5.271  11.308
 5995W        W10046   5.111  10.447   0.877
 5996W        W10047   9.354   8.010  10.555
 5997W        W10048   0.820  11.077  11.306
 5998W        W10049   6.033   6.941  10.906
 5999W        W10050   8.901   1.829  10.781
 6000W        W10051   8.139   9.121   9.198
 6001W        W10052   7.237   2.229   1.713
 6002W        W10053   0.034   3.835   3.059
 6003W        W10054   8.960   2.106   2.639
 6004W        W10055   3.235   6.212   2.319
 6005W        W10056   7.983   1.929  10.533
 6006W        W10057   8.470   0.735   3.216
 6007W        W10058   5.521   8.046  11.225
 6008W        W10059   3.356   4.490  10.570
 6009W        W10060   4.915   0.150   1.764
 6010W        W10061   8.084   4.928   9.076
 6011W        W10062   6.722   1.362  10.552
 6012W        W10063   6.595   8.958   1.367
 6013W        W10064   0.359   6.521   8.775
 6014W        W10065   7.770   7.064   9.204
 6015W        W10066   8.847   8.471   9.736
 6016W        W10067  10.030  10.705   9.084
 6017W        W10068   6.074   4.160  11.887
 6018W        W10069   7.969   6.834   3.600
 6019W        W10070   9.177   4.793   3.138
 6020W        W10071   9.076   2.912   3.710
 6021W        W10072   5.091   9.957   0.668
 6022W        W10073   3.594   6.573   2.236
 6023W        W10074   3.242   7.084   3.409
 6024W        W10075  10.944  10.979  11.052
 6025W        W10076   1.671  10.401   9.563
 6026W        W10077  10.866   0.507   3.402
 6027W        W10078   6.557   7.497   0.491
 6028W        W10079   5.095  10.975   2.979
 6029W        W10080   5.135   2.338   2.292
 6030W        W10081  10.659   4.061   8.949
 6031W        W10082   2.275   2.824   2.030
 6032W        W10083   9.592   6.949  11.694
 6033W        W10084   3.540   6.887   9.012
 6034W        W10085  11.288  11.192   9.785
 6035W        W10086   3.779   8.883   0.914
 6036W        W10087   6.255   6.812   3.872
 6037W        W10088   5.993   3.399   0.643
 6038W        W10089   7.712   0.682   8.575
 6039W        W10090   3.484   6.565   3.178
 6040W        W10091   2.167   9.140  10.476
 6041W        W10092   5.004   2.428   0.784
 6042W        W10093   8.930   6.199   3.697
 6043W        W10094   2.355   9.363   3.675
 6044W        W10095   6.681  11.354   9.024
 6045W        W10096   1.170   7.861   8.561
 6046W        W10097   7.668   8.210   0.590
 6047W        W10098   4.875  10.723   9.179
 6048W        W10099  10.829   4.556   0.725
 6049W        W10100   6.470   9.056   9.606
 6050W        W10101   7.294   6.685   1.272
 6051W        W10102   2.138   8.287   8.504
 6052W        W10103   0.927   4.542   3.060
 6053W        W10104   4.250   9.103  10.669
 6054W        W10105   0.872   8.737   2.326
 6055W        W10106   1.945   4.690   9.078
 6056W        W10107   2.963   4.296   2.163
 6057W        W10108  11.215   8.910   2.454
 6058W        W10109   3.905   1.057   0.250
 6059W        W10110   2.297   2.772   1.022
 6060W        W10111   7.191  11.259  11.385
 6061W        W10112   8.981   4.948   8.289
 6062W        W10113   9.323   5.821   0.637
 6063W        W10114   9.350   6.170   2.937
 6064W        W10115   6.518  10.321   0.638
 6065W        W10116  10.591   4.405  10.948
 6066W        W10117   1.369  10.289   9.961
 6067W        W10118   5.747   0.889   0.514
 6068W        W10119   8.014  10.935   9.107
 6069W        W10120   8.054   9.528  11.361
 6070W        W10121   9.922   2.909   1.647
 6071W        W10122   0.267  10.882   3.138
 6072W        W10123   8.118   3.108   3.126
 6073W        W10124  10.326   7.445   8.994
 6074W        W10125   6.982   8.009   1.579
 6075W        W10126  11.434   8.335  11.677
 6076W        W10127   5.505   6.963   8.768
 6077W        W10128   7.024  10.348  11.766
 6078W        W10129   4.266   7.968   9.823
 6079W        W10130   8.398   6.114   2.939
 6080W        W10131   4.261   8.965   2.584
 6081W        W10132  11.366   4.303   9.784
 6082W        W10133   0.775   1.738   9.980
 6083W        W10134   7.135   8.381   9.890
 6084W        W10135   6.152   7.616   9.242
 6085W        W10136   1.403   0.231   9.995
 6086W        W10137   5.004  11.175   9.383
 6087W        W10138   7.452   5.702  10.256
 6088W        W10139   6.210   1.941   2.768
 6089W        W10140   2.561   2.116   3.512
 6090W        W10141   7.105   8.211   8.477
 6091W        W10142   4.126   1.682   1.716
 6092W        W10143   1.572   9.233   1.150
 6093W        W10144   8.503   5.435   2.192
 6094W        W10145   0.345   8.374   9.067
 6095W        W10146   8.771   0.446  11.861
 6096W        W10147  10.458   3.589   9.126
 6097W        W10148   6.440  11.449   3.428
 6098W        W10149   1.284   3.780   9.407
 6099W        W10150   5.940   3.473   2.463
 6100W        W10151   9.930   9.574   3.563
 6101W        W10152   4.634   5.736   0.015
 6102W        W10153   8.996   3.734  11.713
 6103W        W10154   8.983   7.105   9.971
 6104W        W10155   9.157   9.988   2.437
 6105W        W10156   6.093   2.460  10.449
 6106W        W10157   2.907   8.481   8.633
 6107W        W10158   8.974   9.831   9.080
 6108W        W10159   8.053   5.966   1.016
 6109W        W10160   5.558   2.805   0.022
 6110W        W10161   0.415   2.207   3.019
 6111W        W10162   6.457   9.517   2.780
 6112W        W10163   5.587   3.309  11.820
 6113W        W10164   3.526   1.430   0.204
 6114W        W10165   8.794   6.164   2.226
 6115W        W10166   4.570   8.535   2.427
 6116W        W10167   0.714  10.047   3.028
 6117W        W10168   5.579   9.288   0.968
 6118W        W10169   3.717   6.140   4.044
 6119W        W10170  10.058  10.798   2.451
 6120W        W10171   0.261  11.350   9.807
 6121W        W10172   6.054   7.575   9.762
 6122W        W10173   2.740   5.169   8.605
 6123W        W10174   2.406   5.754   0.724
 6124W        W10175   5.640   1.809  10.016
 6125W        W10176   6.544   0.748   2.262
 6126W        W10177   1.274   9.197   8.443
 6127W        W10178   8.179   8.653  10.959
 6128W        W10179   3.665   4.832  10.383
 6129W        W10180  11.065   6.981   0.437
 6130W        W10181   2.510   5.240   1.503
 6131W        W10182   4.734   2.319   3.683
 6132W        W10183   9.479   3.125   0.428
 6133W        W10184   7.420   9.542   1.523
 6134W        W10185  10.476   4.030   9.427
 6135W        W10186   8.489   5.698   1.192
 6136W        W10187   4.671   9.546   2.198
 6137W        W10188   8.899  11.271  11.480
 6138W        W10189   6.606  10.007  11.867
 6139W        W10190   2.460   5.266   1.994
 6140W        W10191   7.527   1.687  10.126
 6141W        W10192   9.578   5.185   2.020
 6142W        W10193   7.132  11.349  11.903
 6143W        W10194   7.859   2.321   0.374
 6144W        W10195   0.396   2.615  11.563
 6145W        W10196   8.561   6.577   0.368
 6146W        W10197   0.760   1.777   2.861
 6147W        W10198   0.890   8.089  10.302
 6148W        W10199   1.826   0.984  11.787
 6149W        W10200   4.099   9.417   9.474
 6150W        W10201   4.346   9.848   1.348
 6151W        W10202   6.200  11.434   2.159
 6152W        W10203   1.701  10.655  11.159
 6153W        W10204  10.547   9.966   0.267
 6154W        W10205   3.975   6.579   3.366
 6155W        W10206  11.141   3.043   0.432
 6156W        W10207   1.701   6.198  10.729
 6157W        W10208  10.925   8.569   9.840
 6158W        W10209  10.615  10.526   3.090
 6159W        W10210   5.309   2.193   1.161
 6160W        W10211   4.384   4.413   0.724
 6161W        W10212   6.901   2.939  10.783
 6162W        W10213   9.558  11.042   2.638
 6163W        W10214   6.833   3.815   9.934
 6164W        W10215   9.884   3.899   3.080
 6165W        W10216   6.009   2.757   2.380
 6166W        W10217   4.788   0.489   0.371
 6167W        W10218   1.816   1.176   0.278
 6168W        W10219   9.096   4.806   1.822
 6169W        W10220  10.274   0.376   1.879
 6170W        W10221   7.976   7.211   0.868
 6171W        W10222   6.995  10.872   3.133
 6172W        W10223   6.191   7.929  10.564
 6173W        W10224   9.453   9.485  10.430
 6174W        W10225   3.870   9.844   9.336
 6175W        W10226   8.575   8.045   9.936
 6176W        W10227   3.380   0.934  11.393
 6177W        W10228   3.892   5.886   8.728
 6178W        W10229   8.495   8.966   8.842
 6179W        W10230   7.105   4.166   1.365
 6180W        W10231  11.450  11.052   1.854
 6181W        W10232   3.848   8.769   2.782
 6182W        W10233   0.857   0.533   9.375
 6183W        W10234   8.890   0.814   1.454
 6184W        W10235   4.166   1.857  10.686
 6185W        W10236   6.428  10.316   1.136
 6186W        W10237   0.949  10.194   2.125
 6187W        W10238   6.968  10.468  10.353
 6188W        W10239   7.783   2.276   1.755
 6189W        W10240   4.663   1.632   1.721
 6190W        W10241   0.946   9.014   1.906
 6191W        W10242   5.020   3.747   2.327
 6192W        W10243   4.621   0.161   9.031
 6193W        W10244   8.171   3.697  10.536
 6194W        W10245  10.779   6.419  11.591
 6195W        W10246  10.795   6.043   8.685
 6196W        W10247   1.871   9.356   0.313
 6197W        W10248   7.293  10.521   0.733
 6198W        W10249   7.350   6.617   1.979
 6199W        W10250  11.391   3.446   0.171
 6200W        W10251   9.184  10.711   2.717
 6201W        W10252   7.423   9.582  11.392
 6202W        W10253   2.327   8.082  10.226
 6203W        W10254  11.473   4.306  11.215
 6204W        W10255   4.481   3.705   3.268
 6205W        W10256   8.854   4.237   0.924
 6206W        W10257   9.097   1.761   9.268
 6207W        W10258   1.351   2.353  10.680
 6208W        W10259   3.056   0.796   4.031
 6209W        W10260  11.075   5.993   1.952
 6210W        W10261   8.050   4.562   1.687
 6211W        W10262   6.741   9.990   9.168
 6212W        W10263   2.167   0.457  10.413
 6213W        W10264   2.345   2.847   1.524
 6214W        W10265   3.339   9.876  11.007
 6215W        W10266   5.062  10.329   8.838
 6216W        W10267   5.601   7.429   2.936
 6217W        W10268  11.186   4.033   8.926
 6218W        W10269   8.928   7.065   9.068
 6219W        W10270   1.521   7.309   1.429
 6220W        W10271   9.464   0.544   2.245
 6221W        W10272  10.977   5.264   0.922
 6222W        W10273   7.443   4.117   3.687
 6223W        W10274   5.081   9.543  10.575
 6224W        W10275   9.523   7.091   8.802
 6225W        W10276   9.394   8.876   2.443
 6226W        W10277  10.124   7.627   9.445
 6227W        W10278   4.643  10.712   0.815
 6228W        W10279  11.318   1.754   2.181
 6229W        W10280   7.282   6.780  10.034
 6230W        W10281   5.488   1.966  11.021
 6231W        W10282   6.597   9.503   0.025
 6232W        W10283   8.135   8.789   2.476
 6233W        W10284   7.099   7.507   1.814
 6234W        W10285   4.183   6.143   0.658
 6235W        W10286  10.787   3.982   2.360
 6236W        W10287   4.774   3.477  11.279
 6237W        W10288   9.354   5.075   9.487
 6238W        W10289  11.042   8.378   1.711
 6239W        W10290   7.904   8.283   1.779
 6240W        W10291   2.982   6.668   3.265
 6241W        W10292   0.874   9.688   3.350
 6242W        W10293  10.757   9.762   2.780
 6243W        W10294   2.224   5.743   2.741
 6244W        W10295   1.252   3.323   0.586
 6245W        W10296   3.412   2.885   1.295
 6246W        W10297   9.564   6.589   8.689
 6247W        W10298   7.431   6.230   1.639
 6248W        W10299  10.409   9.954  11.375
 6249W        W10300   2.540  10.451   9.187
 6250W        W10301   0.646   7.876  11.364
 6251W        W10302  11.377  10.321  10.647
 6252W        W10303   8.908  10.969  11.916
 6253W        W10304   4.702   6.733   2.034
 6254W        W10305   3.632   0.127   1.744
 6255W        W10306   8.979   3.565   3.364
 6256W        W10307   7.067   1.189   0.325
 6257W        W10308   4.671   9.342   3.057
 6258W        W10309   3.197  10.879   9.869
 6259W        W10310   3.968   5.821   9.950
 6260W        W10311   5.875   4.153   1.909
 6261W        W10312   5.493   9.842  10.479
 6262W        W10313   3.642   8.882   1.439
 6263W        W10314  11.417   0.233   9.054
 6264W        W10315   2.824   7.904  10.386
 6265W        W10316  11.061   1.688   8.797
 6266W        W10317   2.171   4.405   1.953
 6267W        W10318   9.299   7.334   8.376
 6268W        W10319   4.236   4.173   9.888
 6269W        W10320   1.386   9.948  10.749
 6270W        W10321   7.670   3.767   0.338
 6271W        W10322   9.378   6.190   9.994
 6272W        W10323  11.146   8.858   1.911
 6273W        W10324   8.652  10.854  11.323
 6274W        W10325   4.811   1.259   9.794
 6275W        W10326   7.524   4.513   2.349
 6276W        W10327   4.948   4.550   0.213
 6277W        W10328   9.145   1.312   9.529
 6278W        W10329  10.749   9.160  10.467
 6279W        W10330   0.617   7.876   3.646
 6280W        W10331   0.688   3.202   8.632
 6281W        W10332   2.142   8.413  11.283
 6282W        W10333  11.430  10.834  10.634
 6283W        W10334   4.983   3.512  10.058
 6284W        W10335   7.681   5.974  11.946
 6285W        W10336   4.327  11.442   1.250
 6286W        W10337   0.362   7.651  10.976
 6287W        W10338   1.647   7.446  10.484
 6288W        W10339   6.235   7.628   8.719
 6289W        W10340   7.112   8.680  10.314
 6290W        W10341   5.630  11.454   9.913
 6291W        W10342   8.514   1.936  10.429
 6292W        W10343   3.042  11.402  11.629
 6293W        W10344  11.021   2.190  10.166
 6294W        W10345   1.729   6.898   1.721
 6295W        W10346   3.401   0.239   9.907
 6296W        W10347  10.873   3.077   8.771
 6297W        W10348   8.395   1.793  11.957
 6298W        W10349   1.926   8.564   8.944
 6299W        W10350   4.192   7.459   2.234
 6300W        W10351   7.255   1.262   9.972
 6301W        W10352   4.218  11.030   9.807
 6302W        W10353   5.768   6.731  11.493
 6303W        W10354   5.163   5.538   0.755
 6304W        W10355   6.777   3.429   1.071
 6305W        W10356   0.507   5.168   2.518
 6306W        W10357  10.872  11.363   9.540
 6307W        W10358   7.480   9.616  11.939
 6308W        W10359   8.897   6.913   3.326
 6309W        W10360   9.550   0.971   2.564
 6310W        W10361   2.183   7.130   1.862
 6311W        W10362  10.981   5.128   1.908
 6312W        W10363   4.518   0.799   2.905
 6313W        W10364   0.295  10.551   9.186
 6314W        W10365   2.960   6.741  10.338
 6315W        W10366   1.961   4.751   8.545
 6316W        W10367   1.061  10.548   3.118
 6317W        W10368   9.818  11.004   9.434
 6318W        W10369   1.901   9.579  10.081
 6319W        W10370  11.339   2.714   0.056
 6320W        W10371   8.413   6.353   9.611
 6321W        W10372   8.086  10.920   8.582
 6322W        W10373   8.359   8.027   1.760
 6323W        W10374   2.145   6.747   3.128
 6324W        W10375   1.168   5.811   9.179
 6325W        W10376   2.732   5.087   9.536
 6326W        W10377   3.131   0.379  11.440
 6327W        W10378   1.777   5.959   0.186
 6328W        W10379   6.224  11.244   0.171
 6329W        W10380   0.473   9.935   1.336
 6330W        W10381   1.209  10.396  11.393
 6331W        W10382   0.449   5.286   3.493
 6332W        W10383   6.253   1.081   0.208
 6333W        W10384   0.035   1.291   2.875
 6334W        W10385   3.156  10.995   8.918
 6335W        W10386   5.561  11.423  10.829
 6336W        W10387   3.744  10.735   0.843
 6337W        W10388   5.074   5.049   0.036
 6338W        W10389   0.906   6.274   9.052
 6339W        W10390   0.821  10.237   3.521
 6340W        W10391   9.169   2.150  10.083
 6341W        W10392   0.207   5.634  11.220
 6342W        W10393   9.892   2.896   0.634
 6343W        W10394   8.579   8.488   3.012
 6344W        W10395  10.434   1.472   0.520
 6345W        W10396   6.135   6.925   0.398
 6346W        W10397   4.652  10.597   2.242
 6347W        W10398   1.796   7.252   9.776
 6348W        W10399  10.279   9.155   3.206
 6349W        W10400   9.960   1.811   9.281
 6350W        W10401   4.616  11.306  10.041
 6351W        W10402   7.026   0.908   8.788
 6352W        W10403   8.832   5.299   2.737
 6353W        W10404   2.681   1.715   3.218
 6354W        W10405   3.117   3.349   8.859
 6355W        W10406   0.838   4.839   9.999
 6356W        W10407   9.858   5.685  11.118
 6357W        W10408   2.673   9.602   8.945
 6358W        W10409   2.752   7.525   8.301
 6359W        W10410   3.143   6.269   0.789
 6360W        W10411   4.046   5.150   2.532
 6361W        W10412  10.366   7.915   1.922
 6362W        W10413   9.002   4.707   0.786
 6363W        W10414   7.102  10.325   1.895
 6364W        W10415   5.201   1.674   0.265
 6365W        W10416   7.040   2.455   0.814
 6366W        W10417   4.412   9.578   9.844
 6367W        W10418   5.658   3.596   1.173
 6368W        W10419   3.238   2.139   0.868
 6369W        W10420   2.344   8.908   0.958
 6370W        W10421  10.873   1.775  11.905
 6371W        W10422   7.909   8.913   8.768
 6372W        W10423   4.124   6.155  11.604
 6373W        W10424   2.035   9.322  10.958
 6374W        W10425   0.683   8.837   0.023
 6375W        W10426   7.376   5.548  11.988
 6376W        W10427   3.324   5.788   0.843
 6377W        W10428   0.486   6.203   2.197
 6378W        W10429   0.459   6.091  11.262
 6379W        W10430   1.786   6.036   1.172
 6380W        W10431   8.619   3.746   9.561
 6381W        W10432   9.611   5.254   9.905
 6382W        W10433   0.346   7.497   3.408
 6383W        W10434  10.514   0.455  11.183
 6384W        W10435  11.112   6.964   1.250
 6385W        W10436   3.427  10.007   0.442
 6386W        W10437   0.464   2.172   0.749
 6387W        W10438   3.482   5.245  10.186
 6388W        W10439   1.824   1.846   2.202
 6389W        W10440  10.799   7.026   3.542
 6390W        W10441   6.349   3.620  10.124
 6391W        W10442   0.838  10.555   8.511
 6392W        W10443   7.200   8.455   1.421
 6393W        W10444   3.346   4.410   0.562
 6394W        W10445   4.534   6.728  10.441
 6395W        W10446   6.484   4.690  10.983
 6396W        W10447   9.327  11.372   8.936
 6397W        W10448   8.364   7.405   3.250
 6398W        W10449  10.783   0.795   2.891
 6399W        W10450   9.503   9.175  11.410
 6400W        W10451   9.930   5.733   1.468
 6401W        W10452  10.710   7.627   0.994
 6402W        W10453   8.943  10.397  11.321
 6403W        W10454   5.230   1.652  10.291
 6404W        W10455   6.837   3.205   3.466
 6405W        W10456   0.209   5.512   8.981
 6406W        W10457   1.678   5.802  11.720
 6407W        W10458   9.007   0.274   2.334
 6408W        W10459   2.145   5.689   1.189
 6409W        W10460   1.461   2.386   0.590
 6410W        W10461  10.334   8.108   9.523
 6411W        W10462   0.474   0.773  10.991
 6412W        W10463  11.068  11.085   0.752
 6413W        W10464   1.910   2.727   0.699
 6414W        W10465   7.130  11.284  10.880
 6415W        W10466  10.261   9.604   0.918
 6416W        W10467   7.858   2.780  10.861
 6417W        W10468   5.541   6.215   0.658
 6418W        W10469   9.439   3.090   1.809
 6419W        W10470   6.043   8.476   9.001
 6420W        W10471  11.496   6.094  11.460
 6421W        W10472  10.931   0.454  11.555
 6422W        W10473   9.217   9.317   0.778
 6423W        W10474   5.146   9.430   0.535
 6424W        W10475   6.259   8.667   3.118
 6425W        W10476   5.555   4.521  10.974
 6426W        W10477   5.451   0.739   1.485
 6427W        W10478   9.289   2.333   2.974
 6428W        W10479   1.274   8.425   2.377
 6429W        W10480   4.239   3.106  11.961
 6430W        W10481   1.016   2.178   9.868
 6431W        W10482   1.810   7.797   0.385
 6432W        W10483   4.080   2.229   0.378
 6433W        W10484   2.819   8.525   9.136
 6434W        W10485   8.583  10.803   1.434
 6435W        W10486   7.937   8.891  10.581
 6436W        W10487   8.613   8.091   0.672
 6437W        W10488   7.000   7.944   2.081
 6438W        W10489   7.206   1.917   2.135
 6439W        W10490  11.260   3.230   2.297
 6440W        W10491   8.496   2.903   2.278
 6441W        W10492   4.222   9.576   3.176
 6442W        W10493   3.082   4.234   9.377
 6443W        W10494  10.415   1.635   9.466
 6444W        W10495   9.908   2.594  10.788
 6445W        W10496   2.808   9.696  10.443
 6446W        W10497   0.717   8.072   8.795
 6447W        W10498   3.713   8.676   8.226
 6448W        W10499   2.308   5.933  11.418
 6449W        W10500  11.435   7.978  10.332
 6450W        W10501  10.566   2.639  11.351
 6451W        W10502   3.926   9.580   9.943
 6452W        W10503   2.368   4.361   2.724
 6453W        W10504  11.275   6.524  11.750
 6454W        W10505  10.719  10.246   2.691
 6455W        W10506   9.321   5.254   2.909
 6456W        W10507   0.279   6.977   3.446
 6457W        W10508   5.507   0.273   9.148
 6458W        W10509   3.199   7.632   9.483
 6459W        W10510  11.483  10.765  11.551
 6460W        W10511   8.075   9.905   8.425
 6461W        W10512   1.083   1.915   1.917
 6462W        W10513   5.169   4.141  11.605
 6463W        W10514   5.682   5.264   2.265
 6464W        W10515   1.329   2.663   2.471
 6465W        W10516   9.973   1.273  10.546
 6466W        W10517   9.847   0.728  10.036
 6467W        W10518   4.048   8.458   2.424
 6468W        W10519   8.819   0.529   0.352
 6469W        W10520   8.965   4.590  10.464
 6470W        W10521   4.975   2.126   2.748
 6471W        W10522   8.232  10.028  11.414
 6472W        W10523  10.702   9.481   0.166
 6473W        W10524   1.541   0.682  10.849
 6474W        W10525   7.412   6.599  10.951
 6475W        W10526   8.547   6.543   3.651
 6476W        W10527   3.881   3.012   3.185
 6477W        W10528   9.432   0.169  11.798
 6478W        W10529   8.384   8.601  11.438
 6479W        W10530   4.767   5.698   1.044
 6480W        W10531   0.646  10.559   2.831
 6481W        W10532  10.495   6.486   8.841
 6482W        W10533   0.460   3.664   0.671
 6483W        W10534   0.704   2.185   9.438
 6484W        W10535   1.258   0.741   2.356
 6485W        W10536  10.555   9.287  11.702
 6486W        W10537   4.923   8.355   3.381
 6487W        W10538   7.615   7.514   9.901
 6488W        W10539   1.672   1.967  10.923
 6489W        W10540   4.634   7.546   0.119
 6490W        W10541   0.784  10.188  11.655
 6491W        W10542   2.104   3.313   0.725
 6492W        W10543   0.470  11.411   1.449
 6493W        W10544   1.864   5.539  11.314
 6494W        W10545   4.939   4.095   1.954
 6495W        W10546   3.793   7.032   1.011
 6496W        W10547  10.644   5.884   2.852
 6497W        W10548   8.218   4.376   0.291
 6498W        W10549   0.831   8.889   9.726
 6499W        W10550   7.376  11.266   3.113
 6500W        W10551   9.106   1.862   0.612
 6501W        W10552   9.509  11.335   3.463
 6502W        W10553   2.715   7.656   1.184
 6503W        W10554   6.945   5.004   1.640
 6504W        W10555  11.404   3.408   0.682
 6505W        W10556   2.478   7.083   1.074
 6506W        W10557   0.307   0.669   0.636
 6507W        W10558   5.257   9.951   9.630
 6508W        W10559   3.612   3.035   1.911
 6509W        W10560   5.662   5.344   0.803
 6510W        W10561   7.397   9.411   2.409
 6511W        W10562   1.483   2.304  10.195
 6512W        W10563   3.645   6.602   8.591
 6513W        W10564   2.047   7.435   2.367
 6514W        W10565  11.263  10.043   2.720
 6515W        W10566   4.569   1.349   2.250
 6516W        W10567   6.966   4.183   0.023
 6517W        W10568   0.722   5.359   9.986
 6518W        W10569   6.685   1.698  11.192
 6519W        W10570   8.530  11.308   3.165
 6520W        W10571   7.142   1.997   0.628
 6521W        W10572   1.449   0.716   0.036
 6522W        W10573   7.771   9.923  11.223
 6523W        W10574   4.108   0.453  12.000
 6524W        W10575   8.086   8.192   9.965
 6525W        W10576   0.362   6.494   3.799
 6526W        W10577   4.544   5.745  11.498
 6527W        W10578   4.028  10.526   9.756
 6528W        W10579   5.667   2.349  10.747
 6529W        W10580   8.901   9.263   9.360
 6530W        W10581   1.870   6.946   2.234
 6531W        W10582   0.397  10.820  11.833
 6532W        W10583   3.061  10.861  11.272
 6533W        W10584   0.798   9.957  10.564
 6534W        W10585   2.538   5.388   8.181
 6535W        W10586   6.627   6.693  11.297
 6536W        W10587   3.185   3.301  10.930
 6537W        W10588  10.836  10.292  11.794
 6538W        W10589   1.262  11.161   2.719
 6539W        W10590   3.764  10.948  10.526
 6540W        W10591   7.585   1.987  11.409
 6541W        W10592   4.017  11.461  11.826
 6542W        W10593   0.880   0.838   1.296
 6543W        W10594   1.892   8.628   9.494
 6544W        W10595   3.642   6.177   0.984
 6545W        W10596   9.772   1.696  10.752
 6546W        W10597   3.280   5.605  11.968
 6547W        W10598   0.596   7.262   2.162
 6548W        W10599   5.793   7.009   2.660
 6549W        W10600   9.768  11.420  11.495
 6550W        W10601   5.275   6.715   1.360
 6551W        W10602   6.239   4.119   4.114
 6552W        W10603   1.561   5.978  11.248
 6553W        W10604   6.561   6.898   1.202
 6554W        W10605   7.139   7.657  10.431
 6555W        W10606   6.521   7.751  10.972
 6556W        W10607   4.199  11.007   2.923
 6557W        W10608   7.092   0.816  10.811
 6558W        W10609   5.946  11.494   9.460
 6559W        W10610   5.866   9.529   9.852
 6560W        W10611   3.806   8.957   2.310
 6561W        W10612   4.152   6.247   3.740
 6562W        W10613   1.278   2.800   0.369
 6563W        W10614  10.539   2.384  10.039
 6564W        W10615   0.368  11.451   2.822
 6565W        W10616   0.354   7.251   1.700
 6566W        W10617   3.183   2.118  11.967
 6567W        W10618   2.877   2.797  11.414
 6568W        W10619   5.477   9.241   3.189
 6569W        W10620   9.958   8.395   2.402
 6570W        W10621  10.853  11.151   1.678
 6571W        W10622   1.719   9.214   3.299
 6572W        W10623   2.344  11.095  10.463
 6573W        W10624   7.481   0.966   0.570
 6574W        W10625   1.628   1.324  11.437
 6575W        W10626   6.669   3.113   2.452
 6576W        W10627   2.142   6.585   8.639
 6577W        W10628   2.859   6.225  10.608
 6578W        W10629   4.214   3.523  10.804
 6579W        W10630   6.419   3.139   8.506
 6580W        W10631   2.297   2.467  10.581
 6581W        W10632   1.598   7.036   9.367
 6582W        W10633  11.250   7.624   2.698
 6583W        W10634   9.245   0.672   0.572
 6584W        W10635   1.735   8.658   2.281
 6585W        W10636   5.123  11.297   9.879
 6586W        W10637   2.213   9.487   9.146
 6587W        W10638  10.009   3.343   1.885
 6588W        W10639   8.776   3.348  11.968
 6589W        W10640   4.245   0.078   9.842
 6590W        W10641   9.855   2.444   1.841
 6591W        W10642  10.959   8.187   0.730
 6592W        W10643   9.706   0.688   0.355
 6593W        W10644   5.185   5.968   0.993
 6594W        W10645   7.741   4.547   9.041
 6595W        W10646   3.242   2.640   0.859
 6596W        W10647   5.217   6.082  10.326
 6597W        W10648  10.015   8.145  11.784
 6598W        W10649   6.120   0.952   0.870
 6599W        W10650   1.968   3.404  10.953
 6600W        W10651  10.210   6.102   0.750
 6601W        W10652   8.994   7.851  11.527
 6602W        W10653   1.373   1.958   3.261
 6603W        W10654   6.564   8.648   1.826
 6604W        W10655   6.311   7.188   8.969
 6605W        W10656  10.789   0.769   9.081
 6606W        W10657   2.767   8.865   9.542
 6607W        W10658  11.261   8.593   0.710
 6608W        W10659   3.545   4.106   0.949
 6609W        W10660   4.042   6.175   0.132
 6610W        W10661   4.406   1.779   0.698
 6611W        W10662   6.208   0.291  10.804
 6612W        W10663   4.099  11.449   0.793
 6613W        W10664   7.628   8.891   0.600
 6614W        W10665   2.012   3.022  11.719
 6615W        W10666   8.152   2.838  10.398
 6616W        W10667   1.309   3.609  11.704
 6617W        W10668   4.545   3.399  10.407
 6618W        W10669   4.886   7.150  11.387
 6619W        W10670   5.664   6.315  10.168
 6620W        W10671   7.479   3.868   1.574
 6621W        W10672   0.150   5.650   0.602
 6622W        W10673  10.280   8.590  10.110
 6623W        W10674   7.181   3.117   1.967
 6624W        W10675   6.013   2.367   9.488
 6625W        W10676   4.629   1.455   9.372
 6626W        W10677   4.481   4.701   3.230
 6627W        W10678  10.091   7.467  10.306
 6628W        W10679  10.056  10.923   0.787
 6629W        W10680  11.330   5.255  11.100
 6630W        W10681   4.805   1.326  10.315
 6631W        W10682   0.839   3.492   9.532
 6632W        W10683   5.769   4.369   0.687
 6633W        W10684  10.167   7.520   1.620
 6634W        W10685   8.704   1.241   9.769
 6635W        W10686   3.248   8.615   0.231
 6636W        W10687   5.915   1.633  11.045
 6637W        W10688   5.019   1.805   4.118
 6638W        W10689   7.004   1.321   1.193
 6639W        W10690   7.867   5.204   9.473
 6640W        W10691   0.465   3.768   2.814
 6641W        W10692   8.080  11.378  10.875
 6642W        W10693   1.913   5.247   8.970
 6643W        W10694   1.377   2.826  10.343
 6644W        W10695   8.161  11.328   9.992
 6645W        W10696   9.217   0.378   3.303
 6646W        W10697   0.421  11.217   0.175
 6647W        W10698   8.654  11.279  10.215
 6648W        W10699   2.692   6.573   8.736
 6649W        W10700  10.526   0.702  10.670
 6650W        W10701   5.724   7.677   4.052
 6651W        W10702   3.342   3.341  11.414
 6652W        W10703   4.076  10.359  10.767
 6653W        W10704   9.005   3.331   9.070
 6654W        W10705   6.206   5.720   2.731
 6655W        W10706   4.975   8.122   9.215
 6656W        W10707   9.256   5.931  10.418
 6657W        W10708  10.367   4.139   3.109
 6658W        W10709   3.424   7.398   3.024
 6659W        W10710   7.634   2.118  11.900
 6660W        W10711   3.110   1.387  11.371
 6661W        W10712  10.747  11.280   9.059
 6662W        W10713  10.386   0.961   3.165
 6663W        W10714   4.111   1.242  10.380
 6664W        W10715   5.883  10.897   2.475
 6665W        W10716   2.009  10.360   9.190
 6666W        W10717   1.367   3.723  10.688
 6667W        W10718   1.737   4.612   0.411
 6668W        W10719   4.251   1.215   1.852
 6669W        W10720   9.016   8.973   9.840
 6670W        W10721   1.301   4.578  10.810
 6671W        W10722   4.248   2.774   1.562
 6672W        W10723   0.715   4.158   1.210
 6673W        W10724   9.241  10.357   3.720
 6674W        W10725  10.736   6.069   1.555
 6675W        W10726   2.137  10.565   1.768
 6676W        W10727  11.225   0.755   3.151
 6677W        W10728   0.569   1.885  11.148
 6678W        W10729   1.928  10.024   1.425
 6679W        W10730   7.601   6.218  10.200
 6680W        W10731   4.367   6.654  11.817
 6681W        W10732   0.100   1.686  11.255
 6682W        W10733   7.611  10.328  10.963
 6683W        W10734   7.587   8.017  10.649
 6684W        W10735   3.769   4.999   9.340
 6685W        W10736   5.119   0.291   1.296
 6686W        W10737   1.229   5.934  10.860
 6687W        W10738   9.854   8.876   3.312
 6688W        W10739   7.650   5.489   0.910
 6689W        W10740   2.183   8.803   2.490
 6690W        W10741   7.497   1.719   9.191
 6691W        W10742   9.300   4.833  10.069
 6692W        W10743   7.149   7.457   9.053
 6693W        W10744  10.889  10.950   3.056
 6694W        W10745   7.973   2.306   9.667
 6695W        W10746   3.709   6.620  10.809
 6696W        W10747   7.920  10.982   3.379
 6697W        W10748   3.934  10.283  11.348
 6698W        W10749   5.396   8.471  10.954
 6699W        W10750   0.592   9.069  10.181
 6700W        W10751   0.263   3.183   2.270
 6701W        W10752   6.086   2.529  10.980
 6702W        W10753  10.627   8.404   1.356
 6703W        W10754   3.223  11.484   9.196
 6704W        W10755  10.131   4.238   9.110
 6705W        W10756   6.811   1.776   2.432
 6706W        W10757   0.818   4.579  10.478
 6707W        W10758   5.776   2.851   2.824
 6708W        W10759   9.971   2.716   0.170
 6709W        W10760   3.894   7.256   2.823
 6710W        W10761   9.963   0.295   3.511
 6711W        W10762   7.391   1.042   2.388
 6712W        W10763   7.949   3.308  11.134
 6713W        W10764   0.812   7.394   0.815
 6714W        W10765   1.867   3.109  10.158
 6715W        W10766   1.808   6.424   0.387
 6716W        W10767   5.558   1.898  11.987
 6717W        W10768   2.351   9.584  10.648
 6718W        W10769   6.178   2.509  11.502
 6719W        W10770   4.518   6.120   1.288
 6720W        W10771   4.750  11.481   0.408
 6721W        W10772   9.039   7.381  10.396
 6722W        W10773   1.646  11.007  11.535
 6723W        W10774   4.164   9.536  11.485
 6724W        W10775   6.254   8.730   2.211
 6725W        W10776   3.653   0.895  10.409
 6726W        W10777   0.937   6.274  11.830
 6727W        W10778   8.849   7.587   8.838
 6728W        W10779   5.349   4.454   0.966
 6729W        W10780   9.975   3.241   8.741
 6730W        W10781   8.070   1.940  11.560
 6731W        W10782   9.611   9.335   3.238
 6732W        W10783   5.613   4.606   1.920
 6733W        W10784   5.846   7.080   9.172
 6734W        W10785   3.399   1.933   2.173
 6735W        W10786   8.432   5.924   9.901
 6736W        W10787   8.378   8.389   9.552
 6737W        W10788   0.220   4.073   1.364
 6738W        W10789   6.128   1.609   9.051
 6739W        W10790   4.784   7.971   1.123
 6740W        W10791   8.957   9.164   3.600
 6741W        W10792   9.996   7.975   1.524
 6742W        W10793   6.818  10.867   2.208
 6743W        W10794   9.417   3.358   8.736
 6744W        W10795   8.488   0.215   3.802
 6745W        W10796   2.959   0.702   0.282
 6746W        W10797   6.020   2.147   9.937
 6747W        W10798   4.941   2.634   1.788
 6748W        W10799   7.050   8.670   9.494
 6749W        W10800   7.802  10.383  11.436
 6750W        W10801   5.700   0.742   2.734
 6751W        W10802  11.399   5.185   9.906
 6752W        W10803   7.441  10.035  11.613
 6753W        W10804   7.122  11.175   1.315
 6754W        W10805  11.395   3.828  11.371
 6755W        W10806   9.865   9.997  11.929
 6756W        W10807   7.129   8.903   0.473
 6757W        W10808   2.165   4.983  11.743
 6758W        W10809   4.728   8.900   2.807
 6759W        W10810   2.698   9.509   1.704
 6760W        W10811  10.738   7.714   2.248
 6761W        W10812   1.751   2.686   9.878
 6762W        W10813   5.385   9.366   9.905
 6763W        W10814   2.319  10.031  11.396
 6764W        W10815  11.436   8.106   0.910
 6765W        W10816   8.207   1.220   0.635
 6766W        W10817   9.974   7.601   0.323
 6767W        W10818   5.097   7.239  10.910
 6768W        W10819   3.537   6.904   2.794
 6769W        W10820   8.628   3.027   1.241
 6770W        W10821   7.764   3.585   1.245
 6771W        W10822   1.374   7.168  11.559
 6772W        W10823   0.902   3.801   0.421
 6773W        W10824   2.794   2.854   0.993
 6774W        W10825  10.313  11.006  11.854
 6775W        W10826   6.508   2.338  10.753
 6776W        W10827   9.455   6.948   9.691
 6777W        W10828   4.766   9.908  10.963
 6778W        W10829   6.586   0.803   3.876
 6779W        W10830  10.517   7.282   1.338
 6780W        W10831  11.357   0.154   9.574
 6781W        W10832   5.196   9.003  10.747
 6782W        W10833   2.348   1.963  10.521
 6783W        W10834   5.080   9.362   2.436
 6784W        W10835   3.162   5.099   3.799
 6785W        W10836  11.302   5.273   0.506
 6786W        W10837   8.156   5.979   8.444
 6787W        W10838   9.762   0.499   1.821
 6788W        W10839  10.485   3.868  10.895
 6789W        W10840   1.086   6.799   8.715
 6790W        W10841   2.119   7.593   3.670
 6791W        W10842   4.479   1.445  10.678
 6792W        W10843   6.054   7.528  10.257
 6793W        W10844   2.715   7.523   9.326
 6794W        W10845   4.378  10.708   9.388
 6795W        W10846   4.797   7.158  10.341
 6796W        W10847   7.928  10.332   1.558
 6797W        W10848   7.972   1.235   1.420
 6798W        W10849   7.150   6.787   2.691
 6799W        W10850   9.180   8.431   1.268
 6800W        W10851   5.770   2.628   0.455
 6801W        W10852   1.885   2.154  10.492
 6802W        W10853   3.032   2.495  11.033
 6803W        W10854  10.429   7.449   3.000
 6804W        W10855  11.060   0.412   1.422
 6805W        W10856   5.913   4.294  11.374
 6806W        W10857   7.505   5.351   1.370
 6807W        W10858   7.154   9.528   2.869
 6808W        W10859   9.374   8.873   1.498
 6809W        W10860   5.629  10.746   3.446
 6810W        W10861   7.970   2.411   9.160
 6811W        W10862   3.689   7.038   0.028
 6812W        W10863   2.268  11.066   1.839
 6813W        W10864  11.426   0.509   0.945
 6814W        W10865   3.285   8.886   1.034
 6815W        W10866   7.351   6.997   8.850
 6816W        W10867   8.912   7.628   9.964
 6817W        W10868  10.543   9.081   8.731
 6818W        W10869   4.831   6.659  11.274
 6819W        W10870   0.395   4.881   1.624
 6820W        W10871   2.428   6.453  11.483
 6821W        W10872   9.476   9.749   2.920
 6822W        W10873   8.810   5.751  11.903
 6823W        W10874  10.896   0.355   9.414
 6824W        W10875   5.000   7.492   0.954
 6825W        W10876   2.397  10.277   0.842
 6826W        W10877  10.326   6.283   1.262
 6827W        W10878   5.310   9.801   0.221
 6828W        W10879  11.265   4.677   3.300
 6829W        W10880   5.232   0.801  11.773
 6830W        W10881   5.149   2.638   3.618
 6831W        W10882   5.747   4.102  10.747
 6832W        W10883   9.372  10.240   2.844
 6833W        W10884   1.842   7.811   2.703
 6834W        W10885  10.771   7.113   0.903
 6835W        W10886   9.872   4.730   0.205
 6836W        W10887   9.967   1.198   2.075
 6837W        W10888   3.194   4.752   0.906
 6838W        W10889   2.966   3.431  11.748
 6839W        W10890   0.662  10.442   0.088
 6840W        W10891   6.676   8.675   2.724
 6841W        W10892   8.471   9.475  10.137
 6842W        W10893   1.806   5.547   2.998
 6843W        W10894  11.396   2.888   2.692
 6844W        W10895   5.479  11.312   9.408
 6845W        W10896   8.969   9.863   0.806
 6846W        W10897   8.406   3.469  10.915
 6847W        W10898   6.548   1.681  10.203
 6848W        W10899   0.830   5.323  11.884
 6849W        W10900   2.694   8.157   1.293
 6850W        W10901   9.382   4.228  10.365
 6851W        W10902   7.491   6.697   0.329
 6852W        W10903  10.011   3.768   1.109
 6853W        W10904   2.164   7.407  10.578
 6854W        W10905   9.251   7.910   9.728
 6855W        W10906   8.462   9.892   9.835
 6856W        W10907   2.687   3.783  11.985
 6857W        W10908   1.005   0.721  10.858
 6858W        W10909  10.542  10.313   9.633
 6859W        W10910   6.264   1.298   8.668
 6860W        W10911   0.499   6.030   3.088
 6861W        W10912   0.818   4.540   9.535
 6862W        W10913   7.480   1.420   1.414
 6863W        W10914   9.407   5.833  11.322
 6864W        W10915  10.852   1.333  11.632
 6865W        W10916   8.888   4.779  11.790
 6866W        W10917   2.494   3.313  10.869
 6867W        W10918   6.377   1.361  10.928
 6868W        W10919   7.473   7.374   0.811
 6869W        W10920   1.329  10.911   2.283
 6870W        W10921   8.907   7.416   3.285
 6871W        W10922   5.508  10.516   2.467
 6872W        W10923   4.130  10.367  11.821
 6873W        W10924   1.348   1.808   9.960
 6874W        W10925   3.785   4.153   2.811
 6875W        W10926   5.044   6.044  11.989
 6876W        W10927   9.451   8.407   2.660
 6877W        W10928   7.660   5.554   2.207
 6878W        W10929   1.195  10.065   3.237
 6879W        W10930   5.551   7.551   0.925
 6880W        W10931  10.400  10.052   3.117
 6881W        W10932   4.265   5.231   0.550
 6882W        W10933   4.248   2.194   9.299
 6883W        W10934   8.912   7.153   2.818
 6884W        W10935   5.786   3.678  11.495
 6885W        W10936   7.926   2.760   1.703
 6886W        W10937   3.195   2.333  11.502
 6887W        W10938   7.502  10.023   1.814
 6888W        W10939   2.324   6.648   9.119
 6889W        W10940   9.026   9.543   1.715
 6890W        W10941   4.129  10.279   9.294
 6891W        W10942   3.176   6.185   1.787
 6892W        W10943   1.684   8.142  11.449
 6893W        W10944   6.133   0.214   1.388
 6894W        W10945   2.949   3.320   2.283
 6895W        W10946   4.169  11.437   8.903
 6896W        W10947   8.950   8.727   3.285
 6897W        W10948   7.163   8.156  10.347
 6898W        W10949   7.274   2.238   1.204
 6899W        W10950  10.075   8.090   9.961
 6900W        W10951   5.665   1.766   0.490
 6901W        W10952   0.811  11.354  10.904
 6902W        W10953   0.684  10.730   9.466
 6903W        W10954   3.346  11.253   2.604
 6904W        W10955   0.317   7.879   9.086
 6905W        W10956   2.003   7.600  10.130
 6906W        W10957   4.696   1.903  10.511
 6907W        W10958   7.566  10.434   1.184
 6908W        W10959   5.279   8.855   9.890
 6909W        W10960   7.180   5.342   0.706
 6910W        W10961   8.016   7.454   0.423
 6911W        W10962   5.610   3.112   0.412
 6912W        W10963  10.952   8.958  10.976
 6913W        W10964   3.664  10.419   9.423
 6914W        W10965   8.044   6.338   9.257
 6915W        W10966  10.296   1.994  10.582
 6916W        W10967   2.843   5.663   3.785
 6917W        W10968   6.104   0.269   0.052
 6918W        W10969   2.368   0.915  11.255
 6919W        W10970   8.129  10.322  11.008
 6920W        W10971   2.667  10.174  10.489
 6921W        W10972   1.431   1.509  10.829
 6922W        W10973   9.530   0.327  11.300
 6923W        W10974   7.164   9.201   9.072
 6924W        W10975   3.334   5.240   0.932
 6925W        W10976   9.886   7.216   0.011
 6926W        W10977   7.483   1.804   0.977
 6927W        W10978   6.908   7.419  10.813
 6928W        W10979  11.219   4.729  11.417
 6929W        W10980   9.249   7.602   2.064
 6930W        W10981   2.845   9.949  10.922
 6931W        W10982   7.416  10.081   3.660
 6932W        W10983  10.816   5.520   0.378
 6933W        W10984  10.449   8.841  10.759
 6934W        W10985   0.894   0.021   2.734
 6935W        W10986  11.052   3.364  11.291
 6936W        W10987  10.719   5.115   2.774
 6937W        W10988   4.260  10.016   0.167
 6938W        W10989   8.078  11.068  11.408
 6939W        W10990   0.284   6.747   9.643
 6940W        W10991   9.741   9.475   9.634
 6941W        W10992   7.346   2.447  10.386
 6942W        W10993   5.321   4.300   3.141
 6943W        W10994   2.668  11.338   9.872
 6944W        W10995   3.461   0.990  10.873
 6945W        W10996   1.662   5.734   8.987
 6946W        W10997   1.650   4.032   9.134
 6947W        W10998   8.428   9.250   1.435
 6948W        W10999   3.392   4.710   1.506
 6949W        W11000   1.618   6.878   1.174
 6950W        W11001   6.805   8.820   9.920
 6951W        W11002   9.830   9.474   1.197
 6952W        W11003   9.019   9.968   1.423
 6953W        W11004   3.118   3.830   2.327
 6954W        W11005   7.352   2.669  10.842
 6955W        W11006   8.433   5.226  10.458
 6956W        W11007   8.363   8.549   0.878
 6957W        W11008   7.487   5.669   0.462
 6958W        W11009  11.344   0.330   3.463
 6959W        W11010   8.027   0.728   1.343
 6960W        W11011   0.438   4.007  10.898
 6961W        W11012  10.907   2.472  10.960
 6962W        W11013   6.525   7.677   9.643
 6963W        W11014   4.300   1.346   8.965
 6964W        W11015   6.078   5.017   9.608
 6965W        W11016   5.255   1.652   1.239
 6966W        W11017   5.813   9.997   9.085
 6967W        W11018   6.357  11.426  10.436
 6968W        W11019   4.385   5.614   1.375
 6969W        W11020   8.840   0.973  11.929
 6970W        W11021   3.335   2.204   8.749
 6971W        W11022   9.935   5.972   8.805
 6972W        W11023   7.470   1.730  10.991
 6973W        W11024   3.808  11.424  10.004
 6974W        W11025  10.244   5.337  11.001
 6975W        W11026   7.485   1.310   1.916
 6976W        W11027   9.816   7.517   2.287
 6977W        W11028   5.534   8.534  11.990
 6978W        W11029   5.797  11.023   9.676
 6979W        W11030   6.201   4.096   9.936
 6980W        W11031   5.490  11.422  11.761
 6981W        W11032   8.523   0.799   0.705
 6982W        W11033   5.729   8.889   9.085
 6983W        W11034   9.553  11.274   9.785
 6984W        W11035   2.740   0.699   3.136
 6985W        W11036   4.530   9.271  10.237
 6986W        W11037   6.647   5.176  11.059
 6987W        W11038   4.765   3.286   2.303
 6988W        W11039   2.444   5.175   9.945
 6989W        W11040  11.250   6.511   1.850
 6990W        W11041   2.865   1.938   2.176
 6991W        W11042   3.726   6.239  10.183
 6992W        W11043  11.264   7.378  10.152
 6993W        W11044   4.598  11.423   3.454
 6994W        W11045  10.316   2.044   1.187
 6995W        W11046   9.535   0.371   8.954
 6996W        W11047   8.315   0.704   9.798
 6997W        W11048   4.032  10.174   3.800
 6998W        W11049   1.205   4.555  11.696
 6999W        W11050   5.115   7.105   9.934
 7000W        W11051   6.333  11.160   0.648
 7001W        W11052   2.670   1.385  11.763
 7002W        W11053  10.326   9.560   8.513
 7003W        W11054   9.115   2.848   8.892
 7004W        W11055   1.903   0.108   8.986
 7005W        W11056   7.581   1.057   8.911
 7006W        W11057   3.785   2.877  11.841
 7007W        W11058   6.952   4.065   9.488
 7008W        W11059   2.732   2.947  10.075
 7009W        W11060   0.279   4.028   9.862
 7010W        W11061  10.207   1.932   0.709
 7011W        W11062   1.832  10.776   3.116
 7012W        W11063   8.975   4.126  10.678
 7013W        W11064   2.074   6.338   3.466
 7014W        W11065   2.759  11.220   1.679
 7015W        W11066  10.294   5.698   0.373
 7016W        W11067  10.837   1.338   1.547
 7017W        W11068   9.866   1.174   0.421
 7018W        W11069   1.026   7.051   0.466
 7019W        W11070   0.939   5.004   2.756
 7020W        W11071   7.289   7.151  10.580
 7021W        W11072  11.426   1.038   0.906
 7022W        W11073   2.922  11.296   0.119
 7023W        W11074   5.769   6.673   2.249
 7024W        W11075   1.862   0.880  11.283
 7025W        W11076   4.023   8.391  11.203
 7026W        W11077   7.355   2.351   0.292
 7027W        W11078   0.847   4.659   0.457
 7028W        W11079   1.325   9.791   8.857
 7029W        W11080   8.647   2.948   9.108
 7030W        W11081   6.671   8.984   3.354
 7031W        W11082   4.300   5.654   0.850
 7032W        W11083   6.060   3.693  10.687
 7033W        W11084   5.522   6.294   1.173
 7034W        W11085   4.991   3.663   8.680
 7035W        W11086   5.989   9.962   9.583
 7036W        W11087   6.479  10.867   1.824
 7037W        W11088  11.276   1.691   2.686
 7038W        W11089   7.617   2.772   0.431
 7039W        W11090   0.314   8.122   2.217
 7040W        W11091   9.045   4.647   9.112
 7041W        W11092   1.348  10.801   8.873
 7042W        W11093   7.826   0.215   2.210
 7043W        W11094   3.405   8.978   0.547
 7044W        W11095   7.966   3.653   0.782
 7045W        W11096   5.127   9.753  10.101
 7046W        W11097   8.842   0.889   1.952
 7047W        W11098  10.034  10.991   2.937
 7048W        W11099   5.658   1.280   3.508
 7049W        W11100   5.996   8.926  11.498
 7050W        W11101   5.625   4.675   2.424
 7051W        W11102   8.394   0.776   0.195
 7052W        W11103   8.040   5.815   3.656
 7053W        W11104   0.631   0.903   9.064
 7054W        W11105   2.849   4.218  11.713
 7055W        W11106  11.205   5.983   2.821
 7056W        W11107   7.501   8.047   1.573
 7057W        W11108   5.357   0.316  10.515
 7058W        W11109   5.700   6.590   9.149
 7059W        W11110   7.886   7.866   2.086
 7060W        W11111   8.902  10.421  10.338
 7061W        W11112   7.921  10.775  11.785
 7062W        W11113  10.982   0.307   0.520
 7063W        W11114   3.547   3.999  10.584
 7064W        W11115  10.182   1.478   0.961
 7065W        W11116   9.991   6.521  10.410
 7066W        W11117   4.180   2.706   3.521
 7067W        W11118   6.621   1.783   8.920
 7068W        W11119   5.721   8.174   9.514
 7069W        W11120   3.202   9.385   1.819
 7070W        W11121   7.546  11.457   1.199
 7071W        W11122   1.770   8.692   3.245
 7072W        W11123   7.335   8.345  11.782
 7073W        W11124   6.797  10.382  11.316
 7074W        W11125   0.847   8.542  10.789
 7075W        W11126   5.753  11.452   0.236
 7076W        W11127   6.729   6.335  11.767
 7077W        W11128   9.691   8.210   3.679
 7078W        W11129   5.776   8.819   0.953
 7079W        W11130  10.533   5.539   0.845
 7080W        W11131   9.136  10.478   3.208
 7081W        W11132   7.905  11.000   9.646
 7082W        W11133   6.645  10.889   9.242
 7083W        W11134   2.456   7.052  10.336
 7084W        W11135  10.750   0.338   0.053
 7085W        W11136   6.663   9.114  10.855
 7086W        W11137   4.067   2.823   2.046
 7087W        W11138   8.150   9.871   1.370
 7088W        W11139   5.088   4.513   2.247
 7089W        W11140   0.872   4.153   1.697
 7090W        W11141   6.903   2.485  10.005
 7091W        W11142   2.639   4.942  10.390
 7092W        W11143   8.275   0.357  11.865
 7093W        W11144   7.643   9.012   9.224
 7094W        W11145   3.725   5.743   0.183
 7095W        W11146  10.366   6.106   3.236
 7096W        W11147   0.024  10.806   1.385
 7097W        W11148   4.712   0.329   9.913
 7098W        W11149   5.975   3.379   8.560
 7099W        W11150   8.417  10.528   0.916
 7100W        W11151   4.728   4.132   0.446
 7101W        W11152  11.488   1.816   1.189
 7102W        W11153  10.803   7.362   2.603
 7103W        W11154   5.564   9.402   8.983
 7104W        W11155   1.425   9.141   0.204
 7105W        W11156   9.422   0.483  10.353
 7106W        W11157   2.633   7.050  11.208
 7107W        W11158   2.850  10.933  11.749
 7108W        W11159   2.142   7.352   9.412
 7109W        W11160   1.679   9.558   0.756
 7110W        W11161   0.963  10.121  11.021
 7111W        W11162   9.979   2.853  11.683
 7112W        W11163   2.355   1.554   9.617
 7113W        W11164   8.592   3.366   1.610
 7114W        W11165   0.129  10.507   2.801
 7115W        W11166  11.400   8.458   2.256
 7116W        W11167   8.459   7.094   9.400
 7117W        W11168   5.243   1.657   2.664
 7118W        W11169   9.857   6.131   3.085
 7119W        W11170   7.967   6.968   3.106
 7120W        W11171   6.984   6.594   8.781
 7121W        W11172   1.756   6.469   0.889
 7122W        W11173   6.505   1.819  10.693
 7123W        W11174   2.724   5.739  10.738
 7124W        W11175   6.074  11.300  10.845
 7125W        W11176   1.120   5.740  10.056
 7126W        W11177   1.271   8.865  10.034
 7127W        W11178   5.068   2.970   0.913
 7128W        W11179   0.743   6.499  11.350
 7129W        W11180   8.468   1.138   1.630
 7130W        W11181   7.853   7.405   2.326
 7131W        W11182   2.770   2.561   3.359
 7132W        W11183   5.559   1.349  11.833
 7133W        W11184   2.017   7.672  11.426
 7134W        W11185   8.430   0.745  11.150
 7135W        W11186   0.473   6.723  10.530
 7136W        W11187   1.950  11.138   1.150
 7137W        W11188   0.251  11.106  10.275
 7138W        W11189   4.013   4.562   9.551
 7139W        W11190  10.886   9.037   0.024
 7140W        W11191   5.110   5.565  11.765
 7141W        W11192   9.843   5.269   3.041
 7142W        W11193   6.570   9.590   8.479
 7143W        W11194  10.024   1.776   9.780
 7144W        W11195   4.694   5.715   0.534
 7145W        W11196   1.335   8.387  10.201
 7146W        W11197   8.359  11.282   9.277
 7147W        W11198   3.133   1.025  10.092
 7148W        W11199   8.579   5.747   8.209
 7149W        W11200   3.561   4.160   9.205
 7150W        W11201   2.339  10.050  10.869
 7151W        W11202   1.767   5.026   9.409
 7152W        W11203   8.062   6.001  10.243
 7153W        W11204   6.983   0.954   2.115
 7154W        W11205   5.262   0.904   2.939
 7155W        W11206   4.609   3.211   0.824
 7156W        W11207   3.506   0.047  11.422
 7157W        W11208   8.049   0.068  11.390
 7158W        W11209   4.618   0.337   8.540
 7159W        W11210   8.508   7.643   0.400
 7160W        W11211  10.319   2.697   1.374
 7161W        W11212   8.565   1.178  11.367
 7162W        W11213   5.355  11.429   3.195
 7163W        W11214   4.907   0.666   3.209
 7164W        W11215  10.055   8.499   9.338
 7165W        W11216   4.131   1.860   8.749
 7166W        W11217   5.209   8.265   1.285
 7167W        W11218   3.337  10.790   2.266
 7168W        W11219   5.122   9.107   1.526
 7169W        W11220   6.768  10.912   0.083
 7170W        W11221   1.622   8.996  10.890
 7171W        W11222  11.395   1.867  11.687
 7172W        W11223   2.610   5.730   1.368
 7173W        W11224   8.608   4.086   0.489
 7174W        W11225   3.355   5.222   1.459
 7175W        W11226   6.888   4.570  11.245
 7176W        W11227  10.825   2.742   0.738
 7177W        W11228   6.540  11.119   3.072
 7178W        W11229   5.093   3.087  11.075
 7179W        W11230   9.424  10.879   0.112
 7180W        W11231   3.778   7.975  10.503
 7181W        W11232   7.138   7.052   0.065
 7182W        W11233   1.484   8.569   9.182
 7183W        W11234   3.865   1.861   1.300
 7184W        W11235   1.188   6.728  11.752
 7185W        W11236   5.192   1.429   0.755
 7186W        W11237   4.736   8.689   1.920
 7187W        W11238   3.327   8.793   8.638
 7188W        W11239   1.281   4.662   0.185
 7189W        W11240   7.226   8.395  10.798
 7190W        W11241   0.652   1.476  10.407
 7191W        W11242   2.628   8.652   1.255
 7192W        W11243   7.053   1.666  10.314
 7193W        W11244   5.053  10.797   0.504
 7194W        W11245   2.658   2.334   2.476
 7195W        W11246  10.782   4.224   2.810
 7196W        W11247   4.671   6.108   1.810
 7197W        W11248   8.806   3.663   1.226
 7198W        W11249   5.521   3.273   2.682
 7199W        W11250   1.819   5.534   9.434
 7200W        W11251   4.450   2.146   2.873
 7201W        W11252   6.151   3.162   8.971
 7202W        W11253   6.557   5.652   1.737
 7203W        W11254   3.596  11.246  10.960
 7204W        W11255   3.366   7.143  10.477
 7205W        W11256   3.808   2.629  10.359
 7206W        W11257  11.417   4.374   9.260
 7207W        W11258   9.462   5.023   0.406
 7208W        W11259   6.549   5.690  11.267
 7209W        W11260   8.660   6.681   8.755
 7210W        W11261   0.618   1.247   9.934
 7211W        W11262   4.292   4.565  10.814
 7212W        W11263   1.055   7.885   3.377
 7213W        W11264   4.151   2.541  11.954
 7214W        W11265   5.749   7.517   8.902
 7215W        W11266   8.093   3.697   9.606
 7216W        W11267   0.386   4.891  11.752
 7217W        W11268   0.846   9.034  10.624
 7218W        W11269   6.966   0.855   2.623
 7219W        W11270   0.200   7.642  10.077
 7220W        W11271   3.814   2.090  11.426
 7221W        W11272   7.030  11.463   2.321
 7222W        W11273   9.135   3.329   2.764
 7223W        W11274   4.074   1.712   9.243
 7224W        W11275   9.430   2.433   9.696
 7225W        W11276   5.198   6.745   9.130
 7226W        W11277   6.126   6.222   9.397
 7227W        W11278   0.232   6.610   0.046
 7228W        W11279   2.248   0.212   1.026
 7229W        W11280   5.509  10.271  10.764
 7230W        W11281   4.924   0.174   3.161
 7231W        W11282   2.221   1.983   3.173
 7232W        W11283   0.764  11.195  11.791
 7233W        W11284   8.112  11.006   2.883
 7234W        W11285   8.683   1.340   0.758
 7235W        W11286   0.533   9.720   0.566
 7236W        W11287   7.022   7.564   9.556
 7237W        W11288   0.111   5.267   0.082
 7238W        W11289   4.688   6.166  11.240
 7239W        W11290   3.843  10.976  11.921
 7240W        W11291   4.569   7.568  10.050
 7241W        W11292   8.343   9.798   3.613
 7242W        W11293   3.591   1.316  10.134
 7243W        W11294   2.780   9.932   2.018
 7244W        W11295   2.153   5.130  10.343
 7245W        W11296   1.780   3.568  11.452
 7246W        W11297   8.547   8.877   9.396
 7247W        W11298   6.505   7.096   1.959
 7248W        W11299   2.620   0.936   9.967
 7249W        W11300   2.671   1.823   2.657
 7250W        W11301   0.240   0.012   1.897
 7251W        W11302   4.156   3.705  10.356
 7252W        W11303   3.666   6.148   8.361
 7253W        W11304   3.272   4.735  10.085
 7254W        W11305   0.411   6.666   1.134
 7255W        W11306   0.769   3.152  11.019
 7256W        W11307   8.617   8.909  11.015
 7257W        W11308   1.711   8.998  11.820
 7258W        W11309   8.360   1.108   1.111
 7259W        W11310   2.555   5.644   8.705
 7260W        W11311   7.422   0.457   2.999
 7261W        W11312   2.713   8.844  10.056
 7262W        W11313   4.770   2.483  11.458
 7263W        W11314  10.882   2.949   2.532
 7264W        W11315   3.463  10.550   0.454
 7265W        W11316   6.224   5.503  11.759
 7266W        W11317   7.529   8.085  11.143
 7267W        W11318   8.857   8.506   0.866
 7268W        W11319   8.157   6.366   1.340
 7269W        W11320   9.992   0.365   9.224
 7270W        W11321   9.786   7.914   3.272
 7271W        W11322   5.095   8.264  11.964
 7272W        W11323   1.752   2.632   8.943
 7273W        W11324  10.332   8.887   2.750
 7274W        W11325   3.690   4.220   8.709
 7275W        W11326  10.357   2.175  11.387
 7276W        W11327   6.254  10.379   9.736
 7277W        W11328   2.335   3.836   8.625
 7278W        W11329   3.801   9.713   0.199
 7279W        W11330   4.094   0.409   2.468
 7280W        W11331  10.367   1.790   1.862
 7281W        W11332  10.954   2.574   2.135
 7282W        W11333   1.837   7.756   9.644
 7283W        W11334   0.418   0.410   1.556
 7284W        W11335   9.095   2.788  11.314
 7285W        W11336  10.821   6.140   9.266
 7286W        W11337   2.203   6.659   1.651
 7287W        W11338  10.278   7.958   3.123
 7288W        W11339  10.885   4.663  11.806
 7289W        W11340   6.780   5.829   1.276
 7290W        W11341   0.837   2.907  10.181
 7291W        W11342   2.742   9.929   9.999
 7292W        W11343  11.282   9.505   9.017
 7293W        W11344   8.958   2.559   3.336
 7294W        W11345   0.992   2.823  10.688
 7295W        W11346   7.518  11.296   2.218
 7296W        W11347   5.706   4.067   4.056
 7297W        W11348   0.901  11.382   0.503
 7298W        W11349   1.185   4.178   0.996
 7299W        W11350   8.465   0.980   9.396
 7300W        W11351  11.162   1.680   3.663
 7301W        W11352   3.722   1.288   1.923
 7302W        W11353   2.283   9.365  11.524
 7303W        W11354   7.081   1.991  11.346
 7304W        W11355   1.738   7.841   0.985
 7305W        W11356   9.098  10.846   1.332
 7306W        W11357  10.123  11.049  11.373
 7307W        W11358   1.364   4.111  11.011
 7308W        W11359   4.193   4.694   1.805
 7309W        W11360  10.518   8.427   1.855
 7310W        W11361   2.345   3.440   3.680
 7311W        W11362   6.757   1.372   3.285
 7312W        W11363   1.547  10.496   0.893
 7313W        W11364   5.470   8.402   0.863
 7314W        W11365   0.363  10.402  11.420
 7315W        W11366   4.999  11.040   2.009
 7316W        W11367   1.052   7.488   1.298
 7317W        W11368   2.036   5.161   1.246
 7318W        W11369   0.479   2.643   0.999
 7319W        W11370   5.651   4.675   2.971
 7320W        W11371   4.519   3.243   9.009
 7321W        W11372   9.877   4.231   0.889
 7322W        W11373   3.882   8.353  11.686
 7323W        W11374   4.244  10.571   1.950
 7324W        W11375   8.855   2.346  11.439
 7325W        W11376   6.218   9.244   0.275
 7326W        W11377   0.299   5.158   0.665
 7327W        W11378   5.680   2.809  10.495
 7328W        W11379   0.449  10.991  10.755
 7329W        W11380   0.468   2.131   9.881
 7330W        W11381   0.504   6.719   2.130
 7331W        W11382  10.417   1.964   9.065
 7332W        W11383   6.898   6.043  11.386
 7333W        W11384   9.040   0.317   1.370
 7334W        W11385   2.717   6.221   0.474
 7335W        W11386  11.361  10.237   0.267
 7336W        W11387   9.055   2.134   2.136
 7337W        W11388   1.181   7.920   2.355
 7338W        W11389   3.321   5.087  11.911
 7339W        W11390   6.497   4.510  10.509
 7340W        W11391   9.259   0.572   0.072
 7341W        W11392   1.754   9.061   9.259
 7342W        W11393   3.343   1.750   8.478
 7343W        W11394  10.052   0.995   0.863
 7344W        W11395  10.002   2.400   0.797
 7345W        W11396   0.698  11.240   9.532
 7346W        W11397   8.674   6.020   8.658
 7347W        W11398   7.908   4.268   9.812
 7348W        W11399   8.999  10.178  11.926
 7349W        W11400   6.965   0.840   9.736
 7350W        W11401   7.961   4.500  10.275
 7351W        W11402   9.627   2.921   8.963
 7352W        W11403  10.448   0.931   2.316
 7353W        W11404  11.333   6.151   9.459
 7354W        W11405   5.824   2.295   1.185
 7355W        W11406   6.561   0.223   2.368
 7356W        W11407   8.260   7.882   9.567
 7357W        W11408   8.045   7.150   0.001
 7358W        W11409   7.950  11.229   1.437
 7359W        W11410   2.782   4.983   0.731
 7360W        W11411   4.958   7.055   9.453
 7361W        W11412   4.688   4.776   2.021
 7362W        W11413   1.788   2.326   0.975
 7363W        W11414   0.315   5.763  10.336
 7364W        W11415   2.868   3.700   0.486
 7365W        W11416   4.974   1.779   8.790
 7366W        W11417  10.687   6.804   9.902
 7367W        W11418   2.262   0.265   0.510
 7368W        W11419   4.156   4.863  10.393
 7369W        W11420   2.005   5.414   0.790
 7370W        W11421   6.063   6.483  10.683
 7371W        W11422   8.766   9.447   0.574
 7372W        W11423   9.959   5.659   2.490
 7373W        W11424  10.344   7.447   0.673
 7374W        W11425   1.482  11.388  10.423
 7375W        W11426  10.706   9.645   0.664
 7376W        W11427   8.623   2.556   1.046
 7377W        W11428   4.284   9.955  11.168
 7378W        W11429   8.764   5.921  10.300
 7379W        W11430   8.428   3.836   0.896
 7380W        W11431   2.098   8.072   0.729
 7381W        W11432  11.178   3.568   3.290
 7382W        W11433   7.477  10.503   2.701
 7383W        W11434   9.011   8.576   2.283
 7384W        W11435   0.966   6.923   2.250
 7385W        W11436   7.613  11.337  11.637
 7386W        W11437  10.380   8.914   1.389
 7387W        W11438   3.760   7.107   1.976
 7388W        W11439   0.564   3.679   1.346
 7389W        W11440   3.538   0.735   9.937
 7390W        W11441   0.566   9.123   2.241
 7391W        W11442  11.410   8.629  10.878
 7392W        W11443   7.265   2.787   2.812
 7393W        W11444   8.714   8.382   1.500
 7394W        W11445   3.690   3.639   9.371
 7395W        W11446   4.723   5.709  11.010
 7396W        W11447   5.329   7.269   9.136
 7397W        W11448   7.429   0.532   2.491
 7398W        W11449   3.221   3.148   9.919
 7399W        W11450   9.695   0.427   3.116
 7400W        W11451   2.436   9.865   3.481
 7401W        W11452   7.815  10.594  10.584
 7402W        W11453   7.254   1.277   3.234
 7403W        W11454   1.384   0.242   1.414
 7404W        W11455   4.481   8.471   1.127
 7405W        W11456   5.738   2.811  11.548
 7406W        W11457   1.150   1.019   0.333
 7407W        W11458   6.559   8.129   1.880
 7408W        W11459   2.823   2.704   0.360
 7409W        W11460   9.480   1.953   9.540
 7410W        W11461   3.578   7.013  11.525
 7411W        W11462   0.755   6.051   9.485
 7412W        W11463  10.263   2.922  11.016
 7413W        W11464   3.577   3.191   9.096
 7414W        W11465   2.182   1.028   3.601
 7415W        W11466   5.487   7.555  11.913
 7416W        W11467  11.330   2.717   0.783
 7417W        W11468   6.537   6.654  10.227
 7418W        W11469   7.426  10.241  10.509
 7419W        W11470   6.088   5.083   1.544
 7420W        W11471   3.597   1.809  11.845
 7421W        W11472   1.813   3.592   0.398
 7422W        W11473   5.079   4.229   1.354
 7423W        W11474   3.244   4.698   2.009
 7424W        W11475   6.088   7.737   3.677
 7425W        W11476   7.551   4.488   9.519
 7426W        W11477   5.405   9.050   0.197
 7427W        W11478  10.820   5.580   1.695
 7428W        W11479   8.590   8.879   2.214
 7429W        W11480   9.327   3.640   1.301
 7430W        W11481   8.224   8.137  11.766
 7431W        W11482   2.413   7.411   1.502
 7432W        W11483   9.083   2.681   9.379
 7433W        W11484   2.344  10.001   9.021
 7434W        W11485   6.762   4.224   0.491
 7435W        W11486   8.896   1.017   0.432
 7436W        W11487   9.893  11.250   0.228
 7437W        W11488   5.931  10.654  11.420
 7438W        W11489   4.260   1.361   0.436
 7439W        W11490   9.996  10.293   9.477
 7440W        W11491   2.857   4.545   0.476
 7441W        W11492   8.633   2.568   1.549
 7442W        W11493   8.684   7.568   1.885
 7443W        W11494   3.745   8.041   3.196
 7444W        W11495   9.957   3.303   2.406
 7445W        W11496   0.402   5.025   8.888
 7446W        W11497   0.354   8.582   2.495
 7447W        W11498   9.372  10.389   1.868
 7448W        W11499  11.108   4.582   0.282
 7449W        W11500   2.145   3.237   0.182
 7450W        W11501   5.239   1.228  11.449
 7451W        W11502   9.752   2.354   3.544
 7452W        W11503   4.661  10.401  11.824
 7453W        W11504   5.643   4.796  10.545
 7454W        W11505   7.158   3.863   3.051
 7455W        W11506   4.315   4.714   9.942
 7456W        W11507   0.477   2.682   9.393
 7457W        W11508   9.610   5.700   2.872
 7458W        W11509  10.033   7.477   3.330
 7459W        W11510   2.064   8.788   8.468
 7460W        W11511   1.777   6.466   1.430
 7461W        W11512   4.040   5.938   1.179
 7462W        W11513   5.163   7.841  11.579
 7463W        W11514   2.191  11.302  10.001
 7464W        W11515   1.979   2.675  11.291
 7465W        W11516   8.576   1.586   1.866
 7466W        W11517   0.150   9.423   9.432
 7467W        W11518  10.014   6.149   0.196
 7468W        W11519   3.651   8.428  10.786
 7469W        W11520   6.347  10.742   0.334
 7470W        W11521  10.339   9.970   1.774
 7471W        W11522   7.658   0.031   1.714
 7472W        W11523   5.106   8.616  10.397
 7473W        W11524   8.156   3.882   0.362
 7474W        W11525   8.915   3.267  11.468
 7475W        W11526   7.644   5.609  11.078
 7476W        W11527   6.713   3.664  11.384
 7477W        W11528   8.129   0.467   9.391
 7478W        W11529   4.623   2.485   3.217
 7479W        W11530  10.056   6.176  10.809
 7480W        W11531   2.376   3.389   8.937
 7481W        W11532   8.462   4.998   9.999
 7482W        W11533  11.486   4.804   8.608
 7483W        W11534   8.569   8.330  10.914
 7484W        W11535   0.760   4.871   3.455
 7485W        W11536  10.191   5.824  11.479
 7486W        W11537   0.484   4.718   2.873
 7487W        W11538   0.362   8.525   3.005
 7488W        W11539   8.416  11.219   1.673
 7489W        W11540   9.004   5.052  11.186
 7490W        W11541   7.854   4.523  11.761
 7491W        W11542   7.505   6.952   3.383
 7492W        W11543   8.950   9.134   2.486
 7493W        W11544   5.109   4.038   9.044
 7494W        W11545   8.950   5.672   2.308
 7495W        W11546  11.235  10.131   1.928
 7496W        W11547   5.014  10.058  10.536
 7497W        W11548   4.647   7.015   1.584
 7498W        W11549   1.697   3.096  11.259
 7499W        W11550   0.873  10.417  10.023
 7500W        W11551   6.023   4.918   2.070
 7501W        W11552   2.263   1.156   0.022
 7502W        W11553   2.701   5.441  10.326
 7503W        W11554  10.952  10.099   3.149
 7504W        W11555   7.232   8.389   3.366
 7505W        W11556  11.486   0.277   0.495
 7506W        W11557   6.392   0.225   9.267
 7507W        W11558   3.756   2.643   1.603
 7508W        W11559   6.955   7.993   3.122
 7509W        W11560   9.914   1.066   8.619
 7510W        W11561   5.250   3.588  11.498
 7511W        W11562   6.435   0.971   1.345
 7512W        W11563   1.997   5.095   2.132
 7513W        W11564   4.460   6.528   1.616
 7514W        W11565   0.875   2.097   3.260
 7515W        W11566   2.790   6.445   9.239
 7516W        W11567   5.022   1.236  11.943
 7517W        W11568   6.936   5.674  11.743
 7518W        W11569   9.996   1.336   9.539
 7519W        W11570   0.808   2.397   2.182
 7520W        W11571   6.457   8.106   3.308
 7521W        W11572   5.024   3.485   3.985
 7522W        W11573   8.319   2.982  10.854
 7523W        W11574   9.426   7.637   0.482
 7524W        W11575   7.530  10.770   3.132
 7525W        W11576   6.468   6.128   1.527
 7526W        W11577   6.095   0.688  11.769
 7527W        W11578   8.122   3.288   0.445
 7528W        W11579   8.535   6.577   2.694
 7529W        W11580  11.324   2.316   1.847
 7530W        W11581   9.088   5.210   0.682
 7531W        W11582   5.524  10.955  11.493
 7532W        W11583   0.285   8.506   0.042
 7533W        W11584   9.525   8.661   0.300
 7534W        W11585   6.468   5.933   9.120
 7535W        W11586   5.281   7.467   8.663
 7536W        W11587   4.235   6.219  10.263
 7537W        W11588   5.123   3.139   3.610
 7538W        W11589   8.279   3.709   1.376
 7539W        W11590   8.413   9.754   2.118
 7540W        W11591   6.194  10.854  11.827
 7541W        W11592   4.291   9.119   0.333
 7542W        W11593   1.264  11.419   1.793
 7543W        W11594   1.771   3.191   8.625
 7544W        W11595   3.758   9.292   1.919
 7545W        W11596   3.141   4.085  10.283
 7546W        W11597   2.647   9.003   9.055
 7547W        W11598   4.108  11.355   9.403
 7548W        W11599   6.379  10.085  11.412
 7549W        W11600   4.737   0.079   2.424
 7550W        W11601   1.283   7.041   2.911
 7551W        W11602   7.646   9.548   1.965
 7552W        W11603   7.381  10.772  10.393
 7553W        W11604  10.375   0.406   2.379
 7554W        W11605   0.026   4.662   2.639
 7555W        W11606   5.423   6.024  11.659
 7556W        W11607   7.358   1.681   9.664
 7557W        W11608   8.177   3.299   1.100
 7558W        W11609   6.152   1.318   1.659
 7559W        W11610   5.260   0.927   0.729
 7560W        W11611   2.558   7.031   9.450
 7561W        W11612   2.988   5.827   3.133
 7562W        W11613   2.662  10.685  10.434
 7563W        W11614   6.274   2.864   9.466
 7564W        W11615   0.475   6.181   0.272
 7565W        W11616   5.015   8.369   9.970
 7566W        W11617   5.779   9.554   0.242
 7567W        W11618   7.916   7.654  10.865
 7568W        W11619   2.591   4.234   8.900
 7569W        W11620   8.579  11.287   0.675
 7570W        W11621   3.105   5.880   0.403
 7571W        W11622   2.504  10.364   2.058
 7572W        W11623   9.982   4.184  11.527
 7573W        W11624   6.754   8.502   3.206
 7574W        W11625  11.259   1.727  10.289
 7575W        W11626   0.817  11.032   2.437
 7576W        W11627   6.988  10.945  10.115
 7577W        W11628   6.645   4.256  10.084
 7578W        W11629  10.246   4.605  10.399
 7579W        W11630   8.149   4.807   2.682
 7580W        W11631   1.295   7.552   2.694
 7581W        W11632   9.843   4.288  10.581
 7582W        W11633   2.828   3.704  10.962
 7583W        W11634   0.479   5.054   1.145
 7584W        W11635   9.028   6.860  10.441
 7585W        W11636   9.028   3.180   9.567
 7586W        W11637   9.307   4.089  11.992
 7587W        W11638  11.259   4.234  11.694
 7588W        W11639   5.028   3.812   9.603
 7589W        W11640   4.046   2.063   0.873
 7590W        W11641   8.971   7.866   0.345
 7591W        W11642   3.446   5.238  10.884
 7592W        W11643   7.427   3.252   0.405
 7593W        W11644   2.212   7.659   1.917
 7594W        W11645   3.898   1.725   0.430
 7595W        W11646   4.219   6.692  10.853
 7596W        W11647   3.587   6.600   1.734
 7597W        W11648  10.608   9.565   2.333
 7598W        W11649   9.610   6.441  11.657
 7599W        W11650   6.130   4.491   3.181
 7600W        W11651   9.440   7.019   2.786
 7601W        W11652   0.366  10.210   0.445
 7602W        W11653   2.290   7.952   0.276
 7603W        W11654   9.118   6.852   8.608
 7604W        W11655  10.760   1.991  10.976
 7605W        W11656   2.785   3.288  11.289
 7606W        W11657   5.982  10.445   3.221
 7607W        W11658   2.270   8.094   2.953
 7608W        W11659   1.260   1.838   2.782
 7609W        W11660   2.897   5.986   9.037
 7610W        W11661  10.972   3.550   0.444
 7611W        W11662   9.527   4.794   2.768
 7612W        W11663  10.910   4.157   8.497
 7613W        W11664   2.703  11.353  10.793
 7614W        W11665   4.717   8.428   9.559
 7615W        W11666   1.677   6.746  11.490
 7616W        W11667   9.791   5.671   3.374
 7617W        W11668   6.650   2.888   0.174
 7618W        W11669   7.393   4.554  11.996
 7619W        W11670  10.098   3.566  10.401
 7620W        W11671   6.097  10.866   1.441
 7621W        W11672   8.829   5.085   9.303
 7622W        W11673   9.991   0.720   2.223
 7623W        W11674  11.240   9.911  11.863
 7624W        W11675   7.700   3.218   2.486
 7625W        W11676   8.888   8.013   1.797
 7626W        W11677   8.221   8.602   9.080
 7627W        W11678   6.911  10.205   0.950
 7628W        W11679  10.296   4.138  11.919
 7629W        W11680   3.410   2.866  11.071
 7630W        W11681  10.990   9.968   9.023
 7631W        W11682   3.681  11.256   9.082
 7632W        W11683   8.514   5.072  11.383
 7633W        W11684   3.361   7.519   1.556
 7634W        W11685   5.051   8.696   2.460
 7635W        W11686   9.263   9.627   9.469
 7636W        W11687   2.489   9.111  10.890
 7637W        W11688   4.285   4.828  11.257
 7638W        W11689  11.349   7.203   3.620
 7639W        W11690   2.848   2.163   8.999
 7640W        W11691   0.288   0.337  11.264
 7641W        W11692  11.265   3.388   9.567
 7642W        W11693   5.579   2.371   8.731
 7643W        W11694  10.355   7.543  10.731
 7644W        W11695   1.317  10.917   1.781
 7645W        W11696   7.625   3.593   9.418
 7646W        W11697  10.954  10.545   3.463
 7647W        W11698   5.915   0.940   1.361
 7648W        W11699  11.327   9.851  10.418
 7649W        W11700   5.143   4.074   2.720
 7650W        W11701   6.581   0.681   0.915
 7651W        W11702   9.293   0.265  10.823
 7652W        W11703   6.099   1.868   1.309
 7653W        W11704   3.320   4.515   2.935
 7654W        W11705   7.607   7.602  11.339
 7655W        W11706  10.716  10.880   9.442
 7656W        W11707   4.368   9.078   9.772
 7657W        W11708   5.406   3.240  10.273
 7658W        W11709   4.372   1.815   1.237
 7659W        W11710  11.337   1.903   0.697
 7660W        W11711   1.275   8.838   3.335
 7661W        W11712   8.819   4.630   9.996
 7662W        W11713   0.506   7.940   0.237
 7663W        W11714   7.637   5.847   1.336
 7664W        W11715   5.152   7.588   2.745
 7665W        W11716   3.834   7.932   0.003
 7666W        W11717   3.155   4.979  10.526
 7667W        W11718   4.685   3.540   1.865
 7668W        W11719   0.146   3.611   3.540
 7669W        W11720   5.401   4.132   1.733
 7670W        W11721   5.689   7.605   0.398
 7671W        W11722   7.045  10.941   9.561
 7672W        W11723   1.634   8.507  11.918
 7673W        W11724  10.435   8.645   8.488
 7674W        W11725   8.348   5.050   9.508
 7675W        W11726   7.179   6.095  11.860
 7676W        W11727   6.173   4.434   2.205
 7677W        W11728   6.972   3.255  11.559
 7678W        W11729   0.474   0.274   9.606
 7679W        W11730   8.093   4.938   8.230
 7680W        W11731   3.198   7.618  11.578
 7681W        W11732   4.981   0.778  10.263
 7682W        W11733   1.810   5.644  10.329
 7683W        W11734   8.914   5.068   8.791
 7684W        W11735  11.365  10.997   2.823
 7685W        W11736   4.404   8.103   2.661
 7686W        W11737   1.401   3.811   0.689
 7687W        W11738   7.879  10.764  11.065
 7688W        W11739   5.545   5.169   3.101
 7689W        W11740   1.435   7.154   8.901
 7690W        W11741   9.866   6.053   9.392
 7691W        W11742   7.329   4.405   8.731
 7692W        W11743   5.571   3.132   8.403
 7693W        W11744   0.866   2.488   3.713
 7694W        W11745   5.002   1.523   3.462
 7695W        W11746   6.538   4.070   2.267
 7696W        W11747   8.341   2.932   0.791
 7697W        W11748   3.121   9.382   3.156
 7698W        W11749   8.639   4.884   2.998
 7699W        W11750   4.100   3.707   2.691
 7700W        W11751  11.086  10.547  10.303
 7701W        W11752   8.191   9.807  10.928
 7702W        W11753   2.428  10.433   0.349
 7703W        W11754   7.936   8.943   0.113
 7704W        W11755   4.073   3.713   9.706
 7705W        W11756   1.162   7.434  10.354
 7706W        W11757   2.659   0.517   1.201
 7707W        W11758   9.957   4.991  11.257
 7708W        W11759   6.123  11.324   9.978
 7709W        W11760   7.476   2.186   9.561
 7710W        W11761   7.188   0.662   1.732
 7711W        W11762  11.445  11.060  11.098
 7712W        W11763   5.654   0.030   2.792
 7713W        W11764   5.183   5.041   1.542
 7714W        W11765   6.071   2.650  11.996
 7715W        W11766   0.534  11.495  10.516
 7716W        W11767   3.126   0.768  10.535
 7717W        W11768   7.084  10.669   1.186
 7718W        W11769   4.314   4.045  11.645
 7719W        W11770  11.466   9.359   9.919
 7720W        W11771   0.228   8.374   0.582
 7721W        W11772   2.391   2.943   0.541
 7722W        W11773   4.782   2.411  10.538
 7723W        W11774   0.402   4.335   2.225
 7724W        W11775   7.043   8.013   2.583
 7725W        W11776   5.743  10.083   2.928
 7726W        W11777   6.510   1.605   9.405
 7727W        W11778   1.447  10.794   9.848
 7728W        W11779   1.213   2.165   2.390
 7729W        W11780   0.987   6.245   9.939
 7730W        W11781  10.903   3.840  11.450
 7731W        W11782   4.747   8.882   3.341
 7732W        W11783   6.436   2.286   3.618
 7733W        W11784  10.667   1.248   0.947
 7734W        W11785   6.434   3.135   0.819
 7735W        W11786   5.581   7.321   9.974
 7736W        W11787   4.164   8.667   0.022
 7737W        W11788   2.197  10.493  10.522
 7738W        W11789  10.506   3.141   1.171
 7739W        W11790   1.093   2.710  11.872
 7740W        W11791  10.289   5.565   3.458
 7741W        W11792   5.167   5.625  10.060
 7742W        W11793   9.861   3.136  10.089
 7743W        W11794   5.253   2.090   9.067
 7744W        W11795   0.116   0.954   9.117
 7745W        W11796  10.020   6.441   9.051
 7746W        W11797  11.361   6.669   9.378
 7747W        W11798   2.568   4.574   3.419
 7748W        W11799   9.916   0.677   1.253
 7749W        W11800   6.930   7.912   8.918
 7750W        W11801   2.668   3.837   3.527
 7751W        W11802   2.110   9.300   0.777
 7752W        W11803   0.170   4.328  10.263
 7753W        W11804   0.520  11.300   3.325
 7754W        W11805   0.746   2.573   3.197
 7755W        W11806   5.289   0.845   1.949
 7756W        W11807   8.070  10.544   3.083
 7757W        W11808   5.166   7.539   1.802
 7758W        W11809  10.383  10.878  10.045
 7759W        W11810   1.823   0.189   0.212
 7760W        W11811   5.021   7.368  11.825
 7761W        W11812  10.873   9.281   8.369
 7762W        W11813   1.292   4.793   1.698
 7763W        W11814   8.336   4.506   9.933
 7764W        W11815   1.840   5.357  11.946
 7765W        W11816  11.010   5.526   2.704
 7766W        W11817   8.565  11.325  10.704
 7767W        W11818   2.266   0.329   2.454
 7768W        W11819   9.866   8.473  10.824
 7769W        W11820   8.338   7.646   0.901
 7770W        W11821   5.522   9.196   1.852
 7771W        W11822  10.240   6.046   1.707
 7772W        W11823   9.763   8.894  10.353
 7773W        W11824   0.422   3.592  10.600
 7774W        W11825   0.370   6.573   0.578
 7775W        W11826   5.468   0.366   2.441
 7776W        W11827  10.852   7.298   9.868
 7777W        W11828   4.473   2.822   2.392
 7778W        W11829   2.257   6.555   0.646
 7779W        W11830   5.827   8.047  10.239
 7780W        W11831   1.965   3.214   1.451
 7781W        W11832   6.925   2.147   3.513
 7782W        W11833   3.104   1.788   1.744
 7783W        W11834   6.476   3.505   3.698
 7784W        W11835   1.712   8.424  10.980
 7785W        W11836   4.051   5.693  11.336
 7786W        W11837   2.118   1.355   2.425
 7787W        W11838   8.249   1.456   9.548
 7788W        W11839  11.098   9.006  10.025
 7789W        W11840  10.637  10.432  10.115
 7790W        W11841  10.957   3.785   9.319
 7791W        W11842  11.385   3.579   9.102
 7792W        W11843   2.804   7.338   0.764
 7793W        W11844   7.452   8.082   2.986
 7794W        W11845   3.235  11.128   3.113
 7795W        W11846   0.410   7.051   0.790
 7796W        W11847   0.887   0.318   0.809
 7797W        W11848   9.655  10.358   9.855
 7798W        W11849   8.645   3.536   2.617
 7799W        W11850   0.486   8.363  10.494
 7800W        W11851   5.613   9.148  11.226
 7801W        W11852   3.117   1.646  11.808
 7802W        W11853   9.691  10.084   0.423
 7803W        W11854   3.505   6.687  10.316
 7804W        W11855   6.907   4.097   8.926
 7805W        W11856   1.323   5.480   0.056
 7806W        W11857   5.852   0.279  11.579
 7807W        W11858   9.592  10.766   1.545
 7808W        W11859   5.247   2.749   9.487
 7809W        W11860   8.466   8.527  10.071
 7810W        W11861   7.740   4.883   3.575
 7811W        W11862   1.367   2.825   1.431
 7812W        W11863  10.623  11.049  11.424
 7813W        W11864  10.307  11.451   8.844
 7814W        W11865   8.024   7.392   9.543
 7815W        W11866  11.302   1.822   0.182
 7816W        W11867   8.023   5.502   1.260
 7817W        W11868   9.597   7.440   3.028
 7818W        W11869   5.498  11.170   0.802
 7819W        W11870   7.434   4.780  11.541
 7820W        W11871   7.648   2.864  11.321
 7821W        W11872   3.546   8.869   3.672
 7822W        W11873   4.750   2.892   9.597
 7823W        W11874   8.958   3.784   0.212
 7824W        W11875   0.844   4.777  11.959
 7825W        W11876   6.244   1.323   3.208
 7826W        W11877  10.538   2.308   0.776
 7827W        W11878  10.120  10.510   3.241
 7828W        W11879   0.698  11.299  10.045
 7829W        W11880   4.753   4.169   2.422
 7830W        W11881  10.314   9.330   0.476
 7831W        W11882   8.079   6.330   3.708
 7832W        W11883   6.774   9.140   2.865
 7833W        W11884   1.482  11.242   1.348
 7834W        W11885   5.330   5.172  10.693
 7835W        W11886  11.495   1.238   2.354
 7836W        W11887   8.513   7.681  10.277
 7837W        W11888   3.373   3.776  11.049
 7838W        W11889   0.611   5.449   8.648
 7839W        W11890   6.787   9.900   2.758
 7840W        W11891   0.630   8.085  10.898
 7841W        W11892   5.938   6.083   1.372
 7842W        W11893   8.577   4.103   8.732
 7843W        W11894   9.643   9.906   2.237
 7844W        W11895   8.654   5.480  10.069
 7845W        W11896   9.120   2.794  10.818
 7846W        W11897   8.055   5.358  10.785
 7847W        W11898  10.407   2.471   9.147
 7848W        W11899   2.684   1.969   9.765
 7849W        W11900   1.110   1.403  11.556
 7850W        W11901   3.612  10.731   9.009
 7851W        W11902   6.364   0.326   1.853
 7852W        W11903   7.084  10.407  10.865
 7853W        W11904   0.755   2.309  11.801
 7854W        W11905   7.948   6.911   0.438
 7855W        W11906   9.985   0.507   0.732
 7856W        W11907   7.042   7.004   3.162
 7857W        W11908   0.364   6.488  10.967
 7858W        W11909   4.052   6.712   8.979
 7859W        W11910   3.357   0.388   8.897
 7860W        W11911   8.170   5.606   3.196
 7861W        W11912   0.019   7.903   0.446
 7862W        W11913   2.306   3.317   9.971
 7863W        W11914   7.482   0.847   9.708
 7864W        W11915   9.159   1.217   1.661
 7865W        W11916  11.334   2.134  11.149
 7866W        W11917   5.654   6.526  11.029
 7867W        W11918   4.935   6.779  11.771
 7868W        W11919   5.634   9.020   1.400
 7869W        W11920   7.009   8.330  11.270
 7870W        W11921   0.571   4.062  10.396
 7871W        W11922   2.622   4.687   9.942
 7872W        W11923   8.521   1.272   3.566
 7873W        W11924   3.716   8.860  10.505
 7874W        W11925   9.014   0.277  10.069
 7875W        W11926   5.878   2.177   0.268
 7876W        W11927   2.484   6.559  10.478
 7877W        W11928   5.866   0.082  10.439
 7878W        W11929   0.320   9.885   9.648
 7879W        W11930   0.866   2.294   8.965
 7880W        W11931  11.463   3.630  10.902
 7881W        W11932   5.636   2.436   2.154
 7882W        W11933   5.958   3.157  10.772
 7883W        W11934   9.396  10.153  11.558
 7884W        W11935   9.907   8.243  11.299
 7885W        W11936   0.401   0.787   9.512
 7886W        W11937   4.682   9.045   2.305
 7887W        W11938   2.312   3.775  10.768
 7888W        W11939   7.738   1.036  10.501
 7889W        W11940  10.911  10.497  10.887
 7890W        W11941   0.195   9.954   1.772
 7891W        W11942   7.936   5.996   0.507
 7892W        W11943   3.068  10.502   9.059
 7893W        W11944  10.144   3.274   0.846
 7894W        W11945   3.329  10.983   9.389
 7895W        W11946   4.512   1.897   9.627
 7896W        W11947  10.968   5.898  10.771
 7897W        W11948   5.368   8.482   3.654
 7898W        W11949   0.510   2.711  11.052
 7899W        W11950   5.577   2.872   8.883
 7900W        W11951  10.234   0.832  11.598
 7901W        W11952  10.536   1.458   8.945
 7902W        W11953   8.192   5.084   1.880
 7903W        W11954   6.005   8.094  11.472
 7904W        W11955   7.589   9.400   9.997
 7905W        W11956   6.678   3.137   1.916
 7906W        W11957  10.725   3.610   3.532
 7907W        W11958   9.622   1.964  10.050
 7908W        W11959   8.897   0.009  11.021
 7909W        W11960   9.560   3.132   2.998
 7910W        W11961   4.146   9.572   8.531
 7911W        W11962   4.348   1.814   0.205
 7912W        W11963  10.425  11.083  10.519
 7913W        W11964   7.674   7.665   2.778
 7914W        W11965   6.356   6.124  11.457
 7915W        W11966   7.632   7.054   9.694
 7916W        W11967   3.564   6.611   1.220
 7917W        W11968  11.017   7.637   9.510
 7918W        W11969   8.620   2.803  11.525
 7919W        W11970   8.833  11.302   9.061
 7920W        W11971  10.290   4.595  11.364
 7921W        W11972   5.357   3.254   3.159
 7922W        W11973   8.904  11.386   1.714
 7923W        W11974   4.049   6.828   1.662
 7924W        W11975   9.805   6.178  11.258
 7925W        W11976   4.153   1.080   3.171
 7926W        W11977   4.080   9.101  11.768
 7927W        W11978   3.768   9.742   0.710
 7928W        W11979  10.963   2.399   9.702
 7929W        W11980   9.261   8.509   8.973
 7930W        W11981  10.039   7.155  11.526
 7931W        W11982   5.274   9.854  10.955
 7932W        W11983   2.641   4.917   0.219
 7933W        W11984   9.526  10.318  10.733
 7934W        W11985   6.585   7.163   4.044
 7935W        W11986   5.917   8.373  10.876
 7936W        W11987   1.320   4.229   3.187
 7937W        W11988   1.705   0.635   2.599
 7938W        W11989   8.655   1.206  10.297
 7939W        W11990   4.303   6.044   2.175
 7940W        W11991   3.301   9.579  10.589
 7941W        W11992  10.992   4.302   1.983
 7942W        W11993   8.916   0.887   3.451
 7943W        W11994   9.691   5.152   9.089
 7944W        W11995   6.676   1.788   1.937
 7945W        W11996   9.115   1.221   2.714
 7946W        W11997   2.777   8.073   0.375
 7947W        W11998   1.279   7.159   0.911
 7948W        W11999   4.964  10.725   8.533
 7949W        W12000  11.287   5.712   0.224
 7950W        W12001   1.273   2.230  11.714
 7951W        W12002   5.290   8.050   8.179
 7952W        W12003   5.789   9.085   2.805
 7953W        W12004   9.327   7.244  11.213
 7954W        W12005   3.514   4.590   9.511
 7955W        W12006  10.998   5.326   9.379
 7956W        W12007  11.388   6.707   8.864
 7957W        W12008   9.152  10.876  11.274
 7958W        W12009  10.577  10.938   0.856
 7959W        W12010  10.561   6.306   9.919
 7960W        W12011  10.422   8.849   0.574
 7961W        W12012   6.577   7.664   3.541
 7962W        W12013   5.046  10.963   1.001
 7963W        W12014   2.272   4.196   0.982
 7964W        W12015   8.128   3.287   2.139
 7965W        W12016  10.135   2.373  11.814
 7966W        W12017   9.092   1.244  10.559
 7967W        W12018   9.019   0.299   9.107
 7968W        W12019   4.681   7.488   2.499
 7969W        W12020   3.450  10.777   2.778
 7970W        W12021   7.564   1.912   1.480
 7971W        W12022   5.759  11.365  11.290
 7972W        W12023   5.640   2.283  10.251
 7973W        W12024   9.885   7.025  10.507
 7974W        W12025   5.932   3.280   9.412
 7975W        W12026   8.870   7.550   2.395
 7976W        W12027   9.404   7.170   1.317
 7977W        W12028   2.155   0.465   2.946
 7978W        W12029   2.839   1.562   1.331
 7979W        W12030   2.339   4.718   9.427
 7980W        W12031   9.185   8.280   9.412
 7981W        W12032   4.125   4.315   3.146
 7982W        W12033   9.544  11.326  10.748
 7983W        W12034   7.957   4.877   9.885
 7984W        W12035   1.278   6.487  10.762
 7985W        W12036   7.902   4.777   0.191
 7986W        W12037   2.036   7.095   1.360
 7987W        W12038   1.020   2.471  10.308
 7988W        W12039   0.835   0.902   2.685
 7989W        W12040   6.119   1.982   0.752
 7990W        W12041   2.716   6.120   2.304
 7991W        W12042  10.471   5.688   2.398
 7992W        W12043   9.936  10.431   0.729
 7993W        W12044   7.474   8.571  11.343
 7994W        W12045   4.472   2.509   1.955
 7995W        W12046  11.216   0.006   1.767
 7996W        W12047   9.619   1.014   9.079
 7997W        W12048   8.897   0.433   0.876
 7998W        W12049   1.371   6.136   1.447
 7999W        W12050   2.255   9.011   9.443
 8000W        W12051  10.510   8.111   0.964
 8001W        W12052   9.386  11.369   0.221
 8002W        W12053   6.629  10.418   2.025
 8003W        W12054   0.374   4.008  11.397
 8004W        W12055  10.275   5.478   7.968
 8005W        W12056  11.314   0.634   9.376
 8006W        W12057   1.808   7.199  11.283
 8007W        W12058   8.699   5.140   1.807
 8008W        W12059  10.047   5.523  10.154
 8009W        W12060   2.226   5.656   1.702
 8010W        W12061   3.816   4.720   4.020
 8011W        W12062   0.732   9.883   1.772
 8012W        W12063   9.332   6.724   1.557
 8013W        W12064   8.152   4.337  10.964
 8014W        W12065   6.027   5.391   3.090
 8015W        W12066   9.853   8.970   1.358
 8016W        W12067  10.131   0.803  11.059
 8017W        W12068   2.400   6.128   9.943
 8018W        W12069   6.076  10.312  11.760
 8019W        W12070   7.660   7.105  10.206
 8020W        W12071   9.384   0.852   3.061
 8021W        W12072   6.439   2.412   9.758
 8022W        W12073   7.578  10.369   2.203
 8023W        W12074   9.057   8.773   9.368
 8024W        W12075   8.627   3.354   0.847
 8025W        W12076   3.587   6.047  11.160
 8026W        W12077   7.039   2.759   3.273
 8027W        W12078   7.917   9.417   1.320
 8028W        W12079   0.308  10.015   2.695
 8029W        W12080   8.269  10.326   3.532
 8030W        W12081   1.812   1.164  10.842
 8031W        W12082   1.788   0.853  10.419
 8032W        W12083   5.129   4.449   8.730
 8033W        W12084   8.851  10.338   2.686
 8034W        W12085   0.865   6.243   3.427
 8035W        W12086   7.484   8.828  11.867
 8036W        W12087   5.982   2.049   3.712
 8037W        W12088   4.236  10.040   9.743
 8038W        W12089  11.332   0.770   0.470
 8039W        W12090   1.816   5.992   1.688
 8040W        W12091   6.391   2.871  10.781
 8041W        W12092   1.737   0.972   1.056
 8042W        W12093   0.346   7.209  10.305
 8043W        W12094   0.816   9.851   2.563
 8044W        W12095   8.415   5.528   0.279
 8045W        W12096   0.796   5.079   0.743
 8046W        W12097   6.428  10.353   2.984
 8047W        W12098   1.768   5.022   3.590
 8048W        W12099  11.121   2.634   3.545
 8049W        W12100   7.885   4.107  10.590
 8050W        W12101   9.391   5.295   8.625
 8051W        W12102   1.153   4.042   8.975
 8052W        W12103   9.451   5.610   2.354
 8053W        W12104   6.069  11.347  11.707
 8054W        W12105   0.865   6.861   0.936
 8055W        W12106   6.053   1.188  11.756
 8056W        W12107   8.169   1.441  10.433
 8057W        W12108   4.759   1.494   0.456
 8058W        W12109   3.699   2.156  10.586
 8059W        W12110   6.990   3.174   1.478
 8060W        W12111  11.016   2.312   3.121
 8061W        W12112   1.326   0.319  11.706
 8062W        W12113   0.875   4.265   0.142
 8063W        W12114   7.515   3.080   9.962
 8064W        W12115   9.845   7.191   9.470
 8065W        W12116  10.547   3.320  10.456
 8066W        W12117   0.818   7.509   0.301
 8067W        W12118   6.874   0.267   1.803
 8068W        W12119  11.062   8.094   2.198
 8069W        W12120   4.844   4.640   9.905
 8070W        W12121   4.313   1.287  11.502
 8071W        W12122  10.454   1.870  10.079
 8072W        W12123   1.184   7.051   3.457
 8073W        W12124   9.849   4.706  11.682
 8074W        W12125   3.133  10.510  11.632
 8075W        W12126   0.056   3.833  11.857
 8076W        W12127   3.803   6.623   3.851
 8077W        W12128   8.599   4.624   0.487
 8078W        W12129   1.896   1.777  11.478
 8079W        W12130   0.008  11.250   0.498
 8080W        W12131   1.237   3.251  10.861
 8081W        W12132   7.928   0.744  11.936
 8082W        W12133   9.606   7.668   9.434
 8083W        W12134   9.259   4.338   2.091
 8084W        W12135   6.097   1.296   9.497
 8085W        W12136   8.751   7.115   0.760
 8086W        W12137   4.942   1.217  11.021
 8087W        W12138   8.219   4.319   9.048
 8088W        W12139   8.829   0.302  10.553
 8089W        W12140   1.930  10.382  10.021
 8090W        W12141   5.493  10.538  11.198
 8091W        W12142   9.013   7.353   0.386
 8092W        W12143   8.279   9.550   0.520
 8093W        W12144   8.966   1.677  10.290
 8094W        W12145   0.392   5.102  11.237
 8095W        W12146   6.631  10.769   2.722
 8096W        W12147   5.996   5.484   0.231
 8097W        W12148   2.340   1.455   1.458
 8098W        W12149   0.779   2.773   0.294
 8099W        W12150   5.948   3.673   9.787
 8100W        W12151   3.598   5.071   2.772
 8101W        W12152   9.516   2.453   9.196
 8102W        W12153  11.382   7.115   2.648
 8103W        W12154   7.527   0.086  10.765
 8104W        W12155   0.264   1.764   2.789
 8105W        W12156   8.953   1.692   3.451
 8106W        W12157   7.045   1.170   1.666
 8107W        W12158   8.324   6.178   2.428
 8108W        W12159   6.954   8.569   0.066
 8109W        W12160  10.486  10.575  10.573
 8110W        W12161   9.149  10.335   9.899
 8111W        W12162   1.515   5.114   1.215
 8112W        W12163   6.855   5.927  10.884
 8113W        W12164   6.930   4.190  10.489
 8114W        W12165   1.851   2.657  10.400
 8115W        W12166   4.650   2.702  10.133
 8116W        W12167   6.479   9.994  10.485
 8117W        W12168   2.459   0.335   9.946
 8118W        W12169   3.748  10.289   3.401
 8119W        W12170   3.038   9.291   0.774
 8120W        W12171  11.127   0.754  10.449
 8121W        W12172   0.448   5.297   1.972
 8122W        W12173   3.590   5.752  10.309
 8123W        W12174   1.730   5.553   3.528
 8124W        W12175   5.218   2.123  10.564
 8125W        W12176   0.224   8.990  11.124
 8126W        W12177   8.121   7.366  10.427
 8127W        W12178   5.815   0.003   1.796
 8128W        W12179   5.949   0.778   9.823
 8129W        W12180   2.364   1.200  10.839
 8130W        W12181   1.729   3.862  11.879
 8131W        W12182   4.612   9.934   0.520
 8132W        W12183   9.406   3.329  10.254
 8133W        W12184   3.670   6.123   1.498
 8134W        W12185   2.921  11.056   0.570
 8135W        W12186   2.697   7.459  10.714
 8136W        W12187   6.050   1.803   3.255
 8137W        W12188   6.222   1.818   8.557
 8138W        W12189   2.007  10.446   2.258
 8139W        W12190   9.375  10.017   3.359
 8140W        W12191  10.443   9.873   9.054
 8141W        W12192   5.685   2.350  11.796
 8142W        W12193   6.777  10.385   0.208
 8143W        W12194   3.057   4.261   3.300
 8144W        W12195  10.031  11.016   1.761
 8145W        W12196   7.355   0.266   2.030
 8146W        W12197   7.776   6.228  11.045
 8147W        W12198   4.284   8.142  11.891
 8148W        W12199   6.410  11.266   9.537
 8149W        W12200   3.187   5.595   9.993
 8150W        W12201   5.378  10.290   9.247
 8151W        W12202   5.755   7.990   0.706
 8152W        W12203   0.619   6.624  10.032
 8153W        W12204   2.799   7.548   8.821
 8154W        W12205   2.111  10.478  11.566
 8155W        W12206   1.531   2.239   9.702
 8156W        W12207   1.457   3.847  10.195
 8157W        W12208   3.764   4.956   9.853
 8158W        W12209   7.990   3.553  11.992
 8159W        W12210   5.454  11.083   2.638
 8160W        W12211   7.917   6.735  11.025
 8161W        W12212   6.643  11.321   9.977
 8162W        W12213   8.386   6.224   1.916
 8163W        W12214  10.412   3.009   8.538
 8164W        W12215  10.794   5.751   9.594
 8165W        W12216  10.417   3.112   1.675
 8166W        W12217   7.768   3.165   0.799
 8167W        W12218   5.162   7.024   0.810
 8168W        W12219   0.437   9.816   9.159
 8169W        W12220   5.002   0.472   2.716
 8170W        W12221   1.760   1.828   3.560
 8171W        W12222   6.053   4.784  11.246
 8172W        W12223   3.737   9.316  10.737
 8173W        W12224   1.238   4.965  11.227
 8174W        W12225   9.812  11.181   2.217
 8175W        W12226   5.338  10.795   9.482
 8176W        W12227   9.884   9.949   0.890
 8177W        W12228   7.592  11.040   1.778
 8178W        W12229   3.777   0.863   2.219
 8179W        W12230   4.152   9.580   1.747
 8180W        W12231   4.101  10.485   8.816
 8181W        W12232   5.837  11.297   1.305
 8182W        W12233  10.113   0.845   1.709
 8183W        W12234   1.050   0.027   0.046
 8184W        W12235  11.472  10.421   0.708
 8185W        W12236   2.336   5.426  11.547
 8186W        W12237  10.421   9.954  10.110
 8187W        W12238   0.971  10.889  10.790
 8188W        W12239  10.467   8.622   9.621
 8189W        W12240   4.279   3.165   1.236
 8190W        W12241   9.066   6.052  10.890
 8191W        W12242   9.392   4.821   8.795
 8192W        W12243  10.936   7.795   9.995
 8193W        W12244   8.938   4.137   8.363
 8194W        W12245   1.314   6.612   1.652
 8195W        W12246   6.041   8.367   9.876
 8196W        W12247   9.123   4.652   9.599
 8197W        W12248   8.184   2.795   9.455
 8198W        W12249   7.717   2.992   1.290
 8199W        W12250   3.326   1.420   1.473
 8200W        W12251   7.009   9.189   9.564
 8201W        W12252   0.805   9.083   8.712
 8202W        W12253   6.150   8.717   0.360
 8203W        W12254   1.474  10.966  10.739
 8204W        W12255   1.793   3.733   2.096
 8205W        W12256   4.852   3.349   3.201
 8206W        W12257  11.451   9.332   2.275
 8207W        W12258   2.685  11.482   0.706
 8208W        W12259   1.426   8.076   0.574
 8209W        W12260   6.862   3.518   2.744
 8210W        W12261   5.647   2.223   0.726
 8211W        W12262   9.799   4.274   9.531
 8212W        W12263   3.310   6.272  11.548
 8213W        W12264   4.002   2.270  10.969
 8214W        W12265   9.364   3.621   0.490
 8215W        W12266   7.497   7.135  11.131
 8216W        W12267   2.058   9.574   2.544
 8217W        W12268   2.928   7.974   8.517
 8218W        W12269   6.666   5.298  11.563
 8219W        W12270  10.922   8.982  11.499
 8220W        W12271   2.681   3.705   2.551
 8221W        W12272   5.076   9.324   1.034
 8222W        W12273   4.556   6.413   8.287
 8223W        W12274  10.103   3.263  11.390
 8224W        W12275   7.918   2.662   0.823
 8225W        W12276   9.414   9.683  11.341
 8226W        W12277  10.446   1.905   0.235
 8227W        W12278   9.644   3.786  10.376
 8228W        W12279   8.405   3.239  11.381
 8229W        W12280  10.871   1.834   1.347
 8230W        W12281   2.523   6.158  11.921
 8231W        W12282   4.275   8.788   2.105
 8232W        W12283   0.374   4.550   1.214
 8233W        W12284   0.720   7.659  11.814
 8234W        W12285   4.531   0.277   2.851
 8235W        W12286   9.080   5.913   1.411
 8236W        W12287   0.407  10.378   3.242
 8237W        W12288   0.702   2.790   8.947
 8238W        W12289   9.180   0.756   8.902
 8239W        W12290   5.321   8.427   2.119
 8240W        W12291  10.301   2.694   1.945
 8241W        W12292  10.472  10.579   0.061
 8242W        W12293   4.989   6.731   8.652
 8243W        W12294   1.260   9.309  10.553
 8244W        W12295   2.636   6.050   2.808
 8245W        W12296   6.372   4.084   1.801
 8246W        W12297   1.652   0.366  10.431
 8247W        W12298   9.601   4.648   1.883
 8248W        W12299   5.718   0.447  10.134
 8249W        W12300   7.111   0.003   0.899
 8250W        W12301   1.487   6.572  10.287
 8251W        W12302   5.956   2.117   9.040
 8252W        W12303   9.037   2.927  11.814
 8253W        W12304   4.335   8.581   1.631
 8254W        W12305  10.385   0.965   0.484
 8255W        W12306   3.017   0.896   3.524
 8256W        W12307   4.394   3.595  11.945
 8257W        W12308   3.688   4.110  11.397
 8258W        W12309   0.191  10.345  11.903
 8259W        W12310   8.486  11.429  11.711
 8260W        W12311   6.498   4.822   1.392
 8261W        W12312   2.419   0.300  10.844
 8262W        W12313  10.557   6.567   3.488
 8263W        W12314   1.536   5.079   0.303
 8264W        W12315  10.994   7.988   1.240
 8265W        W12316   2.645   0.976   2.714
 8266W        W12317   6.586   1.078   2.896
 8267W        W12318   5.569   7.595  10.416
 8268W        W12319   8.370   5.717  10.549
 8269W        W12320   9.405   9.136   9.437
 8270W        W12321   5.217   4.247   9.951
 8271W        W12322   4.099   0.974   0.718
 8272W        W12323  10.616   5.147  10.377
 8273W        W12324  10.434  11.492   0.231
 8274W        W12325   8.995   0.791  10.311
 8275W        W12326   2.262   6.162   0.965
 8276W        W12327   1.839   4.106  11.436
 8277W        W12328   6.954   7.497   2.315
 8278W        W12329   1.051   7.517   9.857
 8279W        W12330   2.626   6.913  11.703
 8280W        W12331   3.083   6.289   2.888
 8281W        W12332  11.026  10.824   1.204
 8282W        W12333   9.846   3.679   9.027
 8283W        W12334   8.775   6.362  11.219
 8284W        W12335   6.050   4.142   1.425
 8285W        W12336   0.333   6.019   3.610
 8286W        W12337   5.010   2.183  11.045
 8287W        W12338  10.784   0.401  10.318
 8288W        W12339   8.288   5.783   8.907
 8289W        W12340   4.806   4.877  11.483
 8290W        W12341   4.668   7.502   1.382
 8291W        W12342   2.244   4.170  11.101
 8292W        W12343   7.255   5.088   0.284
 8293W        W12344   9.366   7.242   9.273
 8294W        W12345   6.832  10.058   8.618
 8295W        W12346   7.119   2.882  11.254
 8296W        W12347   1.877   0.055   1.454
 8297W        W12348   9.642  11.218   0.676
 8298W        W12349   4.409   7.024  11.316
 8299W        W12350   8.910   5.602   0.404
 8300W        W12351  11.237   6.222   0.985
 8301W        W12352   5.513   8.892  11.648
 8302W        W12353   7.459   5.276  11.438
 8303W        W12354   7.397   9.289  10.962
 8304W        W12355   0.966   8.996   0.938
 8305W        W12356   0.174   3.539   1.078
 8306W        W12357   8.123   5.190  11.979
 8307W        W12358  10.321   4.743   0.477
 8308W        W12359   5.932  11.437   0.816
 8309W        W12360   5.656   4.681   8.759
 8310W        W12361   5.504   3.850  11.866
 8311W        W12362   2.830   8.776  10.570
 8312W        W12363   5.195   4.586   2.736
 8313W        W12364  10.396   2.935   0.364
 8314W        W12365   3.850   5.387   2.073
 8315W        W12366  10.344  10.139  11.833
 8316W        W12367   3.353   3.892   0.517
 8317W        W12368   6.653   0.295   9.713
 8318W        W12369  10.874   8.141   9.529
 8319W        W12370   2.381  11.031   9.578
 8320W        W12371   6.494   8.524   0.709
 8321W        W12372   5.069   6.095  10.847
 8322W        W12373   8.241   4.879  10.966
 8323W        W12374   9.284   6.174   0.987
 8324W        W12375   7.579  10.784   8.671
 8325W        W12376   3.332   5.487   2.956
 8326W        W12377   9.889   1.239  10.039
 8327W        W12378   2.769   2.836   2.448
 8328W        W12379   4.402  10.366   1.489
 8329W        W12380   9.514   8.034   1.305
 8330W        W12381   3.912   6.578   0.770
 8331W        W12382   3.382   5.705   8.292
 8332W        W12383   6.956   6.062   0.752
 8333W        W12384   0.865   5.071   9.551
 8334W        W12385   9.780   6.189   1.869
 8335W        W12386   1.358   0.473   9.538
 8336W        W12387   5.066   8.175   0.472
 8337W        W12388  10.473   4.457   1.892
 8338W        W12389   9.466  11.494  10.249
 8339W        W12390   8.880  10.431   1.657
 8340W        W12391   1.954   6.635  10.513
 8341W        W12392   8.976   2.572   9.879
 8342W        W12393   8.512   9.834   9.330
 8343W        W12394  10.695   3.757  10.174
 8344W        W12395   3.224   0.525   3.249
 8345W        W12396   0.848   2.272   2.741
 8346W        W12397   9.247   8.450   3.580
 8347W        W12398   6.175   9.324  11.750
 8348W        W12399   1.099  11.408   2.262
 8349W        W12400   5.205   3.624   3.502
 8350W        W12401   0.218   9.077   2.623
 8351W        W12402   5.717   1.241   9.857
 8352W        W12403   1.705   4.556  10.094
 8353W        W12404   5.722   0.258   3.393
 8354W        W12405   4.536   2.729   9.150
 8355W        W12406   1.745   9.424  10.533
 8356W        W12407   7.673   6.461   3.387
 8357W        W12408   9.258   9.384   8.999
 8358W        W12409   5.084   4.573   1.742
 8359W        W12410   3.295   6.174   9.309
 8360W        W12411   7.811   4.602  11.247
 8361W        W12412   3.824   5.774   0.706
 8362W        W12413   1.245   5.894   3.486
 8363W        W12414   7.078   2.660  11.970
 8364W        W12415   1.783   7.338   3.956
 8365W        W12416   4.671   8.860  10.496
 8366W        W12417   9.090   1.657   1.945
 8367W        W12418   8.348   4.350   0.865
 8368W        W12419   2.673   0.225   1.696
 8369W        W12420  10.499   8.675   3.184
 8370W        W12421   1.428   7.132   2.422
 8371W        W12422   2.380   4.855   2.809
 8372W        W12423  10.450   5.812   9.980
 8373W        W12424   4.225   4.272   8.800
 8374W        W12425   1.993   4.620   1.042
 8375W        W12426   5.107   7.213   1.379
 8376W        W12427   2.355   1.880   2.207
 8377W        W12428   8.906   5.075  10.302
 8378W        W12429   4.075   5.300  10.097
 8379W        W12430   8.337   3.864   2.333
 8380W        W12431   9.372   9.345  10.924
 8381W        W12432   4.811   7.753   0.567
 8382W        W12433   1.331   4.625   1.208
 8383W        W12434   8.537   9.577  11.534
 8384W        W12435   2.237   1.511   3.404
 8385W        W12436   3.259   0.127   2.931
 8386W        W12437   7.505   8.485   9.349
 8387W        W12438   1.371   7.087  10.044
 8388W        W12439   8.531   0.319  11.397
 8389W        W12440   7.163  11.327   1.815
 8390W        W12441  11.434   4.865   9.097
 8391W        W12442   0.282   9.886  10.159
 8392W        W12443   5.066   1.672  10.760
 8393W        W12444   1.941   6.213   8.953
 8394W        W12445   7.179   0.020   9.066
 8395W        W12446   7.410   4.348  10.600
 8396W        W12447   2.779   3.284   9.240
 8397W        W12448   6.209   2.869   0.442
 8398W        W12449   8.467   0.165   0.981
 8399W        W12450   2.162   0.423  11.297
 8400W        W12451   3.299   3.853   9.638
 8401W        W12452   6.407   3.346  10.630
 8402W        W12453   0.355   9.511   1.973
 8403W        W12454   0.934   5.995   1.664
 8404W        W12455   1.345   0.977   9.582
 8405W        W12456   1.373   5.085  10.727
 8406W        W12457   7.548   0.318   9.669
 8407W        W12458   3.752   8.518   8.725
 8408W        W12459   4.192  10.937   0.740
 8409W        W12460   9.195   1.355   0.681
 8410W        W12461   2.355   5.276   2.493
 8411W        W12462   2.733   8.037   3.174
 8412W        W12463   6.156   3.460  11.139
 8413W        W12464   4.160   0.869   9.161
 8414W        W12465   5.990   7.225   3.164
 8415W        W12466  10.545   6.014  11.815
 8416W        W12467   3.365  11.399   8.709
 8417W        W12468   7.490   8.596   1.832
 8418W        W12469   1.206  10.497   0.494
 8419W        W12470   6.551   9.598  11.507
 8420W        W12471   9.105   2.452   0.702
 8421W        W12472   3.112   0.670  11.032
 8422W        W12473   8.615   0.712   8.986
 8423W        W12474   1.584   7.628   2.286
 8424W        W12475  11.480   6.514  10.561
 8425W        W12476   7.692   1.805   1.982
 8426W        W12477   7.171   1.206  11.784
 8427W        W12478   4.681   2.855   3.559
 8428W        W12479   6.808   0.372   8.958
 8429W        W12480   2.750   7.400   9.814
 8430W        W12481   0.385   4.978  10.728
 8431W        W12482  10.830  11.420  10.505
 8432W        W12483   1.290   3.291   3.136
 8433W        W12484  10.853   0.843   9.587
 8434W        W12485   8.494   2.446   9.077
 8435W        W12486   1.354   6.217   1.977
 8436W        W12487   7.820   6.077   8.856
 8437W        W12488   9.909   7.200   1.905
 8438W        W12489   9.508   3.876   8.586
 8439W        W12490   6.370   2.062   4.082
 8440W        W12491   2.920   8.419  11.895
 8441W        W12492   9.464   1.669   3.346
 8442W        W12493  10.836  10.101   0.925
 8443W        W12494   3.153   6.665   2.563
 8444W        W12495   4.822  10.310   1.817
 8445W        W12496   3.232  10.057   9.861
 8446W        W12497   5.998  11.008   1.976
 8447W        W12498   3.164   0.325   0.978
 8448ION    NA+12499   2.210   0.078   1.881
 8449ION    NA+12500   3.672   7.537   1.105
 8450ION    NA+12501   9.638   3.935  11.239
 8451ION    NA+12502   3.114   8.841   1.562
 8452ION    NA+12503   9.446   4.681  10.602
 8453ION    NA+12504   2.241   6.604   2.143
 8454ION    NA+12505   4.800   3.794  11.703
 8455ION    NA+12506   7.489   1.280   3.676
 8456ION    NA+12507   0.003   8.478  10.392
 8457ION    NA+12508   6.170   8.183   2.215
 8458ION    NA+12509   9.568   8.363  11.881
 8459ION    NA+12510   9.488   6.080   0.209
 8460ION    NA+12511   3.378   5.710   1.648
 8461ION    NA+12512   9.312   0.927  11.708
 8462ION    NA+12513   5.252   4.973   2.075
 8463ION    NA+12514  11.442   5.186  10.603
 8464ION    NA+12515   7.398   3.519   2.180
 8465ION    NA+12516   7.961  10.490   9.340
 8466ION    NA+12517   0.244   7.434   8.857
 8467ION    NA+12518   9.429   6.459   9.550
 8468ION    NA+12519   2.126   8.179   9.725
 8469ION    NA+12520   7.618   2.107   8.904
 8470ION    NA+12521   8.094   2.606   3.890
 8471ION    NA+12522   8.831  10.967   9.464
 8472ION    NA+12523   5.240   6.351  11.296
 8473ION    NA+12524   0.533   7.489   9.723
 8474ION    NA+12525   9.130  10.674   0.802
 8475ION    NA+12526   3.849   4.010  10.159
 8476ION    NA+12527   9.382   7.746  11.248
 8477ION    NA+12528   3.910   2.170   1.710
 8478ION    NA+12529   4.791   0.897   2.120
 8479ION    NA+12530   1.262   5.049  11.796
 8480ION    NA+12531   0.984  11.192   8.905
 8481ION    NA+12532   8.783   8.383  11.733
 8482ION    NA+12533   0.894   4.000   3.034
 8483ION    NA+12534   7.037   1.395   2.791
 8484ION    NA+12535   5.072   2.098  11.947
 8485ION    NA+12536   4.153   0.729  10.401
 8486ION    NA+12537  10.566   0.081   1.486
 8487ION    NA+12538   5.600   7.572   2.453
 8488ION    NA+12539  11.155   0.476   2.702
 8489ION    NA+12540   4.237   3.956   0.595
 8490ION    NA+12541   6.026   9.463   2.516
 8491ION    NA+12542   3.208   2.367   0.426
 8492ION    NA+12543   1.475   2.214   8.867
 8493ION    NA+12544   3.047   8.923  11.859
 8494ION    NA+12545   4.176   1.779   2.595
 8495ION    NA+12546   8.545   6.825   9.842
 8496ION    NA+12547   7.525   9.552   1.016
 8497ION    NA+12548   7.428   0.856   0.083
 8498ION    NA+12549   1.838   4.129   1.283
 8499ION    NA+12550   7.953   6.372  10.585
 8500ION    NA+12551   3.083   5.822   2.626
 8501ION    NA+12552   5.384   1.568   2.185
 8502ION    NA+12553   0.241   4.386  11.695
 8503ION    NA+12554   3.051   8.287   0.877
 8504ION    NA+12555   7.103   1.699   1.649
 8505ION    NA+12556   3.074  11.036   8.002
 8506ION    NA+12557   8.209   1.050   2.933
 8507ION    NA+12558   4.040   8.431   0.850
 8508ION    NA+12559   9.271   0.062   0.943
 8509ION    NA+12560   3.443   2.036   3.622
 8510ION    NA+12561   5.366  10.107  11.412
 8511ION    NA+12562   7.958   5.106   3.154
 8512ION    NA+12563  11.374   7.931  11.974
 8513ION    NA+12564   9.334   0.748   9.923
 8514ION    NA+12565  11.427  11.071  11.982
 8515ION    NA+12566  11.028   6.505  10.180
 8516ION    NA+12567   5.764   2.814   9.540
 8517ION    NA+12568   6.656   9.166   8.779
 8518ION    NA+12569   1.002   5.097   1.224
 8519ION    NA+12570   7.551   0.240  11.304
 8520ION    NA+12571   0.423   0.387   9.117
 8521ION    NA+12572   2.393   7.804   8.569
 8522ION    NA+12573   8.982   3.295   0.439
 8523ION    NA+12574   9.585   1.512   2.443
 8524ION    NA+12575  10.432   7.689   9.862
 8525ION    NA+12576  10.513   4.161   0.733
 8526ION    NA+12577   7.405   8.708   8.895
 8527ION    NA+12578   0.564   1.517  11.480
 8528ION    NA+12579   9.760  10.134  11.157
 8529ION    NA+12580  10.335  11.023   0.376
 8530ION    NA+12581   9.560   1.491   9.290
 8531ION    NA+12582   0.020   1.806  10.718
 8532ION    NA+12583   8.605   4.530   2.655
 8533ION    NA+12584   1.814  11.208   0.425
 8534ION    NA+12585   2.661   3.417  10.339
 8535ION    NA+12586   8.510   0.184   9.874
 8536ION    NA+12587   5.129   3.389   8.272
 8537ION    CL-12588   2.812   4.608   2.959
 8538ION    CL-12589   4.691   3.256   8.294
 8539ION    CL-12590   0.377   2.377   3.508
 8540ION    CL-12591   1.212  11.342  11.533
 8541ION    CL-12592  10.038   4.111   3.515
 8542ION    CL-12593  11.135  11.422  10.912
 8543ION    CL-12594   5.810  10.111  11.361
 8544ION    CL-12595   9.141   3.750  10.386
 8545ION    CL-12596   9.479  10.491  11.206
 8546ION    CL-12597   0.111   0.582  10.328
 8547ION    CL-12598   2.809   5.110  11.761
 8548ION    CL-12599   5.056   1.265   2.113
 8549ION    CL-12600   3.498  10.726   3.575
 8550ION    CL-12601  11.240   4.088   1.536
 8551ION    CL-12602   1.509   7.651  11.363
 8552ION    CL-12603   0.361   1.522  10.863
 8553ION    CL-12604   6.394   9.312   2.312
 8554ION    CL-12605   0.313  10.511  10.895
 8555ION    CL-12606   4.568   3.957  10.345
 8556ION    CL-12607   6.232   9.333  10.151
 8557ION    CL-12608   0.720   0.037   9.097
 8558ION    CL-12609   2.660   2.198  10.858
 8559ION    CL-12610   7.756   1.694   8.756
 8560ION    CL-12611   9.501   1.892   2.218
 8561ION    CL-12612   9.053   1.194  11.461
 8562ION    CL-12613   0.862   8.783  11.557
 8563ION    CL-12614   8.305   0.663   2.730
 8564ION    CL-12615   9.406  10.837   3.603
 8565ION    CL-12616  11.437   0.820   2.709
 8566ION    CL-12617   8.272   4.623  11.455
 8567ION    CL-12618   2.507   9.847   9.475
 8568ION    CL-12619   8.601   3.074   0.384
 8569ION    CL-12620   9.399   2.892   9.941
 8570ION    CL-12621   4.764   7.229   2.916
 8571ION    CL-12622   9.156   8.591  11.936
 8572ION    CL-12623   8.587   8.125  11.404
 8573ION    CL-12624   6.124   7.404   0.232
 8574ION    CL-12625  10.505   2.216   3.071
 8575ION    CL-12626  11.220   9.423   0.744
 8576ION    CL-12627   1.780   4.926   4.088
 8577ION    CL-12628   0.518   1.832  11.801
 8578ION    CL-12629   8.604  11.267   9.717
 8579ION    CL-12630   2.040  10.193   3.536
 8580ION    CL-12631   8.559   2.128  11.021
 8581ION    CL-12632  11.457   1.438   0.530
 8582ION    CL-12633   2.708  11.060   3.060
 8583ION    CL-12634   8.072   7.902  10.437
 8584ION    CL-12635  10.081   9.861  10.980
 8585ION    CL-12636   4.178   0.062   8.373
 8586ION    CL-12637   0.310   6.749   1.638
 8587ION    CL-12638   5.781   7.973   2.328
 8588ION    CL-12639   7.394   7.079   1.702
 8589ION    CL-12640   1.290   2.259   9.271
 8590ION    CL-12641   9.691   3.493  11.181
 8591ION    CL-12642   5.865  10.372  10.044
 8592ION    CL-12643   2.087  11.077   8.708
 8593ION    CL-12644   4.086   4.073   1.001
 8594ION    CL-12645   0.383  10.512   0.984
 8595ION    CL-12646   3.092   8.487   1.282
 8596ION    CL-12647   9.197  11.115   0.898
 8597ION    CL-12648  10.386   3.961   2.040
 8598ION    CL-12649  10.869   1.206  10.576
 8599ION    CL-12650   4.728   7.848   1.747
 8600ION    CL-12651   5.615   3.237  11.293
 8601ION    CL-12652  10.519   7.013   0.460
 8602ION    CL-12653   2.736   3.837  10.467
 8603ION    CL-12654   4.834   1.302   8.905
 8604ION    CL-12655   0.145   7.558   8.392
 8605ION    CL-12656   6.931   9.298  11.256
 8606ION    CL-12657   9.870   8.545   9.816
 8607ION    CL-12658   5.952   7.008   9.797
 8608ION    CL-12659   4.250   0.549  10.004
 8609ION    CL-12660   9.563   7.996  11.582
 8610ION    CL-12661   0.371   7.430   9.304
 8611ION    CL-12662   8.078   7.365   2.800
 8612ION    CL-12663   1.647   6.531   9.425
 8613ION    CL-12664   6.980   8.840   8.775
 8614ION    CL-12665   2.130  10.906   0.333
 8615ION    CL-12666   9.596   4.391   2.478
 8616ION    CL-12667   5.498   6.020  11.146
 8617ION    CL-12668   4.834   5.243  10.819
 8618ION    CL-12669   7.077   0.679   0.295
 8619ION    CL-12670   0.608   8.099   3.176
 8620ION    CL-12671  11.202   2.136  10.661
 8621ION    CL-12672   4.216   9.610   0.498
 8622ION    CL-12673   0.995  10.074   9.133
 8623ION    CL-12674   6.509   4.448  11.958
 8624ION    CL-12675   0.451   8.583   1.464
 8625ION    CL-12676   6.757   7.566  10.088
  11.50000  11.50000  12.00000
