Protein in INSANE! Membrane UpperLeaflet>POPC=1.0 LowerLeaflet>POPC=1.0
12676
    1AU     AUC    1   1.392   6.659   7.169  0.0275  0.0196  0.0239
    1AU     AUC    2   1.144   6.700   6.991 -0.0826  0.0257 -0.0674
    1AU     AUC    3   1.389   6.899   6.982 -0.0183  0.0019 -0.0541
    1AU     AUC    4   1.380   6.417   7.348 -0.0059 -0.0195 -0.0127
    1AU     AUC    5   1.612   6.627   7.374 -0.0295  0.0463  0.0455
    1AU     AUC    6   1.325   6.719   7.455 -0.0337  0.0484  0.0787
    1AU     AUC    7   1.170   6.862   7.235  0.0160  0.0112 -0.1065
    1AU     AUC    8   1.589   6.456   7.096  0.0562 -0.0512 -0.0246
    1AU     AUC    9   1.471   6.622   6.895 -0.0834 -0.0625  0.0159
    1AU     AUC   10   1.658   6.747   7.090  0.0081 -0.0101  0.1516
    1AU     AUC   11   1.488   6.918   7.287  0.0207 -0.0258 -0.0430
    1AU     AUC   12   1.280   6.407   7.044 -0.0028  0.1165  0.0203
    1AU     AUC   13   1.133   6.553   7.283 -0.0122  0.0473  0.0342
    1AU     AUC   14   0.907   6.719   6.811  0.1409 -0.0875  0.1268
    1AU     AUC   15   1.152   6.932   6.808  0.1364  0.0271  0.0892
    1AU     AUC   16   1.382   7.133   6.823 -0.0117 -0.1163 -0.0501
    1AU     AUC   17   1.400   6.175   7.526 -0.1254  0.1386  0.0098
    1AU     AUC   18   1.617   6.396   7.546 -0.0388  0.0196  0.0236
    1AU     AUC   19   1.853   6.620   7.567  0.0757  0.0339 -0.0091
    1AU     AUC   20   1.261   6.779   7.752 -0.0707  0.0896 -0.0101
    1AU     AUC   21   1.106   6.934   7.545  0.0583 -0.1026  0.0163
    1AU     AUC   22   0.970   7.085   7.322 -0.0911 -0.0405 -0.0232
    1AU     AUC   23   1.810   6.240   7.044 -0.0267 -0.0223 -0.0397
    1AU     AUC   24   1.656   6.379   6.823 -0.1156 -0.0564  0.0386
    1AU     AUC   25   1.532   6.582   6.610  0.0178  0.0037  0.0067
    1AU     AUC   26   1.930   6.830   7.003  0.1558 -0.0464 -0.0355
    1AU     AUC   27   1.773   7.015   7.206 -0.0307 -0.0348  0.0067
    1AU     AUC   28   1.586   7.186   7.400  0.0774 -0.0645  0.0420
    1AU     AUC   29   1.167   6.146   6.908  0.0242 -0.0447  0.0135
    1AU     AUC   30   1.011   6.304   7.140  0.0212 -0.0001 -0.0729
    1AU     AUC   31   0.847   6.460   7.372 -0.0022  0.0112  0.0451
    1AU     AUC   32   1.675   7.015   6.902  0.0219  0.0332  0.0257
    1AU     AUC   33   1.498   7.164   7.097 -0.1084  0.0080  0.0213
    1AU     AUC   34   1.043   6.444   6.857  0.0183 -0.0236  0.0679
    1AU     AUC   35   0.878   6.574   7.080 -0.1157 -0.0970  0.0027
    1AU     AUC   36   1.892   6.738   7.288  0.0741 -0.0054  0.1233
    1AU     AUC   37   1.719   6.917   7.492 -0.0646 -0.0273 -0.0456
    1AU     AUC   38   1.253   6.149   7.216  0.0124  0.1076 -0.0211
    1AU     AUC   39   1.129   6.307   7.456  0.1179 -0.0388 -0.0191
    1AU     AUC   40   0.930   6.894   7.068 -0.0905  0.0056 -0.0032
    1AU     AUC   41   1.163   7.118   7.052 -0.0829  0.0542  0.0513
    1AU     AUC   42   1.348   6.467   7.654 -0.0361 -0.0524 -0.0313
    1AU     AUC   43   1.553   6.712   7.658  0.0082  0.0601  0.0506
    1AU     AUC   44   1.215   6.648   6.691  0.0136  0.0576  0.0745
    1AU     AUC   45   1.454   6.870   6.693  0.0340  0.0111 -0.0029
    1AU     AUC   46   1.597   6.197   7.279  0.0554 -0.0977 -0.0567
    1AU     AUC   47   1.839   6.440   7.317  0.0593 -0.0254  0.0487
    1AU     AUC   48   1.451   6.978   7.574 -0.0290  0.0138 -0.0143
    1AU     AUC   49   1.267   7.145   7.375  0.0712  0.0561  0.0376
    1AU     AUC   50   1.871   6.540   7.002 -0.0939 -0.0385  0.1058
    1AU     AUC   51   1.738   6.720   6.776 -0.0039  0.0284 -0.0028
    1AU     AUC   52   1.074   6.604   7.579  0.0547  0.0557 -0.0235
    1AU     AUC   53   0.924   6.787   7.352  0.0481 -0.0147 -0.0229
    1AU     AUC   54   1.489   6.181   7.001  0.0966 -0.0202 -0.0539
    1AU     AUC   55   1.343   6.381   6.764 -0.0171  0.0371  0.0318
    1AU    AUSL   56   1.703   7.224   6.936 -0.0453 -0.0652  0.0726
    1AU    AUSL   57   1.963   7.031   6.670 -0.1512  0.0190  0.0076
    1AU     AUL   58   2.019   7.368   6.628  0.0559  0.0587  0.0172
    1AU       S   59   1.912   7.081   6.231  0.2381 -0.0565  0.0711
    1AU     LIG   60   2.380   7.111   6.216  0.1271 -0.2359 -0.2154
    1AU     LIG   61   2.751   7.029   6.368  0.3109  0.2245 -0.1538
    1AU     LIG   62   3.045   6.841   6.163 -0.0595  0.0317  0.0898
    1AU     LIG   63   3.315   6.725   5.961  0.0608  0.1205  0.2513
    1AU     LIG   64   3.533   6.605   5.509  0.1487  0.4050  0.1819
    1AU     LIG   65   3.725   6.636   5.153 -0.4213  0.2503  0.0851
    1AU       S   66   2.096   7.737   6.978  0.0181  0.1234 -0.1452
    1AU     LIG   67   2.331   8.190   6.872  0.2741 -0.2468 -0.0014
    1AU     LIG   68   2.547   8.413   6.680  0.1728  0.2044 -0.1313
    1AU     LIG   69   2.960   8.507   6.892  0.2804 -0.0342  0.2367
    1AU     LIG   70   3.331   8.733   6.740 -0.3332  0.1248  0.0496
    1AU     LIG   71   3.582   8.451   6.556 -0.4150  0.3311  0.4346
    1AU     LIG   72   3.496   8.206   6.187 -0.0389 -0.1877  0.3393
    1AU    AUSL   73   2.127   7.167   7.036  0.0372  0.0380 -0.0272
    1AU    AUSL   74   1.864   7.244   7.358 -0.0438 -0.0201 -0.0194
    1AU     AUL   75   2.099   7.351   7.199  0.0025 -0.0565 -0.0550
    1AU       S   76   2.243   7.693   6.864 -0.1175  0.6670  0.0590
    1AU     LIG   77   2.540   7.348   6.787  0.2300  0.1230  0.0065
    1AU     LIG   78   2.897   7.411   6.680  0.0808 -0.2863 -0.0899
    1AU     LIG   79   3.248   7.202   6.553 -0.1337  0.0975  0.1047
    1AU     LIG   80   3.271   6.736   6.609 -0.1042 -0.0300  0.1397
    1AU     LIG   81   3.398   6.457   6.349 -0.1369  0.4227 -0.0599
    1AU     LIG   82   3.618   6.087   6.599  0.0273 -0.1849  0.0157
    1AU       S   83   2.483   7.353   7.415 -0.0624 -0.1891  0.2327
    1AU     LIG   84   2.839   7.483   7.217  0.0604 -0.1863  0.2584
    1AU     LIG   85   3.219   7.604   6.992 -0.0143 -0.0767  0.1377
    1AU     LIG   86   3.520   7.593   6.713  0.0805  0.1064 -0.0656
    1AU     LIG   87   3.785   7.941   6.754 -0.1796 -0.3161 -0.0814
    1AU     LIG   88   4.091   8.078   6.514  0.1679 -0.1860  0.0216
    1AU     LIG   89   3.958   8.360   6.164 -0.2239  0.0570  0.3128
    1AU    AUSL   90   1.637   7.551   7.201  0.1058 -0.0751  0.0499
    1AU    AUSL   91   1.346   7.447   6.846  0.0682 -0.0163 -0.0272
    1AU     AUL   92   1.694   7.582   6.874  0.0117 -0.0190 -0.1008
    1AU       S   93   1.866   7.786   7.226  0.3097 -0.2876 -0.2103
    1AU     LIG   94   1.621   8.055   7.305 -0.2164 -0.0271 -0.1267
    1AU     LIG   95   1.401   8.448   7.073  0.0475  0.3533  0.0073
    1AU     LIG   96   1.249   8.744   6.685 -0.2010 -0.1801 -0.2767
    1AU     LIG   97   0.879   8.762   6.527 -0.1596  0.1754  0.0390
    1AU     LIG   98   0.593   8.813   6.173  0.0132  0.0668 -0.1998
    1AU     LIG   99   0.152   8.794   6.053  0.0170  0.4044  0.2003
    1AU       S  100   1.264   7.678   6.697  0.1075 -0.2732 -0.1027
    1AU     LIG  101   1.057   7.685   6.220  0.0713 -0.0123  0.0614
    1AU     LIG  102   0.564   7.507   6.052 -0.0981 -0.1398  0.2319
    1AU     LIG  103   0.325   7.162   5.833 -0.0713 -0.2714  0.1487
    1AU     LIG  104  -0.001   6.881   5.984 -0.2956  0.0759 -0.2345
    1AU     LIG  105  -0.506   7.002   6.068  0.1417  0.1021  0.4337
    1AU     LIG  106  -0.900   7.226   6.254  0.1169 -0.0363  0.2061
    1AU    AUSL  107   0.686   6.535   6.820 -0.1026 -0.0356 -0.0326
    1AU    AUSL  108   0.536   6.586   7.259 -0.0537  0.0348  0.0295
    1AU     AUL  109   0.301   6.474   6.957  0.0125  0.0669 -0.0196
    1AU       S  110   0.371   6.093   6.620 -0.4169 -0.1413 -0.3151
    1AU     LIG  111   0.110   5.841   6.733 -0.3903 -0.0055 -0.1054
    1AU     LIG  112  -0.160   5.533   6.676 -0.2272  0.2895 -0.2049
    1AU     LIG  113  -0.422   5.432   6.332 -0.1147  0.1150 -0.3471
    1AU     LIG  114  -0.821   5.360   6.437 -0.4254 -0.0568 -0.1037
    1AU     LIG  115  -1.228   5.471   6.657  0.1894 -0.3397 -0.1780
    1AU     LIG  116  -1.592   5.727   6.571  0.0144 -0.0053 -0.0885
    1AU       S  117   0.132   6.867   7.136  0.0385  0.1459  0.2808
    1AU     LIG  118  -0.192   6.700   7.214  0.0429 -0.2890  0.4298
    1AU     LIG  119  -0.576   6.411   7.386  0.1132 -0.2233  0.1399
    1AU     LIG  120  -0.965   6.082   7.314  0.1546 -0.3220 -0.2911
    1AU     LIG  121  -1.117   5.864   6.985  0.0366  0.2578 -0.1216
    1AU     LIG  122  -0.948   6.010   6.656  0.2330  0.1071  0.2056
    1AU     LIG  123  -0.844   5.871   6.221 -0.1345  0.0781 -0.3106
    1AU    AUSL  124   0.825   6.111   6.762 -0.0344  0.0440 -0.0179
    1AU    AUSL  125   0.895   6.466   6.482 -0.0356  0.0058  0.0292
    1AU     AUL  126   0.591   6.472   6.591  0.0367 -0.0035 -0.0268
    1AU       S  127   0.841   6.242   6.247 -0.3093 -0.5607  0.0592
    1AU     LIG  128   0.428   6.206   6.124  0.0387  0.4421  0.2511
    1AU     LIG  129   0.124   6.424   6.329  0.4615 -0.0299  0.0638
    1AU     LIG  130  -0.203   6.386   6.677 -0.1700  0.0829  0.3561
    1AU     LIG  131  -0.625   6.485   6.871  0.0709 -0.2391 -0.1200
    1AU     LIG  132  -1.018   6.554   7.171 -0.1323  0.3900 -0.1042
    1AU     LIG  133  -1.348   6.466   7.309  0.1764  0.1140 -0.0816
    1AU       S  134   0.630   6.003   6.603 -0.0553  0.0374 -0.2328
    1AU     LIG  135   0.492   5.714   6.275 -0.1662  0.0280 -0.2954
    1AU     LIG  136   0.513   5.365   5.961 -0.0300  0.0264  0.2042
    1AU     LIG  137   0.330   5.290   5.643 -0.0136  0.0851  0.1610
    1AU     LIG  138   0.134   5.438   5.186  0.1117 -0.0595  0.1708
    1AU     LIG  139  -0.079   5.872   4.976  0.0500  0.1291 -0.2118
    1AU     LIG  140  -0.288   6.326   4.910 -0.1994 -0.4973  0.2312
    1AU    AUSL  141   0.839   6.337   7.142 -0.1222 -0.0088  0.0116
    1AU    AUSL  142   0.911   5.912   7.123 -0.0429  0.0249 -0.0339
    1AU     AUL  143   0.567   6.099   7.064  0.0241 -0.0367 -0.0439
    1AU       S  144   0.695   5.697   7.211  0.1083  0.0469 -0.1973
    1AU     LIG  145   0.225   5.683   7.195  0.1822  0.0214  0.0724
    1AU     LIG  146  -0.202   5.548   7.166 -0.1378  0.1296  0.1588
    1AU     LIG  147  -0.552   5.305   7.302  0.1326 -0.2039 -0.0471
    1AU     LIG  148  -0.997   5.244   7.015 -0.0975 -0.1673  0.2287
    1AU     LIG  149  -1.208   4.996   6.690  0.2497 -0.0965 -0.3308
    1AU     LIG  150  -1.127   4.686   6.473 -0.2147  0.2827 -0.1265
    1AU       S  151   0.767   5.968   6.694  0.2891 -0.1090  0.2822
    1AU     LIG  152   0.565   5.571   6.776  0.1744  0.5850 -0.1220
    1AU     LIG  153   0.526   5.210   6.863  0.2313  0.0289  0.2071
    1AU     LIG  154   0.283   4.869   6.714  0.0302 -0.2198  0.4602
    1AU     LIG  155  -0.079   4.614   6.839  0.0322  0.1770  0.3073
    1AU     LIG  156  -0.252   4.208   6.833  0.3694  0.1011  0.0522
    1AU     LIG  157  -0.579   4.322   6.755 -0.1698  0.1393 -0.0685
    1AU    AUSL  158   2.120   6.954   7.523  0.1284  0.0236  0.0408
    1AU    AUSL  159   1.782   7.170   7.763 -0.1404 -0.0234 -0.0189
    1AU     AUL  160   1.976   7.372   7.637  0.0123  0.0222  0.0719
    1AU       S  161   2.442   7.246   7.512 -0.2073  0.1702  0.0650
    1AU     LIG  162   2.944   7.312   7.656 -0.1610  0.0248  0.1977
    1AU     LIG  163   3.274   7.429   7.458  0.5931 -0.1308  0.1233
    1AU     LIG  164   3.639   7.358   7.120 -0.3304  0.0620 -0.0207
    1AU     LIG  165   4.074   7.384   7.024 -0.1324 -0.2948 -0.0413
    1AU     LIG  166   4.278   7.837   7.020  0.1619  0.1722  0.3026
    1AU     LIG  167   4.540   8.140   7.117 -0.3200 -0.0059  0.0378
    1AU       S  168   2.129   7.091   7.974  0.0779 -0.2495  0.2192
    1AU     LIG  169   2.574   6.951   7.885 -0.1099 -0.2157  0.1783
    1AU     LIG  170   2.875   6.657   7.859 -0.0194 -0.0667 -0.1954
    1AU     LIG  171   3.192   6.457   7.981 -0.0304  0.0513  0.0207
    1AU     LIG  172   3.569   6.192   8.056  0.1314  0.0033  0.1389
    1AU     LIG  173   3.943   6.068   7.767 -0.0716 -0.0127  0.2668
    1AU     LIG  174   4.080   5.819   7.520 -0.5571  0.6817 -0.1325
    1AU    AUSL  175   1.892   6.854   7.182 -0.0732 -0.1233  0.0647
    1AU    AUSL  176   2.179   6.545   7.504  0.0023 -0.1396 -0.0281
    1AU     AUL  177   2.288   6.828   7.560  0.0695 -0.0349  0.0367
    1AU       S  178   2.584   6.486   7.516 -0.4157  0.0901 -0.1976
    1AU     LIG  179   3.066   6.281   7.474  0.0973  0.2263  0.0681
    1AU     LIG  180   3.434   6.378   7.518 -0.0506  0.2353 -0.0559
    1AU     LIG  181   3.840   6.221   7.291 -0.0742  0.1566  0.0427
    1AU     LIG  182   4.087   6.271   6.932 -0.0076 -0.2836  0.3511
    1AU     LIG  183   4.368   6.329   6.595 -0.1069  0.4973  0.3295
    1AU     LIG  184   4.575   6.327   6.120  0.1253  0.3562 -0.1583
    1AU       S  185   2.528   7.140   7.295  0.3927 -0.0035 -0.0853
    1AU     LIG  186   2.840   6.881   7.440  0.3269 -0.0156 -0.0985
    1AU     LIG  187   3.239   6.881   7.589  0.2197 -0.3342  0.0235
    1AU     LIG  188   3.635   6.842   7.363  0.3332 -0.1299 -0.0140
    1AU     LIG  189   3.920   6.861   7.146 -0.0137  0.4315 -0.1872
    1AU     LIG  190   4.398   6.668   7.177  0.2374 -0.0949 -0.1342
    1AU     LIG  191   4.763   6.523   7.411 -0.1953 -0.0070 -0.0218
    1AU    AUSL  192   1.196   6.052   7.418  0.0020 -0.0052  0.0305
    1AU    AUSL  193   1.301   5.936   6.990 -0.1230  0.0827 -0.0235
    1AU     AUL  194   1.142   5.665   7.183 -0.0614 -0.0722  0.0511
    1AU       S  195   0.723   5.628   7.451 -0.0029  0.1202  0.1109
    1AU     LIG  196   0.509   5.252   7.363  0.1781  0.1787  0.1178
    1AU     LIG  197   0.281   4.955   7.451  0.1019  0.0103 -0.1924
    1AU     LIG  198  -0.136   4.987   7.167 -0.1095 -0.0265 -0.0806
    1AU     LIG  199  -0.497   4.717   7.075 -0.3381 -0.1323  0.3399
    1AU     LIG  200  -0.939   4.682   7.016 -0.0552 -0.0713 -0.1050
    1AU     LIG  201  -1.351   4.588   7.004  0.2646  0.1690 -0.0643
    1AU       S  202   1.538   5.389   7.015  0.0934  0.0241 -0.1582
    1AU     LIG  203   1.422   4.904   6.855  0.1983  0.4480  0.0081
    1AU     LIG  204   1.222   4.517   6.944 -0.0682  0.2586 -0.1607
    1AU     LIG  205   1.142   4.111   6.774  0.1988 -0.0750 -0.1881
    1AU     LIG  206   1.145   3.631   6.804 -0.1930  0.0231 -0.2671
    1AU     LIG  207   0.887   3.347   6.977 -0.0420  0.1010 -0.3425
    1AU     LIG  208   0.444   3.086   6.973 -0.1465  0.1799 -0.2125
    1AU    AUSL  209   0.753   6.103   7.488  0.0780  0.0352  0.0892
    1AU    AUSL  210   1.131   6.100   7.829  0.0276  0.0628 -0.0058
    1AU     AUL  211   1.066   5.838   7.629 -0.0319 -0.0070  0.0310
    1AU       S  212   0.923   6.066   8.015 -0.2256 -0.0427 -0.2766
    1AU     LIG  213   0.719   5.612   7.916 -0.1569 -0.1465 -0.0982
    1AU     LIG  214   0.703   5.214   7.822 -0.0013 -0.3740 -0.2681
    1AU     LIG  215   0.765   4.785   7.770 -0.0940 -0.0018 -0.4119
    1AU     LIG  216   1.119   4.689   7.567  0.2202  0.0302 -0.4307
    1AU     LIG  217   1.270   4.338   7.412  0.3354 -0.0176 -0.0481
    1AU     LIG  218   1.158   3.941   7.242  0.5401 -0.0992 -0.1622
    1AU       S  219   0.637   5.930   7.493  0.0711 -0.6443 -0.1023
    1AU     LIG  220   0.245   6.055   7.508 -0.0250  0.6240 -0.0794
    1AU     LIG  221  -0.010   6.182   7.162  0.3833 -0.1639  0.0242
    1AU     LIG  222  -0.368   5.963   6.919  0.0161 -0.3239 -0.0204
    1AU     LIG  223  -0.618   5.664   6.834 -0.0379  0.3101  0.2026
    1AU     LIG  224  -0.487   5.209   6.763  0.1652  0.0465 -0.3137
    1AU     LIG  225  -0.158   4.965   6.457  0.0925 -0.1195 -0.2775
    1AU    AUSL  226   0.744   7.265   7.155 -0.0494 -0.0651  0.0243
    1AU    AUSL  227   0.586   6.913   6.969 -0.0343 -0.1020  0.0186
    1AU     AUL  228   0.408   7.299   7.236 -0.0116 -0.0416  0.1188
    1AU       S  229   0.305   6.910   6.809 -0.2426 -0.0858 -0.0065
    1AU     LIG  230  -0.009   6.826   6.527  0.0979  0.2856  0.1149
    1AU     LIG  231  -0.431   6.877   6.533  0.2073  0.1348 -0.2770
    1AU     LIG  232  -0.841   6.963   6.718  0.1012 -0.2139 -0.3738
    1AU     LIG  233  -1.155   7.224   6.697 -0.2932  0.0282  0.6097
    1AU     LIG  234  -1.352   7.540   6.869 -0.1547  0.0958  0.1554
    1AU     LIG  235  -1.739   7.879   7.106 -0.0621  0.0729 -0.0294
    1AU       S  236   0.555   7.394   6.783 -0.1575  0.3383  0.4339
    1AU     LIG  237   0.377   7.717   6.487  0.1738  0.0480 -0.0072
    1AU     LIG  238   0.026   7.917   6.490  0.2817  0.3766 -0.0578
    1AU     LIG  239  -0.081   8.319   6.694 -0.0844 -0.2234  0.5047
    1AU     LIG  240   0.037   8.753   6.591  0.1898 -0.0419  0.3275
    1AU     LIG  241  -0.197   9.130   6.710  0.0350  0.1306 -0.1198
    1AU     LIG  242  -0.077   9.565   6.891  0.3003 -0.0417  0.1189
    1AU    AUSL  243   0.776   6.976   6.616  0.0063 -0.0376  0.0500
    1AU    AUSL  244   1.167   7.170   6.497  0.1017  0.0926  0.0056
    1AU     AUL  245   0.857   7.146   6.303  0.0314 -0.0108  0.1022
    1AU       S  246   0.521   7.252   6.590  0.2244  0.3484 -0.1155
    1AU     LIG  247   0.184   7.240   6.318  0.3054  0.1340 -0.0579
    1AU     LIG  248  -0.127   7.403   6.477  0.0286  0.2831  0.1284
    1AU     LIG  249  -0.553   7.409   6.679  0.2249 -0.0414 -0.0835
    1AU     LIG  250  -0.841   7.483   7.028 -0.2619  0.3309 -0.0555
    1AU     LIG  251  -0.974   7.425   7.568  0.0864 -0.0421 -0.0101
    1AU     LIG  252  -1.211   7.286   7.914 -0.2730  0.0780  0.2980
    1AU       S  253   1.157   7.074   5.930 -0.2011  0.3306  0.0663
    1AU     LIG  254   0.770   6.886   5.887  0.0671 -0.3201 -0.0306
    1AU     LIG  255   0.471   6.675   5.639 -0.1222 -0.0067 -0.2093
    1AU     LIG  256   0.181   6.514   5.790  0.3082 -0.0788 -0.0620
    1AU     LIG  257  -0.092   6.168   5.943  0.1759 -0.3766 -0.3265
    1AU     LIG  258  -0.047   5.832   6.211 -0.0071 -0.1700  0.3234
    1AU     LIG  259   0.098   5.302   6.237 -0.0735  0.4509  0.1063
    1AU    AUSL  260   1.057   7.154   6.902 -0.0215  0.0070 -0.0913
    1AU    AUSL  261   1.117   7.482   7.203  0.1085  0.0735 -0.0744
    1AU     AUL  262   0.934   7.538   7.081  0.0478 -0.0422 -0.0970
    1AU       S  263   1.267   7.833   6.972  0.2149  0.0565 -0.0305
    1AU     LIG  264   1.631   8.131   6.777  0.1983  0.2083  0.0792
    1AU     LIG  265   1.738   8.386   6.502  0.0621 -0.0729  0.0271
    1AU     LIG  266   1.726   8.803   6.313 -0.4873  0.4907  0.4830
    1AU     LIG  267   1.516   9.121   6.401 -0.1440  0.3963 -0.0252
    1AU     LIG  268   1.391   9.542   6.519 -0.3074 -0.2132  0.0727
    1AU     LIG  269   1.417   9.941   6.275  0.0806  0.3290 -0.1428
    1AU       S  270   0.792   7.431   6.680 -0.3404  0.1502  0.4387
    1AU     LIG  271   0.799   7.859   6.648 -0.2534  0.2287  0.0086
    1AU     LIG  272   0.462   8.122   6.694  0.1019 -0.0716  0.0947
    1AU     LIG  273   0.411   8.500   6.748  0.0447  0.0097 -0.1341
    1AU     LIG  274   0.453   8.943   6.713  0.2958 -0.1659 -0.2343
    1AU     LIG  275   0.724   9.237   6.738  0.0489 -0.2645 -0.2505
    1AU     LIG  276   1.094   9.454   6.906  0.2041 -0.1216  0.0166
    1AU    AUSL  277   1.472   6.653   8.035 -0.0779 -0.0291  0.0148
    1AU    AUSL  278   1.843   6.760   7.763  0.0090 -0.0062 -0.0322
    1AU     AUL  279   1.604   6.845   8.158  0.0116  0.0450  0.0942
    1AU       S  280   2.054   6.794   7.992  0.0537 -0.1091  0.3802
    1AU     LIG  281   2.266   6.858   8.431  0.0267 -0.2304  0.0598
    1AU     LIG  282   2.683   6.985   8.672 -0.1257 -0.0669  0.4413
    1AU     LIG  283   3.145   7.213   8.737  0.1742 -0.1152 -0.1820
    1AU     LIG  284   3.548   7.398   8.949 -0.1022  0.0469 -0.3263
    1AU     LIG  285   3.819   7.650   8.612 -0.1777 -0.2432 -0.0846
    1AU     LIG  286   4.074   7.514   8.323  0.4688 -0.2308  0.1629
    1AU       S  287   1.851   6.470   8.341  0.0344  0.0446 -0.0568
    1AU     LIG  288   2.296   6.262   8.443  0.0714  0.1020 -0.1986
    1AU     LIG  289   2.484   5.900   8.198  0.3535  0.2827 -0.1278
    1AU     LIG  290   2.755   5.633   8.034 -0.1397 -0.0668  0.1870
    1AU     LIG  291   2.923   5.456   7.665  0.0312  0.2545 -0.1171
    1AU     LIG  292   3.188   5.430   7.357 -0.1260 -0.1982  0.0325
    1AU     LIG  293   2.841   5.375   7.128 -0.1986  0.3407  0.3149
    1AU    AUSL  294   1.438   6.362   7.724  0.0950 -0.0234 -0.0831
    1AU    AUSL  295   1.089   6.511   7.960  0.0667  0.0596  0.0159
    1AU     AUL  296   1.285   6.358   8.108 -0.0466  0.0063  0.1359
    1AU       S  297   1.670   6.283   8.317 -0.5728 -0.4718 -0.1959
    1AU     LIG  298   1.910   5.900   8.299  0.0431  0.0827  0.0334
    1AU     LIG  299   2.132   5.739   8.562  0.0242  0.0128  0.1595
    1AU     LIG  300   2.432   5.773   8.808 -0.0374 -0.0017  0.0644
    1AU     LIG  301   2.782   5.707   8.997 -0.1162  0.0451 -0.3051
    1AU     LIG  302   3.199   5.299   9.050 -0.1590 -0.1344  0.0311
    1AU     LIG  303   3.299   5.177   9.406  0.0615  0.6703  0.2986
    1AU       S  304   0.792   6.217   8.190  0.0434 -0.1534  0.3266
    1AU     LIG  305   0.679   5.773   8.365  0.7918  0.2533 -0.1262
    1AU     LIG  306   0.833   5.304   8.336  0.3174  0.0916  0.0535
    1AU     LIG  307   1.125   5.080   8.076 -0.1050 -0.0128 -0.0822
    1AU     LIG  308   1.163   4.661   8.153 -0.1542 -0.0536  0.3894
    1AU     LIG  309   0.938   4.336   7.890  0.0903 -0.4530 -0.3176
    1AU     LIG  310   0.757   4.025   7.715  0.0000  0.3005  0.1713
    1AU    AUSL  311   1.824   6.381   7.895  0.0707 -0.0484 -0.0280
    1AU    AUSL  312   1.684   6.022   7.670  0.1026 -0.0446  0.0370
    1AU     AUL  313   1.592   6.055   7.935  0.0582  0.0718 -0.0686
    1AU       S  314   2.020   5.788   7.790 -0.1798  0.1836  0.4806
    1AU     LIG  315   2.228   5.381   7.818  0.0727  0.0533  0.0521
    1AU     LIG  316   2.640   5.130   7.854  0.0738 -0.0228 -0.1268
    1AU     LIG  317   2.911   4.710   7.861  0.2364  0.1486 -0.0296
    1AU     LIG  318   3.230   4.530   7.733 -0.1403  0.3901  0.3191
    1AU     LIG  319   3.399   4.730   7.321  0.0157  0.0810 -0.1890
    1AU     LIG  320   3.143   5.004   7.009 -0.0478 -0.0502  0.5266
    1AU       S  321   1.983   6.338   8.049 -0.0216 -0.3812 -0.0449
    1AU     LIG  322   2.401   6.406   7.974  0.3663 -0.1045 -0.1852
    1AU     LIG  323   2.776   6.219   7.988 -0.1871  0.4141  0.1489
    1AU     LIG  324   3.117   5.881   7.737 -0.2888  0.0692  0.4702
    1AU     LIG  325   3.464   5.898   7.464 -0.1514  0.0582  0.1412
    1AU     LIG  326   3.745   5.782   7.075 -0.2752 -0.0735 -0.0815
    1AU     LIG  327   3.746   5.580   6.632 -0.0128  0.1366  0.1383
    1AU    AUSL  328   1.366   6.838   6.321 -0.0823  0.0022 -0.0180
    1AU    AUSL  329   1.575   7.173   6.534 -0.0520  0.0205  0.0031
    1AU     AUL  330   1.351   7.306   6.294 -0.0025  0.0338  0.0571
    1AU       S  331   1.385   6.852   6.040  0.2378 -0.1599 -0.3061
    1AU     LIG  332   1.345   6.717   5.621 -0.3689  0.2205  0.3027
    1AU     LIG  333   1.502   6.530   5.187  0.8365  0.1202 -0.4349
    1AU     LIG  334   1.524   6.020   5.154  0.2170 -0.1355  0.3649
    1AU     LIG  335   1.608   5.676   5.395 -0.1950 -0.1752  0.0073
    1AU     LIG  336   1.411   5.312   5.563  0.1674 -0.3744 -0.0395
    1AU     LIG  337   1.239   4.891   5.736 -0.0335 -0.2701 -0.3058
    1AU       S  338   1.765   7.121   6.327 -0.1224 -0.0826  0.0822
    1AU     LIG  339   1.765   7.562   6.088  0.1548  0.1331  0.1096
    1AU     LIG  340   1.873   7.944   6.013  0.0838  0.0100 -0.2895
    1AU     LIG  341   2.117   8.472   6.228  0.2143 -0.0978 -0.1249
    1AU     LIG  342   2.170   8.672   6.588  0.1709 -0.1278  0.1890
    1AU     LIG  343   2.345   9.110   6.766  0.1459 -0.1387 -0.1121
    1AU     LIG  344   2.337   9.463   6.937 -0.3376  0.2069 -0.2606
    1AU    AUSL  345   1.131   6.768   6.658 -0.0716  0.0506  0.0386
    1AU    AUSL  346   1.302   6.427   6.376 -0.0200  0.0103 -0.0765
    1AU     AUL  347   0.991   6.683   6.287  0.0130 -0.1003 -0.0202
    1AU       S  348   1.374   6.852   6.126 -0.2972  0.0840 -0.2074
    1AU     LIG  349   1.667   7.056   5.751  0.1075  0.1526  0.3004
    1AU     LIG  350   1.604   7.431   5.577 -0.3026  0.2331 -0.1898
    1AU     LIG  351   1.673   7.924   5.532 -0.3570 -0.6528 -0.1407
    1AU     LIG  352   1.722   8.325   5.715 -0.0357 -0.0014  0.0727
    1AU     LIG  353   1.978   8.771   5.861 -0.7662  0.2275 -0.2267
    1AU     LIG  354   2.307   9.081   5.709  0.1960  0.3647  0.0280
    1AU       S  355   1.124   6.306   6.072 -0.0295  0.2191 -0.0430
    1AU     LIG  356   0.902   6.377   5.692  0.0355  0.3436  0.2637
    1AU     LIG  357   0.534   6.178   5.541 -0.0653 -0.1493  0.0910
    1AU     LIG  358   0.289   6.035   5.195 -0.3449  0.0187  0.1122
    1AU     LIG  359   0.439   5.857   4.776  0.0242 -0.4014  0.1558
    1AU     LIG  360   0.764   5.784   4.446  0.4528  0.2942  0.1852
    1AU     LIG  361   1.220   5.884   4.358  0.3208  0.3453  0.3595
    1AU    AUSL  362   1.952   6.006   7.327 -0.1251 -0.0223  0.0081
    1AU    AUSL  363   1.534   5.833   7.336 -0.0245  0.0469  0.0495
    1AU     AUL  364   1.593   5.736   7.577  0.0617  0.0499  0.0625
    1AU       S  365   1.725   5.554   7.189  0.1354 -0.0948  0.0846
    1AU     LIG  366   1.812   5.333   7.559  0.0927  0.1503  0.1842
    1AU     LIG  367   1.993   4.971   7.630  0.2565 -0.0293 -0.1318
    1AU     LIG  368   2.301   4.754   7.594 -0.4546  0.1193  0.1794
    1AU     LIG  369   2.676   4.406   7.545  0.2251 -0.1710 -0.4438
    1AU     LIG  370   2.611   4.068   7.452 -0.2920 -0.0785  0.2100
    1AU     LIG  371   2.851   3.738   7.292  0.0878  0.1758  0.2566
    1AU       S  372   2.055   5.770   7.524  0.1482  0.0935 -0.1389
    1AU     LIG  373   2.318   5.592   7.340  0.2188 -0.3799  0.0566
    1AU     LIG  374   2.435   5.200   7.349 -0.2672  0.4665  0.0755
    1AU     LIG  375   2.866   4.985   7.430 -0.1579 -0.1657  0.3151
    1AU     LIG  376   3.269   5.046   7.759 -0.0388  0.0480 -0.0094
    1AU     LIG  377   3.727   4.943   7.616  0.1212 -0.3946 -0.2411
    1AU     LIG  378   3.772   4.413   7.545 -0.0908 -0.1536 -0.1852
    1AU    AUSL  379   1.808   6.379   7.483  0.0859 -0.0061  0.1315
    1AU    AUSL  380   2.080   6.373   7.139 -0.0876  0.1111 -0.0209
    1AU     AUL  381   2.190   6.207   7.432  0.0979  0.0576  0.0222
    1AU       S  382   2.578   6.329   7.240 -0.1026 -0.3073 -0.1729
    1AU     LIG  383   2.780   6.114   6.879  0.0693  0.3543 -0.1074
    1AU     LIG  384   2.815   5.637   6.665  0.1279  0.0405 -0.3610
    1AU     LIG  385   2.820   5.260   6.552 -0.2095  0.1079 -0.0345
    1AU     LIG  386   2.815   4.903   6.676 -0.0717 -0.0370 -0.0312
    1AU     LIG  387   3.006   4.598   6.674  0.0262 -0.2242  0.1970
    1AU     LIG  388   3.361   4.441   6.897 -0.1449 -0.2845 -0.0468
    1AU       S  389   2.050   5.954   7.790 -0.1902 -0.3294  0.1875
    1AU     LIG  390   2.494   5.968   7.634  0.1607 -0.0988  0.3156
    1AU     LIG  391   2.831   5.899   7.316 -0.1547 -0.2140 -0.0822
    1AU     LIG  392   3.156   5.847   6.996 -0.1073  0.2126 -0.1952
    1AU     LIG  393   3.277   5.422   6.855 -0.0133 -0.1736  0.0573
    1AU     LIG  394   3.396   5.181   6.516  0.3528  0.2597  0.1149
    1AU     LIG  395   3.124   4.880   6.147 -0.0845 -0.2216 -0.1730
    1AU    AUSL  396   1.430   7.371   7.651 -0.0087  0.0518 -0.0209
    1AU    AUSL  397   1.455   6.892   7.712  0.0180  0.0031 -0.0923
    1AU     AUL  398   1.585   7.319   7.937  0.0926 -0.0395  0.0148
    1AU       S  399   1.971   7.116   8.025 -0.4361  0.3330  0.2139
    1AU     LIG  400   2.334   7.533   7.976 -0.0160 -0.2651  0.5266
    1AU     LIG  401   2.644   7.695   7.756 -0.3094 -0.0710 -0.2931
    1AU     LIG  402   2.982   7.822   7.549 -0.5770  0.3592  0.1078
    1AU     LIG  403   3.179   8.179   7.298  0.2441 -0.4290  0.2323
    1AU     LIG  404   3.628   8.308   7.114 -0.2642  0.0379  0.4786
    1AU     LIG  405   4.016   8.457   6.880 -0.2390 -0.2729 -0.0731
    1AU       S  406   1.211   7.673   7.901  0.0055 -0.3656 -0.3616
    1AU     LIG  407   1.353   8.177   7.732  0.1711  0.3969  0.1106
    1AU     LIG  408   1.588   8.480   7.573 -0.0918 -0.0398 -0.0655
    1AU     LIG  409   1.606   8.804   7.310 -0.0446  0.0660 -0.0378
    1AU     LIG  410   1.298   9.128   7.162  0.1448  0.3054 -0.2539
    1AU     LIG  411   0.931   8.962   7.113  0.0240  0.4739 -0.1305
    1AU     LIG  412   0.838   8.610   7.040  0.1074  0.0630  0.2111
    1AU    AUSL  413   1.189   7.089   7.946 -0.0383  0.0449 -0.0170
    1AU    AUSL  414   0.675   7.058   7.585 -0.0088 -0.0210  0.1088
    1AU     AUL  415   0.835   7.116   8.045  0.0309  0.0957 -0.0362
    1AU       S  416   1.129   7.469   7.981  0.0209  0.0721 -0.3117
    1AU     LIG  417   0.662   7.556   8.245  0.1738 -0.1794 -0.0589
    1AU     LIG  418   0.209   7.477   8.202 -0.0519  0.1259  0.1548
    1AU     LIG  419  -0.044   7.683   7.956  0.0152  0.2012  0.1315
    1AU     LIG  420  -0.187   7.983   7.670  0.0119 -0.0328 -0.0707
    1AU     LIG  421  -0.383   8.006   7.451 -0.0343  0.1792 -0.2824
    1AU     LIG  422  -0.818   8.029   7.399 -0.4771 -0.2188 -0.1933
    1AU       S  423   0.372   7.111   7.841 -0.1127 -0.4066  0.0715
    1AU     LIG  424   0.017   7.229   7.504 -0.2257  0.3446 -0.0255
    1AU     LIG  425   0.008   7.599   7.299 -0.4196 -0.1748  0.1905
    1AU     LIG  426  -0.267   7.752   6.966 -0.0002 -0.2321  0.2611
    1AU     LIG  427  -0.513   7.922   6.680 -0.2596  0.3422  0.2895
    1AU     LIG  428  -0.841   7.976   6.921 -0.0159  0.1765 -0.3029
    1AU     LIG  429  -1.232   8.171   7.038 -0.0360  0.1608 -0.0826
    1AU    AUSL  430   1.045   7.248   7.543  0.0413 -0.0388  0.0735
    1AU    AUSL  431   1.417   7.204   7.263  0.0948 -0.0757 -0.1255
    1AU     AUL  432   1.274   7.606   7.464  0.0497 -0.1877  0.0556
    1AU       S  433   1.252   7.581   6.747 -0.3800 -0.4374  0.4994
    1AU     LIG  434   1.493   7.910   6.341 -0.0199 -0.0926 -0.4487
    1AU     LIG  435   1.988   7.957   6.490  0.0821  0.1953 -0.3996
    1AU     LIG  436   2.287   7.811   6.404 -0.0518  0.4228 -0.1944
    1AU     LIG  437   2.648   7.564   6.257  0.2504  0.2085 -0.4291
    1AU     LIG  438   3.008   7.427   6.128  0.4180 -0.0877 -0.0283
    1AU     LIG  439   3.457   7.367   6.174 -0.1734 -0.0878 -0.2450
    1AU       S  440   0.904   7.468   7.746  0.2801  0.1383 -0.1873
    1AU     LIG  441   0.754   7.798   7.433 -0.1448  0.4817 -0.2668
    1AU     LIG  442   0.905   8.108   7.079 -0.0841  0.2346 -0.2058
    1AU     LIG  443   1.064   8.295   6.664 -0.0412 -0.2731  0.0616
    1AU     LIG  444   1.263   8.379   6.311  0.0983 -0.0007 -0.2147
    1AU     LIG  445   1.272   8.760   6.114  0.1525 -0.0678 -0.0795
    1AU     LIG  446   1.492   8.828   5.799  0.2026 -0.0009 -0.1377
    1AU    AUSL  447   2.000   6.641   6.787 -0.0012  0.0015 -0.0406
    1AU    AUSL  448   1.630   6.771   6.631 -0.0179  0.1002  0.0576
    1AU     AUL  449   2.148   6.881   6.575  0.0401  0.0772 -0.0734
    1AU       S  450   2.329   6.472   6.389 -0.1882 -0.2605  0.0424
    1AU     LIG  451   2.629   6.727   6.731 -0.1991 -0.1188  0.1128
    1AU     LIG  452   2.880   7.018   6.956  0.0956  0.2475 -0.3212
    1AU     LIG  453   3.315   7.049   7.026 -0.2413  0.0105 -0.0614
    1AU     LIG  454   3.681   7.045   6.734  0.1305  0.0963 -0.5144
    1AU     LIG  455   3.925   7.296   6.557 -0.1985  0.6709 -0.0438
    1AU     LIG  456   4.268   7.560   6.542  0.0848  0.1103 -0.2950
    1AU       S  457   1.874   6.897   6.201 -0.2340 -0.3612  0.1749
    1AU     LIG  458   2.124   6.752   5.900  0.0126 -0.0204  0.0684
    1AU     LIG  459   2.275   6.300   5.875  0.1260 -0.4688 -0.0440
    1AU     LIG  460   2.318   5.955   6.008  0.0629 -0.0473 -0.0721
    1AU     LIG  461   2.624   5.669   6.134 -0.0640 -0.4603  0.1335
    1AU     LIG  462   3.110   5.500   6.266  0.2479  0.0627  0.0673
    1AU     LIG  463   3.525   5.529   5.985  0.0889  0.4199 -0.2005
    1AU    AUSL  464   1.996   6.232   6.758  0.1399 -0.0567  0.1109
    1AU    AUSL  465   2.280   6.744   7.088 -0.0722 -0.0469  0.0390
    1AU     AUL  466   2.287   6.415   6.856  0.0031 -0.0114 -0.0129
    1AU       S  467   2.300   6.325   6.370 -0.2506 -0.0545 -0.3550
    1AU     LIG  468   2.448   5.998   6.513 -0.1957  0.1309  0.1296
    1AU     LIG  469   2.280   5.564   6.696 -0.2058 -0.0087 -0.0033
    1AU     LIG  470   2.401   5.208   6.844  0.2546 -0.2685 -0.0185
    1AU     LIG  471   2.535   4.779   7.108  0.2790 -0.0094 -0.2484
    1AU     LIG  472   2.889   4.582   7.106 -0.2909 -0.0571 -0.2269
    1AU     LIG  473   3.204   4.256   7.323 -0.1835 -0.2024 -0.0922
    1AU       S  474   2.549   6.582   7.197 -0.0482 -0.1253 -0.1578
    1AU     LIG  475   2.965   6.528   7.022 -0.0152  0.5395  0.2012
    1AU     LIG  476   3.349   6.336   6.946  0.1883  0.1870 -0.0813
    1AU     LIG  477   3.653   6.531   6.816 -0.1451 -0.0832 -0.1984
    1AU     LIG  478   4.071   6.778   6.668 -0.0421  0.1943 -0.2491
    1AU     LIG  479   4.327   7.018   6.821 -0.3383  0.0966  0.1557
    1AU     LIG  480   4.686   7.013   6.904  0.3143  0.1458  0.2239
    1AU    AUSL  481   1.841   6.481   6.405  0.0870  0.0534 -0.0322
    1AU    AUSL  482   1.698   5.934   6.787  0.1226  0.0546 -0.0109
    1AU     AUL  483   1.966   6.048   6.532  0.0267 -0.0412  0.1008
    1AU       S  484   1.795   5.594   6.577 -0.0755 -0.1983 -0.2907
    1AU     LIG  485   1.851   5.263   6.530  0.1963 -0.1127 -0.0187
    1AU     LIG  486   1.777   4.860   6.525  0.0624 -0.0396  0.2052
    1AU     LIG  487   2.079   4.579   6.520  0.1297 -0.0619  0.2069
    1AU     LIG  488   2.459   4.277   6.738  0.2436  0.1464 -0.3395
    1AU     LIG  489   2.494   3.806   6.962  0.1111 -0.2237 -0.1543
    1AU     LIG  490   2.307   3.458   7.382 -0.3672  0.1981  0.1122
    1AU       S  491   2.019   6.474   6.316 -0.1191 -0.5282 -0.0100
    1AU     LIG  492   1.856   6.075   6.068 -0.3332 -0.0848  0.0386
    1AU     LIG  493   1.719   5.637   5.849  0.3343  0.2019 -0.0984
    1AU     LIG  494   1.654   5.219   6.100  0.3379 -0.3853  0.1247
    1AU     LIG  495   1.378   4.896   6.210 -0.1345  0.2228 -0.0616
    1AU     LIG  496   1.049   4.709   6.518 -0.1722  0.1558  0.1895
    1AU     LIG  497   0.709   4.381   6.727  0.0529  0.1155  0.0657
    1AU    AUSL  498   0.646   6.616   7.663 -0.0787  0.0468  0.0125
    1AU    AUSL  499   0.873   6.888   7.262  0.0677 -0.0870 -0.0413
    1AU     AUL  500   0.473   6.793   7.425 -0.0454  0.0295 -0.0163
    1AU       S  501   0.367   6.852   7.906 -0.4457 -0.2956  0.0387
    1AU     LIG  502   0.066   6.736   7.663  0.1106 -0.0167 -0.0325
    1AU     LIG  503  -0.384   6.789   7.705  0.0615 -0.5036 -0.1590
    1AU     LIG  504  -0.905   6.832   7.609  0.1197 -0.1933 -0.1147
    1AU     LIG  505  -1.353   6.943   7.590  0.2955 -0.1124 -0.1989
    1AU     LIG  506  -1.646   6.572   7.790  0.1975 -0.1796 -0.0044
    1AU     LIG  507  -2.160   6.456   7.678 -0.5031  0.0108  0.2124
    1AU       S  508   0.424   6.928   6.984  0.0784 -0.2885  0.0770
    1AU     LIG  509  -0.011   7.244   6.907  0.1238  0.0459 -0.4460
    1AU     LIG  510  -0.351   7.149   7.095 -0.2774  0.0611 -0.1448
    1AU     LIG  511  -0.648   6.944   7.162  0.2552 -0.0183  0.0494
    1AU     LIG  512  -1.099   7.038   7.191  0.1037 -0.2981 -0.4488
    1AU     LIG  513  -1.481   7.188   7.169  0.3918  0.1241  0.1812
    1AU     LIG  514  -1.968   7.079   7.016  0.2072  0.0114  0.0087
    1AU    AUSL  515   1.017   6.824   7.688 -0.0499  0.0625 -0.0050
    1AU    AUSL  516   1.003   6.422   7.559 -0.1086  0.1142  0.0687
    1AU     AUL  517   0.822   6.624   7.941  0.0232 -0.0908  0.0052
    1AU       S  518   0.564   7.137   7.695 -0.0374 -0.0140 -0.2357
    1AU     LIG  519   0.406   7.591   7.803  0.1141  0.0108  0.0565
    1AU     LIG  520   0.297   7.969   7.560 -0.1583  0.1020  0.1315
    1AU     LIG  521   0.009   8.148   7.192 -0.0975  0.3818 -0.2104
    1AU     LIG  522  -0.452   8.222   7.032 -0.6067 -0.5022 -0.3468
    1AU     LIG  523  -0.788   8.459   7.150  0.2643 -0.0541 -0.1439
    1AU     LIG  524  -1.132   8.701   7.096  0.1083  0.1389  0.0808
    1AU       S  525   0.683   6.189   7.941 -0.1910  0.3029  0.0565
    1AU     LIG  526   0.339   5.855   8.010  0.1913 -0.0611 -0.1970
    1AU     LIG  527   0.208   5.574   7.659 -0.1663  0.3083 -0.1245
    1AU     LIG  528  -0.094   5.248   7.541 -0.2314 -0.0553 -0.1541
    1AU     LIG  529  -0.344   4.951   7.648  0.1048 -0.0844 -0.3791
    1AU     LIG  530  -0.760   4.816   7.522  0.1831 -0.0924 -0.0135
    1AU     LIG  531  -1.172   4.690   7.488  0.1618  0.0454 -0.1441
    1AU    AUSL  532   1.288   5.992   6.579  0.0274  0.0032  0.0134
    1AU    AUSL  533   1.637   6.174   7.109 -0.1132 -0.0552  0.0508
    1AU     AUL  534   1.463   5.788   6.824  0.0482 -0.0419  0.0193
    1AU       S  535   1.828   5.581   7.074 -0.3099 -0.3538  0.1660
    1AU     LIG  536   1.989   5.128   7.072  0.1656  0.2724  0.0831
    1AU     LIG  537   2.075   4.799   6.923 -0.3076  0.0556  0.3362
    1AU     LIG  538   2.143   4.402   7.164 -0.0354  0.0649 -0.2942
    1AU     LIG  539   2.001   4.062   7.108  0.0270  0.1638  0.1787
    1AU     LIG  540   2.013   3.670   6.999 -0.1019  0.1750  0.0740
    1AU     LIG  541   2.126   3.346   6.929 -0.0158  0.1868 -0.3692
    1AU       S  542   1.518   5.659   6.391 -0.0438 -0.0328  0.1967
    1AU     LIG  543   1.376   5.294   6.527  0.3698  0.1235  0.0685
    1AU     LIG  544   1.076   5.329   6.825 -0.0639  0.2580 -0.0658
    1AU     LIG  545   0.997   5.088   7.093 -0.0562  0.2418  0.1937
    1AU     LIG  546   0.731   4.816   7.181  0.0561 -0.3855 -0.0253
    1AU     LIG  547   0.297   4.571   7.120 -0.2772  0.2876  0.1659
    1AU     LIG  548  -0.087   4.389   7.282  0.0244 -0.0782  0.0391
    1AU    AUSL  549   1.571   6.317   6.670 -0.0301 -0.0306 -0.0723
    1AU    AUSL  550   1.163   6.330   6.777 -0.0481 -0.0952  0.0525
    1AU     AUL  551   1.444   6.169   6.379  0.0194  0.0312 -0.0537
    1AU       S  552   1.613   5.750   6.367 -0.5433  0.2427  0.2927
    1AU     LIG  553   2.089   5.542   6.159  0.0427 -0.2386 -0.0252
    1AU     LIG  554   2.275   5.194   6.229 -0.2511  0.1494  0.1856
    1AU     LIG  555   2.449   4.839   6.353  0.0942  0.2002 -0.1435
    1AU     LIG  556   2.639   4.420   6.301 -0.1363  0.3014 -0.0641
    1AU     LIG  557   2.666   3.991   6.373  0.4786  0.3175  0.2796
    1AU     LIG  558   2.862   3.618   6.576  0.0282  0.3255 -0.2866
    1AU       S  559   0.963   6.068   6.252 -0.1449  0.1090 -0.2471
    1AU     LIG  560   1.035   5.643   6.388  0.2513 -0.0717 -0.1518
    1AU     LIG  561   0.791   5.340   6.377  0.1950  0.0510 -0.4928
    1AU     LIG  562   0.565   4.970   6.339 -0.0078  0.0741  0.0007
    1AU     LIG  563   0.471   4.594   6.259 -0.1445 -0.1509  0.0816
    1AU     LIG  564   0.125   4.410   6.058 -0.0315  0.1822 -0.1453
    1AU     LIG  565  -0.267   4.327   5.853  0.2376 -0.2248 -0.2599
    2POPC   NC3  566   7.767   1.432   9.150 -0.2460  0.5823 -0.0992
    2POPC   PO4  567   7.374   1.795   9.193  0.0690  0.3412  0.1962
    2POPC   GL1  568   7.258   2.034   8.854  0.2719 -0.0786  0.2815
    2POPC   GL2  569   7.369   2.314   8.703  0.0855 -0.3930  0.0299
    2POPC   C1A  570   6.902   2.072   8.521 -0.2770 -0.1205  0.1620
    2POPC   D2A  571   6.928   1.908   8.009  0.0281 -0.3724  0.2616
    2POPC   C3A  572   6.687   1.970   7.784  0.0801  0.0036  0.0039
    2POPC   C4A  573   6.461   2.371   7.777 -0.0959  0.1032 -0.0210
    2POPC   C1B  574   7.464   2.341   8.302  0.2120 -0.2098 -0.1808
    2POPC   C2B  575   7.197   2.261   7.817  0.0351  0.1212  0.0684
    2POPC   C3B  576   7.124   2.183   7.427  0.0175  0.3063 -0.0838
    2POPC   C4B  577   6.859   1.849   7.283 -0.0339  0.0959  0.1147
    3POPC   NC3  578   7.012   5.806   8.988 -0.0258  0.0506 -0.0902
    3POPC   PO4  579   7.436   5.685   8.940 -0.0848 -0.0364  0.0432
    3POPC   GL1  580   7.354   5.755   8.570  0.2793  0.0191 -0.0437
    3POPC   GL2  581   7.060   5.723   8.467  0.1407  0.0798 -0.0315
    3POPC   C1A  582   7.321   5.396   8.203  0.0883 -0.2110  0.0165
    3POPC   D2A  583   7.113   5.097   7.948  0.1483  0.0598  0.1970
    3POPC   C3A  584   7.157   4.950   7.504 -0.6038  0.2090  0.0765
    3POPC   C4A  585   7.469   4.950   7.212  0.0428  0.0733  0.1283
    3POPC   C1B  586   7.176   5.899   8.133 -0.0422  0.2406  0.1622
    3POPC   C2B  587   6.972   6.038   7.834 -0.0287  0.1541  0.1638
    3POPC   C3B  588   6.541   6.193   7.625  0.0114  0.1470  0.2137
    3POPC   C4B  589   6.236   6.401   7.831  0.1102 -0.0850 -0.3723
    4POPC   NC3  590   1.710   3.925   9.271  0.2970  0.3271 -0.2198
    4POPC   PO4  591   2.038   3.633   9.106  0.1596  0.2606 -0.0167
    4POPC   GL1  592   2.083   3.967   8.816 -0.0280 -0.0631 -0.1340
    4POPC   GL2  593   1.840   4.182   8.774  0.2027  0.0498  0.2066
    4POPC   C1A  594   2.410   3.941   8.624 -0.1478  0.0061  0.1050
    4POPC   D2A  595   2.534   3.741   8.214 -0.0571  0.1903 -0.0564
    4POPC   C3A  596   2.501   3.730   7.786 -0.0080  0.2092 -0.1361
    4POPC   C4A  597   2.135   3.876   7.550  0.0623  0.0933 -0.0589
    4POPC   C1B  598   1.839   3.951   8.382  0.0000 -0.2837 -0.1555
    4POPC   C2B  599   1.785   3.986   7.947 -0.0958 -0.0177  0.1058
    4POPC   C3B  600   1.682   4.016   7.483  0.2377  0.0724 -0.2078
    4POPC   C4B  601   1.549   3.896   7.004 -0.2296 -0.0393  0.2130
    5POPC   NC3  602   6.633   7.189   9.012 -0.1181  0.2948  0.1102
    5POPC   PO4  603   6.316   7.491   8.931  0.0758 -0.2416  0.0905
    5POPC   GL1  604   6.500   7.351   8.511 -0.0670 -0.2330  0.1058
    5POPC   GL2  605   6.129   7.379   8.435  0.2602 -0.1817 -0.0033
    5POPC   C1A  606   6.617   7.293   8.088 -0.2011 -0.1854  0.0548
    5POPC   D2A  607   6.589   7.237   7.722 -0.2516 -0.1495  0.1832
    5POPC   C3A  608   6.206   6.946   7.712 -0.1820 -0.0178  0.1884
    5POPC   C4A  609   5.854   6.785   7.659 -0.0747  0.1736  0.2796
    5POPC   C1B  610   6.089   7.350   8.002  0.0303 -0.0907  0.2807
    5POPC   C2B  611   6.057   7.373   7.456 -0.2977  0.1041 -0.3998
    5POPC   C3B  612   6.133   7.495   7.068  0.2720  0.2336 -0.1534
    5POPC   C4B  613   6.167   7.620   6.693 -0.1002 -0.2680 -0.2794
    6POPC   NC3  614   8.695   1.522   9.376 -0.3131  0.0058 -0.0023
    6POPC   PO4  615   8.364   1.699   9.184  0.1649  0.2892 -0.0016
    6POPC   GL1  616   8.155   1.645   8.911 -0.0420  0.2179  0.1197
    6POPC   GL2  617   8.307   1.765   8.701 -0.1533 -0.0837  0.0694
    6POPC   C1A  618   7.900   1.498   8.537  0.0729  0.4332  0.1687
    6POPC   D2A  619   7.716   1.460   8.162  0.1561 -0.1712  0.1400
    6POPC   C3A  620   7.447   1.765   7.984  0.0706  0.1007 -0.0702
    6POPC   C4A  621   7.705   2.115   7.947  0.3257 -0.4084  0.1407
    6POPC   C1B  622   8.190   1.624   8.210 -0.2367 -0.2197 -0.0788
    6POPC   C2B  623   7.987   1.720   7.794  0.0907  0.1013 -0.1859
    6POPC   C3B  624   7.599   1.875   7.504 -0.3172  0.0738 -0.3046
    6POPC   C4B  625   7.593   2.045   7.039  0.0610 -0.2311 -0.0671
    7POPC   NC3  626   2.030   8.201   8.931 -0.4352  0.3919  0.0886
    7POPC   PO4  627   2.292   8.587   9.123  0.1067 -0.0480  0.4329
    7POPC   GL1  628   2.458   8.573   8.651  0.1432  0.3441 -0.0058
    7POPC   GL2  629   2.528   8.289   8.684  0.2352  0.4129 -0.2432
    7POPC   C1A  630   2.643   8.707   8.281 -0.2581 -0.1819  0.2676
    7POPC   D2A  631   2.694   8.501   7.927  0.0157  0.0142 -0.0516
    7POPC   C3A  632   2.326   8.588   7.666  0.2006  0.0894 -0.0508
    7POPC   C4A  633   2.127   8.868   7.433 -0.1725  0.0309  0.2257
    7POPC   C1B  634   2.661   8.060   8.516  0.0912 -0.2819 -0.0996
    7POPC   C2B  635   2.880   7.971   8.170 -0.0310  0.2583  0.0533
    7POPC   C3B  636   3.108   8.163   7.910 -0.0362  0.0548 -0.2009
    7POPC   C4B  637   3.056   8.510   7.628  0.0011  0.0232  0.2393
    8POPC   NC3  638   2.739   3.666   9.108 -0.0994  0.2701  0.0068
    8POPC   PO4  639   2.970   3.940   9.118 -0.1928 -0.0191 -0.2740
    8POPC   GL1  640   3.107   3.735   8.764  0.2034 -0.1284 -0.1641
    8POPC   GL2  641   3.002   3.533   8.638  0.1349  0.0064 -0.1390
    8POPC   C1A  642   3.060   4.019   8.468 -0.1062  0.2511  0.0729
    8POPC   D2A  643   3.304   4.272   8.155  0.2158 -0.2139  0.0519
    8POPC   C3A  644   3.757   4.378   8.152  0.0929  0.2952 -0.1589
    8POPC   C4A  645   4.002   4.743   8.084  0.0531  0.0220 -0.1134
    8POPC   C1B  646   3.332   3.504   8.360  0.0380  0.1975  0.0313
    8POPC   C2B  647   3.427   3.770   8.149  0.1000 -0.2759  0.1049
    8POPC   C3B  648   3.799   3.951   7.872 -0.1869  0.3884 -0.0362
    8POPC   C4B  649   4.160   3.817   7.669  0.1988 -0.1221  0.1236
    9POPC   NC3  650   6.608   0.153   9.184  0.2990  0.1511 -0.1423
    9POPC   PO4  651   6.311  -0.126   9.288  0.2144  0.0300  0.0408
    9POPC   GL1  652   6.468  -0.265   8.872  0.2173 -0.1069  0.0644
    9POPC   GL2  653   6.820  -0.251   8.772 -0.2933 -0.0536  0.0655
    9POPC   C1A  654   6.609  -0.608   8.544  0.1187 -0.1052 -0.1102
    9POPC   D2A  655   6.506  -1.007   8.233  0.0281 -0.0823 -0.2054
    9POPC   C3A  656   6.451  -0.787   7.851  0.4612  0.0200  0.0212
    9POPC   C4A  657   6.316  -0.818   7.396  0.0318 -0.0851 -0.2295
    9POPC   C1B  658   6.716  -0.019   8.398  0.1498  0.3674 -0.0006
    9POPC   C2B  659   6.683   0.079   8.059  0.2043 -0.1144 -0.3911
    9POPC   C3B  660   6.908   0.262   7.823 -0.0336  0.1056 -0.0163
    9POPC   C4B  661   7.047   0.493   7.498 -0.0114 -0.1860  0.0343
   10POPC   NC3  662   9.170   3.458   8.961 -0.1638 -0.1966  0.3052
   10POPC   PO4  663   9.470   3.871   9.036 -0.0471 -0.1112  0.2356
   10POPC   GL1  664   9.568   3.845   8.562  0.1150  0.3269  0.0588
   10POPC   GL2  665   9.746   3.661   8.379 -0.1525 -0.0819  0.1630
   10POPC   C1A  666   9.344   4.055   8.126  0.1933  0.2316  0.3260
   10POPC   D2A  667   9.438   4.283   7.720  0.0890 -0.2635 -0.2586
   10POPC   C3A  668   9.275   4.197   7.356 -0.0912  0.1453 -0.0921
   10POPC   C4A  669   9.269   4.109   6.824 -0.1474 -0.1056 -0.2534
   10POPC   C1B  670   9.668   3.630   7.885 -0.1198 -0.0672 -0.0820
   10POPC   C2B  671   9.783   3.758   7.489 -0.1320 -0.2078  0.2045
   10POPC   C3B  672   9.703   3.869   7.041 -0.1282 -0.0813  0.2589
   10POPC   C4B  673   9.548   3.676   6.672 -0.2481 -0.3439  0.0925
   11POPC   NC3  674   0.091   7.679   9.096 -0.0011 -0.1553  0.0008
   11POPC   PO4  675   0.213   7.445   9.465 -0.2544 -0.0067 -0.0561
   11POPC   GL1  676   0.134   7.146   9.094  0.0019 -0.2622 -0.4325
   11POPC   GL2  677  -0.210   6.977   9.023  0.0724 -0.1888 -0.0469
   11POPC   C1A  678  -0.041   7.176   8.569  0.0733  0.0171 -0.1369
   11POPC   D2A  679  -0.071   7.034   8.112  0.1494 -0.1172 -0.3139
   11POPC   C3A  680  -0.348   7.355   7.803  0.0109 -0.0321  0.1205
   11POPC   C4A  681  -0.485   7.537   7.431  0.4262 -0.1165  0.0779
   11POPC   C1B  682   0.029   6.640   8.679 -0.1090 -0.1207 -0.1289
   11POPC   C2B  683   0.102   6.630   8.301 -0.0400  0.0045 -0.1088
   11POPC   C3B  684   0.127   6.316   8.002 -0.4407  0.1681 -0.0677
   11POPC   C4B  685  -0.177   6.318   7.620  0.0143  0.2910 -0.2527
   12POPC   NC3  686   8.348   8.925   8.611 -0.4017  0.0480 -0.2324
   12POPC   PO4  687   8.787   8.998   8.766 -0.2776 -0.3056  0.0483
   12POPC   GL1  688   9.093   9.273   8.534 -0.2636  0.1836  0.2168
   12POPC   GL2  689   9.419   9.204   8.710  0.0133 -0.1158 -0.0586
   12POPC   C1A  690   9.023   9.555   8.190 -0.3327 -0.1128  0.4446
   12POPC   D2A  691   8.957   9.790   7.792 -0.0236 -0.1824  0.2486
   12POPC   C3A  692   9.040   9.645   7.308  0.0298 -0.0453 -0.1640
   12POPC   C4A  693   9.412   9.799   7.008 -0.2661  0.2335  0.0467
   12POPC   C1B  694   9.570   9.107   8.350  0.0765 -0.0219  0.1570
   12POPC   C2B  695   9.569   9.186   7.886  0.2508 -0.0255 -0.2002
   12POPC   C3B  696   9.555   8.953   7.533 -0.0117 -0.0662  0.0524
   12POPC   C4B  697   9.608   9.073   7.050 -0.0983  0.0881 -0.1902
   13POPC   NC3  698   7.834   8.248   8.686  0.3676  0.4377  0.0368
   13POPC   PO4  699   7.527   8.601   8.774  0.0059  0.1450  0.0258
   13POPC   GL1  700   7.500   8.426   8.320 -0.0192 -0.1489  0.2357
   13POPC   GL2  701   7.688   8.236   8.153 -0.0860  0.2938  0.0851
   13POPC   C1A  702   7.341   8.594   7.862 -0.2268  0.2736  0.2578
   13POPC   D2A  703   7.193   8.830   7.504 -0.1685 -0.2264  0.1149
   13POPC   C3A  704   6.892   9.209   7.476  0.2604 -0.0931 -0.1188
   13POPC   C4A  705   6.716   9.163   7.821 -0.2846  0.1359  0.0275
   13POPC   C1B  706   7.691   8.216   7.743  0.5819  0.0676 -0.1893
   13POPC   C2B  707   7.393   8.348   7.450 -0.1327 -0.2056 -0.0090
   13POPC   C3B  708   7.090   8.535   7.093  0.0086  0.0869 -0.0695
   13POPC   C4B  709   7.157   9.015   7.076  0.1315 -0.0001  0.0217
   14POPC   NC3  710   1.221   5.847   8.826 -0.0790 -0.0504 -0.0849
   14POPC   PO4  711   1.297   5.891   8.295 -0.0017 -0.1924 -0.3691
   14POPC   GL1  712   1.364   5.604   8.024 -0.1265 -0.0087  0.1244
   14POPC   GL2  713   1.672   5.539   8.030 -0.0740 -0.3725 -0.2152
   14POPC   C1A  714   1.191   5.279   7.620 -0.2168  0.1628 -0.0085
   14POPC   D2A  715   1.425   4.993   7.362 -0.1594  0.1931 -0.0484
   14POPC   C3A  716   1.703   4.584   7.349  0.1027 -0.0901  0.1049
   14POPC   C4A  717   1.960   4.357   7.717  0.1584  0.0002  0.0661
   14POPC   C1B  718   1.576   5.123   7.901 -0.3465  0.1776 -0.1018
   14POPC   C2B  719   1.551   4.794   7.864  0.2762  0.0531 -0.3156
   14POPC   C3B  720   1.468   4.408   7.831 -0.1296 -0.0958 -0.0066
   14POPC   C4B  721   1.301   3.933   7.784  0.0279 -0.3233 -0.1457
   15POPC   NC3  722   2.014   9.183   8.834 -0.0763 -0.0607 -0.0530
   15POPC   PO4  723   1.917   8.684   8.757 -0.0261 -0.1482  0.1028
   15POPC   GL1  724   2.069   8.478   8.389  0.1876  0.2821 -0.0847
   15POPC   GL2  725   1.839   8.256   8.180  0.0618 -0.0417 -0.0225
   15POPC   C1A  726   2.293   8.240   8.013 -0.0666 -0.3872  0.1907
   15POPC   D2A  727   2.525   8.156   7.658  0.0668  0.1062 -0.0411
   15POPC   C3A  728   2.694   8.373   7.285  0.2057 -0.1351 -0.3098
   15POPC   C4A  729   2.473   8.748   7.107 -0.2725  0.6077  0.1430
   15POPC   C1B  730   1.699   8.601   8.106  0.2767 -0.2549 -0.0030
   15POPC   C2B  731   1.768   9.053   7.776  0.0380 -0.1272 -0.0426
   15POPC   C3B  732   1.768   9.302   7.259 -0.0649 -0.1485  0.0998
   15POPC   C4B  733   1.818   9.404   6.783  0.1048 -0.1825 -0.0616
   16POPC   NC3  734   7.640  10.378   9.435 -0.1753 -0.1657 -0.1597
   16POPC   PO4  735   8.055  10.401   9.297 -0.2372  0.0386 -0.2066
   16POPC   GL1  736   8.168  10.636   8.928 -0.1630  0.1903  0.2178
   16POPC   GL2  737   8.140  10.948   8.824  0.2651  0.0769  0.3249
   16POPC   C1A  738   8.215  10.554   8.444 -0.0927  0.1809 -0.1375
   16POPC   D2A  739   8.368  10.546   7.998 -0.1605  0.3916 -0.3847
   16POPC   C3A  740   8.332  10.919   7.760  0.1998  0.3220  0.0792
   16POPC   C4A  741   8.343  11.172   7.500 -0.0015 -0.0204 -0.0688
   16POPC   C1B  742   8.233  11.041   8.363  0.2837 -0.0727 -0.0323
   16POPC   C2B  743   7.977  11.152   8.012  0.1073  0.0359 -0.0375
   16POPC   C3B  744   7.768  11.141   7.594 -0.2248 -0.1768  0.4343
   16POPC   C4B  745   7.541  11.109   7.290  0.0974  0.2568  0.2243
   17POPC   NC3  746   4.457   8.899   8.612  0.3291  0.0644  0.0477
   17POPC   PO4  747   4.709   8.493   8.649 -0.0570 -0.0034 -0.0566
   17POPC   GL1  748   4.400   8.309   8.487 -0.0228 -0.0739 -0.1040
   17POPC   GL2  749   4.123   8.542   8.491 -0.0827  0.1430 -0.1590
   17POPC   C1A  750   4.147   8.003   8.290 -0.1801 -0.0793  0.0665
   17POPC   D2A  751   4.186   7.841   7.904 -0.0218 -0.3271 -0.0293
   17POPC   C3A  752   4.272   7.453   7.862  0.2171  0.2617  0.1902
   17POPC   C4A  753   3.999   7.179   7.528 -0.0163 -0.5326  0.0113
   17POPC   C1B  754   4.264   8.496   8.071 -0.0692  0.0549  0.0420
   17POPC   C2B  755   4.479   8.647   7.785  0.1065 -0.1760  0.1408
   17POPC   C3B  756   4.522   8.986   7.544  0.0944 -0.0423 -0.0853
   17POPC   C4B  757   4.869   9.209   7.323  0.0250  0.0921 -0.0877
   18POPC   NC3  758   2.968   0.172   8.892 -0.1971 -0.1012  0.0560
   18POPC   PO4  759   3.362   0.189   9.024  0.0590  0.1868  0.0198
   18POPC   GL1  760   3.414   0.110   8.576 -0.2555  0.0624 -0.2123
   18POPC   GL2  761   3.202   0.181   8.347  0.3055  0.2377  0.0273
   18POPC   C1A  762   3.637   0.402   8.308 -0.0399 -0.2073  0.0020
   18POPC   D2A  763   3.621   0.629   7.907 -0.0053  0.2144  0.0733
   18POPC   C3A  764   4.018   0.781   7.682  0.0906  0.1215  0.3317
   18POPC   C4A  765   4.410   0.893   7.719  0.3935  0.0903  0.2481
   18POPC   C1B  766   3.247  -0.261   8.267 -0.1645 -0.2395 -0.1256
   18POPC   C2B  767   3.405  -0.391   7.907  0.1085 -0.1017  0.1301
   18POPC   C3B  768   3.599  -0.187   7.637  0.1358  0.0335  0.0937
   18POPC   C4B  769   3.567   0.245   7.450  0.0382 -0.0515 -0.1886
   19POPC   NC3  770   5.819   2.395   9.003  0.2427 -0.2083  0.2311
   19POPC   PO4  771   6.100   2.863   9.004 -0.0190  0.0724 -0.2828
   19POPC   GL1  772   5.853   2.703   8.612  0.1094  0.1473  0.3366
   19POPC   GL2  773   5.690   2.430   8.538 -0.1448 -0.0554  0.2338
   19POPC   C1A  774   5.744   2.844   8.128  0.0480  0.0440 -0.1993
   19POPC   D2A  775   5.590   2.826   7.816  0.0789 -0.2330  0.4058
   19POPC   C3A  776   5.370   2.436   7.672  0.1648  0.2843 -0.3115
   19POPC   C4A  777   5.276   2.129   7.292  0.2789  0.0785  0.1161
   19POPC   C1B  778   5.582   2.250   8.116  0.0410  0.1733 -0.3456
   19POPC   C2B  779   5.360   1.864   8.107 -0.2082  0.0022 -0.1785
   19POPC   C3B  780   5.516   1.472   8.225 -0.0367 -0.0891  0.1083
   19POPC   C4B  781   5.438   1.375   8.611  0.0526 -0.0731  0.2232
   20POPC   NC3  782   7.734   6.867   9.180 -0.1538 -0.1623 -0.0175
   20POPC   PO4  783   7.520   6.969   8.705  0.0312  0.4356  0.2014
   20POPC   GL1  784   7.476   7.264   8.419 -0.2624  0.4673 -0.1125
   20POPC   GL2  785   7.902   7.404   8.450  0.3345  0.2580  0.4557
   20POPC   C1A  786   7.380   7.386   8.036  0.1338 -0.0129  0.0601
   20POPC   D2A  787   6.955   7.567   7.838  0.2446 -0.2362  0.2963
   20POPC   C3A  788   6.946   7.613   7.343  0.0350  0.2022  0.0766
   20POPC   C4A  789   6.886   8.011   7.021  0.2113 -0.2423  0.1847
   20POPC   C1B  790   7.861   7.216   8.032 -0.2604 -0.0892  0.2048
   20POPC   C2B  791   8.101   6.925   7.688  0.2193  0.1313 -0.0165
   20POPC   C3B  792   8.032   6.771   7.344  0.1639  0.1447  0.0164
   20POPC   C4B  793   7.993   6.845   6.818  0.1475  0.0522  0.1798
   21POPC   NC3  794   4.498   3.755   9.053 -0.1789 -0.1810 -0.2057
   21POPC   PO4  795   4.902   3.574   8.900  0.0620  0.2898  0.2328
   21POPC   GL1  796   5.133   3.920   8.657  0.0446  0.2623  0.1238
   21POPC   GL2  797   5.503   4.034   8.504 -0.2995  0.1911 -0.4008
   21POPC   C1A  798   5.123   3.961   8.153  0.0824  0.0295 -0.0301
   21POPC   D2A  799   5.035   4.037   7.715  0.0948  0.2586 -0.1866
   21POPC   C3A  800   5.040   3.704   7.480 -0.2534  0.2114 -0.0056
   21POPC   C4A  801   5.051   3.381   7.101 -0.2974  0.0850  0.2240
   21POPC   C1B  802   5.371   4.390   8.235  0.1155 -0.1377  0.0366
   21POPC   C2B  803   5.755   4.461   7.966  0.0888 -0.2228  0.1346
   21POPC   C3B  804   6.004   4.129   7.746  0.3215  0.0969 -0.1833
   21POPC   C4B  805   6.015   3.716   7.665  0.0698  0.3368 -0.2625
   22POPC   NC3  806   9.469   6.611   9.529 -0.1104  0.0514  0.1290
   22POPC   PO4  807   9.045   6.460   9.368 -0.1732 -0.0870 -0.1155
   22POPC   GL1  808   9.006   6.478   9.044  0.0473  0.0923  0.0597
   22POPC   GL2  809   8.787   6.227   8.953 -0.0271  0.3112  0.0086
   22POPC   C1A  810   9.195   6.247   8.707 -0.0268 -0.2018  0.2099
   22POPC   D2A  811   9.240   5.906   8.602  0.0168  0.0859 -0.1883
   22POPC   C3A  812   9.260   5.915   8.113 -0.1105  0.2246  0.2519
   22POPC   C4A  813   9.122   5.869   7.641 -0.7177 -0.1564 -0.0259
   22POPC   C1B  814   8.776   6.047   8.451 -0.1104  0.1841 -0.2791
   22POPC   C2B  815   8.679   6.096   8.014 -0.1367  0.0790  0.4508
   22POPC   C3B  816   8.699   6.213   7.528 -0.3882  0.0204 -0.1106
   22POPC   C4B  817   8.813   6.093   7.146  0.0930 -0.5071  0.0589
   23POPC   NC3  818   1.058   2.432   9.736 -0.5809  0.1211  0.1842
   23POPC   PO4  819   1.368   2.563   9.541 -0.0879 -0.0129  0.1934
   23POPC   GL1  820   1.639   2.478   9.179  0.0481  0.0506  0.2555
   23POPC   GL2  821   1.711   2.619   8.911 -0.0439  0.2069  0.3556
   23POPC   C1A  822   1.522   2.188   8.697  0.0883  0.2164 -0.1005
   23POPC   D2A  823   1.330   2.265   8.431  0.1729 -0.1708 -0.0866
   23POPC   C3A  824   1.498   2.519   8.083 -0.4875 -0.0491  0.2089
   23POPC   C4A  825   1.589   2.584   7.661 -0.1706  0.1360  0.2418
   23POPC   C1B  826   1.816   2.496   8.459 -0.1051 -0.2081  0.0732
   23POPC   C2B  827   2.037   2.527   8.113  0.2178  0.1334 -0.1156
   23POPC   C3B  828   2.435   2.214   8.222  0.1994 -0.0399 -0.1237
   23POPC   C4B  829   2.422   1.895   8.554 -0.1851  0.0434  0.1601
   24POPC   NC3  830   5.221   0.761   9.034  0.0805  0.1450 -0.0427
   24POPC   PO4  831   5.266   0.224   9.108 -0.0356  0.1987 -0.0599
   24POPC   GL1  832   5.102   0.340   8.737 -0.1256  0.0470  0.0601
   24POPC   GL2  833   4.909   0.233   8.528  0.0488 -0.2476 -0.1773
   24POPC   C1A  834   5.165   0.586   8.307 -0.0502  0.3417 -0.1769
   24POPC   D2A  835   5.050   0.669   7.878 -0.1968  0.0464  0.2657
   24POPC   C3A  836   4.816   1.076   7.898 -0.1070 -0.0170  0.3409
   24POPC   C4A  837   4.465   1.130   8.142  0.1094 -0.0368  0.0596
   24POPC   C1B  838   4.868   0.157   8.118  0.2743  0.1464 -0.0069
   24POPC   C2B  839   4.504   0.296   7.857  0.2599 -0.2390 -0.0467
   24POPC   C3B  840   4.424   0.426   7.498  0.0551 -0.1411  0.0215
   24POPC   C4B  841   4.122   0.294   7.263 -0.2153 -0.0816 -0.1509
   25POPC   NC3  842   1.357   1.061   9.749 -0.2331 -0.2744 -0.3436
   25POPC   PO4  843   1.393   1.170   9.321  0.1121  0.0825  0.1215
   25POPC   GL1  844   1.252   1.296   8.852  0.1522 -0.2591 -0.0279
   25POPC   GL2  845   1.282   1.034   8.576 -0.1658 -0.1246  0.0508
   25POPC   C1A  846   1.270   1.587   8.475 -0.1670  0.0131 -0.0935
   25POPC   D2A  847   1.077   1.657   8.059  0.1711 -0.3366 -0.3293
   25POPC   C3A  848   1.343   1.695   7.716  0.1389  0.0129 -0.1899
   25POPC   C4A  849   1.307   1.569   7.261 -0.0090  0.0988 -0.0505
   25POPC   C1B  850   1.475   1.213   8.202  0.0426  0.1062  0.1163
   25POPC   C2B  851   1.615   1.255   7.810  0.1735 -0.0603  0.0648
   25POPC   C3B  852   1.574   1.104   7.455 -0.2900  0.1293  0.1483
   25POPC   C4B  853   1.745   0.742   7.156  0.1193 -0.2260  0.0686
   26POPC   NC3  854   0.835   2.524   9.341  0.1534 -0.0710 -0.1271
   26POPC   PO4  855   0.834   2.821   9.513  0.3408 -0.1964 -0.0330
   26POPC   GL1  856   1.005   3.047   9.078  0.1505 -0.2367 -0.2400
   26POPC   GL2  857   1.238   2.830   9.079  0.1832 -0.2405 -0.0918
   26POPC   C1A  858   1.121   3.221   8.687 -0.2512  0.2281 -0.1951
   26POPC   D2A  859   0.952   3.176   8.313  0.0458 -0.1522 -0.1281
   26POPC   C3A  860   0.575   3.289   8.270 -0.0357 -0.1871 -0.1322
   26POPC   C4A  861   0.313   3.479   8.452  0.2125 -0.1466  0.2136
   26POPC   C1B  862   1.310   2.757   8.559  0.1700 -0.2375  0.2358
   26POPC   C2B  863   1.317   2.960   8.142 -0.1697  0.0932 -0.0230
   26POPC   C3B  864   0.888   3.131   7.813 -0.0746 -0.1653  0.1000
   26POPC   C4B  865   0.647   3.152   7.461 -0.2524  0.1547 -0.0177
   27POPC   NC3  866   8.052   5.062   9.234 -0.1486  0.1142 -0.3222
   27POPC   PO4  867   7.820   5.016   8.845 -0.2050  0.1060  0.0328
   27POPC   GL1  868   7.666   4.887   8.467  0.1232 -0.0313 -0.2379
   27POPC   GL2  869   7.529   4.501   8.450 -0.0355  0.1413  0.1418
   27POPC   C1A  870   7.597   5.046   8.030  0.0166  0.1163 -0.1510
   27POPC   D2A  871   7.621   5.224   7.739 -0.0504 -0.1116  0.1350
   27POPC   C3A  872   7.939   5.194   7.416  0.0021  0.1138  0.2086
   27POPC   C4A  873   8.128   4.881   7.239 -0.3728 -0.3724 -0.1077
   27POPC   C1B  874   7.852   4.584   8.052 -0.2416  0.1574 -0.2562
   27POPC   C2B  875   8.106   4.945   7.881  0.0745  0.1795  0.2456
   27POPC   C3B  876   8.448   5.159   8.004 -0.0361  0.2670  0.4451
   27POPC   C4B  877   8.816   5.129   8.211  0.1205 -0.1447 -0.0106
   28POPC   NC3  878   8.980   8.651   9.493 -0.0163  0.1567 -0.0014
   28POPC   PO4  879   9.424   8.684   9.377 -0.0988  0.2201  0.0754
   28POPC   GL1  880   9.643   8.632   9.084 -0.1396 -0.2985 -0.1837
   28POPC   GL2  881   9.851   8.919   9.001  0.1467 -0.0499 -0.4970
   28POPC   C1A  882   9.451   8.670   8.721  0.0695 -0.1676  0.0474
   28POPC   D2A  883   9.153   8.738   8.544 -0.1055 -0.0892  0.5404
   28POPC   C3A  884   9.024   9.027   8.104 -0.0771 -0.2126  0.2365
   28POPC   C4A  885   9.089   9.260   7.697 -0.1871 -0.4009  0.1849
   28POPC   C1B  886   9.951   8.830   8.590 -0.1289  0.1199 -0.2912
   28POPC   C2B  887   9.974   8.958   8.108 -0.0223 -0.0534 -0.0685
   28POPC   C3B  888  10.155   8.770   7.768 -0.2638  0.5432 -0.0150
   28POPC   C4B  889  10.003   8.711   7.375  0.1125 -0.1105 -0.0807
   29POPC   NC3  890   4.710   0.187   9.070 -0.0826  0.1684 -0.0582
   29POPC   PO4  891   4.695   0.584   8.922 -0.3313 -0.2308 -0.2521
   29POPC   GL1  892   4.734   0.719   8.593 -0.2516  0.0395 -0.3419
   29POPC   GL2  893   4.553   1.017   8.644  0.4458 -0.1175  0.2983
   29POPC   C1A  894   4.603   0.689   8.204  0.2460  0.0271  0.0363
   29POPC   D2A  895   4.135   0.593   8.140  0.0587  0.0951 -0.0509
   29POPC   C3A  896   3.912   0.252   7.808 -0.2235  0.0161 -0.3646
   29POPC   C4A  897   4.074  -0.010   7.697 -0.0700  0.0683 -0.1376
   29POPC   C1B  898   4.961   1.092   8.381  0.1471 -0.5686 -0.0165
   29POPC   C2B  899   5.325   1.050   8.111 -0.1145 -0.3167  0.0529
   29POPC   C3B  900   5.584   0.827   8.014  0.1160 -0.2536  0.1170
   29POPC   C4B  901   5.690   0.474   7.998  0.1686  0.2633 -0.0851
   30POPC   NC3  902   2.359   7.235   9.308  0.1387 -0.1895  0.0936
   30POPC   PO4  903   2.624   7.590   9.203 -0.1888  0.2226 -0.1144
   30POPC   GL1  904   2.744   7.583   8.803  0.0198  0.1518 -0.0299
   30POPC   GL2  905   2.509   7.635   8.563  0.0870  0.4318 -0.0024
   30POPC   C1A  906   3.091   7.689   8.617 -0.0096  0.2304  0.1323
   30POPC   D2A  907   3.469   7.931   8.463 -0.0482 -0.0410  0.0599
   30POPC   C3A  908   3.641   7.721   8.091 -0.1725  0.0344 -0.0750
   30POPC   C4A  909   3.459   7.857   7.682 -0.0540  0.0996 -0.0001
   30POPC   C1B  910   2.618   7.279   8.289  0.2383  0.0201  0.1869
   30POPC   C2B  911   2.935   6.995   8.225  0.1125 -0.2120  0.1402
   30POPC   C3B  912   3.316   6.765   8.320 -0.0405  0.0815  0.2627
   30POPC   C4B  913   3.715   6.707   8.409  0.1292  0.1256 -0.0519
   31POPC   NC3  914   6.616   5.690   8.743 -0.1025  0.1083 -0.2328
   31POPC   PO4  915   6.662   6.170   8.759  0.1516 -0.1301  0.2926
   31POPC   GL1  916   6.839   6.196   8.376 -0.0985  0.2851  0.3553
   31POPC   GL2  917   6.631   5.922   8.262 -0.1716  0.3028 -0.1277
   31POPC   C1A  918   6.823   6.487   8.160  0.0873  0.0950 -0.1039
   31POPC   D2A  919   6.594   6.740   7.955 -0.2298  0.2562  0.0854
   31POPC   C3A  920   6.326   6.899   8.241 -0.3533 -0.0359  0.4802
   31POPC   C4A  921   6.002   6.901   8.540 -0.0209  0.2224  0.2339
   31POPC   C1B  922   6.288   5.948   7.980 -0.1037 -0.4127 -0.1354
   31POPC   C2B  923   6.192   5.857   7.566 -0.1951  0.2282 -0.0364
   31POPC   C3B  924   6.334   6.031   7.089 -0.0199 -0.1419 -0.1182
   31POPC   C4B  925   6.322   5.717   6.717 -0.1699 -0.0779  0.3143
   32POPC   NC3  926   2.129  10.287   8.775 -0.2695  0.1132  0.0758
   32POPC   PO4  927   1.945  10.554   8.847  0.0182  0.1392 -0.4140
   32POPC   GL1  928   2.115  10.643   8.399 -0.3127 -0.0938 -0.0499
   32POPC   GL2  929   2.246  10.362   8.284 -0.2623 -0.4301 -0.2130
   32POPC   C1A  930   1.951  10.854   7.968 -0.2373  0.0541 -0.2752
   32POPC   D2A  931   1.696  10.862   7.567  0.6276 -0.1959  0.2420
   32POPC   C3A  932   1.319  11.037   7.378 -0.2535 -0.2755 -0.1576
   32POPC   C4A  933   1.100  10.992   6.954 -0.1757  0.1839  0.0317
   32POPC   C1B  934   2.364  10.591   7.928 -0.3865  0.0721 -0.1896
   32POPC   C2B  935   2.401  11.066   7.762  0.1107 -0.1517 -0.3043
   32POPC   C3B  936   2.560  11.541   7.637 -0.0479 -0.1416 -0.0785
   32POPC   C4B  937   2.741  11.774   7.834 -0.2767 -0.0198 -0.1956
   33POPC   NC3  938   9.173   0.378   9.051 -0.2272 -0.0096 -0.1381
   33POPC   PO4  939   9.223  -0.017   8.974  0.1127  0.2391  0.1266
   33POPC   GL1  940   8.925  -0.030   8.652 -0.2672  0.2222 -0.1581
   33POPC   GL2  941   8.600  -0.191   8.672  0.0718 -0.0705 -0.0582
   33POPC   C1A  942   8.817  -0.062   8.287  0.0646  0.1910 -0.0420
   33POPC   D2A  943   8.866  -0.053   7.916 -0.1271 -0.0569  0.1823
   33POPC   C3A  944   8.797   0.121   7.527  0.1625 -0.1379 -0.1126
   33POPC   C4A  945   8.750   0.576   7.305 -0.1088  0.1397 -0.3205
   33POPC   C1B  946   8.209  -0.433   8.494 -0.1145  0.2096  0.3536
   33POPC   C2B  947   7.809  -0.312   8.404  0.2802 -0.2278 -0.0527
   33POPC   C3B  948   7.558  -0.584   8.143  0.5609  0.3944 -0.1422
   33POPC   C4B  949   7.430  -0.784   7.737  0.3218 -0.1649 -0.2748
   34POPC   NC3  950   5.380   3.313   8.977  0.0100 -0.0166 -0.2355
   34POPC   PO4  951   5.736   3.223   9.017 -0.2152  0.0192 -0.0446
   34POPC   GL1  952   5.780   3.324   8.648 -0.1356  0.3078  0.0707
   34POPC   GL2  953   5.590   3.561   8.624 -0.0282  0.0174 -0.0937
   34POPC   C1A  954   5.876   3.297   8.243  0.0663  0.1138 -0.2084
   34POPC   D2A  955   5.885   3.267   7.788  0.0557  0.1781 -0.1794
   34POPC   C3A  956   5.968   2.973   7.506 -0.0371 -0.3025 -0.1153
   34POPC   C4A  957   6.269   3.175   7.118  0.1470  0.2113 -0.1310
   34POPC   C1B  958   5.431   3.597   8.291  0.1365 -0.1463 -0.1718
   34POPC   C2B  959   5.235   3.482   7.916  0.1739 -0.4084  0.1752
   34POPC   C3B  960   5.408   3.314   7.532  0.2954  0.2405  0.5143
   34POPC   C4B  961   5.495   3.022   7.245  0.0942 -0.0578 -0.1303
   35POPC   NC3  962   5.995   5.905   9.447 -0.0074 -0.1574 -0.1238
   35POPC   PO4  963   6.278   5.578   9.107  0.2487  0.0518 -0.1149
   35POPC   GL1  964   6.196   5.418   8.625  0.1153 -0.1290 -0.0912
   35POPC   GL2  965   5.921   5.648   8.569  0.2344  0.0202 -0.3081
   35POPC   C1A  966   5.952   5.157   8.255  0.1240  0.0308 -0.1571
   35POPC   D2A  967   5.785   5.130   7.868  0.3321  0.0684  0.1328
   35POPC   C3A  968   5.948   4.901   7.627  0.0113  0.0209  0.2645
   35POPC   C4A  969   5.881   4.448   7.380 -0.2244  0.4287 -0.1664
   35POPC   C1B  970   5.988   5.641   8.149  0.4923 -0.0823 -0.3522
   35POPC   C2B  971   5.740   5.710   7.845  0.1844  0.1448 -0.0940
   35POPC   C3B  972   5.609   5.632   7.446 -0.1757 -0.0896  0.2101
   35POPC   C4B  973   5.281   5.652   7.189  0.1382 -0.1533 -0.2283
   36POPC   NC3  974   5.640   1.746   9.566  0.0254  0.5176 -0.0035
   36POPC   PO4  975   5.896   2.030   9.373 -0.1751  0.1210  0.0090
   36POPC   GL1  976   6.077   1.997   8.943  0.1172  0.2751  0.0726
   36POPC   GL2  977   6.197   2.282   8.666 -0.1415 -0.2196  0.1770
   36POPC   C1A  978   6.344   1.836   8.762  0.1990 -0.1379 -0.1674
   36POPC   D2A  979   6.742   1.594   8.661 -0.0655 -0.1006  0.0162
   36POPC   C3A  980   6.731   1.434   8.279  0.1482  0.2629  0.0115
   36POPC   C4A  981   6.601   1.499   7.876 -0.0520  0.0809  0.1162
   36POPC   C1B  982   6.049   2.255   8.134 -0.3286 -0.2178  0.0601
   36POPC   C2B  983   6.168   1.937   7.744  0.1162 -0.0373  0.4475
   36POPC   C3B  984   6.288   1.950   7.373  0.1456 -0.0792 -0.3339
   36POPC   C4B  985   6.237   2.155   6.974 -0.1888 -0.1359 -0.0408
   37POPC   NC3  986   8.691   3.711   8.899  0.2135  0.2121 -0.3574
   37POPC   PO4  987   8.372   3.429   8.702  0.2186 -0.4469  0.2330
   37POPC   GL1  988   8.560   3.724   8.360  0.2082 -0.0928  0.0400
   37POPC   GL2  989   8.357   3.568   8.114 -0.0058  0.1700 -0.1316
   37POPC   C1A  990   8.790   3.735   7.983 -0.0972  0.1575 -0.0659
   37POPC   D2A  991   9.230   3.808   7.705 -0.2599  0.7355  0.1774
   37POPC   C3A  992   9.200   3.672   7.321  0.1235 -0.0889  0.4384
   37POPC   C4A  993   9.116   3.579   6.948  0.0988 -0.2736  0.0116
   37POPC   C1B  994   8.333   3.380   7.763 -0.1930  0.0871  0.0479
   37POPC   C2B  995   8.058   3.263   7.515  0.3521  0.3118  0.0178
   37POPC   C3B  996   7.789   2.957   7.348  0.1751  0.1152 -0.1810
   37POPC   C4B  997   7.399   2.955   7.202 -0.0874  0.2218 -0.2250
   38POPC   NC3  998   8.612   5.845   9.256 -0.1252 -0.2104  0.2579
   38POPC   PO4  999   8.206   5.924   9.097  0.1047  0.3068 -0.1244
   38POPC   GL1 1000   8.238   5.890   8.644  0.1435 -0.0756 -0.3375
   38POPC   GL2 1001   7.897   5.687   8.480 -0.1946  0.2467  0.0922
   38POPC   C1A 1002   8.189   5.997   8.193 -0.0603  0.0460  0.2840
   38POPC   D2A 1003   8.032   5.979   7.759 -0.0215  0.0336  0.1601
   38POPC   C3A 1004   8.241   6.074   7.365 -0.3605  0.3157 -0.1748
   38POPC   C4A 1005   8.243   6.390   7.079  0.2084 -0.0391  0.0270
   38POPC   C1B 1006   7.683   5.867   8.238 -0.3247  0.0153 -0.0886
   38POPC   C2B 1007   7.562   5.974   7.771 -0.0622  0.0575  0.0275
   38POPC   C3B 1008   7.333   6.087   7.472  0.0920 -0.1007 -0.1062
   38POPC   C4B 1009   6.935   5.949   7.315  0.3570  0.0719 -0.1175
   39POPC   NC3 1010   4.182   5.886  10.062 -0.1710 -0.2023 -0.0118
   39POPC   PO4 1011   4.663   6.049   9.856  0.0413 -0.2608  0.4438
   39POPC   GL1 1012   4.674   6.073   9.347  0.1091  0.1289  0.1374
   39POPC   GL2 1013   4.496   6.262   9.189 -0.4392  0.0489 -0.2491
   39POPC   C1A 1014   4.758   6.408   8.826  0.0291 -0.0749  0.0262
   39POPC   D2A 1015   4.707   6.819   8.697 -0.1230 -0.1961 -0.0846
   39POPC   C3A 1016   4.667   6.692   8.268 -0.1677 -0.3413  0.1729
   39POPC   C4A 1017   4.894   6.493   7.965  0.2873  0.0697 -0.2019
   39POPC   C1B 1018   4.352   6.081   8.763 -0.1884 -0.0784  0.1319
   39POPC   C2B 1019   4.470   6.200   8.307 -0.0765 -0.0766  0.1827
   39POPC   C3B 1020   4.446   6.320   7.879  0.1228  0.0365 -0.3548
   39POPC   C4B 1021   4.435   6.161   7.385 -0.0105 -0.0604  0.0579
   40POPC   NC3 1022   9.737   0.995   9.291  0.3438 -0.2376  0.1597
   40POPC   PO4 1023   9.628   0.681   9.045  0.1424 -0.0649 -0.1079
   40POPC   GL1 1024   9.400   0.754   8.623 -0.4905  0.2335 -0.2596
   40POPC   GL2 1025   9.160   0.436   8.562 -0.3536  0.3477 -0.3778
   40POPC   C1A 1026   9.185   0.805   8.271 -0.1347 -0.1907 -0.1473
   40POPC   D2A 1027   9.103   1.147   8.039  0.1481  0.1115 -0.1469
   40POPC   C3A 1028   9.431   1.309   7.714  0.0372  0.1723  0.1026
   40POPC   C4A 1029   9.733   1.016   7.497 -0.3541 -0.4866  0.2476
   40POPC   C1B 1030   9.248   0.332   8.182 -0.0303  0.0503 -0.0996
   40POPC   C2B 1031   9.488   0.241   7.843  0.3813  0.0201  0.0455
   40POPC   C3B 1032   9.744   0.520   7.480  0.1205  0.2947  0.0124
   40POPC   C4B 1033   9.968   0.235   7.260 -0.1109 -0.2852 -0.0925
   41POPC   NC3 1034   5.022   5.206   9.931  0.2291 -0.1382  0.0566
   41POPC   PO4 1035   4.890   4.819   9.658 -0.2434  0.0389  0.0712
   41POPC   GL1 1036   5.039   5.118   9.407  0.1752  0.1719  0.2487
   41POPC   GL2 1037   4.928   5.213   9.183  0.0971 -0.2011  0.1251
   41POPC   C1A 1038   5.386   5.173   9.014  0.0957  0.0268 -0.0960
   41POPC   D2A 1039   5.524   5.235   8.602 -0.1236 -0.0718 -0.2504
   41POPC   C3A 1040   5.419   4.917   8.250 -0.0500  0.1520  0.2637
   41POPC   C4A 1041   5.364   4.869   7.796 -0.1940 -0.1439  0.7356
   41POPC   C1B 1042   4.770   5.355   8.782 -0.0098  0.0605 -0.1466
   41POPC   C2B 1043   4.943   5.500   8.328 -0.0990  0.2727  0.1605
   41POPC   C3B 1044   4.779   5.680   7.901  0.3775  0.0302  0.2779
   41POPC   C4B 1045   4.827   6.017   7.693  0.2172 -0.1592  0.2899
   42POPC   NC3 1046   1.778   5.486   9.211  0.0115 -0.0047 -0.4011
   42POPC   PO4 1047   1.396   5.665   9.241 -0.4062  0.0402 -0.1803
   42POPC   GL1 1048   1.282   5.340   8.935  0.1516  0.0222 -0.0074
   42POPC   GL2 1049   0.929   5.372   8.841  0.0733  0.0358  0.0950
   42POPC   C1A 1050   1.311   5.217   8.502 -0.1791  0.0342 -0.1666
   42POPC   D2A 1051   1.624   5.158   8.380  0.1159  0.1889  0.1973
   42POPC   C3A 1052   1.619   4.779   8.347 -0.2671 -0.0617 -0.0008
   42POPC   C4A 1053   1.772   4.413   8.238 -0.0272  0.1275 -0.0652
   42POPC   C1B 1054   0.970   4.897   8.670 -0.0856 -0.0394  0.0692
   42POPC   C2B 1055   1.300   4.621   8.662  0.3873 -0.2079  0.2456
   42POPC   C3B 1056   1.365   4.263   8.543  0.0376  0.1917 -0.0368
   42POPC   C4B 1057   1.217   4.063   8.247 -0.1952 -0.3619 -0.0165
   43POPC   NC3 1058   6.439   0.804   9.213 -0.1160 -0.2908 -0.1127
   43POPC   PO4 1059   6.075   0.853   9.209 -0.3168  0.3348 -0.0323
   43POPC   GL1 1060   5.777   0.896   8.886  0.0018  0.2106  0.0397
   43POPC   GL2 1061   5.525   0.792   8.630 -0.3061  0.0908 -0.1811
   43POPC   C1A 1062   5.879   1.085   8.446  0.0557 -0.3411 -0.0820
   43POPC   D2A 1063   6.037   0.742   8.140 -0.1938  0.1402 -0.3573
   43POPC   C3A 1064   6.147   0.919   7.733 -0.2320 -0.2592 -0.3004
   43POPC   C4A 1065   6.195   1.051   7.264 -0.1804 -0.2579  0.0839
   43POPC   C1B 1066   5.908   0.417   8.480  0.0576 -0.2274 -0.0477
   43POPC   C2B 1067   6.151   0.231   8.051 -0.1476 -0.1382 -0.1958
   43POPC   C3B 1068   6.334   0.157   7.685 -0.0076  0.4453  0.2692
   43POPC   C4B 1069   6.621   0.191   7.356 -0.1773  0.0138  0.0190
   44POPC   NC3 1070   1.238   7.815   8.493  0.1094 -0.1511 -0.0299
   44POPC   PO4 1071   1.522   7.760   8.252 -0.2791 -0.0919 -0.1929
   44POPC   GL1 1072   1.878   7.745   7.970  0.0455  0.1630 -0.0965
   44POPC   GL2 1073   1.721   7.787   7.690 -0.4164 -0.2170 -0.3447
   44POPC   C1A 1074   2.221   7.759   7.543 -0.4611 -0.1201  0.1210
   44POPC   D2A 1075   2.551   7.862   7.206 -0.1193  0.1145  0.0421
   44POPC   C3A 1076   2.876   8.030   6.941 -0.1830 -0.0716  0.1061
   44POPC   C4A 1077   3.297   8.151   6.799  0.3378 -0.0596  0.0899
   44POPC   C1B 1078   1.974   8.208   7.642 -0.0207 -0.1712  0.1454
   44POPC   C2B 1079   2.208   8.233   7.333  0.4200  0.0658  0.0142
   44POPC   C3B 1080   1.965   8.481   7.070  0.0349 -0.2231 -0.0599
   44POPC   C4B 1081   1.727   8.908   6.818 -0.1222  0.2225  0.0572
   45POPC   NC3 1082   9.997   2.505   9.057 -0.1919 -0.2289  0.0446
   45POPC   PO4 1083   9.698   2.216   8.769  0.0651  0.3362  0.1029
   45POPC   GL1 1084  10.015   2.139   8.649  0.0692 -0.0885  0.0321
   45POPC   GL2 1085   9.828   1.960   8.359  0.2744  0.0379 -0.0184
   45POPC   C1A 1086  10.280   2.368   8.356 -0.0863  0.0028 -0.1274
   45POPC   D2A 1087  10.428   2.430   7.883  0.1740  0.2214 -0.4166
   45POPC   C3A 1088  10.446   2.181   7.471  0.1793  0.1318 -0.0098
   45POPC   C4A 1089  10.565   2.251   7.034 -0.2129  0.2811 -0.0890
   45POPC   C1B 1090   9.808   2.089   7.961 -0.2185  0.1856 -0.1651
   45POPC   C2B 1091   9.977   2.322   7.552 -0.1953 -0.1626  0.3630
   45POPC   C3B 1092  10.176   2.529   7.252  0.0583 -0.2890  0.2044
   45POPC   C4B 1093  10.471   2.847   7.119  0.1666 -0.1531  0.3973
   46POPC   NC3 1094   1.611   6.580   9.288 -0.0518  0.0678 -0.3461
   46POPC   PO4 1095   2.071   6.384   9.289  0.4818  0.2694  0.0083
   46POPC   GL1 1096   2.452   6.228   9.092 -0.1361  0.1805  0.1094
   46POPC   GL2 1097   2.525   6.420   8.838 -0.1418 -0.2870 -0.2224
   46POPC   C1A 1098   2.911   6.155   9.133  0.1419  0.1220  0.1630
   46POPC   D2A 1099   3.258   5.908   9.082 -0.1111 -0.0772 -0.1677
   46POPC   C3A 1100   3.264   5.855   8.752  0.1961  0.2545  0.1374
   46POPC   C4A 1101   3.220   5.423   8.583 -0.2631  0.2751 -0.0637
   46POPC   C1B 1102   2.809   6.099   8.615 -0.1639  0.1463  0.1856
   46POPC   C2B 1103   2.838   5.648   8.480 -0.2673  0.2161 -0.0685
   46POPC   C3B 1104   2.555   5.321   8.429 -0.0568 -0.3415 -0.1266
   46POPC   C4B 1105   2.463   4.911   8.425  0.3062  0.1773 -0.2140
   47POPC   NC3 1106   5.011   8.884   8.555  0.3961  0.2005  0.0990
   47POPC   PO4 1107   5.036   9.265   8.762  0.0638  0.3687  0.2435
   47POPC   GL1 1108   5.175   9.289   8.336  0.0207 -0.2180 -0.2028
   47POPC   GL2 1109   5.489   9.378   8.408 -0.1602  0.0472  0.1535
   47POPC   C1A 1110   5.455   9.238   7.914 -0.0100  0.2014 -0.2294
   47POPC   D2A 1111   5.804   9.458   7.696 -0.2877 -0.2653 -0.0578
   47POPC   C3A 1112   5.789   9.791   7.440 -0.0092  0.0147  0.3583
   47POPC   C4A 1113   5.708   9.862   7.028 -0.1430  0.1101  0.2137
   47POPC   C1B 1114   5.412   9.731   8.094  0.0455 -0.0009  0.0393
   47POPC   C2B 1115   5.433   9.988   7.737 -0.1341  0.1469  0.2343
   47POPC   C3B 1116   5.282  10.163   7.352  0.1141 -0.1297  0.0529
   47POPC   C4B 1117   5.143  10.343   6.984 -0.0503 -0.2064  0.3010
   48POPC   NC3 1118   4.399   4.753   9.621  0.0948  0.1884 -0.2466
   48POPC   PO4 1119   4.122   4.493   9.388  0.1165 -0.1790  0.1323
   48POPC   GL1 1120   3.810   4.555   9.161  0.4343 -0.0558 -0.3409
   48POPC   GL2 1121   3.489   4.380   9.072 -0.2004 -0.3420 -0.0407
   48POPC   C1A 1122   3.505   4.892   9.037 -0.0216  0.0780 -0.2489
   48POPC   D2A 1123   3.314   4.903   8.681  0.1822  0.1665  0.0829
   48POPC   C3A 1124   2.854   5.013   8.727  0.1654 -0.0169  0.1121
   48POPC   C4A 1125   2.532   5.302   8.928  0.1172  0.0962  0.3081
   48POPC   C1B 1126   3.469   4.320   8.689 -0.0354  0.2636 -0.3447
   48POPC   C2B 1127   3.803   4.096   8.627 -0.0418 -0.0063  0.0364
   48POPC   C3B 1128   3.840   3.690   8.382  0.1665 -0.0657  0.0281
   48POPC   C4B 1129   3.962   3.497   8.036 -0.1573 -0.1629 -0.2173
   49POPC   NC3 1130   8.064   8.656   8.934  0.0492  0.1051  0.1824
   49POPC   PO4 1131   8.431   8.505   8.852 -0.0984 -0.2919 -0.0206
   49POPC   GL1 1132   8.683   8.545   8.374  0.3503  0.0105  0.1001
   49POPC   GL2 1133   8.858   8.319   8.632 -0.2488 -0.0395 -0.1472
   49POPC   C1A 1134   8.819   8.629   7.972 -0.0706  0.4220 -0.3460
   49POPC   D2A 1135   8.922   8.776   7.538 -0.4131 -0.3203 -0.0965
   49POPC   C3A 1136   8.866   8.456   7.215 -0.1762 -0.1784  0.0702
   49POPC   C4A 1137   8.631   8.502   6.823  0.0686 -0.0992 -0.3082
   49POPC   C1B 1138   9.137   8.184   8.227  0.2231  0.1323  0.4194
   49POPC   C2B 1139   9.409   7.989   7.903  0.0079  0.2614  0.2146
   49POPC   C3B 1140   9.770   7.974   7.890  0.0194  0.0473  0.0005
   49POPC   C4B 1141  10.095   8.036   8.180 -0.1762  0.0977  0.3704
   50POPC   NC3 1142   3.286   5.985  10.434 -0.2510 -0.0937  0.1199
   50POPC   PO4 1143   3.672   5.778  10.256  0.2374  0.1365  0.2327
   50POPC   GL1 1144   3.603   5.645   9.706 -0.0179 -0.0601 -0.3871
   50POPC   GL2 1145   3.878   5.618   9.567  0.1791 -0.2106 -0.3930
   50POPC   C1A 1146   3.200   5.640   9.508 -0.0568 -0.0911 -0.0576
   50POPC   D2A 1147   2.827   5.406   9.367  0.1669  0.2142 -0.0439
   50POPC   C3A 1148   2.692   5.047   9.269  0.1950 -0.0866 -0.6494
   50POPC   C4A 1149   2.476   4.760   8.989 -0.1108  0.3423 -0.2993
   50POPC   C1B 1150   3.645   5.519   9.233 -0.0590  0.2263 -0.3517
   50POPC   C2B 1151   3.712   5.328   8.852  0.1490  0.0120 -0.2870
   50POPC   C3B 1152   3.713   5.079   8.493  0.2208 -0.0368  0.0416
   50POPC   C4B 1153   3.521   4.801   8.148  0.2297 -0.0708  0.0845
   51POPC   NC3 1154   6.384   9.200   9.035  0.1280 -0.0614  0.0896
   51POPC   PO4 1155   6.918   9.231   9.068  0.1221  0.1023  0.1088
   51POPC   GL1 1156   6.839   9.095   8.611 -0.0117  0.1036  0.1989
   51POPC   GL2 1157   6.950   9.237   8.323 -0.2204  0.2138 -0.1320
   51POPC   C1A 1158   7.017   8.788   8.241 -0.2389 -0.2624  0.1073
   51POPC   D2A 1159   6.884   8.377   8.158 -0.2573 -0.2817 -0.1270
   51POPC   C3A 1160   6.492   8.217   7.887 -0.2771 -0.1469  0.2014
   51POPC   C4A 1161   6.320   8.320   7.519 -0.3388 -0.0659  0.1709
   51POPC   C1B 1162   7.230   9.270   7.955 -0.3639  0.2508 -0.0976
   51POPC   C2B 1163   7.718   9.290   7.923 -0.2551  0.0224 -0.1539
   51POPC   C3B 1164   8.139   9.194   7.852 -0.0247 -0.0652 -0.0166
   51POPC   C4B 1165   8.523   9.031   7.992 -0.0253 -0.1997  0.1221
   52POPC   NC3 1166   0.000   4.426   9.408 -0.1608  0.0049  0.1796
   52POPC   PO4 1167   0.051   4.906   9.427 -0.2245 -0.6790 -0.0065
   52POPC   GL1 1168   0.167   4.919   9.036 -0.1530 -0.0040  0.4856
   52POPC   GL2 1169  -0.165   5.107   8.932  0.1103  0.1229 -0.3674
   52POPC   C1A 1170   0.427   5.066   8.628 -0.3073  0.0670  0.2414
   52POPC   D2A 1171   0.595   4.861   8.287 -0.0731 -0.0703  0.1468
   52POPC   C3A 1172   0.336   4.883   7.962 -0.2424 -0.3730 -0.3654
   52POPC   C4A 1173   0.020   4.624   7.708  0.2030 -0.0515 -0.1169
   52POPC   C1B 1174  -0.065   5.069   8.527  0.2447 -0.0812 -0.2861
   52POPC   C2B 1175  -0.206   4.895   8.144  0.0151 -0.0608 -0.0244
   52POPC   C3B 1176  -0.421   4.633   8.063  0.0205 -0.1612 -0.1646
   52POPC   C4B 1177  -0.830   4.445   8.154 -0.0548 -0.0649  0.1085
   53POPC   NC3 1178   3.022   9.316   8.899 -0.0333 -0.4768  0.2568
   53POPC   PO4 1179   2.926   9.697   8.948  0.1512  0.2440  0.1781
   53POPC   GL1 1180   2.785   9.540   8.540  0.2176  0.0458  0.1489
   53POPC   GL2 1181   2.807   9.893   8.359  0.0812  0.1383  0.1743
   53POPC   C1A 1182   2.527   9.521   8.073  0.2253 -0.1545  0.0715
   53POPC   D2A 1183   2.553   9.753   7.607 -0.1662  0.0360  0.2436
   53POPC   C3A 1184   2.728   9.782   7.140  0.1895 -0.3219 -0.0644
   53POPC   C4A 1185   2.840  10.079   6.773 -0.0181  0.0273  0.1070
   53POPC   C1B 1186   2.929   9.820   7.978 -0.0413  0.1665 -0.2938
   53POPC   C2B 1187   3.015   9.897   7.537 -0.1042  0.1742 -0.0945
   53POPC   C3B 1188   2.836  10.242   7.269 -0.0008  0.0276  0.0543
   53POPC   C4B 1189   2.661  10.684   7.389 -0.1104 -0.0186  0.0333
   54POPC   NC3 1190   9.530   4.336   9.249 -0.0272  0.1341 -0.1867
   54POPC   PO4 1191   9.469   4.872   9.317  0.1280  0.1655  0.1067
   54POPC   GL1 1192   9.180   4.649   8.968  0.2583  0.0563  0.1434
   54POPC   GL2 1193   8.921   4.652   8.912  0.1821 -0.2603 -0.1196
   54POPC   C1A 1194   9.202   4.587   8.486  0.1953  0.0591 -0.0109
   54POPC   D2A 1195   9.141   4.645   8.038  0.1861  0.1330 -0.1233
   54POPC   C3A 1196   8.894   4.913   7.785 -0.0392  0.0003 -0.0932
   54POPC   C4A 1197   8.685   5.216   7.519 -0.0451 -0.1824  0.0728
   54POPC   C1B 1198   8.639   4.655   8.506 -0.4845 -0.0864 -0.2365
   54POPC   C2B 1199   8.286   4.944   8.467 -0.1332  0.1130  0.0606
   54POPC   C3B 1200   8.017   5.279   8.305 -0.0320 -0.3300  0.0425
   54POPC   C4B 1201   8.037   5.494   8.016  0.1603 -0.2211  0.3261
   55POPC   NC3 1202  10.031   0.310   9.043 -0.0967  0.1351 -0.1893
   55POPC   PO4 1203   9.868  -0.173   9.005 -0.0712  0.1329 -0.0451
   55POPC   GL1 1204   9.974  -0.046   8.608  0.0883  0.3077 -0.2073
   55POPC   GL2 1205  10.254  -0.063   8.530  0.0096 -0.0097 -0.2137
   55POPC   C1A 1206   9.759   0.085   8.232  0.1005  0.3613 -0.1001
   55POPC   D2A 1207   9.988   0.336   7.941  0.1278 -0.2501 -0.0715
   55POPC   C3A 1208   9.919   0.774   7.947 -0.6256  0.2134 -0.2584
   55POPC   C4A 1209   9.775   1.101   8.191 -0.0223  0.1357  0.1780
   55POPC   C1B 1210  10.262  -0.079   8.138  0.1930  0.3013  0.1040
   55POPC   C2B 1211  10.619  -0.196   7.860  0.0961 -0.2374 -0.2703
   55POPC   C3B 1212  10.838  -0.536   7.990 -0.3941  0.2690 -0.0886
   55POPC   C4B 1213  11.215  -0.747   7.885  0.0793 -0.2147 -0.2993
   56POPC   NC3 1214   9.290   5.337   9.515  0.2678 -0.0182  0.1280
   56POPC   PO4 1215   9.016   5.571   9.250  0.0323 -0.0400 -0.1562
   56POPC   GL1 1216   8.946   5.630   8.773  0.0065  0.1312  0.0649
   56POPC   GL2 1217   8.629   5.683   8.739 -0.0721 -0.0108 -0.2175
   56POPC   C1A 1218   9.022   5.514   8.376  0.0479  0.1179 -0.2174
   56POPC   D2A 1219   8.915   5.614   8.026  0.2757  0.1047 -0.4332
   56POPC   C3A 1220   9.108   5.415   7.792  0.2198 -0.1835 -0.0841
   56POPC   C4A 1221   9.432   5.230   7.496  0.3319 -0.0537 -0.3594
   56POPC   C1B 1222   8.494   5.580   8.296 -0.0286 -0.0709 -0.2582
   56POPC   C2B 1223   8.477   5.691   7.788  0.1786 -0.1712  0.3186
   56POPC   C3B 1224   8.621   5.724   7.439 -0.2537  0.0096 -0.0865
   56POPC   C4B 1225   8.995   5.516   7.323  0.0252  0.0871  0.0193
   57POPC   NC3 1226   5.108   6.520   9.614 -0.1069 -0.0657 -0.2266
   57POPC   PO4 1227   5.417   6.703   9.309 -0.4046  0.2026  0.0492
   57POPC   GL1 1228   5.290   6.590   8.867  0.1193  0.0575  0.0634
   57POPC   GL2 1229   5.458   6.732   8.642 -0.5517  0.1184  0.1345
   57POPC   C1A 1230   5.087   6.518   8.444  0.2372 -0.0702 -0.0597
   57POPC   D2A 1231   5.408   6.469   8.070 -0.1720 -0.0026 -0.3464
   57POPC   C3A 1232   5.394   6.590   7.654  0.1337 -0.1024  0.0388
   57POPC   C4A 1233   5.556   6.705   7.239  0.0929  0.1451 -0.0834
   57POPC   C1B 1234   5.166   7.042   8.460  0.3721  0.1727  0.1305
   57POPC   C2B 1235   5.085   6.939   8.045  0.0128 -0.2299 -0.1437
   57POPC   C3B 1236   5.059   7.069   7.586 -0.0468 -0.0388 -0.2097
   57POPC   C4B 1237   4.920   7.427   7.378 -0.1021 -0.0056  0.0127
   58POPC   NC3 1238   6.381   2.276   9.363 -0.2287  0.3024 -0.1572
   58POPC   PO4 1239   6.556   2.490   9.068  0.1881  0.3501 -0.0903
   58POPC   GL1 1240   6.468   2.654   8.692 -0.2305 -0.1009 -0.0379
   58POPC   GL2 1241   6.687   2.881   8.543  0.1701 -0.1390 -0.1553
   58POPC   C1A 1242   6.261   2.689   8.304  0.0284 -0.1520  0.0289
   58POPC   D2A 1243   6.153   2.780   7.925 -0.1717 -0.2719  0.0861
   58POPC   C3A 1244   5.875   2.471   7.680  0.1016 -0.1149 -0.1615
   58POPC   C4A 1245   5.610   2.495   7.239  0.2798  0.0810  0.1257
   58POPC   C1B 1246   6.848   3.086   8.176  0.0661  0.2359 -0.0137
   58POPC   C2B 1247   6.709   2.877   7.761 -0.1833 -0.4940  0.2301
   58POPC   C3B 1248   6.428   2.751   7.467 -0.0343 -0.2057  0.1345
   58POPC   C4B 1249   6.107   2.533   7.232 -0.1067 -0.2222 -0.2583
   59POPC   NC3 1250   2.087   3.243   9.500  0.1053 -0.2465  0.1710
   59POPC   PO4 1251   2.471   3.277   9.126 -0.2454 -0.0206  0.1340
   59POPC   GL1 1252   2.445   3.371   8.687  0.2291  0.0501  0.0276
   59POPC   GL2 1253   2.056   3.358   8.519 -0.1636  0.0824  0.0034
   59POPC   C1A 1254   2.647   3.317   8.375 -0.3683  0.2897 -0.1005
   59POPC   D2A 1255   2.889   3.385   7.934 -0.0444  0.1761 -0.2763
   59POPC   C3A 1256   3.133   3.694   7.745  0.0128  0.0207 -0.1457
   59POPC   C4A 1257   3.359   4.038   7.707 -0.0785 -0.0056  0.3764
   59POPC   C1B 1258   2.073   3.547   8.048  0.3585 -0.0137  0.1638
   59POPC   C2B 1259   1.875   3.381   7.690  0.4013 -0.1213 -0.0310
   59POPC   C3B 1260   1.722   3.488   7.322 -0.2700 -0.1489 -0.1722
   59POPC   C4B 1261   1.394   3.491   7.314  0.0233 -0.1304  0.0004
   60POPC   NC3 1262   4.953   4.706   9.094  0.0544  0.2642  0.0526
   60POPC   PO4 1263   4.656   4.390   9.181 -0.0236 -0.3477 -0.0791
   60POPC   GL1 1264   4.727   4.182   8.757 -0.2308 -0.0227  0.2500
   60POPC   GL2 1265   4.532   3.879   8.594 -0.2573 -0.0188  0.0755
   60POPC   C1A 1266   4.763   4.226   8.330  0.0308 -0.1236 -0.0506
   60POPC   D2A 1267   4.648   4.328   7.965 -0.0716 -0.5020 -0.1367
   60POPC   C3A 1268   4.964   4.530   7.586 -0.2475  0.0919 -0.4585
   60POPC   C4A 1269   5.364   4.417   7.572  0.1032 -0.2834  0.1134
   60POPC   C1B 1270   4.350   3.616   8.419  0.1153 -0.0552  0.0819
   60POPC   C2B 1271   4.356   3.234   8.132  0.0322 -0.1052  0.0336
   60POPC   C3B 1272   4.597   3.017   7.804  0.2365 -0.6132 -0.1703
   60POPC   C4B 1273   4.864   3.204   7.539 -0.2219  0.0255 -0.0444
   61POPC   NC3 1274   2.682   1.562   9.423 -0.0396 -0.0423  0.0295
   61POPC   PO4 1275   2.904   1.501   9.083  0.0791 -0.0560 -0.0469
   61POPC   GL1 1276   2.806   1.597   8.668 -0.1839  0.1563 -0.0038
   61POPC   GL2 1277   3.112   1.517   8.603  0.1677  0.1015  0.1512
   61POPC   C1A 1278   2.839   1.812   8.236  0.2502  0.3786 -0.0776
   61POPC   D2A 1279   2.698   1.887   7.833  0.1974 -0.1952 -0.0715
   61POPC   C3A 1280   2.527   1.693   7.460  0.1097  0.1703  0.2573
   61POPC   C4A 1281   2.080   1.321   7.582  0.1479 -0.1992 -0.0886
   61POPC   C1B 1282   3.042   1.318   8.253  0.0808  0.2803  0.1003
   61POPC   C2B 1283   2.759   0.942   8.177  0.1470  0.0043  0.2154
   61POPC   C3B 1284   2.314   0.700   8.242  0.3237 -0.2401  0.1294
   61POPC   C4B 1285   1.784   0.755   8.338  0.6062 -0.0597 -0.1336
   62POPC   NC3 1286   9.187   2.073   8.849 -0.2360  0.3634  0.1186
   62POPC   PO4 1287   9.153   1.607   8.941 -0.1787 -0.3002 -0.3662
   62POPC   GL1 1288   9.289   1.758   8.420  0.2385  0.0182 -0.2597
   62POPC   GL2 1289   9.338   2.062   8.334  0.2155  0.3366 -0.3226
   62POPC   C1A 1290   9.408   1.588   8.114  0.0819 -0.0365 -0.1694
   62POPC   D2A 1291   9.786   1.612   7.843  0.2786 -0.1113  0.0612
   62POPC   C3A 1292   9.779   1.822   7.493 -0.3623  0.0516 -0.0422
   62POPC   C4A 1293  10.076   1.945   7.206  0.1628  0.0843  0.1387
   62POPC   C1B 1294   9.252   2.048   7.946  0.2582 -0.1354 -0.0497
   62POPC   C2B 1295   9.423   2.151   7.558 -0.2310 -0.1783 -0.4270
   62POPC   C3B 1296   9.587   2.345   7.294  0.0267  0.1191 -0.2199
   62POPC   C4B 1297   9.439   2.670   7.004  0.0597  0.1267 -0.3822
   63POPC   NC3 1298   9.197   0.882   9.050  0.3790  0.2880 -0.3543
   63POPC   PO4 1299   9.471   1.194   8.895 -0.2040 -0.2391  0.0175
   63POPC   GL1 1300   9.943   1.201   8.644  0.1145 -0.0210  0.1302
   63POPC   GL2 1301   9.913   0.877   8.584 -0.0253  0.2926 -0.0798
   63POPC   C1A 1302  10.150   1.408   8.252  0.4770 -0.0511 -0.0821
   63POPC   D2A 1303  10.094   1.261   7.851  0.0861 -0.0942  0.2692
   63POPC   C3A 1304  10.156   0.824   7.514  0.1955  0.2246  0.0752
   63POPC   C4A 1305  10.290   0.606   7.157  0.0226  0.2404  0.1001
   63POPC   C1B 1306  10.393   0.961   8.283  0.1407  0.2769  0.0492
   63POPC   C2B 1307  10.444   0.789   7.894  0.5739  0.0232 -0.0772
   63POPC   C3B 1308  10.571   1.165   7.548 -0.3836 -0.0293  0.0403
   63POPC   C4B 1309  10.840   1.240   7.284  0.4742 -0.0125 -0.1856
   64POPC   NC3 1310   0.830   0.024   9.429 -0.0443  0.1601  0.1453
   64POPC   PO4 1311   0.728  -0.304   9.176 -0.0729  0.0726  0.1189
   64POPC   GL1 1312   0.631  -0.536   8.739 -0.2441 -0.2071  0.0337
   64POPC   GL2 1313   0.653  -0.882   8.670 -0.2626 -0.0244  0.0030
   64POPC   C1A 1314   0.762  -0.385   8.329  0.0119 -0.2378  0.2805
   64POPC   D2A 1315   0.709  -0.017   8.055  0.1120  0.1634 -0.5247
   64POPC   C3A 1316   0.812  -0.197   7.601 -0.2044  0.1628 -0.0105
   64POPC   C4A 1317   0.640  -0.231   7.097 -0.0537  0.0904 -0.0788
   64POPC   C1B 1318   0.848  -1.183   8.297 -0.0992  0.0942 -0.0678
   64POPC   C2B 1319   0.953  -1.213   7.884 -0.1131  0.0152  0.0039
   64POPC   C3B 1320   1.015  -1.021   7.462  0.0819 -0.1710 -0.1659
   64POPC   C4B 1321   0.832  -0.623   7.363 -0.0720  0.1389 -0.0014
   65POPC   NC3 1322   6.948   1.383   9.442  0.2291 -0.2165  0.0997
   65POPC   PO4 1323   6.808   1.337   9.091 -0.1479 -0.2314  0.0197
   65POPC   GL1 1324   6.856   1.091   8.778 -0.2764 -0.1969 -0.1461
   65POPC   GL2 1325   6.592   1.008   8.634  0.0951 -0.2775  0.0264
   65POPC   C1A 1326   7.039   1.006   8.403 -0.0440 -0.1105 -0.1614
   65POPC   D2A 1327   7.480   0.977   8.225 -0.1833 -0.1551 -0.2794
   65POPC   C3A 1328   7.522   0.649   7.997  0.0310 -0.0132  0.3977
   65POPC   C4A 1329   7.378   0.263   7.768 -0.0294  0.0697 -0.0663
   65POPC   C1B 1330   6.489   1.000   8.183 -0.1272 -0.0003 -0.1229
   65POPC   C2B 1331   6.636   1.019   7.749  0.0693  0.4474  0.1529
   65POPC   C3B 1332   6.763   1.041   7.379  0.1040  0.2111 -0.0122
   65POPC   C4B 1333   7.271   1.149   7.246  0.0640 -0.0271  0.0806
   66POPC   NC3 1334   1.463   0.015   8.895  0.2674 -0.1714  0.2500
   66POPC   PO4 1335   1.112   0.293   9.172  0.4096 -0.0668  0.1755
   66POPC   GL1 1336   0.980   0.481   8.675  0.3690 -0.1261  0.2316
   66POPC   GL2 1337   1.084   0.166   8.334  0.2475 -0.1368 -0.3624
   66POPC   C1A 1338   0.743   0.491   8.215 -0.1592  0.3129  0.4396
   66POPC   D2A 1339   0.994   0.613   7.817 -0.0486 -0.5550 -0.1755
   66POPC   C3A 1340   0.821   0.476   7.352  0.0438 -0.0945 -0.0916
   66POPC   C4A 1341   0.906   0.135   7.197 -0.2634 -0.2228  0.0033
   66POPC   C1B 1342   1.376   0.240   7.959  0.0758  0.1473 -0.0844
   66POPC   C2B 1343   1.214   0.135   7.621 -0.1082 -0.2664 -0.2498
   66POPC   C3B 1344   1.500   0.106   7.249 -0.1169  0.1855 -0.3548
   66POPC   C4B 1345   1.854   0.276   6.973 -0.0538 -0.2997  0.3645
   67POPC   NC3 1346   4.836   5.569   9.555 -0.0179  0.0864  0.0876
   67POPC   PO4 1347   4.555   5.252   9.596  0.1203  0.3630  0.3891
   67POPC   GL1 1348   4.431   5.496   9.134 -0.0709 -0.0507  0.0024
   67POPC   GL2 1349   4.663   5.784   8.980 -0.0698 -0.0432  0.0296
   67POPC   C1A 1350   4.223   5.343   8.777 -0.1843 -0.1477  0.2794
   67POPC   D2A 1351   4.053   5.424   8.373 -0.0368 -0.1123  0.0283
   67POPC   C3A 1352   4.087   5.279   7.950 -0.1474 -0.0161 -0.2344
   67POPC   C4A 1353   4.395   4.884   7.830  0.1310 -0.1318  0.1683
   67POPC   C1B 1354   4.926   5.951   8.637  0.0757 -0.0748 -0.2338
   67POPC   C2B 1355   5.026   6.015   8.169 -0.0456  0.1886  0.0760
   67POPC   C3B 1356   5.281   5.931   7.896  0.0905 -0.0035 -0.2568
   67POPC   C4B 1357   5.731   6.161   7.794 -0.0522  0.0973 -0.0544
   68POPC   NC3 1358   0.614   0.362   9.012  0.1090 -0.0682 -0.0460
   68POPC   PO4 1359   0.123   0.323   8.917 -0.1728  0.1440 -0.2890
   68POPC   GL1 1360   0.359  -0.072   8.779 -0.1516  0.1600 -0.1433
   68POPC   GL2 1361   0.571   0.065   8.521 -0.0989 -0.1334  0.0527
   68POPC   C1A 1362   0.225  -0.363   8.472 -0.3373 -0.0780  0.3194
   68POPC   D2A 1363  -0.112  -0.636   8.253  0.1280 -0.2532 -0.1228
   68POPC   C3A 1364  -0.252  -0.484   7.731  0.3063 -0.0626  0.0281
   68POPC   C4A 1365  -0.177  -0.299   7.279 -0.0292 -0.3767  0.1125
   68POPC   C1B 1366   0.275   0.136   8.274  0.1957  0.2554 -0.2983
   68POPC   C2B 1367  -0.033   0.372   8.192 -0.0119 -0.0837  0.0081
   68POPC   C3B 1368  -0.282   0.451   8.423 -0.0494 -0.1851  0.0154
   68POPC   C4B 1369  -0.754   0.533   8.311 -0.2297  0.0805 -0.4877
   69POPC   NC3 1370   0.405   1.858   8.738 -0.1211 -0.2532 -0.1651
   69POPC   PO4 1371   0.603   2.162   9.014  0.4221  0.4949 -0.6377
   69POPC   GL1 1372   0.758   2.281   8.619  0.0143  0.2924 -0.1258
   69POPC   GL2 1373   0.862   2.604   8.749 -0.0430  0.0951  0.0933
   69POPC   C1A 1374   0.923   2.177   8.234 -0.1889 -0.1060  0.0897
   69POPC   D2A 1375   0.708   2.402   7.887  0.0722  0.0178  0.1502
   69POPC   C3A 1376   0.560   2.171   7.512 -0.1009 -0.0068  0.4982
   69POPC   C4A 1377   0.607   2.291   7.107  0.0473  0.1141  0.0828
   69POPC   C1B 1378   0.930   2.682   8.229  0.1628 -0.1673 -0.0756
   69POPC   C2B 1379   1.063   2.696   7.738 -0.1421  0.0701 -0.0893
   69POPC   C3B 1380   1.154   2.414   7.378  0.0304 -0.0042 -0.1105
   69POPC   C4B 1381   1.488   2.099   7.306 -0.0355  0.1512 -0.1934
   70POPC   NC3 1382   8.598   7.015   9.428 -0.2985  0.0700 -0.0286
   70POPC   PO4 1383   8.219   7.155   9.189  0.1899  0.1702  0.0710
   70POPC   GL1 1384   8.522   7.043   8.921 -0.1485  0.1045  0.1105
   70POPC   GL2 1385   8.447   6.787   8.976 -0.2824 -0.0486  0.3485
   70POPC   C1A 1386   8.971   7.155   8.737 -0.0440 -0.2608 -0.0348
   70POPC   D2A 1387   9.404   7.304   8.621 -0.0740 -0.0740  0.0943
   70POPC   C3A 1388   9.474   7.719   8.827  0.1604 -0.2814 -0.0485
   70POPC   C4A 1389   9.271   8.098   8.719 -0.2550 -0.1781 -0.0934
   70POPC   C1B 1390   8.704   6.749   8.605 -0.3353  0.1404 -0.5144
   70POPC   C2B 1391   8.912   6.515   8.298 -0.1505 -0.1981 -0.0992
   70POPC   C3B 1392   9.186   6.414   8.093 -0.0821  0.0207  0.0342
   70POPC   C4B 1393   9.405   6.350   7.745  0.0247  0.1102 -0.0920
   71POPC   NC3 1394   5.510   4.317   9.148  0.0911  0.2247 -0.2840
   71POPC   PO4 1395   5.280   4.344   8.866  0.0967 -0.2439 -0.2662
   71POPC   GL1 1396   5.311   4.701   8.728  0.0817 -0.1386  0.1104
   71POPC   GL2 1397   5.665   4.752   8.802  0.1037 -0.2408 -0.1270
   71POPC   C1A 1398   4.942   4.936   8.521 -0.1547  0.2254 -0.0189
   71POPC   D2A 1399   4.940   4.860   8.098  0.3069 -0.1095 -0.0284
   71POPC   C3A 1400   4.834   5.172   7.887 -0.1753  0.3141  0.1917
   71POPC   C4A 1401   4.480   5.342   7.650 -0.1634  0.1465 -0.3092
   71POPC   C1B 1402   5.813   4.594   8.439  0.0230 -0.4064  0.2742
   71POPC   C2B 1403   6.109   4.746   8.173  0.2101  0.1080  0.1373
   71POPC   C3B 1404   6.288   4.564   7.840 -0.0538 -0.3960  0.1563
   71POPC   C4B 1405   6.518   4.348   7.789 -0.1178  0.1402 -0.1096
   72POPC   NC3 1406   1.204   3.116   9.506 -0.4898 -0.2636  0.0629
   72POPC   PO4 1407   0.893   3.467   9.469 -0.3679  0.1237  0.0774
   72POPC   GL1 1408   0.751   3.429   8.990 -0.3524  0.1733 -0.0372
   72POPC   GL2 1409   0.568   3.168   8.847 -0.3206 -0.1205 -0.2518
   72POPC   C1A 1410   0.804   3.672   8.608  0.0139 -0.4482  0.1711
   72POPC   D2A 1411   0.865   3.669   8.102  0.0460  0.0160  0.5649
   72POPC   C3A 1412   0.589   3.525   7.739  0.1826 -0.0235 -0.1394
   72POPC   C4A 1413   0.778   3.630   7.358  0.2148  0.0338  0.1689
   72POPC   C1B 1414   0.445   2.888   8.528 -0.0900  0.1946  0.2607
   72POPC   C2B 1415   0.364   2.457   8.309 -0.0201 -0.0371  0.0807
   72POPC   C3B 1416   0.385   2.013   8.140 -0.2905  0.3606 -0.0113
   72POPC   C4B 1417   0.602   1.811   7.858 -0.1089 -0.3353  0.0410
   73POPC   NC3 1418   5.201  10.210   9.274 -0.1243 -0.1581  0.0462
   73POPC   PO4 1419   5.084   9.821   9.046  0.1163  0.1399 -0.1644
   73POPC   GL1 1420   5.156   9.760   8.601  0.0998 -0.1549 -0.0972
   73POPC   GL2 1421   5.448   9.872   8.610 -0.0199 -0.0397  0.1327
   73POPC   C1A 1422   4.913   9.642   8.176  0.1280 -0.2678 -0.0861
   73POPC   D2A 1423   4.734   9.781   7.723 -0.0400 -0.1716 -0.0141
   73POPC   C3A 1424   4.824   9.968   7.275 -0.2985  0.0231 -0.0682
   73POPC   C4A 1425   4.627  10.035   6.923  0.3170 -0.1638 -0.1080
   73POPC   C1B 1426   5.201  10.120   8.306 -0.1938 -0.1840 -0.2476
   73POPC   C2B 1427   4.996  10.184   7.871 -0.1178  0.0695  0.1111
   73POPC   C3B 1428   4.925  10.431   7.591  0.1404  0.1160  0.0292
   73POPC   C4B 1429   4.889  10.809   7.368 -0.0038 -0.0866  0.3032
   74POPC   NC3 1430   6.394   4.195   9.101 -0.2013 -0.0909 -0.2409
   74POPC   PO4 1431   6.498   3.847   8.903  0.1137  0.1293 -0.1705
   74POPC   GL1 1432   6.870   3.941   8.583 -0.0653  0.0752  0.1351
   74POPC   GL2 1433   7.245   3.966   8.530  0.0681  0.1854  0.0216
   74POPC   C1A 1434   6.834   3.678   8.223  0.1327  0.0311  0.4378
   74POPC   D2A 1435   6.919   3.483   7.760  0.1746  0.0192  0.3561
   74POPC   C3A 1436   7.219   3.266   7.602  0.0462 -0.0694  0.3517
   74POPC   C4A 1437   7.580   3.232   7.750  0.1097 -0.0953  0.2226
   74POPC   C1B 1438   7.421   4.158   8.103  0.0815  0.0338  0.0817
   74POPC   C2B 1439   7.554   4.207   7.747 -0.2558 -0.2594 -0.0820
   74POPC   C3B 1440   7.265   4.222   7.342 -0.1262  0.0569  0.0351
   74POPC   C4B 1441   6.894   4.491   7.383  0.3558 -0.1050  0.6443
   75POPC   NC3 1442   0.201   1.022   8.924 -0.1632  0.1430 -0.1289
   75POPC   PO4 1443   0.153   1.460   9.020 -0.2173  0.2351  0.3004
   75POPC   GL1 1444   0.066   1.461   8.606  0.0121  0.0250  0.1603
   75POPC   GL2 1445  -0.295   1.652   8.705 -0.0698 -0.0975  0.0719
   75POPC   C1A 1446   0.194   1.495   8.077  0.2628 -0.4452  0.0873
   75POPC   D2A 1447   0.560   1.300   7.835  0.1260 -0.2855 -0.1046
   75POPC   C3A 1448   0.634   0.928   7.559  0.3224 -0.1873 -0.0047
   75POPC   C4A 1449   0.269   0.657   7.419  0.2181  0.1261 -0.2751
   75POPC   C1B 1450  -0.064   1.885   8.351  0.0093  0.2190 -0.2706
   75POPC   C2B 1451  -0.117   1.943   7.947 -0.1037 -0.1949  0.0611
   75POPC   C3B 1452  -0.203   1.740   7.607  0.3418 -0.2097 -0.0320
   75POPC   C4B 1453  -0.337   1.319   7.278  0.4459 -0.2092  0.0593
   76POPC   NC3 1454   4.202   6.192   9.568  0.1490  0.3648 -0.1129
   76POPC   PO4 1455   4.395   5.732   9.578  0.1719 -0.1827 -0.0930
   76POPC   GL1 1456   4.153   5.862   9.185 -0.2621  0.1332  0.0024
   76POPC   GL2 1457   3.749   5.990   9.241 -0.2507  0.1029 -0.0845
   76POPC   C1A 1458   3.882   5.771   8.816 -0.1173  0.1358 -0.1977
   76POPC   D2A 1459   3.611   5.663   8.402  0.2740 -0.0796  0.1530
   76POPC   C3A 1460   3.654   5.669   7.971  0.0677  0.0729  0.0664
   76POPC   C4A 1461   3.688   5.525   7.668  0.3006  0.0387  0.0083
   76POPC   C1B 1462   3.597   6.263   8.945 -0.1599 -0.1066  0.1192
   76POPC   C2B 1463   3.379   6.289   8.552 -0.0393  0.2079  0.0327
   76POPC   C3B 1464   3.185   5.956   8.277 -0.0598 -0.2105 -0.1045
   76POPC   C4B 1465   3.236   5.512   8.016 -0.0575  0.3425 -0.1679
   77POPC   NC3 1466   2.604   0.674   8.815 -0.2188 -0.1261 -0.0983
   77POPC   PO4 1467   2.453   0.250   9.037  0.1052 -0.2757  0.0923
   77POPC   GL1 1468   2.591   0.046   8.658  0.3706 -0.3026  0.2569
   77POPC   GL2 1469   2.695   0.310   8.379 -0.2122 -0.1148  0.4325
   77POPC   C1A 1470   2.760  -0.097   8.159  0.0495  0.0531  0.0719
   77POPC   D2A 1471   2.705  -0.182   7.738  0.2605  0.3200 -0.3048
   77POPC   C3A 1472   3.121  -0.050   7.643 -0.0602 -0.0805  0.2757
   77POPC   C4A 1473   3.388   0.132   7.908  0.0596 -0.1845 -0.1067
   77POPC   C1B 1474   2.922   0.447   8.012 -0.0575 -0.0674 -0.0864
   77POPC   C2B 1475   3.109   0.429   7.624  0.2697 -0.0759 -0.2196
   77POPC   C3B 1476   3.161   0.273   7.179 -0.2910  0.0615 -0.1131
   77POPC   C4B 1477   3.314  -0.082   7.057  0.0446 -0.2861  0.0205
   78POPC   NC3 1478   4.677   9.528   9.012 -0.0530 -0.0278  0.1871
   78POPC   PO4 1479   4.372   9.330   8.762 -0.0762  0.2410  0.1985
   78POPC   GL1 1480   4.215   9.342   8.356 -0.0039 -0.2105 -0.1436
   78POPC   GL2 1481   4.082   9.057   8.209  0.1076  0.1063 -0.1340
   78POPC   C1A 1482   3.908   9.511   7.945  0.1037 -0.1716 -0.2666
   78POPC   D2A 1483   3.792   9.377   7.533 -0.2488  0.0765 -0.1000
   78POPC   C3A 1484   3.838   9.438   7.171 -0.0878 -0.0657 -0.1718
   78POPC   C4A 1485   3.861   9.465   6.773 -0.0052 -0.0180 -0.1091
   78POPC   C1B 1486   4.100   9.087   7.829 -0.0713  0.0451  0.1875
   78POPC   C2B 1487   4.312   9.539   7.648  0.2314  0.1676  0.0681
   78POPC   C3B 1488   4.354   9.748   7.336 -0.0774 -0.2647 -0.1745
   78POPC   C4B 1489   4.332  10.202   7.362  0.0804 -0.0134 -0.2519
   79POPC   NC3 1490   2.003   9.783   9.406  0.3481  0.5196  0.0025
   79POPC   PO4 1491   2.072   9.786   8.965  0.1238 -0.0008 -0.1135
   79POPC   GL1 1492   2.122   9.535   8.463  0.3602  0.1532 -0.1366
   79POPC   GL2 1493   2.283   9.782   8.442 -0.0334 -0.2742  0.0826
   79POPC   C1A 1494   1.972   9.386   8.121  0.0526  0.0711  0.4392
   79POPC   D2A 1495   2.242   9.106   7.826  0.0108  0.0115 -0.2686
   79POPC   C3A 1496   2.640   8.975   7.818  0.2410  0.0800  0.0059
   79POPC   C4A 1497   3.114   8.976   7.728  0.3101  0.0879  0.4345
   79POPC   C1B 1498   2.365  10.001   7.989 -0.2822 -0.1991 -0.0305
   79POPC   C2B 1499   2.146  10.210   7.593 -0.0063  0.1882 -0.0245
   79POPC   C3B 1500   2.071  10.595   7.381 -0.0362 -0.0914 -0.1466
   79POPC   C4B 1501   2.210  11.007   7.192  0.0695  0.1311 -0.0896
   80POPC   NC3 1502   1.746   4.759   9.387  0.0764 -0.2280 -0.0842
   80POPC   PO4 1503   2.024   5.128   9.515  0.1287  0.2420  0.1116
   80POPC   GL1 1504   2.090   5.121   9.070  0.0422  0.2526 -0.1795
   80POPC   GL2 1505   1.679   5.050   8.914  0.1019 -0.3670  0.3264
   80POPC   C1A 1506   2.077   5.214   8.573 -0.1512  0.0513  0.1731
   80POPC   D2A 1507   2.121   4.979   8.135  0.1662 -0.0489  0.3127
   80POPC   C3A 1508   2.233   4.525   8.105 -0.0790  0.0750  0.3572
   80POPC   C4A 1509   2.301   4.140   7.960 -0.1202 -0.1384 -0.0435
   80POPC   C1B 1510   1.956   4.680   8.799 -0.0186 -0.1020 -0.0840
   80POPC   C2B 1511   2.273   4.428   8.577 -0.4046  0.2262 -0.0479
   80POPC   C3B 1512   2.647   4.286   8.368 -0.0414 -0.0296  0.0343
   80POPC   C4B 1513   2.839   4.157   7.931 -0.3490  0.0721 -0.1661
   81POPC   NC3 1514   5.930   7.796   9.083  0.2414  0.2600  0.0959
   81POPC   PO4 1515   5.639   7.957   9.303 -0.2997 -0.3753 -0.2401
   81POPC   GL1 1516   5.481   7.982   8.909  0.3403 -0.1134  0.1678
   81POPC   GL2 1517   5.296   7.998   8.658 -0.2491  0.4618  0.1198
   81POPC   C1A 1518   5.749   7.966   8.502  0.0426  0.0259  0.3082
   81POPC   D2A 1519   6.057   8.241   8.236  0.1249  0.3458  0.3163
   81POPC   C3A 1520   6.080   8.581   7.980  0.1343  0.0446  0.0739
   81POPC   C4A 1521   5.899   8.564   7.589  0.2864  0.0660 -0.1979
   81POPC   C1B 1522   5.355   7.853   8.180  0.2509  0.0305 -0.1278
   81POPC   C2B 1523   5.151   7.942   7.853 -0.1159  0.2602 -0.1396
   81POPC   C3B 1524   5.074   7.978   7.351  0.2841  0.0675  0.0938
   81POPC   C4B 1525   5.187   8.324   7.154  0.1895  0.1315 -0.1893
   82POPC   NC3 1526   8.412   1.094   9.664  0.1143 -0.0771  0.1900
   82POPC   PO4 1527   8.265   1.199   9.196 -0.1158 -0.0406  0.3149
   82POPC   GL1 1528   8.233   1.104   8.759  0.2817 -0.1914 -0.0118
   82POPC   GL2 1529   8.390   1.292   8.521 -0.1796  0.1263  0.0828
   82POPC   C1A 1530   7.895   0.957   8.463 -0.0014  0.1870  0.0017
   82POPC   D2A 1531   7.748   0.526   8.454 -0.1374 -0.0438  0.1012
   82POPC   C3A 1532   7.843   0.225   8.142  0.0333  0.0395  0.2255
   82POPC   C4A 1533   7.897   0.220   7.674 -0.0104 -0.4433 -0.1153
   82POPC   C1B 1534   8.266   1.085   8.059  0.2268 -0.1178 -0.1028
   82POPC   C2B 1535   8.030   1.166   7.723  0.1756 -0.1521  0.1213
   82POPC   C3B 1536   7.909   1.126   7.220  0.0304  0.0802  0.0065
   82POPC   C4B 1537   8.075   1.068   6.765  0.2302  0.0667  0.0161
   83POPC   NC3 1538   3.148   2.706   9.141 -0.0082  0.0017 -0.1012
   83POPC   PO4 1539   2.853   2.901   9.410  0.0293 -0.1874  0.0849
   83POPC   GL1 1540   2.673   2.653   8.981 -0.1621 -0.0977  0.0815
   83POPC   GL2 1541   2.656   2.888   8.839  0.2112 -0.1864  0.0526
   83POPC   C1A 1542   2.674   2.369   8.626  0.2930 -0.3147 -0.0868
   83POPC   D2A 1543   2.895   2.391   8.301 -0.0474  0.0421 -0.1585
   83POPC   C3A 1544   2.823   2.341   7.807  0.0734  0.0347  0.2458
   83POPC   C4A 1545   2.974   2.292   7.479  0.0262  0.0139  0.1822
   83POPC   C1B 1546   2.739   2.836   8.404  0.0301 -0.0588 -0.3047
   83POPC   C2B 1547   2.597   2.668   8.091 -0.0870  0.2908  0.1290
   83POPC   C3B 1548   2.500   2.756   7.657 -0.0382  0.1560  0.0261
   83POPC   C4B 1549   2.306   2.966   7.312  0.0192 -0.4435  0.0235
   84POPC   NC3 1550   4.288   7.545   9.877  0.0092 -0.0911  0.0077
   84POPC   PO4 1551   4.473   7.634   9.532  0.0446  0.0895  0.1741
   84POPC   GL1 1552   4.334   7.544   9.142 -0.0722 -0.0721 -0.1035
   84POPC   GL2 1553   4.110   7.346   9.359  0.0568  0.6279  0.3482
   84POPC   C1A 1554   4.160   7.375   8.804 -0.3164  0.0110 -0.3035
   84POPC   D2A 1555   3.877   7.109   8.597 -0.1395  0.1183 -0.0907
   84POPC   C3A 1556   3.470   7.369   8.358  0.2474 -0.1069 -0.0665
   84POPC   C4A 1557   3.111   7.506   8.095 -0.3414 -0.0180  0.0511
   84POPC   C1B 1558   3.813   6.996   9.079 -0.0043 -0.0470  0.1787
   84POPC   C2B 1559   3.493   6.813   8.902 -0.3655  0.1557 -0.2996
   84POPC   C3B 1560   3.067   6.672   8.742  0.3100 -0.1183  0.0811
   84POPC   C4B 1561   2.731   6.531   8.377  0.0170  0.1974  0.0664
   85POPC   NC3 1562   0.454   7.964   8.856  0.1751 -0.4185  0.0039
   85POPC   PO4 1563   0.855   7.820   8.953  0.2037  0.1609 -0.0167
   85POPC   GL1 1564   0.705   7.998   8.480 -0.1711  0.0779 -0.1781
   85POPC   GL2 1565   0.824   7.976   8.272  0.0010 -0.0931  0.1017
   85POPC   C1A 1566   0.264   7.960   8.148 -0.0305  0.0688 -0.3709
   85POPC   D2A 1567   0.074   8.319   7.901 -0.1684  0.2657 -0.1972
   85POPC   C3A 1568   0.082   8.579   7.465 -0.2297  0.3083 -0.2263
   85POPC   C4A 1569  -0.079   8.709   7.043 -0.2321  0.1436 -0.0143
   85POPC   C1B 1570   0.823   8.040   7.837  0.3793 -0.0491  0.0799
   85POPC   C2B 1571   0.576   8.430   7.612  0.0641 -0.0625  0.0677
   85POPC   C3B 1572   0.461   8.257   7.207 -0.0528  0.0962 -0.2970
   85POPC   C4B 1573   0.355   7.804   7.062 -0.1317 -0.1127  0.2248
   86POPC   NC3 1574   3.712   6.878  10.026 -0.1605  0.1622 -0.2684
   86POPC   PO4 1575   4.009   6.663   9.848 -0.0213 -0.0930 -0.3237
   86POPC   GL1 1576   4.103   6.695   9.414  0.1739  0.0836  0.2390
   86POPC   GL2 1577   4.380   6.927   9.170  0.1793  0.3061  0.0218
   86POPC   C1A 1578   4.050   6.458   8.922 -0.3717  0.2250  0.0556
   86POPC   D2A 1579   3.879   6.261   8.522 -0.1207 -0.0251 -0.1476
   86POPC   C3A 1580   4.057   5.908   8.228  0.2179  0.0750  0.1358
   86POPC   C4A 1581   4.312   5.724   8.021  0.1057 -0.1530 -0.0967
   86POPC   C1B 1582   4.226   6.889   8.803  0.0784 -0.2438  0.0204
   86POPC   C2B 1583   4.233   6.623   8.452  0.1553  0.1979 -0.2442
   86POPC   C3B 1584   4.008   6.485   8.066  0.4913  0.1287 -0.1677
   86POPC   C4B 1585   3.649   6.689   7.846  0.0970  0.1259  0.1971
   87POPC   NC3 1586   0.718   5.659   9.607 -0.1522  0.0565 -0.2421
   87POPC   PO4 1587   0.917   5.458   9.317  0.2869  0.0354 -0.2435
   87POPC   GL1 1588   0.558   5.637   9.043  0.0614  0.0721  0.1321
   87POPC   GL2 1589   0.562   5.966   9.240 -0.1842 -0.0513  0.0016
   87POPC   C1A 1590   0.262   5.594   8.685 -0.0604 -0.0635  0.0446
   87POPC   D2A 1591   0.308   5.414   8.241  0.3122 -0.1214 -0.1974
   87POPC   C3A 1592  -0.113   5.424   8.094  0.2184 -0.2632 -0.2598
   87POPC   C4A 1593  -0.467   5.343   7.858 -0.0276  0.2271 -0.1955
   87POPC   C1B 1594   0.687   6.212   8.770  0.2865  0.3202 -0.2720
   87POPC   C2B 1595   0.327   6.201   8.447 -0.0458  0.4061 -0.0481
   87POPC   C3B 1596  -0.006   5.932   8.417 -0.1035  0.2326  0.0646
   87POPC   C4B 1597  -0.435   5.779   8.373 -0.0400 -0.1154 -0.0174
   88POPC   NC3 1598   3.034   8.064   9.364  0.0469 -0.0424  0.1673
   88POPC   PO4 1599   3.312   8.363   9.137 -0.0310 -0.1014  0.2481
   88POPC   GL1 1600   3.425   8.353   8.685 -0.0758 -0.4148 -0.0660
   88POPC   GL2 1601   3.165   8.369   8.384 -0.2480 -0.1417  0.1988
   88POPC   C1A 1602   3.716   8.342   8.364 -0.2217  0.0691  0.1947
   88POPC   D2A 1603   3.789   8.155   7.891 -0.0124  0.2951  0.1078
   88POPC   C3A 1604   3.577   8.411   7.567 -0.0084  0.0297  0.0726
   88POPC   C4A 1605   3.330   8.628   7.249  0.0557 -0.0404 -0.2228
   88POPC   C1B 1606   3.341   8.641   8.034 -0.2225  0.1599  0.1360
   88POPC   C2B 1607   3.836   8.669   7.906  0.1273  0.0711 -0.1047
   88POPC   C3B 1608   4.052   8.643   7.487 -0.1260  0.0826 -0.1675
   88POPC   C4B 1609   4.362   8.619   7.248  0.1005  0.0337  0.1491
   89POPC   NC3 1610   1.834   2.287   9.586 -0.2954 -0.1006  0.0731
   89POPC   PO4 1611   2.171   2.226   9.275 -0.0645  0.2333  0.0193
   89POPC   GL1 1612   2.165   2.349   8.952 -0.1541  0.1325 -0.2073
   89POPC   GL2 1613   2.030   2.086   8.755 -0.1531 -0.2715 -0.0924
   89POPC   C1A 1614   2.226   2.693   8.572  0.5530  0.3097  0.1291
   89POPC   D2A 1615   2.284   3.068   8.228  0.0557  0.4113 -0.0661
   89POPC   C3A 1616   2.378   3.271   7.823 -0.2719  0.3373  0.3113
   89POPC   C4A 1617   2.750   3.241   7.481  0.3693  0.2045 -0.0095
   89POPC   C1B 1618   1.963   2.038   8.303  0.0406  0.3779  0.1269
   89POPC   C2B 1619   1.569   1.969   8.109  0.1528 -0.2345 -0.1137
   89POPC   C3B 1620   1.193   2.183   7.862  0.0730 -0.1911  0.0631
   89POPC   C4B 1621   1.025   1.952   7.463  0.0114 -0.0783 -0.1056
   90POPC   NC3 1622   7.214   4.632   9.356 -0.0033 -0.0924 -0.0536
   90POPC   PO4 1623   6.857   4.422   9.184  0.3944  0.2615 -0.4066
   90POPC   GL1 1624   6.732   4.520   8.656 -0.0386  0.3081 -0.0349
   90POPC   GL2 1625   6.835   4.887   8.594  0.1464  0.3279 -0.1178
   90POPC   C1A 1626   6.914   4.322   8.261  0.3945  0.0328  0.2311
   90POPC   D2A 1627   6.998   4.241   7.843 -0.1837  0.1274 -0.0740
   90POPC   C3A 1628   6.759   4.003   7.528  0.5937 -0.3904 -0.1608
   90POPC   C4A 1629   6.861   3.736   7.298  0.0642 -0.2103 -0.2587
   90POPC   C1B 1630   7.183   4.780   8.299  0.0682  0.1523 -0.2958
   90POPC   C2B 1631   7.261   4.634   7.862 -0.3173 -0.0139  0.0262
   90POPC   C3B 1632   7.653   4.745   7.640  0.0172  0.0500 -0.0810
   90POPC   C4B 1633   7.915   4.514   7.474  0.1693 -0.1675 -0.1597
   91POPC   NC3 1634   0.840   9.292   9.582  0.1804 -0.0170  0.0924
   91POPC   PO4 1635   1.197   9.260   9.284  0.0812 -0.2535  0.0097
   91POPC   GL1 1636   1.288   9.488   8.863  0.1267  0.0309 -0.2629
   91POPC   GL2 1637   1.556   9.478   8.621 -0.2193 -0.0667 -0.0320
   91POPC   C1A 1638   1.143   9.710   8.450  0.3120  0.0545 -0.2157
   91POPC   D2A 1639   1.225   9.645   8.007 -0.2684  0.0335 -0.0822
   91POPC   C3A 1640   1.418   9.367   7.786  0.1130  0.2813 -0.1742
   91POPC   C4A 1641   1.270   8.863   7.606 -0.0139 -0.0522 -0.2253
   91POPC   C1B 1642   1.483   9.239   8.310 -0.0876  0.1400  0.2273
   91POPC   C2B 1643   1.272   8.942   8.168  0.0974  0.0745  0.3401
   91POPC   C3B 1644   1.037   8.545   7.951 -0.2471  0.1567  0.0293
   91POPC   C4B 1645   1.070   8.445   7.456  0.0626  0.0445 -0.0852
   92POPC   NC3 1646   4.384   4.076   9.461  0.2849  0.0094  0.0121
   92POPC   PO4 1647   3.976   4.010   9.266 -0.0540 -0.0880 -0.1917
   92POPC   GL1 1648   4.228   4.135   8.944  0.1715 -0.4580  0.0906
   92POPC   GL2 1649   4.245   4.414   8.913  0.1304 -0.0602 -0.1036
   92POPC   C1A 1650   4.269   4.290   8.468  0.1188 -0.0596 -0.1834
   92POPC   D2A 1651   4.259   4.064   8.128 -0.2044  0.1880 -0.2822
   92POPC   C3A 1652   4.212   4.334   7.743 -0.0806 -0.3960  0.0863
   92POPC   C4A 1653   4.386   4.494   7.555 -0.1895  0.2392 -0.0416
   92POPC   C1B 1654   4.425   4.773   8.651 -0.3274  0.2220  0.0948
   92POPC   C2B 1655   4.450   4.824   8.316 -0.3058 -0.1912 -0.1887
   92POPC   C3B 1656   4.513   5.268   8.254 -0.1256  0.2220  0.0163
   92POPC   C4B 1657   4.529   5.711   8.505  0.1781  0.0131 -0.0020
   93POPC   NC3 1658   9.896   6.759  10.302  0.1846  0.2810  0.0255
   93POPC   PO4 1659   9.990   6.933   9.906  0.0604 -0.2331 -0.1698
   93POPC   GL1 1660   9.848   6.976   9.392  0.1608  0.0619 -0.2399
   93POPC   GL2 1661   9.975   6.617   9.396 -0.0239  0.0216 -0.1160
   93POPC   C1A 1662   9.702   7.039   8.948 -0.0177 -0.1812 -0.0490
   93POPC   D2A 1663   9.441   6.719   8.696 -0.1308  0.1475  0.0249
   93POPC   C3A 1664   9.219   6.957   8.360 -0.0215 -0.1483 -0.0150
   93POPC   C4A 1665   8.840   7.023   8.063  0.1853 -0.2301  0.1332
   93POPC   C1B 1666   9.941   6.545   8.880 -0.0033  0.0011  0.0301
   93POPC   C2B 1667   9.934   6.758   8.585 -0.1070  0.2939 -0.1416
   93POPC   C3B 1668   9.895   7.084   8.445  0.0591 -0.2497 -0.1216
   93POPC   C4B 1669  10.085   7.488   8.311 -0.1079  0.0004  0.0844
   94POPC   NC3 1670   6.856  10.144   9.329  0.3642  0.2871  0.0240
   94POPC   PO4 1671   7.284  10.211   9.141  0.0600  0.3282 -0.1693
   94POPC   GL1 1672   7.291  10.220   8.691  0.1899  0.3860  0.1329
   94POPC   GL2 1673   7.405  10.481   8.550 -0.0795 -0.1005  0.0184
   94POPC   C1A 1674   7.124  10.065   8.269 -0.0351 -0.0668 -0.2330
   94POPC   D2A 1675   7.070  10.159   7.830  0.1448  0.1942  0.0923
   94POPC   C3A 1676   7.060  10.448   7.470  0.1143 -0.1844 -0.2118
   94POPC   C4A 1677   7.023  10.574   7.060  0.0675 -0.0143 -0.2096
   94POPC   C1B 1678   7.445  10.367   8.095 -0.2860  0.0459 -0.2484
   94POPC   C2B 1679   7.509  10.166   7.762 -0.0333 -0.0762  0.0024
   94POPC   C3B 1680   7.385  10.010   7.402 -0.1264  0.0608 -0.1005
   94POPC   C4B 1681   7.178  10.036   7.019 -0.2177  0.0681  0.0346
   95POPC   NC3 1682   1.318   9.691   9.469  0.0549  0.3475  0.3547
   95POPC   PO4 1683   1.585   9.859   9.130 -0.1335 -0.2448  0.2507
   95POPC   GL1 1684   1.690  10.032   8.680 -0.1231 -0.0245 -0.1828
   95POPC   GL2 1685   1.340  10.168   8.439 -0.0465 -0.2314 -0.0102
   95POPC   C1A 1686   1.781   9.856   8.351  0.0288 -0.1327  0.3594
   95POPC   D2A 1687   1.727   9.835   7.916  0.1990 -0.1857 -0.0076
   95POPC   C3A 1688   2.078   9.662   7.654  0.3107  0.1265  0.1689
   95POPC   C4A 1689   2.312   9.364   7.415  0.2376  0.1886  0.1359
   95POPC   C1B 1690   1.251  10.157   8.029  0.0606 -0.0654 -0.3380
   95POPC   C2B 1691   1.223   9.988   7.624 -0.0164  0.3495  0.1424
   95POPC   C3B 1692   1.197  10.146   7.158  0.2859  0.3060 -0.0912
   95POPC   C4B 1693   1.224   9.951   6.742  0.0858  0.0336 -0.0132
   96POPC   NC3 1694   6.070   9.061   9.493 -0.0309  0.3385 -0.0643
   96POPC   PO4 1695   6.195   8.756   9.132 -0.1297  0.1768  0.1898
   96POPC   GL1 1696   6.276   8.863   8.585  0.0549 -0.1679  0.1381
   96POPC   GL2 1697   5.979   8.940   8.405 -0.2189 -0.0027 -0.0538
   96POPC   C1A 1698   6.500   8.727   8.294 -0.2274 -0.2299  0.3802
   96POPC   D2A 1699   6.597   8.670   7.823  0.0348  0.0497 -0.1339
   96POPC   C3A 1700   6.597   8.690   7.373 -0.2666 -0.0114 -0.0391
   96POPC   C4A 1701   6.521   8.433   7.000  0.0080 -0.1488  0.0919
   96POPC   C1B 1702   5.974   9.026   7.915 -0.0925 -0.0526  0.3819
   96POPC   C2B 1703   6.325   9.054   7.562  0.0808 -0.2888 -0.2585
   96POPC   C3B 1704   6.484   9.204   7.125  0.1140  0.0518  0.0241
   96POPC   C4B 1705   6.578   9.615   6.980  0.0736  0.0060  0.0892
   97POPC   NC3 1706   7.495   3.352   8.930  0.1493  0.1790  0.0932
   97POPC   PO4 1707   7.891   3.062   8.973 -0.1538  0.0386  0.0868
   97POPC   GL1 1708   7.797   3.113   8.480 -0.0296 -0.1969  0.0890
   97POPC   GL2 1709   7.517   3.025   8.360 -0.0540 -0.0440  0.3442
   97POPC   C1A 1710   7.943   3.138   8.030  0.2549  0.1880 -0.2354
   97POPC   D2A 1711   8.400   3.046   8.080  0.1706  0.0945 -0.0678
   97POPC   C3A 1712   8.820   3.088   8.001  0.0871  0.2850  0.1861
   97POPC   C4A 1713   8.815   2.925   7.629  0.3142 -0.3080  0.3195
   97POPC   C1B 1714   7.362   2.748   7.963  0.1019 -0.1053  0.1015
   97POPC   C2B 1715   7.167   2.756   7.589 -0.2688 -0.1198  0.2915
   97POPC   C3B 1716   6.919   2.752   7.190  0.6305 -0.3795 -0.2197
   97POPC   C4B 1717   6.919   2.803   6.686 -0.1609  0.0302 -0.1003
   98POPC   NC3 1718   8.471  10.115   9.428  0.0362  0.2774 -0.0204
   98POPC   PO4 1719   8.873   9.937   9.096 -0.1550  0.1167 -0.2116
   98POPC   GL1 1720   8.919   9.858   8.684 -0.1673 -0.1885 -0.1448
   98POPC   GL2 1721   9.145   9.912   8.639 -0.0902  0.1054  0.2478
   98POPC   C1A 1722   8.708   9.881   8.282  0.1116 -0.0528 -0.3063
   98POPC   D2A 1723   8.440  10.015   7.935 -0.0690  0.0015  0.2773
   98POPC   C3A 1724   8.226   9.724   7.635 -0.0537  0.0638  0.1494
   98POPC   C4A 1725   7.885   9.555   7.400  0.1255  0.2939 -0.0174
   98POPC   C1B 1726   9.370  10.282   8.380  0.0605  0.2615  0.3955
   98POPC   C2B 1727   9.396  10.168   7.945  0.2930 -0.3148  0.2750
   98POPC   C3B 1728   9.290  10.027   7.511  0.0736  0.0765  0.2923
   98POPC   C4B 1729   9.006  10.163   7.087  0.0053 -0.2032 -0.6265
   99POPC   NC3 1730   5.793   8.995   8.969 -0.1676  0.0725 -0.3950
   99POPC   PO4 1731   5.477   9.017   8.740  0.0258  0.0083 -0.2624
   99POPC   GL1 1732   5.417   8.852   8.243 -0.2298 -0.1683 -0.1264
   99POPC   GL2 1733   5.508   8.672   8.283 -0.1634 -0.0971 -0.0133
   99POPC   C1A 1734   5.500   8.737   7.802  0.5627 -0.1534  0.1493
   99POPC   D2A 1735   5.377   8.874   7.406  0.2475 -0.0699 -0.1421
   99POPC   C3A 1736   5.400   9.334   7.428  0.1193  0.1613 -0.0022
   99POPC   C4A 1737   5.197   9.631   7.590  0.0137 -0.0003 -0.0463
   99POPC   C1B 1738   5.615   8.323   7.993  0.0641  0.0565 -0.0744
   99POPC   C2B 1739   5.566   8.186   7.584  0.0016 -0.0762 -0.0711
   99POPC   C3B 1740   5.717   8.329   7.153  0.3356 -0.1281  0.0689
   99POPC   C4B 1741   5.531   8.628   6.829  0.2153  0.2171  0.2322
  100POPC   NC3 1742   8.534   4.293   9.517 -0.3359 -0.2587  0.0752
  100POPC   PO4 1743   8.545   4.193   9.121 -0.1644  0.0708 -0.4315
  100POPC   GL1 1744   8.703   4.242   8.701 -0.2229  0.0176 -0.0713
  100POPC   GL2 1745   8.394   4.173   8.504 -0.0505  0.2057 -0.1076
  100POPC   C1A 1746   8.868   4.205   8.289  0.0741 -0.1905  0.1547
  100POPC   D2A 1747   8.948   4.331   7.753 -0.1549 -0.3966 -0.0990
  100POPC   C3A 1748   8.812   4.006   7.508 -0.1875  0.0722 -0.2288
  100POPC   C4A 1749   8.473   3.756   7.411  0.1486  0.2134 -0.0644
  100POPC   C1B 1750   8.471   4.529   8.075  0.1199  0.2231  0.4694
  100POPC   C2B 1751   8.443   4.613   7.678  0.0015  0.1907 -0.2375
  100POPC   C3B 1752   8.716   4.766   7.337  0.1223  0.2533 -0.0348
  100POPC   C4B 1753   9.057   5.062   7.192  0.2510  0.1024 -0.0134
  101POPC   NC3 1754   3.456   4.762  10.421  0.6517  0.2318 -0.0193
  101POPC   PO4 1755   3.399   4.525  10.078 -0.1793 -0.3157  0.0624
  101POPC   GL1 1756   3.419   4.851   9.768  0.3036 -0.1364  0.3377
  101POPC   GL2 1757   3.347   4.694   9.490  0.0578 -0.0910 -0.2905
  101POPC   C1A 1758   3.697   5.171   9.673  0.0305  0.0765 -0.3924
  101POPC   D2A 1759   4.056   5.074   9.370  0.2812  0.1159  0.1128
  101POPC   C3A 1760   3.997   4.923   8.921 -0.1889 -0.0543  0.2710
  101POPC   C4A 1761   3.880   4.633   8.663 -0.3045 -0.1777 -0.1130
  101POPC   C1B 1762   3.023   4.684   9.141 -0.1005 -0.0150  0.0098
  101POPC   C2B 1763   2.933   4.532   8.699  0.5825  0.2074 -0.0344
  101POPC   C3B 1764   3.024   4.661   8.334 -0.2405  0.1416  0.0736
  101POPC   C4B 1765   3.011   5.149   8.189 -0.0023 -0.2220  0.1290
  102POPC   NC3 1766   9.799   8.288   9.433  0.2660 -0.0182  0.0092
  102POPC   PO4 1767  10.042   7.993   9.182  0.1795 -0.0288 -0.2329
  102POPC   GL1 1768   9.848   8.168   8.852  0.0331  0.0563 -0.1152
  102POPC   GL2 1769  10.053   8.180   8.664  0.1160  0.2254 -0.1291
  102POPC   C1A 1770   9.617   8.310   8.436 -0.0996 -0.2274  0.1546
  102POPC   D2A 1771   9.436   8.733   8.143  0.0402 -0.0090  0.2144
  102POPC   C3A 1772   9.283   8.561   7.895  0.4565 -0.1016  0.0124
  102POPC   C4A 1773   9.311   8.402   7.507 -0.1542 -0.3739  0.2371
  102POPC   C1B 1774   9.787   7.832   8.466  0.2336 -0.2355  0.0274
  102POPC   C2B 1775   9.602   7.501   8.228  0.2430  0.0367  0.0919
  102POPC   C3B 1776   9.683   7.167   8.002 -0.1599  0.1314  0.0419
  102POPC   C4B 1777   9.641   6.688   8.118  0.1505  0.0748 -0.0656
  103POPC   NC3 1778   0.167   3.271   9.068 -0.0724  0.0034  0.4301
  103POPC   PO4 1779  -0.283   3.328   9.067 -0.0253  0.3309  0.0666
  103POPC   GL1 1780  -0.286   3.291   8.661  0.2044 -0.1572  0.5830
  103POPC   GL2 1781  -0.611   3.176   8.468 -0.3915  0.0540 -0.1404
  103POPC   C1A 1782  -0.166   3.258   8.333  0.1196  0.0723  0.2847
  103POPC   D2A 1783   0.179   3.202   7.975 -0.2414 -0.4070 -0.0081
  103POPC   C3A 1784   0.456   2.885   7.828 -0.3140  0.1540  0.1102
  103POPC   C4A 1785   0.270   2.561   7.537 -0.1579  0.2966  0.1057
  103POPC   C1B 1786  -0.635   3.144   8.049 -0.2270 -0.0932 -0.1018
  103POPC   C2B 1787  -0.488   3.276   7.648  0.0991  0.1195  0.0698
  103POPC   C3B 1788  -0.285   3.272   7.244 -0.1380  0.1045 -0.1773
  103POPC   C4B 1789  -0.025   3.335   6.955 -0.0023  0.0200 -0.1031
  104POPC   NC3 1790   3.910   0.852   9.420 -0.2778  0.1662 -0.2388
  104POPC   PO4 1791   3.833   0.926   8.969 -0.1299 -0.1492  0.1088
  104POPC   GL1 1792   3.687   1.088   8.540 -0.0001  0.1570  0.0845
  104POPC   GL2 1793   3.424   1.001   8.402  0.0692 -0.0008  0.0219
  104POPC   C1A 1794   3.776   1.149   8.025  0.1941  0.0220  0.4241
  104POPC   D2A 1795   3.553   1.016   7.558 -0.2118  0.3205 -0.2462
  104POPC   C3A 1796   3.846   0.699   7.193  0.0450 -0.2247 -0.1889
  104POPC   C4A 1797   4.015   0.562   6.822  0.1722  0.1581 -0.2499
  104POPC   C1B 1798   3.222   0.898   8.029  0.1988 -0.0865  0.0966
  104POPC   C2B 1799   3.098   1.016   7.634 -0.1905  0.0892 -0.0947
  104POPC   C3B 1800   2.849   0.751   7.339 -0.2588  0.0837  0.2645
  104POPC   C4B 1801   2.684   0.585   6.959  0.2650 -0.1331 -0.2007
  105POPC   NC3 1802   4.308   8.090   9.409 -0.0494 -0.0203  0.1091
  105POPC   PO4 1803   4.357   8.061   8.977 -0.0966  0.0986 -0.0490
  105POPC   GL1 1804   4.410   7.788   8.660  0.2751 -0.1339 -0.0119
  105POPC   GL2 1805   4.601   7.530   8.691 -0.1797  0.0389 -0.3103
  105POPC   C1A 1806   4.579   7.708   8.176  0.1395  0.1496 -0.0549
  105POPC   D2A 1807   4.707   7.730   7.711 -0.1241  0.2660 -0.1879
  105POPC   C3A 1808   4.423   7.534   7.397  0.1220  0.0537  0.1097
  105POPC   C4A 1809   4.437   7.137   7.357 -0.3802  0.0697  0.0470
  105POPC   C1B 1810   4.591   7.249   8.438  0.0293 -0.1305 -0.2291
  105POPC   C2B 1811   4.228   7.069   8.269 -0.0504 -0.1896  0.3935
  105POPC   C3B 1812   3.911   7.041   8.046  0.1383  0.1771  0.2801
  105POPC   C4B 1813   3.594   7.197   7.882 -0.2367 -0.2609 -0.2730
  106POPC   NC3 1814   8.325   0.652   9.342  0.3437  0.1645 -0.3182
  106POPC   PO4 1815   8.821   0.533   9.403  0.1759  0.2915  0.1383
  106POPC   GL1 1816   8.689   0.440   8.882  0.0437 -0.2151  0.1473
  106POPC   GL2 1817   8.612   0.701   8.750 -0.2080 -0.0175  0.2438
  106POPC   C1A 1818   8.684   0.365   8.424 -0.2915  0.0935 -0.1005
  106POPC   D2A 1819   8.821   0.446   7.999 -0.2776  0.3860 -0.0223
  106POPC   C3A 1820   9.029   0.506   7.761 -0.1540  0.0379 -0.2080
  106POPC   C4A 1821   9.389   0.763   7.793  0.1173 -0.3351  0.0688
  106POPC   C1B 1822   8.698   0.872   8.352  0.2934  0.0553  0.1333
  106POPC   C2B 1823   8.674   0.894   7.861  0.4768 -0.1218 -0.3481
  106POPC   C3B 1824   8.919   1.076   7.596 -0.1267  0.1469 -0.1174
  106POPC   C4B 1825   8.974   1.474   7.482 -0.1248  0.1610 -0.0478
  107POPC   NC3 1826   6.056   5.132   8.998 -0.1929 -0.2449  0.1584
  107POPC   PO4 1827   6.504   5.159   8.878  0.1695 -0.1292  0.1105
  107POPC   GL1 1828   6.368   4.869   8.539 -0.0560 -0.0637  0.2008
  107POPC   GL2 1829   6.259   4.523   8.709 -0.3116 -0.3651 -0.2576
  107POPC   C1A 1830   6.648   4.741   8.159  0.1002 -0.0794  0.1426
  107POPC   D2A 1831   6.769   4.817   7.751  0.1306  0.0816 -0.3299
  107POPC   C3A 1832   6.722   5.189   7.604  0.0587 -0.3719  0.1224
  107POPC   C4A 1833   6.645   5.601   7.545  0.0790 -0.1177  0.1513
  107POPC   C1B 1834   6.369   4.350   8.331  0.3096 -0.0642 -0.2856
  107POPC   C2B 1835   6.432   3.952   8.263  0.1126 -0.1572 -0.0422
  107POPC   C3B 1836   6.478   3.745   7.849  0.0141  0.1968 -0.1132
  107POPC   C4B 1837   6.383   3.721   7.397  0.0601 -0.0347  0.1012
  108POPC   NC3 1838   4.995   7.556   9.500  0.2016  0.0135  0.1778
  108POPC   PO4 1839   5.101   7.650   9.015  0.1447 -0.0384  0.1371
  108POPC   GL1 1840   5.191   7.486   8.703 -0.2156 -0.0541  0.0247
  108POPC   GL2 1841   5.045   7.568   8.454  0.3018 -0.1567  0.3901
  108POPC   C1A 1842   5.459   7.386   8.322 -0.4613 -0.2080  0.2605
  108POPC   D2A 1843   5.668   7.592   7.957 -0.1005 -0.0353 -0.0711
  108POPC   C3A 1844   5.470   7.618   7.561 -0.1782 -0.0466 -0.1224
  108POPC   C4A 1845   5.528   7.405   7.256  0.2143  0.1425 -0.1257
  108POPC   C1B 1846   5.022   7.452   8.007  0.2363  0.0490 -0.2491
  108POPC   C2B 1847   4.663   7.201   7.799 -0.4364  0.3398  0.2630
  108POPC   C3B 1848   4.346   6.898   7.752  0.1652 -0.2459 -0.4162
  108POPC   C4B 1849   4.050   6.579   7.546  0.0782 -0.5000 -0.0409
  109POPC   NC3 1850   3.859   0.045   9.067 -0.1063  0.0643 -0.1704
  109POPC   PO4 1851   4.249  -0.053   9.129  0.1651  0.1604  0.0263
  109POPC   GL1 1852   4.494  -0.147   8.758  0.4042 -0.0958 -0.6088
  109POPC   GL2 1853   4.139  -0.132   8.669  0.3324  0.1581 -0.1134
  109POPC   C1A 1854   4.717  -0.287   8.402  0.0139 -0.1710  0.1347
  109POPC   D2A 1855   4.483  -0.253   7.972 -0.0918  0.0640  0.0462
  109POPC   C3A 1856   4.103  -0.503   7.828 -0.0274 -0.1745  0.0905
  109POPC   C4A 1857   3.837  -0.584   7.435 -0.0340 -0.0557  0.0413
  109POPC   C1B 1858   4.218  -0.415   8.343 -0.1878 -0.1154  0.0924
  109POPC   C2B 1859   4.443  -0.795   8.102  0.0373 -0.0224  0.1493
  109POPC   C3B 1860   4.624  -1.185   7.950 -0.1508 -0.0990  0.2287
  109POPC   C4B 1861   5.008  -1.469   7.877  0.1431  0.3282 -0.3103
  110POPC   NC3 1862   4.602   2.794   9.224 -0.0320  0.0237  0.4613
  110POPC   PO4 1863   5.085   2.904   9.194 -0.2425  0.1240 -0.0049
  110POPC   GL1 1864   4.956   3.111   8.711 -0.2277  0.0221  0.3150
  110POPC   GL2 1865   5.126   3.329   8.568  0.0043 -0.3410 -0.1703
  110POPC   C1A 1866   4.763   2.974   8.315  0.2936  0.1155 -0.0615
  110POPC   D2A 1867   4.594   2.536   8.335  0.0277 -0.1333  0.4330
  110POPC   C3A 1868   4.353   2.626   8.066 -0.3180 -0.2377  0.0750
  110POPC   C4A 1869   4.333   2.651   7.649 -0.3130  0.3765  0.0167
  110POPC   C1B 1870   4.844   3.494   8.271 -0.0558  0.0404  0.0699
  110POPC   C2B 1871   4.659   3.574   7.863  0.2286  0.1748 -0.0269
  110POPC   C3B 1872   4.561   3.985   7.525  0.1768 -0.1142 -0.0392
  110POPC   C4B 1873   4.909   4.140   7.235  0.0978 -0.1666 -0.0202
  111POPC   NC3 1874   0.924   3.907   9.289  0.0894  0.0342  0.0080
  111POPC   PO4 1875   0.964   4.388   9.174 -0.1741 -0.2189 -0.1311
  111POPC   GL1 1876   0.767   4.495   8.862  0.3144  0.1457  0.3136
  111POPC   GL2 1877   0.810   4.149   8.673  0.1890 -0.0918 -0.0345
  111POPC   C1A 1878   0.383   4.478   8.677 -0.1520 -0.0114 -0.2132
  111POPC   D2A 1879   0.036   4.525   8.487  0.2086  0.3248  0.1707
  111POPC   C3A 1880  -0.024   4.322   8.130 -0.0799 -0.0030  0.0300
  111POPC   C4A 1881  -0.069   4.079   7.835 -0.1731  0.0045  0.1619
  111POPC   C1B 1882   0.728   4.359   8.375  0.0554 -0.1102  0.0941
  111POPC   C2B 1883   0.457   4.387   8.089 -0.0159 -0.2023 -0.2238
  111POPC   C3B 1884   0.440   4.421   7.594 -0.1647  0.1573  0.1460
  111POPC   C4B 1885   0.789   4.318   7.274  0.1919 -0.1372  0.2295
  112POPC   NC3 1886   3.426   9.667   9.115 -0.0449 -0.1551  0.4197
  112POPC   PO4 1887   3.914   9.470   9.047 -0.0226 -0.1375  0.0444
  112POPC   GL1 1888   3.813   9.533   8.634 -0.1219 -0.0157 -0.0750
  112POPC   GL2 1889   3.684   9.382   8.400 -0.0907 -0.1508  0.1596
  112POPC   C1A 1890   3.730   9.876   8.272 -0.0239 -0.1459 -0.0429
  112POPC   D2A 1891   3.762  10.251   8.246  0.2650 -0.1793  0.2882
  112POPC   C3A 1892   4.145  10.499   8.202  0.0087  0.1188  0.0574
  112POPC   C4A 1893   4.427  10.613   8.413  0.3968  0.2771  0.1335
  112POPC   C1B 1894   3.399   9.565   8.046  0.0609 -0.1055  0.0615
  112POPC   C2B 1895   3.316   9.487   7.604 -0.1041 -0.1332  0.2944
  112POPC   C3B 1896   3.246   9.682   7.176  0.0235 -0.2977 -0.1762
  112POPC   C4B 1897   3.450   9.783   6.847  0.0876 -0.1258  0.1174
  113POPC   NC3 1898   3.200   1.831   8.954 -0.0467 -0.0271 -0.1045
  113POPC   PO4 1899   3.098   2.202   9.117  0.2921 -0.2213  0.0926
  113POPC   GL1 1900   3.128   2.328   8.724  0.1219  0.1886 -0.1497
  113POPC   GL2 1901   3.118   1.993   8.552 -0.0998 -0.0436 -0.1204
  113POPC   C1A 1902   3.368   2.571   8.394  0.1750 -0.0134  0.0064
  113POPC   D2A 1903   3.410   2.591   7.913 -0.1700  0.3279 -0.1906
  113POPC   C3A 1904   3.660   2.723   7.582  0.4978 -0.1588 -0.2006
  113POPC   C4A 1905   3.781   3.048   7.391  0.0925 -0.0662 -0.2010
  113POPC   C1B 1906   3.269   2.054   8.229  0.0568 -0.0944 -0.5002
  113POPC   C2B 1907   3.356   2.104   7.730  0.1759  0.0027  0.1208
  113POPC   C3B 1908   3.454   2.265   7.342 -0.0214 -0.1863 -0.1315
  113POPC   C4B 1909   3.623   2.673   7.001  0.0503 -0.1630  0.3024
  114POPC   NC3 1910   5.656   6.271   9.113 -0.0575  0.2304 -0.2625
  114POPC   PO4 1911   5.517   5.925   9.299 -0.3105 -0.0664  0.1394
  114POPC   GL1 1912   5.524   5.851   8.834  0.2006 -0.0956 -0.3455
  114POPC   GL2 1913   5.606   6.201   8.622  0.0578  0.1668  0.6131
  114POPC   C1A 1914   5.419   5.728   8.432  0.1692  0.0479 -0.2214
  114POPC   D2A 1915   5.410   5.426   8.058 -0.0080  0.0545  0.1718
  114POPC   C3A 1916   5.170   5.452   7.726  0.0167 -0.1816  0.2351
  114POPC   C4A 1917   4.877   5.391   7.336 -0.0234  0.3207  0.0086
  114POPC   C1B 1918   5.851   6.193   8.349  0.2235  0.0247  0.2296
  114POPC   C2B 1919   5.946   6.538   8.192 -0.0237  0.4238  0.1064
  114POPC   C3B 1920   5.757   6.933   8.096  0.1108  0.2912  0.1669
  114POPC   C4B 1921   5.541   7.171   7.845 -0.1097  0.2188  0.2192
  115POPC   NC3 1922   4.221   1.768   8.946  0.1510  0.1723  0.2791
  115POPC   PO4 1923   3.863   2.042   8.982  0.0664  0.1941 -0.0591
  115POPC   GL1 1924   4.096   2.235   8.598  0.2050  0.0083 -0.2171
  115POPC   GL2 1925   4.265   1.874   8.478  0.2633  0.0878  0.1100
  115POPC   C1A 1926   4.219   2.108   8.093 -0.0350  0.0472 -0.2013
  115POPC   D2A 1927   4.483   1.697   7.904  0.0325 -0.4911 -0.1171
  115POPC   C3A 1928   4.561   1.650   7.578  0.1134 -0.1242  0.0677
  115POPC   C4A 1929   4.595   1.297   7.410  0.0641 -0.1814  0.1295
  115POPC   C1B 1930   4.006   1.600   8.176  0.0343  0.2170 -0.0886
  115POPC   C2B 1931   4.086   1.406   7.761  0.1440  0.1141  0.1568
  115POPC   C3B 1932   4.081   1.185   7.354 -0.0130 -0.0376 -0.0764
  115POPC   C4B 1933   3.729   1.199   7.140 -0.1181 -0.2433 -0.0243
  116POPC   NC3 1934   0.361   9.310   9.036 -0.2282  0.1129  0.2440
  116POPC   PO4 1935   0.002   9.533   9.221  0.0374  0.0562 -0.2001
  116POPC   GL1 1936  -0.153   9.405   8.811  0.0076  0.2556  0.0069
  116POPC   GL2 1937   0.129   9.700   8.732  0.1488 -0.0315  0.1835
  116POPC   C1A 1938  -0.424   9.396   8.481  0.0417  0.0934  0.3053
  116POPC   D2A 1939  -0.469   9.554   8.033 -0.0170  0.0990  0.0094
  116POPC   C3A 1940  -0.425   9.239   7.672 -0.2188  0.1180 -0.0201
  116POPC   C4A 1941  -0.406   9.260   7.209  0.3594 -0.2776  0.0079
  116POPC   C1B 1942   0.278   9.561   8.363 -0.1955 -0.4171  0.1260
  116POPC   C2B 1943   0.436   9.335   7.997 -0.1309  0.2418  0.2020
  116POPC   C3B 1944   0.511   9.431   7.560  0.1786 -0.3297  0.0145
  116POPC   C4B 1945   0.613   9.288   7.200  0.0239 -0.0950  0.4189
  117POPC   NC3 1946   0.047   8.669   9.486  0.1189 -0.0711 -0.2061
  117POPC   PO4 1947   0.326   8.825   9.105  0.0608  0.3612 -0.0530
  117POPC   GL1 1948   0.105   8.758   8.780 -0.3123 -0.0121 -0.0008
  117POPC   GL2 1949   0.057   8.414   8.820 -0.1008 -0.0497  0.0459
  117POPC   C1A 1950  -0.027   9.055   8.478 -0.3140 -0.1093 -0.1141
  117POPC   D2A 1951  -0.024   9.218   8.044 -0.3942  0.3453 -0.2162
  117POPC   C3A 1952   0.049   9.573   7.814 -0.1161 -0.0834  0.1574
  117POPC   C4A 1953  -0.069   9.662   7.386 -0.2192  0.2262 -0.1577
  117POPC   C1B 1954   0.069   8.405   8.427  0.1990 -0.1936 -0.1166
  117POPC   C2B 1955  -0.255   8.522   8.244 -0.1574 -0.1515 -0.1765
  117POPC   C3B 1956  -0.537   8.474   8.021  0.3209  0.0618  0.1809
  117POPC   C4B 1957  -0.659   8.415   7.679  0.0300  0.2576 -0.3147
  118POPC   NC3 1958   8.268   2.163   9.071  0.1826  0.2115 -0.3038
  118POPC   PO4 1959   8.521   2.380   8.822 -0.0185  0.2350 -0.1186
  118POPC   GL1 1960   8.847   2.302   8.444 -0.0014 -0.1653  0.2103
  118POPC   GL2 1961   8.710   2.373   8.159  0.1071 -0.3978 -0.0891
  118POPC   C1A 1962   9.139   2.542   8.142 -0.1694 -0.0812  0.1477
  118POPC   D2A 1963   9.279   2.570   7.755  0.2321  0.1619  0.1555
  118POPC   C3A 1964   9.098   2.477   7.388 -0.0154  0.1655  0.0988
  118POPC   C4A 1965   8.868   2.606   7.021 -0.0873 -0.0597 -0.0505
  118POPC   C1B 1966   8.714   2.421   7.776  0.0826 -0.0245 -0.0894
  118POPC   C2B 1967   8.588   2.231   7.368 -0.0397 -0.0793  0.1071
  118POPC   C3B 1968   8.358   1.868   7.243  0.1785 -0.0686  0.1556
  118POPC   C4B 1969   7.959   1.654   7.236  0.0562 -0.2198 -0.1549
  119POPC   NC3 1970   1.689   0.907   8.996 -0.5484 -0.0795  0.1217
  119POPC   PO4 1971   1.920   1.137   8.845 -0.1811  0.0765  0.0082
  119POPC   GL1 1972   2.031   1.146   8.532  0.0538 -0.1479  0.0791
  119POPC   GL2 1973   2.403   1.124   8.490  0.0280 -0.0270  0.3404
  119POPC   C1A 1974   1.851   1.496   8.269  0.0499  0.1940  0.1845
  119POPC   D2A 1975   1.843   1.673   7.809  0.0281  0.4084 -0.0686
  119POPC   C3A 1976   1.791   1.648   7.401  0.1324  0.0165  0.2073
  119POPC   C4A 1977   1.969   2.017   7.208 -0.2585 -0.1487  0.2359
  119POPC   C1B 1978   2.530   1.426   8.247  0.1131  0.2590  0.0915
  119POPC   C2B 1979   2.300   1.666   8.022 -0.0033 -0.0695 -0.2070
  119POPC   C3B 1980   2.220   2.028   7.747  0.0985 -0.0933 -0.2013
  119POPC   C4B 1981   1.801   2.144   7.727 -0.0273 -0.0099  0.2315
  120POPC   NC3 1982  10.347  10.322   9.017 -0.0893  0.0408  0.1768
  120POPC   PO4 1983  10.145   9.864   9.023 -0.1800  0.0313 -0.1152
  120POPC   GL1 1984   9.939   9.824   8.631 -0.0225 -0.0479  0.1399
  120POPC   GL2 1985   9.623   9.985   8.661  0.2327  0.1281  0.2412
  120POPC   C1A 1986   9.854  10.035   8.239  0.1731  0.4244 -0.0090
  120POPC   D2A 1987   9.857  10.311   7.765 -0.1366  0.0963 -0.2504
  120POPC   C3A 1988  10.199  10.477   7.636 -0.2314  0.1821  0.1277
  120POPC   C4A 1989  10.358  10.804   7.648 -0.0381 -0.1080 -0.0436
  120POPC   C1B 1990   9.528   9.688   8.280 -0.1881  0.0051  0.2576
  120POPC   C2B 1991   9.544   9.696   7.835  0.1867  0.4293 -0.1356
  120POPC   C3B 1992   9.781   9.869   7.444  0.2403  0.3223 -0.0765
  120POPC   C4B 1993   9.748  10.235   7.309  0.1331 -0.1705  0.3381
  121POPC   NC3 1994   7.317   9.073   8.741  0.2596  0.0718 -0.1298
  121POPC   PO4 1995   7.772   9.037   8.727 -0.2050 -0.2277 -0.0339
  121POPC   GL1 1996   7.885   8.767   8.473  0.2517 -0.0403 -0.1460
  121POPC   GL2 1997   8.122   8.587   8.398 -0.0640  0.4210 -0.0135
  121POPC   C1A 1998   7.826   8.726   7.949  0.0475  0.1366 -0.1405
  121POPC   D2A 1999   7.711   8.862   7.601 -0.0375 -0.0736 -0.1084
  121POPC   C3A 2000   8.072   9.019   7.375  0.1853 -0.0806  0.1396
  121POPC   C4A 2001   8.229   9.295   7.175  0.2046 -0.0717 -0.0648
  121POPC   C1B 2002   8.316   8.607   8.007  0.2384 -0.0120 -0.1926
  121POPC   C2B 2003   8.443   8.580   7.634 -0.4460  0.1036 -0.0788
  121POPC   C3B 2004   8.332   8.277   7.328  0.0214  0.1646  0.5250
  121POPC   C4B 2005   8.197   8.061   6.910  0.1558  0.0524  0.1533
  122POPC   NC3 2006   7.868   1.899   9.316 -0.0836 -0.1966 -0.0659
  122POPC   PO4 2007   7.680   2.247   9.109 -0.1712  0.5452 -0.2573
  122POPC   GL1 2008   7.798   2.064   8.764  0.0787 -0.1505  0.2466
  122POPC   GL2 2009   7.698   1.824   8.828 -0.1132  0.0752  0.1333
  122POPC   C1A 2010   7.983   2.144   8.363 -0.2487 -0.2219  0.0917
  122POPC   D2A 2011   8.306   2.069   8.021  0.0742  0.1091  0.1368
  122POPC   C3A 2012   8.177   2.170   7.652 -0.2494 -0.3573 -0.0934
  122POPC   C4A 2013   8.000   2.228   7.277  0.0702 -0.3814 -0.2076
  122POPC   C1B 2014   7.448   1.773   8.474 -0.2178 -0.0180 -0.1546
  122POPC   C2B 2015   7.223   1.418   8.295 -0.1018 -0.4269 -0.1937
  122POPC   C3B 2016   7.169   1.335   7.923  0.0628 -0.0240  0.1043
  122POPC   C4B 2017   7.142   1.565   7.600  0.1746  0.2626  0.0332
  123POPC   NC3 2018   7.514   7.772   9.220 -0.1069 -0.0257  0.0904
  123POPC   PO4 2019   7.696   7.769   8.818 -0.1933 -0.1445 -0.2683
  123POPC   GL1 2020   8.067   7.854   8.484  0.0780  0.1998  0.1618
  123POPC   GL2 2021   8.269   8.113   8.512 -0.0072  0.1307  0.1396
  123POPC   C1A 2022   8.294   7.583   8.226 -0.1935  0.1027  0.1014
  123POPC   D2A 2023   8.466   7.327   7.903  0.1987  0.0866  0.1689
  123POPC   C3A 2024   8.580   7.056   7.547  0.1230  0.1414  0.1649
  123POPC   C4A 2025   8.659   6.706   7.293  0.1163  0.1153 -0.2967
  123POPC   C1B 2026   8.165   8.065   8.041  0.2585  0.0940  0.1800
  123POPC   C2B 2027   8.414   7.880   7.705 -0.2305  0.0876 -0.2722
  123POPC   C3B 2028   8.332   7.483   7.377  0.0508 -0.2853 -0.2919
  123POPC   C4B 2029   7.988   7.244   7.153 -0.0081  0.3413  0.1600
  124POPC   NC3 2030   6.882   4.919   9.045 -0.2171 -0.0511  0.1232
  124POPC   PO4 2031   6.998   5.370   8.788  0.1679 -0.0577 -0.1118
  124POPC   GL1 2032   6.815   5.271   8.335  0.3170 -0.2368 -0.2013
  124POPC   GL2 2033   6.515   5.254   8.236 -0.0023  0.1551 -0.3071
  124POPC   C1A 2034   6.813   5.535   8.004 -0.2010  0.0922  0.1678
  124POPC   D2A 2035   7.172   5.622   7.662  0.1092 -0.1673 -0.2710
  124POPC   C3A 2036   7.558   5.541   7.423  0.2787 -0.3392 -0.1970
  124POPC   C4A 2037   7.862   5.850   7.178 -0.0736 -0.0400  0.1448
  124POPC   C1B 2038   6.333   5.121   7.909 -0.1737 -0.1117 -0.0192
  124POPC   C2B 2039   6.149   5.398   7.570  0.5264  0.0184 -0.1049
  124POPC   C3B 2040   5.943   5.528   7.090 -0.2016 -0.1114 -0.3808
  124POPC   C4B 2041   5.625   5.717   6.836 -0.0263  0.1474  0.2267
  125POPC   NC3 2042   7.505   9.680   8.806  0.0609 -0.0063  0.0597
  125POPC   PO4 2043   7.897   9.603   8.989  0.2526  0.1757  0.0629
  125POPC   GL1 2044   8.016   9.595   8.530  0.4435 -0.0715  0.0417
  125POPC   GL2 2045   8.043   9.238   8.327 -0.1977 -0.0526  0.1069
  125POPC   C1A 2046   7.980   9.732   8.060 -0.3373 -0.1632  0.2168
  125POPC   D2A 2047   7.978  10.104   7.828  0.0230 -0.1481 -0.1832
  125POPC   C3A 2048   8.216  10.181   7.446  0.4053  0.1581  0.0437
  125POPC   C4A 2049   7.974  10.091   7.131 -0.1406 -0.1538 -0.0068
  125POPC   C1B 2050   8.438   9.531   8.111  0.1103 -0.0404  0.3205
  125POPC   C2B 2051   8.570   9.450   7.721 -0.0319  0.2340 -0.3412
  125POPC   C3B 2052   8.618   9.195   7.528  0.2955  0.1165  0.1844
  125POPC   C4B 2053   8.703   9.335   7.061 -0.3087  0.0964 -0.0363
  126POPC   NC3 2054  10.123   5.426   9.607 -0.1209 -0.2910  0.1018
  126POPC   PO4 2055   9.691   5.583   9.575 -0.0593  0.1000 -0.0316
  126POPC   GL1 2056   9.632   5.778   9.151 -0.0699 -0.1260  0.2674
  126POPC   GL2 2057   9.420   5.552   8.986  0.1284 -0.1177 -0.0124
  126POPC   C1A 2058   9.708   5.980   8.796 -0.1112 -0.0512  0.0628
  126POPC   D2A 2059   9.572   6.208   8.390 -0.0342  0.2650  0.1907
  126POPC   C3A 2060   9.867   6.162   7.942 -0.0194 -0.0191  0.1105
  126POPC   C4A 2061  10.239   5.877   7.883 -0.1836  0.1915 -0.0646
  126POPC   C1B 2062   9.457   5.443   8.581 -0.3587  0.1369 -0.1155
  126POPC   C2B 2063   9.415   5.318   8.214 -0.6015 -0.2290 -0.2490
  126POPC   C3B 2064   9.566   5.585   7.793  0.2129  0.1642 -0.0397
  126POPC   C4B 2065   9.844   5.832   7.535  0.1397 -0.1271 -0.3372
  127POPC   NC3 2066   4.113   1.280   8.702 -0.0361  0.2815 -0.1385
  127POPC   PO4 2067   4.591   1.494   8.788  0.0373  0.3437  0.1192
  127POPC   GL1 2068   4.717   1.662   8.423  0.1797 -0.1689 -0.2672
  127POPC   GL2 2069   5.007   1.610   8.501 -0.0649  0.0182  0.2015
  127POPC   C1A 2070   4.745   2.034   8.197 -0.0821 -0.0282  0.0127
  127POPC   D2A 2071   4.886   2.010   7.658 -0.0646  0.0330  0.1121
  127POPC   C3A 2072   4.785   2.350   7.312  0.1434 -0.0725 -0.0676
  127POPC   C4A 2073   4.402   2.467   7.169  0.1991 -0.2304 -0.1149
  127POPC   C1B 2074   5.019   1.546   8.000  0.0955 -0.0432 -0.0330
  127POPC   C2B 2075   5.110   1.550   7.544 -0.1565  0.0674 -0.3168
  127POPC   C3B 2076   5.396   1.669   7.278  0.2116 -0.0537  0.1976
  127POPC   C4B 2077   5.354   1.738   6.894 -0.0011 -0.0107 -0.0061
  128POPC   NC3 2078   2.044   0.316   9.356 -0.0981 -0.1359 -0.1305
  128POPC   PO4 2079   1.617   0.413   9.102 -0.0510  0.2289  0.1057
  128POPC   GL1 2080   1.476   0.543   8.643  0.1338 -0.0646 -0.0764
  128POPC   GL2 2081   1.595   0.226   8.423 -0.1771 -0.0100 -0.2464
  128POPC   C1A 2082   1.289   0.667   8.306 -0.0142  0.3012 -0.0498
  128POPC   D2A 2083   1.458   0.787   7.931  0.0196  0.0522  0.5078
  128POPC   C3A 2084   1.949   0.864   7.845 -0.1663 -0.2616 -0.0027
  128POPC   C4A 2085   2.198   1.135   8.084 -0.0284 -0.2181  0.3852
  128POPC   C1B 2086   1.781  -0.101   8.016  0.0965 -0.2664  0.1601
  128POPC   C2B 2087   1.656  -0.168   7.673 -0.2315  0.1848  0.1749
  128POPC   C3B 2088   1.704  -0.555   7.412  0.2103  0.1201  0.0789
  128POPC   C4B 2089   1.472  -0.718   7.084 -0.1842 -0.0155 -0.1160
  129POPC   NC3 2090   1.171   8.629   8.926  0.1343  0.0243  0.1375
  129POPC   PO4 2091   1.087   8.264   8.714 -0.0768 -0.1155 -0.0902
  129POPC   GL1 2092   0.887   8.552   8.411 -0.2455 -0.4365 -0.1819
  129POPC   GL2 2093   0.641   8.819   8.682 -0.2897 -0.1802 -0.0428
  129POPC   C1A 2094   0.504   8.518   8.149 -0.0431  0.2793 -0.2154
  129POPC   D2A 2095   0.187   8.766   8.056  0.1139 -0.0786  0.2768
  129POPC   C3A 2096   0.128   9.071   7.590 -0.1191  0.3583  0.2843
  129POPC   C4A 2097   0.104   9.248   7.235  0.3019 -0.2072 -0.3793
  129POPC   C1B 2098   0.463   8.978   8.437  0.3399 -0.3353 -0.0087
  129POPC   C2B 2099   0.642   8.868   7.862 -0.3664 -0.1548 -0.1833
  129POPC   C3B 2100   0.662   8.901   7.512 -0.1164 -0.2973  0.1514
  129POPC   C4B 2101   0.353   8.841   7.183  0.1658  0.2973 -0.0419
  130POPC   NC3 2102   0.528   3.529   9.780  0.1511  0.0993  0.0116
  130POPC   PO4 2103   0.460   3.672   9.397 -0.1960  0.0112 -0.0920
  130POPC   GL1 2104   0.343   3.721   8.887  0.1205 -0.2363  0.0664
  130POPC   GL2 2105   0.098   3.690   8.833 -0.1771 -0.0807 -0.0617
  130POPC   C1A 2106   0.327   3.986   8.470 -0.0469 -0.0702  0.0033
  130POPC   D2A 2107   0.321   3.833   8.035  0.0005  0.0550  0.2586
  130POPC   C3A 2108   0.294   3.956   7.574  0.1895  0.0722  0.0474
  130POPC   C4A 2109   0.252   4.082   7.146  0.0320 -0.0377  0.2349
  130POPC   C1B 2110  -0.127   3.744   8.499 -0.0445  0.1404  0.3058
  130POPC   C2B 2111  -0.178   3.634   8.010 -0.4953 -0.1856  0.0013
  130POPC   C3B 2112  -0.139   3.658   7.614  0.3912 -0.1978  0.0117
  130POPC   C4B 2113  -0.209   3.902   7.221 -0.3316 -0.0538  0.2338
  131POPC   NC3 2114   7.299   7.506   8.819  0.2963  0.1409  0.2923
  131POPC   PO4 2115   7.087   7.125   8.900  0.1160 -0.1566  0.0289
  131POPC   GL1 2116   6.974   7.274   8.539  0.3402  0.0743 -0.0565
  131POPC   GL2 2117   7.004   7.463   8.375 -0.1748 -0.0654  0.0942
  131POPC   C1A 2118   6.973   6.987   8.190 -0.1634 -0.3898 -0.0192
  131POPC   D2A 2119   6.999   6.998   7.757 -0.0546 -0.0732 -0.0779
  131POPC   C3A 2120   7.221   7.180   7.511 -0.0736 -0.0081 -0.3089
  131POPC   C4A 2121   7.641   7.146   7.536 -0.0395 -0.1382 -0.0240
  131POPC   C1B 2122   6.663   7.814   8.224 -0.1371  0.3325  0.0712
  131POPC   C2B 2123   6.252   7.795   8.181 -0.2554 -0.0611 -0.0141
  131POPC   C3B 2124   5.977   7.927   7.869  0.0990  0.2439  0.0322
  131POPC   C4B 2125   5.950   7.901   7.410 -0.3320  0.0688  0.0095
  132POPC   NC3 2126  10.328   3.807   9.253 -0.1382 -0.0100 -0.3521
  132POPC   PO4 2127  10.003   4.144   9.243  0.4232 -0.2731 -0.1210
  132POPC   GL1 2128  10.107   4.403   8.942 -0.0721 -0.0296 -0.2371
  132POPC   GL2 2129  10.299   4.196   8.816 -0.3147  0.1506  0.2256
  132POPC   C1A 2130   9.968   4.709   8.739 -0.2205 -0.0658 -0.1290
  132POPC   D2A 2131   9.520   4.970   8.776  0.0466 -0.0229 -0.0505
  132POPC   C3A 2132   9.148   5.054   8.587  0.2529  0.0637  0.1429
  132POPC   C4A 2133   8.691   5.145   8.691 -0.0439 -0.1256 -0.1176
  132POPC   C1B 2134   9.998   4.146   8.472 -0.1624  0.1534  0.2375
  132POPC   C2B 2135   9.964   4.061   8.100  0.1285 -0.0560 -0.2262
  132POPC   C3B 2136   9.925   4.309   7.654  0.0609  0.1526  0.1562
  132POPC   C4B 2137   9.779   4.297   7.344 -0.2352 -0.0262 -0.0741
  133POPC   NC3 2138   7.677   6.517   8.807  0.1220 -0.0704 -0.4328
  133POPC   PO4 2139   8.044   6.496   9.057  0.1950  0.0664 -0.2310
  133POPC   GL1 2140   8.221   6.451   8.641 -0.0831 -0.1733  0.0753
  133POPC   GL2 2141   7.910   6.301   8.406 -0.3055  0.0512  0.0498
  133POPC   C1A 2142   8.405   6.444   8.201 -0.1145 -0.2716 -0.2260
  133POPC   D2A 2143   8.383   6.857   8.052 -0.2033  0.4408  0.2999
  133POPC   C3A 2144   8.344   7.102   8.427 -0.1504 -0.1998 -0.1380
  133POPC   C4A 2145   8.620   7.435   8.557  0.2158 -0.2281  0.2856
  133POPC   C1B 2146   7.848   6.366   7.926 -0.0206 -0.0044  0.2224
  133POPC   C2B 2147   7.795   6.292   7.429  0.0340 -0.0318  0.0948
  133POPC   C3B 2148   7.583   6.240   7.057  0.2082  0.0932 -0.0357
  133POPC   C4B 2149   7.167   6.314   7.023 -0.0033  0.3515  0.2463
  134POPC   NC3 2150   3.372   1.217   8.900 -0.0744  0.0348 -0.1260
  134POPC   PO4 2151   3.680   1.576   9.034  0.0980 -0.1625 -0.1887
  134POPC   GL1 2152   3.662   1.613   8.557  0.3037  0.1295 -0.2237
  134POPC   GL2 2153   3.697   1.944   8.464  0.1297 -0.0840  0.0495
  134POPC   C1A 2154   3.488   1.538   8.180  0.0123  0.0177 -0.1480
  134POPC   D2A 2155   3.173   1.602   7.855  0.2078  0.3272 -0.0077
  134POPC   C3A 2156   3.086   1.501   7.450  0.0906  0.2578 -0.2766
  134POPC   C4A 2157   3.262   1.297   7.187 -0.2876  0.1073 -0.0703
  134POPC   C1B 2158   3.695   2.017   8.039 -0.0114  0.1055 -0.0532
  134POPC   C2B 2159   3.976   1.906   7.668  0.0279 -0.4788 -0.2493
  134POPC   C3B 2160   4.146   1.742   7.267  0.1816 -0.2822 -0.0771
  134POPC   C4B 2161   4.337   1.449   6.939  0.1497  0.0542  0.1888
  135POPC   NC3 2162   8.000   3.579   9.120  0.4137 -0.0368  0.2032
  135POPC   PO4 2163   7.590   3.777   9.152 -0.0630 -0.1458 -0.0959
  135POPC   GL1 2164   7.657   3.757   8.687 -0.2209  0.1228  0.1354
  135POPC   GL2 2165   7.754   4.028   8.502  0.0216  0.0686 -0.1084
  135POPC   C1A 2166   7.884   3.609   8.330  0.3230  0.1213  0.2065
  135POPC   D2A 2167   7.862   3.603   7.881  0.0436 -0.1872 -0.1472
  135POPC   C3A 2168   7.945   3.941   7.579  0.1061  0.1519 -0.0027
  135POPC   C4A 2169   7.824   4.114   7.221  0.1228  0.1920 -0.0584
  135POPC   C1B 2170   8.010   4.093   8.130  0.3414 -0.1551  0.0417
  135POPC   C2B 2171   8.399   4.090   7.831  0.0417  0.0239 -0.5513
  135POPC   C3B 2172   8.324   4.207   7.381  0.2163  0.1300  0.0473
  135POPC   C4B 2173   8.476   4.331   7.102 -0.0305  0.0635 -0.0112
  136POPC   NC3 2174   5.488   9.475   8.899  0.0604 -0.0381 -0.1049
  136POPC   PO4 2175   5.930   9.445   9.191  0.2852 -0.1821 -0.0854
  136POPC   GL1 2176   5.955   9.552   8.728  0.1800  0.1098  0.2073
  136POPC   GL2 2177   6.223   9.451   8.659  0.0720 -0.2574 -0.1357
  136POPC   C1A 2178   5.938   9.549   8.198  0.2501 -0.2040  0.0532
  136POPC   D2A 2179   5.891   9.914   8.021 -0.2535  0.3623  0.1116
  136POPC   C3A 2180   6.131  10.067   7.666 -0.0154  0.0613 -0.2904
  136POPC   C4A 2181   6.591  10.162   7.488 -0.0437 -0.2528 -0.0435
  136POPC   C1B 2182   6.141   9.991   8.486 -0.1891  0.3513 -0.2040
  136POPC   C2B 2183   6.303  10.189   8.256 -0.2032  0.3083  0.1732
  136POPC   C3B 2184   6.685  10.013   8.040 -0.4774 -0.0515 -0.2004
  136POPC   C4B 2185   6.932   9.647   7.995  0.0132 -0.2343  0.0265
  137POPC   NC3 2186   8.324   2.927   8.663  0.0602 -0.2163  0.1101
  137POPC   PO4 2187   7.944   2.607   8.792  0.1008  0.2095  0.2189
  137POPC   GL1 2188   7.888   2.662   8.310 -0.0685 -0.1083 -0.3542
  137POPC   GL2 2189   8.163   2.621   8.123 -0.0550  0.1885 -0.1959
  137POPC   C1A 2190   7.814   2.635   7.815 -0.1313  0.2084  0.5362
  137POPC   D2A 2191   7.580   2.419   7.553 -0.1831 -0.1692 -0.0404
  137POPC   C3A 2192   7.625   2.515   7.147  0.0786 -0.0411  0.0545
  137POPC   C4A 2193   7.323   2.393   6.866 -0.0304  0.1486 -0.1387
  137POPC   C1B 2194   8.294   2.775   7.625 -0.0363  0.0444  0.1617
  137POPC   C2B 2195   8.189   2.774   7.154 -0.1178 -0.2672 -0.2291
  137POPC   C3B 2196   7.967   3.100   6.951 -0.0873  0.2999 -0.2921
  137POPC   C4B 2197   8.000   3.376   6.626 -0.0130  0.1127  0.0946
  138POPC   NC3 2198   8.684   1.460   8.848 -0.0301 -0.0158 -0.1684
  138POPC   PO4 2199   8.807   1.820   8.622  0.1499  0.0977  0.0927
  138POPC   GL1 2200   8.736   1.813   8.162  0.4303 -0.2630 -0.1349
  138POPC   GL2 2201   8.652   1.428   8.084 -0.0164 -0.1394  0.0484
  138POPC   C1A 2202   8.845   1.912   7.684  0.0741 -0.2559  0.1056
  138POPC   D2A 2203   9.036   1.951   7.275 -0.0184 -0.3778 -0.0549
  138POPC   C3A 2204   9.392   1.789   7.202 -0.1587 -0.0368  0.0572
  138POPC   C4A 2205   9.381   1.313   7.218 -0.2708  0.1809  0.2333
  138POPC   C1B 2206   8.485   1.446   7.746 -0.0977  0.3081 -0.1074
  138POPC   C2B 2207   8.501   1.312   7.311  0.1205 -0.0862  0.0562
  138POPC   C3B 2208   8.470   0.929   7.037  0.0458  0.1024 -0.3643
  138POPC   C4B 2209   8.376   0.546   6.775 -0.2280  0.3482  0.0932
  139POPC   NC3 2210   8.537   7.944   9.546 -0.0066 -0.1599 -0.2219
  139POPC   PO4 2211   8.893   8.127   9.405  0.1221  0.1386 -0.2663
  139POPC   GL1 2212   8.817   7.954   8.989  0.3577  0.0598  0.0773
  139POPC   GL2 2213   8.519   7.987   8.921 -0.1059  0.1228  0.1956
  139POPC   C1A 2214   9.013   7.680   8.720 -0.0026 -0.3386 -0.3862
  139POPC   D2A 2215   9.113   7.623   8.240  0.0429 -0.2329  0.0138
  139POPC   C3A 2216   8.795   7.719   7.970  0.1151  0.2567  0.2184
  139POPC   C4A 2217   8.833   7.499   7.587 -0.0329  0.0401  0.0968
  139POPC   C1B 2218   8.721   7.925   8.448  0.1920 -0.0620  0.0078
  139POPC   C2B 2219   8.622   8.172   8.060  0.2656 -0.1397  0.4414
  139POPC   C3B 2220   8.887   8.162   7.667 -0.0755  0.0500  0.0440
  139POPC   C4B 2221   9.169   7.852   7.500 -0.0893  0.3214  0.1063
  140POPC   NC3 2222   1.482   3.911  10.051  0.0322  0.4703 -0.0171
  140POPC   PO4 2223   1.319   3.794   9.622  0.0393  0.2282 -0.0612
  140POPC   GL1 2224   1.279   3.685   9.163 -0.1171  0.0239  0.2256
  140POPC   GL2 2225   1.251   3.799   8.838 -0.0765  0.0762 -0.2241
  140POPC   C1A 2226   1.561   3.341   8.886 -0.2222 -0.0832  0.0992
  140POPC   D2A 2227   1.736   2.997   8.555  0.0445  0.3487 -0.1006
  140POPC   C3A 2228   1.740   3.145   8.137  0.2558 -0.0080 -0.0021
  140POPC   C4A 2229   1.978   2.904   7.821 -0.1572 -0.1035 -0.2229
  140POPC   C1B 2230   1.480   3.540   8.482  0.4885 -0.0578  0.2447
  140POPC   C2B 2231   1.432   3.504   8.017 -0.1081 -0.0754 -0.2076
  140POPC   C3B 2232   1.415   3.146   7.693  0.1164  0.0059 -0.0610
  140POPC   C4B 2233   1.200   2.950   7.367  0.0232 -0.2430 -0.0825
  141POPC   NC3 2234   7.795   6.082   8.842 -0.2652  0.2788 -0.0130
  141POPC   PO4 2235   7.346   6.178   8.795  0.1473 -0.3654 -0.1721
  141POPC   GL1 2236   7.418   6.413   8.380 -0.0811 -0.0666 -0.1446
  141POPC   GL2 2237   7.354   6.764   8.268 -0.2063  0.0589 -0.1646
  141POPC   C1A 2238   7.319   6.317   7.957  0.1465  0.1889 -0.1388
  141POPC   D2A 2239   7.006   6.464   7.617 -0.3428 -0.1895  0.0152
  141POPC   C3A 2240   6.651   6.751   7.475  0.4079 -0.6182 -0.1681
  141POPC   C4A 2241   6.230   7.002   7.205 -0.1983 -0.0404 -0.2183
  141POPC   C1B 2242   7.439   6.808   7.825  0.0270  0.1578  0.2523
  141POPC   C2B 2243   7.577   6.702   7.425  0.2053  0.1025  0.0884
  141POPC   C3B 2244   7.568   6.993   7.070  0.0997  0.0891  0.0399
  141POPC   C4B 2245   7.517   7.471   7.094  0.0354  0.0753 -0.0246
  142POPC   NC3 2246   3.213   3.551   9.330 -0.1145  0.1192 -0.1041
  142POPC   PO4 2247   3.677   3.548   9.216 -0.2947  0.2270  0.0538
  142POPC   GL1 2248   3.574   3.351   8.848 -0.3286  0.0439 -0.0221
  142POPC   GL2 2249   3.901   3.214   8.668  0.2037 -0.0856 -0.0163
  142POPC   C1A 2250   3.296   3.024   8.599  0.2024  0.0467  0.0601
  142POPC   D2A 2251   3.175   3.024   8.100  0.2176 -0.0222  0.0562
  142POPC   C3A 2252   3.021   2.818   7.731 -0.0595 -0.1911  0.2366
  142POPC   C4A 2253   3.127   2.942   7.282  0.2085 -0.1615  0.0641
  142POPC   C1B 2254   3.690   3.121   8.349 -0.3059 -0.0008  0.3034
  142POPC   C2B 2255   3.542   3.306   7.915  0.4555  0.0972  0.2427
  142POPC   C3B 2256   3.248   3.315   7.537  0.1894 -0.1961 -0.0027
  142POPC   C4B 2257   3.007   3.318   7.022  0.2249 -0.0886  0.1587
  143POPC   NC3 2258   5.218   8.265   9.219 -0.1100 -0.0284 -0.1308
  143POPC   PO4 2259   5.177   8.449   8.854  0.0203 -0.0963 -0.3720
  143POPC   GL1 2260   5.144   8.383   8.396  0.0861  0.1148  0.2730
  143POPC   GL2 2261   4.888   8.064   8.309  0.2398 -0.1940  0.0581
  143POPC   C1A 2262   5.120   8.426   7.941  0.0909 -0.1273  0.0348
  143POPC   D2A 2263   4.856   8.407   7.545 -0.1282 -0.2699  0.0414
  143POPC   C3A 2264   4.889   8.705   7.324 -0.0699 -0.2054  0.2344
  143POPC   C4A 2265   5.197   9.044   6.964 -0.1079  0.1602 -0.0912
  143POPC   C1B 2266   4.612   8.139   7.938  0.0953 -0.0382  0.0753
  143POPC   C2B 2267   4.295   8.237   7.625  0.3886  0.1081 -0.0321
  143POPC   C3B 2268   3.954   8.081   7.381 -0.0178 -0.1853 -0.0166
  143POPC   C4B 2269   3.588   7.819   7.190 -0.0933  0.1301 -0.1449
  144POPC   NC3 2270   0.910   1.248   9.195 -0.0948 -0.1119 -0.0871
  144POPC   PO4 2271   0.665   0.861   9.089  0.2116 -0.1950  0.3571
  144POPC   GL1 2272   0.755   0.953   8.615 -0.0919 -0.1721  0.1691
  144POPC   GL2 2273   0.426   1.089   8.412 -0.0088  0.2961  0.2269
  144POPC   C1A 2274   0.964   1.008   8.196  0.0948  0.0555  0.3744
  144POPC   D2A 2275   1.114   1.224   7.769  0.0284 -0.2805 -0.1641
  144POPC   C3A 2276   1.071   1.022   7.399 -0.1997 -0.1008 -0.1638
  144POPC   C4A 2277   0.717   0.861   7.116 -0.3162 -0.3712 -0.0086
  144POPC   C1B 2278   0.450   0.871   8.062  0.1855 -0.0481  0.0631
  144POPC   C2B 2279   0.474   0.490   7.809 -0.1400  0.1170  0.0359
  144POPC   C3B 2280   0.405   0.116   7.565 -0.1847  0.1594  0.1775
  144POPC   C4B 2281   0.278  -0.307   7.406  0.2739  0.3323 -0.2715
  145POPC   NC3 2282   5.569   2.766   9.203  0.3949  0.1447 -0.0064
  145POPC   PO4 2283   5.315   2.452   9.012  0.1942 -0.1707  0.0018
  145POPC   GL1 2284   5.293   2.679   8.605  0.1206 -0.0967  0.2439
  145POPC   GL2 2285   5.447   2.960   8.642 -0.0998 -0.0240 -0.2424
  145POPC   C1A 2286   5.049   2.644   8.341 -0.3535  0.0472 -0.0531
  145POPC   D2A 2287   5.005   2.459   8.047  0.2851 -0.1696  0.0477
  145POPC   C3A 2288   4.781   2.504   7.771 -0.1614 -0.1651  0.2314
  145POPC   C4A 2289   4.418   2.173   7.623 -0.3365 -0.1974 -0.2992
  145POPC   C1B 2290   5.336   3.090   8.214 -0.1994  0.2943  0.2704
  145POPC   C2B 2291   5.136   2.942   7.851  0.1400  0.0221 -0.0446
  145POPC   C3B 2292   5.031   2.722   7.376  0.0822  0.0620 -0.3377
  145POPC   C4B 2293   5.219   2.604   6.980  0.3079 -0.0153 -0.1600
  146POPC   NC3 2294   3.873   2.301   9.425 -0.3856  0.1434  0.0435
  146POPC   PO4 2295   4.038   2.712   9.303  0.1752  0.0781 -0.0592
  146POPC   GL1 2296   4.113   2.709   8.878 -0.0550 -0.1907 -0.3247
  146POPC   GL2 2297   3.803   2.728   8.678 -0.0113  0.2094 -0.1132
  146POPC   C1A 2298   4.122   2.886   8.368  0.0725  0.3142  0.5104
  146POPC   D2A 2299   3.985   2.934   7.869 -0.0538 -0.1173  0.3869
  146POPC   C3A 2300   4.195   3.286   7.654  0.1984 -0.4317  0.2326
  146POPC   C4A 2301   4.331   3.552   7.295  0.1352 -0.0401  0.2507
  146POPC   C1B 2302   3.814   2.567   8.205  0.1358 -0.2548 -0.1167
  146POPC   C2B 2303   3.943   2.424   7.803  0.0492 -0.0583 -0.1805
  146POPC   C3B 2304   3.981   2.289   7.316  0.0646  0.0984  0.0406
  146POPC   C4B 2305   3.768   2.156   6.973 -0.2352  0.1379 -0.1673
  147POPC   NC3 2306   6.651   2.977   9.031  0.2894 -0.0798 -0.0781
  147POPC   PO4 2307   7.089   3.091   9.045 -0.0437 -0.0227  0.0941
  147POPC   GL1 2308   7.139   3.157   8.586  0.2280 -0.1616  0.2062
  147POPC   GL2 2309   7.258   3.432   8.422 -0.2425 -0.4365 -0.4818
  147POPC   C1A 2310   7.137   2.735   8.435 -0.2068  0.0161 -0.0377
  147POPC   D2A 2311   6.910   2.505   8.150 -0.2035  0.0559 -0.0286
  147POPC   C3A 2312   6.582   2.241   8.209 -0.2296 -0.3459 -0.1754
  147POPC   C4A 2313   6.414   1.866   8.182 -0.0456 -0.3334 -0.0524
  147POPC   C1B 2314   7.319   3.574   8.005 -0.4663  0.1420 -0.0104
  147POPC   C2B 2315   7.455   3.754   7.626  0.0639 -0.0355  0.2757
  147POPC   C3B 2316   7.687   3.536   7.301 -0.2092 -0.1276 -0.0969
  147POPC   C4B 2317   7.554   3.349   7.005 -0.0354 -0.2135 -0.1525
  148POPC   NC3 2318   7.330   0.604   8.924  0.2460  0.0655  0.0339
  148POPC   PO4 2319   6.900   0.619   9.038  0.3358  0.0283 -0.0089
  148POPC   GL1 2320   6.977   0.414   8.637  0.1697  0.2203  0.1658
  148POPC   GL2 2321   6.580   0.337   8.679 -0.1354  0.2945  0.1801
  148POPC   C1A 2322   7.079   0.403   8.250 -0.0400  0.0146  0.0378
  148POPC   D2A 2323   6.989   0.744   7.963 -0.2635  0.0103  0.1546
  148POPC   C3A 2324   7.221   0.899   7.677 -0.1392  0.3026 -0.2287
  148POPC   C4A 2325   7.586   1.206   7.659  0.0540  0.1143  0.1333
  148POPC   C1B 2326   6.548   0.575   8.386  0.2697  0.1770  0.1516
  148POPC   C2B 2327   6.484   0.558   7.863  0.2770  0.1867 -0.1907
  148POPC   C3B 2328   6.448   0.633   7.485 -0.3296 -0.0649 -0.1401
  148POPC   C4B 2329   6.360   0.696   6.976  0.2772  0.1249 -0.0103
  149POPC   NC3 2330   6.897   8.265   9.101  0.3410 -0.0818  0.1954
  149POPC   PO4 2331   7.262   8.030   8.855  0.0455  0.1643  0.1606
  149POPC   GL1 2332   7.280   7.959   8.406 -0.1568  0.0360 -0.0450
  149POPC   GL2 2333   7.609   7.780   8.315  0.2997 -0.0679  0.2877
  149POPC   C1A 2334   7.243   8.022   7.957 -0.0652  0.1551 -0.2586
  149POPC   D2A 2335   6.962   8.369   7.667  0.1783  0.0034 -0.2835
  149POPC   C3A 2336   6.744   8.049   7.516  0.1227 -0.2913  0.1360
  149POPC   C4A 2337   6.520   7.765   7.705 -0.1587  0.0020 -0.2778
  149POPC   C1B 2338   7.795   7.666   7.924 -0.0687 -0.0641 -0.0119
  149POPC   C2B 2339   7.471   7.595   7.627 -0.0548 -0.0661  0.0756
  149POPC   C3B 2340   7.348   7.925   7.225 -0.0282  0.1404 -0.3168
  149POPC   C4B 2341   7.366   8.199   6.800  0.0213 -0.0287 -0.0057
  150POPC   NC3 2342   3.639   8.698   8.891  0.2441  0.1641 -0.0258
  150POPC   PO4 2343   3.208   8.849   8.775  0.0258  0.0345 -0.1684
  150POPC   GL1 2344   3.304   9.040   8.390  0.0083  0.2892 -0.0554
  150POPC   GL2 2345   3.632   8.887   8.412  0.3447 -0.2061  0.1737
  150POPC   C1A 2346   3.013   9.124   8.141  0.1309 -0.0202  0.0444
  150POPC   D2A 2347   2.847   9.396   7.735  0.0417 -0.2936 -0.3032
  150POPC   C3A 2348   2.839   9.307   7.341 -0.3293  0.1710 -0.0448
  150POPC   C4A 2349   2.932   8.946   7.104  0.0740 -0.1622 -0.1088
  150POPC   C1B 2350   3.554   9.084   7.977 -0.2406  0.2275  0.2378
  150POPC   C2B 2351   3.566   8.932   7.555 -0.1177 -0.2617  0.0934
  150POPC   C3B 2352   3.436   9.172   7.221  0.1506  0.3158 -0.0605
  150POPC   C4B 2353   3.398   9.265   6.778 -0.3860  0.0919  0.2515
  151POPC   NC3 2354   9.453   3.159   9.328 -0.0400  0.0546  0.0305
  151POPC   PO4 2355   9.292   2.986   8.897 -0.1796  0.2988 -0.0164
  151POPC   GL1 2356   9.273   3.079   8.526  0.0620  0.3874  0.2058
  151POPC   GL2 2357   9.356   3.391   8.455 -0.2801  0.1904  0.2700
  151POPC   C1A 2358   9.352   2.994   8.035  0.4435  0.1352 -0.2955
  151POPC   D2A 2359   9.387   3.141   7.630  0.1036 -0.1008 -0.2489
  151POPC   C3A 2360   9.213   2.989   7.303  0.1257 -0.2919 -0.0556
  151POPC   C4A 2361   9.019   3.077   6.856  0.3724  0.0277  0.2452
  151POPC   C1B 2362   9.154   3.427   8.030  0.2689 -0.2877 -0.0175
  151POPC   C2B 2363   8.933   3.414   7.598 -0.1651  0.0693 -0.1598
  151POPC   C3B 2364   8.648   3.288   7.206  0.2092  0.0212 -0.2233
  151POPC   C4B 2365   8.482   3.141   6.791  0.0053  0.0858 -0.0950
  152POPC   NC3 2366   9.779   2.941   8.976  0.1045  0.0978  0.1138
  152POPC   PO4 2367  10.335   2.855   8.943  0.2630 -0.0160  0.0980
  152POPC   GL1 2368  10.286   2.787   8.555  0.0330 -0.1915  0.2533
  152POPC   GL2 2369   9.947   2.650   8.542 -0.2851 -0.2673  0.0167
  152POPC   C1A 2370  10.185   2.880   8.033  0.3421  0.1447  0.1629
  152POPC   D2A 2371  10.272   2.904   7.703  0.2513 -0.0562 -0.1834
  152POPC   C3A 2372  10.606   3.137   7.493  0.0903 -0.2039  0.1103
  152POPC   C4A 2373  10.719   3.494   7.227 -0.3048 -0.0659  0.0027
  152POPC   C1B 2374   9.660   2.553   8.156  0.3245 -0.3187 -0.1740
  152POPC   C2B 2375   9.783   2.684   7.801  0.0854 -0.0464  0.2108
  152POPC   C3B 2376   9.750   2.864   7.423 -0.0196 -0.0565 -0.1454
  152POPC   C4B 2377   9.621   3.338   7.257 -0.1360  0.1685  0.0749
  153POPC   NC3 2378   5.784   0.034   9.260  0.1022  0.0983 -0.2029
  153POPC   PO4 2379   5.584  -0.161   8.965  0.2647 -0.0342 -0.1947
  153POPC   GL1 2380   5.520  -0.049   8.572 -0.0856 -0.0863  0.0202
  153POPC   GL2 2381   5.825  -0.024   8.402  0.1868  0.2170 -0.0046
  153POPC   C1A 2382   5.330   0.171   8.163 -0.0996 -0.0878 -0.2063
  153POPC   D2A 2383   5.411   0.234   7.633  0.1406 -0.0193  0.3770
  153POPC   C3A 2384   5.483   0.617   7.542 -0.2411 -0.0991  0.3735
  153POPC   C4A 2385   5.732   0.982   7.495  0.2083 -0.0342  0.1652
  153POPC   C1B 2386   5.740  -0.068   7.963 -0.1499 -0.0778  0.0162
  153POPC   C2B 2387   5.840   0.024   7.515 -0.0583 -0.2937 -0.2084
  153POPC   C3B 2388   6.156   0.123   7.202 -0.1723  0.1729 -0.2318
  153POPC   C4B 2389   6.421   0.179   6.837  0.2207  0.0733 -0.3987
  154POPC   NC3 2390   4.828   0.854   9.413  0.0079 -0.1035  0.0738
  154POPC   PO4 2391   5.155   1.158   9.431 -0.2048 -0.0936  0.2951
  154POPC   GL1 2392   5.528   1.282   9.088  0.0219 -0.3078 -0.2413
  154POPC   GL2 2393   5.534   1.647   9.084 -0.1600 -0.3596 -0.2339
  154POPC   C1A 2394   5.886   1.460   8.816  0.2356 -0.0226  0.1217
  154POPC   D2A 2395   6.225   1.434   8.394  0.1959  0.0540 -0.0420
  154POPC   C3A 2396   6.017   1.396   7.959  0.1689 -0.0064  0.1253
  154POPC   C4A 2397   5.601   1.404   7.712 -0.0106  0.1047 -0.1930
  154POPC   C1B 2398   5.658   1.917   8.716 -0.0413 -0.2060 -0.1866
  154POPC   C2B 2399   5.873   1.813   8.331  0.1350  0.1041  0.0210
  154POPC   C3B 2400   5.740   1.851   7.841  0.2583  0.2969  0.1615
  154POPC   C4B 2401   5.790   2.049   7.406 -0.0563  0.0605 -0.3205
  155POPC   NC3 2402   5.503   3.840   9.013 -0.2759 -0.2876 -0.0891
  155POPC   PO4 2403   5.909   3.755   9.024 -0.0871 -0.1469 -0.2763
  155POPC   GL1 2404   6.031   3.803   8.595  0.4721  0.0060 -0.0442
  155POPC   GL2 2405   6.176   3.634   8.513 -0.3308 -0.1833 -0.1658
  155POPC   C1A 2406   5.887   3.910   8.151  0.5859  0.1435  0.2990
  155POPC   D2A 2407   5.534   3.851   7.824  0.3186 -0.0099  0.0436
  155POPC   C3A 2408   5.552   3.912   7.392 -0.2452 -0.1446 -0.1783
  155POPC   C4A 2409   5.944   4.007   7.181  0.0389  0.4375  0.2162
  155POPC   C1B 2410   6.348   3.264   8.139  0.0064 -0.1146 -0.0809
  155POPC   C2B 2411   6.391   3.263   7.718  0.0226 -0.0602  0.0464
  155POPC   C3B 2412   6.673   3.220   7.404  0.1731  0.2952 -0.0763
  155POPC   C4B 2413   7.041   3.323   7.113  0.1681 -0.0578  0.2702
  156POPC   NC3 2414   0.358   5.370  10.316  0.4063  0.1037 -0.4080
  156POPC   PO4 2415   0.262   5.573   9.843 -0.1880 -0.1445 -0.0053
  156POPC   GL1 2416   0.112   5.684   9.410  0.1744  0.3368  0.2549
  156POPC   GL2 2417   0.079   5.496   9.171 -0.2493 -0.1919  0.2998
  156POPC   C1A 2418   0.117   6.005   9.026 -0.0675 -0.1359  0.0013
  156POPC   D2A 2419  -0.273   6.144   8.789 -0.2486  0.0251  0.0112
  156POPC   C3A 2420  -0.370   6.284   8.448  0.0866 -0.1522  0.1597
  156POPC   C4A 2421  -0.319   6.506   8.117 -0.1094  0.2034 -0.2112
  156POPC   C1B 2422  -0.277   5.635   8.944 -0.0443  0.2620 -0.1017
  156POPC   C2B 2423  -0.492   5.417   8.745 -0.0654 -0.3505 -0.1983
  156POPC   C3B 2424  -0.522   5.226   8.398  0.1188 -0.1900  0.3509
  156POPC   C4B 2425  -0.730   4.891   8.258  0.1477  0.0984  0.1792
  157POPC   NC3 2426   4.783   4.031   5.597 -0.3091  0.3821 -0.4323
  157POPC   PO4 2427   5.160   4.020   5.737  0.0552  0.0477  0.1639
  157POPC   GL1 2428   5.103   4.172   6.095 -0.2929 -0.2526 -0.0567
  157POPC   GL2 2429   4.824   4.166   6.193 -0.0215 -0.2058 -0.1626
  157POPC   C1A 2430   5.183   3.983   6.545  0.1274 -0.1389  0.0135
  157POPC   D2A 2431   5.166   3.768   6.838  0.4380  0.0824 -0.2573
  157POPC   C3A 2432   5.579   3.560   6.998 -0.1499  0.2341 -0.2782
  157POPC   C4A 2433   5.857   3.424   7.247  0.1014  0.1278 -0.3128
  157POPC   C1B 2434   4.747   4.198   6.685 -0.1471  0.0097 -0.3875
  157POPC   C2B 2435   4.551   4.400   7.034  0.0972 -0.0518 -0.1622
  157POPC   C3B 2436   4.191   4.220   7.232 -0.2781 -0.0190 -0.2720
  157POPC   C4B 2437   3.873   3.928   7.166  0.1710  0.2679 -0.0147
  158POPC   NC3 2438   7.730   8.156   5.299 -0.0322  0.0412  0.0073
  158POPC   PO4 2439   7.942   8.539   5.285 -0.0944  0.2075 -0.1280
  158POPC   GL1 2440   7.711   8.510   5.743  0.1345  0.2326 -0.0158
  158POPC   GL2 2441   7.669   8.192   5.833 -0.2393  0.3502  0.1627
  158POPC   C1A 2442   7.709   8.482   6.250  0.1091  0.0203 -0.2054
  158POPC   D2A 2443   7.865   8.449   6.762  0.2632  0.1663  0.1879
  158POPC   C3A 2444   8.189   8.696   6.980 -0.0309 -0.3044  0.0472
  158POPC   C4A 2445   8.527   8.888   7.196 -0.0969  0.0440 -0.0038
  158POPC   C1B 2446   8.079   8.261   6.024 -0.1806 -0.1190  0.0121
  158POPC   C2B 2447   8.266   8.272   6.384 -0.1155  0.0068  0.0664
  158POPC   C3B 2448   8.575   8.016   6.547  0.1783 -0.3004 -0.3522
  158POPC   C4B 2449   9.042   7.985   6.593 -0.0177  0.3319 -0.1233
  159POPC   NC3 2450   5.201   2.963   5.628  0.3013 -0.1014  0.3944
  159POPC   PO4 2451   5.270   2.603   5.627 -0.2063 -0.0868 -0.0870
  159POPC   GL1 2452   5.076   2.468   6.006  0.0301  0.1639 -0.1328
  159POPC   GL2 2453   5.431   2.503   6.082 -0.1424 -0.3264  0.0443
  159POPC   C1A 2454   5.148   2.054   6.258 -0.4247 -0.0391  0.0445
  159POPC   D2A 2455   5.394   1.711   6.385  0.1078 -0.0955  0.4958
  159POPC   C3A 2456   5.135   1.327   6.603  0.1487 -0.1254 -0.1018
  159POPC   C4A 2457   5.218   0.981   6.599 -0.1066 -0.1140 -0.0270
  159POPC   C1B 2458   5.629   2.174   6.170 -0.4547  0.1600  0.2981
  159POPC   C2B 2459   6.059   2.084   6.125 -0.0355 -0.0359 -0.0754
  159POPC   C3B 2460   6.357   2.407   6.044 -0.1129 -0.1255 -0.0836
  159POPC   C4B 2461   6.591   2.733   6.240 -0.1901  0.0329 -0.2577
  160POPC   NC3 2462   8.817   1.155   5.128  0.3126  0.0788 -0.1756
  160POPC   PO4 2463   9.044   1.382   4.948 -0.0706  0.1323 -0.0017
  160POPC   GL1 2464   8.967   1.600   5.295  0.1351  0.2503  0.0930
  160POPC   GL2 2465   8.991   1.485   5.527  0.0511 -0.3072  0.4196
  160POPC   C1A 2466   9.128   2.031   5.504 -0.1674  0.2838 -0.0200
  160POPC   D2A 2467   9.061   2.325   5.725 -0.3000 -0.2588 -0.2424
  160POPC   C3A 2468   9.233   2.612   6.067  0.0458 -0.0732  0.0973
  160POPC   C4A 2469   9.170   2.645   6.586 -0.2383 -0.6413  0.0679
  160POPC   C1B 2470   9.361   1.582   5.598  0.0871  0.2795  0.0887
  160POPC   C2B 2471   9.597   1.369   5.854 -0.2230 -0.1784 -0.0273
  160POPC   C3B 2472   9.742   1.157   6.135  0.0495 -0.0620  0.2591
  160POPC   C4B 2473  10.073   1.303   6.367 -0.0094 -0.1374 -0.1132
  161POPC   NC3 2474   0.007   9.683   4.218 -0.0764 -0.1024  0.0221
  161POPC   PO4 2475   0.372   9.905   4.424 -0.2539  0.3916 -0.0622
  161POPC   GL1 2476   0.330   9.997   4.892  0.1917 -0.2392  0.4447
  161POPC   GL2 2477   0.367   9.685   5.009  0.3382 -0.0985 -0.1284
  161POPC   C1A 2478   0.361  10.008   5.374  0.0807  0.1296 -0.0248
  161POPC   D2A 2479   0.531   9.929   5.799  0.2325  0.2945  0.4201
  161POPC   C3A 2480   0.323   9.776   6.160 -0.1128 -0.1116  0.1849
  161POPC   C4A 2481   0.349   9.595   6.561 -0.4774  0.0801 -0.1955
  161POPC   C1B 2482   0.516   9.538   5.389 -0.0541  0.1209  0.0187
  161POPC   C2B 2483   0.692   9.448   5.779 -0.1845  0.1973  0.0398
  161POPC   C3B 2484   0.512   9.293   6.140 -0.0438  0.0294 -0.0781
  161POPC   C4B 2485   0.133   9.199   6.363  0.2961  0.0656  0.0538
  162POPC   NC3 2486   1.046   7.659   4.075  0.2119  0.2162  0.1845
  162POPC   PO4 2487   1.452   7.854   4.073 -0.0828 -0.0340 -0.0532
  162POPC   GL1 2488   1.378   8.046   4.525  0.1743  0.1139  0.2538
  162POPC   GL2 2489   1.668   8.164   4.691  0.0526 -0.1168 -0.2652
  162POPC   C1A 2490   1.315   7.796   4.964  0.6497 -0.1229 -0.1068
  162POPC   D2A 2491   1.236   7.653   5.367  0.2530 -0.1612 -0.1635
  162POPC   C3A 2492   1.244   7.155   5.413  0.0985  0.0183 -0.0936
  162POPC   C4A 2493   0.940   6.773   5.383  0.0165 -0.1725 -0.3276
  162POPC   C1B 2494   1.806   8.164   5.100 -0.0282 -0.0795  0.2182
  162POPC   C2B 2495   2.088   8.007   5.369 -0.2512 -0.1253  0.1093
  162POPC   C3B 2496   2.119   7.717   5.660  0.0070  0.1040  0.2362
  162POPC   C4B 2497   2.207   7.434   5.902  0.0454 -0.2897  0.1629
  163POPC   NC3 2498   0.540   0.345   5.105 -0.2291  0.2169 -0.1905
  163POPC   PO4 2499   0.396   0.739   5.319 -0.0015 -0.0588  0.1820
  163POPC   GL1 2500   0.219   0.636   5.695  0.0783  0.3322  0.0413
  163POPC   GL2 2501  -0.165   0.668   5.563 -0.1667  0.0410  0.3457
  163POPC   C1A 2502   0.142   0.704   6.161  0.2140  0.1828 -0.4295
  163POPC   D2A 2503   0.008   0.950   6.517 -0.0082 -0.1453 -0.3380
  163POPC   C3A 2504  -0.348   0.863   6.727  0.1843 -0.1597  0.0260
  163POPC   C4A 2505  -0.568   0.874   7.066 -0.1006  0.0281 -0.2401
  163POPC   C1B 2506  -0.083   0.272   6.003 -0.0499 -0.0439 -0.2743
  163POPC   C2B 2507   0.398   0.291   6.186 -0.0102 -0.2628 -0.1817
  163POPC   C3B 2508   0.653   0.191   6.466  0.0062  0.0017  0.1339
  163POPC   C4B 2509   0.941   0.021   6.665 -0.0055  0.2211 -0.0936
  164POPC   NC3 2510   3.843   8.560   4.716  0.1682 -0.1882 -0.0814
  164POPC   PO4 2511   3.836   8.151   4.511 -0.3199  0.0682  0.2370
  164POPC   GL1 2512   3.908   7.994   4.921  0.1148 -0.2712  0.3406
  164POPC   GL2 2513   4.050   7.762   5.004 -0.1457  0.0456 -0.1851
  164POPC   C1A 2514   4.096   8.160   5.255 -0.0104 -0.1280  0.1009
  164POPC   D2A 2515   4.180   8.189   5.609 -0.0722  0.0667 -0.0848
  164POPC   C3A 2516   3.905   7.893   5.829  0.1078  0.1214  0.0364
  164POPC   C4A 2517   3.785   7.763   6.269  0.1114 -0.0370 -0.1078
  164POPC   C1B 2518   3.572   7.782   5.231 -0.3578  0.1830  0.2790
  164POPC   C2B 2519   3.357   8.000   5.508 -0.0279 -0.2034 -0.2816
  164POPC   C3B 2520   3.583   8.329   5.635  0.1591  0.0774 -0.1054
  164POPC   C4B 2521   3.889   8.679   5.711  0.0767  0.1689 -0.0193
  165POPC   NC3 2522   9.564  10.172   5.032  0.1534  0.0535 -0.0089
  165POPC   PO4 2523   9.597  10.561   5.255 -0.3593  0.0008  0.1768
  165POPC   GL1 2524   9.921  10.374   5.511  0.1682  0.1706  0.2071
  165POPC   GL2 2525  10.307  10.540   5.534  0.0015  0.1715 -0.3239
  165POPC   C1A 2526   9.933  10.392   5.807 -0.2054 -0.0920  0.0648
  165POPC   D2A 2527  10.054  10.284   6.121  0.0433  0.1077  0.1764
  165POPC   C3A 2528  10.000  10.384   6.488  0.1590  0.0216  0.1046
  165POPC   C4A 2529  10.071  10.282   6.803  0.1275  0.0383 -0.2190
  165POPC   C1B 2530  10.749  10.481   5.713  0.2900  0.0690 -0.2909
  165POPC   C2B 2531  11.130  10.717   5.826 -0.0292 -0.0500  0.0675
  165POPC   C3B 2532  11.405  10.801   6.042  0.0849  0.1151  0.0028
  165POPC   C4B 2533  11.517  10.387   6.201 -0.1487  0.0595 -0.0800
  166POPC   NC3 2534   4.623   2.661   5.197 -0.0563 -0.1213 -0.1130
  166POPC   PO4 2535   4.780   2.650   5.582  0.2214 -0.0473  0.1613
  166POPC   GL1 2536   4.749   2.874   6.050 -0.2713 -0.3623  0.0281
  166POPC   GL2 2537   5.096   3.133   6.099 -0.2355  0.2749 -0.3524
  166POPC   C1A 2538   4.813   2.973   6.473 -0.1304  0.1450 -0.1790
  166POPC   D2A 2539   5.071   3.018   6.717 -0.0692  0.2301  0.2847
  166POPC   C3A 2540   5.329   3.345   6.645  0.0864  0.1204  0.1419
  166POPC   C4A 2541   5.522   3.653   6.391  0.1344 -0.1220 -0.2821
  166POPC   C1B 2542   5.382   2.965   6.316  0.0026  0.0317  0.1702
  166POPC   C2B 2543   5.559   2.784   6.653  0.1559  0.1785  0.1757
  166POPC   C3B 2544   5.904   2.456   6.788  0.1449 -0.2092 -0.2560
  166POPC   C4B 2545   5.819   2.085   6.688 -0.2200  0.1536 -0.0756
  167POPC   NC3 2546   5.455  10.121   5.363 -0.1003 -0.1776  0.1408
  167POPC   PO4 2547   5.521   9.761   5.355 -0.1278 -0.0231 -0.1086
  167POPC   GL1 2548   5.219   9.821   5.662  0.2700  0.1967  0.0507
  167POPC   GL2 2549   5.034  10.027   5.559  0.0299 -0.3361 -0.1794
  167POPC   C1A 2550   4.890   9.560   5.839  0.4021  0.0220  0.2843
  167POPC   D2A 2551   4.899   9.197   6.048 -0.0112 -0.1273  0.3132
  167POPC   C3A 2552   5.055   9.070   6.391 -0.1346  0.0411  0.2001
  167POPC   C4A 2553   5.166   8.876   6.508 -0.0299  0.0905 -0.3145
  167POPC   C1B 2554   4.781  10.127   6.007  0.1001  0.2557  0.0444
  167POPC   C2B 2555   4.737  10.048   6.459 -0.0531 -0.6128 -0.0482
  167POPC   C3B 2556   5.036   9.962   6.714 -0.2219  0.0242 -0.2500
  167POPC   C4B 2557   5.385  10.051   6.622  0.1503 -0.0257  0.0118
  168POPC   NC3 2558   0.113  10.426   4.937  0.1445 -0.1014  0.2815
  168POPC   PO4 2559  -0.320  10.506   5.077 -0.1178 -0.1698  0.2188
  168POPC   GL1 2560  -0.273  10.029   5.175 -0.0536 -0.1929 -0.0369
  168POPC   GL2 2561  -0.611   9.874   5.343 -0.0854  0.0604  0.0047
  168POPC   C1A 2562  -0.056   9.709   5.335  0.2547 -0.0703  0.0687
  168POPC   D2A 2563   0.130   9.522   5.801 -0.3053  0.2265 -0.0094
  168POPC   C3A 2564  -0.169   9.668   6.103  0.0401  0.1630 -0.0521
  168POPC   C4A 2565  -0.146   9.873   6.501 -0.2162  0.2526  0.0364
  168POPC   C1B 2566  -0.399   9.927   5.697  0.2272 -0.1559  0.0947
  168POPC   C2B 2567   0.040  10.022   5.789 -0.0617  0.0800  0.1550
  168POPC   C3B 2568   0.152  10.278   6.133  0.0001  0.1844 -0.0258
  168POPC   C4B 2569   0.112  10.527   6.514  0.1881  0.0701 -0.0312
  169POPC   NC3 2570   9.094   4.650   4.639 -0.2858 -0.2416  0.0673
  169POPC   PO4 2571   9.467   4.927   4.702  0.0269  0.1083 -0.3744
  169POPC   GL1 2572   9.561   5.079   5.106  0.1049 -0.1107  0.2343
  169POPC   GL2 2573   9.685   5.447   5.062 -0.1053 -0.0354 -0.1008
  169POPC   C1A 2574   9.702   5.202   5.545 -0.3449  0.2041 -0.0032
  169POPC   D2A 2575   9.330   5.329   5.850  0.3523  0.1724 -0.0978
  169POPC   C3A 2576   9.239   5.572   6.164 -0.0107 -0.2031 -0.0027
  169POPC   C4A 2577   9.115   5.998   6.274 -0.0742 -0.1841 -0.1154
  169POPC   C1B 2578  10.062   5.589   5.353  0.0049 -0.3035 -0.0246
  169POPC   C2B 2579  10.373   5.785   5.502  0.1447 -0.0478 -0.2191
  169POPC   C3B 2580  10.695   5.783   5.768  0.1363  0.1593 -0.1518
  169POPC   C4B 2581  11.218   5.815   5.906  0.0935  0.0185  0.0061
  170POPC   NC3 2582   5.537   7.891   4.977 -0.0350  0.0495  0.0314
  170POPC   PO4 2583   5.072   7.983   4.970  0.0784 -0.1072 -0.4010
  170POPC   GL1 2584   5.052   8.081   5.396  0.0770 -0.1573 -0.1104
  170POPC   GL2 2585   5.390   7.923   5.480  0.0545  0.1888 -0.0227
  170POPC   C1A 2586   4.981   8.154   5.881  0.1752 -0.3294  0.0445
  170POPC   D2A 2587   4.975   8.151   6.348  0.0780  0.0719  0.0695
  170POPC   C3A 2588   4.956   8.434   6.654  0.2057  0.0867  0.2098
  170POPC   C4A 2589   4.679   8.839   6.894 -0.0402 -0.1840 -0.0795
  170POPC   C1B 2590   5.800   7.693   5.593 -0.0262  0.2179  0.0255
  170POPC   C2B 2591   5.893   7.555   6.086 -0.3365  0.1720  0.0271
  170POPC   C3B 2592   5.736   7.504   6.519 -0.1086  0.0859 -0.0670
  170POPC   C4B 2593   5.774   7.215   6.878 -0.1262  0.2641 -0.2277
  171POPC   NC3 2594   1.642   6.578   3.249 -0.1072  0.0085 -0.1285
  171POPC   PO4 2595   1.990   6.368   3.557 -0.0010  0.0333  0.1983
  171POPC   GL1 2596   1.833   6.059   3.861 -0.1635  0.4210 -0.1478
  171POPC   GL2 2597   2.108   5.943   4.137 -0.0870  0.0858 -0.3812
  171POPC   C1A 2598   1.712   6.211   4.275 -0.1603 -0.4507 -0.1845
  171POPC   D2A 2599   1.898   6.146   4.662  0.1345 -0.1240  0.1866
  171POPC   C3A 2600   2.027   6.352   5.095  0.1505  0.0928 -0.1997
  171POPC   C4A 2601   1.956   6.489   5.517  0.1523  0.0785 -0.1752
  171POPC   C1B 2602   2.142   5.641   4.503  0.2110 -0.0981  0.0831
  171POPC   C2B 2603   2.238   5.202   4.615  0.1003 -0.1623  0.6032
  171POPC   C3B 2604   1.817   5.163   4.866 -0.2625  0.4713  0.2005
  171POPC   C4B 2605   1.496   5.086   5.093  0.1294 -0.0861 -0.2009
  172POPC   NC3 2606   1.368   3.177   5.232  0.2440  0.2656 -0.0752
  172POPC   PO4 2607   1.328   2.709   5.279 -0.1190 -0.0469  0.3894
  172POPC   GL1 2608   1.335   2.763   5.651  0.0942 -0.1292 -0.0288
  172POPC   GL2 2609   1.696   2.694   5.794  0.0380  0.0230 -0.0621
  172POPC   C1A 2610   1.250   2.924   6.035 -0.0922  0.1252 -0.0447
  172POPC   D2A 2611   1.410   2.835   6.491  0.1230  0.0910  0.1947
  172POPC   C3A 2612   1.096   2.726   6.901 -0.0247  0.0094  0.0472
  172POPC   C4A 2613   0.792   2.731   7.275 -0.2116  0.1704  0.2520
  172POPC   C1B 2614   1.750   2.938   6.155  0.5699 -0.1126  0.2329
  172POPC   C2B 2615   1.936   2.943   6.497  0.1968 -0.0350 -0.1167
  172POPC   C3B 2616   1.921   2.879   6.980  0.2027 -0.1706  0.2003
  172POPC   C4B 2617   1.740   3.008   7.373 -0.1375  0.0187 -0.0101
  173POPC   NC3 2618   4.884   0.963   5.345  0.1058 -0.0395  0.1518
  173POPC   PO4 2619   5.084   1.198   5.612 -0.1191  0.0220 -0.2136
  173POPC   GL1 2620   5.222   0.785   5.870 -0.0054 -0.1058  0.2828
  173POPC   GL2 2621   5.248   0.583   5.665 -0.3383  0.1849 -0.3622
  173POPC   C1A 2622   5.359   0.597   6.265  0.2048 -0.1988 -0.0417
  173POPC   D2A 2623   5.561   0.632   6.729 -0.2433 -0.2051 -0.0237
  173POPC   C3A 2624   5.333   0.869   7.085 -0.1487  0.1173 -0.0055
  173POPC   C4A 2625   5.218   1.078   7.520  0.0254  0.2509 -0.0135
  173POPC   C1B 2626   5.519   0.306   5.912 -0.0849 -0.2327 -0.2327
  173POPC   C2B 2627   5.820  -0.021   6.027  0.1673 -0.0681  0.0188
  173POPC   C3B 2628   5.704  -0.520   6.125 -0.1611 -0.0090  0.2146
  173POPC   C4B 2629   5.774  -0.705   6.532 -0.0910  0.0566  0.1478
  174POPC   NC3 2630   6.574   2.263   5.307 -0.5117 -0.0784 -0.2429
  174POPC   PO4 2631   6.645   2.616   5.044 -0.1862  0.0613 -0.0970
  174POPC   GL1 2632   6.773   2.702   5.453  0.0652  0.0830  0.0585
  174POPC   GL2 2633   6.818   2.500   5.700 -0.0511  0.0499 -0.5354
  174POPC   C1A 2634   7.170   2.930   5.656  0.0974  0.2301  0.0900
  174POPC   D2A 2635   7.569   2.969   5.929 -0.1743  0.3176  0.2768
  174POPC   C3A 2636   7.687   3.004   6.375 -0.0677  0.2834  0.0606
  174POPC   C4A 2637   7.437   2.832   6.692 -0.0750 -0.0896 -0.1069
  174POPC   C1B 2638   6.922   2.348   6.044 -0.0952 -0.0092  0.1815
  174POPC   C2B 2639   6.964   2.318   6.504  0.0504  0.2269 -0.2486
  174POPC   C3B 2640   6.820   2.273   6.937  0.0748  0.0990 -0.0562
  174POPC   C4B 2641   6.672   2.344   7.295  0.1863 -0.2617  0.5359
  175POPC   NC3 2642   9.948   1.509   4.525  0.2762  0.0839 -0.0442
  175POPC   PO4 2643   9.829   1.654   4.895  0.0390 -0.2769 -0.0607
  175POPC   GL1 2644   9.897   1.938   5.336  0.1216  0.1708 -0.1581
  175POPC   GL2 2645  10.228   1.945   5.426 -0.1676  0.1343 -0.0489
  175POPC   C1A 2646   9.670   1.942   5.699  0.1544 -0.2373 -0.2257
  175POPC   D2A 2647   9.299   2.029   6.065  0.0445 -0.2179  0.1251
  175POPC   C3A 2648   9.182   2.048   6.488  0.2343  0.0714  0.0733
  175POPC   C4A 2649   9.397   2.138   6.806 -0.0280  0.0197 -0.2022
  175POPC   C1B 2650  10.091   1.825   5.801 -0.2672 -0.0632 -0.1090
  175POPC   C2B 2651   9.769   1.797   6.183  0.0230 -0.1305 -0.2489
  175POPC   C3B 2652   9.769   1.801   6.598 -0.2344 -0.0804 -0.3354
  175POPC   C4B 2653  10.198   1.565   6.821  0.1054  0.1250 -0.2577
  176POPC   NC3 2654   7.234   7.945   5.149  0.1885 -0.1771  0.1609
  176POPC   PO4 2655   7.385   7.913   5.536  0.2847 -0.0777  0.2490
  176POPC   GL1 2656   7.120   8.157   5.879 -0.0768  0.0341  0.0027
  176POPC   GL2 2657   7.259   8.470   5.981  0.0074 -0.1704  0.2494
  176POPC   C1A 2658   6.896   8.292   6.255 -0.0000  0.2265  0.0137
  176POPC   D2A 2659   6.892   8.353   6.644 -0.2194 -0.0225  0.5174
  176POPC   C3A 2660   6.834   8.805   6.746 -0.0783  0.4660 -0.2298
  176POPC   C4A 2661   6.365   8.869   6.773  0.1440  0.0898 -0.3684
  176POPC   C1B 2662   7.226   8.749   6.267  0.1752  0.1603  0.1976
  176POPC   C2B 2663   7.388   8.733   6.740 -0.0472 -0.0269 -0.0878
  176POPC   C3B 2664   7.600   8.667   7.103 -0.3271 -0.0379 -0.3348
  176POPC   C4B 2665   7.874   8.401   7.340  0.1558 -0.0106 -0.1224
  177POPC   NC3 2666   7.286   1.122   5.102  0.1920  0.0627 -0.1877
  177POPC   PO4 2667   7.507   1.436   4.953  0.3011 -0.2687  0.1075
  177POPC   GL1 2668   7.530   1.537   5.374  0.1693  0.2718  0.2901
  177POPC   GL2 2669   7.661   1.870   5.537 -0.2070  0.1050 -0.2060
  177POPC   C1A 2670   7.740   1.335   5.787 -0.0433  0.1851 -0.0818
  177POPC   D2A 2671   8.139   1.367   5.968 -0.1817 -0.0027  0.1763
  177POPC   C3A 2672   8.224   1.344   6.398  0.1400 -0.2701  0.2198
  177POPC   C4A 2673   8.698   1.366   6.515 -0.0140 -0.1167 -0.0768
  177POPC   C1B 2674   7.656   1.775   5.978  0.0635 -0.0152 -0.1060
  177POPC   C2B 2675   7.561   1.697   6.486 -0.2659 -0.0516 -0.2346
  177POPC   C3B 2676   7.800   1.498   6.752 -0.0392 -0.1820 -0.0350
  177POPC   C4B 2677   8.264   1.485   6.883 -0.3642 -0.2280  0.0078
  178POPC   NC3 2678   4.626   4.912   5.001 -0.0891 -0.3118 -0.0749
  178POPC   PO4 2679   5.093   4.960   5.242 -0.1270  0.1354 -0.1521
  178POPC   GL1 2680   5.119   4.986   5.640 -0.0925  0.0573  0.2465
  178POPC   GL2 2681   5.296   5.207   5.753 -0.0969 -0.3896 -0.1062
  178POPC   C1A 2682   4.844   5.058   6.016 -0.0681  0.2049  0.1011
  178POPC   D2A 2683   4.713   5.116   6.433  0.1243 -0.1804 -0.3205
  178POPC   C3A 2684   4.325   5.115   6.459  0.0636 -0.1102 -0.1128
  178POPC   C4A 2685   3.820   5.100   6.378 -0.1532 -0.1900  0.0658
  178POPC   C1B 2686   5.179   5.428   6.055 -0.0112  0.1611 -0.0840
  178POPC   C2B 2687   5.046   5.558   6.381 -0.1873  0.0286  0.0039
  178POPC   C3B 2688   5.082   5.732   6.772  0.2333 -0.0325  0.0833
  178POPC   C4B 2689   4.838   5.949   7.169 -0.2511  0.2486 -0.0142
  179POPC   NC3 2690   9.944   6.024   4.281 -0.0976  0.1845 -0.0337
  179POPC   PO4 2691  10.360   5.980   4.136  0.0101  0.0042  0.3203
  179POPC   GL1 2692  10.462   6.210   4.514  0.1159 -0.0338 -0.1370
  179POPC   GL2 2693  10.783   6.050   4.307  0.0531 -0.3081  0.3071
  179POPC   C1A 2694  10.678   6.413   4.858 -0.0560  0.2312 -0.0292
  179POPC   D2A 2695  10.607   6.524   5.217  0.2052 -0.0318  0.0843
  179POPC   C3A 2696  10.342   6.274   5.455  0.1685 -0.2553  0.2688
  179POPC   C4A 2697   9.952   6.101   5.381  0.2362  0.5925 -0.3076
  179POPC   C1B 2698  11.103   6.290   4.611  0.2317  0.0354 -0.2185
  179POPC   C2B 2699  11.129   6.326   5.087  0.2549  0.0522 -0.3579
  179POPC   C3B 2700  11.521   6.236   5.270  0.0618  0.1685  0.5598
  179POPC   C4B 2701  11.871   6.217   5.601 -0.1571  0.0603 -0.1486
  180POPC   NC3 2702   0.148   5.516   3.993 -0.2780 -0.1820 -0.3205
  180POPC   PO4 2703   0.476   5.243   4.123 -0.0983  0.0875  0.1540
  180POPC   GL1 2704   0.741   5.097   4.433 -0.0333  0.4597 -0.2716
  180POPC   GL2 2705   0.962   4.927   4.277  0.1365 -0.0383  0.1166
  180POPC   C1A 2706   1.076   5.071   4.742  0.0134  0.0891 -0.2800
  180POPC   D2A 2707   1.086   5.310   5.131  0.2147 -0.1335  0.0285
  180POPC   C3A 2708   1.019   5.824   5.023  0.0138 -0.0935  0.0022
  180POPC   C4A 2709   1.179   6.160   4.751  0.0041  0.1862  0.3902
  180POPC   C1B 2710   1.069   5.417   4.411  0.1733 -0.1046 -0.0576
  180POPC   C2B 2711   1.366   5.511   4.751  0.2732 -0.0231 -0.2185
  180POPC   C3B 2712   1.766   5.722   4.849  0.1352  0.4177  0.2115
  180POPC   C4B 2713   2.063   5.858   5.104 -0.0052 -0.1164 -0.0832
  181POPC   NC3 2714   1.160   0.131   4.321  0.0444 -0.1244  0.0311
  181POPC   PO4 2715   1.244  -0.227   4.615 -0.0795  0.2054  0.3174
  181POPC   GL1 2716   1.317  -0.461   4.945  0.2359 -0.1664 -0.0195
  181POPC   GL2 2717   1.274  -0.160   5.225 -0.0708  0.2401  0.0245
  181POPC   C1A 2718   1.413  -0.825   5.230 -0.0786 -0.1808  0.0669
  181POPC   D2A 2719   1.465  -0.929   5.733  0.1470  0.2879 -0.1412
  181POPC   C3A 2720   1.281  -1.042   6.056  0.1798  0.0834 -0.0329
  181POPC   C4A 2721   0.982  -1.237   6.307 -0.2368 -0.2088 -0.2165
  181POPC   C1B 2722   1.422  -0.354   5.514  0.0266 -0.0109 -0.0219
  181POPC   C2B 2723   1.637  -0.221   5.945 -0.2637  0.0660 -0.0071
  181POPC   C3B 2724   1.582  -0.051   6.401  0.3240 -0.0111 -0.0090
  181POPC   C4B 2725   1.450  -0.004   6.764  0.0592 -0.4317  0.1422
  182POPC   NC3 2726   2.926   2.419   5.305 -0.3724  0.0740 -0.4019
  182POPC   PO4 2727   2.520   2.621   5.256 -0.0441 -0.0416 -0.3688
  182POPC   GL1 2728   2.655   2.664   5.641 -0.1539 -0.2350 -0.1631
  182POPC   GL2 2729   2.700   3.051   5.753  0.2055  0.0507 -0.1592
  182POPC   C1A 2730   2.551   2.685   6.063 -0.2067  0.0188  0.2480
  182POPC   D2A 2731   2.487   2.926   6.374  0.0047  0.2981 -0.2694
  182POPC   C3A 2732   2.595   2.814   6.819  0.1669  0.0478 -0.1430
  182POPC   C4A 2733   2.695   2.644   7.209  0.0312  0.0604  0.1879
  182POPC   C1B 2734   2.251   3.140   5.968 -0.1612  0.2248 -0.1829
  182POPC   C2B 2735   1.977   3.422   6.293  0.1918  0.2098 -0.0251
  182POPC   C3B 2736   1.686   3.377   6.735 -0.2484 -0.3234 -0.3158
  182POPC   C4B 2737   1.341   3.182   6.866 -0.0245  0.1664 -0.3775
  183POPC   NC3 2738   5.875   2.281   5.275  0.1655  0.1097  0.0730
  183POPC   PO4 2739   5.751   2.691   5.183 -0.1091  0.0741 -0.1632
  183POPC   GL1 2740   5.766   2.727   5.642  0.2633 -0.3124 -0.3819
  183POPC   GL2 2741   5.830   2.458   5.844 -0.1366  0.0749 -0.1220
  183POPC   C1A 2742   6.043   2.977   6.052  0.1155 -0.2810 -0.1599
  183POPC   D2A 2743   5.804   3.206   6.364 -0.1703 -0.0792  0.4986
  183POPC   C3A 2744   5.840   3.155   6.775  0.1027 -0.0436 -0.0411
  183POPC   C4A 2745   5.883   2.888   7.020  0.1659 -0.2757 -0.2861
  183POPC   C1B 2746   5.944   2.583   6.323  0.0849 -0.0511 -0.2625
  183POPC   C2B 2747   6.215   2.879   6.524  0.0021 -0.2045 -0.2188
  183POPC   C3B 2748   6.470   3.156   6.661 -0.2210  0.1536 -0.1596
  183POPC   C4B 2749   6.553   3.478   6.930  0.0997 -0.1386  0.1286
  184POPC   NC3 2750   7.434   9.912   4.862 -0.0514  0.0892 -0.0670
  184POPC   PO4 2751   7.435   9.660   5.321 -0.0074  0.0521  0.1465
  184POPC   GL1 2752   7.422   9.714   5.788 -0.1186 -0.2049 -0.0845
  184POPC   GL2 2753   7.558   9.615   6.132 -0.1949  0.1269  0.2003
  184POPC   C1A 2754   7.666  10.069   5.954 -0.0098  0.1481  0.0368
  184POPC   D2A 2755   7.926  10.357   5.702  0.0359  0.2781 -0.1210
  184POPC   C3A 2756   8.338  10.522   5.994  0.0643 -0.0464 -0.1884
  184POPC   C4A 2757   8.309  10.587   6.410  0.4065 -0.4001 -0.3467
  184POPC   C1B 2758   7.759   9.830   6.494 -0.2069  0.3686 -0.2052
  184POPC   C2B 2759   8.065   9.623   6.881  0.0790 -0.0140 -0.0035
  184POPC   C3B 2760   8.445   9.743   7.163 -0.1726 -0.2088  0.2675
  184POPC   C4B 2761   8.707  10.034   7.444 -0.1554 -0.1388  0.1221
  185POPC   NC3 2762   6.092   1.455   5.154 -0.1145  0.0154 -0.0286
  185POPC   PO4 2763   6.240   1.855   5.251  0.0629 -0.0503 -0.1018
  185POPC   GL1 2764   6.258   1.615   5.668 -0.2365  0.0749  0.0237
  185POPC   GL2 2765   5.942   1.654   5.867 -0.0872  0.0700 -0.1470
  185POPC   C1A 2766   6.344   1.642   6.135 -0.0690 -0.0569  0.2009
  185POPC   D2A 2767   6.216   1.764   6.627 -0.0621 -0.0547 -0.1989
  185POPC   C3A 2768   6.334   1.445   6.976 -0.1678 -0.3012 -0.1395
  185POPC   C4A 2769   6.546   1.503   7.377  0.1285 -0.1252 -0.0605
  185POPC   C1B 2770   5.864   1.564   6.257  0.2399  0.2820 -0.0607
  185POPC   C2B 2771   5.774   1.614   6.654  0.1463 -0.2223  0.1961
  185POPC   C3B 2772   5.881   1.673   7.016 -0.1005  0.0608 -0.3956
  185POPC   C4B 2773   5.997   1.506   7.408  0.0628 -0.0645  0.2189
  186POPC   NC3 2774   0.007   4.438   4.143 -0.2688  0.0318  0.1505
  186POPC   PO4 2775   0.016   4.484   4.514  0.1639 -0.1866  0.3151
  186POPC   GL1 2776   0.143   4.825   4.761 -0.0531  0.0336 -0.0986
  186POPC   GL2 2777   0.241   5.161   4.657  0.0106  0.1240  0.0513
  186POPC   C1A 2778   0.194   4.911   5.139 -0.0193 -0.1988 -0.0266
  186POPC   D2A 2779   0.252   4.775   5.585  0.0978  0.0134  0.1689
  186POPC   C3A 2780   0.549   4.752   5.779  0.0066 -0.0898  0.2335
  186POPC   C4A 2781   0.853   4.846   5.993  0.1043 -0.4739 -0.1751
  186POPC   C1B 2782   0.649   5.429   4.875  0.0940  0.2190  0.2081
  186POPC   C2B 2783   0.658   5.651   5.307 -0.2496  0.2503  0.0158
  186POPC   C3B 2784   1.071   5.752   5.539 -0.0626 -0.4584 -0.2980
  186POPC   C4B 2785   1.307   5.863   5.927 -0.0212 -0.1097 -0.1894
  187POPC   NC3 2786   1.246   2.181   5.307  0.0414 -0.2099  0.1007
  187POPC   PO4 2787   0.888   1.962   5.128 -0.0173 -0.3096 -0.1429
  187POPC   GL1 2788   0.905   1.827   5.623 -0.1786  0.0275 -0.0903
  187POPC   GL2 2789   1.231   1.803   5.666 -0.0663 -0.2306 -0.2244
  187POPC   C1A 2790   0.672   2.056   5.896 -0.1215  0.0114 -0.2037
  187POPC   D2A 2791   0.587   2.270   6.195 -0.2679  0.3332 -0.0256
  187POPC   C3A 2792   0.927   2.033   6.456  0.1203 -0.2506 -0.0967
  187POPC   C4A 2793   1.190   2.181   6.864 -0.0660 -0.0330 -0.0342
  187POPC   C1B 2794   1.311   1.694   6.117 -0.3025 -0.0727  0.1349
  187POPC   C2B 2795   1.665   1.651   6.267 -0.0956  0.0253  0.4037
  187POPC   C3B 2796   1.949   1.534   6.640  0.1685  0.0122 -0.2046
  187POPC   C4B 2797   1.690   1.352   6.992 -0.1509  0.5130  0.0126
  188POPC   NC3 2798   8.491   6.037   5.319  0.0092  0.0887  0.3332
  188POPC   PO4 2799   8.105   6.191   5.184  0.0490 -0.2404  0.1616
  188POPC   GL1 2800   8.114   6.321   5.620 -0.2411  0.0567 -0.2241
  188POPC   GL2 2801   8.272   6.171   5.775 -0.0472 -0.1755  0.1506
  188POPC   C1A 2802   7.850   6.674   5.779  0.2274  0.0656 -0.1702
  188POPC   D2A 2803   7.761   7.121   5.891 -0.1327 -0.0850 -0.1418
  188POPC   C3A 2804   7.819   7.197   6.267  0.0925 -0.1928 -0.0879
  188POPC   C4A 2805   7.887   7.363   6.638  0.1281 -0.0269  0.0011
  188POPC   C1B 2806   8.278   6.490   6.091  0.1151  0.3538  0.1361
  188POPC   C2B 2807   8.141   6.744   6.337 -0.1369  0.1542  0.0037
  188POPC   C3B 2808   8.292   7.180   6.443 -0.1569  0.0398 -0.5110
  188POPC   C4B 2809   8.506   7.532   6.715 -0.5331  0.3151  0.0130
  189POPC   NC3 2810   2.065   2.824   5.073 -0.0365 -0.0654  0.0582
  189POPC   PO4 2811   1.792   2.896   5.385  0.0678 -0.1017  0.2949
  189POPC   GL1 2812   1.738   3.199   5.716 -0.2484 -0.2202 -0.0025
  189POPC   GL2 2813   1.387   3.274   5.710  0.2362  0.1227 -0.1280
  189POPC   C1A 2814   1.782   3.672   5.818 -0.0723 -0.0118 -0.1007
  189POPC   D2A 2815   1.643   4.011   5.998 -0.1103  0.2525 -0.1318
  189POPC   C3A 2816   1.841   4.440   5.899  0.2879 -0.2491  0.0855
  189POPC   C4A 2817   2.098   4.775   5.939 -0.0509  0.2166  0.0092
  189POPC   C1B 2818   1.454   3.384   6.067  0.2321 -0.0063 -0.1247
  189POPC   C2B 2819   1.297   3.350   6.420  0.0587  0.0024 -0.0790
  189POPC   C3B 2820   0.957   3.083   6.495 -0.0777  0.0733  0.1287
  189POPC   C4B 2821   0.563   3.356   6.565  0.1342 -0.0988 -0.0333
  190POPC   NC3 2822   4.190   6.147   4.628  0.0004 -0.2916 -0.3888
  190POPC   PO4 2823   4.597   6.244   4.574 -0.2167  0.0374 -0.0524
  190POPC   GL1 2824   4.479   6.442   4.999 -0.2215 -0.2274 -0.0330
  190POPC   GL2 2825   4.142   6.445   5.036  0.2700 -0.1599  0.0160
  190POPC   C1A 2826   4.527   6.409   5.384 -0.1498 -0.0487  0.2694
  190POPC   D2A 2827   4.891   6.326   5.715 -0.1787 -0.1737  0.1818
  190POPC   C3A 2828   5.070   6.346   6.157  0.2340 -0.0805  0.1331
  190POPC   C4A 2829   5.260   6.034   6.418  0.0560  0.0369  0.0180
  190POPC   C1B 2830   3.906   6.338   5.419 -0.1933  0.0315  0.0658
  190POPC   C2B 2831   3.611   6.141   5.645 -0.0487  0.2343  0.1219
  190POPC   C3B 2832   3.634   6.042   6.104  0.0748  0.0025 -0.0610
  190POPC   C4B 2833   3.888   6.394   6.390 -0.3195  0.0302  0.2413
  191POPC   NC3 2834   7.725   6.018   4.926  0.1839  0.1066  0.1380
  191POPC   PO4 2835   7.433   5.677   4.932  0.0038 -0.1983 -0.1233
  191POPC   GL1 2836   7.417   5.860   5.357  0.0078 -0.0508 -0.0793
  191POPC   GL2 2837   7.663   6.104   5.425 -0.2363  0.0179  0.1090
  191POPC   C1A 2838   7.342   5.864   5.753  0.1594  0.1862 -0.0681
  191POPC   D2A 2839   7.348   5.557   6.076 -0.0007  0.0846  0.2124
  191POPC   C3A 2840   7.281   5.696   6.529 -0.2542 -0.3102  0.0739
  191POPC   C4A 2841   7.315   5.786   7.066  0.1703  0.1505 -0.0058
  191POPC   C1B 2842   7.641   6.244   5.888 -0.1843 -0.2969 -0.1630
  191POPC   C2B 2843   7.791   6.478   6.212 -0.1847 -0.4676  0.1130
  191POPC   C3B 2844   7.896   6.304   6.589 -0.1470  0.2642  0.1225
  191POPC   C4B 2845   8.114   6.001   6.717  0.2576  0.3223  0.0991
  192POPC   NC3 2846   9.042   7.833   4.739  0.0697  0.0228 -0.0932
  192POPC   PO4 2847   8.759   7.796   5.056 -0.0698 -0.1676 -0.2453
  192POPC   GL1 2848   8.740   7.708   5.424 -0.0681  0.1337 -0.0855
  192POPC   GL2 2849   8.694   7.953   5.522 -0.0867  0.4081 -0.0467
  192POPC   C1A 2850   8.842   7.494   5.828  0.4209  0.0753 -0.2909
  192POPC   D2A 2851   9.057   7.262   6.053 -0.2967  0.2793 -0.3065
  192POPC   C3A 2852   9.195   6.846   6.206 -0.2481 -0.3763  0.2384
  192POPC   C4A 2853   9.522   6.760   5.924  0.0992 -0.2081  0.0320
  192POPC   C1B 2854   8.596   8.278   5.926  0.1392  0.0524  0.0390
  192POPC   C2B 2855   8.867   8.418   6.295  0.1499 -0.0619 -0.1050
  192POPC   C3B 2856   9.100   8.454   6.566 -0.1071  0.1649 -0.1238
  192POPC   C4B 2857   9.472   8.459   6.658  0.0697  0.1052 -0.0706
  193POPC   NC3 2858   7.441   6.486   5.099  0.0759 -0.0684 -0.0666
  193POPC   PO4 2859   7.235   6.124   4.939  0.2262  0.3823  0.1269
  193POPC   GL1 2860   7.140   6.258   5.380  0.1529  0.0036 -0.1017
  193POPC   GL2 2861   7.143   6.561   5.503  0.0092  0.0524  0.0364
  193POPC   C1A 2862   7.092   6.262   5.840  0.1026  0.1321  0.0536
  193POPC   D2A 2863   7.119   6.011   6.130  0.1452 -0.3811  0.0771
  193POPC   C3A 2864   7.323   6.171   6.515  0.0650 -0.0988  0.2681
  193POPC   C4A 2865   7.476   6.564   6.688 -0.0649  0.1238  0.0042
  193POPC   C1B 2866   7.360   6.665   5.836  0.2300 -0.1170  0.1765
  193POPC   C2B 2867   7.447   6.839   6.234 -0.0729 -0.1431  0.2157
  193POPC   C3B 2868   7.343   7.082   6.569  0.1612 -0.1796 -0.4321
  193POPC   C4B 2869   7.097   7.262   7.009 -0.1727  0.2333 -0.0369
  194POPC   NC3 2870   7.737   2.789   4.760  0.1392  0.2145  0.0245
  194POPC   PO4 2871   7.656   2.535   5.008  0.1377  0.0889 -0.0920
  194POPC   GL1 2872   7.834   2.376   5.343  0.2300 -0.0869 -0.3061
  194POPC   GL2 2873   8.141   2.140   5.517  0.2297 -0.0498 -0.3589
  194POPC   C1A 2874   7.625   2.288   5.807 -0.4324 -0.1089  0.1284
  194POPC   D2A 2875   7.846   2.304   6.261  0.0453 -0.2306 -0.2640
  194POPC   C3A 2876   7.686   2.182   6.590 -0.2963  0.0887 -0.0257
  194POPC   C4A 2877   8.062   2.014   6.858 -0.1965  0.3319  0.0284
  194POPC   C1B 2878   8.224   1.897   5.881 -0.0955 -0.2000 -0.0180
  194POPC   C2B 2879   8.511   1.741   6.254  0.1543 -0.3716 -0.1749
  194POPC   C3B 2880   8.573   1.822   6.652  0.1373 -0.1317  0.2525
  194POPC   C4B 2881   8.708   2.043   6.904 -0.1024  0.0697  0.3837
  195POPC   NC3 2882   4.985   7.576   5.253  0.1446 -0.3455  0.1124
  195POPC   PO4 2883   5.356   7.391   5.008  0.0821  0.1037 -0.1873
  195POPC   GL1 2884   5.293   7.409   5.552 -0.2585  0.1016  0.1236
  195POPC   GL2 2885   5.048   7.119   5.517  0.0340  0.1727  0.1167
  195POPC   C1A 2886   4.981   7.276   5.959  0.0861  0.3033 -0.1108
  195POPC   D2A 2887   4.526   7.168   6.215  0.0218 -0.2398 -0.3043
  195POPC   C3A 2888   4.624   6.715   6.393  0.0668 -0.1276  0.2503
  195POPC   C4A 2889   4.837   6.515   6.667  0.2510 -0.0319 -0.1347
  195POPC   C1B 2890   4.733   6.876   5.730  0.2436  0.1215 -0.1049
  195POPC   C2B 2891   4.330   6.689   5.777  0.0047 -0.0635 -0.3557
  195POPC   C3B 2892   4.149   6.717   6.167 -0.3448 -0.0055 -0.1351
  195POPC   C4B 2893   3.703   6.869   6.248 -0.1334 -0.1113 -0.0535
  196POPC   NC3 2894   2.967   1.483   5.109 -0.2500  0.0068 -0.3257
  196POPC   PO4 2895   2.647   1.443   5.413  0.5211 -0.0615  0.1534
  196POPC   GL1 2896   2.463   1.244   5.658  0.1244 -0.2704 -0.2719
  196POPC   GL2 2897   2.103   1.284   5.809 -0.1442  0.2062 -0.1161
  196POPC   C1A 2898   2.588   1.202   6.092 -0.0991  0.2353  0.1604
  196POPC   D2A 2899   2.458   1.166   6.502 -0.1348  0.1286  0.0986
  196POPC   C3A 2900   2.383   1.355   6.844 -0.1029  0.0560 -0.3392
  196POPC   C4A 2901   2.180   1.521   7.143 -0.2006  0.4245 -0.1087
  196POPC   C1B 2902   1.908   1.174   6.274 -0.2528 -0.0715 -0.1744
  196POPC   C2B 2903   1.693   1.039   6.633 -0.0533  0.1678  0.0353
  196POPC   C3B 2904   1.302   1.001   6.906 -0.0997  0.2939 -0.0923
  196POPC   C4B 2905   0.919   0.981   6.671  0.1073  0.1437  0.1774
  197POPC   NC3 2906   9.067   2.558   4.343  0.0272  0.3146  0.0812
  197POPC   PO4 2907   9.197   2.455   4.761 -0.1244 -0.0798  0.0368
  197POPC   GL1 2908   9.237   2.487   5.247 -0.2471  0.2163  0.4786
  197POPC   GL2 2909   9.555   2.398   5.453 -0.1292  0.3180  0.0673
  197POPC   C1A 2910   9.104   2.867   5.665  0.3000 -0.2765  0.3987
  197POPC   D2A 2911   9.159   3.200   5.961  0.0097  0.0721 -0.2638
  197POPC   C3A 2912   9.185   3.150   6.375 -0.0516  0.0785  0.1144
  197POPC   C4A 2913   9.433   3.182   6.781 -0.0672  0.0236 -0.0663
  197POPC   C1B 2914   9.625   2.444   5.819 -0.1609  0.3247  0.0978
  197POPC   C2B 2915   9.662   2.677   6.181 -0.0586  0.0478 -0.1129
  197POPC   C3B 2916   9.766   2.737   6.598  0.0782  0.2380 -0.2181
  197POPC   C4B 2917   9.944   2.890   6.975 -0.1701 -0.1235 -0.0348
  198POPC   NC3 2918   1.855   7.793   3.729 -0.2660  0.2761 -0.3256
  198POPC   PO4 2919   1.925   8.050   3.949  0.0269 -0.3159 -0.0226
  198POPC   GL1 2920   2.033   8.069   4.399 -0.0322  0.1307  0.0167
  198POPC   GL2 2921   2.344   8.194   4.524  0.0987  0.2903  0.1990
  198POPC   C1A 2922   2.170   7.806   4.827 -0.1884  0.1822 -0.2501
  198POPC   D2A 2923   2.031   7.561   5.212  0.0899  0.1422  0.4041
  198POPC   C3A 2924   1.643   7.323   5.120 -0.4987 -0.3147  0.1732
  198POPC   C4A 2925   1.358   7.126   4.888 -0.1437  0.0452 -0.5116
  198POPC   C1B 2926   2.241   8.387   4.923 -0.1073  0.2775 -0.1167
  198POPC   C2B 2927   2.480   8.324   5.267 -0.0161  0.1190  0.0363
  198POPC   C3B 2928   2.726   8.289   5.611  0.1016  0.1494  0.1235
  198POPC   C4B 2929   3.056   8.239   5.864 -0.1168 -0.3495  0.0594
  199POPC   NC3 2930   6.918   3.823   5.159  0.4549 -0.0000  0.1511
  199POPC   PO4 2931   7.255   3.448   5.176  0.1660  0.1254 -0.0777
  199POPC   GL1 2932   7.304   3.669   5.582  0.3548  0.0292 -0.1559
  199POPC   GL2 2933   7.064   3.501   5.665  0.1663 -0.3250  0.1102
  199POPC   C1A 2934   7.469   3.555   5.963  0.1408  0.2760 -0.0892
  199POPC   D2A 2935   7.459   3.565   6.410 -0.1553  0.0743 -0.0969
  199POPC   C3A 2936   7.727   3.819   6.756  0.0919 -0.1145  0.3177
  199POPC   C4A 2937   8.094   3.765   7.001  0.1697 -0.0840 -0.1801
  199POPC   C1B 2938   7.005   3.294   6.119  0.1183 -0.1064  0.0509
  199POPC   C2B 2939   6.986   3.322   6.515 -0.0427 -0.0710 -0.1572
  199POPC   C3B 2940   6.984   3.726   6.784 -0.0553 -0.1356  0.1451
  199POPC   C4B 2941   7.337   3.805   7.088 -0.1777  0.3026  0.2923
  200POPC   NC3 2942   8.559   5.056   5.121 -0.0427 -0.2551  0.0709
  200POPC   PO4 2943   8.923   5.091   4.816 -0.1988  0.1673  0.1413
  200POPC   GL1 2944   9.121   4.831   5.155 -0.1072 -0.0643  0.3012
  200POPC   GL2 2945   9.438   4.640   5.220 -0.1039 -0.1390 -0.0893
  200POPC   C1A 2946   9.106   4.909   5.539  0.0806  0.0167 -0.1983
  200POPC   D2A 2947   9.180   4.610   5.869  0.0867 -0.1777  0.2106
  200POPC   C3A 2948   9.299   4.225   5.735  0.2730  0.0930  0.1013
  200POPC   C4A 2949   9.755   4.050   5.692  0.0819  0.1004  0.0263
  200POPC   C1B 2950   9.332   4.277   5.199  0.2713 -0.2391  0.0096
  200POPC   C2B 2951   9.282   3.881   5.360 -0.1252  0.1117  0.0072
  200POPC   C3B 2952   9.067   3.411   5.354  0.1778 -0.0900  0.1417
  200POPC   C4B 2953   8.768   3.263   5.624  0.1090  0.1896  0.0071
  201POPC   NC3 2954   6.139   5.165   5.022 -0.1972 -0.0297  0.0394
  201POPC   PO4 2955   6.051   4.806   5.247  0.2179 -0.3250 -0.0536
  201POPC   GL1 2956   6.335   4.730   5.558  0.3691 -0.1452  0.1240
  201POPC   GL2 2957   6.299   5.052   5.806  0.0847 -0.0838  0.0718
  201POPC   C1A 2958   6.393   4.626   5.981  0.0828 -0.0260 -0.0393
  201POPC   D2A 2959   6.240   4.822   6.382 -0.0193 -0.0175  0.0096
  201POPC   C3A 2960   6.001   4.574   6.469  0.0606  0.3183  0.1060
  201POPC   C4A 2961   6.115   4.341   6.857  0.0594 -0.4434 -0.0847
  201POPC   C1B 2962   6.446   5.456   5.750 -0.0803  0.0487 -0.0954
  201POPC   C2B 2963   6.685   5.703   6.068  0.0271 -0.0159 -0.1929
  201POPC   C3B 2964   6.812   5.647   6.465 -0.0761 -0.0213 -0.1696
  201POPC   C4B 2965   6.885   5.880   6.804 -0.0875  0.1941  0.0995
  202POPC   NC3 2966   3.315   9.899   4.735 -0.4805  0.0665 -0.0203
  202POPC   PO4 2967   2.966  10.097   4.979  0.0066 -0.0368 -0.1739
  202POPC   GL1 2968   2.738   9.854   5.262  0.1062 -0.1885 -0.1406
  202POPC   GL2 2969   2.457   9.976   5.399 -0.0316  0.2800 -0.1627
  202POPC   C1A 2970   2.799   9.735   5.793  0.0599 -0.0347  0.1434
  202POPC   D2A 2971   3.048   9.561   6.142  0.0321 -0.5814 -0.2326
  202POPC   C3A 2972   2.932   9.634   6.591 -0.3391  0.3044  0.0732
  202POPC   C4A 2973   2.872   9.317   6.814  0.1006  0.0760 -0.3024
  202POPC   C1B 2974   2.390  10.049   5.872  0.1306 -0.1223 -0.1056
  202POPC   C2B 2975   2.413   9.996   6.327 -0.0484 -0.1055  0.1040
  202POPC   C3B 2976   2.365   9.965   6.770  0.0766 -0.0047  0.3109
  202POPC   C4B 2977   2.139   9.868   7.199  0.0696  0.1691 -0.4151
  203POPC   NC3 2978   7.733   7.562   5.667  0.3027 -0.2085 -0.1492
  203POPC   PO4 2979   7.446   7.377   5.390 -0.2871  0.0890  0.2510
  203POPC   GL1 2980   7.241   7.243   5.803 -0.0723  0.2627 -0.0296
  203POPC   GL2 2981   7.093   7.036   5.771  0.1632 -0.3485 -0.1526
  203POPC   C1A 2982   7.324   7.398   6.170 -0.0188  0.1699  0.2466
  203POPC   D2A 2983   7.357   7.596   6.614 -0.1066  0.2622  0.3549
  203POPC   C3A 2984   7.737   7.863   6.751 -0.0970  0.2346 -0.0791
  203POPC   C4A 2985   7.887   7.809   7.192 -0.1040  0.0717  0.0508
  203POPC   C1B 2986   6.924   7.057   6.288 -0.0341 -0.1988 -0.0762
  203POPC   C2B 2987   6.738   7.285   6.533  0.2306 -0.0168  0.0248
  203POPC   C3B 2988   6.663   7.605   6.870  0.1152 -0.2686  0.0051
  203POPC   C4B 2989   6.452   7.789   7.219  0.1764 -0.2942 -0.1477
  204POPC   NC3 2990   5.581   5.029   5.423 -0.1334  0.0036  0.3767
  204POPC   PO4 2991   5.824   4.912   5.715  0.1075  0.1745 -0.2814
  204POPC   GL1 2992   5.732   5.066   6.163  0.0951  0.3316  0.1237
  204POPC   GL2 2993   5.455   4.998   6.167 -0.1603 -0.2078 -0.0669
  204POPC   C1A 2994   5.806   5.082   6.536  0.3488  0.2111 -0.3583
  204POPC   D2A 2995   6.153   5.168   6.792 -0.0871 -0.0371  0.0312
  204POPC   C3A 2996   6.339   5.147   7.170 -0.0985  0.0745  0.0289
  204POPC   C4A 2997   6.359   4.801   7.373 -0.2174  0.2863  0.2925
  204POPC   C1B 2998   5.231   5.066   6.588  0.0038 -0.3585 -0.4044
  204POPC   C2B 2999   4.995   5.140   6.916 -0.1354  0.0366 -0.3203
  204POPC   C3B 3000   4.638   5.381   6.818 -0.2202 -0.3873 -0.3475
  204POPC   C4B 3001   4.538   5.573   6.400 -0.1665  0.0407  0.2127
  205POPC   NC3 3002   0.984   1.596   4.822 -0.0300 -0.0466 -0.0982
  205POPC   PO4 3003   1.146   1.459   5.270 -0.1169  0.0232 -0.2189
  205POPC   GL1 3004   0.999   1.359   5.744 -0.3650 -0.2626 -0.1206
  205POPC   GL2 3005   1.034   1.124   5.717  0.3047 -0.1082 -0.0317
  205POPC   C1A 3006   0.896   1.384   6.225  0.2344 -0.0083  0.1182
  205POPC   D2A 3007   0.754   1.484   6.606  0.0607  0.1214  0.1867
  205POPC   C3A 3008   0.849   1.339   7.048 -0.0892 -0.0938  0.1586
  205POPC   C4A 3009   0.819   1.502   7.434 -0.2144 -0.3074  0.0766
  205POPC   C1B 3010   0.829   0.855   6.125  0.0229  0.0995  0.0470
  205POPC   C2B 3011   0.517   0.715   6.426 -0.2627  0.3703 -0.2830
  205POPC   C3B 3012   0.274   0.542   6.746  0.1682  0.1931  0.0105
  205POPC   C4B 3013   0.523   0.314   7.012 -0.1958 -0.0296 -0.0150
  206POPC   NC3 3014   8.140   3.310   5.285 -0.1717  0.0741  0.0074
  206POPC   PO4 3015   7.751   3.605   5.299  0.0035  0.0663  0.2554
  206POPC   GL1 3016   7.909   3.611   5.624  0.0260  0.1112  0.1575
  206POPC   GL2 3017   7.929   3.265   5.782 -0.1719  0.0195 -0.3477
  206POPC   C1A 3018   8.133   3.894   5.911  0.0653 -0.2469 -0.0358
  206POPC   D2A 3019   8.445   4.059   6.087  0.0504 -0.0740  0.0097
  206POPC   C3A 3020   8.472   4.205   6.550  0.3147  0.0707  0.1741
  206POPC   C4A 3021   8.836   4.312   6.674  0.3902 -0.0676  0.0779
  206POPC   C1B 3022   7.914   3.481   6.153  0.1753 -0.1104  0.1703
  206POPC   C2B 3023   8.256   3.721   6.395  0.1909 -0.2545  0.1548
  206POPC   C3B 3024   8.569   3.699   6.768  0.3128 -0.3816 -0.2397
  206POPC   C4B 3025   8.851   4.003   7.029  0.1361  0.0036 -0.1483
  207POPC   NC3 3026   0.783   9.626   4.468  0.0951  0.3765 -0.0586
  207POPC   PO4 3027   0.830   9.735   4.877 -0.1845  0.1355 -0.0173
  207POPC   GL1 3028   0.887   9.889   5.349  0.0902 -0.2928  0.1911
  207POPC   GL2 3029   1.062   9.739   5.522 -0.1643  0.0203  0.1066
  207POPC   C1A 3030   0.884  10.267   5.760 -0.1361 -0.0558  0.1931
  207POPC   D2A 3031   0.655  10.246   6.121 -0.1693 -0.0006  0.0270
  207POPC   C3A 3032   0.497  10.144   6.585 -0.1335  0.3428 -0.1492
  207POPC   C4A 3033   0.100  10.123   6.852  0.1077 -0.2870  0.2456
  207POPC   C1B 3034   1.017   9.837   6.000 -0.0200 -0.3315  0.0087
  207POPC   C2B 3035   0.801   9.746   6.417  0.2808  0.0847  0.1418
  207POPC   C3B 3036   0.674   9.752   6.903 -0.1690  0.1320 -0.3487
  207POPC   C4B 3037   0.383   9.705   7.097 -0.0699  0.0550  0.1640
  208POPC   NC3 3038   2.385   0.201   4.774 -0.0914  0.2068 -0.2334
  208POPC   PO4 3039   2.390   0.510   5.103 -0.0617 -0.0462  0.1602
  208POPC   GL1 3040   2.061   0.269   5.223 -0.0274  0.0818  0.2409
  208POPC   GL2 3041   2.135  -0.038   5.189  0.0092 -0.0735 -0.0197
  208POPC   C1A 3042   1.719   0.035   5.467  0.2137 -0.0182  0.0737
  208POPC   D2A 3043   1.345   0.156   5.756  0.3510  0.0838  0.1544
  208POPC   C3A 3044   1.441   0.379   6.157  0.0468  0.3938  0.2675
  208POPC   C4A 3045   1.580   0.774   6.196  0.0221 -0.1046 -0.0521
  208POPC   C1B 3046   2.150   0.009   5.682 -0.0078 -0.2989 -0.0307
  208POPC   C2B 3047   2.136  -0.049   6.167 -0.1723 -0.0240 -0.0588
  208POPC   C3B 3048   2.075  -0.056   6.660  0.1083  0.2091 -0.3586
  208POPC   C4B 3049   1.835  -0.250   7.011  0.1394  0.0875 -0.2416
  209POPC   NC3 3050   9.137   0.785   4.934 -0.0489 -0.2437 -0.1301
  209POPC   PO4 3051   9.348   0.591   5.141 -0.3548 -0.4582 -0.1388
  209POPC   GL1 3052   9.451   0.514   5.534  0.0193  0.0667 -0.2856
  209POPC   GL2 3053   9.847   0.371   5.684 -0.1778 -0.1617 -0.0294
  209POPC   C1A 3054   9.576   0.694   5.914  0.1451 -0.2174  0.0878
  209POPC   D2A 3055   9.632   0.768   6.490 -0.1669 -0.4057  0.1280
  209POPC   C3A 3056   9.268   0.796   6.860  0.3239  0.1261 -0.0529
  209POPC   C4A 3057   9.284   0.748   7.294  0.2420  0.1123 -0.0484
  209POPC   C1B 3058   9.722   0.253   6.116  0.0341 -0.0428  0.0395
  209POPC   C2B 3059   9.459   0.303   6.558  0.1259 -0.5939 -0.0987
  209POPC   C3B 3060   9.447   0.372   6.994  0.0706  0.2018 -0.1753
  209POPC   C4B 3061   9.252   0.155   7.365  0.0800  0.2177 -0.0388
  210POPC   NC3 3062   2.025   8.593   4.339  0.0758 -0.1405  0.2368
  210POPC   PO4 3063   2.121   9.033   4.261 -0.1487  0.1294  0.2319
  210POPC   GL1 3064   2.033   8.971   4.679 -0.0750  0.0208 -0.0363
  210POPC   GL2 3065   2.119   9.215   4.791 -0.3655 -0.1239 -0.0806
  210POPC   C1A 3066   1.691   8.674   4.957  0.1000  0.3960  0.2569
  210POPC   D2A 3067   1.547   8.693   5.323  0.0229  0.0092  0.0954
  210POPC   C3A 3068   1.249   8.945   5.415  0.0351 -0.0306  0.0511
  210POPC   C4A 3069   1.007   9.031   5.827 -0.0839  0.2429  0.2483
  210POPC   C1B 3070   2.145   8.959   5.168 -0.1701 -0.0646  0.1111
  210POPC   C2B 3071   2.027   8.578   5.371 -0.3159  0.1843 -0.1836
  210POPC   C3B 3072   2.202   8.271   5.738  0.3597 -0.2659 -0.0888
  210POPC   C4B 3073   2.511   7.966   5.924  0.3153 -0.0297 -0.0337
  211POPC   NC3 3074   5.343   4.526   5.373 -0.2166 -0.1000  0.2187
  211POPC   PO4 3075   5.022   4.419   5.484  0.0166 -0.0498 -0.3120
  211POPC   GL1 3076   4.806   4.597   5.882 -0.0608  0.1127 -0.1951
  211POPC   GL2 3077   4.491   4.605   5.984  0.0640 -0.1929 -0.1730
  211POPC   C1A 3078   5.064   4.664   6.269  0.0855 -0.0843 -0.3084
  211POPC   D2A 3079   5.270   4.470   6.632 -0.0278  0.2272 -0.0567
  211POPC   C3A 3080   5.639   4.652   6.777 -0.2073  0.1073 -0.2211
  211POPC   C4A 3081   5.854   4.949   7.115  0.2874 -0.1536 -0.1116
  211POPC   C1B 3082   4.530   4.633   6.337 -0.0518  0.1021  0.1442
  211POPC   C2B 3083   4.806   4.700   6.672 -0.0502  0.0986 -0.2188
  211POPC   C3B 3084   5.026   4.640   7.017  0.0959  0.2553  0.2338
  211POPC   C4B 3085   5.404   4.770   7.256  0.2536 -0.1272  0.4452
  212POPC   NC3 3086   3.775   2.006   5.302 -0.5997  0.2617  0.1360
  212POPC   PO4 3087   4.045   2.141   5.593 -0.2899 -0.0079  0.0641
  212POPC   GL1 3088   4.119   2.220   5.957 -0.1933  0.1300 -0.1714
  212POPC   GL2 3089   4.002   2.404   6.161  0.0717  0.0756  0.0351
  212POPC   C1A 3090   4.395   2.037   6.417  0.0861  0.1058  0.2308
  212POPC   D2A 3091   4.309   2.037   6.861  0.2651  0.0932  0.0474
  212POPC   C3A 3092   4.630   1.839   7.154  0.0711 -0.0800 -0.1518
  212POPC   C4A 3093   4.907   1.697   7.192  0.2737  0.2203  0.2070
  212POPC   C1B 3094   3.810   2.170   6.493 -0.4644  0.2572 -0.1106
  212POPC   C2B 3095   3.614   1.819   6.374 -0.0728 -0.4437  0.0352
  212POPC   C3B 3096   3.374   1.392   6.171 -0.0176 -0.1220  0.0709
  212POPC   C4B 3097   3.050   1.199   5.967 -0.0088  0.2192  0.1830
  213POPC   NC3 3098   3.599   2.128   5.871  0.0347  0.1475 -0.1481
  213POPC   PO4 3099   3.287   2.174   5.573  0.1639 -0.1177  0.0064
  213POPC   GL1 3100   3.041   2.177   5.877 -0.3122  0.1308  0.0008
  213POPC   GL2 3101   2.745   2.164   5.822 -0.1041 -0.1072 -0.0004
  213POPC   C1A 3102   3.023   2.529   6.066 -0.1077  0.2336 -0.0191
  213POPC   D2A 3103   2.906   2.509   6.378 -0.1754  0.0410  0.4430
  213POPC   C3A 3104   3.327   2.323   6.524  0.0877 -0.4394 -0.1322
  213POPC   C4A 3105   3.410   1.997   6.738 -0.1281 -0.2701 -0.0737
  213POPC   C1B 3106   2.577   2.090   6.182  0.2668 -0.1849 -0.4334
  213POPC   C2B 3107   2.397   2.391   6.533 -0.2442  0.3391  0.1532
  213POPC   C3B 3108   2.201   2.456   6.946  0.1281  0.0698  0.3038
  213POPC   C4B 3109   2.004   2.531   7.393  0.0174  0.0751 -0.0527
  214POPC   NC3 3110   9.919   7.595   3.707  0.0696  0.1460 -0.0731
  214POPC   PO4 3111  10.238   7.315   3.832 -0.0869 -0.0368  0.3099
  214POPC   GL1 3112  10.461   7.272   4.291 -0.0165 -0.0696 -0.2488
  214POPC   GL2 3113  10.216   7.308   4.527 -0.4266 -0.1080 -0.2058
  214POPC   C1A 3114  10.827   7.160   4.604  0.1815 -0.3213  0.1843
  214POPC   D2A 3115  10.789   6.967   4.858 -0.0962 -0.0200 -0.2085
  214POPC   C3A 3116  11.051   6.805   4.988 -0.0556 -0.1150  0.2544
  214POPC   C4A 3117  11.482   6.661   4.922  0.2719 -0.0859 -0.4361
  214POPC   C1B 3118  10.034   7.458   4.965  0.1865 -0.0755  0.0044
  214POPC   C2B 3119   9.622   7.522   5.218  0.1295  0.0300 -0.0350
  214POPC   C3B 3120   9.360   7.734   5.568 -0.1250  0.0904 -0.2587
  214POPC   C4B 3121   9.305   7.708   6.066 -0.0573  0.2792 -0.3231
  215POPC   NC3 3122   1.443   0.693   4.815  0.1337 -0.1432 -0.0435
  215POPC   PO4 3123   1.827   0.733   5.191 -0.1085  0.1420  0.0799
  215POPC   GL1 3124   1.810   0.501   5.607  0.0925 -0.0212 -0.3273
  215POPC   GL2 3125   1.784   0.895   5.724 -0.0930  0.1771 -0.0351
  215POPC   C1A 3126   1.943   0.416   5.956 -0.0306  0.1496 -0.2486
  215POPC   D2A 3127   1.848   0.355   6.418  0.1748  0.2730 -0.1640
  215POPC   C3A 3128   1.497   0.583   6.706 -0.0688  0.1801  0.1787
  215POPC   C4A 3129   1.054   0.552   6.467 -0.1819 -0.2488  0.0581
  215POPC   C1B 3130   1.483   1.253   5.976  0.0144 -0.1532 -0.1478
  215POPC   C2B 3131   1.311   1.255   6.417  0.0262  0.3768 -0.2236
  215POPC   C3B 3132   1.315   1.631   6.666  0.1377 -0.0074 -0.0302
  215POPC   C4B 3133   1.658   1.806   6.871  0.1448 -0.0245 -0.0002
  216POPC   NC3 3134   2.201   2.464   4.526 -0.1622 -0.1426  0.2044
  216POPC   PO4 3135   2.242   2.261   4.887 -0.1288  0.2491 -0.2855
  216POPC   GL1 3136   2.248   2.228   5.362  0.0038 -0.2270  0.1638
  216POPC   GL2 3137   2.223   1.920   5.481  0.1426  0.0765 -0.0269
  216POPC   C1A 3138   2.211   2.365   5.792  0.0347 -0.1524  0.2011
  216POPC   D2A 3139   2.000   2.539   6.224 -0.2380  0.2493  0.1604
  216POPC   C3A 3140   1.608   2.445   6.216  0.3273 -0.0153  0.3317
  216POPC   C4A 3141   1.453   2.129   6.424 -0.0206 -0.1076 -0.1124
  216POPC   C1B 3142   2.340   1.801   5.835  0.3488 -0.1393  0.2557
  216POPC   C2B 3143   2.284   1.596   6.166  0.0204  0.1059 -0.2681
  216POPC   C3B 3144   2.373   1.785   6.486  0.3417 -0.2998 -0.0734
  216POPC   C4B 3145   2.286   1.946   6.817  0.2148  0.1058  0.2750
  217POPC   NC3 3146   4.041   9.004   5.109 -0.0474 -0.2849 -0.1799
  217POPC   PO4 3147   3.904   9.260   4.699 -0.1500  0.2002  0.0326
  217POPC   GL1 3148   3.529   9.477   5.016 -0.2195 -0.2129 -0.0926
  217POPC   GL2 3149   3.154   9.560   5.052 -0.0109  0.2885 -0.1906
  217POPC   C1A 3150   3.468   9.374   5.396 -0.0302  0.3061 -0.2800
  217POPC   D2A 3151   3.463   8.874   5.463  0.1060 -0.2427 -0.3166
  217POPC   C3A 3152   3.331   8.659   5.953 -0.2807 -0.4464 -0.0799
  217POPC   C4A 3153   3.065   8.502   6.340  0.0656 -0.0546 -0.1025
  217POPC   C1B 3154   3.000   9.495   5.434 -0.1844  0.1687 -0.0509
  217POPC   C2B 3155   2.788   9.253   5.730 -0.1922 -0.2364 -0.0932
  217POPC   C3B 3156   2.755   8.958   6.085 -0.0803  0.0960 -0.0777
  217POPC   C4B 3157   2.705   8.852   6.536 -0.1434  0.1672  0.0844
  218POPC   NC3 3158   7.410   1.991   5.072  0.1603  0.3616  0.0983
  218POPC   PO4 3159   7.062   2.267   5.056  0.1277  0.0764 -0.0209
  218POPC   GL1 3160   7.038   2.048   5.391  0.0813 -0.3472  0.0304
  218POPC   GL2 3161   6.780   1.846   5.597 -0.0624  0.1790 -0.0853
  218POPC   C1A 3162   7.207   2.060   5.744 -0.1176 -0.1358  0.3025
  218POPC   D2A 3163   7.372   2.099   6.234 -0.0482 -0.0652 -0.1779
  218POPC   C3A 3164   7.355   2.519   6.307 -0.3051 -0.1852  0.0147
  218POPC   C4A 3165   7.097   2.821   6.193  0.0429  0.3140 -0.0151
  218POPC   C1B 3166   6.626   1.973   5.915 -0.3404 -0.0549  0.1685
  218POPC   C2B 3167   6.553   2.056   6.350  0.0333 -0.0892  0.3149
  218POPC   C3B 3168   6.405   2.386   6.609 -0.3925 -0.5176  0.2766
  218POPC   C4B 3169   6.476   2.701   6.934  0.0854  0.2561  0.1407
  219POPC   NC3 3170   4.183   9.998   5.091  0.1310 -0.2287  0.0208
  219POPC   PO4 3171   3.998   9.589   5.156 -0.1146 -0.0691 -0.0798
  219POPC   GL1 3172   3.991   9.330   5.510  0.0939 -0.0292  0.2556
  219POPC   GL2 3173   4.230   9.104   5.619 -0.2978 -0.0207  0.1814
  219POPC   C1A 3174   3.819   9.136   5.878 -0.0747  0.3650  0.2474
  219POPC   D2A 3175   3.653   8.928   6.267 -0.0157 -0.0213  0.4789
  219POPC   C3A 3176   3.770   8.948   6.714  0.1987 -0.1528 -0.1378
  219POPC   C4A 3177   3.904   8.968   7.181 -0.0640  0.0724 -0.1445
  219POPC   C1B 3178   4.278   9.337   5.934 -0.0898 -0.0048  0.1834
  219POPC   C2B 3179   4.488   9.220   6.302  0.1423  0.2462 -0.3227
  219POPC   C3B 3180   4.741   9.292   6.661  0.0744  0.2513  0.3774
  219POPC   C4B 3181   4.701   9.512   6.977 -0.1114 -0.2905  0.1312
  220POPC   NC3 3182   1.027   4.502   3.973 -0.2172  0.0292 -0.0969
  220POPC   PO4 3183   0.919   4.164   4.305 -0.0626  0.3035  0.1745
  220POPC   GL1 3184   1.183   4.401   4.442  0.0337  0.2175  0.0645
  220POPC   GL2 3185   0.965   4.587   4.643  0.2855  0.4753  0.0136
  220POPC   C1A 3186   1.674   4.341   4.662 -0.0942 -0.3062 -0.1506
  220POPC   D2A 3187   1.778   4.186   5.108  0.1373  0.0230 -0.1042
  220POPC   C3A 3188   1.957   4.430   5.404 -0.1261 -0.0831 -0.2696
  220POPC   C4A 3189   2.186   4.807   5.423  0.2108 -0.1993 -0.0096
  220POPC   C1B 3190   0.646   4.828   4.879  0.1085  0.0626  0.0946
  220POPC   C2B 3191   0.626   5.117   5.257  0.4490  0.1420 -0.0657
  220POPC   C3B 3192   0.860   5.312   5.571 -0.1465 -0.2326 -0.3747
  220POPC   C4B 3193   1.079   5.278   5.964  0.0185  0.2419  0.3924
  221POPC   NC3 3194   6.722   9.825   5.378  0.2319  0.2433 -0.1849
  221POPC   PO4 3195   6.346   9.969   5.359 -0.1243  0.0917 -0.1687
  221POPC   GL1 3196   6.441   9.819   5.748 -0.0275  0.0527 -0.1609
  221POPC   GL2 3197   6.576   9.534   5.789 -0.0613  0.1004 -0.3678
  221POPC   C1A 3198   6.738   9.899   6.128  0.5362 -0.0731 -0.3862
  221POPC   D2A 3199   6.760  10.294   6.481  0.0702 -0.2402 -0.2577
  221POPC   C3A 3200   7.209  10.546   6.535  0.0183 -0.0825 -0.2173
  221POPC   C4A 3201   7.448  10.852   6.841 -0.0816 -0.0450  0.1635
  221POPC   C1B 3202   6.544   9.392   6.207 -0.0648 -0.5333  0.0643
  221POPC   C2B 3203   6.820   9.317   6.687  0.1811  0.2541 -0.1083
  221POPC   C3B 3204   7.060   9.506   7.067 -0.3952 -0.1489 -0.0754
  221POPC   C4B 3205   6.998   9.695   7.515  0.0090  0.1464 -0.0053
  222POPC   NC3 3206   8.658   3.985   4.217 -0.1292  0.0993  0.1178
  222POPC   PO4 3207   8.733   4.353   4.507 -0.0627 -0.1043  0.2488
  222POPC   GL1 3208   8.852   4.275   4.937 -0.1710  0.1966 -0.0238
  222POPC   GL2 3209   8.626   4.517   5.135  0.0124  0.0650  0.0304
  222POPC   C1A 3210   8.781   3.920   5.270 -0.2198 -0.1396 -0.1404
  222POPC   D2A 3211   8.579   3.733   5.707  0.2123 -0.2140  0.1349
  222POPC   C3A 3212   8.757   3.545   6.106 -0.0043  0.0458 -0.1586
  222POPC   C4A 3213   8.781   3.386   6.472 -0.2109  0.0429  0.1034
  222POPC   C1B 3214   8.919   4.444   5.412  0.0712 -0.3045 -0.0947
  222POPC   C2B 3215   8.806   4.237   5.755 -0.3701 -0.0591 -0.0560
  222POPC   C3B 3216   8.997   4.065   6.105  0.0570 -0.1211  0.0885
  222POPC   C4B 3217   9.048   3.828   6.468  0.0722  0.0577 -0.0310
  223POPC   NC3 3218   0.989   2.918   4.978 -0.2656  0.0143 -0.3345
  223POPC   PO4 3219   0.522   2.907   5.212  0.1907  0.1418  0.1283
  223POPC   GL1 3220   0.258   3.186   5.274 -0.2379  0.0470 -0.0981
  223POPC   GL2 3221   0.341   3.462   5.249  0.0314 -0.0018  0.4250
  223POPC   C1A 3222   0.104   3.383   5.713 -0.2727  0.1549  0.0547
  223POPC   D2A 3223   0.369   3.245   6.053  0.1779  0.0462  0.0239
  223POPC   C3A 3224   0.728   2.896   6.010  0.3753 -0.0113 -0.0266
  223POPC   C4A 3225   0.812   2.530   5.858  0.3820 -0.1515  0.0990
  223POPC   C1B 3226   0.375   3.816   5.627  0.1672  0.2058  0.0920
  223POPC   C2B 3227   0.477   3.754   6.054  0.0002 -0.0959  0.1115
  223POPC   C3B 3228   0.460   4.070   6.400 -0.0748  0.3117  0.3206
  223POPC   C4B 3229   0.248   4.300   6.631 -0.2528  0.1647 -0.1513
  224POPC   NC3 3230   6.469   6.630   5.084  0.0202 -0.1883  0.0294
  224POPC   PO4 3231   6.929   6.659   5.034  0.0359 -0.0894  0.0065
  224POPC   GL1 3232   6.667   6.452   5.503  0.0312 -0.2121  0.2373
  224POPC   GL2 3233   6.288   6.443   5.595  0.1928  0.1075 -0.0011
  224POPC   C1A 3234   6.737   6.560   5.887  0.2456  0.0096 -0.1932
  224POPC   D2A 3235   7.036   6.545   6.226 -0.1118  0.0197 -0.0392
  224POPC   C3A 3236   7.031   6.652   6.700  0.3525 -0.1534 -0.1782
  224POPC   C4A 3237   7.126   6.781   7.185 -0.1056 -0.0462  0.0468
  224POPC   C1B 3238   6.228   6.397   6.069  0.4228  0.0848 -0.1307
  224POPC   C2B 3239   6.094   6.610   6.461 -0.1731 -0.1838  0.1395
  224POPC   C3B 3240   5.998   6.606   6.985  0.0061 -0.0987  0.0781
  224POPC   C4B 3241   6.127   6.403   7.380 -0.0640  0.1801 -0.2784
  225POPC   NC3 3242   2.953   8.964   4.481  0.1829 -0.1661  0.3316
  225POPC   PO4 3243   3.065   9.199   4.749 -0.1362  0.2062 -0.2621
  225POPC   GL1 3244   2.678   9.218   4.940  0.3010  0.2168 -0.0404
  225POPC   GL2 3245   2.568   8.899   4.861 -0.0025  0.1058  0.0855
  225POPC   C1A 3246   2.454   9.315   5.306 -0.0404 -0.2598  0.1997
  225POPC   D2A 3247   2.340   9.594   5.640 -0.0214 -0.2820  0.0791
  225POPC   C3A 3248   2.391   9.552   6.116  0.0830  0.1745  0.2223
  225POPC   C4A 3249   2.613   9.317   6.420  0.1152 -0.0423  0.0534
  225POPC   C1B 3250   2.593   8.867   5.354  0.1859 -0.2418  0.0767
  225POPC   C2B 3251   2.510   8.662   5.800  0.0113  0.0372 -0.4973
  225POPC   C3B 3252   2.606   8.437   6.114  0.1519  0.2435  0.0835
  225POPC   C4B 3253   2.811   8.052   6.346  0.3471  0.4991  0.0001
  226POPC   NC3 3254   5.382   6.170   5.399  0.0179 -0.1096  0.1455
  226POPC   PO4 3255   5.793   6.196   5.360 -0.2951  0.3546 -0.3659
  226POPC   GL1 3256   5.759   6.031   5.833  0.0061 -0.1094 -0.0258
  226POPC   GL2 3257   5.457   6.207   5.863 -0.1884  0.2309  0.1794
  226POPC   C1A 3258   5.635   5.782   6.165  0.1287 -0.0713 -0.3056
  226POPC   D2A 3259   5.496   5.444   6.456  0.2263  0.1198  0.2926
  226POPC   C3A 3260   5.502   5.256   6.982  0.2271 -0.0898 -0.0676
  226POPC   C4A 3261   5.478   5.204   7.409 -0.0241  0.2226 -0.0774
  226POPC   C1B 3262   5.648   6.368   6.337 -0.1870  0.4035  0.0957
  226POPC   C2B 3263   5.390   6.382   6.725  0.0774  0.2970 -0.0918
  226POPC   C3B 3264   5.090   6.341   7.038  0.0327 -0.0353  0.0946
  226POPC   C4B 3265   5.238   6.178   7.467 -0.0154  0.3407 -0.1102
  227POPC   NC3 3266  10.217   3.145   4.547  0.0561  0.0852 -0.0430
  227POPC   PO4 3267   9.857   3.012   4.643 -0.2923  0.2665 -0.3546
  227POPC   GL1 3268   9.704   3.106   5.077  0.0786  0.1864 -0.0664
  227POPC   GL2 3269   9.578   2.951   5.451  0.5687 -0.5782  0.0303
  227POPC   C1A 3270   9.613   3.399   5.390 -0.2736  0.0281 -0.3615
  227POPC   D2A 3271   9.319   3.607   5.754  0.2351 -0.2405 -0.0861
  227POPC   C3A 3272   9.373   3.763   6.127  0.2843 -0.1305  0.1343
  227POPC   C4A 3273   9.717   4.042   6.379  0.0585  0.1290 -0.0576
  227POPC   C1B 3274   9.636   3.118   5.903 -0.4120 -0.0548  0.0452
  227POPC   C2B 3275   9.733   3.185   6.320 -0.2704 -0.0762 -0.0788
  227POPC   C3B 3276  10.109   3.129   6.535 -0.0043 -0.1616  0.1841
  227POPC   C4B 3277  10.595   3.076   6.530  0.0045  0.2531  0.4363
  228POPC   NC3 3278   8.906   1.762   4.692  0.0804  0.2715 -0.1837
  228POPC   PO4 3279   8.578   1.574   4.952 -0.0005 -0.4476 -0.0361
  228POPC   GL1 3280   8.499   1.906   5.267 -0.1629  0.0057  0.3824
  228POPC   GL2 3281   8.613   1.807   5.543  0.0309  0.1015 -0.0349
  228POPC   C1A 3282   8.638   2.312   5.420 -0.0849  0.0229  0.2164
  228POPC   D2A 3283   8.507   2.555   5.767 -0.2349 -0.1149  0.1281
  228POPC   C3A 3284   8.762   2.774   6.053  0.1032  0.2499  0.3200
  228POPC   C4A 3285   8.766   2.873   6.438 -0.0554 -0.0192  0.2636
  228POPC   C1B 3286   8.769   1.909   5.840  0.3663 -0.0730  0.0744
  228POPC   C2B 3287   8.812   2.200   6.153  0.0079 -0.1532  0.1625
  228POPC   C3B 3288   8.719   2.379   6.491 -0.2959 -0.1155 -0.2525
  228POPC   C4B 3289   8.413   2.444   6.878  0.1577 -0.0552  0.0170
  229POPC   NC3 3290   0.360   6.446   3.462  0.2168 -0.2029 -0.0242
  229POPC   PO4 3291   0.730   6.498   3.764  0.2291  0.1133 -0.2589
  229POPC   GL1 3292   0.692   6.730   4.170  0.0463  0.0381  0.0843
  229POPC   GL2 3293   0.800   6.732   4.412 -0.0913  0.1081 -0.0199
  229POPC   C1A 3294   0.273   6.663   4.405 -0.1953 -0.0316  0.0700
  229POPC   D2A 3295  -0.036   6.777   4.588  0.0806 -0.1001  0.2173
  229POPC   C3A 3296  -0.142   6.883   5.072 -0.0794 -0.0996  0.1887
  229POPC   C4A 3297  -0.043   6.878   5.493 -0.2544 -0.1109  0.6281
  229POPC   C1B 3298   1.148   6.568   4.321 -0.1029 -0.1679  0.0452
  229POPC   C2B 3299   1.597   6.737   4.216  0.2211  0.2229  0.0864
  229POPC   C3B 3300   1.827   6.737   4.544 -0.0855  0.4248  0.1776
  229POPC   C4B 3301   1.895   6.857   4.902  0.0135 -0.0118  0.2616
  230POPC   NC3 3302   6.729   6.062   5.179 -0.1067  0.1739  0.0320
  230POPC   PO4 3303   6.490   5.702   5.074 -0.1092 -0.0136  0.2481
  230POPC   GL1 3304   6.432   5.893   5.503  0.0576 -0.1767 -0.3935
  230POPC   GL2 3305   6.154   5.842   5.562  0.1082 -0.3652  0.0269
  230POPC   C1A 3306   6.604   6.068   5.826  0.3992  0.1350 -0.1157
  230POPC   D2A 3307   6.644   6.168   6.232  0.1061 -0.2197  0.0682
  230POPC   C3A 3308   6.504   6.316   6.641 -0.1299 -0.1776  0.0283
  230POPC   C4A 3309   6.714   6.455   7.068 -0.1767 -0.3026 -0.0701
  230POPC   C1B 3310   6.179   5.815   6.047 -0.0762 -0.0619 -0.1119
  230POPC   C2B 3311   6.078   6.037   6.392  0.0289 -0.3096  0.1337
  230POPC   C3B 3312   5.878   6.134   6.796  0.1297 -0.2044 -0.1736
  230POPC   C4B 3313   5.641   6.111   7.208  0.1376  0.2359 -0.1779
  231POPC   NC3 3314   0.223   7.578   3.944 -0.1443 -0.0306  0.0037
  231POPC   PO4 3315  -0.219   7.800   4.055  0.1794 -0.2232 -0.2301
  231POPC   GL1 3316  -0.065   7.796   4.439  0.0211  0.2219  0.0889
  231POPC   GL2 3317   0.262   7.773   4.427 -0.0884 -0.0402  0.3911
  231POPC   C1A 3318   0.130   7.635   4.854 -0.0823  0.0587  0.5530
  231POPC   D2A 3319   0.071   7.313   5.189  0.0882  0.0160 -0.1777
  231POPC   C3A 3320   0.483   7.156   5.324 -0.1088  0.0583 -0.1266
  231POPC   C4A 3321   0.877   7.409   5.598  0.0831  0.3199 -0.0677
  231POPC   C1B 3322   0.652   7.641   4.714 -0.1318  0.1945  0.1150
  231POPC   C2B 3323   0.803   7.770   5.125  0.1078  0.3266 -0.1133
  231POPC   C3B 3324   0.749   8.014   5.535 -0.0733 -0.3167 -0.0415
  231POPC   C4B 3325   0.487   7.971   5.893 -0.1980  0.2785  0.1338
  232POPC   NC3 3326   7.420   3.965   5.219 -0.1206 -0.1625  0.1588
  232POPC   PO4 3327   7.077   4.298   5.196  0.0829 -0.2151  0.1405
  232POPC   GL1 3328   7.037   4.083   5.558 -0.3439  0.2926 -0.0094
  232POPC   GL2 3329   6.819   4.354   5.678 -0.0487 -0.0989 -0.4546
  232POPC   C1A 3330   7.197   4.008   5.953  0.0026 -0.1137 -0.0152
  232POPC   D2A 3331   7.263   4.042   6.378 -0.2567 -0.1238 -0.3523
  232POPC   C3A 3332   7.440   4.226   6.754  0.1502 -0.2401  0.0689
  232POPC   C4A 3333   7.491   4.530   7.001 -0.5587  0.0067 -0.0284
  232POPC   C1B 3334   6.793   4.242   6.098  0.3673 -0.2040 -0.1056
  232POPC   C2B 3335   6.476   4.424   6.421 -0.2885 -0.1049  0.1293
  232POPC   C3B 3336   6.561   4.636   6.842  0.2261  0.2160  0.1639
  232POPC   C4B 3337   6.764   4.933   7.111 -0.0176 -0.0895  0.0985
  233POPC   NC3 3338   8.724  10.409   4.890 -0.1878  0.1261 -0.3610
  233POPC   PO4 3339   8.904  10.818   4.982 -0.1975  0.3870 -0.2359
  233POPC   GL1 3340   9.001  10.831   5.398  0.2702 -0.0503 -0.0607
  233POPC   GL2 3341   9.116  10.476   5.411  0.2482 -0.0354 -0.1630
  233POPC   C1A 3342   9.088  10.878   5.845 -0.0147  0.0927 -0.1285
  233POPC   D2A 3343   9.121  11.018   6.326  0.0832  0.1845 -0.2593
  233POPC   C3A 3344   8.962  10.824   6.729  0.2265  0.5985 -0.2941
  233POPC   C4A 3345   8.724  10.596   7.035  0.1019  0.1007 -0.0464
  233POPC   C1B 3346   8.883  10.435   5.783  0.0411 -0.0169 -0.1133
  233POPC   C2B 3347   8.668  10.066   6.103 -0.1159  0.1072  0.0599
  233POPC   C3B 3348   8.900   9.756   6.312  0.0697  0.0373 -0.1207
  233POPC   C4B 3349   8.898   9.746   6.871  0.2383 -0.0290  0.3108
  234POPC   NC3 3350   8.105   1.500   4.968 -0.2004  0.0997  0.1377
  234POPC   PO4 3351   8.333   1.086   5.008 -0.0293  0.0211  0.1776
  234POPC   GL1 3352   8.347   1.063   5.462 -0.0649 -0.3429  0.2098
  234POPC   GL2 3353   8.473   1.349   5.560  0.0783 -0.1017  0.0869
  234POPC   C1A 3354   8.353   0.802   5.917 -0.2077  0.3245  0.0681
  234POPC   D2A 3355   8.289   0.845   6.360  0.0779  0.0383  0.1519
  234POPC   C3A 3356   7.918   0.963   6.296 -0.2189  0.1305 -0.0739
  234POPC   C4A 3357   7.660   1.282   6.263  0.0794  0.1113 -0.2721
  234POPC   C1B 3358   8.738   1.371   5.902 -0.2260  0.1367 -0.0124
  234POPC   C2B 3359   9.018   1.540   6.161 -0.2077  0.1807  0.2084
  234POPC   C3B 3360   9.414   1.578   6.386 -0.0305  0.0403  0.2320
  234POPC   C4B 3361   9.665   1.351   6.709  0.0007  0.2153  0.2270
  235POPC   NC3 3362   6.324   8.264   4.923  0.1519  0.0313 -0.1293
  235POPC   PO4 3363   6.062   7.904   4.943 -0.1215 -0.4145  0.0592
  235POPC   GL1 3364   6.226   7.796   5.341  0.1861 -0.1911 -0.1477
  235POPC   GL2 3365   6.214   7.482   5.430 -0.0628  0.1495  0.0545
  235POPC   C1A 3366   6.229   7.910   5.677  0.0176 -0.0541  0.2449
  235POPC   D2A 3367   5.943   8.040   5.941 -0.3014  0.2234  0.0256
  235POPC   C3A 3368   5.968   8.026   6.435  0.0575 -0.2032  0.0207
  235POPC   C4A 3369   6.107   8.061   6.910  0.2355  0.0615  0.0400
  235POPC   C1B 3370   6.472   7.496   5.808  0.0267  0.3590 -0.0913
  235POPC   C2B 3371   6.338   7.375   6.178 -0.0219 -0.0023 -0.0848
  235POPC   C3B 3372   6.076   7.125   6.350 -0.2667 -0.0891  0.0334
  235POPC   C4B 3373   6.239   7.033   6.692  0.0255 -0.0874 -0.3633
  236POPC   NC3 3374   4.291   3.931   5.434  0.1883 -0.2617 -0.0142
  236POPC   PO4 3375   4.373   4.305   5.591  0.2944 -0.0763 -0.0081
  236POPC   GL1 3376   4.265   4.173   5.960 -0.0605  0.0686 -0.0484
  236POPC   GL2 3377   4.418   3.880   5.960  0.1263 -0.1964 -0.0659
  236POPC   C1A 3378   4.235   4.201   6.435  0.2315 -0.0317 -0.0216
  236POPC   D2A 3379   4.250   4.063   6.827 -0.2313  0.0294  0.1588
  236POPC   C3A 3380   4.114   3.558   6.847  0.2211  0.0521 -0.1858
  236POPC   C4A 3381   4.020   3.068   6.947  0.5416  0.2056  0.0261
  236POPC   C1B 3382   4.064   3.622   6.080 -0.0588  0.2118  0.1919
  236POPC   C2B 3383   3.862   3.702   6.416  0.0357  0.1842  0.1302
  236POPC   C3B 3384   3.434   3.647   6.704 -0.0107  0.0652  0.1814
  236POPC   C4B 3385   3.315   3.771   7.175  0.0967 -0.0261  0.2180
  237POPC   NC3 3386   3.173   6.786   4.215 -0.2123  0.2726  0.1089
  237POPC   PO4 3387   3.216   7.221   4.101  0.3539 -0.0137  0.1925
  237POPC   GL1 3388   3.033   7.164   4.497 -0.0164 -0.0453 -0.3338
  237POPC   GL2 3389   3.019   7.508   4.564  0.0927 -0.1181 -0.0273
  237POPC   C1A 3390   2.744   6.970   4.656  0.1070 -0.1828 -0.0572
  237POPC   D2A 3391   2.293   6.972   4.531  0.1204 -0.1711 -0.3533
  237POPC   C3A 3392   1.963   7.306   4.727 -0.2656  0.2266  0.0467
  237POPC   C4A 3393   1.706   7.665   4.711 -0.0397 -0.2482 -0.3773
  237POPC   C1B 3394   2.990   7.697   4.950 -0.3530  0.0795 -0.1728
  237POPC   C2B 3395   2.959   8.152   5.208 -0.1948  0.1205 -0.1287
  237POPC   C3B 3396   3.204   8.465   5.381  0.3156  0.1161 -0.1696
  237POPC   C4B 3397   2.957   8.786   5.631 -0.1731 -0.0485  0.1148
  238POPC   NC3 3398   8.003   7.388   4.898  0.2632  0.0262 -0.2430
  238POPC   PO4 3399   8.057   7.747   5.181 -0.0217  0.0915 -0.1223
  238POPC   GL1 3400   8.289   7.543   5.568  0.5069  0.3236  0.3415
  238POPC   GL2 3401   8.192   7.354   5.863  0.1074  0.2704  0.1291
  238POPC   C1A 3402   8.439   7.743   5.974 -0.0731  0.1020 -0.3087
  238POPC   D2A 3403   8.198   7.749   6.317 -0.2089 -0.2847  0.0978
  238POPC   C3A 3404   7.745   7.712   6.301 -0.2702 -0.3208 -0.1442
  238POPC   C4A 3405   7.423   7.971   6.318 -0.1773  0.1278 -0.2597
  238POPC   C1B 3406   8.572   7.102   6.043 -0.2168 -0.0109 -0.1433
  238POPC   C2B 3407   8.750   6.679   6.071  0.1516 -0.2342  0.0408
  238POPC   C3B 3408   8.871   6.530   6.379 -0.0577  0.2294 -0.0966
  238POPC   C4B 3409   8.951   6.237   6.706  0.0239  0.1193 -0.2718
  239POPC   NC3 3410   4.680   5.463   5.106 -0.1149  0.1879  0.0854
  239POPC   PO4 3411   4.333   5.365   4.740  0.2465 -0.1350 -0.2430
  239POPC   GL1 3412   4.038   5.643   4.998  0.0016 -0.3247  0.0249
  239POPC   GL2 3413   4.064   5.940   5.079 -0.1202 -0.0192 -0.0198
  239POPC   C1A 3414   3.682   5.473   5.331  0.0400 -0.0839  0.1289
  239POPC   D2A 3415   3.655   5.191   5.566  0.3385 -0.2815  0.0424
  239POPC   C3A 3416   3.918   5.048   5.908  0.4154  0.0866  0.0266
  239POPC   C4A 3417   4.223   5.088   5.963  0.1542  0.1776 -0.2114
  239POPC   C1B 3418   4.177   5.749   5.464 -0.1641  0.0565  0.1542
  239POPC   C2B 3419   4.034   5.511   5.788  0.1454 -0.0337 -0.1762
  239POPC   C3B 3420   4.110   5.526   6.188  0.0303 -0.1914  0.3635
  239POPC   C4B 3421   4.106   5.893   6.468  0.1326 -0.5535  0.2826
  240POPC   NC3 3422   5.603   1.353   5.627  0.3957 -0.1075  0.2629
  240POPC   PO4 3423   5.856   1.083   5.362  0.1470 -0.1555  0.1346
  240POPC   GL1 3424   6.097   1.166   5.621 -0.0854 -0.0704 -0.3576
  240POPC   GL2 3425   6.401   1.211   5.464 -0.2916 -0.1928 -0.1005
  240POPC   C1A 3426   6.074   1.173   6.053 -0.0012  0.0056  0.3255
  240POPC   D2A 3427   6.219   1.204   6.433  0.1461 -0.1145  0.0050
  240POPC   C3A 3428   5.939   1.083   6.841 -0.0224  0.0402  0.0959
  240POPC   C4A 3429   5.564   1.297   6.986  0.0164 -0.0245  0.2104
  240POPC   C1B 3430   6.625   1.333   5.849  0.0993 -0.1039 -0.1953
  240POPC   C2B 3431   6.692   1.197   6.206  0.2379 -0.0004 -0.0113
  240POPC   C3B 3432   6.641   1.487   6.521 -0.1136 -0.4171 -0.1607
  240POPC   C4B 3433   6.651   1.781   6.859 -0.2182 -0.0542 -0.0568
  241POPC   NC3 3434   3.912   1.411   5.308  0.1304  0.2559  0.3655
  241POPC   PO4 3435   3.418   1.646   5.353  0.0162  0.2727 -0.0248
  241POPC   GL1 3436   3.123   1.635   5.699 -0.0683  0.0885  0.3620
  241POPC   GL2 3437   3.239   1.718   5.857 -0.0572  0.0241 -0.3336
  241POPC   C1A 3438   2.784   1.628   5.970 -0.1442  0.3262 -0.0116
  241POPC   D2A 3439   2.818   1.477   6.404  0.0292 -0.2089  0.0430
  241POPC   C3A 3440   2.783   1.651   6.855  0.0568 -0.0828 -0.1917
  241POPC   C4A 3441   3.128   1.891   7.142 -0.0701 -0.0851 -0.1193
  241POPC   C1B 3442   3.067   1.884   6.311 -0.1716  0.2308  0.1753
  241POPC   C2B 3443   2.871   2.097   6.651 -0.1551 -0.0820  0.1932
  241POPC   C3B 3444   2.696   2.142   7.009  0.1970  0.0188  0.0674
  241POPC   C4B 3445   2.483   2.233   7.400 -0.1203  0.1238  0.2228
  242POPC   NC3 3446   3.628   0.907   5.372 -0.2459 -0.2809 -0.0928
  242POPC   PO4 3447   4.036   1.043   5.563 -0.0017 -0.2795  0.1054
  242POPC   GL1 3448   4.059   0.812   5.895 -0.1734 -0.2204 -0.0242
  242POPC   GL2 3449   4.308   0.643   5.858 -0.3548  0.0576  0.1433
  242POPC   C1A 3450   3.924   0.653   6.374  0.0334 -0.2882  0.4451
  242POPC   D2A 3451   3.587   0.778   6.654 -0.0748 -0.3020 -0.1151
  242POPC   C3A 3452   3.563   1.105   6.685  0.1696 -0.2295  0.0372
  242POPC   C4A 3453   3.361   1.476   6.666  0.2279  0.2120 -0.1480
  242POPC   C1B 3454   4.184   0.270   5.944 -0.2823  0.0329  0.0525
  242POPC   C2B 3455   3.974   0.170   6.363 -0.3962  0.2348 -0.2686
  242POPC   C3B 3456   3.595   0.287   6.546 -0.0097  0.2101  0.3391
  242POPC   C4B 3457   3.553   0.335   6.920 -0.0042  0.5314  0.0584
  243POPC   NC3 3458  10.250   1.505   5.155 -0.0341 -0.0646  0.0718
  243POPC   PO4 3459  10.628   1.711   5.178  0.1014 -0.3071  0.0444
  243POPC   GL1 3460  10.609   1.668   5.693  0.2955 -0.0885 -0.1097
  243POPC   GL2 3461  10.878   1.589   5.892 -0.4323 -0.0049  0.0495
  243POPC   C1A 3462  10.393   1.580   6.072 -0.4897  0.1119  0.0696
  243POPC   D2A 3463  10.275   1.769   6.400  0.1552  0.3126 -0.5871
  243POPC   C3A 3464  10.166   2.137   6.656 -0.0409 -0.2660 -0.1298
  243POPC   C4A 3465   9.877   2.386   6.870  0.1365  0.1219 -0.1401
  243POPC   C1B 3466  10.882   1.719   6.218 -0.0515 -0.1244  0.0672
  243POPC   C2B 3467  10.693   1.629   6.659  0.0767 -0.0542  0.3472
  243POPC   C3B 3468  10.570   1.644   7.161 -0.1144 -0.0276  0.0900
  243POPC   C4B 3469  10.669   1.783   7.554 -0.1694  0.1019 -0.1091
  244POPC   NC3 3470   8.103   5.225   5.230  0.0250  0.0142 -0.0807
  244POPC   PO4 3471   8.155   4.710   5.203 -0.0660  0.4800 -0.3302
  244POPC   GL1 3472   8.395   4.848   5.601 -0.1449 -0.0222 -0.1905
  244POPC   GL2 3473   8.257   5.174   5.692 -0.3015  0.0933 -0.1001
  244POPC   C1A 3474   8.528   4.599   5.897  0.0728 -0.2609 -0.3063
  244POPC   D2A 3475   8.786   4.509   6.220  0.1334  0.1170 -0.1122
  244POPC   C3A 3476   8.787   4.773   6.513  0.0152  0.0618  0.2684
  244POPC   C4A 3477   8.676   4.833   6.805 -0.0551  0.1347  0.0714
  244POPC   C1B 3478   8.194   4.994   6.065  0.0558  0.0464  0.1144
  244POPC   C2B 3479   8.538   5.111   6.125 -0.1359 -0.2711 -0.0412
  244POPC   C3B 3480   8.770   5.256   6.452  0.0110  0.1391  0.0963
  244POPC   C4B 3481   8.709   5.327   6.886 -0.1551  0.0037  0.0946
  245POPC   NC3 3482   8.275   4.240   4.948 -0.2139 -0.2252 -0.0727
  245POPC   PO4 3483   7.791   4.111   4.925  0.1364 -0.0016  0.1818
  245POPC   GL1 3484   7.887   4.074   5.353  0.0423 -0.1391 -0.2085
  245POPC   GL2 3485   8.150   4.269   5.414  0.2387  0.0192  0.0389
  245POPC   C1A 3486   7.666   4.104   5.780  0.2686  0.1078  0.3465
  245POPC   D2A 3487   7.753   4.000   6.200 -0.3891  0.0579  0.0349
  245POPC   C3A 3488   7.996   4.228   6.438 -0.3453  0.0527 -0.1311
  245POPC   C4A 3489   8.005   4.453   6.842 -0.3377  0.0498 -0.0470
  245POPC   C1B 3490   8.065   4.442   5.935  0.0031  0.2288 -0.2115
  245POPC   C2B 3491   7.799   4.776   6.262 -0.2572  0.1514  0.2083
  245POPC   C3B 3492   7.500   4.764   6.583  0.1084 -0.1044  0.0030
  245POPC   C4B 3493   7.095   4.800   6.744 -0.2535  0.0785  0.1477
  246POPC   NC3 3494   7.138   5.479   4.609  0.2853  0.2653 -0.0166
  246POPC   PO4 3495   7.193   5.138   4.988 -0.0867  0.1935 -0.4181
  246POPC   GL1 3496   7.163   5.262   5.467  0.3314 -0.1573  0.2324
  246POPC   GL2 3497   7.386   5.198   5.657  0.2067  0.1033  0.3892
  246POPC   C1A 3498   6.901   5.151   5.778 -0.1078 -0.0729 -0.1308
  246POPC   D2A 3499   6.734   5.221   6.119  0.3112  0.0230 -0.1163
  246POPC   C3A 3500   6.316   5.311   6.290  0.0378  0.1038  0.2978
  246POPC   C4A 3501   6.026   5.503   6.373 -0.1560  0.2904 -0.0103
  246POPC   C1B 3502   7.387   4.973   6.004 -0.0278  0.1191  0.1151
  246POPC   C2B 3503   7.334   5.161   6.349  0.0005  0.2238 -0.2184
  246POPC   C3B 3504   7.173   5.272   6.754 -0.2519 -0.1052  0.0521
  246POPC   C4B 3505   7.075   5.331   7.234  0.2261 -0.0187  0.0042
  247POPC   NC3 3506   7.266   9.260   5.595 -0.0290 -0.1603 -0.0592
  247POPC   PO4 3507   6.949   9.342   5.472 -0.0732 -0.1481 -0.0456
  247POPC   GL1 3508   6.766   9.096   5.847 -0.0896 -0.1492 -0.3809
  247POPC   GL2 3509   7.058   9.230   6.078 -0.1869  0.1440 -0.2051
  247POPC   C1A 3510   6.739   8.908   6.238 -0.3374 -0.1062 -0.3372
  247POPC   D2A 3511   6.507   8.571   6.411  0.0735  0.0743  0.4141
  247POPC   C3A 3512   6.379   8.266   6.078 -0.0654 -0.1054  0.1911
  247POPC   C4A 3513   6.340   7.877   6.201  0.0200  0.0697  0.2951
  247POPC   C1B 3514   7.103   9.647   6.282 -0.3411  0.0250 -0.3345
  247POPC   C2B 3515   6.955   9.805   6.668  0.1253 -0.0358 -0.0771
  247POPC   C3B 3516   6.681  10.169   6.955 -0.2272  0.0934  0.2029
  247POPC   C4B 3517   6.256  10.025   7.112 -0.0628  0.1125 -0.1004
  248POPC   NC3 3518   3.279   3.872   5.121 -0.0493  0.3005  0.0627
  248POPC   PO4 3519   3.733   3.853   5.200 -0.1592 -0.0567 -0.0702
  248POPC   GL1 3520   3.534   4.103   5.594  0.0281 -0.0816  0.4290
  248POPC   GL2 3521   3.826   4.038   5.704 -0.2081  0.1484 -0.0223
  248POPC   C1A 3522   3.320   4.199   5.901 -0.0128  0.0921 -0.0455
  248POPC   D2A 3523   3.156   4.311   6.197  0.0505 -0.1658 -0.1856
  248POPC   C3A 3524   3.183   4.047   6.572 -0.0794  0.1902  0.2126
  248POPC   C4A 3525   2.914   4.084   6.904 -0.2172  0.2444 -0.2192
  248POPC   C1B 3526   3.748   4.206   6.174 -0.1076  0.3481  0.2803
  248POPC   C2B 3527   3.719   4.226   6.624 -0.0148 -0.0036 -0.0280
  248POPC   C3B 3528   3.835   4.426   7.016 -0.0030  0.1520 -0.1864
  248POPC   C4B 3529   4.060   4.809   7.288 -0.0948  0.0171 -0.1246
  249POPC   NC3 3530   7.101   8.498   4.673  0.3618  0.1260 -0.1774
  249POPC   PO4 3531   6.788   8.363   5.088 -0.0227 -0.0680 -0.0775
  249POPC   GL1 3532   6.821   8.253   5.465  0.0050 -0.2694  0.2650
  249POPC   GL2 3533   6.717   8.466   5.742  0.4224 -0.0744  0.0268
  249POPC   C1A 3534   6.699   7.928   5.787  0.1807  0.1404  0.0105
  249POPC   D2A 3535   6.971   7.686   6.017 -0.0391  0.1361 -0.0265
  249POPC   C3A 3536   6.910   7.817   6.430 -0.4814 -0.0160 -0.2004
  249POPC   C4A 3537   6.519   8.031   6.617  0.2247  0.3984  0.0129
  249POPC   C1B 3538   6.383   8.757   5.914  0.1555 -0.3687  0.0006
  249POPC   C2B 3539   6.146   9.078   6.278 -0.2473 -0.1271  0.1737
  249POPC   C3B 3540   6.207   9.384   6.625  0.1500 -0.0222  0.2388
  249POPC   C4B 3541   6.066   9.518   6.996 -0.1303  0.4059  0.1418
  250POPC   NC3 3542   4.885   9.323   4.741  0.2647  0.1829  0.1391
  250POPC   PO4 3543   4.922   8.984   5.055  0.0146 -0.2470  0.0256
  250POPC   GL1 3544   5.193   9.148   5.390  0.2241  0.2162 -0.2289
  250POPC   GL2 3545   5.326   9.359   5.492  0.1107 -0.0949 -0.0142
  250POPC   C1A 3546   5.232   8.867   5.748  0.0611 -0.1739  0.1943
  250POPC   D2A 3547   5.072   8.599   6.108 -0.0096 -0.4486  0.1554
  250POPC   C3A 3548   4.687   8.756   6.341  0.0202  0.0925 -0.3040
  250POPC   C4A 3549   4.409   8.426   6.563 -0.1164  0.0468  0.1614
  250POPC   C1B 3550   5.455   9.425   5.923  0.4577 -0.0241  0.1175
  250POPC   C2B 3551   5.452   9.354   6.342 -0.6594 -0.1190  0.0419
  250POPC   C3B 3552   5.306   9.514   6.726 -0.3655  0.0284 -0.2589
  250POPC   C4B 3553   5.208   9.665   7.081 -0.2195 -0.4777 -0.0377
  251POPC   NC3 3554  10.042   8.173   4.363  0.0391  0.1203 -0.1860
  251POPC   PO4 3555  10.481   8.251   4.470  0.0123 -0.2122 -0.0335
  251POPC   GL1 3556  10.465   8.212   4.899 -0.0386  0.1977 -0.1696
  251POPC   GL2 3557  10.206   8.026   4.902 -0.1476 -0.1940  0.0274
  251POPC   C1A 3558  10.321   8.337   5.294  0.1217  0.1104 -0.1623
  251POPC   D2A 3559  10.537   8.586   5.614  0.0510  0.0348 -0.0324
  251POPC   C3A 3560  10.876   8.426   5.884 -0.0530  0.1523 -0.2346
  251POPC   C4A 3561  11.165   8.193   6.255 -0.2666  0.2135  0.0379
  251POPC   C1B 3562  10.344   7.835   5.263 -0.0415 -0.1948  0.2400
  251POPC   C2B 3563  10.480   7.962   5.634 -0.1573 -0.1212  0.1396
  251POPC   C3B 3564  10.525   7.628   5.971  0.1202  0.3002 -0.2873
  251POPC   C4B 3565  10.231   7.351   5.923  0.2196 -0.4069  0.0389
  252POPC   NC3 3566   9.950   1.165   4.968  0.1337 -0.0388 -0.1898
  252POPC   PO4 3567  10.272   0.929   5.087 -0.2265  0.1236 -0.4303
  252POPC   GL1 3568  10.313   1.187   5.544  0.1236  0.0476  0.2237
  252POPC   GL2 3569  10.100   1.274   5.692  0.0021 -0.0343 -0.0021
  252POPC   C1A 3570  10.562   1.129   5.921 -0.2430 -0.0141 -0.1819
  252POPC   D2A 3571  10.860   1.194   6.299 -0.3627 -0.1115 -0.3458
  252POPC   C3A 3572  10.813   1.107   6.754 -0.0452 -0.0004  0.0126
  252POPC   C4A 3573  10.464   1.150   6.983 -0.1367 -0.0232 -0.0865
  252POPC   C1B 3574  10.112   0.851   6.027 -0.0810  0.0877 -0.0635
  252POPC   C2B 3575  10.077   0.506   6.387  0.2184  0.0580  0.1284
  252POPC   C3B 3576  10.135   0.333   6.798  0.1564  0.1053 -0.0043
  252POPC   C4B 3577  10.491   0.142   7.047 -0.1590  0.0285  0.0555
  253POPC   NC3 3578   6.052   4.286   5.223 -0.0701 -0.1722  0.3536
  253POPC   PO4 3579   6.390   3.902   5.126 -0.1574  0.2095 -0.2874
  253POPC   GL1 3580   6.517   3.896   5.531  0.2310  0.1817  0.0553
  253POPC   GL2 3581   6.392   4.189   5.691  0.0912  0.1682 -0.1965
  253POPC   C1A 3582   6.632   3.717   5.962 -0.2135 -0.1530 -0.0610
  253POPC   D2A 3583   6.586   3.891   6.470 -0.4487  0.2043 -0.0434
  253POPC   C3A 3584   6.490   3.986   6.868 -0.3597  0.0511 -0.3364
  253POPC   C4A 3585   6.382   4.254   7.273  0.2017  0.2818 -0.2914
  253POPC   C1B 3586   6.281   4.082   6.111 -0.2224 -0.1731  0.1263
  253POPC   C2B 3587   6.023   4.034   6.420 -0.0452 -0.0295  0.1969
  253POPC   C3B 3588   5.681   4.096   6.718 -0.0339  0.4960  0.3563
  253POPC   C4B 3589   5.411   4.287   7.095  0.0287  0.6334  0.2064
  254POPC   NC3 3590   3.641   3.013   5.510  0.4342  0.0797 -0.0932
  254POPC   PO4 3591   3.806   3.342   5.150  0.0403  0.0704 -0.0559
  254POPC   GL1 3592   3.547   3.528   5.578 -0.3989  0.1199 -0.0559
  254POPC   GL2 3593   3.199   3.709   5.566  0.0476  0.2336 -0.1571
  254POPC   C1A 3594   3.517   3.707   5.956 -0.0324 -0.0356  0.2731
  254POPC   D2A 3595   3.070   3.726   6.098 -0.3012  0.2691 -0.1547
  254POPC   C3A 3596   2.809   4.045   5.866  0.0645  0.1169 -0.0679
  254POPC   C4A 3597   2.606   3.945   5.471 -0.1030 -0.2540 -0.0214
  254POPC   C1B 3598   3.137   3.270   5.745  0.2001 -0.0543 -0.0996
  254POPC   C2B 3599   3.037   3.006   6.047  0.2241 -0.0404 -0.2780
  254POPC   C3B 3600   3.381   2.781   6.334  0.0231 -0.0933 -0.1282
  254POPC   C4B 3601   3.764   2.719   6.529 -0.3081  0.1313  0.1194
  255POPC   NC3 3602   7.076   8.796   5.626 -0.0766  0.1901  0.0736
  255POPC   PO4 3603   7.511   8.816   5.415 -0.0862  0.0348 -0.0311
  255POPC   GL1 3604   7.497   8.938   5.887 -0.3197  0.1609  0.2718
  255POPC   GL2 3605   7.906   8.895   6.072  0.1688  0.1531 -0.2035
  255POPC   C1A 3606   7.530   9.139   6.272  0.0084 -0.0848  0.1165
  255POPC   D2A 3607   7.273   9.209   6.538 -0.0146 -0.0321 -0.0527
  255POPC   C3A 3608   7.381   9.567   6.676  0.2384  0.0242  0.1297
  255POPC   C4A 3609   7.589   9.785   6.927  0.1025  0.2409 -0.0912
  255POPC   C1B 3610   8.115   8.797   6.496  0.1850 -0.1597 -0.2019
  255POPC   C2B 3611   8.365   9.070   6.736 -0.0023  0.1761  0.1354
  255POPC   C3B 3612   8.772   9.336   6.587  0.2373  0.2314 -0.0299
  255POPC   C4B 3613   9.201   9.411   6.759 -0.2027  0.0311  0.2003
  256POPC   NC3 3614   7.694   4.969   5.186 -0.0057 -0.1387  0.2407
  256POPC   PO4 3615   7.618   5.350   5.287  0.0831 -0.0869  0.2241
  256POPC   GL1 3616   7.786   5.454   5.777  0.0634  0.2394  0.0575
  256POPC   GL2 3617   7.847   5.796   5.862 -0.2251 -0.1439  0.0018
  256POPC   C1A 3618   7.840   5.311   6.151  0.1481 -0.0634 -0.0591
  256POPC   D2A 3619   7.762   5.454   6.526 -0.2041  0.1305  0.1809
  256POPC   C3A 3620   8.074   5.514   6.875  0.2337  0.2086 -0.4111
  256POPC   C4A 3621   8.454   5.733   6.971  0.1131 -0.2107 -0.0514
  256POPC   C1B 3622   7.695   5.874   6.241  0.5010 -0.0569  0.1096
  256POPC   C2B 3623   7.672   5.846   6.745  0.1156  0.0095  0.0439
  256POPC   C3B 3624   7.629   5.404   6.988 -0.2368  0.1498 -0.1004
  256POPC   C4B 3625   7.824   5.078   6.854 -0.0153  0.0545 -0.1504
  257POPC   NC3 3626   8.630   2.927   4.690 -0.1660  0.3059  0.1722
  257POPC   PO4 3627   8.168   2.943   4.939 -0.5244  0.3623 -0.4205
  257POPC   GL1 3628   8.228   2.826   5.445  0.0712 -0.2887  0.0732
  257POPC   GL2 3629   7.936   2.790   5.523  0.2388 -0.0617 -0.0750
  257POPC   C1A 3630   8.366   3.011   5.944 -0.3396 -0.1613  0.3811
  257POPC   D2A 3631   8.352   3.135   6.327  0.0393 -0.4223 -0.4038
  257POPC   C3A 3632   8.090   2.866   6.530 -0.1457  0.0684 -0.1391
  257POPC   C4A 3633   7.853   2.588   6.723 -0.2492 -0.3389  0.0584
  257POPC   C1B 3634   8.024   2.649   5.903  0.3151 -0.1371  0.2467
  257POPC   C2B 3635   8.306   2.557   6.230 -0.0610 -0.0445 -0.3545
  257POPC   C3B 3636   8.301   2.159   6.446  0.1237  0.4945 -0.3070
  257POPC   C4B 3637   8.038   1.810   6.310 -0.0349 -0.0664  0.3190
  258POPC   NC3 3638   6.057   0.342   5.079  0.0403  0.0669 -0.0062
  258POPC   PO4 3639   6.519   0.516   5.013  0.0628 -0.2004 -0.0783
  258POPC   GL1 3640   6.484   0.705   5.440  0.0506  0.2468  0.1681
  258POPC   GL2 3641   6.134   0.711   5.434  0.0846  0.1172 -0.2328
  258POPC   C1A 3642   6.713   0.778   5.874 -0.1668 -0.2296 -0.0144
  258POPC   D2A 3643   6.946   0.788   6.284  0.1296  0.1532 -0.1588
  258POPC   C3A 3644   7.179   0.848   6.683 -0.0546 -0.0963 -0.1301
  258POPC   C4A 3645   7.586   0.934   6.772 -0.1616  0.2802  0.1163
  258POPC   C1B 3646   6.251   0.767   5.923  0.2159 -0.2499  0.1843
  258POPC   C2B 3647   6.427   0.777   6.385 -0.0050  0.1439  0.2969
  258POPC   C3B 3648   6.571   0.975   6.685 -0.2353 -0.1797  0.0857
  258POPC   C4B 3649   6.815   1.347   6.978  0.0112  0.2841 -0.0338
  259POPC   NC3 3650   2.867   0.264   4.374 -0.3110  0.2989 -0.1213
  259POPC   PO4 3651   2.857   0.137   4.905  0.1755  0.2633 -0.0837
  259POPC   GL1 3652   2.771  -0.058   5.315 -0.1367 -0.0765  0.2625
  259POPC   GL2 3653   2.538   0.180   5.439 -0.2141 -0.1528  0.2475
  259POPC   C1A 3654   2.878  -0.157   5.755 -0.1418 -0.2636  0.0881
  259POPC   D2A 3655   2.964  -0.312   6.227 -0.0033  0.1470  0.2524
  259POPC   C3A 3656   3.295  -0.122   6.495  0.1026 -0.2415 -0.0169
  259POPC   C4A 3657   3.689  -0.179   6.611  0.3073 -0.1898  0.1403
  259POPC   C1B 3658   2.550   0.216   5.861 -0.0231  0.3317  0.2695
  259POPC   C2B 3659   2.390   0.371   6.237  0.0521 -0.1547  0.1242
  259POPC   C3B 3660   2.268   0.356   6.762  0.1220  0.0421  0.1292
  259POPC   C4B 3661   2.389   0.031   7.062 -0.2002 -0.2140  0.0191
  260POPC   NC3 3662   1.638   3.691   4.801 -0.1282  0.0237  0.0968
  260POPC   PO4 3663   1.727   3.300   4.956  0.1003 -0.1570  0.1970
  260POPC   GL1 3664   1.835   3.547   5.294  0.0744 -0.3180 -0.1510
  260POPC   GL2 3665   1.595   3.759   5.307 -0.3922  0.0907 -0.1902
  260POPC   C1A 3666   2.235   3.511   5.636 -0.3394  0.1148 -0.3650
  260POPC   D2A 3667   2.681   3.549   5.752 -0.0480  0.1959  0.0013
  260POPC   C3A 3668   2.622   3.365   6.192 -0.1427  0.1182  0.0229
  260POPC   C4A 3669   2.536   3.277   6.642 -0.0711 -0.2992 -0.3379
  260POPC   C1B 3670   1.384   4.150   5.450  0.0399 -0.0558  0.0780
  260POPC   C2B 3671   1.523   4.654   5.355 -0.0732  0.3086 -0.1606
  260POPC   C3B 3672   1.743   4.948   5.624 -0.1466  0.1620 -0.0502
  260POPC   C4B 3673   2.150   5.214   5.744  0.0316 -0.0724  0.1492
  261POPC   NC3 3674   4.398   0.328   5.307 -0.0906  0.1299  0.4330
  261POPC   PO4 3675   4.797   0.385   5.144  0.0360  0.0785  0.0533
  261POPC   GL1 3676   4.774   0.511   5.612  0.0508 -0.2732 -0.1609
  261POPC   GL2 3677   4.635   0.264   5.720 -0.0832 -0.1317 -0.0569
  261POPC   C1A 3678   4.709   0.509   6.130 -0.1684  0.3420 -0.1575
  261POPC   D2A 3679   4.792   0.729   6.561  0.0614 -0.0587 -0.1476
  261POPC   C3A 3680   5.060   0.524   6.818  0.2967 -0.3071 -0.0760
  261POPC   C4A 3681   5.423   0.335   7.085  0.2738  0.0649 -0.1917
  261POPC   C1B 3682   5.044   0.084   5.939 -0.1305  0.1591 -0.0275
  261POPC   C2B 3683   5.305  -0.144   5.971  0.1250  0.1737 -0.4357
  261POPC   C3B 3684   5.224  -0.553   6.210  0.4210 -0.0665  0.1630
  261POPC   C4B 3685   4.930  -0.813   6.362 -0.2097 -0.1706 -0.0906
  262POPC   NC3 3686   9.670   3.425   4.582  0.2171 -0.1132  0.2002
  262POPC   PO4 3687   9.529   3.861   4.742 -0.2189 -0.1222 -0.1314
  262POPC   GL1 3688   9.903   4.048   5.052  0.0797  0.0924  0.1447
  262POPC   GL2 3689  10.172   4.260   4.996 -0.3423 -0.1909  0.1169
  262POPC   C1A 3690   9.840   4.408   5.279  0.0204 -0.1839  0.0784
  262POPC   D2A 3691   9.953   4.725   5.383 -0.2201 -0.2376  0.1146
  262POPC   C3A 3692   9.737   4.758   5.666  0.2051 -0.2094  0.2022
  262POPC   C4A 3693   9.691   4.422   6.053  0.0377 -0.0210 -0.2248
  262POPC   C1B 3694  10.385   4.376   5.339  0.2881 -0.3438 -0.3525
  262POPC   C2B 3695  10.717   4.323   5.600 -0.1222  0.4639  0.0037
  262POPC   C3B 3696  11.008   4.227   5.923  0.0717  0.1852  0.0987
  262POPC   C4B 3697  11.333   4.258   6.202  0.2670 -0.1303  0.0864
  263POPC   NC3 3698   1.982   9.547   4.349  0.3256 -0.2169 -0.2574
  263POPC   PO4 3699   2.164   9.807   4.681  0.5581  0.2464  0.3880
  263POPC   GL1 3700   2.109   9.773   5.067 -0.3775  0.2844  0.1565
  263POPC   GL2 3701   1.801  10.002   5.085 -0.3551 -0.1441 -0.3472
  263POPC   C1A 3702   1.955   9.410   5.330 -0.1022  0.0977 -0.1333
  263POPC   D2A 3703   1.778   9.138   5.590 -0.2785 -0.0683 -0.0777
  263POPC   C3A 3704   1.834   9.211   6.000  0.3171 -0.1182 -0.0093
  263POPC   C4A 3705   2.080   9.226   6.331 -0.1153 -0.0196 -0.2814
  263POPC   C1B 3706   1.864   9.833   5.493 -0.3107 -0.0912  0.4802
  263POPC   C2B 3707   1.939   9.801   5.891  0.1931 -0.0881  0.1492
  263POPC   C3B 3708   1.886   9.663   6.259 -0.0873 -0.1887  0.1497
  263POPC   C4B 3709   1.811   9.897   6.632  0.3089  0.0454 -0.1099
  264POPC   NC3 3710   9.069   9.501   4.752 -0.2216 -0.1801 -0.0907
  264POPC   PO4 3711   8.980   9.714   5.120 -0.3232 -0.0606  0.1936
  264POPC   GL1 3712   9.274   9.855   5.333 -0.2147 -0.1150  0.0613
  264POPC   GL2 3713   9.437  10.114   5.484  0.3440 -0.1364 -0.3811
  264POPC   C1A 3714   9.453   9.613   5.656 -0.2144  0.0181  0.0608
  264POPC   D2A 3715   9.701   9.447   5.872 -0.0929 -0.0938  0.0137
  264POPC   C3A 3716   9.769   9.471   6.267 -0.4416 -0.2830 -0.4406
  264POPC   C4A 3717   9.774   9.376   6.690 -0.1848  0.3078  0.1601
  264POPC   C1B 3718   9.390  10.393   5.793 -0.4129 -0.1395 -0.2061
  264POPC   C2B 3719   9.247  10.437   6.179  0.1370  0.1024  0.3723
  264POPC   C3B 3720   9.454  10.209   6.482 -0.1381  0.0181 -0.0296
  264POPC   C4B 3721   9.585  10.283   6.882  0.0555 -0.2978  0.2622
  265POPC   NC3 3722   7.103   7.050   5.274  0.2507  0.0496 -0.0248
  265POPC   PO4 3723   6.680   6.951   5.412  0.1762  0.0119  0.1358
  265POPC   GL1 3724   6.468   7.005   5.675  0.1022  0.3429  0.4834
  265POPC   GL2 3725   6.103   6.970   5.572  0.3898  0.1366  0.0763
  265POPC   C1A 3726   6.481   6.978   6.021  0.0535 -0.0392 -0.0004
  265POPC   D2A 3727   6.607   6.781   6.472  0.3553 -0.0125 -0.2410
  265POPC   C3A 3728   6.685   6.922   6.906 -0.0401 -0.1726  0.1436
  265POPC   C4A 3729   6.644   7.260   7.217  0.0001  0.0962 -0.0518
  265POPC   C1B 3730   5.809   7.215   5.671 -0.1932 -0.4336 -0.0793
  265POPC   C2B 3731   5.532   7.280   5.973 -0.3061  0.1161 -0.1597
  265POPC   C3B 3732   5.305   7.360   6.300  0.1647 -0.5103  0.2086
  265POPC   C4B 3733   5.256   7.720   6.596 -0.0805 -0.0892 -0.1185
  266POPC   NC3 3734   3.942   7.495   4.587 -0.0179 -0.0725  0.0506
  266POPC   PO4 3735   4.056   7.050   4.441  0.1421  0.2150 -0.2663
  266POPC   GL1 3736   3.908   6.958   4.837  0.0639 -0.2374 -0.4018
  266POPC   GL2 3737   3.887   7.244   5.004  0.0548  0.1484  0.1407
  266POPC   C1A 3738   4.018   6.979   5.402  0.1186  0.2875  0.3084
  266POPC   D2A 3739   3.794   6.978   5.742  0.0843 -0.0507  0.1115
  266POPC   C3A 3740   3.997   7.337   5.984  0.3390 -0.0051 -0.1940
  266POPC   C4A 3741   4.303   7.640   6.063 -0.0669 -0.1421 -0.0751
  266POPC   C1B 3742   3.479   7.137   5.242  0.1670 -0.1552 -0.1566
  266POPC   C2B 3743   3.231   7.457   5.386 -0.0731  0.0890  0.0265
  266POPC   C3B 3744   2.935   7.739   5.471  0.1049 -0.1572  0.0279
  266POPC   C4B 3745   2.571   7.829   5.272  0.1662  0.1611  0.1886
  267POPC   NC3 3746   9.478   1.322   4.658  0.1306 -0.0374  0.4720
  267POPC   PO4 3747   9.469   1.157   5.065 -0.2667 -0.4477  0.0228
  267POPC   GL1 3748   9.273   1.129   5.439  0.2438 -0.1805  0.3188
  267POPC   GL2 3749   9.041   0.908   5.448 -0.1612  0.0289  0.0651
  267POPC   C1A 3750   9.234   1.093   5.959  0.0340  0.0354  0.1302
  267POPC   D2A 3751   9.276   1.116   6.412 -0.1408  0.1347 -0.1366
  267POPC   C3A 3752   9.157   1.395   6.743  0.2012  0.0986 -0.0862
  267POPC   C4A 3753   8.841   1.601   7.025 -0.0251 -0.1202 -0.1396
  267POPC   C1B 3754   8.865   0.841   5.761 -0.1637  0.1333 -0.0128
  267POPC   C2B 3755   8.782   0.989   6.187  0.0235 -0.2161  0.2169
  267POPC   C3B 3756   8.801   0.891   6.681 -0.1177  0.1945  0.2344
  267POPC   C4B 3757   8.939   1.045   7.106  0.2052 -0.0310 -0.2886
  268POPC   NC3 3758   8.868   5.597   4.714  0.0200  0.1877 -0.2411
  268POPC   PO4 3759   8.462   5.602   4.995  0.1393 -0.4698 -0.1128
  268POPC   GL1 3760   8.581   5.445   5.412  0.2031  0.1387 -0.0467
  268POPC   GL2 3761   8.522   5.654   5.625 -0.0079  0.0642 -0.2024
  268POPC   C1A 3762   8.827   5.263   5.756  0.1080 -0.0915  0.0166
  268POPC   D2A 3763   9.022   5.035   6.099 -0.0840  0.0905  0.1004
  268POPC   C3A 3764   9.549   4.935   6.081  0.1975 -0.0117  0.0375
  268POPC   C4A 3765   9.935   4.968   6.060  0.0206 -0.0700  0.2396
  268POPC   C1B 3766   8.311   5.627   5.985  0.1170  0.0288 -0.0028
  268POPC   C2B 3767   8.279   5.522   6.424  0.1912 -0.1293 -0.2135
  268POPC   C3B 3768   8.261   5.066   6.612 -0.0150 -0.0524 -0.2967
  268POPC   C4B 3769   8.268   4.637   6.444 -0.1371  0.2843  0.2270
  269POPC   NC3 3770   3.928   0.540   5.459  0.3736  0.1720 -0.2802
  269POPC   PO4 3771   4.018   0.098   5.181 -0.1173  0.1132 -0.1363
  269POPC   GL1 3772   3.923   0.009   5.601  0.0824  0.3683 -0.0159
  269POPC   GL2 3773   3.569   0.089   5.649 -0.3333 -0.0394  0.1465
  269POPC   C1A 3774   3.793  -0.155   5.982 -0.0737 -0.0065 -0.3272
  269POPC   D2A 3775   3.561  -0.484   6.239 -0.3909 -0.0275  0.0887
  269POPC   C3A 3776   3.560  -0.902   6.351  0.0629 -0.1939 -0.1847
  269POPC   C4A 3777   3.975  -1.122   6.364 -0.0672 -0.0909 -0.2372
  269POPC   C1B 3778   3.286   0.108   5.965  0.3856 -0.0970 -0.0379
  269POPC   C2B 3779   2.945   0.171   6.281 -0.0913  0.2929 -0.2174
  269POPC   C3B 3780   2.607   0.088   6.564  0.1467  0.1304  0.0378
  269POPC   C4B 3781   2.817   0.138   6.886 -0.1958  0.0498 -0.2033
  270POPC   NC3 3782   8.681  10.084   5.293 -0.1753 -0.1954  0.1035
  270POPC   PO4 3783   8.298  10.023   5.438 -0.0992  0.1659 -0.1485
  270POPC   GL1 3784   8.683   9.672   5.527  0.1404 -0.1359  0.0201
  270POPC   GL2 3785   8.887   9.907   5.720  0.0762 -0.2549 -0.1614
  270POPC   C1A 3786   8.789   9.489   5.934 -0.2689  0.0203  0.2014
  270POPC   D2A 3787   8.845   9.171   6.071 -0.2853 -0.0817 -0.0194
  270POPC   C3A 3788   9.149   8.930   6.307  0.0281 -0.0676 -0.2396
  270POPC   C4A 3789   9.458   8.979   6.540  0.0384 -0.1786 -0.0163
  270POPC   C1B 3790   9.186   9.991   5.943  0.1237  0.0344  0.0638
  270POPC   C2B 3791   9.620   9.962   6.013  0.3092 -0.0763 -0.1362
  270POPC   C3B 3792   9.811   9.949   6.519  0.0172  0.0870 -0.2309
  270POPC   C4B 3793   9.964   9.823   6.892  0.4210  0.2393 -0.0841
  271POPC   NC3 3794   1.947   1.903   5.008 -0.1703 -0.2338 -0.2260
  271POPC   PO4 3795   1.613   1.727   5.180  0.0470  0.0772 -0.1482
  271POPC   GL1 3796   1.757   1.962   5.592 -0.0238  0.4552  0.1053
  271POPC   GL2 3797   1.563   2.207   5.702  0.3201  0.0161 -0.0864
  271POPC   C1A 3798   1.981   2.028   6.028 -0.1397 -0.0654 -0.1958
  271POPC   D2A 3799   1.958   2.119   6.483 -0.0818  0.1974  0.0304
  271POPC   C3A 3800   1.735   2.402   6.748  0.2003 -0.2021  0.1597
  271POPC   C4A 3801   1.545   2.544   7.140  0.5208  0.0794 -0.0699
  271POPC   C1B 3802   1.147   2.201   6.007  0.1048  0.0608 -0.0528
  271POPC   C2B 3803   1.035   2.462   6.284 -0.1450  0.0832 -0.0362
  271POPC   C3B 3804   0.755   2.497   6.640  0.3183  0.3155  0.2534
  271POPC   C4B 3805   0.428   2.661   6.790 -0.0718 -0.2309  0.2990
  272POPC   NC3 3806   8.825   8.633   4.673 -0.0679  0.0093 -0.0023
  272POPC   PO4 3807   9.080   9.005   4.574 -0.2479 -0.0973  0.1618
  272POPC   GL1 3808   9.268   8.992   4.939  0.2737 -0.2027 -0.0026
  272POPC   GL2 3809   9.124   8.717   5.096  0.2767  0.0090  0.1189
  272POPC   C1A 3810   9.729   9.158   5.088 -0.1494 -0.1369 -0.0316
  272POPC   D2A 3811  10.111   9.289   5.361  0.0654  0.0397 -0.1753
  272POPC   C3A 3812  10.233   9.127   5.790  0.0909 -0.1683  0.0380
  272POPC   C4A 3813  10.121   9.076   6.207 -0.0178 -0.0824 -0.1559
  272POPC   C1B 3814   9.274   8.945   5.458  0.1993 -0.0888 -0.0824
  272POPC   C2B 3815   9.225   9.209   5.827 -0.0931 -0.2556 -0.1890
  272POPC   C3B 3816   9.299   9.448   6.128  0.2360 -0.2277  0.0785
  272POPC   C4B 3817   9.398   9.701   6.405  0.2154  0.2327 -0.1396
  273POPC   NC3 3818   3.724   5.930   4.005  0.0649 -0.3241 -0.0695
  273POPC   PO4 3819   3.678   6.130   4.291 -0.0431 -0.1381 -0.3465
  273POPC   GL1 3820   3.532   6.330   4.764 -0.1150  0.1977 -0.0676
  273POPC   GL2 3821   3.373   6.522   4.599  0.0772  0.3870 -0.1865
  273POPC   C1A 3822   3.158   6.382   5.153 -0.1802 -0.0941 -0.0726
  273POPC   D2A 3823   3.081   6.425   5.572  0.1469  0.3536  0.3792
  273POPC   C3A 3824   3.184   6.198   5.987 -0.0681 -0.2640 -0.2245
  273POPC   C4A 3825   3.163   5.976   6.470 -0.1839  0.2065  0.0043
  273POPC   C1B 3826   3.293   6.874   4.883  0.0843  0.1629  0.2443
  273POPC   C2B 3827   3.015   7.162   5.021  0.0473 -0.1433 -0.0171
  273POPC   C3B 3828   2.793   7.314   5.225 -0.0156 -0.1329 -0.2243
  273POPC   C4B 3829   2.569   7.443   5.624 -0.0241 -0.1676 -0.0400
  274POPC   NC3 3830   5.825   9.289   5.261 -0.3776  0.1170  0.2456
  274POPC   PO4 3831   5.607   8.910   5.181 -0.0927  0.0125 -0.1127
  274POPC   GL1 3832   5.654   8.599   5.464 -0.2626 -0.0855  0.1933
  274POPC   GL2 3833   5.940   8.538   5.822 -0.0362 -0.0680  0.0583
  274POPC   C1A 3834   5.484   8.386   5.886 -0.1568 -0.2023  0.0915
  274POPC   D2A 3835   5.504   8.379   6.322  0.1349 -0.1159 -0.2693
  274POPC   C3A 3836   5.554   8.100   6.645 -0.3183 -0.1907  0.0860
  274POPC   C4A 3837   5.653   7.877   6.930 -0.0290  0.1831  0.1529
  274POPC   C1B 3838   5.965   8.553   6.273 -0.0495  0.0013 -0.3716
  274POPC   C2B 3839   6.050   8.503   6.698 -0.0854 -0.0500 -0.0567
  274POPC   C3B 3840   6.107   8.627   7.176 -0.2139  0.0338  0.0383
  274POPC   C4B 3841   5.881   9.065   7.363 -0.3670  0.0341  0.4428
  275POPC   NC3 3842   4.155   4.655   4.976 -0.0330 -0.2920  0.0500
  275POPC   PO4 3843   4.130   4.782   5.332  0.0756  0.1215  0.2752
  275POPC   GL1 3844   4.087   4.684   5.660 -0.3026  0.2860  0.4383
  275POPC   GL2 3845   3.819   4.509   5.706  0.1957 -0.0633  0.0845
  275POPC   C1A 3846   4.041   4.614   6.190  0.0712  0.1497  0.0963
  275POPC   D2A 3847   4.164   4.608   6.725  0.4532 -0.2006  0.2475
  275POPC   C3A 3848   4.468   4.883   6.948 -0.2018  0.2031  0.1019
  275POPC   C4A 3849   4.558   4.914   7.374 -0.0172  0.2335 -0.1472
  275POPC   C1B 3850   3.544   4.697   6.030  0.0929  0.2386  0.0227
  275POPC   C2B 3851   3.571   4.648   6.473  0.1842  0.2557  0.0977
  275POPC   C3B 3852   3.686   4.863   6.864  0.2014 -0.2200 -0.0401
  275POPC   C4B 3853   3.707   5.218   7.098 -0.0100  0.0272  0.0570
  276POPC   NC3 3854  10.012   6.988   4.196  0.1118  0.1091 -0.0008
  276POPC   PO4 3855   9.795   6.661   4.518  0.2800  0.0747  0.0242
  276POPC   GL1 3856   9.645   6.595   4.918 -0.1133 -0.3344 -0.1590
  276POPC   GL2 3857   9.462   6.373   5.074 -0.2575 -0.3126 -0.1305
  276POPC   C1A 3858   9.944   6.597   5.293  0.1839  0.2050 -0.5662
  276POPC   D2A 3859  10.084   6.595   5.734  0.0067  0.0821 -0.0220
  276POPC   C3A 3860   9.983   6.455   6.218 -0.3782 -0.4100  0.0800
  276POPC   C4A 3861   9.955   6.076   6.473 -0.0729 -0.0015  0.3796
  276POPC   C1B 3862   9.532   6.415   5.543  0.0995  0.0507  0.2647
  276POPC   C2B 3863   9.795   6.183   5.843 -0.2360  0.5356 -0.0827
  276POPC   C3B 3864   9.946   5.787   5.885 -0.3118  0.0682 -0.2346
  276POPC   C4B 3865  10.243   5.496   5.829 -0.4057  0.0192  0.1225
  277POPC   NC3 3866   4.907   8.500   4.882 -0.1176 -0.0983 -0.1993
  277POPC   PO4 3867   4.460   8.748   5.215  0.0742  0.1178 -0.1863
  277POPC   GL1 3868   4.424   8.631   5.664  0.2146  0.1061 -0.0900
  277POPC   GL2 3869   4.683   8.528   5.807 -0.1323 -0.2603 -0.1767
  277POPC   C1A 3870   4.291   8.827   5.984 -0.2333  0.0395 -0.1697
  277POPC   D2A 3871   4.161   8.840   6.357  0.1196  0.1150 -0.5047
  277POPC   C3A 3872   4.259   9.036   6.755  0.3479  0.0111 -0.2873
  277POPC   C4A 3873   4.275   9.266   7.025 -0.0664 -0.0674  0.2490
  277POPC   C1B 3874   4.514   8.194   6.110  0.0898  0.0707 -0.1180
  277POPC   C2B 3875   4.573   7.960   6.571 -0.0062 -0.3594  0.0394
  277POPC   C3B 3876   4.862   7.820   6.921 -0.0323  0.0242 -0.2327
  277POPC   C4B 3877   5.082   7.348   6.905 -0.0608  0.4439 -0.1750
  278POPC   NC3 3878   4.294   2.578   5.679  0.0423 -0.1019  0.0772
  278POPC   PO4 3879   4.010   2.811   5.777 -0.0646  0.0298 -0.1548
  278POPC   GL1 3880   3.916   3.125   6.070 -0.2825 -0.3193 -0.1323
  278POPC   GL2 3881   3.661   3.202   5.920 -0.1431 -0.1588 -0.2784
  278POPC   C1A 3882   3.819   3.248   6.459  0.1302 -0.0321 -0.0419
  278POPC   D2A 3883   3.522   3.126   6.699  0.1503  0.2223 -0.0045
  278POPC   C3A 3884   3.492   3.342   7.139  0.1249 -0.0566  0.1060
  278POPC   C4A 3885   3.720   3.582   7.468  0.1654  0.0616  0.1542
  278POPC   C1B 3886   3.375   3.323   6.274 -0.1127 -0.1115 -0.0496
  278POPC   C2B 3887   3.026   3.144   6.549 -0.0676  0.0004  0.0428
  278POPC   C3B 3888   3.103   2.737   6.790  0.0413  0.2977  0.0327
  278POPC   C4B 3889   3.148   2.446   6.951 -0.2512 -0.5015 -0.0051
  279POPC   NC3 3890   5.059   2.175   5.377 -0.0349  0.0793  0.2192
  279POPC   PO4 3891   5.251   1.736   5.441 -0.1271  0.0928 -0.3317
  279POPC   GL1 3892   5.040   1.904   5.787  0.0047 -0.1759  0.0640
  279POPC   GL2 3893   4.787   1.642   5.789 -0.3247 -0.1544 -0.2641
  279POPC   C1A 3894   4.628   2.078   6.012  0.0457 -0.2635  0.1197
  279POPC   D2A 3895   4.724   2.384   6.367 -0.2607 -0.0743 -0.0626
  279POPC   C3A 3896   5.125   2.552   6.484  0.2717  0.2985  0.0808
  279POPC   C4A 3897   5.354   2.281   6.602  0.3204 -0.1661  0.3907
  279POPC   C1B 3898   4.916   1.636   6.148  0.3204 -0.0098  0.2109
  279POPC   C2B 3899   4.907   1.840   6.651 -0.0548 -0.3583 -0.1012
  279POPC   C3B 3900   4.844   2.191   6.867  0.3593  0.3976  0.2331
  279POPC   C4B 3901   4.706   2.644   6.849 -0.3114  0.1289  0.2223
  280POPC   NC3 3902   4.420   0.597   4.826  0.3612 -0.0790  0.1070
  280POPC   PO4 3903   4.417   0.796   5.352  0.0926 -0.4687 -0.2342
  280POPC   GL1 3904   4.627   0.988   5.792  0.1962  0.2218 -0.0746
  280POPC   GL2 3905   4.434   1.189   5.985  0.0694 -0.0344 -0.0763
  280POPC   C1A 3906   4.880   1.002   6.186 -0.0888 -0.1547 -0.2890
  280POPC   D2A 3907   5.297   1.203   6.136 -0.0808 -0.2437  0.0834
  280POPC   C3A 3908   5.634   1.155   6.406  0.2013 -0.2645  0.2319
  280POPC   C4A 3909   5.941   0.798   6.331 -0.1816  0.0060 -0.0241
  280POPC   C1B 3910   4.370   0.952   6.317 -0.0589  0.0441  0.0230
  280POPC   C2B 3911   4.338   0.506   6.462 -0.0742  0.2059  0.5010
  280POPC   C3B 3912   4.616   0.305   6.768 -0.1811 -0.1755 -0.1088
  280POPC   C4B 3913   4.603   0.097   7.089  0.1452  0.1262  0.1368
  281POPC   NC3 3914   3.634   4.792   5.206  0.3084  0.2839  0.0686
  281POPC   PO4 3915   3.474   5.112   4.757 -0.0674  0.1452 -0.1530
  281POPC   GL1 3916   3.225   5.221   5.033  0.3335  0.2543  0.1575
  281POPC   GL2 3917   3.249   5.193   5.290  0.2392 -0.0630  0.2152
  281POPC   C1A 3918   2.951   5.550   5.176  0.2032  0.1414 -0.0238
  281POPC   D2A 3919   2.848   5.962   5.394  0.0802 -0.4668 -0.1046
  281POPC   C3A 3920   2.736   6.065   5.814 -0.0817  0.1072  0.2097
  281POPC   C4A 3921   2.742   6.342   6.194 -0.3182 -0.1001  0.2608
  281POPC   C1B 3922   3.037   5.278   5.614  0.1159  0.1721 -0.1564
  281POPC   C2B 3923   2.686   5.524   5.622  0.0794  0.3069 -0.1620
  281POPC   C3B 3924   2.270   5.702   5.608  0.0482  0.0551  0.0153
  281POPC   C4B 3925   1.935   6.001   5.581 -0.1762  0.0440 -0.1283
  282POPC   NC3 3926   8.797   9.241   5.005 -0.0742  0.0116 -0.2261
  282POPC   PO4 3927   8.538   8.729   5.110  0.2992  0.1948  0.0046
  282POPC   GL1 3928   8.779   8.716   5.495  0.1051  0.2026 -0.3935
  282POPC   GL2 3929   8.914   8.385   5.458 -0.0685 -0.0247 -0.0458
  282POPC   C1A 3930   8.923   8.709   5.886  0.1396  0.2345  0.1771
  282POPC   D2A 3931   9.370   8.515   6.130  0.1267  0.1544  0.2488
  282POPC   C3A 3932   9.460   8.076   6.362 -0.0571 -0.0822  0.0472
  282POPC   C4A 3933   9.467   7.683   6.556 -0.0190 -0.3408  0.0419
  282POPC   C1B 3934   9.094   8.191   5.882  0.1438  0.1563 -0.0150
  282POPC   C2B 3935   8.867   7.928   6.136 -0.0704 -0.2062  0.0325
  282POPC   C3B 3936   8.791   7.548   6.318  0.0176  0.1235 -0.1679
  282POPC   C4B 3937   8.771   7.137   6.552 -0.1939  0.2631  0.0774
  283POPC   NC3 3938   0.201   8.099   4.002 -0.0251  0.1299  0.1236
  283POPC   PO4 3939   0.643   7.922   4.014  0.0213  0.4290 -0.0756
  283POPC   GL1 3940   0.593   8.191   4.401 -0.1359  0.1203  0.1604
  283POPC   GL2 3941   0.573   8.203   4.693 -0.2301 -0.0222  0.4689
  283POPC   C1A 3942   1.044   8.372   4.465  0.2117  0.3045  0.1716
  283POPC   D2A 3943   1.044   8.693   4.838  0.1823  0.2228  0.1266
  283POPC   C3A 3944   1.266   8.394   5.082 -0.0002 -0.1507  0.0221
  283POPC   C4A 3945   1.160   8.141   5.355  0.2051 -0.0687  0.1717
  283POPC   C1B 3946   0.814   8.252   4.956 -0.0720 -0.1944  0.0308
  283POPC   C2B 3947   0.867   8.558   5.342  0.0228 -0.0926 -0.0327
  283POPC   C3B 3948   1.051   8.549   5.744  0.0256  0.3019  0.1583
  283POPC   C4B 3949   1.272   8.058   5.881 -0.1308  0.1300 -0.2796
  284POPC   NC3 3950   5.298   6.886   4.763 -0.0275  0.0565  0.1900
  284POPC   PO4 3951   5.033   6.804   5.135 -0.0723  0.0410  0.0036
  284POPC   GL1 3952   5.218   6.652   5.447  0.0572  0.1093 -0.0424
  284POPC   GL2 3953   5.620   6.670   5.511  0.1173 -0.4078 -0.1351
  284POPC   C1A 3954   5.276   6.808   5.848 -0.1177 -0.0398  0.3967
  284POPC   D2A 3955   5.230   6.798   6.267  0.0776 -0.2269  0.0012
  284POPC   C3A 3956   4.954   7.078   6.465  0.3586 -0.0747  0.2472
  284POPC   C4A 3957   4.834   7.484   6.509  0.3470 -0.1085 -0.0512
  284POPC   C1B 3958   5.768   6.698   5.983 -0.2981  0.1484  0.1732
  284POPC   C2B 3959   5.677   6.906   6.473 -0.0474  0.1098 -0.1084
  284POPC   C3B 3960   5.319   6.879   6.875  0.2203  0.3926  0.3859
  284POPC   C4B 3961   5.064   6.800   7.119  0.4204  0.0067  0.0113
  285POPC   NC3 3962   5.647   5.686   5.417 -0.3008  0.2260 -0.0222
  285POPC   PO4 3963   5.286   5.504   5.338  0.0485  0.0163 -0.1504
  285POPC   GL1 3964   4.950   5.679   5.585 -0.3421  0.0541 -0.1760
  285POPC   GL2 3965   4.814   5.373   5.606  0.2154  0.2073 -0.1141
  285POPC   C1A 3966   4.878   5.901   6.047 -0.1436 -0.3310  0.1912
  285POPC   D2A 3967   4.743   6.062   6.446  0.0456  0.3351  0.0845
  285POPC   C3A 3968   4.450   5.903   6.815 -0.3267 -0.1672  0.1199
  285POPC   C4A 3969   4.190   5.479   6.972  0.3257 -0.2537  0.2846
  285POPC   C1B 3970   4.574   5.523   5.877  0.1216  0.2779 -0.0449
  285POPC   C2B 3971   4.365   5.885   6.004  0.3224  0.0749  0.0278
  285POPC   C3B 3972   4.032   6.162   5.911 -0.2226  0.0568  0.0151
  285POPC   C4B 3973   3.713   6.474   5.940 -0.0913 -0.3619 -0.1293
  286POPC   NC3 3974   9.555   2.155   4.970 -0.1422  0.0023  0.1659
  286POPC   PO4 3975  10.047   2.227   4.970 -0.1196  0.0792  0.0615
  286POPC   GL1 3976  10.111   2.421   5.273  0.3502  0.0369  0.1146
  286POPC   GL2 3977  10.009   2.718   5.222 -0.0590 -0.1940 -0.2625
  286POPC   C1A 3978  10.082   2.344   5.673 -0.0874 -0.1548 -0.0615
  286POPC   D2A 3979  10.228   2.642   5.946  0.1402 -0.3742  0.0125
  286POPC   C3A 3980  10.182   2.662   6.393  0.1110 -0.0450  0.1785
  286POPC   C4A 3981  10.299   2.604   6.717 -0.3706 -0.0163 -0.0441
  286POPC   C1B 3982  10.101   3.022   5.579 -0.2597 -0.2414  0.1806
  286POPC   C2B 3983  10.227   3.251   6.025 -0.0902  0.0462  0.3950
  286POPC   C3B 3984  10.517   3.534   6.422 -0.0741 -0.0441 -0.0834
  286POPC   C4B 3985  10.589   3.839   6.702  0.1064  0.3373  0.0335
  287POPC   NC3 3986  10.343   9.364   3.861  0.1248  0.0659 -0.0364
  287POPC   PO4 3987  10.432   9.159   4.248 -0.0591 -0.2896  0.0423
  287POPC   GL1 3988  10.598   8.913   4.632 -0.2966  0.4026  0.0557
  287POPC   GL2 3989  10.740   8.617   4.595 -0.0252 -0.0063 -0.1022
  287POPC   C1A 3990  10.530   8.720   5.094 -0.4785 -0.0993 -0.1644
  287POPC   D2A 3991  10.855   8.356   5.315 -0.0217  0.2432 -0.0538
  287POPC   C3A 3992  10.807   8.021   5.243  0.3291  0.4785  0.0833
  287POPC   C4A 3993  10.837   7.606   5.492 -0.3058  0.0631 -0.0598
  287POPC   C1B 3994  10.981   8.777   4.976  0.0842 -0.1542  0.0752
  287POPC   C2B 3995  11.216   9.099   5.221 -0.1492 -0.0895 -0.0424
  287POPC   C3B 3996  11.619   9.244   5.021  0.1931 -0.1749 -0.0599
  287POPC   C4B 3997  12.043   9.111   5.064 -0.0774 -0.1879 -0.2551
  288POPC   NC3 3998   9.594   5.475   4.122  0.2627 -0.0679  0.1374
  288POPC   PO4 3999   9.515   5.785   4.280  0.3795 -0.4092 -0.1032
  288POPC   GL1 4000   9.791   5.674   4.623 -0.0545  0.0269 -0.0739
  288POPC   GL2 4001   9.816   5.945   4.896 -0.1232  0.5164 -0.0509
  288POPC   C1A 4002  10.114   5.415   4.861 -0.2121  0.1327  0.0910
  288POPC   D2A 4003  10.130   5.142   5.075  0.2904  0.0159 -0.2268
  288POPC   C3A 4004  10.229   5.101   5.557  0.3723  0.2664  0.1486
  288POPC   C4A 4005  10.448   4.906   5.969 -0.2075  0.1251 -0.0468
  288POPC   C1B 4006   9.542   5.858   5.236 -0.1641 -0.4207 -0.0140
  288POPC   C2B 4007   9.466   5.870   5.706 -0.2468  0.0438  0.1824
  288POPC   C3B 4008   9.066   5.768   5.702  0.0788 -0.1398  0.1786
  288POPC   C4B 4009   8.757   5.619   6.074 -0.0492  0.1667 -0.0540
  289POPC   NC3 4010   4.383   6.939   4.827  0.1952 -0.0412  0.1025
  289POPC   PO4 4011   4.357   7.413   4.816  0.2586 -0.0203  0.0935
  289POPC   GL1 4012   4.327   7.336   5.253  0.2928 -0.0941 -0.2651
  289POPC   GL2 4013   4.540   6.944   5.281 -0.0902 -0.0608 -0.2166
  289POPC   C1A 4014   4.036   7.526   5.532  0.0204  0.1537 -0.2526
  289POPC   D2A 4015   3.619   7.518   5.675 -0.2343  0.1606 -0.2229
  289POPC   C3A 4016   3.326   7.786   5.948  0.2606 -0.0148  0.3065
  289POPC   C4A 4017   3.251   7.831   6.350 -0.0234  0.0572 -0.0923
  289POPC   C1B 4018   4.551   7.306   5.685  0.1819 -0.1004  0.3318
  289POPC   C2B 4019   4.775   7.710   5.957  0.1160 -0.0668 -0.0426
  289POPC   C3B 4020   5.233   7.778   5.948  0.0222 -0.1543 -0.0635
  289POPC   C4B 4021   5.522   7.827   6.190 -0.0239 -0.1516 -0.1469
  290POPC   NC3 4022   7.309   0.892   4.578 -0.1530 -0.1732  0.1783
  290POPC   PO4 4023   7.470   0.625   4.865 -0.0442  0.1244  0.0763
  290POPC   GL1 4024   7.556   0.670   5.234  0.0265  0.0724 -0.1545
  290POPC   GL2 4025   7.414   0.778   5.525  0.0249  0.1461 -0.0280
  290POPC   C1A 4026   7.604   0.408   5.716 -0.1672 -0.0881 -0.2720
  290POPC   D2A 4027   7.954   0.429   6.067 -0.0409  0.0852  0.0909
  290POPC   C3A 4028   7.886   0.498   6.524 -0.0287  0.0385 -0.1636
  290POPC   C4A 4029   7.926   0.656   6.982 -0.0531 -0.1461  0.3078
  290POPC   C1B 4030   7.157   0.553   5.769  0.3380 -0.1628  0.2265
  290POPC   C2B 4031   7.104   0.290   6.086  0.1045  0.2292  0.0102
  290POPC   C3B 4032   7.462   0.132   6.111  0.1967  0.0279 -0.0752
  290POPC   C4B 4033   7.839   0.001   6.269 -0.2315  0.0166 -0.1990
  291POPC   NC3 4034   5.650   0.543   5.338  0.0127 -0.0023  0.0498
  291POPC   PO4 4035   5.705   0.214   5.368  0.0226 -0.2213  0.0206
  291POPC   GL1 4036   5.994   0.361   5.703  0.1596 -0.0806 -0.1000
  291POPC   GL2 4037   6.345   0.246   5.647 -0.1295 -0.0310  0.2217
  291POPC   C1A 4038   6.128   0.377   6.165  0.1843  0.3656 -0.2278
  291POPC   D2A 4039   5.957   0.364   6.660 -0.4939 -0.0279 -0.0548
  291POPC   C3A 4040   5.915   0.527   7.124 -0.0337  0.0901 -0.1905
  291POPC   C4A 4041   5.972   0.524   7.574 -0.0250 -0.2681 -0.1206
  291POPC   C1B 4042   6.303  -0.064   6.011  0.0036  0.0547 -0.0619
  291POPC   C2B 4043   6.215  -0.061   6.459  0.1446 -0.1283  0.1813
  291POPC   C3B 4044   5.895  -0.127   6.766  0.1498  0.1954 -0.2900
  291POPC   C4B 4045   5.675  -0.046   7.032 -0.2069  0.0884  0.1007
  292POPC   NC3 4046   9.650   8.835   4.542  0.0390 -0.5008  0.2390
  292POPC   PO4 4047   9.605   8.339   4.617  0.1752  0.0396 -0.2670
  292POPC   GL1 4048   9.578   8.483   5.076 -0.1505 -0.0170  0.1908
  292POPC   GL2 4049   9.834   8.247   5.180  0.3627  0.0628  0.4447
  292POPC   C1A 4050   9.510   8.471   5.523  0.2607  0.0269 -0.4412
  292POPC   D2A 4051   9.643   8.118   5.921 -0.0576 -0.0060  0.1656
  292POPC   C3A 4052  10.121   8.156   6.141 -0.0957 -0.1186  0.3306
  292POPC   C4A 4053  10.529   8.215   6.121 -0.1525 -0.1967  0.3711
  292POPC   C1B 4054   9.988   8.369   5.602  0.3875  0.0851 -0.1567
  292POPC   C2B 4055  10.046   8.666   5.927  0.1230  0.0258 -0.0646
  292POPC   C3B 4056   9.836   8.595   6.355  0.1978  0.1261 -0.1476
  292POPC   C4B 4057   9.883   8.810   6.771  0.3934  0.1723  0.0732
  293POPC   NC3 4058   9.182   6.724   4.806 -0.0113 -0.1731 -0.1574
  293POPC   PO4 4059   8.894   6.398   5.084 -0.0076  0.1305  0.0723
  293POPC   GL1 4060   9.126   6.675   5.367  0.0887 -0.0031  0.3124
  293POPC   GL2 4061   8.987   6.812   5.609 -0.1014  0.0029 -0.2281
  293POPC   C1A 4062   9.562   6.877   5.370  0.2213 -0.1510 -0.2407
  293POPC   D2A 4063   9.941   7.088   5.562  0.2465  0.0656  0.0762
  293POPC   C3A 4064  10.075   7.527   5.469  0.0584 -0.2139  0.2503
  293POPC   C4A 4065   9.903   7.880   5.495 -0.1795  0.0742  0.4669
  293POPC   C1B 4066   9.185   7.166   5.545  0.1212  0.0238 -0.1069
  293POPC   C2B 4067   9.528   7.261   5.728  0.0606 -0.1564 -0.2514
  293POPC   C3B 4068   9.722   7.564   5.967  0.0414 -0.1739 -0.0458
  293POPC   C4B 4069  10.052   7.719   6.261  0.0419  0.1910  0.1615
  294POPC   NC3 4070   2.369   4.192   4.223  0.3538 -0.3470 -0.0563
  294POPC   PO4 4071   2.772   4.268   4.473 -0.0855  0.4452 -0.0658
  294POPC   GL1 4072   2.769   4.413   4.832  0.1335 -0.0987 -0.3948
  294POPC   GL2 4073   2.879   4.253   5.024 -0.0727  0.0216 -0.1868
  294POPC   C1A 4074   2.793   4.678   5.236  0.0670  0.2405 -0.2691
  294POPC   D2A 4075   2.614   5.047   5.408 -0.1817 -0.3469  0.2630
  294POPC   C3A 4076   2.313   5.277   5.146  0.2781  0.1774 -0.2725
  294POPC   C4A 4077   1.995   5.363   5.276 -0.0008  0.1803 -0.2053
  294POPC   C1B 4078   2.990   4.332   5.510 -0.0014  0.1822 -0.0016
  294POPC   C2B 4079   2.846   4.547   5.851 -0.0401 -0.0808 -0.0607
  294POPC   C3B 4080   2.576   4.946   5.851 -0.2179 -0.1571  0.0664
  294POPC   C4B 4081   2.749   5.225   6.030 -0.1928 -0.1091 -0.2713
  295POPC   NC3 4082   2.197   1.020   5.311 -0.1390  0.0113  0.0915
  295POPC   PO4 4083   2.594   1.006   5.185 -0.1290  0.1272 -0.0379
  295POPC   GL1 4084   2.563   0.733   5.602 -0.1060  0.2051 -0.2262
  295POPC   GL2 4085   2.331   0.707   5.625  0.5441  0.3723  0.1869
  295POPC   C1A 4086   2.755   0.715   6.013  0.1867  0.1309  0.5745
  295POPC   D2A 4087   2.790   0.631   6.471  0.1737  0.2134  0.0609
  295POPC   C3A 4088   3.129   0.647   6.790 -0.0635  0.1592 -0.0994
  295POPC   C4A 4089   3.349   0.816   7.090 -0.0320 -0.0814 -0.0125
  295POPC   C1B 4090   2.241   0.829   6.052 -0.0399 -0.1272  0.1371
  295POPC   C2B 4091   2.101   0.761   6.503  0.2255 -0.1751 -0.0820
  295POPC   C3B 4092   2.093   0.975   6.891 -0.1239 -0.0020 -0.2077
  295POPC   C4B 4093   2.235   1.029   7.268  0.1276  0.0283  0.0086
  296POPC   NC3 4094   5.808   9.136   4.781 -0.3433 -0.1629 -0.1911
  296POPC   PO4 4095   6.205   9.018   5.073  0.1028 -0.0363 -0.1088
  296POPC   GL1 4096   6.113   8.937   5.543 -0.2979  0.1992  0.4412
  296POPC   GL2 4097   5.730   9.081   5.677  0.0864  0.1290  0.0893
  296POPC   C1A 4098   6.141   9.247   5.838  0.0252 -0.2198 -0.1547
  296POPC   D2A 4099   5.977   9.493   6.084  0.1457 -0.1660  0.0198
  296POPC   C3A 4100   6.221   9.824   6.226 -0.0824 -0.0469  0.0129
  296POPC   C4A 4101   6.409   9.828   6.571  0.0420 -0.1351 -0.1348
  296POPC   C1B 4102   5.580   8.882   6.068 -0.2879  0.1849 -0.2768
  296POPC   C2B 4103   5.682   8.915   6.492  0.0573  0.0319 -0.0140
  296POPC   C3B 4104   5.888   9.072   6.802 -0.2529  0.1562 -0.0670
  296POPC   C4B 4105   5.643   9.324   7.007  0.0637  0.1703 -0.0088
  297POPC   NC3 4106   6.921   4.703   4.972 -0.2281 -0.2212 -0.0799
  297POPC   PO4 4107   6.629   4.874   5.093  0.0629 -0.2654  0.2327
  297POPC   GL1 4108   6.933   4.770   5.468 -0.2930  0.2053 -0.0689
  297POPC   GL2 4109   7.293   4.779   5.417 -0.0350  0.2212  0.6581
  297POPC   C1A 4110   6.975   4.711   5.989  0.0126  0.3901 -0.1546
  297POPC   D2A 4111   6.740   4.803   6.376  0.1827  0.1071 -0.1713
  297POPC   C3A 4112   6.714   5.204   6.625 -0.3854 -0.1692  0.2543
  297POPC   C4A 4113   6.660   5.478   7.030  0.2167 -0.1259 -0.0185
  297POPC   C1B 4114   7.494   4.596   5.739 -0.3765  0.0093  0.0925
  297POPC   C2B 4115   7.467   4.452   6.174 -0.0339  0.2151  0.1507
  297POPC   C3B 4116   7.059   4.458   6.442  0.0429  0.2767  0.1458
  297POPC   C4B 4117   6.912   4.291   6.916  0.3181  0.1062 -0.0515
  298POPC   NC3 4118   8.193   9.500   5.446  0.1404  0.3992  0.1238
  298POPC   PO4 4119   8.424   9.216   5.357  0.1998 -0.4214  0.2388
  298POPC   GL1 4120   8.399   9.212   5.819  0.0378  0.3454  0.0785
  298POPC   GL2 4121   8.400   8.867   6.012 -0.2442  0.2558 -0.1826
  298POPC   C1A 4122   8.396   9.289   6.187 -0.3044  0.0094 -0.1964
  298POPC   D2A 4123   8.330   9.613   6.481  0.1040 -0.0904  0.1594
  298POPC   C3A 4124   8.536   9.958   6.602  0.1532  0.0846  0.0389
  298POPC   C4A 4125   8.448  10.219   7.023  0.3888 -0.0427  0.3273
  298POPC   C1B 4126   8.726   8.844   6.469  0.2863  0.0446 -0.1460
  298POPC   C2B 4127   8.952   8.932   6.813 -0.2049  0.1630  0.0028
  298POPC   C3B 4128   9.171   9.106   7.273  0.1140  0.1657  0.0655
  298POPC   C4B 4129   9.565   9.438   7.430  0.1166  0.2521 -0.0169
  299POPC   NC3 4130   0.023   4.051   4.642 -0.2920  0.1293 -0.0434
  299POPC   PO4 4131  -0.052   3.781   4.949 -0.0320  0.1162 -0.2407
  299POPC   GL1 4132  -0.119   3.760   5.337 -0.2071 -0.0510  0.0570
  299POPC   GL2 4133  -0.125   3.944   5.568 -0.2358 -0.0245 -0.0638
  299POPC   C1A 4134  -0.293   3.520   5.475 -0.0747  0.2364  0.1314
  299POPC   D2A 4135  -0.605   3.545   5.847  0.0050 -0.0810  0.1290
  299POPC   C3A 4136  -0.515   3.650   6.236 -0.2387 -0.0215  0.2573
  299POPC   C4A 4137  -0.365   3.687   6.735  0.0094  0.1171 -0.2194
  299POPC   C1B 4138   0.032   3.875   5.979 -0.2242  0.2051  0.0073
  299POPC   C2B 4139  -0.140   4.075   6.380  0.2501  0.3745 -0.3451
  299POPC   C3B 4140  -0.271   4.471   6.399 -0.0375  0.1090 -0.0542
  299POPC   C4B 4141  -0.636   4.782   6.543  0.0596  0.0980  0.2788
  300POPC   NC3 4142   3.278   0.029   5.170 -0.0660 -0.0566 -0.5670
  300POPC   PO4 4143   3.654  -0.181   4.945  0.1399  0.0424 -0.0760
  300POPC   GL1 4144   3.665  -0.454   5.252  0.2843  0.4060  0.0568
  300POPC   GL2 4145   3.305  -0.449   5.334  0.0218 -0.0565 -0.0913
  300POPC   C1A 4146   3.719  -0.559   5.704  0.3610  0.4696 -0.1406
  300POPC   D2A 4147   3.951  -0.707   6.030 -0.1748  0.1205 -0.0014
  300POPC   C3A 4148   4.043  -0.367   6.378  0.1651 -0.1306 -0.0929
  300POPC   C4A 4149   4.250  -0.130   6.684 -0.1276 -0.0574  0.2077
  300POPC   C1B 4150   3.241  -0.502   5.684  0.3351 -0.0101  0.1701
  300POPC   C2B 4151   3.472  -0.928   5.920 -0.0717  0.0179 -0.0105
  300POPC   C3B 4152   3.255  -1.328   5.985  0.2446 -0.0353  0.1512
  300POPC   C4B 4153   3.127  -1.329   6.386  0.1083  0.5175  0.0451
  301POPC   NC3 4154   7.770   9.254   5.202 -0.0885 -0.1570  0.1097
  301POPC   PO4 4155   7.794   9.338   5.657  0.1334 -0.2211 -0.0860
  301POPC   GL1 4156   8.002   9.497   5.963  0.0538 -0.2323  0.0894
  301POPC   GL2 4157   8.286   9.755   5.900  0.1530  0.0747 -0.1232
  301POPC   C1A 4158   7.954   9.358   6.437  0.0136 -0.1705  0.2240
  301POPC   D2A 4159   7.849   9.065   6.797  0.2786  0.0811 -0.0034
  301POPC   C3A 4160   7.642   9.202   7.025  0.1653  0.1884 -0.0764
  301POPC   C4A 4161   7.411   9.277   7.397  0.2352 -0.1341 -0.2792
  301POPC   C1B 4162   8.173  10.100   6.198  0.1611  0.0119 -0.2422
  301POPC   C2B 4163   8.086  10.174   6.614  0.1933 -0.1372 -0.1290
  301POPC   C3B 4164   8.050  10.575   6.923 -0.1820 -0.0417  0.0311
  301POPC   C4B 4165   8.184  10.759   7.273  0.1573  0.2750  0.0851
  302POPC   NC3 4166   2.867   0.534   5.199  0.0717 -0.0848 -0.0572
  302POPC   PO4 4167   3.395   0.493   5.416 -0.0890 -0.1367 -0.1722
  302POPC   GL1 4168   3.550   0.578   5.819 -0.1258 -0.0069 -0.2701
  302POPC   GL2 4169   3.695   0.447   6.038 -0.0661  0.1710  0.0224
  302POPC   C1A 4170   3.587   0.973   6.009 -0.4915  0.2691 -0.0771
  302POPC   D2A 4171   3.925   1.216   6.256 -0.0811 -0.0830 -0.0143
  302POPC   C3A 4172   4.055   1.067   6.756  0.0433  0.1562  0.1928
  302POPC   C4A 4173   4.397   0.874   6.989 -0.4407 -0.1398 -0.1739
  302POPC   C1B 4174   3.304   0.618   6.237  0.3672 -0.1817  0.1061
  302POPC   C2B 4175   3.061   1.039   6.422 -0.0361 -0.2268  0.2555
  302POPC   C3B 4176   2.904   1.172   6.782 -0.1460  0.2650  0.1597
  302POPC   C4B 4177   2.677   1.148   7.170  0.1700  0.0949 -0.1893
  303POPC   NC3 4178   0.395   3.749   4.722 -0.0149 -0.0379  0.0046
  303POPC   PO4 4179   0.681   3.343   4.832  0.0020 -0.2768 -0.0392
  303POPC   GL1 4180   0.813   3.454   5.188 -0.0532 -0.1797  0.0825
  303POPC   GL2 4181   1.079   3.730   5.330 -0.2682  0.3220 -0.1999
  303POPC   C1A 4182   0.747   3.502   5.658 -0.0731  0.0976  0.2791
  303POPC   D2A 4183   0.899   3.463   6.101  0.1111  0.1754  0.0016
  303POPC   C3A 4184   0.866   3.766   6.405  0.1431 -0.3706  0.1214
  303POPC   C4A 4185   0.720   3.866   6.857 -0.0677  0.1710  0.0389
  303POPC   C1B 4186   1.170   3.908   5.849  0.0717 -0.1493  0.3308
  303POPC   C2B 4187   1.331   3.869   6.321 -0.1087  0.3362 -0.0951
  303POPC   C3B 4188   1.701   4.040   6.601 -0.1277  0.1053  0.0147
  303POPC   C4B 4189   1.697   4.373   6.861 -0.2343 -0.1523  0.1079
  304POPC   NC3 4190   4.445   1.317   5.449  0.1047 -0.0260 -0.0038
  304POPC   PO4 4191   4.259   1.672   5.510 -0.1515  0.0599  0.1440
  304POPC   GL1 4192   4.329   1.651   6.040 -0.4558  0.0830 -0.2046
  304POPC   GL2 4193   4.045   1.677   6.225 -0.0598  0.0167  0.1651
  304POPC   C1A 4194   4.507   1.560   6.466  0.1942  0.2119  0.1085
  304POPC   D2A 4195   4.671   1.199   6.657 -0.1649 -0.0854 -0.0916
  304POPC   C3A 4196   4.950   1.186   7.017 -0.0887 -0.3417 -0.0416
  304POPC   C4A 4197   4.798   0.870   7.344 -0.1197  0.4701  0.2001
  304POPC   C1B 4198   4.056   1.659   6.558  0.0708 -0.2950 -0.0990
  304POPC   C2B 4199   3.753   1.662   6.884  0.0855 -0.0170  0.1684
  304POPC   C3B 4200   3.623   1.780   7.311  0.1022  0.0923 -0.1353
  304POPC   C4B 4201   3.578   1.476   7.626 -0.0247  0.0622 -0.0104
  305POPC   NC3 4202   6.867   3.074   5.001 -0.2197 -0.2650  0.1438
  305POPC   PO4 4203   6.641   3.472   4.978 -0.0445  0.0219  0.1320
  305POPC   GL1 4204   6.464   3.444   5.340  0.0554  0.0503  0.2187
  305POPC   GL2 4205   6.726   3.181   5.506  0.2723  0.0952  0.0711
  305POPC   C1A 4206   6.317   3.410   5.773 -0.0110 -0.1746  0.1246
  305POPC   D2A 4207   5.886   3.534   5.989  0.1056  0.0624 -0.2551
  305POPC   C3A 4208   5.763   3.916   6.030 -0.1519  0.1031 -0.1874
  305POPC   C4A 4209   5.637   4.294   6.233 -0.3651  0.0760 -0.1495
  305POPC   C1B 4210   6.533   2.972   5.784  0.1223 -0.0758 -0.1645
  305POPC   C2B 4211   6.547   3.207   6.193  0.2412  0.0158  0.0257
  305POPC   C3B 4212   6.166   3.541   6.367  0.0066 -0.3693 -0.0130
  305POPC   C4B 4213   6.010   3.670   6.764 -0.1068 -0.2167 -0.3883
  306POPC   NC3 4214   2.619   5.664   3.932 -0.0731 -0.0340  0.0387
  306POPC   PO4 4215   2.652   6.112   4.068  0.2333  0.1791  0.0851
  306POPC   GL1 4216   2.583   5.896   4.476  0.2110  0.1788 -0.1080
  306POPC   GL2 4217   2.423   5.987   4.746 -0.2716 -0.1247 -0.3782
  306POPC   C1A 4218   2.604   5.560   4.785  0.0770  0.2203 -0.2303
  306POPC   D2A 4219   2.664   5.079   4.893  0.0638  0.1422  0.1475
  306POPC   C3A 4220   2.360   4.828   4.944  0.0857 -0.0419  0.2134
  306POPC   C4A 4221   1.922   4.726   5.001 -0.3297 -0.1914  0.0570
  306POPC   C1B 4222   2.473   6.166   5.146 -0.0436  0.1496 -0.3737
  306POPC   C2B 4223   2.513   6.391   5.436  0.2851 -0.1020 -0.2675
  306POPC   C3B 4224   2.620   6.629   5.813 -0.1284 -0.1817  0.2542
  306POPC   C4B 4225   2.720   7.061   5.832  0.0583 -0.1013  0.0256
  307POPC   NC3 4226   2.878   3.784   4.232  0.1690  0.2392  0.0279
  307POPC   PO4 4227   2.427   3.687   4.405 -0.0774 -0.3111 -0.2117
  307POPC   GL1 4228   2.454   3.988   4.802 -0.0460 -0.0312  0.1567
  307POPC   GL2 4229   2.125   3.935   4.824  0.3668  0.0158  0.0945
  307POPC   C1A 4230   2.309   4.262   5.144 -0.0818 -0.2423  0.0212
  307POPC   D2A 4231   2.464   4.431   5.479 -0.1489  0.4334  0.0314
  307POPC   C3A 4232   2.311   4.332   5.968 -0.2426  0.1721  0.3320
  307POPC   C4A 4233   2.213   4.172   6.307  0.1100  0.1768 -0.1986
  307POPC   C1B 4234   2.176   3.840   5.245 -0.3976 -0.0623  0.0211
  307POPC   C2B 4235   2.174   3.987   5.641 -0.2125  0.1296  0.3101
  307POPC   C3B 4236   2.343   3.798   6.051 -0.1409  0.0696  0.2167
  307POPC   C4B 4237   2.246   3.743   6.569  0.2843 -0.2972  0.0858
  308POPC   NC3 4238   9.741  10.033   4.055 -0.0236  0.0085  0.1791
  308POPC   PO4 4239   9.999   9.835   4.206  0.3754 -0.3818 -0.0655
  308POPC   GL1 4240  10.037   9.508   4.504  0.2338  0.0364 -0.0763
  308POPC   GL2 4241  10.030   9.224   4.535 -0.0825  0.0695  0.0705
  308POPC   C1A 4242  10.288   9.511   4.855 -0.0176  0.1897  0.0891
  308POPC   D2A 4243  10.665   9.221   5.050 -0.1306  0.4128 -0.0023
  308POPC   C3A 4244  10.659   9.102   5.479  0.2601  0.1605  0.2122
  308POPC   C4A 4245  11.010   8.836   5.577 -0.1427  0.2202  0.0136
  308POPC   C1B 4246  10.161   9.026   4.939 -0.0150 -0.4005  0.2599
  308POPC   C2B 4247  10.107   8.757   5.298  0.0321  0.0159  0.1830
  308POPC   C3B 4248   9.779   8.962   5.643  0.3396 -0.1836  0.1850
  308POPC   C4B 4249   9.644   9.002   6.085 -0.0605  0.0790  0.2003
  309POPC   NC3 4250   2.512   6.462   3.576  0.1701  0.0916 -0.2500
  309POPC   PO4 4251   2.643   6.729   4.011 -0.1263 -0.0732 -0.0512
  309POPC   GL1 4252   2.541   6.453   4.398  0.0701 -0.2014 -0.0549
  309POPC   GL2 4253   2.235   6.478   4.510  0.2202  0.2945 -0.0370
  309POPC   C1A 4254   2.936   6.352   4.660 -0.0101 -0.1445  0.2720
  309POPC   D2A 4255   3.036   5.977   4.875  0.4083  0.1814 -0.0018
  309POPC   C3A 4256   3.349   5.862   5.123 -0.2173  0.0601 -0.1418
  309POPC   C4A 4257   3.284   5.669   5.545  0.3394 -0.0368 -0.0164
  309POPC   C1B 4258   2.449   6.652   4.883  0.0370 -0.0114 -0.0512
  309POPC   C2B 4259   2.833   6.720   5.165  0.4084 -0.2164 -0.2530
  309POPC   C3B 4260   3.055   6.900   5.494 -0.0512  0.0853 -0.3176
  309POPC   C4B 4261   3.236   7.192   5.786  0.0713  0.1522  0.0083
  310POPC   NC3 4262   8.382   6.521   4.885 -0.0032  0.0354 -0.3573
  310POPC   PO4 4263   8.469   6.544   5.308 -0.0879 -0.0777 -0.0178
  310POPC   GL1 4264   8.663   6.442   5.619 -0.0987 -0.1217 -0.0079
  310POPC   GL2 4265   8.937   6.281   5.565 -0.0371  0.1119  0.4074
  310POPC   C1A 4266   8.700   6.133   5.969  0.2387 -0.2355  0.1374
  310POPC   D2A 4267   8.404   6.021   6.295 -0.0498 -0.0466  0.1484
  310POPC   C3A 4268   8.487   6.292   6.661 -0.6155  0.4426  0.0174
  310POPC   C4A 4269   8.505   6.681   6.711 -0.2031 -0.2400 -0.2914
  310POPC   C1B 4270   9.131   6.412   5.887  0.1720 -0.0523  0.0289
  310POPC   C2B 4271   9.476   6.387   6.236 -0.4589 -0.2004 -0.1175
  310POPC   C3B 4272   9.405   6.517   6.662 -0.1665 -0.0253  0.2797
  310POPC   C4B 4273   8.988   6.773   6.804  0.0260 -0.1735  0.0197
  311POPC   NC3 4274   0.102   2.233   5.128  0.0100  0.2717 -0.0767
  311POPC   PO4 4275   0.026   2.701   4.999  0.2035  0.1072  0.1320
  311POPC   GL1 4276   0.065   2.705   5.497 -0.3325  0.1477 -0.3029
  311POPC   GL2 4277   0.234   2.836   5.678 -0.0719  0.0702  0.1669
  311POPC   C1A 4278   0.297   2.362   5.774  0.0508  0.0150  0.1397
  311POPC   D2A 4279   0.092   2.080   5.988  0.0508  0.1316  0.1320
  311POPC   C3A 4280  -0.404   2.188   6.129 -0.2845 -0.0176  0.1703
  311POPC   C4A 4281  -0.783   2.272   6.386  0.1512  0.2116  0.1507
  311POPC   C1B 4282   0.202   2.646   6.133  0.1703 -0.2398 -0.2867
  311POPC   C2B 4283   0.152   2.286   6.433  0.0775  0.3128 -0.2031
  311POPC   C3B 4284   0.421   2.053   6.692 -0.0525  0.0819  0.3966
  311POPC   C4B 4285   0.747   1.850   6.983  0.2896  0.1602  0.1264
  312POPC   NC3 4286   4.574   9.277   5.213 -0.1887 -0.1915 -0.4128
  312POPC   PO4 4287   4.527   9.754   5.289 -0.1696 -0.1333 -0.3150
  312POPC   GL1 4288   4.432   9.759   5.698  0.0451 -0.1002 -0.0393
  312POPC   GL2 4289   4.196  10.009   5.614 -0.1516  0.0842 -0.1553
  312POPC   C1A 4290   4.402   9.740   6.207 -0.0198  0.2695  0.1664
  312POPC   D2A 4291   4.279   9.690   6.688  0.1296 -0.0717 -0.1103
  312POPC   C3A 4292   3.981   9.972   6.952  0.2140 -0.1387  0.1497
  312POPC   C4A 4293   3.804  10.289   7.150  0.4312 -0.2791 -0.0440
  312POPC   C1B 4294   4.288  10.219   6.020  0.2913 -0.2984 -0.2817
  312POPC   C2B 4295   4.463  10.456   6.261  0.1310 -0.0487  0.2772
  312POPC   C3B 4296   4.953  10.614   6.426  0.0831  0.4997  0.1505
  312POPC   C4B 4297   5.493  10.573   6.509  0.3698 -0.0625 -0.3006
  313POPC   NC3 4298   7.855  10.286   4.729  0.0104 -0.4254 -0.0695
  313POPC   PO4 4299   8.242  10.154   4.927  0.0629  0.2555  0.1741
  313POPC   GL1 4300   8.205  10.481   5.283  0.1498  0.0977 -0.0312
  313POPC   GL2 4301   8.522  10.600   5.357 -0.0295  0.1113  0.0120
  313POPC   C1A 4302   8.042  10.868   5.549  0.0583  0.1146  0.1231
  313POPC   D2A 4303   7.912  11.334   5.681  0.1541  0.0418 -0.2172
  313POPC   C3A 4304   7.617  11.252   5.957  0.1145 -0.1126 -0.0135
  313POPC   C4A 4305   7.434  11.071   6.312 -0.0355  0.0103 -0.0669
  313POPC   C1B 4306   8.597  10.850   5.714  0.1536  0.1763 -0.0770
  313POPC   C2B 4307   8.678  10.896   6.191  0.3406  0.1679 -0.0318
  313POPC   C3B 4308   8.838  10.528   6.354 -0.0941 -0.1631 -0.4073
  313POPC   C4B 4309   8.984  10.223   6.642 -0.0279  0.3212  0.0439
  314POPC   NC3 4310   6.931   0.172   4.966  0.0186  0.1303 -0.2066
  314POPC   PO4 4311   7.184  -0.257   5.193 -0.1014 -0.1120 -0.0477
  314POPC   GL1 4312   7.307  -0.261   5.601 -0.3435 -0.1391 -0.0076
  314POPC   GL2 4313   7.054  -0.395   5.690  0.0316  0.1145  0.0723
  314POPC   C1A 4314   7.155  -0.247   6.139  0.0767 -0.1622  0.0771
  314POPC   D2A 4315   7.351  -0.365   6.491  0.2291 -0.1383  0.0577
  314POPC   C3A 4316   7.581  -0.091   6.809  0.1037  0.1086  0.2874
  314POPC   C4A 4317   7.560   0.062   7.250  0.3536 -0.2296  0.0661
  314POPC   C1B 4318   6.724  -0.033   5.831  0.0328  0.0892 -0.0143
  314POPC   C2B 4319   6.592   0.311   6.280  0.0237  0.4918  0.1116
  314POPC   C3B 4320   6.879   0.426   6.599  0.0557  0.1003 -0.0723
  314POPC   C4B 4321   6.902   0.634   7.030  0.1227 -0.2468  0.0344
  315POPC   NC3 4322   6.583   1.346   4.562  0.2025 -0.2082 -0.0615
  315POPC   PO4 4323   6.587   1.506   4.979  0.2276  0.1852 -0.3372
  315POPC   GL1 4324   6.912   1.400   5.283  0.2197  0.2706  0.1871
  315POPC   GL2 4325   6.968   1.051   5.538 -0.0072  0.0920 -0.0760
  315POPC   C1A 4326   7.186   1.544   5.723  0.0873 -0.1548 -0.2645
  315POPC   D2A 4327   6.965   1.620   6.066  0.2753 -0.2510 -0.2536
  315POPC   C3A 4328   7.044   1.733   6.414  0.2053  0.2448 -0.0675
  315POPC   C4A 4329   7.182   1.899   6.768  0.1786  0.0166 -0.0126
  315POPC   C1B 4330   7.113   1.098   5.934  0.0421 -0.2166  0.0042
  315POPC   C2B 4331   7.168   1.257   6.387 -0.1684  0.2288  0.0087
  315POPC   C3B 4332   7.272   1.407   6.785  0.1965 -0.1079 -0.0478
  315POPC   C4B 4333   7.438   1.608   7.114 -0.4160  0.1262 -0.1557
  316POPC   NC3 4334   4.236   3.553   5.136 -0.2731  0.1676  0.1464
  316POPC   PO4 4335   4.692   3.623   5.209  0.1994 -0.2918  0.2711
  316POPC   GL1 4336   4.698   3.482   5.648  0.1840  0.1946  0.0782
  316POPC   GL2 4337   4.981   3.440   5.740 -0.1374 -0.1339  0.0478
  316POPC   C1A 4338   4.471   3.294   5.982 -0.2164 -0.2013  0.1836
  316POPC   D2A 4339   4.362   3.391   6.377 -0.0031  0.2593 -0.0758
  316POPC   C3A 4340   4.463   3.765   6.458 -0.2988 -0.0736  0.0142
  316POPC   C4A 4341   4.636   3.750   6.958 -0.0266  0.0687 -0.0218
  316POPC   C1B 4342   4.997   3.614   6.230 -0.0723 -0.0538  0.0884
  316POPC   C2B 4343   4.841   3.493   6.581  0.1725  0.0566 -0.2410
  316POPC   C3B 4344   4.559   3.242   6.856  0.0796 -0.1501  0.1087
  316POPC   C4B 4345   4.529   3.041   7.266 -0.1030  0.3234 -0.0090
  317POPC   NC3 4346   0.742   3.637   4.402 -0.0966 -0.0465  0.2395
  317POPC   PO4 4347   0.906   3.856   4.751  0.0096 -0.0814  0.6465
  317POPC   GL1 4348   0.671   3.990   5.083 -0.2819  0.2480  0.1297
  317POPC   GL2 4349   0.359   4.071   5.183  0.1608  0.0983 -0.0708
  317POPC   C1A 4350   0.784   4.143   5.456 -0.1574 -0.4749  0.0348
  317POPC   D2A 4351   0.997   4.448   5.680  0.2011 -0.0091  0.3016
  317POPC   C3A 4352   1.285   4.384   5.974 -0.1548 -0.1581  0.0122
  317POPC   C4A 4353   1.468   4.449   6.418 -0.5348 -0.0828 -0.2731
  317POPC   C1B 4354   0.395   4.450   5.099  0.2483  0.2113 -0.2603
  317POPC   C2B 4355   0.642   4.603   5.322  0.2935  0.3877  0.0185
  317POPC   C3B 4356   1.009   4.593   5.168  0.1047 -0.1407 -0.0263
  317POPC   C4B 4357   1.336   4.678   4.925  0.2647  0.1496  0.0891
  318POPC   NC3 4358   2.227   6.975   3.999 -0.1850 -0.0516 -0.0141
  318POPC   PO4 4359   1.993   7.209   3.662 -0.2553 -0.2489  0.1680
  318POPC   GL1 4360   2.067   7.490   4.078  0.1362 -0.1255  0.2670
  318POPC   GL2 4361   1.885   7.570   4.235  0.2388  0.1669 -0.0037
  318POPC   C1A 4362   2.404   7.489   4.431 -0.1271  0.3766  0.1186
  318POPC   D2A 4363   2.597   7.474   4.794 -0.1196 -0.0437  0.1309
  318POPC   C3A 4364   2.354   7.213   5.048 -0.1502  0.0087  0.0186
  318POPC   C4A 4365   2.382   6.952   5.446  0.4424  0.1240  0.0515
  318POPC   C1B 4366   1.673   7.259   4.367  0.2294 -0.3823  0.2062
  318POPC   C2B 4367   1.204   7.151   4.409  0.0550  0.0336  0.0527
  318POPC   C3B 4368   0.908   7.146   4.661 -0.1498  0.1283 -0.0421
  318POPC   C4B 4369   0.919   7.241   5.077 -0.0505  0.0900  0.1633
  319W        W 4370   9.782   2.175  11.063  0.0392  0.0058  0.1039
  320W        W 4371   7.827   2.395  11.750 -0.1617 -0.0873  0.1425
  321W        W 4372   3.280   6.165  11.487  0.2323 -0.0174  0.0034
  322W        W 4373   7.141   1.480   2.737  0.0926 -0.0746 -0.2713
  323W        W 4374   6.739   0.044  10.934  0.0130  0.3923 -0.1277
  324W        W 4375   8.441   8.021   2.372  0.3110  0.2522 -0.3324
  325W        W 4376   8.790   5.313  11.907  0.0709  0.0936 -0.0601
  326W        W 4377   6.178   0.366   3.104 -0.1597  0.0189  0.3790
  327W        W 4378   3.234   7.503   0.370 -0.0505 -0.0127 -0.1685
  328W        W 4379   0.330   9.452   4.534  0.0206  0.1334  0.2790
  329W        W 4380  10.091   7.477   2.155 -0.5615 -0.0858  0.5095
  330W        W 4381   1.310   7.980   9.107 -0.1246  0.0042 -0.0288
  331W        W 4382   7.291   3.698  11.904 -0.2216 -0.0306 -0.3175
  332W        W 4383   5.997   6.479   1.505 -0.1795 -0.1549 -0.1471
  333W        W 4384   7.099   1.251   1.866 -0.3409  0.0307  0.2366
  334W        W 4385   5.470   2.657  13.068  0.0602 -0.1270 -0.4292
  335W        W 4386   8.942   2.290  12.271 -0.0031  0.1277  0.1626
  336W        W 4387   9.771   4.411  12.698 -0.4364 -0.2125  0.0987
  337W        W 4388   9.918   5.105   4.009  0.2997  0.1464 -0.1977
  338W        W 4389   1.540   5.378   3.618 -0.1659  0.1471 -0.0297
  339W        W 4390   9.370   7.935   1.525  0.1194 -0.0858 -0.1004
  340W        W 4391   9.982   9.220  11.647  0.1604 -0.0527 -0.2795
  341W        W 4392   9.127   4.761   1.624 -0.0967  0.5349  0.1997
  342W        W 4393   5.390   8.678   4.218  0.2765  0.1496 -0.1697
  343W        W 4394   9.635   1.589   0.522  0.0492  0.0889  0.1111
  344W        W 4395   4.157  10.015  11.128  0.1301  0.0537  0.0898
  345W        W 4396   6.151   2.963   9.926 -0.3020 -0.2151  0.4740
  346W        W 4397   1.317   4.912  12.717 -0.2840 -0.0566  0.1059
  347W        W 4398   3.366   8.476   2.941 -0.0904 -0.2875  0.2719
  348W        W 4399   5.374   0.527   2.850  0.1142  0.1615 -0.3867
  349W        W 4400   2.047   4.256   0.872 -0.0496  0.0040 -0.2509
  350W        W 4401   4.017   3.934  11.761  0.1441 -0.0650  0.2037
  351W        W 4402  10.089   9.715   0.881  0.1694 -0.3268 -0.0886
  352W        W 4403   7.383   1.218  10.655  0.1432 -0.2362  0.2204
  353W        W 4404   8.459   1.470   3.574  0.1474  0.0226 -0.0452
  354W        W 4405   2.908   5.493  11.619 -0.0967 -0.1287  0.0766
  355W        W 4406   4.626   6.969  11.870 -0.2469 -0.0543  0.1061
  356W        W 4407   9.035   2.817  12.216  0.3312  0.0718  0.0623
  357W        W 4408   1.340   4.388  11.462  0.1295  0.0138  0.2825
  358W        W 4409   1.536   4.521   0.121 -0.2500 -0.1207  0.0559
  359W        W 4410   4.321   5.953  11.056  0.0913  0.3980  0.1354
  360W        W 4411   8.989   8.208  11.513  0.2254 -0.1061  0.1270
  361W        W 4412   3.504   8.008   9.494 -0.2141  0.0110 -0.0266
  362W        W 4413   3.643  10.195   0.395  0.2831  0.1355 -0.0276
  363W        W 4414   7.470   3.849  13.208  0.0334 -0.2158  0.1374
  364W        W 4415   9.237   3.257  11.926 -0.1262  0.2346 -0.0559
  365W        W 4416   1.040   3.394  12.164  0.1538  0.2305 -0.0951
  366W        W 4417   0.535   1.402  12.003 -0.2112 -0.2095  0.2577
  367W        W 4418   0.018   8.053  10.408  0.0362 -0.0813  0.1026
  368W        W 4419   8.772   7.091  10.466 -0.0954 -0.1022 -0.1449
  369W        W 4420   5.320   3.532   9.843  0.1240 -0.0273 -0.0974
  370W        W 4421   7.412   1.306  10.165 -0.0880 -0.2053  0.1222
  371W        W 4422   4.315   6.308   2.011 -0.0402 -0.1335 -0.1096
  372W        W 4423   0.294   0.282   3.237 -0.3613  0.1536  0.2567
  373W        W 4424   1.266   5.225   2.030 -0.0719  0.0146  0.0928
  374W        W 4425   9.461   7.195  13.319  0.2120 -0.3207  0.0517
  375W        W 4426   3.249   8.093  12.208 -0.2418  0.0599 -0.1149
  376W        W 4427   9.580   2.863   1.761 -0.2494 -0.1628 -0.1707
  377W        W 4428   5.214   8.406   2.936 -0.0638  0.1482  0.0817
  378W        W 4429   1.265   9.612   4.616  0.1427  0.2625  0.0217
  379W        W 4430   6.331   9.578   0.187  0.3179 -0.4163 -0.1288
  380W        W 4431   5.661   6.844  11.314  0.1480  0.1507  0.2476
  381W        W 4432   3.703   2.500   5.431 -0.1855  0.0765 -0.3026
  382W        W 4433   1.059   7.822   2.576 -0.1486  0.0040 -0.0658
  383W        W 4434   3.735   0.445   8.822  0.1300 -0.1015  0.1340
  384W        W 4435   4.378   6.647  12.293  0.1799 -0.1127 -0.2550
  385W        W 4436   4.078   5.273   9.908 -0.0368 -0.1568  0.0047
  386W        W 4437   9.876   1.356   9.775  0.1855  0.0006 -0.0557
  387W        W 4438   2.053   5.251   3.479  0.0782  0.2046  0.2083
  388W        W 4439   7.931   8.157  11.843  0.1112  0.2381  0.2329
  389W        W 4440   1.386   7.628   3.472  0.2694 -0.0082 -0.3237
  390W        W 4441   5.267   3.391  10.331  0.1253 -0.3709 -0.1216
  391W        W 4442   9.322   0.302  10.359  0.2617 -0.1124  0.2819
  392W        W 4443   9.238   8.034  10.128 -0.0844 -0.3250 -0.2433
  393W        W 4444   4.172   3.466   0.588  0.0574  0.0403 -0.2321
  394W        W 4445   4.949   4.844   1.086 -0.0021 -0.2612  0.3129
  395W        W 4446   0.084   6.846   3.338  0.0477 -0.2311  0.1103
  396W        W 4447   3.953   7.519   2.745 -0.1877 -0.1591  0.1410
  397W        W 4448   7.533   0.940   0.603  0.0197  0.1980 -0.1241
  398W        W 4449   9.834   3.869   0.627  0.1229 -0.1643  0.1439
  399W        W 4450   7.451   3.573   0.641  0.0494  0.0234  0.0702
  400W        W 4451   3.503   8.560   0.504 -0.0625 -0.1419 -0.1230
  401W        W 4452   7.017   5.755  11.011  0.1490  0.2075  0.1938
  402W        W 4453   3.247   8.100   0.559 -0.3136 -0.0179  0.0712
  403W        W 4454   1.996   4.654  10.424  0.4631  0.2815 -0.1158
  404W        W 4455   2.332  10.065   2.643 -0.0517 -0.1663  0.0947
  405W        W 4456   7.364   1.813  12.254 -0.3997  0.0336 -0.3650
  406W        W 4457   1.966   8.846  10.622 -0.2608 -0.3180  0.2057
  407W        W 4458   2.608   8.712  12.773  0.2918  0.0294  0.0132
  408W        W 4459   3.287   5.009  11.529 -0.1392  0.2616  0.0533
  409W        W 4460  10.387   4.571   3.661  0.5462 -0.0442 -0.0749
  410W        W 4461   2.221   2.034   1.854  0.0897 -0.0838 -0.2288
  411W        W 4462   7.916   0.601   1.765 -0.0569  0.0988 -0.0070
  412W        W 4463   2.169   6.763  10.923  0.2281 -0.0711  0.0891
  413W        W 4464   5.123   9.157   9.681 -0.3388  0.3766  0.4877
  414W        W 4465   4.048   9.415   0.386 -0.0190  0.0442  0.4106
  415W        W 4466   0.789   1.021   5.207  0.0818 -0.0565  0.0576
  416W        W 4467   6.145   5.882   2.327  0.1368 -0.2338 -0.0518
  417W        W 4468   9.782   9.224  10.736 -0.3941 -0.4975 -0.0106
  418W        W 4469   1.209   1.142   4.899 -0.0089  0.0681  0.0572
  419W        W 4470   8.109   1.071   1.769  0.0945  0.0288  0.0434
  420W        W 4471   9.032   5.503   2.956 -0.2248 -0.1588  0.0958
  421W        W 4472   6.164   3.953  11.171  0.0215 -0.0358  0.1248
  422W        W 4473   6.177   5.432   2.527  0.0780 -0.1375 -0.0981
  423W        W 4474  10.256   3.115   0.707 -0.1932  0.2592 -0.1528
  424W        W 4475   4.307   2.470  10.366  0.0223  0.2411 -0.1349
  425W        W 4476   8.188   6.790  12.719 -0.1372  0.1070 -0.2815
  426W        W 4477   3.368   0.999   2.471  0.1008  0.1229  0.0783
  427W        W 4478   9.642   3.564  11.718  0.0441 -0.1447  0.2322
  428W        W 4479   2.292   9.673  12.870 -0.0068 -0.4161 -0.0369
  429W        W 4480   2.377   7.781   3.197  0.1439 -0.1576 -0.1856
  430W        W 4481   8.130   9.115   3.806 -0.0655  0.1403  0.0164
  431W        W 4482   1.423   9.974  12.313 -0.0801 -0.1150  0.0965
  432W        W 4483   3.390   8.867  10.666  0.1070  0.2011  0.0813
  433W        W 4484   6.655   3.058  11.074  0.0027  0.0603 -0.1349
  434W        W 4485   2.981   2.042   0.112 -0.0137 -0.1947  0.1759
  435W        W 4486   3.572   4.159  11.667 -0.2006  0.3501  0.0100
  436W        W 4487   9.938   9.418  12.070  0.0357 -0.0369 -0.1839
  437W        W 4488   5.952   6.526   2.914 -0.0211 -0.0193  0.1258
  438W        W 4489   4.026   4.519  12.984 -0.0055 -0.1843  0.0388
  439W        W 4490   7.909   1.316  12.828  0.0532 -0.0559  0.0774
  440W        W 4491   4.931  10.151   1.613 -0.0134  0.0492 -0.1011
  441W        W 4492   5.263   5.248   1.320  0.1112 -0.0531 -0.0907
  442W        W 4493   7.867   1.258   3.971 -0.0494  0.0085  0.1466
  443W        W 4494   7.323   2.861   3.434 -0.1877  0.2701  0.1904
  444W        W 4495   3.773   5.294   2.149 -0.0898 -0.0204 -0.3070
  445W        W 4496   6.505   1.462  10.532  0.2122  0.1133 -0.1465
  446W        W 4497   8.663   8.043   1.101 -0.1240 -0.0108  0.1296
  447W        W 4498   0.419   6.836   0.721 -0.1131 -0.1066  0.1488
  448W        W 4499   8.572   8.419  10.746 -0.4445  0.0474  0.0274
  449W        W 4500   1.532   1.484   1.996 -0.2438 -0.4269 -0.2755
  450W        W 4501   2.623   9.019   1.401  0.2058 -0.2504  0.2215
  451W        W 4502   9.011  10.080   2.978  0.1269  0.1326 -0.2299
  452W        W 4503   5.637   9.883   9.311  0.0092  0.0356 -0.1241
  453W        W 4504   3.384   5.042  12.304  0.1778 -0.0497 -0.0187
  454W        W 4505   0.948   1.955   0.003  0.0662  0.2415  0.0464
  455W        W 4506   2.243   0.261   1.607 -0.1164 -0.0218 -0.2204
  456W        W 4507   0.342   5.272  12.620 -0.0459 -0.0351 -0.3579
  457W        W 4508   0.201   8.820   9.931  0.2250 -0.2936 -0.2367
  458W        W 4509   8.135  10.405   0.812  0.1503 -0.4822  0.2481
  459W        W 4510   8.617   9.174  12.427  0.0563 -0.3209  0.0428
  460W        W 4511   0.687   5.692   3.989  0.3348 -0.1581 -0.2865
  461W        W 4512   4.991   3.989   9.161  0.0376  0.0878 -0.1075
  462W        W 4513   5.410   2.659  11.122 -0.1161  0.2566  0.0084
  463W        W 4514   3.469   5.723  11.640  0.1268  0.0294  0.2358
  464W        W 4515   1.711   1.484   1.218 -0.0421  0.2011 -0.3270
  465W        W 4516   1.565   8.548   2.205 -0.1322 -0.0964  0.2370
  466W        W 4517   5.733   7.749   4.572 -0.2431  0.1208  0.0982
  467W        W 4518   2.289   6.783   0.133  0.1299  0.1312  0.0857
  468W        W 4519   4.628   6.617   3.857  0.2106  0.0562  0.2133
  469W        W 4520   0.104   4.579   9.896 -0.0779 -0.0860 -0.3240
  470W        W 4521   0.632   7.539   9.742 -0.1094  0.1012 -0.0251
  471W        W 4522   9.194   6.526   3.787 -0.0958  0.3158 -0.0175
  472W        W 4523   7.299   0.479   0.467 -0.2814 -0.0643 -0.1867
  473W        W 4524   2.476   0.028  10.106  0.0040 -0.1668  0.3639
  474W        W 4525   7.191   3.100   2.138 -0.2473  0.1597  0.0506
  475W        W 4526   8.830   2.546   2.312 -0.3469 -0.1976  0.2502
  476W        W 4527   8.992   9.066   2.713  0.0145  0.0160 -0.0899
  477W        W 4528   7.864   1.487  10.953  0.1483 -0.3016 -0.2027
  478W        W 4529   7.535   2.352   3.320 -0.4097 -0.3270 -0.1130
  479W        W 4530   1.161   6.656   1.974 -0.0180 -0.0335 -0.2451
  480W        W 4531   6.264   2.027   1.813 -0.0492  0.1335 -0.0719
  481W        W 4532   9.164   2.313   9.410  0.1062 -0.2404 -0.3040
  482W        W 4533   6.256   4.921  11.952  0.1202  0.0924  0.0760
  483W        W 4534   5.594   3.764   1.322 -0.4412 -0.0926 -0.3528
  484W        W 4535   1.707   4.966   0.310 -0.1025 -0.0531  0.2779
  485W        W 4536   0.780  10.199   4.413 -0.1202  0.2139 -0.3794
  486W        W 4537   5.645   8.544   9.293  0.3655  0.0378  0.1398
  487W        W 4538   5.724   0.888   1.228 -0.1936 -0.0561  0.1228
  488W        W 4539   7.902   5.280  13.228 -0.0245 -0.0584  0.1906
  489W        W 4540   5.986   7.422   3.828  0.3675  0.3677 -0.1573
  490W        W 4541  10.099   9.541   1.879  0.0853  0.0079  0.0308
  491W        W 4542   6.599   5.116   3.043  0.0591 -0.0511  0.1732
  492W        W 4543   9.270   7.406   9.989  0.0115 -0.2085 -0.3875
  493W        W 4544   3.920   3.387  10.000  0.0737 -0.1821 -0.1687
  494W        W 4545   4.013   2.376   3.326 -0.2246  0.0870 -0.1992
  495W        W 4546   1.660   3.502  10.377 -0.0611  0.0850 -0.0344
  496W        W 4547   1.972   1.589   2.918 -0.1000 -0.0206  0.1325
  497W        W 4548   0.432   2.346   4.484 -0.1854 -0.2086 -0.0121
  498W        W 4549   1.633   6.159   8.799  0.0458  0.2045  0.3036
  499W        W 4550   7.008   8.211   4.203  0.1561 -0.0269 -0.0257
  500W        W 4551   1.725   2.882   0.333  0.3065  0.0721  0.2531
  501W        W 4552   0.912   0.927   3.598  0.0573  0.1616 -0.3550
  502W        W 4553   2.962   0.542  11.968  0.0285  0.1918  0.0561
  503W        W 4554   9.336   5.956  11.915 -0.0212 -0.5116 -0.1512
  504W        W 4555   6.040   7.816  13.290 -0.0181 -0.1920  0.0094
  505W        W 4556   1.346   3.168   3.123  0.2215  0.0168 -0.0785
  506W        W 4557   7.468   4.492   3.479 -0.0471 -0.2942 -0.2525
  507W        W 4558   8.394   1.137   0.251 -0.1104 -0.0703  0.0418
  508W        W 4559   1.472   9.959   3.169 -0.0124 -0.1444 -0.2121
  509W        W 4560   0.515   2.401  11.415  0.4769 -0.0565  0.1473
  510W        W 4561   8.187   6.698  12.145  0.2259  0.0878  0.2086
  511W        W 4562   7.558   4.070  11.163  0.0620 -0.0261 -0.0960
  512W        W 4563   3.330   2.666   5.078 -0.2088 -0.1988 -0.3595
  513W        W 4564   0.008   0.673   3.556 -0.3241 -0.0857  0.3794
  514W        W 4565   6.371   0.503  13.004 -0.1366  0.0101 -0.2546
  515W        W 4566   5.435  10.007  10.535 -0.2515  0.0506 -0.1130
  516W        W 4567   2.530   3.015   1.617  0.2334  0.3083 -0.0529
  517W        W 4568   2.244   8.096  12.145 -0.1083 -0.0238  0.2401
  518W        W 4569   5.640   4.865   3.095 -0.0523 -0.1219  0.2302
  519W        W 4570   3.616   7.508   9.418  0.2482  0.4062 -0.0501
  520W        W 4571   8.595   3.121  12.481  0.1709 -0.1440  0.1614
  521W        W 4572  10.107   4.222  12.389 -0.2283  0.3066 -0.1959
  522W        W 4573   6.696   2.060   0.580  0.1852 -0.2341  0.1745
  523W        W 4574   7.722  10.164   5.231  0.3306  0.2293 -0.0028
  524W        W 4575   7.659   8.905   9.213 -0.2172 -0.0081  0.2673
  525W        W 4576   2.889   1.375   2.232  0.2228 -0.0575  0.2198
  526W        W 4577   0.871   0.299  12.832  0.0156  0.2561  0.1101
  527W        W 4578   3.484   2.882  10.638 -0.0891 -0.0855  0.2801
  528W        W 4579   9.843   9.562  10.340 -0.2705 -0.3780  0.1066
  529W        W 4580   6.988   9.220   0.426 -0.0867  0.0327 -0.1014
  530W        W 4581   3.341   3.824   3.857 -0.5649  0.1826 -0.1048
  531W        W 4582   2.464   9.912  13.259 -0.2753 -0.0421 -0.0594
  532W        W 4583   7.325   0.120   0.962  0.2156  0.0872  0.0003
  533W        W 4584   8.412   7.370   3.898  0.2534 -0.1809  0.0439
  534W        W 4585   8.936   5.865   2.603  0.1592  0.0102  0.0609
  535W        W 4586   9.771   6.279  10.735 -0.2425 -0.0214 -0.0579
  536W        W 4587   7.819   8.432  12.674 -0.2697  0.1884  0.0124
  537W        W 4588   1.029   3.776   0.803  0.1201  0.2083  0.0473
  538W        W 4589   5.670   1.032   9.501  0.0840  0.1635  0.1622
  539W        W 4590   7.991   4.445   3.012 -0.3008  0.0195  0.0408
  540W        W 4591   1.196   9.010  11.314 -0.3084 -0.3556  0.1946
  541W        W 4592   7.714  10.368   4.216  0.4925  0.2476  0.4133
  542W        W 4593   0.988   0.705   2.146 -0.2073 -0.4500 -0.1310
  543W        W 4594   3.582   5.610  11.120 -0.0104 -0.1767 -0.1036
  544W        W 4595   0.913   9.391  10.862 -0.3443  0.0131  0.0782
  545W        W 4596   5.836   8.717   4.521  0.3383  0.4023 -0.1943
  546W        W 4597   9.373   4.555  11.947  0.2089 -0.3082 -0.1803
  547W        W 4598   9.680   4.304   2.648 -0.2749  0.1187 -0.2174
  548W        W 4599   3.065   2.589   1.101 -0.2787  0.2052  0.1149
  549W        W 4600   7.951   5.013  11.618 -0.1583 -0.2535  0.1598
  550W        W 4601   0.121  10.173  12.909 -0.1405  0.2170 -0.2555
  551W        W 4602   2.387   5.977  12.859 -0.0325 -0.0685  0.1786
  552W        W 4603   1.686   9.947   0.887 -0.1777  0.1893  0.0892
  553W        W 4604   8.734   7.420  13.228 -0.0588  0.1146  0.0866
  554W        W 4605   4.429   7.553  12.590  0.0957 -0.4144 -0.1680
  555W        W 4606   1.360   8.103  10.875  0.1699  0.0316  0.0824
  556W        W 4607   9.875   0.048   3.056  0.2482  0.0867 -0.0011
  557W        W 4608   2.981   3.617  10.501  0.0591  0.2712 -0.0861
  558W        W 4609   8.254   7.790   1.845  0.1158 -0.0172 -0.0013
  559W        W 4610   7.034   1.584   4.269 -0.0421  0.0668  0.1133
  560W        W 4611   3.492   1.950  13.096 -0.4167 -0.0638 -0.1273
  561W        W 4612   0.589   0.641   4.423 -0.0382 -0.3911  0.1223
  562W        W 4613   2.502   3.288   1.033 -0.1765  0.2644  0.1402
  563W        W 4614   6.170   2.789  12.656 -0.0569 -0.1214  0.0653
  564W        W 4615   0.402   3.061   4.274  0.2895 -0.1299 -0.0642
  565W        W 4616   6.386   7.462   0.277 -0.0200 -0.1420  0.2523
  566W        W 4617   5.671   7.728   4.095  0.0479 -0.2077 -0.0768
  567W        W 4618  10.023   8.245  10.318 -0.1902 -0.1341 -0.0862
  568W        W 4619   4.830   7.480  11.331  0.0343  0.0642  0.0872
  569W        W 4620   7.346  10.082  10.230 -0.1964 -0.2550  0.0171
  570W        W 4621   0.977   2.936  10.978 -0.1985 -0.1203 -0.4293
  571W        W 4622   1.972   6.588   2.312 -0.0281 -0.1420  0.2783
  572W        W 4623   3.996   2.939   4.323 -0.2014 -0.1594  0.0891
  573W        W 4624  10.189   9.420   2.490  0.2762  0.2346 -0.0721
  574W        W 4625   4.991   4.253   4.451  0.0215  0.1167  0.1588
  575W        W 4626   0.224   3.219   4.754  0.1396 -0.1838 -0.1149
  576W        W 4627   7.329   4.501   2.584  0.2748  0.0536  0.0278
  577W        W 4628   8.333   5.709   0.655 -0.2404 -0.2037 -0.1566
  578W        W 4629   3.135  10.265   9.779 -0.0911  0.0607  0.2372
  579W        W 4630   9.701   2.085   0.530 -0.2191  0.0663  0.2278
  580W        W 4631   7.675   3.297  13.204 -0.2303 -0.2009  0.2075
  581W        W 4632   2.496   0.918  11.815 -0.0727 -0.1159 -0.3684
  582W        W 4633   1.637   8.160   1.903  0.0550  0.0170  0.0358
  583W        W 4634   9.748   8.521   4.084  0.1342  0.0691 -0.0472
  584W        W 4635   5.944   2.850   3.977 -0.2172  0.1518  0.0346
  585W        W 4636   2.292   5.234   1.410 -0.0726 -0.0669 -0.1694
  586W        W 4637   5.471   0.376  13.019  0.1153  0.2436 -0.1032
  587W        W 4638   5.591   7.389  10.617  0.0964 -0.0502 -0.1863
  588W        W 4639   4.266   2.249   9.110 -0.3505 -0.2489  0.0440
  589W        W 4640   8.374   6.864   5.717 -0.3930 -0.1735 -0.1602
  590W        W 4641   5.689   1.017   3.407 -0.0677 -0.4162  0.0131
  591W        W 4642   2.654   7.694  12.627 -0.1588  0.0361  0.0949
  592W        W 4643   2.898   6.405   9.644 -0.0536  0.3534 -0.1589
  593W        W 4644   1.019   2.761  13.351 -0.0159  0.1175 -0.3000
  594W        W 4645   0.169   2.908  12.342 -0.0638 -0.1634  0.0436
  595W        W 4646  10.017   3.176   1.199 -0.1548 -0.0080  0.0072
  596W        W 4647   7.718   1.693   2.325 -0.0687  0.0879  0.0886
  597W        W 4648   2.997   2.424   4.400  0.2782 -0.0342  0.1473
  598W        W 4649   6.968   1.651   1.598  0.0028  0.3207 -0.0443
  599W        W 4650   4.940   4.642  11.396 -0.0965 -0.2070 -0.2770
  600W        W 4651   8.850   1.741   1.615 -0.1530  0.1923  0.2727
  601W        W 4652   5.256   1.480   0.098  0.0319  0.0598  0.0097
  602W        W 4653   6.034   5.228  11.319  0.0574  0.1399  0.1079
  603W        W 4654   3.657   0.746   3.578  0.2954 -0.1351  0.0450
  604W        W 4655   2.008   3.065  11.409 -0.0181  0.0533 -0.1966
  605W        W 4656   5.602   9.021  12.071  0.0461 -0.0443  0.4201
  606W        W 4657   5.003   2.736  10.421 -0.1296  0.0638  0.1510
  607W        W 4658   5.841  10.125   2.270 -0.3068 -0.1138  0.0959
  608W        W 4659  10.068   2.576  10.833  0.0818 -0.0282  0.1235
  609W        W 4660   4.702   1.980   2.841 -0.1549 -0.1389  0.0355
  610W        W 4661   3.643   3.524   0.792 -0.0569 -0.1675  0.2198
  611W        W 4662   7.427   8.213   2.957  0.3161 -0.2229 -0.3980
  612W        W 4663   2.813   3.045   2.077 -0.0607 -0.1609 -0.3257
  613W        W 4664   9.781   6.329   3.697 -0.2813  0.0952 -0.0425
  614W        W 4665   7.590   9.958   3.934 -0.1966 -0.1107  0.2197
  615W        W 4666   1.034   8.503  12.455 -0.0100 -0.0701  0.1368
  616W        W 4667   7.558   8.101  12.181 -0.0975  0.1547 -0.0860
  617W        W 4668   6.552   7.111  11.939 -0.0613  0.0067  0.2487
  618W        W 4669   4.264   7.095  10.092  0.1146 -0.0165 -0.1044
  619W        W 4670   3.233   9.848  11.349 -0.0670 -0.2187  0.2391
  620W        W 4671   7.129   4.099  10.348 -0.0464 -0.1669  0.1401
  621W        W 4672   1.965   6.302  10.697 -0.2167  0.1202 -0.2563
  622W        W 4673   0.064   2.590  11.644 -0.2119 -0.0478 -0.0253
  623W        W 4674   8.597   6.701  12.441  0.2024 -0.2927 -0.1087
  624W        W 4675   8.658   1.962   0.879  0.1463  0.0873  0.1552
  625W        W 4676   5.215  10.174   4.383  0.1463 -0.0209  0.3419
  626W        W 4677   5.954   6.638   5.208 -0.2626 -0.1140 -0.0869
  627W        W 4678   5.925   2.615  11.242  0.2582  0.1712 -0.2574
  628W        W 4679   8.794   9.599  10.890  0.0623  0.0073  0.2260
  629W        W 4680   4.502   7.116   2.211 -0.2058 -0.1715 -0.1261
  630W        W 4681  10.240   6.569  11.219  0.0673 -0.2687  0.0007
  631W        W 4682   1.983   0.208  12.598  0.1332  0.2294 -0.1536
  632W        W 4683   6.157   1.858  10.386  0.2883 -0.0993  0.2563
  633W        W 4684   9.798   8.468   0.272  0.0780 -0.0569  0.3224
  634W        W 4685   4.144   9.072   1.333  0.3364 -0.2136 -0.1924
  635W        W 4686   5.717  10.140   4.496 -0.1369 -0.2240 -0.1342
  636W        W 4687   3.049   9.111   3.173 -0.2025  0.1447  0.0219
  637W        W 4688   4.164   9.650  12.394 -0.0801  0.2832  0.3354
  638W        W 4689  10.141  10.180  12.571 -0.0589  0.2412 -0.3671
  639W        W 4690   6.175   6.230   0.978  0.2312  0.5450 -0.1218
  640W        W 4691   5.427   3.932   4.719  0.0640  0.0259 -0.1779
  641W        W 4692   0.184   8.110  12.148 -0.2277  0.1316 -0.0758
  642W        W 4693   2.720   3.801  12.703  0.0648 -0.2614 -0.2619
  643W        W 4694   9.258   8.545  10.033 -0.3851  0.0892 -0.0492
  644W        W 4695   2.324   2.181   3.286  0.1604 -0.1825 -0.1231
  645W        W 4696   2.221   5.512  12.704 -0.3566  0.2891  0.0287
  646W        W 4697   7.883   2.782   3.115  0.1212  0.2024  0.1422
  647W        W 4698   4.408   8.555   3.303 -0.1754  0.2048 -0.0591
  648W        W 4699   5.229   3.496   3.827  0.1172  0.1252 -0.2814
  649W        W 4700  10.313   8.782  13.310  0.3619  0.1338  0.1463
  650W        W 4701   8.752   1.047  10.157 -0.1517 -0.1149 -0.0630
  651W        W 4702   5.302   9.673  11.788 -0.2023 -0.3290  0.1464
  652W        W 4703   6.598   9.332  10.288  0.1283 -0.4312 -0.3629
  653W        W 4704   6.384  10.283  11.280  0.1932 -0.0107 -0.1600
  654W        W 4705   6.664   8.543   2.111 -0.2062 -0.0125 -0.0835
  655W        W 4706   8.519   1.309   2.377 -0.0664 -0.1007  0.2393
  656W        W 4707   0.344   8.236   1.023 -0.2997 -0.0111  0.0023
  657W        W 4708   3.809   9.265   1.917 -0.0827  0.1057  0.0895
  658W        W 4709   9.872   7.750   4.608 -0.2046  0.1311 -0.3818
  659W        W 4710   8.104   8.636  11.755  0.2807 -0.0683 -0.0425
  660W        W 4711   7.676   7.932   0.866  0.0272 -0.0330  0.0811
  661W        W 4712   3.611   7.831  12.866 -0.2263  0.0167 -0.0686
  662W        W 4713   6.027   7.257  11.539 -0.0277  0.1374  0.3535
  663W        W 4714   2.264   9.328   1.617 -0.1220  0.0363  0.0605
  664W        W 4715   0.810   0.448   3.996  0.1865 -0.1247  0.0620
  665W        W 4716   4.147   2.911   2.084 -0.1979  0.3061  0.2103
  666W        W 4717   9.118   9.906  10.669  0.0283  0.2512  0.1930
  667W        W 4718   9.387   1.133  11.388 -0.1163 -0.0109 -0.4530
  668W        W 4719   5.289   8.385   3.735  0.0015 -0.1257 -0.0797
  669W        W 4720   3.788   6.075  11.251 -0.1409 -0.2232  0.2240
  670W        W 4721   3.406   1.869  11.922  0.1086  0.3329  0.4542
  671W        W 4722   3.326   3.225  12.032  0.4135 -0.3267  0.1704
  672W        W 4723   9.048   6.957   0.945  0.2075 -0.1725 -0.1881
  673W        W 4724   0.077   4.131   3.759 -0.0551  0.1624  0.3318
  674W        W 4725   3.392   7.902   0.044  0.2081 -0.2723 -0.3756
  675W        W 4726   4.934   1.231  12.504  0.1532 -0.2683 -0.0088
  676W        W 4727   2.722   4.257   3.469 -0.2027  0.0425 -0.2542
  677W        W 4728   0.317   5.080   3.680  0.0049  0.1076 -0.2366
  678W        W 4729   9.736  10.065   4.592 -0.1714 -0.0433  0.0087
  679W        W 4730   4.950   6.385   0.180  0.1323 -0.0403 -0.1204
  680W        W 4731   9.399   9.717   4.288 -0.1117  0.0176 -0.1903
  681W        W 4732   7.818   4.372   0.072 -0.1369  0.0247  0.2157
  682W        W 4733   6.135   4.635   1.451  0.0783 -0.3278  0.2250
  683W        W 4734  10.349   8.453   0.344 -0.1199  0.1811 -0.0377
  684W        W 4735   3.695   5.749  13.038  0.2806  0.1125  0.0830
  685W        W 4736  10.031   7.803   1.275  0.1504 -0.3342 -0.1710
  686W        W 4737   1.644   3.113  10.860  0.1033 -0.0491 -0.0243
  687W        W 4738   4.246   2.314  12.592  0.0999 -0.1958 -0.0846
  688W        W 4739   2.443   9.363   0.503  0.0157 -0.2485  0.3510
  689W        W 4740   5.572   6.353   1.706  0.2340 -0.0983 -0.0000
  690W        W 4741   7.988   0.643   1.261  0.0798 -0.0024  0.1603
  691W        W 4742   3.832   5.302   3.976  0.2777  0.1806 -0.2415
  692W        W 4743   6.736   1.963   2.002  0.2805  0.0983  0.0829
  693W        W 4744  10.376   5.359  12.875 -0.0594 -0.0328 -0.0316
  694W        W 4745   0.307   4.161   1.713 -0.0129  0.1523  0.0938
  695W        W 4746   9.495   5.191  10.868  0.2086  0.1273 -0.0790
  696W        W 4747   8.514   9.449   8.543 -0.0501  0.1035 -0.1235
  697W        W 4748   0.890   3.556   1.271 -0.2009  0.1188 -0.0638
  698W        W 4749   7.729   6.546   9.671  0.1828 -0.0469 -0.0797
  699W        W 4750   8.915   7.736   9.836  0.0948  0.2017 -0.0918
  700W        W 4751   7.741   2.912  11.832 -0.1545 -0.0842  0.1142
  701W        W 4752   7.102   4.158   3.586 -0.0440  0.2623 -0.1016
  702W        W 4753   8.502   6.821  10.830  0.0993 -0.1806 -0.0249
  703W        W 4754   4.805   4.382  11.840  0.2381 -0.0347  0.3561
  704W        W 4755   0.945   2.994   5.482  0.0002 -0.2066 -0.0739
  705W        W 4756   1.204   4.171   2.455 -0.4617 -0.0223  0.0891
  706W        W 4757   3.110   1.539   3.558  0.1940 -0.1235 -0.1960
  707W        W 4758   4.790   4.022   4.883 -0.0826 -0.1095  0.3205
  708W        W 4759   6.292   0.512   2.601  0.1889  0.0169 -0.2058
  709W        W 4760   0.018   9.318  11.885  0.0888 -0.0118 -0.3277
  710W        W 4761   7.819   7.161   0.430 -0.1764 -0.2150 -0.3097
  711W        W 4762   5.554   9.603  10.249  0.0688 -0.3459  0.0215
  712W        W 4763   5.981   4.992   3.493 -0.1073 -0.1373 -0.2380
  713W        W 4764   1.384   4.128   4.092 -0.1242  0.2440 -0.0000
  714W        W 4765   0.760   2.059  12.615 -0.0349 -0.2861 -0.0100
  715W        W 4766   7.562   5.950   2.645  0.3622 -0.1864  0.0905
  716W        W 4767   6.768   7.524   3.370 -0.0028  0.1738  0.3976
  717W        W 4768   0.810   6.848   0.445  0.1867  0.1932  0.2582
  718W        W 4769   4.150   9.817   2.611 -0.3518  0.0386  0.2157
  719W        W 4770   9.357   1.906  11.412  0.1133 -0.1317 -0.3042
  720W        W 4771   5.039   8.016   0.746  0.1129  0.1008  0.0182
  721W        W 4772   0.414   1.054  12.372  0.2634  0.1334 -0.1819
  722W        W 4773   8.709   1.198   4.644  0.0217  0.0286 -0.0457
  723W        W 4774   3.264   0.890  10.158 -0.2565  0.3698  0.2435
  724W        W 4775   6.559   4.608  11.723  0.0030  0.1526 -0.4396
  725W        W 4776   3.570   6.608  13.093 -0.1853  0.2726 -0.7025
  726W        W 4777   2.099   4.786   1.294 -0.0327  0.0458 -0.3867
  727W        W 4778   2.883   2.945   9.911 -0.0184  0.4856  0.1211
  728W        W 4779   8.881   3.360   8.481  0.1800 -0.0197 -0.0831
  729W        W 4780   8.682   9.727   1.158 -0.0542  0.1707 -0.0281
  730W        W 4781   1.341   0.996  11.831 -0.1681  0.3184 -0.1911
  731W        W 4782   3.445   8.038   3.128 -0.2158  0.1983 -0.0785
  732W        W 4783   4.220   6.159   4.139 -0.0326 -0.1605 -0.2549
  733W        W 4784   4.757   5.202   0.713 -0.0720 -0.2984 -0.2928
  734W        W 4785   1.505   4.412   3.701  0.0254  0.0580 -0.2453
  735W        W 4786   2.463   4.834  12.033 -0.1162  0.3703 -0.2145
  736W        W 4787   3.305   7.081   9.257 -0.1896 -0.0662  0.0478
  737W        W 4788   2.314   2.092  10.903  0.0763 -0.0594 -0.0555
  738W        W 4789  10.351   5.124  11.714 -0.0550  0.1754 -0.0403
  739W        W 4790   9.938   7.420   2.953 -0.0908 -0.0986  0.0732
  740W        W 4791   7.069   9.899   3.789  0.0467  0.1038  0.2009
  741W        W 4792   0.285   3.737  12.682 -0.2588  0.1119  0.0969
  742W        W 4793   0.710   2.542  12.368  0.1895  0.1546  0.2563
  743W        W 4794   4.484   1.620   3.279 -0.4198  0.0561  0.2222
  744W        W 4795   9.905   7.562  10.910  0.1495  0.0491 -0.2450
  745W        W 4796   6.696   3.738   3.638 -0.0585 -0.1748 -0.3141
  746W        W 4797   7.006   7.462   4.966 -0.0013 -0.0667 -0.0729
  747W        W 4798   9.456   3.468  12.831 -0.0990  0.1785  0.0696
  748W        W 4799   3.380   4.651   3.950  0.1389  0.0750  0.0198
  749W        W 4800  10.301   5.673   2.649  0.0146  0.1176  0.0648
  750W        W 4801   9.053   0.384   9.900  0.2340 -0.1060 -0.1113
  751W        W 4802   2.986   0.609  10.436 -0.1797 -0.3366 -0.1556
  752W        W 4803   1.142   9.470   1.988  0.0726  0.2270  0.0243
  753W        W 4804   2.545   9.438   0.010  0.2992  0.2125  0.1784
  754W        W 4805   9.700   0.720   3.746 -0.0711 -0.1212  0.0708
  755W        W 4806   3.598   4.666   0.978 -0.1394 -0.2401 -0.0994
  756W        W 4807   4.301   2.763   3.132  0.1412  0.0365  0.2882
  757W        W 4808   8.758   5.503   0.995  0.1356  0.3257 -0.2083
  758W        W 4809   2.529   3.221  11.540  0.1111  0.0438 -0.5680
  759W        W 4810   3.698   5.179  10.201 -0.1427  0.0906  0.0069
  760W        W 4811   6.583   4.418   5.226  0.1253 -0.1080  0.2486
  761W        W 4812   8.749   7.450   0.462  0.0546  0.1100 -0.3962
  762W        W 4813   4.317   8.332   1.093 -0.0621 -0.0572  0.4097
  763W        W 4814   5.969   1.703   3.233 -0.0879 -0.4637  0.1025
  764W        W 4815   9.779   1.075   0.452 -0.1875  0.1918 -0.1085
  765W        W 4816   6.635   1.823  13.028  0.2474 -0.0182 -0.0388
  766W        W 4817   0.447   6.820   6.226  0.0175 -0.1567  0.0170
  767W        W 4818   3.795   3.384   4.377 -0.0982 -0.3425 -0.2317
  768W        W 4819   9.220   7.492   2.339 -0.3063 -0.0169  0.3299
  769W        W 4820   0.162   3.547  11.747  0.0076  0.0102  0.2018
  770W        W 4821   0.573   8.636   1.113 -0.2552  0.2504  0.0003
  771W        W 4822   9.866   0.101  10.591  0.1080  0.0182  0.1905
  772W        W 4823   9.601   8.091  10.859  0.0631 -0.3063  0.1360
  773W        W 4824   2.479   9.183   8.425 -0.1500 -0.0014  0.1330
  774W        W 4825   4.915   0.628  10.938  0.2664  0.3395  0.2669
  775W        W 4826   4.839   6.708   4.721 -0.0655  0.0333 -0.2669
  776W        W 4827   6.714   6.403   9.501 -0.0879  0.2169 -0.2375
  777W        W 4828   8.599   0.275  13.299 -0.1656 -0.1628  0.1664
  778W        W 4829   7.915   4.811  12.377  0.3414 -0.1153  0.0414
  779W        W 4830   5.927   3.055   4.858 -0.1400 -0.2608  0.1761
  780W        W 4831   8.340   0.264  10.090  0.1744  0.0476 -0.1467
  781W        W 4832   3.660   5.443  10.625 -0.4027  0.1705 -0.3439
  782W        W 4833   4.999   6.240   3.597  0.0098  0.1851 -0.0866
  783W        W 4834   2.611   1.176   0.659 -0.0525 -0.2644 -0.0598
  784W        W 4835   5.389   5.333  10.438  0.1250  0.0727  0.2188
  785W        W 4836  10.386   9.695   2.895 -0.1302  0.4319 -0.1681
  786W        W 4837   9.073   4.033   0.960 -0.1026 -0.0174 -0.0554
  787W        W 4838   4.729   1.391  12.010  0.3225 -0.1853  0.1333
  788W        W 4839   2.991   9.611   2.308  0.0486 -0.0756 -0.2278
  789W        W 4840   0.842   2.476   0.713 -0.0468  0.0681  0.1662
  790W        W 4841   2.657   1.775   2.031  0.2901 -0.0333 -0.2037
  791W        W 4842   0.040   2.914  10.712  0.3332  0.0355  0.0143
  792W        W 4843   0.221   3.888   0.665 -0.1444 -0.0428 -0.0581
  793W        W 4844   0.247   6.520  10.953  0.3886 -0.0688 -0.0875
  794W        W 4845   3.209   4.110  11.986  0.3733  0.0498  0.0257
  795W        W 4846   9.010   3.396  12.463 -0.0515  0.0493  0.1417
  796W        W 4847   2.126   3.274  10.642 -0.2727  0.0116  0.0344
  797W        W 4848   9.463   4.343   1.735  0.0508  0.0433  0.3617
  798W        W 4849   2.766   5.144  11.172 -0.0614  0.1977 -0.3110
  799W        W 4850   7.243   5.534   4.103  0.0738  0.0708  0.0686
  800W        W 4851   8.487   6.461   2.981  0.2520  0.1362 -0.2425
  801W        W 4852   9.932   3.179  13.196 -0.0736 -0.2254 -0.1085
  802W        W 4853   5.973   0.021   0.949 -0.0382  0.0223  0.1121
  803W        W 4854   8.408   2.551   1.061  0.0250  0.1828 -0.3974
  804W        W 4855   1.768   5.334  12.385  0.0317 -0.0701 -0.0631
  805W        W 4856   6.994   5.002   1.875  0.0343  0.1477  0.2798
  806W        W 4857   1.427  10.376   2.612  0.1338 -0.0180  0.1836
  807W        W 4858   5.622   3.522   3.491 -0.1806  0.3299 -0.0805
  808W        W 4859   7.829  10.146   8.943  0.2643  0.2466 -0.0289
  809W        W 4860   5.971   1.016  11.576 -0.0937 -0.0892 -0.0926
  810W        W 4861   7.676   5.948   1.444 -0.0195 -0.2409 -0.1508
  811W        W 4862   5.446   9.853  13.081  0.0481 -0.3883 -0.1047
  812W        W 4863   8.556   6.909   0.353  0.1292  0.3172  0.0772
  813W        W 4864   7.644   4.573   3.932 -0.0771  0.3536 -0.0109
  814W        W 4865   7.352   0.045   4.763  0.1798 -0.1439  0.1622
  815W        W 4866   2.137   1.877   2.414 -0.0421  0.0218 -0.3399
  816W        W 4867   8.438   1.979   1.719 -0.0394  0.1412  0.2055
  817W        W 4868   7.266   4.007   2.591 -0.0487 -0.1820  0.1116
  818W        W 4869   3.327   3.079   3.590 -0.1110  0.0362 -0.1138
  819W        W 4870   0.221   6.761   1.669 -0.0910  0.0151 -0.2234
  820W        W 4871   5.154   5.708   4.075  0.0887  0.2356  0.3156
  821W        W 4872   9.699   0.166   4.701 -0.0840 -0.0224 -0.4487
  822W        W 4873   8.388   4.703   8.982 -0.1096  0.1651  0.3790
  823W        W 4874   3.202   9.189  10.173  0.1594  0.0040  0.2706
  824W        W 4875   3.844   1.899  12.758  0.0150  0.1032 -0.0612
  825W        W 4876   4.341   1.526   9.855 -0.0380 -0.4067 -0.6428
  826W        W 4877   4.164   4.092   2.576  0.1958 -0.0349  0.4488
  827W        W 4878   8.145   2.738  10.886 -0.1838  0.1759  0.0129
  828W        W 4879   9.723   2.472   3.611  0.0221 -0.2611  0.0916
  829W        W 4880   5.131   4.507  10.969  0.2299 -0.0840 -0.3246
  830W        W 4881   6.595   9.424   2.546  0.1017 -0.3720  0.1971
  831W        W 4882   4.760   0.005   2.775 -0.0873 -0.0551  0.5438
  832W        W 4883   6.482   5.472  10.141 -0.0066 -0.4732 -0.2827
  833W        W 4884   6.942   6.495   3.638 -0.2525  0.3191 -0.0783
  834W        W 4885   9.487   2.404   1.589  0.0586  0.0842 -0.0877
  835W        W 4886   2.084   4.731   9.838 -0.1228  0.2106  0.0051
  836W        W 4887   7.994   6.164   2.937  0.2865  0.1710 -0.2660
  837W        W 4888   7.496   4.352  10.119  0.3398  0.0005  0.0977
  838W        W 4889   6.899   2.617  11.114  0.2773 -0.2084 -0.0229
  839W        W 4890   6.415   7.568  10.086  0.0953 -0.0100 -0.0457
  840W        W 4891   7.293   3.169   3.005 -0.0445 -0.1606  0.0659
  841W        W 4892   8.701   3.134   3.438 -0.1656 -0.0050  0.1640
  842W        W 4893   1.020   4.775   0.844 -0.1736 -0.4491 -0.1043
  843W        W 4894   5.925   2.728  10.382 -0.2865 -0.2071 -0.1302
  844W        W 4895   6.029   3.875  10.282  0.2714 -0.0808 -0.2209
  845W        W 4896   2.505   5.389   1.849 -0.2118 -0.0993 -0.1869
  846W        W 4897   3.444   3.782   4.361  0.2684  0.2285  0.0331
  847W        W 4898   1.325   7.304   9.952 -0.0242 -0.1107 -0.1358
  848W        W 4899   8.394   7.400   9.599  0.0181  0.1969 -0.0934
  849W        W 4900   1.124   9.437   0.935 -0.2117 -0.0248 -0.3732
  850W        W 4901   9.260   9.642   9.906  0.2077  0.1257  0.1037
  851W        W 4902   1.466   8.981   3.018 -0.1654  0.1818 -0.0843
  852W        W 4903   4.938   6.904  10.049  0.1665  0.1190  0.1367
  853W        W 4904   2.389   6.258  11.035 -0.1908  0.1515 -0.0612
  854W        W 4905   8.371   4.645  10.115  0.3735 -0.0932  0.2649
  855W        W 4906   7.616   8.959  12.661 -0.3335  0.0769  0.1129
  856W        W 4907   0.459   8.960   1.484  0.0887 -0.1887  0.0904
  857W        W 4908   6.983   8.726  10.047  0.3915  0.3952  0.1828
  858W        W 4909   5.406   2.749   4.279  0.2586 -0.1373 -0.0492
  859W        W 4910   1.544   6.662   0.821 -0.0683 -0.0629  0.4540
  860W        W 4911   4.099   4.494   4.470 -0.2217  0.0018  0.0014
  861W        W 4912   2.068   8.692   2.284  0.0277 -0.1517  0.0451
  862W        W 4913   6.612   9.707   9.042 -0.0991 -0.1875  0.3007
  863W        W 4914   4.321   1.897  12.905 -0.0390 -0.1766  0.1673
  864W        W 4915   0.549   5.532   3.544  0.1433 -0.2491  0.2566
  865W        W 4916   5.327   7.439  11.851  0.0724 -0.1151 -0.1983
  866W        W 4917   1.179   0.977  13.010 -0.2284 -0.1808 -0.0014
  867W        W 4918   2.372  10.356   3.680  0.1591 -0.1146  0.2523
  868W        W 4919  10.387   0.265   0.953 -0.3117  0.0823 -0.1599
  869W        W 4920   7.240   9.588   2.988  0.0852  0.3596 -0.1738
  870W        W 4921   5.886   2.255   1.045 -0.1077  0.0150  0.2229
  871W        W 4922   9.379   3.429   3.701 -0.2020  0.4842 -0.1962
  872W        W 4923   2.556   0.612  13.164  0.1731 -0.0165 -0.1197
  873W        W 4924  10.085   2.124  10.538  0.0790  0.0598  0.0480
  874W        W 4925   3.272   3.170   2.061  0.1358 -0.2293 -0.1382
  875W        W 4926   6.011   7.039  11.025  0.3825 -0.2494  0.0631
  876W        W 4927   6.084   9.813   4.526 -0.3137  0.0703 -0.0138
  877W        W 4928   7.451   4.311  10.669 -0.2327 -0.2020 -0.1461
  878W        W 4929   9.257   1.196   1.224 -0.1616  0.0205 -0.0651
  879W        W 4930   4.192   2.606   1.292  0.1347 -0.1740 -0.0276
  880W        W 4931   5.965   9.605  13.206 -0.1345 -0.0352 -0.3507
  881W        W 4932   3.711   2.535  10.293  0.0157 -0.0815 -0.2647
  882W        W 4933   0.669   5.890   1.556 -0.0263  0.0195  0.2514
  883W        W 4934   3.805   1.131   3.185  0.0073 -0.2766 -0.1741
  884W        W 4935   8.587   3.088  13.060 -0.0010  0.2342  0.2733
  885W        W 4936   6.407   0.071   3.932  0.1094  0.3012  0.2074
  886W        W 4937   4.132   8.524  12.657 -0.0449 -0.1583 -0.1033
  887W        W 4938   1.432   3.604  10.810 -0.1336 -0.1547 -0.2031
  888W        W 4939   4.432   8.723   2.333  0.0994 -0.0941 -0.4061
  889W        W 4940   0.853   7.156   2.202  0.1886 -0.0902  0.1491
  890W        W 4941   5.387   2.502  10.650  0.0307  0.0880 -0.0869
  891W        W 4942   1.348   7.265   2.513 -0.1457 -0.0073  0.0539
  892W        W 4943   6.350   0.733  12.499 -0.0725 -0.0130  0.2485
  893W        W 4944   6.315   9.805   2.359  0.6070  0.4379  0.0631
  894W        W 4945   7.480   0.995  11.503  0.0483  0.0991  0.1070
  895W        W 4946   3.227   5.510  10.182  0.1532 -0.5756  0.2838
  896W        W 4947   8.936   2.862   9.306  0.0313 -0.0180 -0.0713
  897W        W 4948   8.915   9.672   3.249  0.1054  0.2206  0.1047
  898W        W 4949   9.383   1.757  13.129 -0.3665  0.0894 -0.0828
  899W        W 4950  10.240   2.659   3.792  0.1831  0.1870  0.0243
  900W        W 4951   3.603   1.466   0.806 -0.2257 -0.0298  0.2700
  901W        W 4952   5.449   6.680  12.372 -0.3455 -0.2245 -0.1470
  902W        W 4953   2.471   0.090   4.165 -0.1045  0.0530  0.0812
  903W        W 4954   7.836   4.310  12.365  0.0660  0.3045 -0.0993
  904W        W 4955   0.774   5.825   0.241  0.2921  0.0826 -0.1356
  905W        W 4956   4.067   7.846  11.939 -0.2394 -0.1305 -0.0397
  906W        W 4957   4.571   7.848   4.998 -0.3505 -0.1983  0.0688
  907W        W 4958   3.265   6.071  13.244  0.2573 -0.0031  0.0583
  908W        W 4959   4.423   4.164   1.697 -0.0544  0.0395 -0.3325
  909W        W 4960   2.793  10.223   2.689 -0.0609  0.3052  0.0082
  910W        W 4961   9.856   0.234   0.940  0.0548  0.0336 -0.1169
  911W        W 4962   3.357   1.896   3.839 -0.1498  0.3407  0.0898
  912W        W 4963   6.749   9.866   2.823  0.1495  0.0870 -0.1304
  913W        W 4964   6.491   3.352  12.391 -0.0349 -0.3915  0.1774
  914W        W 4965   1.966   1.917   0.967 -0.0028 -0.2083 -0.3975
  915W        W 4966   7.322   0.333  13.352 -0.2722  0.0867 -0.3381
  916W        W 4967   8.563   0.785   2.404  0.1103 -0.1658  0.1965
  917W        W 4968   6.447   7.621   2.240 -0.3799  0.0219  0.1874
  918W        W 4969   3.245   7.647   3.344  0.1991  0.2626 -0.4336
  919W        W 4970   8.593  10.269  10.878 -0.1939 -0.1798  0.0161
  920W        W 4971   4.399   3.894   9.958 -0.2748  0.1582 -0.0146
  921W        W 4972   1.622   2.386  10.524  0.2184  0.0017 -0.1213
  922W        W 4973   2.959   8.618   0.597 -0.4018 -0.1652  0.0338
  923W        W 4974   6.161   8.796   3.226 -0.1182  0.1820  0.0530
  924W        W 4975   9.796   9.503   9.052 -0.1122  0.0178 -0.0849
  925W        W 4976   6.598   9.650   1.744 -0.0201 -0.1805 -0.0588
  926W        W 4977   7.721   2.095   3.713 -0.0299 -0.0057  0.1168
  927W        W 4978   0.209   7.602  11.872 -0.2307  0.0245 -0.3615
  928W        W 4979   1.434   1.539   4.701  0.0791 -0.2295  0.1762
  929W        W 4980   9.484   3.808   3.383 -0.0171 -0.2464  0.1770
  930W        W 4981   1.429   5.515   0.401 -0.0153  0.1454 -0.1229
  931W        W 4982   4.182   3.475  11.652  0.1517  0.0031  0.5995
  932W        W 4983   6.554   4.280   9.634 -0.1858  0.0130 -0.0646
  933W        W 4984   6.664   3.696  10.419 -0.2556  0.2054  0.2178
  934W        W 4985   9.930   6.496   0.735 -0.2196  0.0836  0.1922
  935W        W 4986   0.068   1.528  12.191  0.2395 -0.2745  0.2867
  936W        W 4987   5.509  10.336   0.939  0.2375  0.1696  0.0560
  937W        W 4988   5.582   5.566  11.395  0.3596 -0.1700  0.0993
  938W        W 4989   3.657   7.482  13.222  0.1390 -0.0936 -0.1617
  939W        W 4990   5.722   2.711   9.905  0.0248 -0.1882 -0.0331
  940W        W 4991   0.887   7.288  12.464 -0.1843 -0.3143 -0.0713
  941W        W 4992   4.793   2.262   0.907  0.2182 -0.1900 -0.1573
  942W        W 4993   1.100   4.945  11.862 -0.1791 -0.2792 -0.1833
  943W        W 4994   3.277   6.093  10.974 -0.2278 -0.3150  0.0082
  944W        W 4995   2.506   9.785   9.274 -0.0918  0.1427 -0.1810
  945W        W 4996   0.765   1.978   0.487 -0.2064  0.1332  0.0833
  946W        W 4997   0.483   5.032   9.989 -0.0149 -0.0551  0.2853
  947W        W 4998   8.914   3.582   0.889 -0.4279  0.1643  0.0194
  948W        W 4999   7.305  10.073   0.856  0.0234 -0.5470  0.0394
  949W        W 5000   9.467   9.298   4.546  0.3422  0.0047 -0.0673
  950W        W 5001   2.582   6.748  10.081  0.2447  0.3384  0.2363
  951W        W 5002   7.895   4.599   2.413 -0.1432 -0.1528  0.1122
  952W        W 5003   8.514   5.985  11.680 -0.4960 -0.0488  0.0579
  953W        W 5004   5.554   7.466   3.609 -0.2151  0.1850 -0.0849
  954W        W 5005   4.513   6.388  11.126 -0.0664 -0.2406 -0.1100
  955W        W 5006   7.873   7.675   4.431  0.0382 -0.0938  0.3448
  956W        W 5007   8.056   2.297   4.074  0.1377 -0.2679  0.2049
  957W        W 5008   1.148   9.872  10.989  0.0483  0.0037  0.0366
  958W        W 5009  10.407   9.979  11.925 -0.1363 -0.5803 -0.1125
  959W        W 5010   7.285   2.960  13.203 -0.1632  0.0295 -0.1715
  960W        W 5011   5.822   8.501   4.006  0.0397  0.2606  0.4697
  961W        W 5012   3.127   6.707  10.924  0.0203  0.2651 -0.3744
  962W        W 5013   0.043   5.344  13.345 -0.1011 -0.0627 -0.0831
  963W        W 5014   0.308   2.085  12.985  0.2680  0.2325 -0.0537
  964W        W 5015   6.535   8.378  10.993  0.0963 -0.0459  0.0545
  965W        W 5016   1.724   6.810   3.778 -0.5878  0.1095  0.0097
  966W        W 5017   2.336   7.491   2.577 -0.0099  0.0305  0.3428
  967W        W 5018   5.966   1.369  10.382  0.1428  0.3105 -0.0228
  968W        W 5019   6.281   7.850   0.849  0.1859  0.1651 -0.0859
  969W        W 5020   7.354   5.474   2.488 -0.0162 -0.1494 -0.2582
  970W        W 5021   9.954   7.943   2.761  0.1405  0.1443  0.2352
  971W        W 5022   4.877   9.633   1.087  0.1442 -0.0409  0.0316
  972W        W 5023   4.075   3.213   3.209 -0.1872  0.2821 -0.0289
  973W        W 5024   5.227   6.705   1.101  0.0437  0.0955  0.1073
  974W        W 5025   7.033   5.454   2.083  0.3104 -0.1320 -0.0247
  975W        W 5026  10.351   0.746  10.282 -0.0843 -0.1588  0.1606
  976W        W 5027   9.246   8.191   2.956 -0.0784  0.1658 -0.0236
  977W        W 5028   6.512   2.761  10.230  0.2197 -0.0058 -0.3685
  978W        W 5029   7.899   2.674   2.203 -0.1432  0.0450 -0.0292
  979W        W 5030   6.444  10.149   2.017  0.1508 -0.1400 -0.0468
  980W        W 5031   5.732   1.836   1.955  0.0278 -0.0290 -0.1074
  981W        W 5032   8.812   2.032  10.618  0.1365  0.3379 -0.1089
  982W        W 5033   7.603   4.975  11.004  0.1263  0.0197  0.2199
  983W        W 5034   1.333   4.399   0.544  0.1778  0.1385  0.0590
  984W        W 5035   4.219   4.799   0.511 -0.0192  0.1571 -0.0247
  985W        W 5036   3.421   8.497   3.612 -0.3253  0.0203 -0.0078
  986W        W 5037   5.984   5.169   0.129  0.0371  0.2950 -0.2268
  987W        W 5038  10.094   5.116   2.097 -0.0412 -0.1701 -0.1651
  988W        W 5039   1.029   3.905  12.082 -0.2003 -0.2230  0.4100
  989W        W 5040   3.401   5.064  13.155 -0.0663 -0.0788 -0.4255
  990W        W 5041   4.682  10.194  10.334  0.2365 -0.2602 -0.1269
  991W        W 5042   5.554   1.870   3.925  0.1785  0.1648 -0.3484
  992W        W 5043   3.255   3.958   2.102  0.1219  0.0513  0.0939
  993W        W 5044   6.197   9.701  11.113  0.2023  0.1820  0.1902
  994W        W 5045   6.687  10.202  11.686 -0.2308  0.1423 -0.3682
  995W        W 5046   6.317   9.765   2.966  0.0248  0.0519 -0.1842
  996W        W 5047   4.157   3.359   0.103 -0.5356  0.1605 -0.0311
  997W        W 5048   4.651   9.621  12.529 -0.0502  0.2030  0.0915
  998W        W 5049   9.506   0.402   2.343 -0.4388  0.0078 -0.5556
  999W        W 5050   6.189   9.702   3.613 -0.2701 -0.1007  0.1211
 1000W        W 5051   0.959   0.332  12.277  0.2524 -0.3021 -0.1231
 1001W        W 5052   0.329   0.054   0.645 -0.0235 -0.1301  0.0198
 1002W        W 5053   3.209   6.421   1.423 -0.1891 -0.2362 -0.1063
 1003W        W 5054   6.718   2.398   1.022 -0.1404 -0.0634 -0.3161
 1004W        W 5055   0.984   6.227   1.839 -0.0999 -0.1991  0.1119
 1005W        W 5056   0.513   6.466  11.370  0.3261  0.1745 -0.0103
 1006W        W 5057   5.496   3.533  13.129 -0.2708 -0.0300  0.2474
 1007W        W 5058   1.404   7.303   8.403  0.2970 -0.1282  0.0863
 1008W        W 5059   5.598   5.685   3.969 -0.2342  0.1350  0.1232
 1009W        W 5060   4.471   5.308  12.378 -0.0595  0.0490 -0.0688
 1010W        W 5061   5.077   5.620  11.433  0.2235 -0.1785  0.3023
 1011W        W 5062   5.290  10.392   1.890  0.0944  0.0632  0.1630
 1012W        W 5063   8.407   0.195   0.433  0.2042 -0.1189 -0.0314
 1013W        W 5064   3.681   2.999   4.831 -0.1133 -0.1660 -0.0441
 1014W        W 5065   2.371   3.972  12.371 -0.2173 -0.0343 -0.3602
 1015W        W 5066   7.057   0.678   5.188 -0.2352  0.1933 -0.1644
 1016W        W 5067   5.841   8.212   4.566  0.1413 -0.3300 -0.3970
 1017W        W 5068   4.850   6.146   4.079  0.3218  0.0096 -0.0883
 1018W        W 5069   1.284   1.677   9.216  0.0098  0.1654  0.2151
 1019W        W 5070  10.176   4.227   2.305  0.0149  0.1407 -0.1483
 1020W        W 5071   8.658   9.986  12.770  0.2195 -0.1395 -0.0867
 1021W        W 5072   7.590   9.727  11.901  0.1933  0.2644  0.1629
 1022W        W 5073   4.709   9.256   8.410  0.0430  0.2636 -0.2229
 1023W        W 5074   1.994   9.188   0.365  0.0436  0.3214 -0.1829
 1024W        W 5075   9.420   2.936   0.164  0.1881 -0.1149 -0.1328
 1025W        W 5076   6.710   2.995   9.835  0.2528  0.3342  0.0130
 1026W        W 5077   1.985   9.095   3.131  0.0188 -0.0572  0.1126
 1027W        W 5078   3.493   8.932   0.875 -0.1456  0.0915  0.0076
 1028W        W 5079   4.136   6.331  13.129 -0.0763 -0.1874  0.0052
 1029W        W 5080  10.046   2.177   3.190 -0.4794  0.0035  0.1449
 1030W        W 5081   9.594   5.498   0.508 -0.1191 -0.1462 -0.0299
 1031W        W 5082   5.825   0.899  10.022  0.2142 -0.0319 -0.1410
 1032W        W 5083   0.319   7.151  11.224  0.0359 -0.0537 -0.0988
 1033W        W 5084   0.252   1.777  10.469 -0.0182  0.3304 -0.3947
 1034W        W 5085   4.170   8.316  11.728  0.0687  0.1037  0.2118
 1035W        W 5086   8.206   9.423   4.790  0.3356  0.2682 -0.2155
 1036W        W 5087   0.013   2.735   4.349  0.1478  0.1240 -0.0647
 1037W        W 5088   4.870   4.991   1.588  0.2073 -0.0370  0.1207
 1038W        W 5089   3.614  10.414   9.470 -0.0954  0.1803 -0.1028
 1039W        W 5090   9.834   4.321   0.413 -0.1446  0.0005 -0.2243
 1040W        W 5091   7.231   3.570   2.382  0.1208 -0.0543 -0.0602
 1041W        W 5092   6.075   4.264   9.962  0.0015  0.2403  0.1854
 1042W        W 5093   7.940   0.181   2.602 -0.0917 -0.1348  0.2704
 1043W        W 5094   3.152  10.364  11.286  0.1960  0.2364 -0.0457
 1044W        W 5095   9.689  10.157   0.832  0.0579  0.1327  0.1228
 1045W        W 5096   7.475   8.343   4.017 -0.1953 -0.0552  0.0722
 1046W        W 5097   5.209   2.461  12.108  0.0526 -0.2479 -0.1293
 1047W        W 5098   2.072   6.697   1.077  0.0140  0.1560  0.0103
 1048W        W 5099   9.476   3.337   2.601  0.0304 -0.1556 -0.0741
 1049W        W 5100   3.503   1.268   4.002  0.2938 -0.2962  0.0195
 1050W        W 5101   3.485   6.646   1.099  0.0020 -0.2276  0.1514
 1051W        W 5102   2.655   1.816   3.373  0.2257  0.2100 -0.2278
 1052W        W 5103   7.659   6.170   1.990 -0.0679 -0.2964 -0.1481
 1053W        W 5104   2.083   2.247  10.050  0.0944 -0.1850  0.1380
 1054W        W 5105   0.865   0.682   1.639 -0.2960  0.2682  0.1684
 1055W        W 5106   4.474   6.142  11.962  0.0912  0.2531  0.0781
 1056W        W 5107   8.970   5.842   5.200 -0.1947  0.1162  0.3842
 1057W        W 5108   0.102   6.965  12.024 -0.0809  0.1478  0.1111
 1058W        W 5109   6.829   3.918   1.677  0.2929 -0.2304 -0.2524
 1059W        W 5110   0.255   6.870   0.242  0.0210  0.1941  0.1554
 1060W        W 5111   6.492   6.235   3.676 -0.0160  0.1696 -0.0327
 1061W        W 5112   7.847   4.519  12.871 -0.1552  0.4832  0.2751
 1062W        W 5113   5.497   4.846   4.926 -0.0700  0.2119 -0.0219
 1063W        W 5114   5.605   6.979   0.904 -0.1985 -0.0734  0.0140
 1064W        W 5115   5.520   2.117  11.315 -0.3545  0.0855  0.1093
 1065W        W 5116   4.081   6.558   1.663  0.0688 -0.2515 -0.1867
 1066W        W 5117   1.008   6.175   3.514  0.1410  0.1727 -0.0811
 1067W        W 5118   0.343   0.152  10.621  0.3881 -0.1362 -0.1703
 1068W        W 5119   2.861  10.221  12.325  0.0183  0.0789  0.1790
 1069W        W 5120   8.913   3.541  12.941 -0.0076 -0.3683  0.0485
 1070W        W 5121   6.281   8.370   5.441  0.2914 -0.2123  0.0385
 1071W        W 5122   8.440  10.146  13.336  0.6624 -0.1006 -0.0514
 1072W        W 5123   2.237  10.173  10.448 -0.3286 -0.0383 -0.1607
 1073W        W 5124   1.369   1.703   0.183  0.4242 -0.1726 -0.1458
 1074W        W 5125   1.197   1.039   2.729  0.0343  0.0523 -0.1205
 1075W        W 5126   2.216   8.909  11.716 -0.0702  0.1750  0.2628
 1076W        W 5127   9.088   6.380  12.079 -0.1682  0.1228  0.0068
 1077W        W 5128   6.426  10.165   0.999 -0.3385  0.1165 -0.2507
 1078W        W 5129   5.114   2.401   3.364  0.0081 -0.1235  0.0121
 1079W        W 5130   0.958   3.556   3.545 -0.1572 -0.3282 -0.0433
 1080W        W 5131   0.367   3.343  13.355 -0.1043  0.1393 -0.0932
 1081W        W 5132   5.096   7.077   9.586  0.3562 -0.3421 -0.0097
 1082W        W 5133   1.084   5.476   2.860 -0.0498  0.0995 -0.1813
 1083W        W 5134   1.538   0.668  12.788 -0.2641 -0.0945  0.0431
 1084W        W 5135   7.988   4.929   2.768 -0.0461  0.0425 -0.5568
 1085W        W 5136  10.277   6.379   9.806 -0.2469 -0.1960  0.3257
 1086W        W 5137   6.980   3.487  12.348  0.1665 -0.1363  0.1297
 1087W        W 5138   2.481   6.020   0.182 -0.0218 -0.0019  0.0977
 1088W        W 5139   7.252   6.714   9.085 -0.1063  0.1104  0.2131
 1089W        W 5140   5.362  10.272  12.367 -0.1546  0.1271 -0.0938
 1090W        W 5141   5.303   0.262   0.199  0.2247  0.0045  0.4142
 1091W        W 5142   8.255   7.193  11.948 -0.2173  0.0816 -0.0273
 1092W        W 5143   5.147   8.906  12.341 -0.1673 -0.3540  0.4872
 1093W        W 5144   2.263   7.279  10.051 -0.2106 -0.2795 -0.0047
 1094W        W 5145   7.821   7.183   1.478 -0.0207  0.1250 -0.1616
 1095W        W 5146   5.772   6.111   1.343 -0.4506  0.3134  0.0704
 1096W        W 5147   8.574   7.824   0.170  0.1696  0.0080  0.0172
 1097W        W 5148   1.394   8.780   9.373 -0.2446  0.2969 -0.0732
 1098W        W 5149   7.533   8.546   9.617  0.3236  0.0972 -0.1242
 1099W        W 5150  10.225  10.062  10.268  0.1481 -0.2721 -0.0263
 1100W        W 5151   5.773   4.117   4.325  0.1595 -0.2099 -0.2744
 1101W        W 5152   5.834   2.744   1.496 -0.0378  0.1129  0.0812
 1102W        W 5153   9.020   6.317  13.269 -0.1936 -0.1634  0.0293
 1103W        W 5154   0.164   7.788   2.163  0.1796 -0.3552 -0.0551
 1104W        W 5155   4.951  10.263   5.088  0.4758  0.1995 -0.1686
 1105W        W 5156   9.674   8.576  12.113 -0.0064 -0.0806 -0.1817
 1106W        W 5157   8.288   4.430   4.417 -0.0375 -0.2430  0.3120
 1107W        W 5158   8.739   8.671  12.298  0.2505  0.2513  0.4188
 1108W        W 5159   7.690   8.227  13.191  0.2974  0.2129  0.3823
 1109W        W 5160   2.823   6.061   2.686 -0.1108 -0.1642 -0.0829
 1110W        W 5161   8.941   5.673   3.434 -0.0513  0.0717 -0.0783
 1111W        W 5162   2.755   2.251  11.881 -0.0795 -0.1760  0.0053
 1112W        W 5163   6.811   2.012   9.186  0.1461 -0.0122 -0.1327
 1113W        W 5164   5.307   6.221  10.054  0.1666  0.0731 -0.1126
 1114W        W 5165   1.081   6.525  11.743 -0.0575 -0.3097  0.1578
 1115W        W 5166   3.198   6.730   0.138 -0.0049  0.0862  0.1983
 1116W        W 5167   7.469   9.446   9.690  0.1939 -0.2291  0.0514
 1117W        W 5168   2.590   8.201  11.049 -0.1598  0.1564  0.1129
 1118W        W 5169   8.509   2.101   4.263 -0.0856  0.0886 -0.1763
 1119W        W 5170   5.732   2.550   4.692  0.0883  0.1095 -0.1535
 1120W        W 5171   5.950   6.371   2.073  0.1572  0.0145 -0.1067
 1121W        W 5172   5.739   4.400  13.051  0.0110  0.2560  0.0560
 1122W        W 5173   7.378   4.804   9.973  0.1371 -0.2482  0.2948
 1123W        W 5174   4.637   4.857   5.513  0.0078  0.2740 -0.1779
 1124W        W 5175   9.381   2.731  13.057  0.0554  0.3218 -0.0195
 1125W        W 5176   3.575   7.304   1.209 -0.0712  0.0607 -0.0745
 1126W        W 5177   0.869   2.615   4.362  0.3959  0.3437 -0.0040
 1127W        W 5178   6.329   1.765   2.241 -0.1911  0.0480 -0.2672
 1128W        W 5179   3.481   0.247   3.703 -0.2434  0.0346 -0.0618
 1129W        W 5180   1.653   9.441  12.284  0.1436  0.1312  0.2524
 1130W        W 5181   0.076   4.138  10.540 -0.1718  0.0276  0.1358
 1131W        W 5182   0.264   7.538  13.323 -0.1757  0.1581 -0.1352
 1132W        W 5183   7.294   2.765   1.520  0.0149 -0.0675  0.1101
 1133W        W 5184   6.276   5.705  12.571  0.0716  0.2237 -0.2854
 1134W        W 5185   6.994   6.494  10.409  0.2551  0.0459  0.2666
 1135W        W 5186   3.486   4.577   3.374 -0.1031 -0.2784 -0.2043
 1136W        W 5187   4.000   5.691   4.340  0.0021  0.0997 -0.1353
 1137W        W 5188   3.519   6.466   3.856 -0.1042  0.0570 -0.0808
 1138W        W 5189   8.788   7.772  11.737  0.0375  0.3093 -0.3094
 1139W        W 5190   1.043   4.003   0.361 -0.0775 -0.0615  0.0809
 1140W        W 5191   0.442   0.523  12.556 -0.0531  0.0346  0.2172
 1141W        W 5192   5.371   1.206   1.100  0.1536 -0.3103 -0.0390
 1142W        W 5193   7.554   6.347   9.260  0.2241 -0.0475  0.0553
 1143W        W 5194   4.198   4.666   2.954 -0.1450 -0.0116  0.0966
 1144W        W 5195   9.323   9.276   3.679 -0.0986 -0.3081  0.3187
 1145W        W 5196  10.381   3.751   2.437  0.1374  0.1453 -0.1395
 1146W        W 5197   4.773   8.135   4.583 -0.1146  0.0124 -0.0673
 1147W        W 5198   7.636   1.956  11.032 -0.0854 -0.3484 -0.3706
 1148W        W 5199   7.555   9.414   8.423  0.4830 -0.4201 -0.1784
 1149W        W 5200   5.051   1.918   4.768 -0.0710 -0.0309  0.1183
 1150W        W 5201   0.269   1.575   3.471  0.2256 -0.4674  0.1084
 1151W        W 5202   4.410   4.549   0.929 -0.1143 -0.1150 -0.0076
 1152W        W 5203   5.556   8.705  10.289 -0.0550 -0.2014 -0.0971
 1153W        W 5204   6.543   2.157   4.801  0.0754 -0.2365 -0.1348
 1154W        W 5205   6.476   1.208   9.492 -0.1603 -0.3366 -0.0997
 1155W        W 5206   3.903   6.531   4.524 -0.0139  0.2143 -0.0029
 1156W        W 5207   5.207   8.877   0.545 -0.0962  0.0861  0.0641
 1157W        W 5208   8.477   7.246   3.470  0.1157  0.2714 -0.1437
 1158W        W 5209   2.579   1.493   3.746  0.2590  0.3556 -0.0799
 1159W        W 5210   2.510   8.421   3.016 -0.0277  0.1008 -0.0536
 1160W        W 5211   6.423   2.728  11.372  0.1001  0.0605 -0.0542
 1161W        W 5212   9.261   7.400   0.717  0.1558 -0.3237  0.2771
 1162W        W 5213   5.588   7.681  13.156  0.3733  0.0818  0.2584
 1163W        W 5214   2.456   4.694   0.922 -0.2453 -0.1348 -0.0904
 1164W        W 5215   3.805   8.691   9.861  0.3509  0.1787 -0.2989
 1165W        W 5216   7.892   3.382   1.624 -0.1001  0.1046 -0.1320
 1166W        W 5217   8.147   8.786   3.042 -0.3345  0.0969  0.1502
 1167W        W 5218   3.681   7.796   1.273 -0.2984  0.1944 -0.0054
 1168W        W 5219   8.743   9.453   8.955 -0.2081  0.1537 -0.0062
 1169W        W 5220   0.739   9.401  12.746 -0.0475  0.0450 -0.0391
 1170W        W 5221   5.007   9.315   4.150  0.0130 -0.1752  0.3914
 1171W        W 5222   2.557   4.754   4.377 -0.0847  0.0297  0.1459
 1172W        W 5223   6.545   8.685   9.801 -0.1126  0.0236  0.3456
 1173W        W 5224   9.442   6.597   1.075 -0.0444 -0.3398 -0.1494
 1174W        W 5225   5.634   0.408   0.557 -0.3386 -0.0521  0.2349
 1175W        W 5226   7.915   6.659   1.986 -0.1063 -0.0823  0.2399
 1176W        W 5227   5.001   9.483   2.715 -0.1448  0.0639 -0.0779
 1177W        W 5228   4.531   4.460  12.839 -0.1109  0.3404  0.0367
 1178W        W 5229   5.011   3.946   9.828 -0.0713 -0.1752 -0.0966
 1179W        W 5230   9.822   7.820   9.609 -0.6200 -0.1452  0.0932
 1180W        W 5231   6.635   0.245  10.267  0.2671  0.1329  0.4338
 1181W        W 5232   8.706   1.729   3.904  0.3975 -0.0948  0.0066
 1182W        W 5233   7.172   7.961   0.424  0.2742  0.2689  0.1741
 1183W        W 5234   6.559   8.220   2.723 -0.0853 -0.2786 -0.1054
 1184W        W 5235  10.211   7.128  10.389  0.0607  0.3007 -0.0873
 1185W        W 5236   3.070   3.841   3.232  0.0542  0.2143  0.3753
 1186W        W 5237   6.549   7.052   0.627 -0.0307  0.1671  0.1724
 1187W        W 5238   9.801   5.394   1.816 -0.1272  0.0367 -0.3173
 1188W        W 5239   1.746   4.077   3.325 -0.0313  0.0766 -0.4538
 1189W        W 5240   3.076   3.277   2.695 -0.0038  0.0334 -0.0880
 1190W        W 5241   3.887   4.144   0.035 -0.1151 -0.0906  0.3653
 1191W        W 5242   5.963  10.255   5.537  0.1059 -0.4497 -0.1674
 1192W        W 5243   6.601   1.035  12.164 -0.1087  0.0811  0.3014
 1193W        W 5244   2.341   2.677  11.344  0.0190  0.0578  0.1520
 1194W        W 5245   8.953   2.553  10.455  0.2224  0.6557 -0.0633
 1195W        W 5246   7.128   6.407   0.537 -0.0075  0.0529 -0.0662
 1196W        W 5247   2.893   9.258   2.707 -0.0239 -0.1348  0.1324
 1197W        W 5248   5.120   1.424   1.501 -0.2111 -0.0244 -0.0844
 1198W        W 5249   0.893   1.599   9.651  0.2775  0.0160  0.1997
 1199W        W 5250   0.038   6.762   1.152  0.1885 -0.0596 -0.5605
 1200W        W 5251   5.370   4.336  12.613 -0.0198 -0.0883 -0.1170
 1201W        W 5252   7.538   1.735   4.075  0.1016 -0.0612  0.0412
 1202W        W 5253   3.832   4.988  10.778  0.1138 -0.1025 -0.2221
 1203W        W 5254   0.199   0.023  11.174  0.0039 -0.3595  0.0999
 1204W        W 5255   7.230   9.693   4.444  0.3545  0.0952  0.1202
 1205W        W 5256   5.784   0.867   4.877  0.1137 -0.2182 -0.0490
 1206W        W 5257   7.940   5.355  12.172  0.0575 -0.0135  0.2037
 1207W        W 5258   8.084   2.143   2.019  0.0850  0.2540 -0.0575
 1208W        W 5259   3.621  10.402   1.419 -0.3490 -0.2848 -0.0179
 1209W        W 5260   0.032   0.435   5.174 -0.1799 -0.1431  0.1859
 1210W        W 5261   5.075   2.872  12.875 -0.0114  0.0476 -0.1071
 1211W        W 5262   4.163   7.286  10.755 -0.1007 -0.0497 -0.0436
 1212W        W 5263   1.986   9.328  12.658  0.1321  0.0909 -0.1683
 1213W        W 5264   4.561   4.253   2.243 -0.1415 -0.1712 -0.0911
 1214W        W 5265   6.400   6.063   4.160 -0.0736 -0.1330  0.4047
 1215W        W 5266   6.697   9.231   5.069  0.0644 -0.2234  0.0567
 1216W        W 5267   8.562   7.579   3.114 -0.4437 -0.1094  0.3291
 1217W        W 5268   5.027   1.373   4.632 -0.1692 -0.0521  0.1372
 1218W        W 5269   7.279   0.199   4.262  0.1978 -0.0061 -0.4079
 1219W        W 5270   5.227   1.125   3.570 -0.2591 -0.2573  0.2452
 1220W        W 5271   9.393   1.808   4.576 -0.0284 -0.1823  0.0156
 1221W        W 5272   4.929   4.332   1.889  0.2232 -0.0646  0.0886
 1222W        W 5273   6.982   7.388   0.546  0.1072 -0.0382 -0.0438
 1223W        W 5274   5.575   6.492  12.903 -0.0170  0.0880 -0.1536
 1224W        W 5275   4.514   1.828   1.947 -0.1029 -0.1470  0.1436
 1225W        W 5276   7.782   3.335   2.886  0.2020 -0.0598  0.1614
 1226W        W 5277   0.396   7.094   8.375 -0.0272 -0.0006  0.0625
 1227W        W 5278   7.968   2.435   0.063  0.0742  0.2621  0.0144
 1228W        W 5279   2.153   9.755   1.230  0.1928  0.1427  0.1547
 1229W        W 5280   4.332   7.185   2.685  0.0423 -0.0297 -0.0168
 1230W        W 5281   5.843   2.932   3.225  0.0597 -0.5055 -0.0033
 1231W        W 5282  10.212   0.724  11.840 -0.1085 -0.0715 -0.1784
 1232W        W 5283   7.718   9.231   1.163  0.0583  0.2396 -0.1805
 1233W        W 5284   1.872   7.663   0.433 -0.2879  0.2000  0.2280
 1234W        W 5285   0.243   5.372  11.976 -0.0231 -0.1324 -0.1048
 1235W        W 5286   2.751   0.725   3.029 -0.0196 -0.3890 -0.0163
 1236W        W 5287   9.165   9.172   1.877 -0.0100 -0.2115  0.3213
 1237W        W 5288   7.833   9.463  11.546 -0.0349 -0.0878  0.0216
 1238W        W 5289   9.052   7.729   1.156  0.2241 -0.1601 -0.1046
 1239W        W 5290   6.346   1.282   8.971  0.2709  0.0118  0.0299
 1240W        W 5291   4.952   2.842  12.310 -0.0914  0.0004 -0.1096
 1241W        W 5292   8.933   3.760   3.729 -0.1173  0.0392  0.4147
 1242W        W 5293   0.746   6.886  11.468 -0.0355  0.1184  0.1634
 1243W        W 5294   0.526   7.824   0.345 -0.1908  0.0117 -0.0938
 1244W        W 5295   8.752   3.168   8.937 -0.2607  0.3545  0.2095
 1245W        W 5296   1.754   4.175   0.355  0.0002  0.0815  0.2478
 1246W        W 5297   6.299   9.475   4.053 -0.1979  0.4496 -0.0538
 1247W        W 5298   0.095   2.071   0.202  0.0294 -0.1109  0.2239
 1248W        W 5299   2.064   3.815  10.165  0.0709 -0.1448  0.3253
 1249W        W 5300   1.708   0.104  10.083  0.1634  0.3770  0.1011
 1250W        W 5301   3.001   4.570   1.079 -0.0568 -0.3694 -0.3031
 1251W        W 5302   4.883   1.344   1.038  0.0823 -0.0491 -0.2953
 1252W        W 5303   0.956   3.290  12.638 -0.0263  0.3877 -0.3270
 1253W        W 5304   3.925   6.954  12.986 -0.1337 -0.0027 -0.0176
 1254W        W 5305   0.146   4.452  12.180  0.3649  0.1322 -0.1830
 1255W        W 5306   9.715   0.823  10.489 -0.4155  0.0261 -0.2588
 1256W        W 5307   9.732   6.757  11.196 -0.4852 -0.0472 -0.0325
 1257W        W 5308   1.106   5.213   3.319  0.2507 -0.1046 -0.1039
 1258W        W 5309  10.212   0.761  11.269 -0.0485 -0.0410  0.0064
 1259W        W 5310   1.296   7.559  12.634 -0.2025  0.0750 -0.0329
 1260W        W 5311   5.760   5.441   5.855  0.0215 -0.2131 -0.0928
 1261W        W 5312   8.569   7.853   3.511 -0.5276 -0.1782 -0.3807
 1262W        W 5313   5.318   6.268  12.028 -0.1205  0.2011  0.4475
 1263W        W 5314   0.799   8.216  12.819 -0.0297  0.1358  0.2730
 1264W        W 5315   6.027   4.852  13.107 -0.3099 -0.1526  0.2648
 1265W        W 5316   5.387   0.818  12.738 -0.0639 -0.0142  0.2305
 1266W        W 5317   6.094   8.559   9.642 -0.1351 -0.0809  0.3199
 1267W        W 5318   3.179   5.787   0.690 -0.1801  0.0806 -0.0935
 1268W        W 5319   5.246   9.170  11.765  0.2965  0.0851  0.1115
 1269W        W 5320   1.653   1.748   1.605 -0.0457  0.1707  0.1526
 1270W        W 5321   2.422   9.475   8.817  0.1353  0.2628 -0.0752
 1271W        W 5322   7.343   9.520  10.792 -0.2664  0.1350 -0.0355
 1272W        W 5323   9.520   8.286  10.428  0.5371  0.2345 -0.0329
 1273W        W 5324   7.163   4.876  12.864  0.3529  0.3940  0.1008
 1274W        W 5325   6.326   7.890   8.686 -0.1202 -0.1933  0.2980
 1275W        W 5326   2.141   9.897   0.695  0.2355  0.1510  0.1017
 1276W        W 5327   8.998   6.601  10.567  0.1953  0.1392  0.0718
 1277W        W 5328   1.204   1.565   1.401 -0.3095  0.3696 -0.0172
 1278W        W 5329   5.608   4.095   5.418 -0.0660  0.2043 -0.1214
 1279W        W 5330   7.389   1.944   2.558  0.2682 -0.0108  0.0014
 1280W        W 5331   1.737  10.187  11.823  0.0281 -0.0226  0.2186
 1281W        W 5332   0.205   8.453  10.786  0.0326  0.0327  0.1867
 1282W        W 5333  10.249   5.772  13.144  0.2939 -0.0550  0.1292
 1283W        W 5334   4.623   4.410   5.186 -0.0480  0.2823  0.1658
 1284W        W 5335   8.142   1.810   0.870 -0.3122 -0.0290  0.1500
 1285W        W 5336   9.207   8.257   1.020  0.1213 -0.1650  0.3446
 1286W        W 5337   6.485   6.084  11.757 -0.1541 -0.0566 -0.0916
 1287W        W 5338   1.260   4.710   9.614  0.0653  0.0623  0.2005
 1288W        W 5339   7.633   2.406   1.296  0.0121 -0.0249 -0.0974
 1289W        W 5340   4.437   4.856   9.134  0.2460  0.1066  0.4326
 1290W        W 5341   9.278   8.193   9.683  0.0728 -0.1663  0.5673
 1291W        W 5342   7.275   5.017   1.097  0.2300 -0.1178 -0.2365
 1292W        W 5343   6.930   5.624  10.157 -0.1758 -0.0554 -0.3115
 1293W        W 5344   3.815   3.281  10.514 -0.1431  0.1461  0.0604
 1294W        W 5345   6.135   1.064   4.445 -0.3128  0.1080  0.1188
 1295W        W 5346   0.500   8.749   3.444 -0.0835 -0.1905 -0.0378
 1296W        W 5347   6.641   2.459   9.819  0.2055 -0.0676  0.0600
 1297W        W 5348   7.253   8.790   3.380 -0.0339  0.1254 -0.1019
 1298W        W 5349   2.483   5.527   0.161 -0.0800  0.0273  0.3744
 1299W        W 5350   1.980   4.224  12.659  0.2259 -0.2454  0.2102
 1300W        W 5351   8.154   3.692   1.264 -0.2173  0.2248  0.0395
 1301W        W 5352   2.679   0.323   3.358  0.2767  0.3340 -0.1402
 1302W        W 5353   9.713   8.110  12.457  0.1675  0.1691  0.0425
 1303W        W 5354   5.465   5.298  12.537 -0.3427 -0.0964  0.0581
 1304W        W 5355   8.127   3.015   2.653  0.0729  0.0098 -0.0982
 1305W        W 5356   5.215   4.032  11.483  0.0605 -0.0563 -0.0110
 1306W        W 5357   8.326   8.302   4.391 -0.2712  0.0259 -0.1598
 1307W        W 5358   8.262   3.425  13.175 -0.1702 -0.0507 -0.0291
 1308W        W 5359   4.471   9.170  11.644  0.0088  0.0324 -0.1710
 1309W        W 5360   8.418   2.467  11.219 -0.0696 -0.3410  0.1163
 1310W        W 5361   0.862   1.696  11.379  0.0110 -0.0457  0.0937
 1311W        W 5362   4.168   2.037  10.045  0.0092  0.0058  0.0215
 1312W        W 5363   2.783   4.702  11.509  0.0154  0.0859  0.0897
 1313W        W 5364   8.478   0.909  12.057 -0.0238  0.1096 -0.0213
 1314W        W 5365   1.477   4.096  12.413 -0.0960 -0.1804  0.0982
 1315W        W 5366   8.159   8.884  12.650 -0.2526  0.0780  0.0259
 1316W        W 5367   1.969   8.523  10.206  0.5555  0.0900 -0.2486
 1317W        W 5368   9.804   7.337  10.252 -0.0288 -0.1604  0.0050
 1318W        W 5369   9.271   0.044   2.612 -0.0183 -0.1512  0.1355
 1319W        W 5370   2.213   1.388  12.735  0.0185 -0.2337  0.2229
 1320W        W 5371   1.969   7.470   8.405 -0.0263 -0.2018  0.1916
 1321W        W 5372   8.344   6.354  10.957 -0.1045  0.0605  0.1609
 1322W        W 5373   9.985  10.016  10.685 -0.2977 -0.3202  0.1409
 1323W        W 5374   1.022   5.390   0.193  0.1432 -0.2824  0.2082
 1324W        W 5375   8.870   6.714   2.307  0.0195 -0.1756 -0.2350
 1325W        W 5376   8.381   5.078   0.207  0.0317 -0.0856  0.0955
 1326W        W 5377   0.531   1.960   4.187 -0.2701 -0.2148  0.0214
 1327W        W 5378   3.431   0.259  13.206 -0.1811  0.3473 -0.0426
 1328W        W 5379   7.384   0.596   1.657  0.1052 -0.2341 -0.1547
 1329W        W 5380   6.439   6.828   2.781  0.2687  0.2687 -0.0806
 1330W        W 5381   5.854   8.797  10.708 -0.1880  0.0771 -0.1378
 1331W        W 5382   6.225   7.324   0.890 -0.3658  0.2919  0.1878
 1332W        W 5383   8.405   6.432   1.163  0.2013  0.0283  0.2653
 1333W        W 5384   6.731   2.086   1.462  0.1749  0.0387 -0.1160
 1334W        W 5385   4.592   8.717   0.842  0.4901 -0.0927 -0.0910
 1335W        W 5386   4.850   8.940  13.257  0.1287 -0.2704  0.1001
 1336W        W 5387  10.418   0.118   2.409 -0.1794 -0.0405  0.1369
 1337W        W 5388   9.154  10.261   0.624  0.2391 -0.0336  0.0789
 1338W        W 5389   0.273   6.463   2.445  0.0355  0.0806  0.0411
 1339W        W 5390   6.982   9.528   9.441  0.1552 -0.0143 -0.0635
 1340W        W 5391   3.164   2.343   0.647 -0.0733  0.3405 -0.2626
 1341W        W 5392   6.451   1.202   0.885  0.1869  0.0793  0.0991
 1342W        W 5393   8.513   8.889   2.721 -0.1022  0.0762  0.1276
 1343W        W 5394   3.630   9.951  10.584 -0.0671  0.1959  0.1351
 1344W        W 5395   2.462   3.490  12.902  0.1412  0.0791 -0.2968
 1345W        W 5396   4.219   4.505  10.667  0.0673 -0.0701 -0.0254
 1346W        W 5397   8.228   3.982  12.068  0.0907  0.1129 -0.0864
 1347W        W 5398   1.510   5.310  11.831 -0.1749  0.0377  0.1534
 1348W        W 5399   6.001   3.319  10.591  0.1284 -0.0056 -0.0020
 1349W        W 5400   1.724   5.360   1.136  0.2419  0.1433 -0.3078
 1350W        W 5401   4.908   5.771  13.133  0.0220 -0.0927  0.0459
 1351W        W 5402   0.329   0.478  11.274  0.1051 -0.1515  0.0126
 1352W        W 5403   8.272   0.249   4.830  0.0954 -0.0628  0.0130
 1353W        W 5404   3.936   4.376   1.202 -0.2449  0.1302  0.1458
 1354W        W 5405   0.855   5.219  10.512 -0.1693  0.1172 -0.1551
 1355W        W 5406   0.964   1.717   0.907 -0.1503  0.0087 -0.2058
 1356W        W 5407   8.341   7.605  13.002 -0.0998 -0.1233 -0.2185
 1357W        W 5408   4.732   9.474   9.972 -0.1136  0.4099 -0.0245
 1358W        W 5409   5.273   7.481   9.964 -0.2003 -0.0132 -0.1519
 1359W        W 5410   2.188   1.667   9.006 -0.2193  0.0384  0.0478
 1360W        W 5411   3.531   7.032   2.073  0.0518  0.0407  0.1733
 1361W        W 5412   9.515   9.128   1.342  0.0586  0.2604  0.1611
 1362W        W 5413   2.964   1.757  12.062  0.1320 -0.3149  0.1827
 1363W        W 5414   3.356   3.429  11.294 -0.2859 -0.0171 -0.1341
 1364W        W 5415   3.328   9.203  11.027 -0.2723  0.2078 -0.0536
 1365W        W 5416   9.910   8.591  12.599  0.0027 -0.1986  0.0212
 1366W        W 5417   2.634   6.710  11.105 -0.1826 -0.1762  0.1127
 1367W        W 5418   4.960   9.928   3.941 -0.2208  0.1920 -0.1175
 1368W        W 5419   3.834   4.390  10.320 -0.1674 -0.3610 -0.0455
 1369W        W 5420   2.906   1.921   5.359 -0.0746  0.1798  0.2143
 1370W        W 5421   6.697   3.027  11.983  0.0023 -0.0943  0.0530
 1371W        W 5422   6.544   8.290   4.012  0.0023  0.0939  0.0956
 1372W        W 5423   0.318   7.965   2.642 -0.3822  0.2890 -0.2415
 1373W        W 5424   6.902   0.407   0.800 -0.0224 -0.0748 -0.1537
 1374W        W 5425   1.323   9.168   3.522 -0.0826 -0.4012 -0.1566
 1375W        W 5426   4.301   1.131   1.596 -0.3299  0.3167 -0.1124
 1376W        W 5427   3.683   9.144  11.407  0.4593 -0.1474 -0.2302
 1377W        W 5428   8.393   5.538   9.995  0.3314  0.2260 -0.1881
 1378W        W 5429   1.275   7.018   0.554  0.2313 -0.2662 -0.0038
 1379W        W 5430   6.733   0.858  10.833  0.3002  0.0728 -0.1228
 1380W        W 5431   3.449   9.008   9.756  0.2706 -0.2349  0.2557
 1381W        W 5432   9.807   3.058   2.895 -0.0869  0.2481  0.0240
 1382W        W 5433   6.505   8.885  11.091 -0.2899 -0.0082 -0.2682
 1383W        W 5434   4.558   5.790   1.911 -0.1178  0.1430  0.2105
 1384W        W 5435   0.048   2.682   0.695 -0.1304 -0.0569  0.1065
 1385W        W 5436   6.511   9.035   3.958 -0.1583 -0.1598 -0.1631
 1386W        W 5437   4.128   0.916  13.117 -0.1585  0.1419  0.0441
 1387W        W 5438   7.244   8.004   1.891  0.2872  0.0925 -0.1685
 1388W        W 5439   9.595   0.661   0.924  0.2099  0.0073  0.3048
 1389W        W 5440  10.365   0.152  10.286 -0.0337 -0.1196  0.0146
 1390W        W 5441   6.744   6.112   1.618  0.1111 -0.2359  0.1219
 1391W        W 5442   6.044   3.625  12.305  0.3954 -0.3227 -0.0465
 1392W        W 5443   7.000   0.899   0.685  0.3189 -0.1054 -0.0416
 1393W        W 5444   1.401   8.598   9.993 -0.1943  0.0019 -0.2217
 1394W        W 5445   0.483   9.927   2.141  0.0756  0.0831 -0.0447
 1395W        W 5446   4.304   0.929   9.130 -0.1182  0.4721  0.3154
 1396W        W 5447   9.006  10.316   2.006  0.0837  0.0182 -0.0883
 1397W        W 5448   5.586   8.831   1.988 -0.0480  0.2564  0.0297
 1398W        W 5449   6.132   9.579  10.160  0.5579 -0.2041  0.1329
 1399W        W 5450   1.498   1.910  10.388  0.1264 -0.0836 -0.0546
 1400W        W 5451   9.809   0.943   5.411  0.1879  0.1775 -0.1752
 1401W        W 5452   9.204   5.029  11.790  0.0353 -0.1071  0.1937
 1402W        W 5453   6.351   8.383   1.041 -0.1077 -0.0145  0.0959
 1403W        W 5454   4.862   7.365  12.151 -0.0940  0.1106  0.0052
 1404W        W 5455   6.442   3.809  11.574 -0.2586 -0.1509 -0.0807
 1405W        W 5456   7.689   0.922  11.008 -0.1774  0.1086 -0.1313
 1406W        W 5457   3.155   5.417   1.015 -0.4559 -0.0125 -0.0470
 1407W        W 5458   7.839   3.321   1.099 -0.2389  0.2249 -0.4558
 1408W        W 5459   2.571   1.447  13.085  0.2465  0.2292 -0.1125
 1409W        W 5460   1.896   6.272   0.875  0.3352  0.1371  0.0577
 1410W        W 5461   6.507   0.709   0.647  0.1697  0.3435 -0.1251
 1411W        W 5462   7.119   8.003   3.320  0.4162 -0.1188 -0.1049
 1412W        W 5463   2.357   7.999  13.278  0.0041 -0.2195  0.1414
 1413W        W 5464   0.709   0.755   1.141 -0.2351  0.1852 -0.1448
 1414W        W 5465   4.284   0.288  11.651  0.2212  0.2564  0.1234
 1415W        W 5466   2.234   8.011  10.737 -0.0209  0.0052 -0.1338
 1416W        W 5467   9.174   4.436   3.528 -0.0318  0.0547  0.0270
 1417W        W 5468   2.409   3.135   5.287 -0.1925  0.0621  0.1484
 1418W        W 5469   2.864  10.375   1.094  0.1646 -0.3747 -0.0362
 1419W        W 5470   8.286   6.981   5.076 -0.2003 -0.3790 -0.1440
 1420W        W 5471   6.447   4.450  10.809  0.1750  0.0905 -0.1810
 1421W        W 5472  10.150   2.186   3.725  0.0895  0.1684 -0.2274
 1422W        W 5473   3.323   1.926   3.259 -0.1534  0.1883 -0.1143
 1423W        W 5474   9.885   5.858   1.769  0.0919  0.2709 -0.2773
 1424W        W 5475   3.569   0.181  11.266 -0.0731 -0.1543 -0.1265
 1425W        W 5476   6.648   0.204   2.449 -0.0939  0.1676 -0.1729
 1426W        W 5477   6.154   0.235   0.547  0.1251 -0.1203 -0.0682
 1427W        W 5478   9.450   9.135  10.214  0.0559  0.1480 -0.0346
 1428W        W 5479   5.224   5.643  12.732  0.0554  0.2694  0.2123
 1429W        W 5480   9.180   4.049   9.865  0.1474 -0.4837 -0.1126
 1430W        W 5481   0.526   1.245   0.335 -0.0927  0.1428  0.0357
 1431W        W 5482   1.810   2.445   3.366 -0.3422 -0.0439  0.0494
 1432W        W 5483   3.934   1.145   4.233  0.2632 -0.0907 -0.0893
 1433W        W 5484   2.187   0.372   9.869 -0.0351 -0.2388  0.0909
 1434W        W 5485   1.255   2.152   0.811  0.0959 -0.2225  0.2196
 1435W        W 5486   1.186   3.171   1.174  0.2398  0.2661 -0.1941
 1436W        W 5487   1.052   7.284   3.418 -0.2306  0.1262  0.0131
 1437W        W 5488   8.110   8.086  12.911 -0.0043 -0.2492  0.2860
 1438W        W 5489   0.892   5.403   1.662  0.4420  0.0728 -0.1170
 1439W        W 5490   7.914   7.550  11.753  0.1198  0.1982 -0.3031
 1440W        W 5491   1.444   1.567   9.660  0.0840  0.0793 -0.0785
 1441W        W 5492   9.946   2.618   0.797  0.2737 -0.1582  0.2033
 1442W        W 5493   3.266  10.129   2.466  0.0710  0.2020  0.1300
 1443W        W 5494   0.721   5.293  12.252 -0.0020 -0.0129  0.1334
 1444W        W 5495   4.874   6.841   3.433 -0.0620  0.1313 -0.3005
 1445W        W 5496   6.397   7.403  11.146  0.0749  0.0808  0.0508
 1446W        W 5497   7.995   6.682  10.784 -0.1045 -0.0940  0.0602
 1447W        W 5498   8.754   4.918   4.374 -0.0912  0.1422  0.0370
 1448W        W 5499   5.686   9.024   0.581 -0.0199  0.0265  0.3610
 1449W        W 5500   1.690   2.988   0.956 -0.0799  0.1127 -0.1329
 1450W        W 5501   2.254   6.900   9.685 -0.0222 -0.0924 -0.1604
 1451W        W 5502   7.734   6.224  10.189 -0.4036  0.0510  0.0788
 1452W        W 5503   5.318   1.663   2.525 -0.1351  0.1863  0.0221
 1453W        W 5504   1.539   4.156   2.835  0.1512  0.0777  0.2403
 1454W        W 5505   7.896   1.040   0.181 -0.1020 -0.2330 -0.1503
 1455W        W 5506   0.239   0.862   2.069  0.0904  0.0742 -0.2118
 1456W        W 5507   4.824   3.205  10.355 -0.1022  0.0024 -0.1668
 1457W        W 5508   0.731   9.679   2.744 -0.3330 -0.0659 -0.1508
 1458W        W 5509   4.047   0.675   3.940  0.0504 -0.2302 -0.0656
 1459W        W 5510   0.932   4.144   3.489 -0.4289  0.0165 -0.2376
 1460W        W 5511   5.367   7.245   1.209  0.1757 -0.1243 -0.0574
 1461W        W 5512   7.005   6.812  12.320  0.2951  0.1603 -0.3001
 1462W        W 5513   9.918   1.090  11.498 -0.1369 -0.2749  0.0499
 1463W        W 5514   8.899   0.309  11.676  0.4598 -0.0348 -0.3470
 1464W        W 5515   3.203   6.851   2.849  0.1306 -0.1225 -0.0027
 1465W        W 5516   1.117   6.844  10.660  0.3352 -0.3314 -0.1751
 1466W        W 5517   2.124   2.453   0.516 -0.1205  0.0898 -0.1610
 1467W        W 5518   4.366  10.307  13.222  0.1971 -0.1247  0.1485
 1468W        W 5519   4.215   2.156   1.075  0.0615 -0.1618  0.3297
 1469W        W 5520   3.664   2.555  11.401 -0.0559  0.0576  0.1778
 1470W        W 5521   6.516   3.481   1.783  0.0598 -0.0089 -0.1847
 1471W        W 5522   8.224   9.833   2.923  0.0018  0.1362  0.0090
 1472W        W 5523   2.037   3.267   2.322 -0.2521 -0.1398 -0.2546
 1473W        W 5524   0.926   8.974   1.217 -0.0936 -0.3638 -0.1119
 1474W        W 5525   1.557   2.114   4.066  0.2319 -0.3021 -0.1016
 1475W        W 5526   1.571   0.213  11.628 -0.0538  0.0096  0.0479
 1476W        W 5527   5.697   4.275   1.022  0.0255 -0.0497  0.3646
 1477W        W 5528   6.069   0.651   0.942  0.3830  0.1230 -0.0613
 1478W        W 5529   3.761   5.920   3.230  0.3865 -0.0960 -0.0827
 1479W        W 5530   3.659   8.194   0.890  0.1365  0.0573 -0.2974
 1480W        W 5531   4.568   9.927   1.367 -0.2273  0.3175  0.0749
 1481W        W 5532   7.377   8.609   2.613  0.3077 -0.0357  0.0951
 1482W        W 5533   3.089   3.315  12.457 -0.0498 -0.1329  0.2505
 1483W        W 5534   3.489   0.577   9.371 -0.1172 -0.0495 -0.2587
 1484W        W 5535   7.173   6.542   9.538 -0.1942 -0.0433  0.0054
 1485W        W 5536   9.635   0.281   8.782  0.2642 -0.0059 -0.1062
 1486W        W 5537   2.443   2.747   0.300  0.3533 -0.3260 -0.2243
 1487W        W 5538   7.285   0.591   9.463  0.2993 -0.1840  0.1222
 1488W        W 5539   9.187   7.511   1.771 -0.2610  0.1976  0.2964
 1489W        W 5540   1.162   6.580   1.424  0.0208  0.1064  0.0251
 1490W        W 5541   4.783   3.458   3.578  0.1291 -0.1435  0.1851
 1491W        W 5542   9.694   0.451   2.793 -0.0006  0.2294 -0.2681
 1492W        W 5543   8.989   3.526   2.194  0.1950 -0.0639 -0.0069
 1493W        W 5544   6.523   5.048  11.426  0.2765  0.0443  0.0258
 1494W        W 5545   1.700   2.559   3.822  0.4884 -0.2415  0.1846
 1495W        W 5546   9.289   1.868   0.287  0.1960  0.0785  0.1950
 1496W        W 5547   1.619   5.046   3.201  0.1797  0.2185 -0.1808
 1497W        W 5548   3.185   9.657   2.785 -0.0499 -0.0658  0.2611
 1498W        W 5549   4.967   7.844   2.780  0.1313 -0.2474  0.0952
 1499W        W 5550   0.500   0.460   2.328 -0.1344  0.1555 -0.0204
 1500W        W 5551   0.702   2.073   2.689 -0.1459  0.2668  0.0289
 1501W        W 5552   4.271   5.326  11.892 -0.1040 -0.1869  0.1293
 1502W        W 5553   5.127   4.454   4.906  0.1677  0.0994  0.2620
 1503W        W 5554   3.981   8.417   3.643 -0.2351  0.4327 -0.1370
 1504W        W 5555   6.089   9.417   2.700 -0.1107 -0.1338  0.2722
 1505W        W 5556   0.467   2.575   1.034 -0.1563  0.2379 -0.0931
 1506W        W 5557   2.478   4.496  10.497 -0.1176  0.1300 -0.1327
 1507W        W 5558   0.213   5.121   2.228 -0.0141  0.1510 -0.1420
 1508W        W 5559   4.954   2.246   0.332 -0.5190  0.0866 -0.0677
 1509W        W 5560   4.200   3.550   9.469 -0.2838 -0.2007 -0.2968
 1510W        W 5561   5.093   5.696  10.627  0.1848 -0.0240  0.0688
 1511W        W 5562   1.557   7.090   3.410 -0.2539 -0.1194  0.0842
 1512W        W 5563   3.683   4.293   3.736 -0.1448  0.1677 -0.0404
 1513W        W 5564   5.784   7.314  12.310  0.1346  0.2229  0.1620
 1514W        W 5565   2.063   5.562  11.534 -0.0923  0.1985 -0.4535
 1515W        W 5566   9.825   6.337   1.416 -0.0795  0.2236 -0.1750
 1516W        W 5567   6.970   0.511   4.541  0.3566 -0.0121 -0.1990
 1517W        W 5568   8.151  10.129  10.681 -0.1086 -0.1207  0.0049
 1518W        W 5569   1.641   9.492   2.837  0.1891  0.2235  0.0253
 1519W        W 5570   6.774   7.322  11.500 -0.2092  0.3045  0.0110
 1520W        W 5571   4.194   0.568  12.153  0.0578 -0.2411  0.1979
 1521W        W 5572   2.211   7.731   8.927 -0.0743 -0.0163  0.2545
 1522W        W 5573   6.165   1.077  12.887 -0.1770 -0.2137 -0.4088
 1523W        W 5574   8.906   2.053   2.982  0.3101  0.1123 -0.0182
 1524W        W 5575   4.631   3.344   0.338 -0.0761  0.0878  0.0380
 1525W        W 5576   1.322   6.092   1.470 -0.0001  0.1799 -0.1359
 1526W        W 5577   7.464   9.221   4.268 -0.2119 -0.0293  0.0168
 1527W        W 5578  10.400   4.650   2.252  0.0355 -0.1432 -0.2261
 1528W        W 5579   6.046   7.534  12.834 -0.0392  0.0339  0.0933
 1529W        W 5580   0.937   8.594   0.248 -0.1279 -0.0334 -0.1343
 1530W        W 5581   7.806   9.693   1.356  0.1804  0.0984  0.1812
 1531W        W 5582   7.438   5.950   0.884 -0.0583 -0.1627 -0.0296
 1532W        W 5583   6.004   1.383   9.304 -0.0964 -0.0310 -0.2858
 1533W        W 5584   8.237   3.162   4.517 -0.0910 -0.1456  0.1130
 1534W        W 5585   7.195   2.179   0.793  0.1927  0.3719 -0.4622
 1535W        W 5586  10.212   8.677   2.724 -0.0717 -0.1774  0.0117
 1536W        W 5587   4.726   0.364  11.858 -0.0461 -0.0502 -0.2210
 1537W        W 5588   2.831   8.726   2.878 -0.0058  0.0202  0.0506
 1538W        W 5589   5.518   9.824   2.944 -0.1269 -0.0200  0.0645
 1539W        W 5590   7.006   9.454   1.885 -0.0819  0.2109 -0.0696
 1540W        W 5591   8.176   1.543   2.662  0.3647 -0.1155 -0.0005
 1541W        W 5592   2.821   7.778   1.415  0.0418  0.0869  0.4925
 1542W        W 5593  10.143   1.350   0.676  0.2094  0.0646 -0.0070
 1543W        W 5594   3.268   1.213   4.557 -0.0646  0.1746 -0.2670
 1544W        W 5595   8.821  10.296   0.277 -0.2649  0.2320  0.5319
 1545W        W 5596   2.884   9.559   0.517 -0.1297  0.1446 -0.2738
 1546W        W 5597   8.302   1.130  12.445 -0.2354 -0.1466 -0.2734
 1547W        W 5598   8.947   0.428   2.446  0.3078 -0.1274 -0.0865
 1548W        W 5599   6.198   6.352  12.069  0.0475  0.2633 -0.0685
 1549W        W 5600   2.800   8.964   9.238  0.2647 -0.0137 -0.1848
 1550W        W 5601   1.508   1.017  12.284 -0.1227  0.1176  0.1419
 1551W        W 5602   8.353   0.241  11.724 -0.2136  0.1396  0.2779
 1552W        W 5603   7.167   9.472   2.446  0.1284  0.2095  0.1982
 1553W        W 5604   1.098   3.036  11.514  0.1587 -0.1043  0.0133
 1554W        W 5605   5.520  10.365   3.133 -0.1063  0.0286  0.0410
 1555W        W 5606   0.568   1.090   5.709  0.2282  0.1813  0.0021
 1556W        W 5607  10.089   1.471   2.257  0.0528  0.0218  0.2813
 1557W        W 5608   6.648   0.416  11.257 -0.0232 -0.1102  0.1334
 1558W        W 5609  10.057   1.969   2.019  0.0222 -0.3516 -0.0698
 1559W        W 5610   2.568   9.787  12.001  0.1562  0.0430 -0.0217
 1560W        W 5611   8.290   9.694   1.468 -0.0208 -0.1228  0.0813
 1561W        W 5612   3.202   1.945   1.497 -0.0737  0.1802  0.2087
 1562W        W 5613  10.120   7.142   3.336 -0.2139  0.1310 -0.1060
 1563W        W 5614   1.748   2.073  11.592  0.0770 -0.2311  0.0384
 1564W        W 5615   6.220   1.691   4.605 -0.0171  0.0032 -0.2864
 1565W        W 5616   1.808   2.317   2.428  0.2154 -0.2692 -0.1573
 1566W        W 5617   4.579   7.211   3.496  0.0084 -0.0839  0.3486
 1567W        W 5618   7.138   9.549  13.080  0.0786 -0.1697 -0.0150
 1568W        W 5619   4.740   3.872   1.971  0.1430  0.1084  0.0969
 1569W        W 5620   4.397   0.513  10.836 -0.0153 -0.0981 -0.0153
 1570W        W 5621   9.143   1.864  12.440 -0.0424  0.3194  0.0111
 1571W        W 5622   8.725   3.088   1.858  0.1152  0.0830 -0.0192
 1572W        W 5623   0.115   9.441   2.032 -0.0612  0.0228 -0.0137
 1573W        W 5624   7.293   1.663  10.891 -0.3929 -0.1238 -0.2856
 1574W        W 5625   1.234   1.895   1.841 -0.0371 -0.1291  0.0020
 1575W        W 5626   1.427   0.776   0.323  0.2686  0.2692  0.0922
 1576W        W 5627   7.634   4.517  11.449 -0.0285  0.0482 -0.0388
 1577W        W 5628   4.255   3.254  12.412  0.4005  0.2303 -0.1794
 1578W        W 5629   2.286   8.471  13.158 -0.1542  0.0314  0.2849
 1579W        W 5630   8.947   9.499   2.304 -0.0181 -0.1295  0.0942
 1580W        W 5631   0.202   1.805  12.563 -0.2639 -0.1848  0.2469
 1581W        W 5632   9.334   1.137   0.695  0.1357  0.1769 -0.4732
 1582W        W 5633   2.992   8.637  12.309  0.0885  0.0167  0.2936
 1583W        W 5634   2.730   8.034  10.528 -0.0356 -0.0059 -0.1940
 1584W        W 5635   0.140   4.781   0.111  0.1210  0.2647  0.1010
 1585W        W 5636   4.343   6.814  10.873 -0.2322  0.1235 -0.0242
 1586W        W 5637   7.068   6.672   8.648 -0.1016 -0.0030 -0.1121
 1587W        W 5638   0.641   0.534   3.538 -0.2995  0.1612 -0.0739
 1588W        W 5639   2.153   9.668   0.203  0.1235 -0.2520 -0.1823
 1589W        W 5640   4.588   5.628   0.877 -0.0665 -0.0570 -0.0882
 1590W        W 5641   5.988   7.444   2.745  0.0407  0.1582 -0.2339
 1591W        W 5642   9.087   2.405   0.348  0.1539 -0.0152 -0.3360
 1592W        W 5643   9.176   7.927  10.593 -0.2768 -0.0211 -0.1639
 1593W        W 5644   9.324  10.369   9.981  0.1004  0.1215  0.2337
 1594W        W 5645   6.479   9.332   9.537 -0.0572 -0.0712 -0.1973
 1595W        W 5646   2.168   3.015   1.284  0.1605 -0.0633  0.0928
 1596W        W 5647   0.716   0.743  12.946 -0.1492  0.2917  0.1834
 1597W        W 5648   0.415   5.487   1.870 -0.2302  0.0009 -0.1802
 1598W        W 5649   1.631   7.368   2.986 -0.2297 -0.1405  0.0014
 1599W        W 5650   1.165   0.834   0.896  0.1788  0.1959 -0.0879
 1600W        W 5651  10.065   2.290  11.813 -0.3911  0.2074 -0.0718
 1601W        W 5652   3.787   9.210   4.192  0.0665 -0.0760  0.1425
 1602W        W 5653   8.515   6.950   4.614 -0.3464 -0.0805  0.2816
 1603W        W 5654   6.704   3.757   4.205  0.0687  0.0369  0.2123
 1604W        W 5655   2.397   2.984  13.181 -0.0279 -0.0912 -0.0773
 1605W        W 5656   3.268   1.532   9.404  0.0277  0.0819 -0.1124
 1606W        W 5657   4.532   8.703   1.339 -0.1559 -0.2130 -0.1677
 1607W        W 5658   0.341   2.677   2.880  0.3378 -0.3157 -0.0206
 1608W        W 5659   6.237   4.452  12.891  0.1472  0.0884 -0.1543
 1609W        W 5660   3.725   5.443   2.985  0.0449 -0.0879  0.1701
 1610W        W 5661   3.490   5.551   4.315 -0.1497 -0.3804  0.0768
 1611W        W 5662   0.768   4.763  12.252 -0.1373 -0.0322  0.1058
 1612W        W 5663   8.706   9.417  11.394  0.1649 -0.2755  0.0114
 1613W        W 5664   8.797   5.738  10.147  0.0014 -0.4957 -0.0844
 1614W        W 5665   3.590   7.719   0.724 -0.0211  0.1062  0.1113
 1615W        W 5666   4.200   1.907   9.501 -0.1182  0.4300 -0.0413
 1616W        W 5667   5.185   1.915  12.709  0.0897 -0.1131 -0.2613
 1617W        W 5668   1.258   1.228   3.234 -0.1449  0.1038 -0.4639
 1618W        W 5669   2.016   1.641   4.042 -0.0541 -0.1128 -0.0106
 1619W        W 5670   6.823   6.330   4.259  0.0017  0.1473 -0.0387
 1620W        W 5671   9.730   4.616  12.260  0.0220  0.0883  0.0480
 1621W        W 5672   2.937   4.939  10.623  0.2193  0.1685  0.0392
 1622W        W 5673   2.634   9.373   2.015 -0.0256  0.0237 -0.1840
 1623W        W 5674   0.950   9.160  11.784 -0.0246  0.0764 -0.1282
 1624W        W 5675   0.715   6.487   2.714 -0.0299  0.3476  0.2034
 1625W        W 5676   3.513   1.210  11.970 -0.2077  0.0095  0.0559
 1626W        W 5677   6.323  10.220  10.686  0.0224 -0.0495 -0.1871
 1627W        W 5678   9.968   4.713   0.159 -0.0621 -0.0799  0.1050
 1628W        W 5679   5.977   5.133   1.144  0.0647  0.3051 -0.0099
 1629W        W 5680   6.544   8.074  11.860  0.2524  0.1935 -0.1125
 1630W        W 5681   1.986   5.963   9.056  0.0236  0.2579  0.0842
 1631W        W 5682   9.277   5.688   9.827  0.3374 -0.1015 -0.1811
 1632W        W 5683   4.304   7.054   3.959 -0.3187  0.0352  0.0104
 1633W        W 5684   2.104   1.524   5.253  0.0631  0.0825  0.1044
 1634W        W 5685   4.385  10.211   1.759 -0.1131  0.0985 -0.1904
 1635W        W 5686   1.403   9.320  12.672  0.1421 -0.4786 -0.0970
 1636W        W 5687   8.653   8.178   4.836  0.1325 -0.0914 -0.0713
 1637W        W 5688   0.342   5.514   2.525 -0.1277  0.1167  0.1166
 1638W        W 5689   8.582   0.937   1.919 -0.1751 -0.0393 -0.1845
 1639W        W 5690   3.998   1.662   3.355 -0.3271 -0.3120 -0.1541
 1640W        W 5691   0.600   7.163  12.099 -0.1341  0.1511  0.0151
 1641W        W 5692  10.293   6.279  12.977 -0.2262  0.0754 -0.1459
 1642W        W 5693   5.778   2.878  10.841 -0.0228  0.0327 -0.1547
 1643W        W 5694   2.305   9.420   3.962  0.1064 -0.0466  0.2475
 1644W        W 5695   7.704   3.724   2.389 -0.2917  0.1859  0.0137
 1645W        W 5696   9.115   9.123   9.152  0.0187 -0.3547 -0.3109
 1646W        W 5697  10.367   3.233  12.622  0.3591 -0.2339  0.0578
 1647W        W 5698   2.075   9.396   0.850 -0.2349 -0.2479  0.2737
 1648W        W 5699   7.913   8.432   0.900 -0.0858  0.0633 -0.0263
 1649W        W 5700   2.971   5.305   2.756 -0.0029  0.1687  0.1660
 1650W        W 5701   9.546   9.653   4.881  0.1675 -0.6930  0.0159
 1651W        W 5702   9.966   4.588   4.026 -0.2473 -0.3518  0.1648
 1652W        W 5703   2.052  10.258   1.144 -0.3667 -0.0179 -0.1976
 1653W        W 5704   6.807   0.373   5.500  0.0662  0.0419  0.2350
 1654W        W 5705   6.197   5.182   1.642 -0.0380 -0.2040 -0.0264
 1655W        W 5706   1.011   6.784   8.863  0.2493  0.2270 -0.1080
 1656W        W 5707   4.480   3.056   5.582 -0.1278  0.0629 -0.0321
 1657W        W 5708   2.808   7.092   9.106 -0.1933  0.1413 -0.0604
 1658W        W 5709   2.006   5.173  11.875  0.0551 -0.1885 -0.0068
 1659W        W 5710   2.431   7.952   1.084 -0.2266 -0.0314  0.2331
 1660W        W 5711   1.695   9.515   4.818  0.1101  0.1488 -0.0917
 1661W        W 5712   3.286   5.585   1.485 -0.2544  0.1392 -0.0722
 1662W        W 5713   9.278   4.312   2.989  0.0851 -0.1345 -0.1132
 1663W        W 5714   5.522   0.826  11.383  0.1110  0.3564  0.0180
 1664W        W 5715   0.927   2.878  10.385 -0.0044  0.3498 -0.1618
 1665W        W 5716   2.253   4.008  11.891 -0.2016  0.1622 -0.2998
 1666W        W 5717   8.144   4.540  11.483  0.1337 -0.1904 -0.5947
 1667W        W 5718   7.023   4.058   1.237  0.1867  0.1180 -0.1190
 1668W        W 5719   7.305   6.403  12.896  0.0928 -0.0684 -0.3496
 1669W        W 5720   4.621   2.127   8.752  0.0408 -0.0178 -0.1074
 1670W        W 5721   7.534   9.871  12.410  0.1308 -0.1141  0.2628
 1671W        W 5722   1.987   9.629  11.217 -0.1056 -0.1915  0.1429
 1672W        W 5723   9.272   5.176   1.924  0.0982  0.1502 -0.2033
 1673W        W 5724   2.531   4.311   9.075 -0.0575  0.2090  0.2214
 1674W        W 5725   0.896   9.200   8.922  0.0293 -0.0728  0.0561
 1675W        W 5726   9.755   7.594   0.280  0.3631 -0.2700  0.0170
 1676W        W 5727   5.501   7.796  10.298  0.0202 -0.1131 -0.0221
 1677W        W 5728   1.161   7.446  10.801  0.0992 -0.1752 -0.0003
 1678W        W 5729   4.594   0.193   0.665 -0.0780  0.1150  0.0050
 1679W        W 5730   2.337   7.996   3.691 -0.1077  0.1933 -0.1404
 1680W        W 5731   0.701   4.096   2.070 -0.2521  0.0085  0.4042
 1681W        W 5732   6.922   5.032  13.344 -0.3792 -0.1991  0.1797
 1682W        W 5733   9.303   6.611   1.548  0.0579  0.2536 -0.2785
 1683W        W 5734  10.359   3.092   4.019  0.0228 -0.0866  0.1650
 1684W        W 5735   4.598   2.831  10.152  0.0910  0.1561  0.0969
 1685W        W 5736   5.438   0.368  12.545  0.0389  0.5260  0.1059
 1686W        W 5737   3.727   0.964   0.128 -0.3320  0.3288 -0.1345
 1687W        W 5738   0.659   2.116  10.426 -0.0177  0.2408  0.5900
 1688W        W 5739  10.144   0.925   2.729  0.0421 -0.0721 -0.0581
 1689W        W 5740   9.387   2.866   4.523 -0.0565 -0.1281 -0.0421
 1690W        W 5741   5.049   2.867  11.809  0.2349  0.0126 -0.0356
 1691W        W 5742   8.876   5.859   1.370 -0.4143  0.0851 -0.2063
 1692W        W 5743   9.888   9.802   0.424  0.5056 -0.0887 -0.1788
 1693W        W 5744   9.900   2.842   9.407  0.0046  0.1157 -0.1293
 1694W        W 5745   5.995   1.442  11.277 -0.1413 -0.0873  0.2016
 1695W        W 5746   5.136   1.344   0.597 -0.1981  0.4379  0.2890
 1696W        W 5747   1.178   2.234   0.327 -0.0287 -0.0464 -0.1152
 1697W        W 5748   6.836   6.836   4.038 -0.0980  0.1258 -0.0142
 1698W        W 5749   2.673   0.656   4.753  0.0719  0.2110  0.2030
 1699W        W 5750   6.056   4.119   1.354  0.1708  0.1104 -0.4452
 1700W        W 5751   2.801   5.970  13.149 -0.0697 -0.0748  0.0091
 1701W        W 5752   0.178   9.864   3.779  0.0615  0.1725 -0.2784
 1702W        W 5753   9.721   2.347  12.853  0.0058  0.2397  0.0444
 1703W        W 5754   1.860   1.572   0.217  0.0994 -0.0525 -0.0850
 1704W        W 5755   4.059   7.077  11.248  0.3115  0.1090  0.1252
 1705W        W 5756   3.926   6.970   1.058  0.0496 -0.2790  0.2723
 1706W        W 5757   6.284   3.632   2.185 -0.2272 -0.0159 -0.0083
 1707W        W 5758   0.427   9.069  11.777  0.1464 -0.0073  0.0500
 1708W        W 5759   7.061   3.703   4.688  0.0706  0.0588  0.1857
 1709W        W 5760   5.292   8.238   4.571  0.2020  0.2248  0.2910
 1710W        W 5761   7.140   6.369   2.639 -0.0898 -0.1097 -0.0883
 1711W        W 5762   7.894   8.698   0.482  0.1644  0.0518 -0.2719
 1712W        W 5763   6.339  10.336   1.511 -0.1999  0.0048 -0.3523
 1713W        W 5764   6.882   2.867  11.549 -0.0012  0.3688 -0.0617
 1714W        W 5765   4.930   7.529   0.924  0.0431  0.0232 -0.0122
 1715W        W 5766   6.428   7.260   1.829 -0.4045  0.2192 -0.1234
 1716W        W 5767   8.203   5.562   9.469  0.1638 -0.4130  0.0331
 1717W        W 5768   8.482   6.328   0.612  0.2263  0.0267 -0.0107
 1718W        W 5769   8.793   4.816  12.043  0.2727 -0.0748 -0.2975
 1719W        W 5770   4.821   2.757   0.513  0.3153 -0.0987  0.0350
 1720W        W 5771   9.136   2.900   3.409 -0.2525 -0.0800 -0.0873
 1721W        W 5772   5.542   3.903   3.819 -0.2853 -0.3230  0.1432
 1722W        W 5773   0.379   6.872  13.007 -0.1195 -0.1860  0.1182
 1723W        W 5774   7.723   8.599   2.216  0.0530  0.1366  0.0524
 1724W        W 5775   6.119   9.508   1.825 -0.0447  0.1303 -0.0427
 1725W        W 5776   6.732   7.670  12.170 -0.2411 -0.1548 -0.0223
 1726W        W 5777   8.331   2.759   9.091 -0.4017 -0.2004  0.0378
 1727W        W 5778   5.978   9.088   3.648 -0.3426  0.1361  0.2660
 1728W        W 5779   4.778   1.811   0.367 -0.2283  0.0599 -0.0009
 1729W        W 5780   7.536   2.523   0.813 -0.1995  0.0236 -0.2984
 1730W        W 5781   8.876   4.663  11.495 -0.0425  0.1532  0.2824
 1731W        W 5782   7.065   1.584   2.265 -0.0499 -0.0505  0.0783
 1732W        W 5783   6.090   0.787   3.522 -0.3479  0.2617  0.4686
 1733W        W 5784   7.368   5.987   0.367  0.1642  0.1790 -0.2101
 1734W        W 5785   3.074   0.209  10.699 -0.1799 -0.0897  0.1346
 1735W        W 5786   3.531   2.360  11.911 -0.2679  0.1562  0.2988
 1736W        W 5787   3.167  10.073  12.705 -0.0837 -0.3496  0.3358
 1737W        W 5788   1.592   6.459  10.351 -0.0813  0.1635 -0.4303
 1738W        W 5789   5.524   0.165   4.327 -0.2023 -0.2405  0.0951
 1739W        W 5790   9.969   7.336  11.341 -0.0595 -0.2216  0.3446
 1740W        W 5791   7.526   1.195   3.145 -0.2281 -0.0594 -0.1594
 1741W        W 5792   7.291   2.631  11.844  0.4900  0.1089  0.1973
 1742W        W 5793   9.770   5.000   0.636  0.2171  0.0848  0.0143
 1743W        W 5794   5.159   1.900   8.945  0.0073 -0.3352  0.0486
 1744W        W 5795   8.032   6.528  11.633 -0.1594  0.0343 -0.1581
 1745W        W 5796   9.041   9.559   0.923  0.1213  0.0411  0.2098
 1746W        W 5797   7.853   2.854   1.485  0.0331  0.0485  0.1590
 1747W        W 5798   6.810   6.313  12.201 -0.1709  0.0574  0.1403
 1748W        W 5799   9.707   5.059  11.584  0.1869  0.1741 -0.1545
 1749W        W 5800   3.872   4.993   3.153 -0.0490  0.1808 -0.0522
 1750W        W 5801   9.869   7.982   2.267 -0.1024 -0.0552 -0.1459
 1751W        W 5802   7.571   3.166   2.431 -0.2928  0.3720 -0.1855
 1752W        W 5803   7.244   6.968   3.744  0.0270 -0.0597 -0.3882
 1753W        W 5804   7.655   0.232   2.981 -0.1954  0.1812 -0.0758
 1754W        W 5805   2.891   1.601   1.318  0.2395 -0.1019  0.0521
 1755W        W 5806   9.611   3.498   1.247  0.0452 -0.0735 -0.2135
 1756W        W 5807   2.677   6.561  11.666  0.1452  0.1217  0.2329
 1757W        W 5808   8.113   8.956   4.971 -0.1677 -0.0984  0.0118
 1758W        W 5809   3.812   1.656   5.772 -0.1230  0.0154 -0.5110
 1759W        W 5810   8.976   4.011  13.187 -0.0979 -0.1842 -0.2708
 1760W        W 5811   0.037   3.828  12.157 -0.3040  0.0405  0.2387
 1761W        W 5812   0.557   0.659   2.987  0.3028 -0.0003  0.0374
 1762W        W 5813   6.644   5.261   5.382  0.1310 -0.0744  0.1462
 1763W        W 5814   2.419   3.668   2.295  0.1656  0.1036  0.0914
 1764W        W 5815   6.100   2.933  11.600  0.1204 -0.3630 -0.0474
 1765W        W 5816   3.873   7.317   4.061  0.1560 -0.0373 -0.0016
 1766W        W 5817   4.540   3.674   1.555 -0.2184 -0.2655  0.0663
 1767W        W 5818   5.047   7.425  12.876  0.5370  0.0442  0.4436
 1768W        W 5819   0.736   9.181   1.808 -0.2266  0.1011 -0.0792
 1769W        W 5820   8.470   9.562   1.982  0.2505  0.1244 -0.2470
 1770W        W 5821   2.853  10.141  10.235  0.0046  0.4836 -0.0592
 1771W        W 5822   4.297   0.044   1.031  0.0439 -0.2916  0.1387
 1772W        W 5823   7.402   8.340   1.123 -0.0528  0.0187  0.2245
 1773W        W 5824   6.056   6.385   3.419 -0.2093 -0.2607  0.1570
 1774W        W 5825   9.924   3.341   4.154  0.1683  0.0045 -0.1651
 1775W        W 5826   3.381   1.663   0.114  0.0758 -0.0367 -0.0461
 1776W        W 5827   3.731   4.991  12.767  0.1433  0.0114 -0.1513
 1777W        W 5828   6.253   8.269   2.205  0.1485 -0.0035  0.3123
 1778W        W 5829   5.338   3.082   9.568 -0.1443 -0.1288  0.1474
 1779W        W 5830   2.913   7.515   9.641  0.3387  0.1291  0.1087
 1780W        W 5831   8.339   2.550  13.063 -0.1457  0.0057 -0.0959
 1781W        W 5832   1.580   7.913  12.186 -0.1523 -0.0689  0.2221
 1782W        W 5833   4.249   3.625  10.319 -0.1964  0.2798 -0.2526
 1783W        W 5834   9.193   8.288  13.038  0.3341  0.1393  0.2296
 1784W        W 5835   9.624   0.304   9.824 -0.0961  0.0036 -0.2226
 1785W        W 5836   2.242   9.285   9.279 -0.2041  0.0413 -0.0071
 1786W        W 5837  10.000   9.915   9.479  0.2949 -0.2482  0.0040
 1787W        W 5838   9.155   6.658   4.284  0.0632  0.0348  0.0370
 1788W        W 5839   3.202   3.900  12.658 -0.1854 -0.0117 -0.0158
 1789W        W 5840   2.920   3.578   2.245  0.0259 -0.2532  0.0516
 1790W        W 5841   1.736   1.657  12.419 -0.1229  0.1723 -0.0452
 1791W        W 5842   1.313   2.351   4.480  0.0527  0.0374 -0.0671
 1792W        W 5843   1.459   5.022   4.515  0.0119 -0.0582  0.0015
 1793W        W 5844   6.333   9.022   2.415 -0.1546  0.2700 -0.1583
 1794W        W 5845   4.692   9.240   9.447 -0.0179  0.2155  0.1752
 1795W        W 5846   9.505   6.373   9.075 -0.1294 -0.3462  0.0430
 1796W        W 5847   2.497   5.158   9.697  0.0928  0.3547 -0.0456
 1797W        W 5848   5.121   1.008   2.017 -0.0398  0.1569  0.2748
 1798W        W 5849   9.928   5.334  13.131  0.1634 -0.1528  0.2333
 1799W        W 5850   4.371   2.352   4.085 -0.0101  0.0076  0.1705
 1800W        W 5851   0.276   4.919  13.004  0.2324 -0.1575 -0.0370
 1801W        W 5852   0.608   0.074   3.665 -0.0945  0.1751  0.1334
 1802W        W 5853   8.320   2.039   4.715  0.0187  0.1931 -0.1345
 1803W        W 5854   5.475   4.339   3.514  0.1906 -0.1466 -0.2197
 1804W        W 5855   5.155   6.207  13.051  0.0143 -0.0730  0.2337
 1805W        W 5856   8.491   5.967   9.699 -0.2602  0.0183 -0.3057
 1806W        W 5857   5.288   9.646   9.721  0.0508  0.1006  0.0866
 1807W        W 5858   9.938   9.113   0.963 -0.2111  0.0105  0.3674
 1808W        W 5859   1.343   7.621  11.272  0.1763 -0.1546  0.1853
 1809W        W 5860   3.463   2.010   2.168 -0.3845 -0.2036 -0.1916
 1810W        W 5861   3.887   1.621   3.918  0.3013 -0.0706  0.0530
 1811W        W 5862   9.798   0.714   1.876  0.2602 -0.0867  0.1429
 1812W        W 5863   9.615   3.061  11.509 -0.1147  0.2169  0.2035
 1813W        W 5864   7.929   5.084   2.272 -0.3033 -0.1285 -0.0626
 1814W        W 5865   8.618   6.404  12.013 -0.2793 -0.1158  0.2569
 1815W        W 5866   8.278   7.516   8.826  0.0612  0.0667 -0.2760
 1816W        W 5867   2.426   1.494   2.958 -0.0427  0.2394  0.0946
 1817W        W 5868   0.712   4.838  11.036  0.0277  0.0129  0.0199
 1818W        W 5869  10.319   4.324   0.191 -0.2783 -0.0661 -0.0453
 1819W        W 5870   7.925   8.335   3.133  0.0646  0.1259 -0.2510
 1820W        W 5871   7.273   9.216   0.884  0.1575  0.2192 -0.2925
 1821W        W 5872   9.830   5.966   0.943 -0.2419  0.0337  0.1079
 1822W        W 5873   8.504   2.531  10.663 -0.1534 -0.0888 -0.3052
 1823W        W 5874   5.072  10.275   8.810  0.1411 -0.0752  0.2078
 1824W        W 5875   1.666  10.418   3.483  0.2250 -0.0267 -0.2683
 1825W        W 5876   9.039   0.741  10.445 -0.0839 -0.0120  0.0263
 1826W        W 5877   0.622   9.709  11.120 -0.1746  0.2027  0.1980
 1827W        W 5878   7.913   6.744  10.308  0.1208  0.0197 -0.2366
 1828W        W 5879   3.253   4.858   1.791 -0.0814  0.3322 -0.0895
 1829W        W 5880   6.728   6.401  11.447 -0.2062  0.1337  0.0638
 1830W        W 5881   6.157   0.362   9.130 -0.0522  0.0102 -0.0070
 1831W        W 5882   4.480   5.356  13.204 -0.0817 -0.1926 -0.0323
 1832W        W 5883   1.924   0.295   1.140 -0.1662 -0.1483 -0.1327
 1833W        W 5884   8.698   4.521   1.899 -0.4570  0.2127 -0.1631
 1834W        W 5885   5.295   8.880   3.340  0.0259 -0.3395 -0.2364
 1835W        W 5886   8.961   6.496   3.134  0.0097  0.0578  0.1655
 1836W        W 5887   9.452   3.342   3.231 -0.1338  0.0024  0.0863
 1837W        W 5888   7.676   6.707  12.533 -0.2229 -0.1078  0.0064
 1838W        W 5889   1.143   3.927   3.108 -0.0008  0.0026 -0.0025
 1839W        W 5890   2.728   2.774  11.762  0.2280 -0.2134  0.1777
 1840W        W 5891   8.119   6.988   3.697  0.1245  0.0895  0.0930
 1841W        W 5892   8.568   5.349   9.152 -0.0179  0.1868  0.0774
 1842W        W 5893   8.533   1.106   3.269 -0.2839 -0.2915 -0.3311
 1843W        W 5894   6.319   2.230  10.988  0.2131 -0.0606 -0.1143
 1844W        W 5895   0.291   5.408  11.516 -0.1383 -0.3107  0.1638
 1845W        W 5896   2.091   6.415  12.750  0.1430  0.2477 -0.1412
 1846W        W 5897   5.855   6.481   4.713 -0.2165 -0.0971  0.1754
 1847W        W 5898   0.070   9.200   2.913 -0.0077 -0.0873  0.0069
 1848W        W 5899   2.575   2.067   1.524  0.2028 -0.1695 -0.1950
 1849W        W 5900   6.019   6.838   1.859 -0.0051  0.2843  0.1150
 1850W        W 5901   5.148  10.394   0.612  0.0967 -0.0713  0.0047
 1851W        W 5902   9.576   2.371   4.385  0.1478  0.1108 -0.0965
 1852W        W 5903   2.111   5.957   9.568 -0.1423 -0.1314  0.0140
 1853W        W 5904   6.532   1.023   3.497  0.1386 -0.2440 -0.0900
 1854W        W 5905   6.322   4.903  12.584 -0.2056 -0.0849 -0.1642
 1855W        W 5906   3.740   0.754   0.780 -0.0174  0.1632 -0.0397
 1856W        W 5907   9.660   2.659  10.505  0.2372 -0.1751  0.0831
 1857W        W 5908   0.279   3.077   0.987 -0.3349  0.0505 -0.0237
 1858W        W 5909   5.976   2.558   9.445  0.1096 -0.3682 -0.1976
 1859W        W 5910   2.933   6.490   3.025  0.2561 -0.0950  0.0074
 1860W        W 5911   2.916   1.098   8.752 -0.1014  0.2194 -0.1289
 1861W        W 5912   6.983   1.139  13.318 -0.0905 -0.1431  0.0862
 1862W        W 5913   7.069   2.146   3.937 -0.1256 -0.3283 -0.1936
 1863W        W 5914   2.903   4.502   2.014 -0.0072 -0.0467  0.0208
 1864W        W 5915   5.742   3.882  13.353  0.1295 -0.2490 -0.0570
 1865W        W 5916   0.458   9.653   9.472  0.1955  0.2363 -0.1643
 1866W        W 5917   3.745   6.266   0.076 -0.0842  0.0615  0.0297
 1867W        W 5918   3.860   9.851   3.629  0.2925  0.0916 -0.0811
 1868W        W 5919   5.996   3.461  13.304 -0.3716  0.2079 -0.0516
 1869W        W 5920   6.225   2.826   0.449  0.0305  0.2738  0.0081
 1870W        W 5921   0.632   8.423   8.935  0.0966 -0.1669  0.0631
 1871W        W 5922   3.694   8.765  11.073 -0.1330 -0.1317 -0.0480
 1872W        W 5923   0.736   0.877   2.594  0.2729 -0.2834  0.1565
 1873W        W 5924   0.279   6.480   9.094 -0.0393 -0.0119  0.0110
 1874W        W 5925   5.769   9.860   0.269 -0.1727 -0.1359  0.1147
 1875W        W 5926   4.641   7.759  13.016  0.3573  0.1565 -0.0001
 1876W        W 5927   0.664   7.711   2.301  0.0799  0.2550 -0.2551
 1877W        W 5928   1.259   6.695  13.324  0.2107  0.2415  0.0740
 1878W        W 5929   6.419   6.235  12.693 -0.1034  0.0934  0.1407
 1879W        W 5930   1.863   7.074   2.071  0.0918  0.2938  0.0297
 1880W        W 5931   7.503   8.527   1.654  0.1579 -0.0105  0.3575
 1881W        W 5932  10.401   7.243   2.991 -0.1273 -0.3782 -0.1130
 1882W        W 5933   7.721   3.920  10.607 -0.0691 -0.0615  0.0841
 1883W        W 5934   0.073   5.602   0.440  0.1772 -0.0147 -0.1101
 1884W        W 5935   4.449   0.107  12.226  0.2642 -0.0122  0.1310
 1885W        W 5936   0.676   7.771   2.928  0.0492  0.0579 -0.1816
 1886W        W 5937   4.661   3.293   9.223  0.1552 -0.1090  0.0306
 1887W        W 5938  10.343   5.987   0.679 -0.1337  0.0237 -0.2457
 1888W        W 5939   6.743   7.194  12.481  0.2992  0.1152  0.0535
 1889W        W 5940   8.727   6.115   2.205  0.2930  0.0101  0.0505
 1890W        W 5941   6.228   8.167  10.029 -0.0837 -0.2402 -0.0907
 1891W        W 5942   6.906   0.675   0.174  0.1003  0.3627  0.1998
 1892W        W 5943   4.662   8.538   0.108  0.0059  0.0136 -0.4428
 1893W        W 5944   1.983   5.578   1.608 -0.0116 -0.2051 -0.0052
 1894W        W 5945   3.845   7.585   0.310  0.0806 -0.2495  0.0915
 1895W        W 5946   5.597   3.170   5.885  0.0505  0.4516 -0.4378
 1896W        W 5947   6.571   0.810   4.596  0.2870 -0.1057 -0.0285
 1897W        W 5948   4.384   4.094   3.059 -0.1491  0.2403 -0.0865
 1898W        W 5949   8.758   9.028   0.180 -0.2035  0.2473 -0.0351
 1899W        W 5950   1.528   9.461   4.218 -0.1076  0.0487 -0.2574
 1900W        W 5951   7.505   6.066   3.567  0.0030  0.0096 -0.2370
 1901W        W 5952   3.101   8.524   2.460  0.2283  0.1716 -0.1157
 1902W        W 5953   2.785   8.465   4.541  0.0151  0.1776 -0.0222
 1903W        W 5954   7.845   4.079   1.374  0.0164  0.0791  0.1149
 1904W        W 5955   3.155   4.751   4.958  0.2151 -0.1214 -0.1153
 1905W        W 5956   4.306   7.523   4.252 -0.0857 -0.0506 -0.1125
 1906W        W 5957   2.661   8.236   0.283 -0.0866 -0.3381 -0.1406
 1907W        W 5958   3.986   5.388  13.087 -0.2414  0.0709 -0.1456
 1908W        W 5959   8.234   5.125  10.277  0.0461 -0.0513  0.0445
 1909W        W 5960   2.451  10.356  11.367  0.2321 -0.0477  0.3172
 1910W        W 5961   1.928   5.722   3.488  0.1564 -0.0057 -0.0631
 1911W        W 5962   3.802   9.447   3.324 -0.2016 -0.0329 -0.1944
 1912W        W 5963   1.945   9.738  10.039 -0.1842  0.0488  0.0439
 1913W        W 5964   6.621   0.726  10.072 -0.2820  0.0386  0.1111
 1914W        W 5965   6.681   8.260   4.563 -0.0326 -0.1325  0.0627
 1915W        W 5966   9.988  10.142  13.048  0.0624  0.2351  0.1463
 1916W        W 5967   9.329   0.586   9.475  0.0078 -0.1462 -0.0462
 1917W        W 5968   6.803   4.934  12.542 -0.1457 -0.0540 -0.0804
 1918W        W 5969   8.191   8.679  11.144  0.1732  0.2122 -0.1844
 1919W        W 5970   3.459   8.302   4.952 -0.0418  0.2233  0.3262
 1920W        W 5971   3.331   1.166   0.459  0.1141  0.1211  0.0619
 1921W        W 5972   0.944   7.464  12.960 -0.2523 -0.1211  0.0154
 1922W        W 5973   8.476   3.048   4.108 -0.0192  0.0665  0.0308
 1923W        W 5974   3.415   2.189  12.704 -0.1742  0.3957 -0.1034
 1924W        W 5975   7.616   1.364   4.363  0.1012 -0.0615 -0.3529
 1925W        W 5976   0.751   9.510   3.616  0.0975 -0.0327 -0.0573
 1926W        W 5977   0.996   4.367   0.004 -0.4020  0.2728  0.3665
 1927W        W 5978   0.567   8.627   1.830  0.0248  0.1640 -0.1644
 1928W        W 5979   4.909   0.890   0.722 -0.1245  0.2183  0.0350
 1929W        W 5980   5.933   4.431   5.755 -0.2278  0.2944  0.0687
 1930W        W 5981   7.583   7.624  10.876 -0.1446 -0.0034  0.1450
 1931W        W 5982   4.271   5.327   0.355  0.1646  0.0980  0.0622
 1932W        W 5983   0.795   2.514  10.756 -0.0136 -0.1880  0.1789
 1933W        W 5984   6.005   6.013   4.667  0.1032  0.2501 -0.1421
 1934W        W 5985  10.166   9.021   3.433 -0.2903 -0.0433  0.5487
 1935W        W 5986   1.183   0.658  10.030  0.1221 -0.3012 -0.0628
 1936W        W 5987   1.927   0.233  12.096  0.1052 -0.1257 -0.2142
 1937W        W 5988   8.316   6.537   2.521  0.1128  0.0530  0.0356
 1938W        W 5989   9.718   9.561   2.593 -0.2186  0.0675 -0.0612
 1939W        W 5990   4.738   7.305   9.081  0.0883  0.2495  0.1777
 1940W        W 5991   5.511   9.334   2.786 -0.2359  0.0301 -0.0414
 1941W        W 5992   1.277   3.905  11.179  0.0674  0.1955 -0.2873
 1942W        W 5993   4.797   4.679   0.619 -0.1631 -0.0425  0.0039
 1943W        W 5994   6.179   6.371   9.264  0.0926  0.1526  0.1524
 1944W        W 5995  10.383   1.239   4.695  0.1138 -0.1988 -0.0964
 1945W        W 5996   9.945   3.557  12.893  0.0053  0.4073 -0.1143
 1946W        W 5997   3.883   3.957   0.893  0.2275 -0.4956  0.0950
 1947W        W 5998   1.527   0.673   1.262  0.0310 -0.0691  0.1797
 1948W        W 5999   7.219  10.039   9.649  0.0398  0.1441 -0.0150
 1949W        W 6000   4.641   8.272   5.224  0.1608  0.0054  0.0333
 1950W        W 6001   7.517  10.365   2.640  0.0316  0.1619  0.0771
 1951W        W 6002   7.050   0.344   1.362  0.1450  0.0183 -0.0358
 1952W        W 6003   7.377   8.065   9.647 -0.2200  0.0144  0.1219
 1953W        W 6004   6.638   9.157   0.969 -0.1831  0.3336 -0.1076
 1954W        W 6005  10.072   8.079   3.657  0.1487 -0.1923  0.2442
 1955W        W 6006   0.534   4.281   9.840  0.0617 -0.2067 -0.2304
 1956W        W 6007   3.560   8.168  10.027  0.0900 -0.0033  0.2517
 1957W        W 6008   6.510   3.183   2.735 -0.1942 -0.0367 -0.2722
 1958W        W 6009   1.897   6.024  11.171  0.0805  0.0172  0.3106
 1959W        W 6010   6.505   9.090   0.188 -0.3357 -0.2135 -0.0925
 1960W        W 6011   5.005   5.804   4.569  0.1220 -0.0777  0.0576
 1961W        W 6012   8.343   4.782   1.046 -0.3022 -0.1423 -0.1084
 1962W        W 6013   2.990   3.102  12.919 -0.0372 -0.0420  0.0530
 1963W        W 6014   1.168   0.980   1.398 -0.1175  0.0440  0.4226
 1964W        W 6015   5.260   1.591  10.772  0.1301 -0.2498 -0.2350
 1965W        W 6016   6.248   6.823  11.444 -0.1494  0.2824  0.3147
 1966W        W 6017   7.286   8.781  13.033 -0.0851 -0.0485 -0.0014
 1967W        W 6018   9.823   1.986   2.792 -0.2377  0.0232  0.3293
 1968W        W 6019   3.012   9.614   3.884 -0.1174 -0.1566  0.0151
 1969W        W 6020   0.442   9.613   1.725 -0.4958 -0.4596 -0.1110
 1970W        W 6021   1.155   4.016  12.915 -0.2522 -0.0984  0.3575
 1971W        W 6022   4.669   2.847   2.259 -0.2749 -0.1766 -0.1866
 1972W        W 6023   8.149   3.814   2.278  0.0284 -0.0019  0.1163
 1973W        W 6024   6.697   6.316   2.304  0.3496 -0.0523 -0.2134
 1974W        W 6025   1.229   6.819  10.041  0.4630 -0.3050 -0.1341
 1975W        W 6026   5.728   2.539  12.028  0.2339 -0.0904 -0.1191
 1976W        W 6027   2.943   2.209  12.909  0.3197 -0.1994 -0.1587
 1977W        W 6028   2.019   2.035  11.981 -0.0409 -0.0405  0.2550
 1978W        W 6029   3.677   3.936   2.593  0.1632  0.0213 -0.1112
 1979W        W 6030   0.610   9.111  10.012 -0.0169 -0.1624  0.2849
 1980W        W 6031   7.693   7.849  11.324 -0.2691 -0.1640 -0.0960
 1981W        W 6032   7.427   9.104  10.615  0.1459  0.2597  0.3359
 1982W        W 6033   1.968   5.668  13.098 -0.0183 -0.3682  0.2432
 1983W        W 6034   2.266   0.660   1.300 -0.0772  0.2131  0.1998
 1984W        W 6035   3.443   3.109   9.976 -0.3313 -0.1478  0.0255
 1985W        W 6036   7.440  10.210  11.642  0.1348  0.1487 -0.2238
 1986W        W 6037   9.525   9.160   2.928  0.0035  0.0976 -0.3106
 1987W        W 6038   9.143   3.705   4.210  0.0396 -0.0317 -0.0046
 1988W        W 6039   3.760   9.030   0.470 -0.0179  0.0394  0.0428
 1989W        W 6040   3.288   6.251   0.378 -0.1794  0.2569  0.3684
 1990W        W 6041   3.375   7.813   1.782 -0.0653  0.0569 -0.1330
 1991W        W 6042   7.507   8.301   9.189 -0.1883 -0.0279 -0.1392
 1992W        W 6043   7.131   5.999  12.725  0.2013 -0.0322 -0.1675
 1993W        W 6044   5.003   8.254  13.169 -0.1397  0.2826  0.1832
 1994W        W 6045   8.308   9.415  10.227  0.0412 -0.0435  0.1275
 1995W        W 6046   3.356   3.999  13.104  0.1219  0.0972  0.0007
 1996W        W 6047   5.193   2.029   3.650 -0.0106  0.1130 -0.3319
 1997W        W 6048   1.298   9.881   4.245 -0.0999  0.0909  0.0276
 1998W        W 6049   6.213   3.720   4.027  0.0151 -0.0443  0.3720
 1999W        W 6050   3.840   4.825   4.196  0.0132  0.0822 -0.0121
 2000W        W 6051   6.034   8.735   0.306 -0.0732  0.0944 -0.0560
 2001W        W 6052   6.842   9.967   1.388  0.0411  0.0117  0.1819
 2002W        W 6053   8.558   7.838   0.681 -0.0826 -0.3092 -0.0483
 2003W        W 6054   9.681   0.812  11.066 -0.1870  0.1001 -0.1196
 2004W        W 6055   2.580   2.343   0.487 -0.0663 -0.0699 -0.3081
 2005W        W 6056   3.163   4.483  11.650 -0.1308  0.3602  0.0941
 2006W        W 6057   6.826   5.009  10.081  0.2411  0.1546 -0.0882
 2007W        W 6058   9.446   2.873   3.794  0.1711  0.2517 -0.0493
 2008W        W 6059   7.656   6.128  13.315  0.0036 -0.0421 -0.0490
 2009W        W 6060   4.994   9.602   5.211 -0.0250 -0.1249 -0.0536
 2010W        W 6061   6.937   1.133  11.817 -0.1710  0.2315  0.2554
 2011W        W 6062   4.147   8.243   9.914  0.0731  0.1752 -0.1540
 2012W        W 6063   1.121  10.369  12.579  0.0268  0.1219  0.0053
 2013W        W 6064   4.553   9.415  10.774 -0.0511  0.0127 -0.0656
 2014W        W 6065   8.587   1.748  11.771  0.2904 -0.2863 -0.0591
 2015W        W 6066   6.694   7.841   5.181 -0.1430  0.1304  0.2875
 2016W        W 6067   9.405   6.217   4.065 -0.0319  0.1377 -0.0722
 2017W        W 6068   7.618   3.067   0.688 -0.2456 -0.0164  0.1520
 2018W        W 6069   4.553   1.897  12.423  0.2566 -0.0984 -0.1891
 2019W        W 6070   6.936   5.392  12.250  0.0600 -0.0707 -0.1644
 2020W        W 6071   8.944   4.871   2.171 -0.5418  0.2369  0.1128
 2021W        W 6072   7.873   3.672   0.159 -0.0281 -0.0801 -0.1931
 2022W        W 6073   8.841   8.271  12.630 -0.0874  0.0947 -0.1963
 2023W        W 6074   0.512   2.726   3.454  0.2269 -0.1856  0.2446
 2024W        W 6075   8.389   1.299   0.807 -0.1998  0.0508  0.1445
 2025W        W 6076   5.065   8.327   2.474  0.2056  0.4788  0.0082
 2026W        W 6077   7.648   9.869   2.605  0.0555  0.1732  0.0142
 2027W        W 6078   4.437   8.112  10.338  0.0034 -0.4727  0.1489
 2028W        W 6079   3.015   0.663  12.851  0.0255 -0.0444  0.1594
 2029W        W 6080   5.276   9.869   2.507  0.3883  0.2454 -0.0424
 2030W        W 6081   6.136   6.298  11.466  0.1390 -0.2009  0.0163
 2031W        W 6082   1.616   3.267   1.389 -0.0740  0.0681 -0.1258
 2032W        W 6083   3.819   1.066   1.170 -0.0893 -0.0541  0.0737
 2033W        W 6084   4.832   8.121   3.655 -0.0753  0.1128 -0.3001
 2034W        W 6085   7.622   7.694   1.852 -0.0976  0.0988  0.3844
 2035W        W 6086   0.159   5.830   1.665  0.3186  0.3684  0.2644
 2036W        W 6087   1.989   1.928  10.467  0.2350 -0.3210 -0.0238
 2037W        W 6088   5.975   5.341   4.196  0.1327 -0.0498  0.4962
 2038W        W 6089   3.035   5.630   4.531 -0.0841 -0.0727 -0.1132
 2039W        W 6090   1.916   9.835  12.579 -0.0614  0.2253  0.2401
 2040W        W 6091   4.053   0.073   4.626  0.0079 -0.1290  0.1148
 2041W        W 6092   4.334   8.691   9.596 -0.3150 -0.0890 -0.2605
 2042W        W 6093   9.622   4.448   9.732  0.1130  0.0951  0.0597
 2043W        W 6094   5.319   6.184  12.538  0.2063 -0.0662 -0.0718
 2044W        W 6095   6.032   7.238  10.585  0.2889 -0.3470 -0.4551
 2045W        W 6096   2.879   0.271  12.394 -0.0980 -0.1136 -0.3650
 2046W        W 6097   0.438   9.455  10.456  0.1943  0.2690  0.2112
 2047W        W 6098   4.851   2.584   8.851  0.0345  0.1754  0.1427
 2048W        W 6099   1.128   9.783  12.805 -0.1737 -0.2168 -0.3636
 2049W        W 6100   5.377   8.778   2.551 -0.3202  0.1487 -0.0792
 2050W        W 6101   1.947   6.843  11.727  0.1394  0.0800  0.0835
 2051W        W 6102   0.188   4.039  11.706  0.3365  0.2277  0.2341
 2052W        W 6103   8.233   6.879  13.282 -0.0980 -0.0977  0.2693
 2053W        W 6104   2.155   2.077   0.109  0.2337 -0.3071  0.0190
 2054W        W 6105   1.450   3.986   0.008 -0.0744  0.0223  0.1173
 2055W        W 6106   4.779   8.038   0.225  0.1388 -0.0269  0.0439
 2056W        W 6107   2.048   9.927   3.530 -0.1660 -0.0143 -0.3075
 2057W        W 6108   5.426   4.599   0.744  0.1318 -0.1487  0.0530
 2058W        W 6109   9.875   2.406   1.900  0.0069 -0.1200  0.3523
 2059W        W 6110   1.083   8.200   4.016 -0.3262  0.3174  0.0011
 2060W        W 6111   9.229   3.366  11.368 -0.1252  0.1916  0.0832
 2061W        W 6112   0.638   3.507   1.892  0.2743  0.0942  0.0626
 2062W        W 6113   4.895   5.340   2.611 -0.1337 -0.1876  0.3216
 2063W        W 6114   8.813   3.605  11.595 -0.0013  0.1138  0.0145
 2064W        W 6115   4.862   6.419  10.179  0.0284 -0.4266 -0.3611
 2065W        W 6116   6.150   4.358   0.013 -0.0205  0.2965 -0.2431
 2066W        W 6117   8.700   1.714   2.059  0.1267  0.1935  0.1624
 2067W        W 6118   0.528  10.065   1.517  0.0281 -0.3176 -0.0301
 2068W        W 6119  10.404   2.140   0.793  0.1753 -0.3974 -0.0868
 2069W        W 6120   9.196   4.858  13.321 -0.0429 -0.0498  0.0899
 2070W        W 6121   9.863   8.247   3.134 -0.0506 -0.1236  0.0156
 2071W        W 6122   4.963   8.476   0.541 -0.0729  0.3041  0.1584
 2072W        W 6123   5.518   8.443  10.713  0.0153  0.1326  0.3447
 2073W        W 6124   6.293   2.258   1.340  0.1042  0.4251 -0.2491
 2074W        W 6125  10.085   4.425  10.214  0.0924  0.2665 -0.0479
 2075W        W 6126   6.962   5.875   0.771 -0.2400  0.2611  0.3275
 2076W        W 6127   7.977   1.450   3.172 -0.0865 -0.1095 -0.0419
 2077W        W 6128   2.792   8.617  13.238 -0.2514 -0.0334 -0.3153
 2078W        W 6129   8.237   5.951  12.789  0.0575 -0.0134 -0.0033
 2079W        W 6130   4.631   1.737  11.571 -0.2369  0.0700 -0.2783
 2080W        W 6131   4.090   5.900   1.086  0.2474 -0.1175 -0.2409
 2081W        W 6132   3.811   3.715  11.347  0.1881 -0.1701 -0.4357
 2082W        W 6133   2.743   7.995  12.171 -0.0751 -0.1789  0.1064
 2083W        W 6134   5.867   6.787   2.425  0.0843 -0.0279  0.3524
 2084W        W 6135   6.256   2.355  10.424  0.0394  0.1939 -0.0904
 2085W        W 6136   8.042   9.170  10.883  0.1613  0.1750 -0.2438
 2086W        W 6137   3.853   0.519  10.788 -0.2131  0.0639  0.0389
 2087W        W 6138   8.411   3.367   9.696 -0.3496 -0.1874  0.0313
 2088W        W 6139   7.478   6.718   2.237  0.0322  0.1533 -0.0734
 2089W        W 6140   7.889   5.565   4.877 -0.1468  0.1176  0.1479
 2090W        W 6141   0.508   3.701   2.323 -0.1927  0.1499 -0.0664
 2091W        W 6142   6.510   9.269   2.067 -0.0318 -0.0480 -0.2608
 2092W        W 6143   4.326   0.778   1.987 -0.1756 -0.2001 -0.1404
 2093W        W 6144   7.166   3.615  10.372 -0.1906  0.2909 -0.3466
 2094W        W 6145   1.166   6.278   9.133  0.2053  0.1368 -0.1182
 2095W        W 6146   6.930   2.515  12.157  0.0586 -0.1256  0.2330
 2096W        W 6147   1.955   0.544  10.731  0.0671  0.0948 -0.3140
 2097W        W 6148   2.894   8.230   4.061  0.1286 -0.1280 -0.2479
 2098W        W 6149   2.001   8.964   8.383  0.1106  0.2051 -0.2197
 2099W        W 6150   1.701   0.014   4.866  0.2288 -0.3520  0.2090
 2100W        W 6151   8.763   1.969   9.125 -0.3927 -0.0752 -0.0528
 2101W        W 6152   7.379   5.268  13.070  0.2488  0.3057 -0.3521
 2102W        W 6153   4.153   8.378  10.735 -0.1503  0.0657 -0.0186
 2103W        W 6154   0.035   8.735   3.626  0.1316  0.4294 -0.3003
 2104W        W 6155   6.688   1.536   0.188  0.0449 -0.0366 -0.0599
 2105W        W 6156   8.942   6.718  11.714  0.0630  0.2959 -0.0375
 2106W        W 6157   1.724   0.680  11.578  0.1001 -0.1553 -0.3454
 2107W        W 6158   1.699   2.051   2.051 -0.2556  0.4362 -0.2002
 2108W        W 6159   0.577   1.099   1.715  0.0724  0.1110 -0.1228
 2109W        W 6160   8.064   9.241   4.375 -0.2437  0.2360  0.1132
 2110W        W 6161   5.178  10.327  10.164  0.0382  0.1037 -0.3093
 2111W        W 6162   2.711   6.932  12.653  0.0249  0.1686 -0.1307
 2112W        W 6163   1.513   6.402  12.868  0.1235  0.0498  0.0010
 2113W        W 6164   6.475   4.334   2.017 -0.2518  0.1110 -0.0936
 2114W        W 6165   5.574   0.390   2.323  0.1222  0.0266  0.0170
 2115W        W 6166   7.308   6.807   1.267 -0.3993  0.1804  0.1821
 2116W        W 6167   2.793   0.553   3.829 -0.0815  0.0926  0.3068
 2117W        W 6168   9.251   0.885  12.707  0.2036 -0.1677  0.0087
 2118W        W 6169   4.020   9.928  12.929  0.3595  0.1097  0.2934
 2119W        W 6170   7.491   6.652   0.226  0.3970 -0.3459  0.0586
 2120W        W 6171   7.690   5.490   3.906 -0.3573 -0.1532  0.0122
 2121W        W 6172   8.466   7.880  12.594 -0.3484 -0.0842 -0.1950
 2122W        W 6173   9.937   8.568   1.675 -0.2836 -0.2859 -0.2385
 2123W        W 6174   4.119   7.336   0.756  0.0428  0.4846  0.0652
 2124W        W 6175   1.094   7.619   2.110 -0.3717  0.2583 -0.2144
 2125W        W 6176   5.671   3.263   1.401 -0.0072 -0.0892  0.0799
 2126W        W 6177  10.203   8.728   4.366  0.0139 -0.3469  0.0044
 2127W        W 6178   1.093   3.378   1.783 -0.0601 -0.1745 -0.1327
 2128W        W 6179   4.979   5.593   1.717 -0.1116 -0.0606  0.1309
 2129W        W 6180   4.095   9.821   3.106  0.0584 -0.2947 -0.0682
 2130W        W 6181   9.092   7.118   0.377 -0.1324  0.2033 -0.0402
 2131W        W 6182   6.234   6.179   5.122 -0.0518  0.0247 -0.0830
 2132W        W 6183   4.467   3.100   4.988 -0.2062 -0.1197  0.1366
 2133W        W 6184   4.392   3.413   9.906 -0.0902 -0.0945 -0.2989
 2134W        W 6185   6.422   4.787   0.083 -0.1246  0.1332 -0.2473
 2135W        W 6186   0.146   8.744   3.070  0.1069 -0.0592  0.0304
 2136W        W 6187   6.580   6.330   0.679 -0.0199 -0.3910 -0.0070
 2137W        W 6188   6.408   2.161  11.485  0.2242 -0.0350 -0.1893
 2138W        W 6189   5.798   3.283  11.898  0.0132 -0.0099 -0.0681
 2139W        W 6190   0.094  10.410   3.656  0.3429 -0.2572 -0.1204
 2140W        W 6191   2.504   3.687  13.338  0.1355 -0.3746 -0.0739
 2141W        W 6192   7.419   9.760   3.471  0.1124 -0.1373  0.1757
 2142W        W 6193   3.104   8.229   1.588 -0.1919  0.2659  0.2178
 2143W        W 6194   3.673   2.919   3.913  0.0454 -0.0946 -0.1398
 2144W        W 6195   1.245   1.864  12.494 -0.0388 -0.0516 -0.1308
 2145W        W 6196   8.718   1.911   3.404 -0.3750  0.3695  0.0099
 2146W        W 6197   6.148   5.530   4.670  0.5400 -0.3258  0.2606
 2147W        W 6198   4.453   4.443   3.492  0.0584  0.1538  0.4338
 2148W        W 6199   9.218   9.543   2.799  0.1748 -0.3467 -0.1015
 2149W        W 6200   8.743   1.131   1.430 -0.2629 -0.0001 -0.0650
 2150W        W 6201   4.842   8.207   1.975  0.0389  0.1862 -0.0176
 2151W        W 6202   0.365  10.264   4.024  0.0644  0.1106  0.1085
 2152W        W 6203   1.342   6.213  11.385  0.2603 -0.1894 -0.1742
 2153W        W 6204   6.906   5.375   9.777  0.3475  0.1561  0.4399
 2154W        W 6205   0.098   8.562   2.161 -0.1719  0.1414 -0.0136
 2155W        W 6206   4.541   9.045   3.647  0.0978 -0.1253 -0.3664
 2156W        W 6207   7.861   1.209  12.314  0.2637  0.1967  0.0340
 2157W        W 6208   6.591   1.915  10.700  0.3657  0.2897 -0.0416
 2158W        W 6209   5.031   5.356  12.370 -0.0665  0.1645  0.0806
 2159W        W 6210   0.763   8.359  11.766  0.1331 -0.0657  0.1257
 2160W        W 6211   3.790   6.150   1.868 -0.1307 -0.1839 -0.1897
 2161W        W 6212   6.649   2.182  10.201  0.0773 -0.1962  0.0703
 2162W        W 6213  10.316   2.986   2.840  0.0336 -0.2010  0.0612
 2163W        W 6214   1.862   7.965   1.002  0.0553  0.0394  0.1708
 2164W        W 6215   7.881   6.894   2.556  0.1861  0.1765  0.1463
 2165W        W 6216  10.073   2.954  12.261  0.1754 -0.2918 -0.1487
 2166W        W 6217   3.229   4.766   5.583 -0.2029 -0.0900  0.0003
 2167W        W 6218   7.075   5.002   4.504 -0.0340 -0.0711  0.0377
 2168W        W 6219   0.208   6.173  12.572 -0.1906 -0.0069 -0.2087
 2169W        W 6220   5.383   5.427   9.557 -0.2966  0.1861  0.4237
 2170W        W 6221  10.203   2.797   1.977 -0.1043  0.1164 -0.1332
 2171W        W 6222   5.610   5.236   9.982  0.2688 -0.0671 -0.0096
 2172W        W 6223   0.356   8.000  12.652  0.4337 -0.2775 -0.3133
 2173W        W 6224   6.558   3.857   0.004 -0.0509  0.1302 -0.0368
 2174W        W 6225   0.939   9.782   1.660  0.2996  0.0660 -0.2515
 2175W        W 6226   1.546   8.512   3.263 -0.0530 -0.1418 -0.2986
 2176W        W 6227   7.361   1.829   4.586  0.0074 -0.0944 -0.0460
 2177W        W 6228   4.655  10.219   2.240 -0.0729 -0.0199 -0.2577
 2178W        W 6229   4.480   5.700  11.558 -0.1722  0.0570 -0.0368
 2179W        W 6230   7.718   0.841   4.249 -0.0139 -0.0775 -0.2405
 2180W        W 6231   3.487   8.966   4.929 -0.1056  0.1273 -0.1733
 2181W        W 6232   2.887   8.187   1.099 -0.1430 -0.1575  0.0429
 2182W        W 6233   1.399   7.726  10.435  0.3130  0.0302 -0.2949
 2183W        W 6234   9.808   8.413   2.670  0.1676 -0.0964  0.1255
 2184W        W 6235   1.765   7.782  10.870  0.2364  0.2279  0.0090
 2185W        W 6236   5.073   5.310  13.311  0.2043  0.2509  0.2311
 2186W        W 6237   0.693   4.176   0.692 -0.3667 -0.2494  0.0974
 2187W        W 6238   1.764   9.485   1.647  0.1441  0.3404 -0.0191
 2188W        W 6239   6.407   5.292   3.518  0.0332 -0.1132 -0.0207
 2189W        W 6240   5.216   9.203   1.306  0.0189  0.1504  0.4615
 2190W        W 6241   2.620   8.850   2.443  0.1582  0.1921 -0.0294
 2191W        W 6242   0.886   0.665   5.618  0.0768  0.0833  0.0346
 2192W        W 6243   1.592   8.437   9.068 -0.1084 -0.2558  0.0144
 2193W        W 6244  10.258   5.089   2.639 -0.3279 -0.0167  0.3601
 2194W        W 6245   5.136   2.098   9.832 -0.3698  0.0951  0.3474
 2195W        W 6246   0.233  10.361   4.483  0.0588 -0.0006 -0.2674
 2196W        W 6247   7.225   5.524  11.387 -0.1375 -0.0045  0.0015
 2197W        W 6248   3.912   8.272  10.325 -0.2098 -0.0403 -0.0018
 2198W        W 6249   8.508   0.822  11.047 -0.3522  0.2026  0.2291
 2199W        W 6250  10.340   7.582  10.559 -0.0587  0.0190  0.0258
 2200W        W 6251   2.332   8.401   2.579  0.1853 -0.5695 -0.0402
 2201W        W 6252   8.380   3.498   1.852  0.2326 -0.2300  0.0908
 2202W        W 6253   0.611   2.826   4.710  0.0255 -0.0499 -0.1772
 2203W        W 6254   4.485   0.925   1.030 -0.1266  0.1072  0.0131
 2204W        W 6255   4.926   4.629   0.129 -0.0112 -0.0019  0.0156
 2205W        W 6256  10.335   7.839  11.550 -0.0722 -0.2402 -0.2868
 2206W        W 6257   3.794   9.824   4.725 -0.2268  0.1777  0.0669
 2207W        W 6258   9.421   4.707   0.475 -0.4574  0.1831  0.1181
 2208W        W 6259   5.530   5.758   4.469  0.1144 -0.0885 -0.0772
 2209W        W 6260  10.366   0.313   4.226 -0.1271 -0.2952  0.2176
 2210W        W 6261   1.323   4.066   4.893  0.0017  0.1736  0.1816
 2211W        W 6262   8.370   9.372  12.810  0.1379 -0.2362  0.1512
 2212W        W 6263   2.149   0.860   4.093  0.0654 -0.0927 -0.0594
 2213W        W 6264   3.941   5.734   0.136  0.1542  0.2982 -0.1949
 2214W        W 6265   8.807   1.287  12.100  0.3645 -0.2458 -0.0666
 2215W        W 6266   5.944   5.883   4.218 -0.0670  0.1546  0.2300
 2216W        W 6267   5.851   1.871   4.856  0.0612  0.0221 -0.0902
 2217W        W 6268   8.286   4.583  12.606  0.0253  0.0501  0.0414
 2218W        W 6269   6.682   5.276   4.816  0.4428  0.2822 -0.1744
 2219W        W 6270   4.244   1.536   4.265  0.2253  0.2632  0.1405
 2220W        W 6271   0.148   3.321   2.483 -0.2772  0.3577  0.3643
 2221W        W 6272   8.103   0.489  10.932 -0.0747 -0.1225 -0.2111
 2222W        W 6273   9.753   8.238   9.916  0.0005 -0.2230 -0.0616
 2223W        W 6274   2.852   8.881  10.237  0.2047 -0.0473  0.0904
 2224W        W 6275   2.886   5.995   3.492  0.1490  0.2407 -0.0653
 2225W        W 6276   8.094   4.104   0.436  0.1435  0.0731  0.3908
 2226W        W 6277   0.571   3.711  12.028  0.1795 -0.2712 -0.1346
 2227W        W 6278   4.582   3.971   3.587 -0.3027 -0.3635  0.0563
 2228W        W 6279   5.765   1.768   5.431 -0.1371 -0.1426 -0.0630
 2229W        W 6280   7.784   8.311  11.350 -0.1625 -0.3715  0.3789
 2230W        W 6281   8.453   1.579   9.970  0.2148 -0.0119  0.0760
 2231W        W 6282   7.513   6.475  10.625 -0.1355  0.0800  0.3269
 2232W        W 6283   6.832   6.129   3.250 -0.2108 -0.2774 -0.1179
 2233W        W 6284   8.561   5.513  11.276  0.0610  0.0115 -0.0816
 2234W        W 6285   7.204   0.719  10.426 -0.1429  0.0607 -0.0555
 2235W        W 6286   0.269  10.177   2.704 -0.1022  0.3862  0.1347
 2236W        W 6287  10.078   3.816   3.305 -0.1815  0.1676 -0.1291
 2237W        W 6288   5.594   3.051   3.708 -0.1187 -0.2283 -0.0151
 2238W        W 6289   6.269   3.141   8.624  0.1155  0.0129  0.3831
 2239W        W 6290   0.881   3.161  13.135 -0.0151  0.2336  0.0087
 2240W        W 6291   3.747   8.636   4.030  0.0472 -0.1434  0.0193
 2241W        W 6292   0.851   8.283   9.396  0.1817 -0.0013  0.1326
 2242W        W 6293   7.332   4.421   1.279  0.0350 -0.1748 -0.2828
 2243W        W 6294   5.385   4.527   5.876  0.0464  0.0444 -0.0380
 2244W        W 6295   8.494   6.975   2.555  0.0463  0.2734  0.2163
 2245W        W 6296   2.170   5.662   1.128 -0.0957 -0.1390  0.0134
 2246W        W 6297   1.648   9.052  12.993  0.0359 -0.0987  0.2494
 2247W        W 6298   2.474   7.071  12.030 -0.0738  0.2020  0.0530
 2248W        W 6299   9.975   8.575   3.577 -0.2154  0.0512 -0.0807
 2249W        W 6300   9.749   2.245   2.325  0.0779 -0.1120 -0.3096
 2250W        W 6301   6.889   7.758   4.145  0.0568  0.2766  0.4758
 2251W        W 6302   0.258   6.314   1.399 -0.1393  0.3667  0.2946
 2252W        W 6303   7.047   9.644  11.754  0.1873  0.4860 -0.3056
 2253W        W 6304   7.701   2.209  12.246 -0.0084  0.3855  0.0537
 2254W        W 6305   5.934   2.213  11.758 -0.1578 -0.0330  0.1324
 2255W        W 6306   0.274   4.203   2.216  0.0819  0.0492 -0.0366
 2256W        W 6307   4.082   2.437   2.302  0.1509  0.1664  0.2403
 2257W        W 6308   5.457   2.103  11.859  0.0559 -0.4035 -0.0739
 2258W        W 6309   4.431   5.166   2.682 -0.1503  0.0719 -0.5342
 2259W        W 6310   7.521   3.478   1.959 -0.0845  0.1049  0.0604
 2260W        W 6311   5.991   6.125  13.088 -0.1587 -0.1787  0.1986
 2261W        W 6312   2.860   6.555   2.507 -0.1959 -0.0211  0.1872
 2262W        W 6313   3.789   9.237   2.504  0.2310  0.2744 -0.1630
 2263W        W 6314   1.350   0.715   5.814 -0.3715 -0.0788  0.2147
 2264W        W 6315   3.468   9.974   1.184 -0.3277 -0.1784  0.1236
 2265W        W 6316   2.451   2.028   9.732  0.1094  0.1529 -0.0594
 2266W        W 6317   0.581   9.960   0.557  0.2895 -0.0541  0.1771
 2267W        W 6318   9.254   2.903  10.652 -0.0201 -0.0111 -0.2431
 2268W        W 6319   5.063   0.640  13.298  0.1457  0.2026  0.1304
 2269W        W 6320   0.490  10.091  11.948  0.1637  0.1223 -0.0582
 2270W        W 6321   7.358   2.349  10.810  0.1546  0.3036  0.0192
 2271W        W 6322   6.144   3.109  11.095  0.0854 -0.3541 -0.0795
 2272W        W 6323   2.500   0.402  12.705  0.0345 -0.1025  0.1066
 2273W        W 6324   8.970   0.891  11.786 -0.3076  0.0076 -0.1144
 2274W        W 6325   8.465   3.773   0.842  0.0082  0.0267  0.0406
 2275W        W 6326   8.693   0.072  12.538  0.1131  0.1687  0.0706
 2276W        W 6327   1.829   2.772  10.251  0.0799  0.2562  0.0443
 2277W        W 6328   4.253   4.919  13.234 -0.2798  0.1296 -0.1634
 2278W        W 6329   3.701   3.100   1.746  0.3320  0.0973  0.1276
 2279W        W 6330   8.985   3.564   3.215 -0.0495  0.1365 -0.3284
 2280W        W 6331   8.716   0.980   9.189 -0.1892 -0.0969  0.1683
 2281W        W 6332   0.019   0.781   4.397 -0.1991 -0.0721  0.1612
 2282W        W 6333   1.769   4.652  11.252 -0.0414 -0.1422 -0.1665
 2283W        W 6334   4.137   1.106  11.324  0.1491 -0.0876  0.1435
 2284W        W 6335   3.812   1.956  10.580 -0.2000  0.1741 -0.0195
 2285W        W 6336   6.971   9.070   4.667 -0.1136  0.0154  0.4153
 2286W        W 6337   2.157   6.356   0.383  0.0188 -0.2394 -0.3357
 2287W        W 6338   9.336   9.019   0.884  0.2436  0.2045  0.1615
 2288W        W 6339   2.846   7.873   0.662 -0.0350  0.0650 -0.0814
 2289W        W 6340   4.812   7.785  12.510 -0.1145  0.2003 -0.0987
 2290W        W 6341   4.923   3.500   2.774 -0.1839  0.1502  0.0824
 2291W        W 6342   0.796   1.249   1.188 -0.1506 -0.0605 -0.1205
 2292W        W 6343   5.726   5.512   9.146  0.2696  0.2903  0.1363
 2293W        W 6344   6.159  10.058  11.678  0.2652 -0.1890  0.1632
 2294W        W 6345   8.861   5.915   0.726  0.1742  0.4091  0.0093
 2295W        W 6346   7.957   9.097   0.142  0.1108 -0.1979 -0.5165
 2296W        W 6347   4.535   3.835  11.780 -0.1410 -0.0443 -0.1904
 2297W        W 6348   5.302   4.138   1.633  0.2660  0.0887  0.1644
 2298W        W 6349   5.633   4.951   2.118  0.0048 -0.0234  0.2350
 2299W        W 6350  10.185   0.434   2.745 -0.0268 -0.1377  0.2911
 2300W        W 6351   7.263   0.670   4.142  0.1834  0.0118  0.0545
 2301W        W 6352   3.659   5.227   1.685  0.1915 -0.0221  0.2207
 2302W        W 6353   6.900   1.994   2.584 -0.0329  0.0999  0.0922
 2303W        W 6354   6.907   2.120  11.064 -0.0737 -0.2199 -0.2287
 2304W        W 6355   4.778   1.281   3.516 -0.1119  0.2106  0.0779
 2305W        W 6356   8.583   5.398  10.454  0.2961 -0.1703  0.1196
 2306W        W 6357   0.667   5.170   2.756 -0.2465  0.0249 -0.0393
 2307W        W 6358   8.722   6.853  11.301 -0.1174 -0.1681  0.0298
 2308W        W 6359   9.305   7.845  11.737 -0.1768  0.2010 -0.1139
 2309W        W 6360   7.523   6.448  11.591 -0.2083 -0.0080 -0.0012
 2310W        W 6361   2.579   4.350   9.655  0.0257  0.3824 -0.0553
 2311W        W 6362   7.870   1.768  10.008 -0.3417 -0.0975 -0.0642
 2312W        W 6363   7.795   1.086   2.636 -0.1723  0.2591  0.1866
 2313W        W 6364   2.991   6.364   3.822  0.1200  0.0076  0.2424
 2314W        W 6365   6.217   0.716   8.713 -0.5164 -0.0593 -0.0961
 2315W        W 6366   1.918   0.017   3.892 -0.0751 -0.0067 -0.0275
 2316W        W 6367   9.233   5.455  12.072  0.0096 -0.2537  0.2074
 2317W        W 6368   6.904   9.011   2.263  0.0988  0.0889  0.1204
 2318W        W 6369   7.766   4.742   1.953 -0.0777 -0.2685 -0.0096
 2319W        W 6370   2.897   3.034   1.238  0.0126 -0.2886 -0.2202
 2320W        W 6371   4.410   9.079   4.730 -0.1320  0.0726  0.1017
 2321W        W 6372   9.384   5.706   0.876 -0.0428  0.1639 -0.0542
 2322W        W 6373  10.128   8.678   9.955 -0.0090  0.1031 -0.1704
 2323W        W 6374   0.741   7.157  10.664 -0.3134  0.0584 -0.0723
 2324W        W 6375   8.292   7.118  10.432 -0.4325  0.1257  0.0944
 2325W        W 6376   8.348   6.062   3.315  0.0413  0.2591  0.2663
 2326W        W 6377   7.402   6.595  10.056  0.1181  0.1316 -0.0916
 2327W        W 6378   9.774   7.351   9.759  0.1157  0.0734 -0.3114
 2328W        W 6379   9.888   0.051   2.487 -0.1116  0.1051 -0.2153
 2329W        W 6380   3.765   3.629   4.765  0.0484 -0.1669 -0.2222
 2330W        W 6381   0.964   3.882   3.923 -0.1213  0.0816 -0.1791
 2331W        W 6382   5.939   3.051   9.507  0.0150  0.1954 -0.1068
 2332W        W 6383   7.581   3.916   9.717 -0.7456 -0.1869  0.2393
 2333W        W 6384   4.364   9.931   9.415 -0.0816 -0.2648 -0.1134
 2334W        W 6385   3.631   1.446   2.176  0.0556  0.1065 -0.1209
 2335W        W 6386   1.295   9.645   9.953  0.1988  0.1101  0.3009
 2336W        W 6387   3.057   6.796  10.440 -0.1413  0.2526 -0.2594
 2337W        W 6388   6.948   4.374  12.682 -0.0277 -0.0615  0.0647
 2338W        W 6389   4.450   5.319   3.612 -0.0296 -0.3449  0.0575
 2339W        W 6390   1.166   3.265  10.605  0.2585  0.2164 -0.0174
 2340W        W 6391   8.019   7.720   9.833  0.0189  0.0317 -0.0977
 2341W        W 6392   6.766   3.936   9.410  0.0264  0.0906 -0.2135
 2342W        W 6393   9.788   8.985  12.969 -0.2962  0.1261 -0.0544
 2343W        W 6394   8.151   2.477  10.236 -0.0633  0.2049  0.1895
 2344W        W 6395   7.980   8.266   1.469  0.0968 -0.0521  0.3128
 2345W        W 6396   4.941   1.568   2.857  0.0544  0.0895 -0.1127
 2346W        W 6397   2.241   0.127  10.983 -0.3125 -0.2148 -0.0048
 2347W        W 6398   1.220  10.211   9.288  0.0327  0.2080 -0.2151
 2348W        W 6399   5.676   1.817  10.608 -0.0438 -0.1250  0.1357
 2349W        W 6400   9.408   2.770   2.644 -0.2796 -0.0599  0.0212
 2350W        W 6401   8.815   6.033   0.293 -0.2739 -0.4336  0.5651
 2351W        W 6402   7.437   2.873   4.365  0.2119  0.1818 -0.1168
 2352W        W 6403   3.834   8.308  12.987 -0.0079  0.0357 -0.0735
 2353W        W 6404   3.544   2.689   5.854 -0.0715  0.1431  0.0539
 2354W        W 6405   6.189   8.412  10.634 -0.2322 -0.1846 -0.5290
 2355W        W 6406   7.488   8.951   8.242 -0.0903  0.2940  0.2055
 2356W        W 6407   0.857   4.678  11.512  0.1968 -0.0309  0.2461
 2357W        W 6408   1.411   8.562   8.509 -0.1666  0.0636  0.1338
 2358W        W 6409   3.364   4.334   5.152 -0.1409 -0.1168 -0.0324
 2359W        W 6410   9.849   6.595  12.653  0.1664 -0.4883  0.0755
 2360W        W 6411   0.398   0.588   8.636  0.2590  0.0694 -0.0465
 2361W        W 6412   1.970   7.535  12.212 -0.0433  0.0890 -0.0128
 2362W        W 6413   6.527   3.261  10.640  0.3601 -0.2025 -0.0011
 2363W        W 6414   6.166   1.532   0.464  0.2090 -0.0901 -0.2795
 2364W        W 6415   8.582   3.489   4.427 -0.0810 -0.2023  0.1331
 2365W        W 6416   4.028   3.663   8.847  0.0008  0.2578 -0.0633
 2366W        W 6417   9.420   6.677   0.033  0.1257 -0.1373 -0.1158
 2367W        W 6418   0.005   9.887   1.726 -0.3782  0.1111  0.0890
 2368W        W 6419   2.553   2.332  12.611 -0.0027 -0.1039  0.1084
 2369W        W 6420   3.556   9.661  10.972  0.0830  0.2730  0.0599
 2370W        W 6421   7.509   6.827   5.446  0.0037  0.3230  0.0317
 2371W        W 6422   6.302   5.116   9.401 -0.2630  0.3397 -0.0486
 2372W        W 6423   0.767   1.153  10.522  0.1533  0.0958  0.1915
 2373W        W 6424   6.562   3.231   3.691 -0.2568  0.4668  0.1503
 2374W        W 6425   2.824   3.801  12.144 -0.0674 -0.0525 -0.1996
 2375W        W 6426   0.832   7.408   0.425 -0.1086 -0.2386  0.1799
 2376W        W 6427   0.711   9.395   0.646  0.0957 -0.1258  0.4067
 2377W        W 6428   8.987   3.993   2.687  0.0081  0.0004  0.0049
 2378W        W 6429   0.842   6.353  12.350  0.0607  0.1502 -0.2769
 2379W        W 6430   8.003   5.881   1.843 -0.0421 -0.0156 -0.2297
 2380W        W 6431   2.990   0.206   2.831 -0.1117  0.3063  0.0730
 2381W        W 6432   9.722   5.971   9.936  0.2488  0.1327 -0.0558
 2382W        W 6433   9.716   5.453  10.523  0.3129  0.2911 -0.1106
 2383W        W 6434   1.324   5.823   3.835 -0.3874  0.0488  0.1379
 2384W        W 6435   2.406   3.112  11.100 -0.1303  0.3995  0.2147
 2385W        W 6436   2.867   6.323   0.123  0.2215 -0.2738  0.5174
 2386W        W 6437   1.445   4.129  11.861 -0.0236 -0.1207 -0.0792
 2387W        W 6438   5.228   5.217   0.835 -0.2712 -0.1254  0.1029
 2388W        W 6439   8.264   4.242   1.024  0.1191 -0.0650 -0.1834
 2389W        W 6440   4.341   9.655   0.999 -0.2706 -0.5306  0.0205
 2390W        W 6441   7.247   9.237   5.061  0.1921 -0.1372  0.3363
 2391W        W 6442   9.250   2.834  10.175  0.5871  0.1919 -0.1796
 2392W        W 6443   2.625   3.246   0.222  0.4011  0.1540  0.0337
 2393W        W 6444   9.006   6.772  12.784  0.2407  0.0894  0.2472
 2394W        W 6445   2.520   7.162  10.471 -0.0629  0.1542  0.1838
 2395W        W 6446   4.417   2.348   9.628  0.1686 -0.2664  0.0167
 2396W        W 6447   8.565   3.875   4.845  0.1651  0.2437 -0.0334
 2397W        W 6448   0.615   7.416   4.197 -0.0751 -0.0309 -0.1367
 2398W        W 6449   6.401   5.936   0.038  0.0768  0.1743  0.0524
 2399W        W 6450   5.116   3.504   9.319 -0.0273  0.3376  0.0491
 2400W        W 6451   4.671   1.309   0.213 -0.0286  0.3667  0.0888
 2401W        W 6452   7.909   5.038   3.819  0.1072  0.0751 -0.0550
 2402W        W 6453   2.481   4.999   2.490 -0.0570 -0.0797  0.0912
 2403W        W 6454   9.406   3.352   1.903  0.1684 -0.0095 -0.0259
 2404W        W 6455   5.569   7.974   2.807 -0.2526  0.1824  0.1347
 2405W        W 6456   7.987   8.077  12.412 -0.1123  0.0282  0.0783
 2406W        W 6457   3.265   2.801   1.602 -0.1158 -0.1563  0.1825
 2407W        W 6458   3.586   4.757   2.282 -0.0191  0.2247 -0.2694
 2408W        W 6459  10.151   6.048   9.337  0.1105 -0.4041  0.1561
 2409W        W 6460   0.461   4.488   3.435 -0.3426 -0.0364  0.2571
 2410W        W 6461   7.246   4.936  11.985  0.0206 -0.1215  0.3227
 2411W        W 6462   0.784  10.069  10.162 -0.0664 -0.0533 -0.3166
 2412W        W 6463   8.078   8.730   4.517 -0.0153 -0.2585  0.0703
 2413W        W 6464   4.556   8.605   4.451 -0.0271  0.0640 -0.1688
 2414W        W 6465   3.896   5.935  11.825 -0.1010  0.1055  0.0641
 2415W        W 6466   2.043   8.263   2.948  0.0566  0.4251  0.1089
 2416W        W 6467   2.307   1.656  10.735 -0.0858  0.1060 -0.0610
 2417W        W 6468   5.925   7.318   0.040 -0.0372 -0.3930 -0.0890
 2418W        W 6469   5.633   3.678  10.463 -0.0781  0.2220 -0.2274
 2419W        W 6470   4.225   6.582  11.838 -0.0324  0.0185 -0.0925
 2420W        W 6471  10.013   3.783   4.604 -0.1540  0.3189 -0.1566
 2421W        W 6472   6.355   5.582   3.956  0.0757 -0.0518  0.1444
 2422W        W 6473   8.071   2.173   9.751  0.3173 -0.0010  0.0872
 2423W        W 6474   2.752   9.372   9.565 -0.3586 -0.2735  0.2322
 2424W        W 6475   8.097   6.343  12.492  0.1572  0.1713  0.0737
 2425W        W 6476   0.610  10.337  13.254  0.3586 -0.2396 -0.2652
 2426W        W 6477   4.083   0.104   3.088 -0.0235 -0.2093 -0.1445
 2427W        W 6478   1.873   5.196  12.828 -0.0208  0.0115 -0.3482
 2428W        W 6479   2.048   5.306  10.611  0.3793  0.0074  0.3702
 2429W        W 6480   7.840   1.706   4.637 -0.0019 -0.2846  0.3264
 2430W        W 6481   9.600   4.258   3.941 -0.0699 -0.1362 -0.0388
 2431W        W 6482   6.718   7.984  11.260 -0.0128  0.2734 -0.1731
 2432W        W 6483   7.333   2.372   2.808 -0.0203 -0.0092 -0.1273
 2433W        W 6484   4.683   5.790  12.398  0.2414 -0.0728  0.0642
 2434W        W 6485   3.784   3.696  13.197 -0.0237  0.1324 -0.2690
 2435W        W 6486   1.801   4.202  11.511 -0.1961 -0.0120 -0.0479
 2436W        W 6487   3.492   9.399  10.531  0.0458  0.2417 -0.1544
 2437W        W 6488   4.234   1.993   2.537  0.1504 -0.0571  0.0611
 2438W        W 6489   7.507   8.568  10.145 -0.0992 -0.0350  0.0402
 2439W        W 6490   2.536   8.550   0.982  0.1149  0.1903 -0.1242
 2440W        W 6491   3.437   6.430  10.618 -0.0549 -0.1556  0.4344
 2441W        W 6492   1.959   0.800   3.531  0.1468 -0.1675  0.1973
 2442W        W 6493   7.645   5.226   2.985  0.1393  0.2132 -0.2991
 2443W        W 6494   4.113   0.100  12.801 -0.1675 -0.2514  0.1794
 2444W        W 6495   3.972   4.299   5.237  0.0010  0.1594  0.1235
 2445W        W 6496   0.910   1.337  11.020 -0.2914  0.0526 -0.0091
 2446W        W 6497   8.221   9.281   2.850 -0.1180  0.2707  0.0785
 2447W        W 6498   7.853   1.138   5.242 -0.0052  0.0404  0.1163
 2448W        W 6499   2.507   1.783   5.091  0.2898 -0.2200  0.1788
 2449W        W 6500   7.565   8.649   0.108 -0.4924  0.2010 -0.1195
 2450W        W 6501   7.837   5.901   0.453  0.4404  0.1437  0.2329
 2451W        W 6502   3.821   0.503  13.060 -0.3090  0.0106 -0.2065
 2452W        W 6503   3.406   0.253   9.833 -0.0879  0.1102 -0.1461
 2453W        W 6504   4.077   8.869   4.423  0.1168  0.0012  0.0898
 2454W        W 6505   0.215   6.175  10.050  0.0752  0.1311  0.4810
 2455W        W 6506   3.908   2.795  13.255  0.0166 -0.0288  0.2828
 2456W        W 6507   7.036   9.304   3.415  0.1466  0.2579 -0.2512
 2457W        W 6508   9.137   2.804  11.744  0.2281  0.3583 -0.0406
 2458W        W 6509   5.126   3.104  11.348 -0.1353 -0.3582  0.6286
 2459W        W 6510   4.948   5.667   2.235  0.0319  0.1258 -0.0138
 2460W        W 6511   9.498   9.707   3.806 -0.2730  0.1920  0.0928
 2461W        W 6512   0.275   9.816  10.078 -0.0122 -0.3376  0.2749
 2462W        W 6513   3.041   2.771   2.653  0.2641 -0.1626 -0.1684
 2463W        W 6514   7.863   5.482   9.050 -0.2025  0.0555 -0.1530
 2464W        W 6515   3.194   3.846   2.735 -0.0149 -0.0309 -0.2410
 2465W        W 6516   8.470   9.346  11.992  0.1580 -0.0299 -0.2085
 2466W        W 6517   6.978   8.902   3.833  0.1664 -0.1233 -0.1776
 2467W        W 6518   3.488   7.635   2.651  0.0614  0.0672 -0.4487
 2468W        W 6519   4.826   9.577  13.057 -0.2186  0.0805 -0.2531
 2469W        W 6520   1.947   7.691  13.214  0.1307  0.2348 -0.0059
 2470W        W 6521   3.293   5.690   2.730 -0.1857  0.0267 -0.2145
 2471W        W 6522   1.146   5.564  10.315 -0.0116 -0.0071  0.0167
 2472W        W 6523   8.680   0.256  11.142 -0.0715 -0.0573  0.0658
 2473W        W 6524   9.362  10.273   4.351  0.2919 -0.0994  0.0555
 2474W        W 6525   5.262   7.290  13.328 -0.3944 -0.2220  0.1357
 2475W        W 6526   8.600   4.968  11.105  0.0713 -0.2210 -0.0797
 2476W        W 6527  10.179   3.409   0.225  0.1435  0.3631 -0.2687
 2477W        W 6528   9.207   9.567   1.408 -0.0745  0.0304  0.3601
 2478W        W 6529   8.777   8.303   0.657  0.1225  0.3029  0.0366
 2479W        W 6530  10.421   8.634  10.401 -0.0466 -0.2554  0.0080
 2480W        W 6531   5.328   8.415   1.864  0.1710  0.2969 -0.1198
 2481W        W 6532   0.187   6.948  10.665 -0.1907 -0.1252 -0.1392
 2482W        W 6533   6.649   8.076   0.126  0.3399  0.0074 -0.0975
 2483W        W 6534  10.367   2.540  12.137 -0.3268 -0.0412  0.1915
 2484W        W 6535   7.600   4.826  13.256 -0.1126 -0.0153 -0.0609
 2485W        W 6536   6.291   5.499   0.275 -0.1316 -0.0210 -0.2022
 2486W        W 6537  10.290  10.199   3.997 -0.2445 -0.1261 -0.0883
 2487W        W 6538   0.902   8.951   3.697 -0.0412 -0.1663 -0.0978
 2488W        W 6539   8.011   6.672   5.269  0.1994  0.2189  0.0467
 2489W        W 6540   8.426   5.092   2.368  0.0152 -0.0816  0.1068
 2490W        W 6541  10.238   9.672  13.317  0.1857 -0.1867  0.0620
 2491W        W 6542   5.731   7.717   2.342 -0.1630 -0.3941 -0.3320
 2492W        W 6543   3.455   9.832   3.188  0.0068  0.2331  0.0621
 2493W        W 6544   0.659   8.667   2.322 -0.1586 -0.3907 -0.0648
 2494W        W 6545   9.521  10.313   2.116 -0.1152  0.0453  0.0086
 2495W        W 6546   6.476   6.574  10.266  0.0615  0.2383  0.0321
 2496W        W 6547   7.940   1.333   0.643  0.2207 -0.1436 -0.1662
 2497W        W 6548   9.095   0.017  11.298 -0.1141  0.2634  0.0070
 2498W        W 6549   2.455   8.978   8.884 -0.2997 -0.1114 -0.1336
 2499W        W 6550   5.198   2.268  13.193  0.0148  0.1758  0.0887
 2500W        W 6551  10.232   6.311   1.098  0.0841  0.1007 -0.1372
 2501W        W 6552   1.989   5.457   2.987  0.3118  0.0448  0.3075
 2502W        W 6553   5.947   9.961   2.702  0.0685 -0.1024  0.1951
 2503W        W 6554  10.322   6.239   3.516 -0.1921 -0.0880  0.2417
 2504W        W 6555   0.794   1.829   1.487 -0.0433  0.1850 -0.0059
 2505W        W 6556   9.613   2.123   1.033 -0.1730 -0.0313 -0.0745
 2506W        W 6557   3.582   7.668  10.012 -0.1810 -0.0283 -0.0715
 2507W        W 6558   0.191   4.015  13.169  0.0986 -0.2120  0.3604
 2508W        W 6559   3.627   0.775   4.174 -0.0748  0.3948  0.1482
 2509W        W 6560   7.488   3.715   2.913 -0.1041 -0.3221 -0.1438
 2510W        W 6561   0.370   7.346   2.198  0.6877 -0.2844 -0.0967
 2511W        W 6562   9.350   2.526   8.587 -0.2297  0.1816 -0.0850
 2512W        W 6563  10.121   8.878  12.220  0.0992 -0.4008 -0.0009
 2513W        W 6564   7.767   2.227   4.661  0.3753 -0.0980  0.0857
 2514W        W 6565   5.104   2.960  10.022  0.0148  0.0557 -0.2210
 2515W        W 6566   0.690   6.537  10.804 -0.0312 -0.1274 -0.2949
 2516W        W 6567   9.606   7.746  10.053 -0.1946  0.1183 -0.1293
 2517W        W 6568   5.282   5.951  11.062 -0.1287 -0.2325 -0.2044
 2518W        W 6569   2.295   0.747   9.610  0.1167  0.0169  0.0509
 2519W        W 6570   4.741   0.775   3.407  0.3555 -0.0730 -0.3282
 2520W        W 6571   5.175   8.488  11.923  0.0894  0.2311  0.0297
 2521W        W 6572   2.017   8.255  11.489  0.2805  0.1554 -0.2853
 2522W        W 6573   2.386   1.008   2.633  0.2151 -0.0041  0.0056
 2523W        W 6574   7.265   7.016   4.315 -0.2152 -0.0166  0.4291
 2524W        W 6575   9.020   8.861  10.339 -0.1066 -0.0090  0.0490
 2525W        W 6576   1.443   6.714  11.446 -0.0244  0.3675 -0.0991
 2526W        W 6577   8.640   1.646  12.453 -0.0847  0.4271 -0.2415
 2527W        W 6578   0.591   7.298   3.112  0.2905 -0.1711  0.2965
 2528W        W 6579   7.481   1.552   9.630 -0.1026  0.0107  0.0454
 2529W        W 6580   0.313   3.047   9.821  0.0260  0.1597 -0.0447
 2530W        W 6581   6.797   0.174  12.154  0.0331 -0.0751 -0.1500
 2531W        W 6582   9.253   4.972  12.309 -0.1438  0.1177 -0.1025
 2532W        W 6583   1.578   9.119   4.567  0.2893  0.1023  0.5803
 2533W        W 6584   8.050   7.652   9.306  0.3304  0.0366 -0.1512
 2534W        W 6585   6.935  10.089   3.320  0.0360 -0.1565  0.3420
 2535W        W 6586   2.065   6.162   2.027 -0.2756 -0.0433 -0.1540
 2536W        W 6587   6.766   6.860  11.363  0.0979  0.1906  0.0343
 2537W        W 6588   2.012   8.655   3.258 -0.0676 -0.1069 -0.2293
 2538W        W 6589   2.348   4.249   0.033  0.1178  0.1440  0.4089
 2539W        W 6590   4.863   6.012   0.643  0.1234  0.0900  0.2615
 2540W        W 6591   0.263   1.546  13.076  0.0984  0.1007  0.1352
 2541W        W 6592   1.436   4.622  12.288 -0.0020  0.0851  0.1751
 2542W        W 6593   1.454   6.365   3.702  0.3755  0.0710 -0.1720
 2543W        W 6594   6.637  10.054   0.217  0.0857  0.1892  0.0650
 2544W        W 6595   0.738  10.054  11.490  0.1116  0.1024 -0.1308
 2545W        W 6596   7.807   9.227   0.666  0.1090  0.0321 -0.1539
 2546W        W 6597   2.813  10.259   9.201  0.0187  0.2961 -0.1511
 2547W        W 6598   3.681   5.911   0.552  0.0192  0.0571  0.3045
 2548W        W 6599   9.710   9.365  11.238 -0.1373  0.3324 -0.0265
 2549W        W 6600   5.374   0.970   5.321 -0.4413  0.0407  0.1421
 2550W        W 6601   5.875   0.784   2.431  0.0414 -0.2343  0.1948
 2551W        W 6602   5.491   6.857   1.983 -0.2574 -0.1822 -0.1169
 2552W        W 6603  10.021   3.900   0.083  0.0914 -0.2182  0.1287
 2553W        W 6604   8.010   9.599   0.400 -0.2339  0.0230 -0.0652
 2554W        W 6605   2.366   4.547   1.640  0.0584 -0.0053  0.1692
 2555W        W 6606   1.217   7.129  11.206  0.1086 -0.1214 -0.0523
 2556W        W 6607   1.258   3.553   2.696 -0.1949 -0.4799  0.7495
 2557W        W 6608   7.428   5.466  11.982  0.4452  0.2962  0.1590
 2558W        W 6609   6.809   5.591   1.608  0.1385 -0.0952  0.0698
 2559W        W 6610   7.345   9.636   1.233  0.1821 -0.2091 -0.0502
 2560W        W 6611   3.531   8.149   4.042 -0.1487  0.0316 -0.1229
 2561W        W 6612   7.852   4.936   0.306 -0.2850  0.0209  0.2367
 2562W        W 6613   3.945   6.852  12.145 -0.3484 -0.2588 -0.1885
 2563W        W 6614   7.778   7.904   2.832 -0.0917  0.3343  0.2686
 2564W        W 6615   1.698   6.329   2.703 -0.2511  0.3107  0.0457
 2565W        W 6616   1.961   7.205  13.063  0.1234  0.1945  0.2180
 2566W        W 6617   2.438   7.036   1.882 -0.2570  0.2971 -0.0677
 2567W        W 6618   4.507   5.080  10.128 -0.3973  0.2692  0.4830
 2568W        W 6619   1.806   1.473   9.255  0.1299 -0.1540  0.1680
 2569W        W 6620   3.121   8.873   3.610  0.1823 -0.1562  0.2109
 2570W        W 6621   4.557  10.411  10.788  0.1529  0.1372 -0.2396
 2571W        W 6622   1.379   2.670  12.990 -0.0286 -0.2587  0.2673
 2572W        W 6623   3.584   1.100  12.547  0.2690 -0.0239  0.0590
 2573W        W 6624   5.133   6.044   1.544  0.2449  0.0537  0.1377
 2574W        W 6625   5.512   5.664   1.606 -0.0712 -0.2039  0.1797
 2575W        W 6626   5.881   6.809   0.046  0.0691  0.1334 -0.1941
 2576W        W 6627   5.470   0.637   3.820  0.1274  0.1252  0.1209
 2577W        W 6628   8.452   8.361   1.451  0.0085 -0.3048 -0.1013
 2578W        W 6629   5.353   9.467  12.263  0.0512 -0.2675  0.2572
 2579W        W 6630   2.456   6.724   9.230 -0.0720  0.1489 -0.1811
 2580W        W 6631   6.680   4.278   4.277  0.2795  0.2817  0.5069
 2581W        W 6632   5.208   2.434   4.637 -0.2212  0.1102 -0.4380
 2582W        W 6633   7.670   7.309   3.538  0.0293  0.1021  0.1053
 2583W        W 6634   3.807  10.290   1.821  0.0298  0.0585 -0.0253
 2584W        W 6635   6.571   7.970   1.196 -0.0614  0.0767 -0.0845
 2585W        W 6636   1.557   9.340   0.044 -0.1531  0.1675  0.1574
 2586W        W 6637   1.696   5.062  10.917 -0.1106  0.0426 -0.2522
 2587W        W 6638   9.402   5.103   2.797 -0.2597  0.2304 -0.1230
 2588W        W 6639   9.260   3.634   9.426  0.0685  0.1316 -0.1095
 2589W        W 6640   1.172   6.020  11.864  0.1998  0.1260  0.3741
 2590W        W 6641   9.210   3.550  10.842 -0.1571  0.0580 -0.0356
 2591W        W 6642   4.516   8.284  11.232  0.0252  0.0424  0.3011
 2592W        W 6643   3.846   3.444  12.047 -0.0248  0.2207 -0.1235
 2593W        W 6644   1.742   7.166   0.585  0.0733 -0.4449  0.1025
 2594W        W 6645   8.103   2.967  10.066  0.1231  0.2161 -0.1912
 2595W        W 6646   2.464   6.574   0.848 -0.0034  0.0881  0.0018
 2596W        W 6647   3.332   1.944   2.789 -0.0954 -0.1576  0.0206
 2597W        W 6648   9.960   4.824   9.201  0.0016 -0.1955  0.0909
 2598W        W 6649   7.403  10.237   0.012 -0.1110  0.1314  0.1149
 2599W        W 6650   9.959   3.932   1.099  0.1920 -0.1447 -0.0831
 2600W        W 6651   0.359   5.875   1.113  0.1567  0.2048 -0.3672
 2601W        W 6652   2.491   0.076   2.389  0.4731  0.2478 -0.3890
 2602W        W 6653   3.997   3.728  10.817 -0.1992  0.1322 -0.1444
 2603W        W 6654   2.161   2.581   1.654 -0.1125  0.2907 -0.1936
 2604W        W 6655   1.103   4.068  10.759 -0.2394 -0.0224  0.0840
 2605W        W 6656   8.188   7.005   4.172  0.0044  0.1988 -0.0704
 2606W        W 6657   6.150   3.935  13.012  0.0745 -0.2801  0.0832
 2607W        W 6658   3.831   4.202  10.779  0.1385  0.0371  0.1802
 2608W        W 6659   8.987   4.072   2.029 -0.0637 -0.1029  0.0416
 2609W        W 6660   8.670   3.265   0.519  0.2358 -0.0672  0.2456
 2610W        W 6661   8.436   5.808  10.789  0.4457 -0.0317  0.1801
 2611W        W 6662   4.942   3.818  11.129 -0.1012 -0.1888  0.1134
 2612W        W 6663   9.315   0.484  11.284  0.2217  0.1448  0.3713
 2613W        W 6664   8.656   4.912  10.483 -0.0899  0.0229 -0.2458
 2614W        W 6665   3.314   2.993   0.978 -0.1595 -0.1411  0.1610
 2615W        W 6666   6.746   0.752   1.136  0.0926  0.1117  0.0773
 2616W        W 6667   6.886   9.600  10.630  0.2666  0.0786 -0.0837
 2617W        W 6668   0.712   8.654   2.892  0.1343 -0.0155 -0.0404
 2618W        W 6669   5.786   6.566   1.067  0.4384 -0.0525  0.0769
 2619W        W 6670   7.999   6.439   0.237  0.0840 -0.5381 -0.1334
 2620W        W 6671   4.711   4.172  11.371 -0.1222 -0.0290 -0.1408
 2621W        W 6672   6.414   6.886   9.419 -0.4030 -0.1888  0.0031
 2622W        W 6673   2.069   2.428   1.171 -0.0225  0.0586  0.1193
 2623W        W 6674   8.922   1.925   9.920  0.4190 -0.2372  0.0446
 2624W        W 6675   1.538   4.945   1.289 -0.0159  0.3948  0.0181
 2625W        W 6676   6.892   9.966  13.072  0.0099  0.2643  0.0856
 2626W        W 6677   5.073   2.884  10.869  0.0374  0.0271 -0.1152
 2627W        W 6678   9.661   3.350   0.292  0.0785 -0.0406  0.0157
 2628W        W 6679   3.180   6.179   4.265  0.2278 -0.1319 -0.0896
 2629W        W 6680   7.712   7.303  11.320 -0.0998  0.1854 -0.0274
 2630W        W 6681   9.399   9.243  12.780 -0.0979 -0.2951  0.0140
 2631W        W 6682   7.399   3.789   1.562 -0.0080  0.2033  0.0589
 2632W        W 6683   4.414   9.820   0.445  0.2132 -0.3570 -0.1846
 2633W        W 6684   6.301   4.552   3.585  0.1749 -0.1998 -0.0654
 2634W        W 6685   7.124   4.599   0.873  0.0602 -0.0199  0.5746
 2635W        W 6686   3.476   2.434   2.547  0.1104 -0.2659 -0.0941
 2636W        W 6687   2.304   5.334  11.146  0.0828  0.0130 -0.3306
 2637W        W 6688   1.713   9.952   4.505  0.2285  0.0296  0.1895
 2638W        W 6689   0.176   6.373   2.998 -0.2238  0.0609  0.1403
 2639W        W 6690   0.176   0.858  12.816 -0.1053  0.1888 -0.0022
 2640W        W 6691   1.952   6.031  10.222 -0.0808  0.0059 -0.0339
 2641W        W 6692   1.210   6.365   2.452  0.1974  0.0373 -0.0843
 2642W        W 6693   2.223   2.880  12.294 -0.0932  0.0539 -0.0010
 2643W        W 6694   8.493   6.424   9.326 -0.0529  0.1286  0.0526
 2644W        W 6695   5.894   9.168  10.331 -0.0885 -0.0678  0.0210
 2645W        W 6696   6.631   7.959   9.645  0.1544  0.0438 -0.2124
 2646W        W 6697   0.247   2.733   3.919  0.0504 -0.3062  0.0185
 2647W        W 6698   9.417   7.119   5.021 -0.1845  0.1155 -0.2592
 2648W        W 6699   6.683   4.346   0.013  0.3194  0.1229 -0.0676
 2649W        W 6700   8.245   1.914   3.172  0.4466 -0.0223  0.2420
 2650W        W 6701   3.107   7.273   1.840 -0.1930  0.1530  0.1026
 2651W        W 6702   5.121   7.865   3.225  0.0725 -0.4181 -0.2555
 2652W        W 6703   6.808   8.574  12.254 -0.2112  0.2247 -0.4420
 2653W        W 6704   5.558   2.392   3.532 -0.1233 -0.2467  0.0612
 2654W        W 6705   2.694  10.009  11.131  0.0356  0.1707 -0.3955
 2655W        W 6706   4.499   9.405   0.620 -0.1008  0.4683  0.0142
 2656W        W 6707   2.035   5.044   0.878 -0.1370  0.1958  0.3950
 2657W        W 6708  10.431   2.684   1.193 -0.0500  0.0762 -0.0312
 2658W        W 6709  10.313   6.026  12.015 -0.2300  0.0478  0.1158
 2659W        W 6710   6.995   2.566   8.918 -0.5008  0.2463 -0.2427
 2660W        W 6711   3.944   8.715   1.089 -0.3273 -0.0220  0.1795
 2661W        W 6712   0.668   0.929  11.596 -0.2709  0.2562  0.0057
 2662W        W 6713   1.127   0.927  11.315 -0.0320  0.0547  0.2135
 2663W        W 6714   2.826   9.731   9.932  0.3295  0.0396  0.1356
 2664W        W 6715   4.720   1.829   9.710  0.0599 -0.0557  0.0927
 2665W        W 6716   1.029   4.288   9.628  0.0363 -0.3208  0.1092
 2666W        W 6717   2.623   3.678  11.370 -0.0558  0.3476  0.0927
 2667W        W 6718   8.437   0.238   9.627 -0.0264 -0.1258  0.2587
 2668W        W 6719   3.079   1.059   9.258 -0.0477 -0.1805 -0.3241
 2669W        W 6720   0.898  10.266   0.760 -0.3774 -0.3391 -0.2388
 2670W        W 6721   8.771   3.031   5.186  0.3124  0.1734 -0.2238
 2671W        W 6722  10.054   1.201  11.011 -0.2916  0.3339 -0.2996
 2672W        W 6723   8.207   7.925   3.007  0.0048 -0.2450 -0.0523
 2673W        W 6724   8.833   6.062   3.075 -0.0949  0.0437  0.0312
 2674W        W 6725   1.329   7.171   2.028 -0.4027 -0.1439  0.0095
 2675W        W 6726   0.344   0.352  13.011 -0.1663 -0.2924  0.2283
 2676W        W 6727   4.840   9.734   9.513  0.4155 -0.0570  0.0498
 2677W        W 6728   6.935   2.959   2.594  0.0394  0.1189 -0.0936
 2678W        W 6729   3.181   2.641  10.200  0.1380  0.0823  0.0367
 2679W        W 6730   5.509   8.537   0.916 -0.1256  0.1638  0.3760
 2680W        W 6731   3.342   2.183   5.097  0.0379  0.0806  0.2005
 2681W        W 6732   5.107   4.565  13.000  0.0229 -0.1080  0.0443
 2682W        W 6733   0.354   0.276   2.727  0.2449  0.0080 -0.3368
 2683W        W 6734   6.776   7.237   4.379  0.1723  0.0816 -0.1029
 2684W        W 6735   1.705   0.841  13.245 -0.0565  0.2256  0.1931
 2685W        W 6736   5.521   4.375   2.052 -0.0698  0.0636  0.1549
 2686W        W 6737   0.787   5.426  10.061  0.0354  0.0105 -0.0396
 2687W        W 6738   4.534   6.924  11.356  0.0020  0.4252  0.2162
 2688W        W 6739   5.358   6.938  12.780  0.0794  0.1985 -0.1462
 2689W        W 6740   2.319   4.124  10.795  0.0477  0.3276 -0.1621
 2690W        W 6741   5.984  10.220   9.782 -0.3729 -0.0077 -0.0062
 2691W        W 6742   8.027   7.505   0.975 -0.1379 -0.1456 -0.1230
 2692W        W 6743   2.375   7.584   1.444  0.3179 -0.2441 -0.0848
 2693W        W 6744   4.787   6.170   1.147 -0.1884  0.0583  0.2441
 2694W        W 6745   4.075   2.571  11.708 -0.1113 -0.1336 -0.1873
 2695W        W 6746   4.258   7.183   0.201 -0.0053 -0.0504 -0.3131
 2696W        W 6747   8.164   6.764   9.502 -0.1797  0.1735  0.0609
 2697W        W 6748   5.311   6.205   1.113 -0.2119 -0.0896 -0.2099
 2698W        W 6749   0.262   2.180  10.062  0.0311  0.1985  0.2618
 2699W        W 6750   5.303   7.877   1.193 -0.3349  0.0019 -0.0796
 2700W        W 6751   9.716   1.677   1.869 -0.1047 -0.0516 -0.1641
 2701W        W 6752   8.670  10.423  12.042 -0.3934 -0.0470  0.0796
 2702W        W 6753   1.366   5.228   4.094 -0.2274  0.0758 -0.0066
 2703W        W 6754   7.909   8.356   2.622 -0.0744 -0.1058  0.1161
 2704W        W 6755   1.995   8.517  12.091  0.0201 -0.2620 -0.0287
 2705W        W 6756   0.913   7.305   8.545 -0.2494  0.1605 -0.3105
 2706W        W 6757   8.667   5.649  12.784 -0.1321 -0.0098 -0.0809
 2707W        W 6758   1.601   6.021   2.272 -0.1317 -0.2662 -0.0228
 2708W        W 6759   4.766   2.513  13.211 -0.0440  0.1711 -0.0876
 2709W        W 6760   1.715   1.953   9.925  0.0461  0.0610 -0.1109
 2710W        W 6761   8.195   1.445  13.273 -0.1631  0.0106 -0.1860
 2711W        W 6762  10.370   1.696  10.071  0.0635 -0.0271 -0.0604
 2712W        W 6763  10.322   1.074  12.285 -0.0785  0.0226 -0.1553
 2713W        W 6764   0.177   4.892   1.116 -0.1380 -0.1072  0.2054
 2714W        W 6765   2.084   7.001   1.498  0.0431  0.0071  0.0072
 2715W        W 6766  10.300   0.308  11.489  0.1021 -0.1001 -0.3236
 2716W        W 6767   2.453   1.229   8.985 -0.2477 -0.0859 -0.0293
 2717W        W 6768   0.877   8.761  10.286  0.1953 -0.2288  0.0088
 2718W        W 6769   5.076   8.206  10.659  0.0453  0.1213 -0.1640
 2719W        W 6770  10.422   4.842  10.338 -0.2169  0.1815 -0.1824
 2720W        W 6771   8.065   2.530  12.231  0.3576  0.1769 -0.3252
 2721W        W 6772   8.842   6.355   1.328 -0.1628 -0.0360 -0.1525
 2722W        W 6773   1.691   9.618  12.953 -0.0251  0.4370 -0.2556
 2723W        W 6774   4.934   3.086   5.184 -0.1030 -0.1937  0.0908
 2724W        W 6775   6.445   4.125  12.000 -0.0122 -0.0593  0.3836
 2725W        W 6776   3.250   2.930  11.664  0.3002 -0.0617 -0.3185
 2726W        W 6777   3.488   2.950   2.624  0.3108 -0.2331 -0.0247
 2727W        W 6778   9.163   9.096   9.747 -0.2689 -0.0389  0.0948
 2728W        W 6779   2.439   0.490  12.174 -0.2218 -0.0763  0.1038
 2729W        W 6780   2.371   7.854   0.538 -0.2657 -0.0868  0.1996
 2730W        W 6781   7.243   5.420  10.726  0.2406  0.2281  0.3039
 2731W        W 6782   8.115   0.677   2.625 -0.1543 -0.0977  0.3440
 2732W        W 6783   4.579   8.970  10.494  0.1095 -0.0493 -0.1808
 2733W        W 6784   5.287   9.380  13.193  0.0541 -0.0936 -0.1106
 2734W        W 6785   0.716   0.854  10.151  0.2192  0.2039  0.0286
 2735W        W 6786  10.199   9.561  10.001  0.1591  0.1439  0.3813
 2736W        W 6787   5.844   7.433   5.052 -0.1404  0.2775 -0.0773
 2737W        W 6788   7.768   2.591   2.701 -0.4353 -0.1591 -0.1513
 2738W        W 6789   4.099  10.148  12.448  0.0337  0.0404 -0.1821
 2739W        W 6790   5.890   8.544  12.839 -0.1549 -0.0651 -0.2432
 2740W        W 6791   7.685   2.246   2.384 -0.0750 -0.0600  0.3243
 2741W        W 6792   7.009   4.461   4.557 -0.1395  0.0509  0.2662
 2742W        W 6793   8.731   0.786   2.927 -0.1594 -0.1306  0.1197
 2743W        W 6794   6.552   6.553   3.276  0.0203  0.1588  0.0399
 2744W        W 6795   2.007   3.681   3.550 -0.1721 -0.0051  0.0896
 2745W        W 6796   9.733  10.383  12.110 -0.1232  0.2509 -0.1977
 2746W        W 6797   7.960   9.755   5.089 -0.1650 -0.1807 -0.1949
 2747W        W 6798   3.608   4.626  11.407 -0.1553  0.2129 -0.2459
 2748W        W 6799   6.083   5.384   5.485 -0.1177  0.1806  0.2422
 2749W        W 6800   4.579   5.787   0.216  0.0248 -0.1921 -0.0989
 2750W        W 6801   3.327   8.305  12.991  0.0093 -0.0130  0.0690
 2751W        W 6802   2.949   9.990  13.188 -0.1256 -0.2761 -0.2766
 2752W        W 6803   8.227   1.452  12.076 -0.2096 -0.2316  0.2999
 2753W        W 6804   8.418   4.461  12.079 -0.0181  0.0105  0.1736
 2754W        W 6805   6.987   2.663   0.654  0.0417  0.0400  0.0826
 2755W        W 6806   0.794   5.246  11.366  0.0335  0.1741  0.0469
 2756W        W 6807   9.515   0.381  10.818  0.0312  0.0268 -0.0285
 2757W        W 6808   7.436   3.570  11.394  0.0975  0.7494 -0.1012
 2758W        W 6809   8.174   7.987   0.990  0.0707 -0.0727  0.0633
 2759W        W 6810   9.002   8.056   2.438 -0.1173 -0.0460  0.1564
 2760W        W 6811   4.824   2.670   9.689 -0.0865 -0.1037 -0.0229
 2761W        W 6812   7.585   7.510   0.667 -0.0200  0.0347 -0.0181
 2762W        W 6813   6.215   9.580  11.866 -0.0666 -0.0269  0.0713
 2763W        W 6814   7.267   9.023   9.574 -0.0315 -0.0069 -0.5407
 2764W        W 6815   1.871   3.836   0.684 -0.0371 -0.2354 -0.0208
 2765W        W 6816   7.969   9.637   1.852  0.4761  0.2274  0.4133
 2766W        W 6817   9.754   4.050  11.635 -0.0160 -0.0563  0.0485
 2767W        W 6818   4.715   4.496   1.449  0.1114  0.2599 -0.0604
 2768W        W 6819   7.082   5.889   2.706  0.2926  0.1700 -0.1709
 2769W        W 6820   0.698   8.764  13.064  0.3181 -0.0776 -0.0767
 2770W        W 6821   5.387   0.081  10.597 -0.1553  0.1642  0.2164
 2771W        W 6822   0.850   2.470   5.364 -0.0702 -0.0802  0.2399
 2772W        W 6823   1.372   1.225   0.985 -0.3509  0.0150 -0.1742
 2773W        W 6824   9.857   7.787   1.733  0.0453  0.0618  0.0601
 2774W        W 6825   7.195   1.942   3.034 -0.2226 -0.1196  0.0741
 2775W        W 6826   2.475   8.185  12.791 -0.1779 -0.0610  0.0646
 2776W        W 6827   6.354   1.990   0.960  0.0509  0.1842  0.0280
 2777W        W 6828   2.302   9.272  11.417 -0.3874  0.0542 -0.1850
 2778W        W 6829   4.220   5.392   3.145 -0.2220 -0.2321  0.0555
 2779W        W 6830   7.665   3.374  10.495  0.2174 -0.1218 -0.0472
 2780W        W 6831   6.282   3.750  10.720 -0.1951  0.0052  0.2347
 2781W        W 6832   8.063   3.587  10.752 -0.0469  0.1444  0.1786
 2782W        W 6833   1.009   2.206  12.154 -0.1489  0.1039  0.2733
 2783W        W 6834   0.911   7.457   1.482  0.1506  0.0235 -0.1908
 2784W        W 6835   6.291   8.536   4.324 -0.2098  0.0609 -0.0621
 2785W        W 6836   1.464   1.765   3.728  0.0580  0.0259 -0.3756
 2786W        W 6837   1.469   1.264  11.431 -0.2089 -0.2401 -0.0256
 2787W        W 6838   5.505   4.544   4.463  0.0610  0.3117 -0.2857
 2788W        W 6839   7.470   1.068  12.025 -0.2276 -0.1309  0.0392
 2789W        W 6840   4.082   4.230   4.043 -0.0837 -0.1767  0.1718
 2790W        W 6841   4.218   9.548   9.911 -0.1722  0.2541  0.0036
 2791W        W 6842   1.128   0.297   3.514  0.5349  0.0343 -0.0044
 2792W        W 6843   8.462   8.852   9.246 -0.1416 -0.1188  0.1655
 2793W        W 6844   1.488   1.314   0.526 -0.2022 -0.2376 -0.3891
 2794W        W 6845   1.503   7.780   9.828 -0.0638  0.1632  0.0801
 2795W        W 6846   8.200   3.187   3.716 -0.2162  0.1644  0.0420
 2796W        W 6847   1.188   8.550  11.777  0.0703 -0.1491  0.2363
 2797W        W 6848   7.605   8.016   4.734  0.0806 -0.2103  0.3055
 2798W        W 6849   6.708   5.528  13.285 -0.1195 -0.0614 -0.1290
 2799W        W 6850   9.855   0.426  11.979 -0.0520 -0.1039  0.0334
 2800W        W 6851   5.362   2.981   0.619  0.0880  0.0864  0.2075
 2801W        W 6852   8.419   9.074   1.898  0.1142 -0.1592 -0.3091
 2802W        W 6853   2.126   1.976  12.590  0.1738 -0.2368 -0.1364
 2803W        W 6854   0.064   3.795   0.199  0.0828  0.0910  0.1659
 2804W        W 6855   0.000   1.502   2.658 -0.2655 -0.0235 -0.0195
 2805W        W 6856   9.145   0.539   3.013 -0.2153  0.2326  0.1434
 2806W        W 6857   1.120   3.296   0.621 -0.2385  0.1450 -0.1863
 2807W        W 6858   2.617   1.115   1.161  0.1124  0.3055  0.1596
 2808W        W 6859   5.197   9.244   3.638 -0.0263  0.2982 -0.2662
 2809W        W 6860   9.008   4.936   3.611 -0.0650  0.1119 -0.4290
 2810W        W 6861   6.840   4.720   2.796 -0.4995  0.1007  0.0616
 2811W        W 6862   7.030   3.208   0.636 -0.0108  0.1213  0.0596
 2812W        W 6863   1.141   6.866   8.388 -0.2119 -0.1490 -0.1126
 2813W        W 6864   7.792   7.096   0.913 -0.3436  0.2546 -0.0911
 2814W        W 6865   0.915   1.470   3.470  0.1568  0.6317 -0.0667
 2815W        W 6866   3.562   7.490   3.762  0.0142 -0.0192 -0.0188
 2816W        W 6867   1.790   1.598  11.210 -0.2501  0.0181 -0.0951
 2817W        W 6868   7.019   8.069  12.507 -0.1198 -0.0351 -0.1065
 2818W        W 6869   1.056   7.694   0.748 -0.0007 -0.2435  0.2113
 2819W        W 6870   8.838   1.539  10.869 -0.0870  0.2595  0.1895
 2820W        W 6871   2.056   4.658   2.340  0.0322 -0.0843 -0.1768
 2821W        W 6872   6.781   1.184   2.954  0.1216 -0.2883  0.0870
 2822W        W 6873  10.259   6.854   3.778  0.2836  0.3326  0.1086
 2823W        W 6874   6.734   8.919   1.758  0.0166 -0.2460 -0.3050
 2824W        W 6875   8.423   4.417  13.077 -0.1845  0.2939 -0.3240
 2825W        W 6876   3.684   0.773  11.391  0.0434  0.2984  0.1278
 2826W        W 6877   1.822   3.047   1.814  0.3391 -0.1701 -0.0415
 2827W        W 6878   4.595   6.567   9.664 -0.0598  0.1641 -0.2301
 2828W        W 6879   3.679  10.203   3.905  0.1065  0.0455  0.2677
 2829W        W 6880   6.428   2.785   9.441  0.1862  0.2131  0.2003
 2830W        W 6881   0.862   6.240   0.761 -0.1116  0.0384  0.1873
 2831W        W 6882   5.916   9.050   1.598  0.1222  0.0061 -0.1464
 2832W        W 6883   6.243   6.871   8.960 -0.0465  0.2954  0.0485
 2833W        W 6884   4.457   7.666   0.167  0.0681  0.3933  0.1282
 2834W        W 6885   9.901   5.885  10.432  0.1648  0.2690 -0.0501
 2835W        W 6886   0.714   9.794   0.986 -0.0851 -0.1834 -0.1718
 2836W        W 6887   1.066   9.403   3.951 -0.1768 -0.1664  0.0753
 2837W        W 6888   0.145   1.371   2.193  0.0984 -0.0646 -0.1323
 2838W        W 6889   6.129   0.528  11.548  0.3258 -0.1548  0.0494
 2839W        W 6890   4.953   8.592   1.530 -0.0310 -0.2584  0.1991
 2840W        W 6891   0.981   2.583  11.347 -0.2660  0.0135 -0.1330
 2841W        W 6892  10.297   0.452   9.853  0.1946  0.2763 -0.1160
 2842W        W 6893   0.792   0.321   0.832 -0.1372  0.2227 -0.3000
 2843W        W 6894   1.227   8.414  13.015  0.0698  0.1984  0.0988
 2844W        W 6895   8.105   3.488  12.044  0.4196 -0.0255  0.0157
 2845W        W 6896   2.842   6.176   0.578  0.1769  0.0593 -0.0265
 2846W        W 6897   8.440   0.302   2.514  0.0678 -0.0376  0.1912
 2847W        W 6898   9.781   4.171  11.171 -0.1268  0.0674 -0.1179
 2848W        W 6899   9.670   9.797   1.331  0.1462 -0.2487  0.2368
 2849W        W 6900   1.561   3.435   3.564  0.1726 -0.2236 -0.0923
 2850W        W 6901   9.556   7.846   0.956 -0.0792 -0.2402  0.3110
 2851W        W 6902   7.592   8.793   0.883  0.2086 -0.2666 -0.3802
 2852W        W 6903   6.041   1.721  12.228  0.0685 -0.1728  0.3053
 2853W        W 6904   4.575   9.929  10.812 -0.0406 -0.1007  0.0284
 2854W        W 6905   2.856   7.663   0.062 -0.1144  0.1364 -0.4211
 2855W        W 6906   4.451   3.050   3.516 -0.0248  0.0155 -0.0680
 2856W        W 6907   1.628   5.556   4.344  0.2030 -0.0564 -0.0005
 2857W        W 6908   2.745   0.090  11.894 -0.0291 -0.0276  0.0137
 2858W        W 6909   5.562   0.723   0.199 -0.2627  0.1854 -0.0515
 2859W        W 6910   0.821   2.943   3.977  0.0407  0.0000 -0.3532
 2860W        W 6911   0.804   5.038  12.722 -0.2125  0.0423  0.0584
 2861W        W 6912  10.316   9.061   9.205  0.2124 -0.4224 -0.4213
 2862W        W 6913   1.560   4.906  13.149 -0.0326 -0.1008 -0.0207
 2863W        W 6914   2.823   6.702   1.632  0.0713 -0.0792 -0.0533
 2864W        W 6915   8.717   0.699  13.031  0.1291  0.1479 -0.0191
 2865W        W 6916   5.307   2.602   9.576 -0.0118  0.0025 -0.1287
 2866W        W 6917   8.922   2.999   0.034 -0.1756  0.0932  0.0084
 2867W        W 6918   4.751   5.541  11.947 -0.0768  0.3845 -0.1510
 2868W        W 6919   0.138   8.262   9.997  0.2027 -0.1087 -0.0222
 2869W        W 6920   9.857   8.173  11.759 -0.2923  0.0576  0.0725
 2870W        W 6921   5.953   9.578   0.684 -0.0144  0.0391  0.2009
 2871W        W 6922   5.143   6.957   1.583  0.0206  0.1430  0.0485
 2872W        W 6923   2.841   4.180  11.103 -0.0586 -0.2224  0.1438
 2873W        W 6924   1.559   1.475   4.149  0.0390  0.1993  0.0092
 2874W        W 6925   0.352   9.613  12.094  0.1971 -0.1724  0.1831
 2875W        W 6926   6.775   4.691  11.178 -0.0638  0.2665 -0.2227
 2876W        W 6927   8.800  10.240   1.017  0.1033  0.0110 -0.2466
 2877W        W 6928   9.209   2.379  11.332  0.0013 -0.0263  0.0296
 2878W        W 6929   9.946   1.784   0.958  0.0679  0.2159  0.1265
 2879W        W 6930   8.177   9.380   1.147  0.2922 -0.2312  0.2077
 2880W        W 6931   2.947   1.473   0.362  0.1747 -0.1057 -0.0143
 2881W        W 6932   0.155   2.659  10.085 -0.1540  0.0091 -0.4464
 2882W        W 6933   4.940   1.580  11.202  0.0187  0.0338  0.0547
 2883W        W 6934   1.007   5.938  10.062 -0.3476 -0.0936  0.3358
 2884W        W 6935   2.565   8.881   1.929  0.1331  0.2821 -0.4935
 2885W        W 6936   1.521   1.416   2.848 -0.3279 -0.1014 -0.0396
 2886W        W 6937   7.340   5.722   1.750 -0.0892  0.0848 -0.1456
 2887W        W 6938   4.070   9.729   1.919 -0.2345 -0.3649 -0.2495
 2888W        W 6939   3.391   1.844   0.640 -0.1276 -0.1549 -0.0454
 2889W        W 6940   9.319   6.992  10.370 -0.5408 -0.1088  0.2856
 2890W        W 6941   6.939   4.415  10.779 -0.1581 -0.1221  0.0352
 2891W        W 6942   7.261   4.112   9.335 -0.4943  0.3120 -0.1573
 2892W        W 6943   9.333   4.099  10.905  0.2308 -0.0817  0.0433
 2893W        W 6944   3.530   0.067  10.805  0.0391  0.2009  0.0319
 2894W        W 6945   7.042   6.260   9.179  0.1557 -0.0211 -0.0396
 2895W        W 6946   1.032   7.017   1.672 -0.0908 -0.1072 -0.3043
 2896W        W 6947   9.432   2.077   2.014  0.0603 -0.0101  0.0515
 2897W        W 6948   0.690   9.698   9.894 -0.0747  0.3453  0.1199
 2898W        W 6949   0.640   1.854   3.672 -0.0238  0.0101  0.0141
 2899W        W 6950   2.420   3.057   9.776  0.3014 -0.3622  0.3731
 2900W        W 6951   2.623   0.205   9.641 -0.3835 -0.0369 -0.1409
 2901W        W 6952   4.917   3.101   4.669 -0.0165 -0.3031 -0.1359
 2902W        W 6953   2.546   9.784   4.312  0.1743  0.0192  0.1484
 2903W        W 6954   8.230   6.728   0.762  0.0264 -0.1339  0.2535
 2904W        W 6955  10.038   4.823   4.761 -0.0911 -0.1849  0.0442
 2905W        W 6956   7.794   6.366   2.434  0.3415 -0.1380 -0.0186
 2906W        W 6957   0.292   1.769  11.235  0.0697  0.1691  0.0681
 2907W        W 6958   9.976   7.431  12.459 -0.2762 -0.2407 -0.1871
 2908W        W 6959   9.123   0.131   9.488  0.0121 -0.0163 -0.1648
 2909W        W 6960   2.165   6.843   0.587 -0.0025  0.0706 -0.0426
 2910W        W 6961   5.251   8.154   0.296  0.2766  0.4246  0.1297
 2911W        W 6962   4.293   2.286  12.131 -0.0195 -0.0055  0.0386
 2912W        W 6963   7.928   4.299   3.501 -0.0244  0.1970  0.0589
 2913W        W 6964   5.074   7.774  13.286  0.2216  0.0869 -0.0849
 2914W        W 6965   4.004   7.789  10.202 -0.1453 -0.0262  0.0183
 2915W        W 6966   7.864   1.195   9.947 -0.0558  0.0501  0.3315
 2916W        W 6967   4.497   0.484   9.381  0.2219  0.1151 -0.1191
 2917W        W 6968   4.618   0.826   0.011 -0.0083  0.1591 -0.2146
 2918W        W 6969   5.739   0.789   5.788  0.0870  0.0164  0.1549
 2919W        W 6970   5.034   5.294   3.537  0.0811 -0.0953 -0.3196
 2920W        W 6971   4.436   9.449   1.545  0.0223  0.3123  0.1955
 2921W        W 6972   5.679   1.680  11.684  0.3557 -0.2073 -0.2553
 2922W        W 6973   6.339   3.678   0.704  0.0088 -0.0120 -0.1809
 2923W        W 6974   4.984   9.718   3.510  0.1359  0.3456 -0.2568
 2924W        W 6975   6.544   2.844   4.072 -0.1558  0.0210 -0.2397
 2925W        W 6976   1.483  10.348   1.099  0.3779 -0.2882  0.1147
 2926W        W 6977   6.279   7.643   3.491 -0.1767 -0.3165  0.3311
 2927W        W 6978   0.764   9.431   2.324 -0.0300 -0.1146 -0.1158
 2928W        W 6979   3.072   0.192   9.432 -0.0652 -0.0331 -0.1123
 2929W        W 6980   3.131   8.730  12.841 -0.0953 -0.2536 -0.2633
 2930W        W 6981   1.597   4.646   0.920 -0.0430 -0.0971  0.1906
 2931W        W 6982   7.222   3.873   4.147 -0.0946 -0.1630  0.1029
 2932W        W 6983   0.202   7.190   0.973 -0.0233 -0.0343  0.2204
 2933W        W 6984   1.997   3.404   1.061 -0.2333  0.1935  0.0910
 2934W        W 6985   1.687   9.382   9.309 -0.1562 -0.1972 -0.3254
 2935W        W 6986   2.148  10.241   0.287 -0.5171  0.2963  0.2445
 2936W        W 6987   0.042   8.623   1.582  0.1647 -0.5136  0.1968
 2937W        W 6988   9.802   6.001  13.217 -0.1851 -0.3514  0.0088
 2938W        W 6989   7.078   6.307  10.956 -0.1515 -0.0926  0.2057
 2939W        W 6990   7.964   0.860  12.723 -0.0558 -0.0433  0.2777
 2940W        W 6991   7.142   0.445   3.619  0.2257  0.1761  0.0555
 2941W        W 6992   9.010   0.254   4.133  0.1364 -0.3641 -0.2481
 2942W        W 6993   3.440   7.300  12.216  0.1964  0.0735  0.0284
 2943W        W 6994   3.146   7.698  13.035  0.0913 -0.1426  0.0705
 2944W        W 6995   0.950   1.307  11.704  0.0867  0.1567  0.2503
 2945W        W 6996   0.321   1.704   9.694  0.0725 -0.0799 -0.0369
 2946W        W 6997   8.007   9.244   3.356 -0.4758  0.0733  0.0439
 2947W        W 6998   3.780   2.041   3.594  0.0606 -0.0169 -0.3344
 2948W        W 6999   0.426   0.098  11.617 -0.2688 -0.0433 -0.1012
 2949W        W 7000   7.437   0.607   3.174 -0.3904  0.0193 -0.1907
 2950W        W 7001   6.359   5.329  12.164  0.0134 -0.1043  0.0108
 2951W        W 7002   9.862   3.075   3.701 -0.1698 -0.1116 -0.1182
 2952W        W 7003   8.023   4.078  11.419  0.1515  0.1702 -0.0599
 2953W        W 7004   7.017   8.415   1.574 -0.2634 -0.0876  0.1227
 2954W        W 7005   6.138   6.016  10.943  0.0200 -0.2455  0.1017
 2955W        W 7006   8.772   5.075  12.561 -0.2175 -0.0277 -0.3668
 2956W        W 7007   6.805   2.574   1.546  0.0545 -0.2151 -0.2986
 2957W        W 7008   2.573   6.041   2.270 -0.0163  0.0076 -0.0344
 2958W        W 7009   7.748   3.292   4.584  0.2958  0.1527  0.1880
 2959W        W 7010   2.738   8.709   3.830  0.0981  0.2032 -0.0060
 2960W        W 7011   4.409   0.696   0.545 -0.0792  0.0813  0.2595
 2961W        W 7012   9.136   7.926  11.136  0.1883  0.0858  0.1424
 2962W        W 7013   4.234   0.420   8.984  0.0728  0.1305 -0.0386
 2963W        W 7014   5.240   0.282   1.406 -0.1592 -0.0245 -0.0354
 2964W        W 7015   4.477   6.136   3.725  0.0331 -0.1565  0.0148
 2965W        W 7016   5.317   2.249   2.014 -0.0029  0.0460 -0.1731
 2966W        W 7017   9.013   2.115  13.343  0.3750  0.0009  0.1616
 2967W        W 7018   4.546   7.693   0.666  0.6346 -0.1283 -0.0665
 2968W        W 7019   5.332   9.390   4.994 -0.1264 -0.0655  0.0457
 2969W        W 7020   2.612   0.600  10.037 -0.4066 -0.1193  0.0611
 2970W        W 7021   5.358   2.121   9.359 -0.1324 -0.0092  0.0354
 2971W        W 7022   9.113   5.446  12.586  0.0100  0.3401  0.1477
 2972W        W 7023   2.343   8.995   3.800 -0.2377 -0.0195 -0.0873
 2973W        W 7024   7.549   7.999   1.448 -0.1223 -0.3216  0.0577
 2974W        W 7025   9.969   8.805   9.509 -0.0291  0.2394 -0.0201
 2975W        W 7026   4.823   1.868   1.228 -0.3034 -0.1825  0.1284
 2976W        W 7027   0.334   2.673  12.807 -0.1523 -0.0519 -0.1112
 2977W        W 7028   0.117   0.725   2.498 -0.3650  0.1411 -0.0341
 2978W        W 7029   7.821   2.039   1.595  0.0765 -0.0964  0.1702
 2979W        W 7030   1.533   4.700   4.137  0.1977 -0.0750 -0.1854
 2980W        W 7031   5.011   3.687  11.856 -0.1119 -0.2393 -0.0162
 2981W        W 7032   3.309   6.611   3.384  0.0825  0.2163  0.2027
 2982W        W 7033   3.945   8.983  12.343  0.1548  0.1233 -0.2099
 2983W        W 7034   4.458   3.661  10.880 -0.1115  0.0392 -0.0729
 2984W        W 7035   6.879   2.885   3.163  0.1897  0.1276  0.0836
 2985W        W 7036   1.430   0.429   2.281 -0.2756  0.2421  0.3160
 2986W        W 7037   4.188   5.352   1.290 -0.0972 -0.2473  0.0771
 2987W        W 7038   8.414   5.937   1.127 -0.2195 -0.1153 -0.1468
 2988W        W 7039   4.340   3.795   3.981 -0.4629  0.1804  0.0439
 2989W        W 7040   7.334   8.475   0.548  0.0207 -0.2290  0.0053
 2990W        W 7041   2.867   3.476   5.270 -0.0927 -0.0266 -0.1851
 2991W        W 7042  10.257   2.405   2.238 -0.0053  0.0105 -0.2393
 2992W        W 7043   5.904   4.787  10.047 -0.0698  0.2611 -0.0654
 2993W        W 7044   1.031   5.709   3.488 -0.2030 -0.3292 -0.0603
 2994W        W 7045   3.981   2.126  11.261  0.0101 -0.0679  0.6131
 2995W        W 7046   5.339   2.855   3.293 -0.1245  0.0628  0.0159
 2996W        W 7047   1.280   3.879   1.386 -0.0730  0.3489  0.1931
 2997W        W 7048   2.636   2.516   1.964 -0.1826  0.2092 -0.0758
 2998W        W 7049   4.030   0.538   4.510  0.1861 -0.1009  0.0135
 2999W        W 7050   9.875   3.807   3.767 -0.2144  0.2293 -0.1968
 3000W        W 7051   8.375   8.254  12.071 -0.1906  0.0164  0.4579
 3001W        W 7052   5.675   7.508   8.696 -0.0454  0.1473 -0.0403
 3002W        W 7053   0.180   6.140   9.552 -0.1511 -0.1262  0.0403
 3003W        W 7054   4.973   7.843  10.285  0.1024 -0.1798 -0.2416
 3004W        W 7055   7.497   9.123  13.332  0.2146  0.2437  0.0332
 3005W        W 7056   0.248   8.677   4.124  0.1007 -0.2926 -0.2695
 3006W        W 7057   8.586   0.625  10.458  0.0775  0.0623  0.1047
 3007W        W 7058   5.818   5.616  12.299 -0.0981 -0.0507  0.0901
 3008W        W 7059   3.947   7.803   9.672 -0.1615  0.0229 -0.1642
 3009W        W 7060   1.504   3.813   2.305 -0.0763  0.1735  0.1130
 3010W        W 7061   2.280   5.022   0.439  0.2626  0.1154  0.0175
 3011W        W 7062   9.223   5.957  11.196  0.2208  0.0038 -0.2856
 3012W        W 7063  10.195   0.951   2.227 -0.1467  0.0256  0.1457
 3013W        W 7064   2.233   9.484  12.228 -0.2046 -0.2097 -0.0133
 3014W        W 7065   5.362   8.736   4.795 -0.4793  0.0370 -0.1927
 3015W        W 7066   6.546   5.795  10.667 -0.0531 -0.1271  0.0453
 3016W        W 7067   8.546   9.059  11.061 -0.3087 -0.1757  0.3347
 3017W        W 7068   0.311   3.170   3.066  0.2717  0.1330 -0.2190
 3018W        W 7069   5.150   3.973  12.335 -0.3815 -0.1687 -0.0700
 3019W        W 7070   5.593   2.196  12.386  0.1369 -0.1650 -0.0147
 3020W        W 7071   3.086   1.785  12.583 -0.0285  0.1356 -0.1009
 3021W        W 7072   7.758   0.347   3.466  0.1514 -0.0230  0.3003
 3022W        W 7073   7.436   7.223  12.090  0.0992 -0.0533 -0.0004
 3023W        W 7074   6.112   2.381   0.227 -0.0404  0.6503 -0.1519
 3024W        W 7075   5.035   6.568  12.670 -0.2358  0.0680 -0.1270
 3025W        W 7076   3.084   3.119  10.326  0.0255 -0.5000 -0.1931
 3026W        W 7077   1.429   0.271  10.832  0.1622 -0.1195 -0.0479
 3027W        W 7078   7.869   3.187  11.016 -0.2514 -0.0352  0.1963
 3028W        W 7079   2.176   0.691  10.290  0.1037 -0.1272  0.2414
 3029W        W 7080   5.231   3.855   2.962  0.0918  0.1923  0.1170
 3030W        W 7081   4.860   8.353   1.051  0.1511  0.0392  0.2275
 3031W        W 7082   4.762   0.718   2.875  0.2419 -0.0832  0.0600
 3032W        W 7083   9.602   8.918   3.459  0.1128 -0.0199 -0.3358
 3033W        W 7084   8.704   9.751   9.790  0.2354 -0.1210  0.2646
 3034W        W 7085   6.430   0.283   1.003  0.0089 -0.0923 -0.0271
 3035W        W 7086  10.327   4.417  13.038 -0.1741 -0.0111 -0.1565
 3036W        W 7087   4.780   3.631   0.937  0.3378 -0.3094 -0.1352
 3037W        W 7088   0.343   6.035   3.788  0.1320  0.0312 -0.1406
 3038W        W 7089   1.631   6.841  10.743 -0.0836  0.1010  0.4005
 3039W        W 7090   2.120   3.049   3.725  0.2081 -0.0218  0.0548
 3040W        W 7091   0.402   5.953   0.578 -0.1093  0.1455  0.1012
 3041W        W 7092   1.842   0.499   3.885 -0.1128  0.1411  0.0337
 3042W        W 7093   5.460   4.770  10.293  0.0137 -0.1167 -0.0744
 3043W        W 7094  10.245   3.712  12.541 -0.0467 -0.0267 -0.0307
 3044W        W 7095   2.525   8.153   1.629 -0.0124  0.1811  0.2277
 3045W        W 7096   2.125   9.933   4.073 -0.1572  0.1431 -0.0024
 3046W        W 7097   5.309   5.745   3.517 -0.1924 -0.1701 -0.0707
 3047W        W 7098   6.250   6.334   2.538 -0.2533 -0.1777  0.0923
 3048W        W 7099   2.038   3.531  11.617  0.2421 -0.1495 -0.0022
 3049W        W 7100   2.644   1.402  12.501  0.0875 -0.2131  0.2043
 3050W        W 7101   9.373   5.680   2.596  0.0715 -0.2376 -0.1019
 3051W        W 7102  10.045   7.857  12.154  0.0037  0.2422  0.1887
 3052W        W 7103   8.951   3.763  10.286 -0.3392  0.0139  0.0166
 3053W        W 7104   1.543   5.067  10.454  0.0481  0.0863  0.2179
 3054W        W 7105   0.625   1.399   8.820  0.0625  0.0763  0.0430
 3055W        W 7106   3.137   0.584   2.129 -0.2056  0.0707 -0.0903
 3056W        W 7107   8.511   8.376  13.036  0.2058  0.0275 -0.0362
 3057W        W 7108   9.288   0.292   1.942 -0.1284 -0.0304 -0.0629
 3058W        W 7109   9.136   2.704   1.265 -0.0070  0.3650 -0.3398
 3059W        W 7110   0.918   2.001   9.365 -0.3197 -0.0949 -0.0667
 3060W        W 7111  10.136   0.268   0.126  0.3481  0.0990 -0.0989
 3061W        W 7112   3.025   7.599  12.022 -0.0195  0.0746 -0.2334
 3062W        W 7113  10.345   4.062   1.410  0.1294 -0.0456  0.1279
 3063W        W 7114   5.435   8.808   1.476  0.1395 -0.0737 -0.0413
 3064W        W 7115   5.516   2.831   1.074 -0.3140  0.3419 -0.2032
 3065W        W 7116   5.162   3.382   3.186 -0.2828 -0.0151  0.1187
 3066W        W 7117   5.428   3.718   4.286  0.1896 -0.0683  0.3384
 3067W        W 7118   2.569   8.913   3.313  0.0442 -0.0678  0.0965
 3068W        W 7119   9.924   3.745  12.109 -0.2480 -0.1735 -0.1209
 3069W        W 7120   1.323   2.017   4.850  0.0318  0.1504  0.0655
 3070W        W 7121   7.189   2.601   1.956 -0.1494  0.2278 -0.0358
 3071W        W 7122   3.712   9.696   2.701  0.2675 -0.0939 -0.0470
 3072W        W 7123   6.062   3.321   0.411 -0.1508 -0.0558 -0.1356
 3073W        W 7124   3.144   1.546   1.793  0.2006  0.0016 -0.0550
 3074W        W 7125   8.932   6.862  13.282  0.2503 -0.0425  0.0212
 3075W        W 7126   2.440   0.797   1.759 -0.4584  0.0524  0.5049
 3076W        W 7127   9.269   3.852  11.875  0.0056 -0.1205  0.0923
 3077W        W 7128   7.456   4.348   1.766 -0.2255 -0.1204 -0.4236
 3078W        W 7129   7.953   2.245  12.986  0.2017  0.1454  0.1233
 3079W        W 7130   7.891   6.276   3.920  0.2380  0.0514  0.2034
 3080W        W 7131   1.778   3.852   1.369  0.0527  0.0898  0.1056
 3081W        W 7132   9.795   9.885  12.245 -0.1474  0.0079  0.2735
 3082W        W 7133   3.527   0.508   2.435 -0.4085 -0.3391  0.0920
 3083W        W 7134   8.230   1.027  10.259 -0.2836 -0.0765 -0.3715
 3084W        W 7135   2.378   1.216   9.996  0.1128  0.2309 -0.0112
 3085W        W 7136   1.388   4.386   1.506  0.3723  0.1445  0.2309
 3086W        W 7137   5.647   2.265  12.852 -0.1869  0.0945 -0.0261
 3087W        W 7138   9.344   2.265  10.329 -0.1140  0.0544  0.1889
 3088W        W 7139   0.079   7.904   1.203 -0.0637  0.2034 -0.0451
 3089W        W 7140   7.754   3.392   3.968 -0.0580  0.1875  0.1562
 3090W        W 7141   3.227   9.833  12.258 -0.0356 -0.1705 -0.0535
 3091W        W 7142   4.277   4.642   1.595 -0.3319  0.2019  0.0654
 3092W        W 7143   7.705   1.538  11.886  0.0333 -0.1961 -0.0803
 3093W        W 7144   9.151   8.297   4.814  0.0959  0.1612 -0.0396
 3094W        W 7145   2.062   4.710   0.004 -0.0264 -0.2879 -0.0805
 3095W        W 7146   6.891   2.010   9.696 -0.1037  0.0516  0.0027
 3096W        W 7147   8.482   1.253  11.577  0.1960  0.3652  0.0538
 3097W        W 7148   3.989   8.945   3.359 -0.2388  0.0147  0.1317
 3098W        W 7149   6.707   4.654   0.483  0.0300 -0.1785 -0.3519
 3099W        W 7150   0.893   2.395   3.505 -0.1006 -0.2988  0.0413
 3100W        W 7151   2.632   1.260   3.300 -0.0521  0.1978 -0.0440
 3101W        W 7152   6.172   8.297  13.267  0.1754  0.2264  0.1432
 3102W        W 7153   9.863   0.538   0.465 -0.3218 -0.0074 -0.3549
 3103W        W 7154   0.033   2.924   9.396  0.1208 -0.2725  0.0654
 3104W        W 7155   7.796   6.358  11.114 -0.1456 -0.2274 -0.2381
 3105W        W 7156   6.885   5.490   1.105 -0.0135  0.1918  0.0972
 3106W        W 7157   8.063   7.935   0.042  0.1107 -0.1636  0.2964
 3107W        W 7158   8.106   1.957  11.954  0.2368  0.0091 -0.5021
 3108W        W 7159   5.897   9.200   2.150  0.1668 -0.1595  0.0367
 3109W        W 7160   8.851   8.682   3.029  0.0708  0.1893  0.1817
 3110W        W 7161   3.676   2.971   9.109 -0.1664  0.0692 -0.0539
 3111W        W 7162   5.484   2.988   2.799  0.2679 -0.0249  0.2692
 3112W        W 7163   8.489   6.421   1.738  0.1476  0.3054  0.5134
 3113W        W 7164   7.702   0.696  11.852 -0.2433  0.2724  0.0005
 3114W        W 7165   4.180   0.540   0.943 -0.1779  0.0608 -0.1434
 3115W        W 7166   2.629   2.007   9.032  0.1309  0.0948  0.3723
 3116W        W 7167   5.097   3.586   4.966  0.1480  0.1884 -0.0419
 3117W        W 7168   2.594   7.623  10.860 -0.0025 -0.0226 -0.2312
 3118W        W 7169   6.917   4.131  11.878 -0.1764 -0.0400 -0.0729
 3119W        W 7170   3.171   2.797   5.525 -0.0088 -0.1312 -0.5869
 3120W        W 7171   5.591   0.806   4.403  0.1437 -0.3400  0.0666
 3121W        W 7172   5.186   5.976   0.195  0.1389  0.0206 -0.0735
 3122W        W 7173   7.587   4.421   9.616  0.0233 -0.1636 -0.0995
 3123W        W 7174   2.684   1.592   4.622  0.2223 -0.1484  0.1069
 3124W        W 7175   8.920   1.549   1.136 -0.0767 -0.2950 -0.0005
 3125W        W 7176   2.517   1.959  12.259 -0.2610  0.0205 -0.1520
 3126W        W 7177   3.879   0.146  10.370  0.0773  0.2883 -0.2233
 3127W        W 7178   0.401   7.907  10.843  0.1687 -0.2267 -0.1063
 3128W        W 7179   2.639   2.800   0.856  0.2223 -0.1711  0.4758
 3129W        W 7180   5.190   7.655   4.554  0.0680 -0.1588  0.2044
 3130W        W 7181   7.039   2.183  13.012 -0.2853 -0.2275  0.2527
 3131W        W 7182   6.774   5.384   9.256  0.3782 -0.1071  0.0923
 3132W        W 7183   4.621   8.262   1.529 -0.1802  0.2511  0.0870
 3133W        W 7184   8.276   5.207   4.729 -0.0517  0.1027 -0.0336
 3134W        W 7185   6.990   8.406   3.641  0.2559 -0.1863 -0.0236
 3135W        W 7186   8.124   1.046  10.764 -0.2180 -0.1418  0.0356
 3136W        W 7187   5.027   8.810  11.437 -0.2422  0.2200  0.0316
 3137W        W 7188  10.042   2.791  11.767  0.1224  0.3183  0.3082
 3138W        W 7189   7.074   0.168   9.015 -0.0805  0.2439  0.3982
 3139W        W 7190   2.652   7.162   0.045  0.1018 -0.0342 -0.0227
 3140W        W 7191   8.391   4.228   3.256 -0.1891 -0.3382  0.0484
 3141W        W 7192   6.798   1.316  10.912 -0.0562  0.0576 -0.2758
 3142W        W 7193   1.677   6.118  12.097  0.1172 -0.0343  0.1206
 3143W        W 7194   8.882   1.126  11.257 -0.0084  0.2614 -0.4014
 3144W        W 7195   1.093   2.219   2.991  0.1125 -0.0715 -0.1249
 3145W        W 7196   9.372   4.862  11.249  0.1117 -0.3450 -0.0792
 3146W        W 7197  10.393   1.999  10.978  0.0597  0.0422  0.2703
 3147W        W 7198   9.242   1.554   1.941 -0.3928 -0.1683  0.1774
 3148W        W 7199   0.366   2.620   9.544  0.0260 -0.0402 -0.1581
 3149W        W 7200   8.395   5.006   4.025 -0.2000  0.2067 -0.0953
 3150W        W 7201   5.323   5.155  11.500 -0.0900  0.2595  0.0222
 3151W        W 7202   3.839   8.289   1.354  0.3137 -0.2306 -0.0228
 3152W        W 7203   2.903   3.301   3.409 -0.1407  0.0580 -0.1167
 3153W        W 7204   7.634   6.357   0.595  0.1770 -0.0939 -0.0244
 3154W        W 7205   1.733   7.663   1.390 -0.2464  0.1962 -0.1937
 3155W        W 7206  10.381   6.446   0.558 -0.1445  0.5119 -0.1100
 3156W        W 7207   4.392   2.708   0.187  0.1490 -0.0513 -0.0211
 3157W        W 7208   5.369   3.094  13.252  0.3179  0.1211 -0.1375
 3158W        W 7209   2.360   7.103   1.079 -0.3254 -0.1727 -0.1196
 3159W        W 7210  10.273   0.956   0.350 -0.1097  0.0431  0.0501
 3160W        W 7211   2.329   5.074  13.056  0.0981  0.2322  0.0244
 3161W        W 7212   0.480   3.761  11.422 -0.1724 -0.3382  0.0156
 3162W        W 7213   9.814   4.897   1.763 -0.2389 -0.2494  0.0228
 3163W        W 7214   1.501   4.655  10.098 -0.1229  0.2322 -0.0783
 3164W        W 7215   2.734   8.698  11.037 -0.1213  0.0709  0.0783
 3165W        W 7216   0.686   6.640   0.002  0.1765  0.5028  0.1345
 3166W        W 7217   2.602   6.296  12.151  0.2109  0.0546  0.0135
 3167W        W 7218   1.871   5.128   4.197 -0.0530  0.1480  0.1926
 3168W        W 7219   5.131   5.697  10.008 -0.1919 -0.4315  0.1453
 3169W        W 7220   7.869   3.831   1.849  0.1912  0.1360  0.1174
 3170W        W 7221   3.231   4.149   4.668 -0.0704 -0.0953  0.0293
 3171W        W 7222   5.149   1.571   9.995 -0.1071 -0.1421  0.2923
 3172W        W 7223   8.535   4.208  11.648  0.0576 -0.3144 -0.0959
 3173W        W 7224   7.015   6.053   3.831  0.0223 -0.2175  0.1232
 3174W        W 7225  10.169   4.214  11.896 -0.0854 -0.4390 -0.0158
 3175W        W 7226   0.819  10.302   2.605 -0.3065  0.1156  0.4485
 3176W        W 7227   3.558   8.496  12.524 -0.2707  0.1576 -0.2071
 3177W        W 7228   8.116   6.352  13.049 -0.0539 -0.1009 -0.3187
 3178W        W 7229   9.040   1.227   2.264 -0.1454  0.0535 -0.1698
 3179W        W 7230   4.094   9.423   3.766 -0.2285 -0.2134  0.1902
 3180W        W 7231   4.885   1.085  10.712  0.2420 -0.3622  0.0342
 3181W        W 7232   7.865  10.354   3.758 -0.2079  0.0259 -0.0371
 3182W        W 7233   7.045   5.472   0.334  0.3797 -0.0139  0.1551
 3183W        W 7234   6.321   5.790   3.374  0.1338 -0.0755  0.1332
 3184W        W 7235   5.463   9.272   1.759 -0.0466 -0.4130  0.1303
 3185W        W 7236   9.008   5.693  13.252 -0.0958 -0.2663  0.0381
 3186W        W 7237   0.063   3.473   1.191  0.0133  0.0685  0.3289
 3187W        W 7238   9.427   6.156   0.773  0.3711  0.0313  0.0507
 3188W        W 7239   2.811   5.810  10.308 -0.0515 -0.0694 -0.1745
 3189W        W 7240   5.220   7.833   2.346  0.1812  0.0564  0.2526
 3190W        W 7241   2.487   6.383  13.154  0.0784  0.1054 -0.2495
 3191W        W 7242   0.708   9.623   0.207 -0.1798  0.0435  0.0999
 3192W        W 7243   0.539   6.899   1.262  0.1863 -0.1842  0.1163
 3193W        W 7244   6.988   2.920  10.714 -0.0510  0.1197  0.2550
 3194W        W 7245   9.465   0.749  11.709  0.3822 -0.1941  0.2398
 3195W        W 7246   4.184   7.927   1.396 -0.0580  0.0743  0.1229
 3196W        W 7247  10.355   3.548  13.123 -0.1940  0.3053 -0.0885
 3197W        W 7248   0.219   0.675   9.281  0.0591 -0.0863  0.2464
 3198W        W 7249   5.921   8.081   0.393  0.0356  0.2224  0.1210
 3199W        W 7250   1.112   1.884   2.462 -0.0110 -0.1532  0.1084
 3200W        W 7251   2.478   4.445   2.542  0.1937  0.1656  0.1169
 3201W        W 7252   7.921   5.838   1.026 -0.0424 -0.2377 -0.0955
 3202W        W 7253   7.870   7.207   2.014  0.0052  0.0731  0.2677
 3203W        W 7254   2.452   3.470   3.754 -0.0394 -0.0503  0.0048
 3204W        W 7255   6.839   6.978   3.377 -0.0322 -0.0169  0.2788
 3205W        W 7256   9.531  10.228   9.570 -0.2977  0.1592  0.1405
 3206W        W 7257  10.358   0.273   9.385  0.2234  0.0179 -0.1656
 3207W        W 7258   4.331   3.479   4.370  0.1176  0.0662 -0.1161
 3208W        W 7259   6.869   6.496  12.700  0.5201 -0.1593 -0.0951
 3209W        W 7260   9.428   6.609   2.672 -0.1387 -0.0937 -0.0868
 3210W        W 7261   4.699   7.886   1.153  0.0392 -0.0610 -0.0243
 3211W        W 7262   8.457   1.407   1.739 -0.1380 -0.1036 -0.0706
 3212W        W 7263   5.023   1.787  12.171  0.3171 -0.0160 -0.0134
 3213W        W 7264   9.832   5.866   2.831 -0.1467 -0.0070  0.1941
 3214W        W 7265   0.741   9.831  13.136 -0.2295 -0.4324  0.1062
 3215W        W 7266   7.030   3.887   0.731  0.0314  0.0716  0.0906
 3216W        W 7267   1.691   9.471   2.218 -0.2229  0.0248 -0.2115
 3217W        W 7268   9.396   5.795  12.904 -0.3483 -0.2462 -0.2007
 3218W        W 7269  10.305   0.169  13.032  0.0065 -0.0270 -0.1800
 3219W        W 7270   4.877   2.347   1.382  0.1063  0.4868  0.2473
 3220W        W 7271   9.821   5.226   4.468 -0.1544 -0.0748  0.1955
 3221W        W 7272   4.157   4.292   9.922  0.1761 -0.0035 -0.0259
 3222W        W 7273   6.079   4.455   2.824  0.2328 -0.1866 -0.0534
 3223W        W 7274   5.504   0.027   3.640 -0.1803  0.0721 -0.4676
 3224W        W 7275   9.239   2.408   3.894  0.0713  0.4169 -0.2692
 3225W        W 7276   8.791   8.765  12.755  0.0335  0.0315 -0.2780
 3226W        W 7277   1.800   2.864   2.317 -0.1258  0.3142  0.1350
 3227W        W 7278   0.490   1.294  11.369 -0.0467 -0.1320  0.2598
 3228W        W 7279   5.931   7.533   0.528 -0.3007  0.0251  0.1367
 3229W        W 7280   6.530   3.871   1.211 -0.1887 -0.0301  0.2777
 3230W        W 7281   1.401   6.820   2.837  0.1014 -0.0512 -0.1733
 3231W        W 7282   0.405   4.739   4.292  0.0846  0.0653 -0.0483
 3232W        W 7283   6.555   6.002  11.241  0.0639  0.0097 -0.0039
 3233W        W 7284   5.112   9.826  12.651 -0.0307  0.2426 -0.0355
 3234W        W 7285   6.404   9.414  12.290 -0.1474 -0.0263 -0.0198
 3235W        W 7286   2.480   2.934   4.784  0.1203  0.1644 -0.1649
 3236W        W 7287   9.538   5.339  10.040 -0.5019  0.1453  0.1270
 3237W        W 7288   9.609   3.843   4.271 -0.1896  0.1892  0.2635
 3238W        W 7289   3.189   0.229  11.661  0.1512 -0.1571  0.0677
 3239W        W 7290   9.314   0.015   3.157  0.1779 -0.3740  0.0227
 3240W        W 7291   4.613   7.923   9.927  0.3097 -0.0658  0.3530
 3241W        W 7292   3.994   0.877  11.806  0.2147 -0.2841  0.1571
 3242W        W 7293   7.172   7.661   2.349 -0.5079 -0.0722 -0.2152
 3243W        W 7294   7.480   5.930  11.812  0.3786  0.0701 -0.0734
 3244W        W 7295   7.949   4.292   1.872  0.1319  0.0361  0.1592
 3245W        W 7296  10.172   4.055   2.864 -0.4109  0.1140  0.3317
 3246W        W 7297   5.529   8.660  12.502 -0.1327 -0.2621  0.0026
 3247W        W 7298   1.009   9.586   3.173 -0.1065  0.1739 -0.0943
 3248W        W 7299   5.960   5.258  12.774  0.1425 -0.0020  0.0654
 3249W        W 7300   8.299   3.578   0.318 -0.3265  0.1492 -0.0709
 3250W        W 7301   8.664   7.496   9.107 -0.1409 -0.4263  0.1745
 3251W        W 7302   1.848   8.895   9.255 -0.0636  0.0816  0.0413
 3252W        W 7303   6.568   3.271  11.560 -0.1233  0.1245  0.2394
 3253W        W 7304   4.949   3.927   3.939 -0.4714  0.1332  0.0373
 3254W        W 7305   7.279   4.667   2.149 -0.0405  0.0971 -0.1936
 3255W        W 7306   1.069   9.171   4.421 -0.3123 -0.2055  0.2172
 3256W        W 7307   5.095   8.830  10.128 -0.0777 -0.0675 -0.1455
 3257W        W 7308   6.487   1.593   9.957  0.0805  0.1191  0.0098
 3258W        W 7309   3.328   3.411   4.847 -0.0447  0.2747  0.0065
 3259W        W 7310   4.939   8.510   3.342 -0.0309  0.1066  0.0563
 3260W        W 7311   2.087   0.228  11.623 -0.0125  0.2501  0.1288
 3261W        W 7312   8.690   4.793  13.306 -0.0970 -0.0949  0.0579
 3262W        W 7313   8.153   8.161   3.613  0.1443 -0.0795  0.2682
 3263W        W 7314   5.913   0.374  12.272 -0.0102  0.2418  0.1335
 3264W        W 7315   7.229   0.956   2.819  0.0337 -0.0556  0.1869
 3265W        W 7316   3.299   1.309  10.968 -0.1979 -0.1073 -0.2075
 3266W        W 7317   2.013   3.664  12.611  0.0851 -0.0477 -0.0524
 3267W        W 7318   0.747   2.072   2.097 -0.1431  0.0166 -0.1163
 3268W        W 7319   5.812   5.476   2.008 -0.1789  0.2157 -0.0497
 3269W        W 7320   6.064   3.649   1.163  0.0726  0.3915  0.4584
 3270W        W 7321   5.891   3.612   4.491  0.2946  0.1749  0.0898
 3271W        W 7322   7.198   8.500   2.023  0.2698 -0.2047  0.3908
 3272W        W 7323   9.977   3.746  10.527  0.0990 -0.2957 -0.1065
 3273W        W 7324   3.183   0.669   8.986  0.0079 -0.2913  0.0622
 3274W        W 7325   1.488   7.282   3.903 -0.1050  0.1041  0.1105
 3275W        W 7326   7.138   8.801   9.124 -0.1889  0.0081 -0.1021
 3276W        W 7327   2.979   1.746  13.112  0.0269  0.1469  0.0421
 3277W        W 7328   9.322   5.380   4.662  0.2274  0.0796 -0.3353
 3278W        W 7329   8.208   6.441   9.936 -0.2997  0.0691  0.0597
 3279W        W 7330   6.951   9.764  10.130  0.3241  0.0923  0.0419
 3280W        W 7331   8.007   1.103  11.770 -0.1375  0.1660  0.1335
 3281W        W 7332   8.066   3.929  13.110 -0.2327  0.1070  0.0101
 3282W        W 7333   7.761   0.466  12.349 -0.0002  0.3684 -0.2170
 3283W        W 7334   7.926   9.873  10.262 -0.1734 -0.0541 -0.0524
 3284W        W 7335   1.914   7.587   3.308  0.0182  0.2909 -0.1719
 3285W        W 7336   1.742   4.944   3.747  0.1660 -0.0059  0.0827
 3286W        W 7337   3.366   3.093   9.468  0.3890  0.1692 -0.0203
 3287W        W 7338   8.586   7.303  11.118 -0.0001  0.0264 -0.0036
 3288W        W 7339   7.435   2.070  13.263 -0.2507  0.1302 -0.2145
 3289W        W 7340   8.642   5.422   1.469 -0.3594  0.0006  0.1248
 3290W        W 7341   9.563   4.412   4.804  0.1499 -0.1975  0.1301
 3291W        W 7342   8.644   4.160   0.601 -0.1770 -0.3831 -0.0854
 3292W        W 7343   0.797   4.068  11.112  0.1720 -0.0743  0.1621
 3293W        W 7344   4.446   6.289   0.722  0.0603 -0.0805  0.1241
 3294W        W 7345   5.688   4.481   9.659  0.3046 -0.2079  0.3596
 3295W        W 7346   0.145   4.799   3.243 -0.0833 -0.0181 -0.0111
 3296W        W 7347  10.093   3.321  11.581  0.2699  0.1384  0.6600
 3297W        W 7348   8.401   8.422   2.778 -0.0227  0.2575  0.1039
 3298W        W 7349   5.330   7.900   3.681  0.1258  0.6091 -0.1993
 3299W        W 7350   5.708   6.641   3.778 -0.0074  0.0080  0.0324
 3300W        W 7351   6.714   6.743   4.539 -0.0505 -0.2265  0.1194
 3301W        W 7352   3.778   4.054  12.277  0.1632  0.2559 -0.0401
 3302W        W 7353   5.097   6.787  12.005  0.1298  0.1655 -0.0517
 3303W        W 7354   2.059   3.420   4.575 -0.0593  0.2605 -0.0655
 3304W        W 7355   1.042   8.112   3.069  0.2534 -0.3190 -0.2209
 3305W        W 7356   7.785   3.812  11.752 -0.1411 -0.0250  0.1339
 3306W        W 7357   9.024   3.762   4.750  0.1954  0.1602  0.2933
 3307W        W 7358   4.050   9.349   2.914 -0.4971 -0.2872 -0.1159
 3308W        W 7359   7.293   7.213   3.175 -0.0116  0.1499  0.2832
 3309W        W 7360   5.903   1.218   2.666  0.0720 -0.2424 -0.4220
 3310W        W 7361   0.816   2.366  13.030  0.1250  0.1748  0.4152
 3311W        W 7362   1.649   3.197  12.261  0.3470 -0.2584 -0.4379
 3312W        W 7363   6.460   9.216   2.970  0.0830 -0.0201 -0.1848
 3313W        W 7364  10.260   9.099   9.786  0.1163 -0.0350  0.0690
 3314W        W 7365   5.776   5.790   3.338  0.0423 -0.1837  0.1598
 3315W        W 7366   8.041   3.774   3.664  0.1255 -0.2796  0.0577
 3316W        W 7367   3.317   2.455  13.144  0.3358 -0.0718 -0.3283
 3317W        W 7368  10.341   8.264   2.966 -0.0388 -0.1735 -0.1272
 3318W        W 7369   4.177   1.574   2.884 -0.0848  0.2381  0.1535
 3319W        W 7370   0.867   2.112  11.117  0.1918  0.0024  0.0243
 3320W        W 7371   5.824   0.335  10.537 -0.0161  0.3665 -0.0493
 3321W        W 7372   8.138   2.546   4.595 -0.0478 -0.1373 -0.1654
 3322W        W 7373   5.937   0.730  13.171  0.4684  0.0629  0.2146
 3323W        W 7374   1.518   5.894  13.037  0.3062  0.1313  0.1554
 3324W        W 7375   8.249   4.834   1.902 -0.0209  0.4193  0.0535
 3325W        W 7376   4.673   2.833   1.476 -0.0834  0.0854 -0.1127
 3326W        W 7377   8.846   7.576  10.308  0.3982  0.2597 -0.0402
 3327W        W 7378   6.001   9.472   3.234 -0.1236  0.1905 -0.2816
 3328W        W 7379   2.489   3.694   9.886  0.1985 -0.4613 -0.3216
 3329W        W 7380   6.698   5.700   3.623 -0.4576  0.0106 -0.1817
 3330W        W 7381   6.391   9.746  10.599  0.0719  0.1352  0.2549
 3331W        W 7382   5.953   7.584  11.921 -0.3838 -0.1284  0.0316
 3332W        W 7383   6.729   3.856   2.164  0.2077  0.3319  0.1636
 3333W        W 7384   2.086   5.276   2.482 -0.2001  0.1019  0.0909
 3334W        W 7385   7.826   8.763   4.069 -0.0352  0.0129 -0.2142
 3335W        W 7386   5.639   9.956  12.047 -0.1923  0.4248  0.1176
 3336W        W 7387   0.572   5.097   3.218 -0.1345  0.1657 -0.1137
 3337W        W 7388   6.236   4.164   4.559  0.0252 -0.0877  0.0621
 3338W        W 7389   5.118   4.992   0.408  0.2241  0.0692 -0.0182
 3339W        W 7390   2.341   5.755   2.926 -0.1167  0.1573 -0.0265
 3340W        W 7391   2.313   7.298  12.665  0.0391 -0.0601 -0.4070
 3341W        W 7392   2.049   0.742  11.931 -0.0046  0.2815  0.2558
 3342W        W 7393   4.034   6.617   3.937  0.0419 -0.0412 -0.0499
 3343W        W 7394   3.289   1.346   9.902 -0.2707  0.1452 -0.0395
 3344W        W 7395   0.250   9.581   0.593 -0.1815  0.3171  0.1776
 3345W        W 7396   3.900   4.431  12.005  0.1066 -0.1095 -0.0195
 3346W        W 7397   5.893   6.296  10.061  0.1961  0.1366 -0.3994
 3347W        W 7398   6.487   0.816  11.706 -0.0881  0.0911  0.0772
 3348W        W 7399   1.892   1.411   4.607 -0.0103 -0.0300  0.2024
 3349W        W 7400   1.552   7.659   1.998  0.0133 -0.0565  0.6329
 3350W        W 7401   8.387   2.890   0.645  0.0123  0.1084 -0.1207
 3351W        W 7402   8.091   0.536  10.435  0.2960  0.3397  0.0918
 3352W        W 7403   6.073   0.129   2.325 -0.0916  0.1313  0.0715
 3353W        W 7404   3.210   6.825  12.621  0.3191  0.0507 -0.1465
 3354W        W 7405   8.971   3.858   0.387 -0.0045  0.2069  0.1178
 3355W        W 7406  10.128   7.441   9.353  0.1548  0.2134 -0.1658
 3356W        W 7407   8.790   0.692   0.145 -0.1223  0.1833 -0.1027
 3357W        W 7408   8.439   3.630  12.449 -0.2149  0.0890 -0.0578
 3358W        W 7409   4.815   6.053  10.868 -0.2361  0.1091 -0.1024
 3359W        W 7410   9.757   5.524  11.737  0.0878 -0.1166 -0.2649
 3360W        W 7411   0.592   3.227   3.514  0.0842  0.0991 -0.0114
 3361W        W 7412   1.156   2.566   3.886 -0.2043  0.0773 -0.1230
 3362W        W 7413   7.013   3.766   3.218  0.0738  0.1798  0.0473
 3363W        W 7414   5.420   0.062   9.662  0.1257  0.2487 -0.0139
 3364W        W 7415   2.634   2.352   4.090 -0.0445 -0.0734 -0.1230
 3365W        W 7416  10.179   6.806   1.585 -0.1060 -0.2305  0.2831
 3366W        W 7417   0.779   6.275   1.287 -0.0237 -0.2120  0.0084
 3367W        W 7418   2.528   8.982  12.266 -0.0474 -0.1171 -0.0583
 3368W        W 7419   8.053   6.255   0.812  0.2234  0.1233 -0.0975
 3369W        W 7420   4.874   6.614   0.743  0.4322  0.2263  0.1272
 3370W        W 7421   8.055   2.337   0.785 -0.0884  0.0878  0.0633
 3371W        W 7422   6.594   8.746   4.830 -0.4052  0.2156 -0.1027
 3372W        W 7423   2.410   8.668   0.502 -0.0565 -0.4486  0.0891
 3373W        W 7424   9.052   4.471   0.672  0.2468 -0.0407  0.1338
 3374W        W 7425   3.706   8.116   0.366 -0.0509  0.3280  0.1602
 3375W        W 7426  10.330   7.003   9.555  0.0397 -0.1454 -0.0304
 3376W        W 7427  10.220   3.934  10.152  0.0829  0.1953  0.0636
 3377W        W 7428   3.208   0.108   3.285 -0.1970  0.1797  0.2001
 3378W        W 7429   5.924   6.207  12.498  0.1032  0.1372  0.1339
 3379W        W 7430   4.323   5.820   3.356  0.3687  0.0687  0.0023
 3380W        W 7431   6.336   0.819  11.188  0.3095 -0.1946 -0.4787
 3381W        W 7432   7.211   0.143  11.936 -0.0018 -0.1316  0.1790
 3382W        W 7433   6.884  10.178  10.515 -0.2876  0.1829  0.1435
 3383W        W 7434   0.590   9.131   4.206  0.0916  0.2709  0.0381
 3384W        W 7435  10.363   2.322   1.718 -0.2291 -0.1219 -0.0623
 3385W        W 7436   4.681   0.155   1.446  0.0682  0.0227 -0.0655
 3386W        W 7437   1.763   2.371   5.318 -0.4348  0.1496  0.2901
 3387W        W 7438   0.678   7.511   3.678 -0.2293  0.0105 -0.1396
 3388W        W 7439   8.938   5.005   9.541  0.0039  0.0768  0.1260
 3389W        W 7440   3.121   8.932  11.857 -0.2304  0.0105 -0.1243
 3390W        W 7441   4.282   5.116   0.846 -0.1127 -0.2317 -0.0923
 3391W        W 7442   8.407   5.357  13.095  0.2198 -0.2216  0.0172
 3392W        W 7443  10.249   4.679   0.585 -0.0362  0.0572  0.1420
 3393W        W 7444   9.991   0.005   9.485  0.0826 -0.0962 -0.0512
 3394W        W 7445   7.461   9.483   0.310 -0.0089  0.4071  0.2315
 3395W        W 7446   0.385   7.387  12.853 -0.0303  0.1414  0.1668
 3396W        W 7447   6.692   5.773   2.191  0.3475 -0.4789  0.0435
 3397W        W 7448   6.854   4.199   2.789 -0.0638  0.0625  0.1303
 3398W        W 7449   6.888   5.736   5.619 -0.2250  0.0964 -0.0558
 3399W        W 7450  10.272   5.323  10.517 -0.3421 -0.1227 -0.3858
 3400W        W 7451   6.651   1.105   0.351  0.0463  0.1521  0.0348
 3401W        W 7452  10.016   2.728   3.294  0.0861  0.1400 -0.2106
 3402W        W 7453   8.461   9.754   0.230  0.1268  0.1191  0.0020
 3403W        W 7454   3.393   3.347  12.890 -0.3391 -0.2139  0.1975
 3404W        W 7455   6.416   5.168  13.098 -0.0789 -0.1390 -0.3989
 3405W        W 7456   7.894   0.188   9.823  0.1695 -0.1342 -0.0776
 3406W        W 7457   5.913   4.137  10.765 -0.3816 -0.0643 -0.3269
 3407W        W 7458   4.295   1.442   1.130  0.0331 -0.1461  0.1072
 3408W        W 7459   2.975   5.763   0.229  0.1414  0.0743  0.3858
 3409W        W 7460   8.703   9.382   1.641  0.0474 -0.4196  0.1667
 3410W        W 7461   0.679   3.535  10.269 -0.2983 -0.2234  0.2387
 3411W        W 7462   2.211   0.840   4.594  0.0674 -0.1237 -0.1157
 3412W        W 7463   1.259   9.762   3.664  0.1024 -0.0704 -0.2707
 3413W        W 7464   3.241   8.051   3.653  0.0235 -0.0886  0.0644
 3414W        W 7465   8.316   2.169   0.364  0.0707  0.0249 -0.1568
 3415W        W 7466   4.590   9.755   1.943 -0.1725 -0.3102  0.1493
 3416W        W 7467   3.069   2.657  12.622  0.0317  0.2554 -0.0688
 3417W        W 7468   9.393   5.493  11.402  0.0404  0.0677 -0.0685
 3418W        W 7469   6.438   8.548   1.597 -0.1038  0.0062  0.0107
 3419W        W 7470   4.948  10.335  12.070  0.0851  0.0088 -0.2209
 3420W        W 7471   3.932   1.172   3.714 -0.1580  0.1345 -0.0316
 3421W        W 7472   1.414   7.174  10.417  0.3462 -0.0463  0.1708
 3422W        W 7473   1.128   9.961   8.855 -0.1845  0.1650 -0.1987
 3423W        W 7474   3.749   3.896   2.084 -0.0818 -0.1172  0.0348
 3424W        W 7475   6.857   1.036   4.260  0.0989  0.1288  0.1127
 3425W        W 7476   2.223   5.674   2.120 -0.0862 -0.1531  0.0015
 3426W        W 7477   8.021   2.973  13.195 -0.2713 -0.1579 -0.0713
 3427W        W 7478   4.690   0.739   2.404 -0.0786  0.0268  0.4573
 3428W        W 7479   8.117   9.756  12.076 -0.0524 -0.2934 -0.1027
 3429W        W 7480   9.744   8.179   1.318 -0.1898  0.0169  0.1167
 3430W        W 7481   9.880   2.047   4.575  0.0638  0.0374  0.3399
 3431W        W 7482  10.281   6.200  10.752 -0.0262  0.1487 -0.0693
 3432W        W 7483   5.603   4.762  11.261  0.1247  0.0327 -0.1474
 3433W        W 7484   3.850   7.440  12.657 -0.1320 -0.1218 -0.4584
 3434W        W 7485   8.962   5.966   3.860  0.3913 -0.1399  0.3661
 3435W        W 7486   7.249   5.418   0.783  0.0584 -0.2485 -0.0883
 3436W        W 7487   6.392   0.537   4.165 -0.0051  0.1443  0.1367
 3437W        W 7488   1.525   9.072   1.869  0.2661 -0.0990  0.1512
 3438W        W 7489   4.197   1.041   0.263 -0.1304  0.2662  0.1734
 3439W        W 7490   5.215   0.414   0.796 -0.1056 -0.1039  0.1011
 3440W        W 7491   9.006   2.878   0.596 -0.4952  0.2144 -0.1475
 3441W        W 7492   2.420   4.346  11.294 -0.1314 -0.1130 -0.0182
 3442W        W 7493   1.545   7.576   0.868  0.1529 -0.0005  0.0542
 3443W        W 7494   4.390   9.555   4.797  0.1682  0.2890  0.1980
 3444W        W 7495   8.790   2.559   5.067 -0.0624 -0.1528  0.0829
 3445W        W 7496  10.235   9.744  12.811 -0.1551 -0.3097 -0.0186
 3446W        W 7497   4.026   6.287  12.186  0.0246  0.0466 -0.0361
 3447W        W 7498   1.801   0.289  11.179 -0.1224 -0.1332 -0.0774
 3448W        W 7499   8.348   5.960  10.202 -0.3121 -0.1100  0.1693
 3449W        W 7500   5.932   8.238   2.560  0.0312 -0.0134 -0.3401
 3450W        W 7501   7.287   2.384  11.327 -0.2952  0.2923 -0.1093
 3451W        W 7502   3.550   2.629   0.641 -0.4499 -0.0670 -0.0503
 3452W        W 7503   9.853   3.552   9.350  0.2099 -0.2642 -0.0430
 3453W        W 7504   6.319   2.923  13.356 -0.4798  0.0089  0.4449
 3454W        W 7505   3.905   4.342   3.162  0.0066 -0.1519  0.0959
 3455W        W 7506   6.879   6.775   2.481  0.1512 -0.4499  0.0476
 3456W        W 7507   8.022   6.671   2.947  0.1254  0.1826 -0.1845
 3457W        W 7508   0.191   0.439   4.688 -0.2629 -0.2466  0.1553
 3458W        W 7509   3.728   1.698  11.211 -0.2378 -0.0093 -0.0364
 3459W        W 7510   3.394   3.113   0.459 -0.1803  0.1356  0.1137
 3460W        W 7511   0.525   6.013   3.297  0.0495 -0.2809  0.2138
 3461W        W 7512   2.987   2.139   2.051 -0.1434  0.1299  0.2817
 3462W        W 7513   1.094   7.255  11.768  0.2094  0.1650  0.1168
 3463W        W 7514   0.566   5.569   2.997 -0.1009 -0.1904 -0.4029
 3464W        W 7515   0.539   8.277  11.231  0.2231 -0.2300 -0.1253
 3465W        W 7516   0.769   9.864  10.647  0.2549  0.2362 -0.1764
 3466W        W 7517   8.086   4.782  10.596 -0.0704 -0.1747  0.2704
 3467W        W 7518   3.294   0.601   2.946  0.2936 -0.1608  0.0846
 3468W        W 7519   8.453   8.505  10.298  0.0684  0.1047  0.1306
 3469W        W 7520   5.743   8.555  11.974  0.2322  0.2897 -0.1150
 3470W        W 7521   2.705   9.711  12.489  0.2380  0.0370 -0.1660
 3471W        W 7522   4.193   3.126   9.164  0.0252 -0.1738  0.0210
 3472W        W 7523   1.635   3.769  11.524 -0.1599  0.2814 -0.0070
 3473W        W 7524   0.014   0.443  10.905 -0.1552 -0.1270  0.1079
 3474W        W 7525   3.560   0.340   4.555 -0.1613 -0.0355  0.0849
 3475W        W 7526   6.689   7.579   1.455 -0.3141  0.1487 -0.2699
 3476W        W 7527   9.229   6.323   9.910 -0.3414  0.2516  0.0573
 3477W        W 7528   1.500   3.287  11.323  0.3842 -0.0440  0.2548
 3478W        W 7529   4.054   4.865  11.616  0.1514  0.1516  0.4243
 3479W        W 7530   5.940   4.613   9.206 -0.1875  0.4343 -0.1113
 3480W        W 7531   4.787   2.330  10.097  0.1774 -0.1098 -0.0797
 3481W        W 7532   9.337   9.363   5.264 -0.0790 -0.1764  0.3269
 3482W        W 7533   6.497   3.362  13.312 -0.1364  0.1531  0.0211
 3483W        W 7534   7.314   8.366   5.445 -0.1490 -0.2284 -0.1352
 3484W        W 7535   7.185   3.065  11.166 -0.0139  0.0614  0.2189
 3485W        W 7536   9.728   7.538   2.458  0.0628  0.1824  0.0571
 3486W        W 7537   8.924   9.102   1.235 -0.0487  0.0469 -0.0256
 3487W        W 7538   9.781   1.466   5.377  0.1557  0.2605  0.0218
 3488W        W 7539   4.073   3.533   1.798  0.0065  0.1044 -0.4207
 3489W        W 7540   1.079   6.573  11.134 -0.1520 -0.0150 -0.1392
 3490W        W 7541   8.708   6.370   4.071 -0.1638 -0.2754 -0.2958
 3491W        W 7542   3.032   0.654   1.664  0.0727 -0.0186  0.3952
 3492W        W 7543   6.361   8.380   8.763 -0.0371 -0.0849  0.0885
 3493W        W 7544   8.255   4.543   0.185 -0.0686  0.0704 -0.1156
 3494W        W 7545   9.603   3.156  10.198 -0.0766 -0.0513  0.1251
 3495W        W 7546   1.026   8.873   9.805  0.0702  0.1435  0.2102
 3496W        W 7547   6.278   0.214  12.593  0.1910 -0.1688  0.1033
 3497W        W 7548   6.568   1.328  13.022  0.2622  0.3353  0.0893
 3498W        W 7549   9.248   8.822  11.997 -0.1549 -0.0993  0.1922
 3499W        W 7550   5.019  10.266   3.445  0.3174  0.1370  0.1419
 3500W        W 7551   8.582   9.046   3.319 -0.0913 -0.3470  0.1641
 3501W        W 7552   1.445   2.834   4.787 -0.1550  0.0167 -0.0196
 3502W        W 7553   6.700   7.247   9.749  0.5450 -0.2369  0.0472
 3503W        W 7554   7.895   5.733   9.892  0.0219  0.1544 -0.3149
 3504W        W 7555   7.457   8.469  10.608  0.0775  0.1856  0.1771
 3505W        W 7556   4.133   0.798   8.591  0.2007  0.0971  0.2524
 3506W        W 7557   0.514   2.009   1.002  0.0622  0.0441  0.0077
 3507W        W 7558   3.215   8.517  10.985 -0.1513 -0.3844  0.1097
 3508W        W 7559   0.168   1.702   4.437 -0.1363  0.1785 -0.0188
 3509W        W 7560   6.626   0.455   9.639  0.1961 -0.1717 -0.2051
 3510W        W 7561   8.739   4.485   1.155 -0.2454 -0.2298  0.1574
 3511W        W 7562   4.271   1.468   4.953  0.2744 -0.1244  0.0950
 3512W        W 7563   8.476   3.709   9.366 -0.1787 -0.1164  0.0593
 3513W        W 7564  10.338   1.011   9.455 -0.3502  0.1927 -0.0373
 3514W        W 7565   6.344   8.832  13.087 -0.2811 -0.3936  0.0119
 3515W        W 7566   5.368   0.906   1.636  0.2858  0.2267 -0.0977
 3516W        W 7567   4.355   4.049   1.232  0.0038 -0.1655 -0.0381
 3517W        W 7568   6.039   3.573   9.778  0.1016  0.2517 -0.4280
 3518W        W 7569   0.992   9.909   2.273 -0.2026 -0.2500  0.4927
 3519W        W 7570   7.887   9.328   9.939 -0.1321  0.2439 -0.0164
 3520W        W 7571   2.177   9.966   1.655 -0.1680 -0.2831  0.0949
 3521W        W 7572   1.337   2.351   1.608  0.1138 -0.1253  0.3897
 3522W        W 7573   5.772   3.461   4.005 -0.0338  0.0735  0.4604
 3523W        W 7574   5.758   3.620  11.012 -0.1475  0.1684 -0.1106
 3524W        W 7575   3.913   3.880   1.441 -0.3487 -0.1277 -0.1922
 3525W        W 7576   8.242   2.177  11.528 -0.0194 -0.1514 -0.3297
 3526W        W 7577   8.285   3.697  11.646  0.1273  0.4401  0.0594
 3527W        W 7578   1.236   0.799   9.048  0.1503  0.2265  0.1439
 3528W        W 7579   5.128   5.676   9.166 -0.1346 -0.2101  0.2329
 3529W        W 7580   7.736   6.345  12.092 -0.0427 -0.0693  0.0756
 3530W        W 7581   0.290   9.700  13.056  0.0563  0.1459 -0.0752
 3531W        W 7582   3.962   0.181   2.549 -0.1321 -0.0720 -0.0135
 3532W        W 7583   8.858   1.057   0.947  0.0275  0.0553 -0.4251
 3533W        W 7584   7.503   9.405   1.664 -0.2591  0.0625 -0.4356
 3534W        W 7585   0.497   3.171   9.386  0.2137 -0.0904 -0.0906
 3535W        W 7586   7.852   9.342  10.445  0.1110 -0.1584  0.0893
 3536W        W 7587   1.703   0.560   9.820  0.1430  0.0123  0.1289
 3537W        W 7588   7.435   3.854   1.103 -0.0233 -0.1240 -0.1545
 3538W        W 7589   2.829   4.677  12.951  0.0224  0.0052  0.2573
 3539W        W 7590   2.550   5.715  11.321  0.0544 -0.0457 -0.0842
 3540W        W 7591   8.249   5.490   3.864  0.1888  0.1841 -0.0919
 3541W        W 7592   6.545   9.507   4.629  0.0277  0.0681  0.1760
 3542W        W 7593   7.211   4.357   4.036  0.1327  0.0051 -0.4001
 3543W        W 7594   3.447   4.405   1.893 -0.1344  0.3848 -0.1562
 3544W        W 7595   3.237   4.631   4.431  0.0375 -0.1516  0.0477
 3545W        W 7596   3.223  10.055   3.639  0.5134 -0.2146 -0.1779
 3546W        W 7597   7.029   4.326   0.417  0.0671 -0.0509  0.0664
 3547W        W 7598   7.071   8.780   0.775 -0.2440  0.1752  0.0669
 3548W        W 7599   4.810   6.127  12.705 -0.1243  0.3497  0.0928
 3549W        W 7600   4.792   9.062   1.567 -0.0885 -0.0148  0.0658
 3550W        W 7601   4.332   4.328  11.794  0.0029 -0.2812 -0.0659
 3551W        W 7602   5.717   4.065  12.191  0.0684 -0.2186 -0.1512
 3552W        W 7603   0.005   9.011   2.436 -0.1969  0.1993  0.3301
 3553W        W 7604   8.064   6.225   1.459  0.1400  0.0101  0.3230
 3554W        W 7605   9.267   9.016   0.405 -0.1891 -0.0052  0.1006
 3555W        W 7606   2.940   8.838   9.786 -0.1966  0.0016 -0.1528
 3556W        W 7607   3.959   5.552   2.523 -0.1772 -0.4811  0.1058
 3557W        W 7608   9.235   0.359  13.098  0.2424  0.1737 -0.2134
 3558W        W 7609   3.974   4.594  12.462  0.1019 -0.1059  0.1379
 3559W        W 7610   1.328   2.200  13.120  0.2251  0.2982  0.1838
 3560W        W 7611  10.234   4.165   0.705 -0.3384 -0.2647 -0.2106
 3561W        W 7612   7.388   3.039   3.905 -0.0608  0.0066  0.2157
 3562W        W 7613   0.965   8.284   9.897  0.3793  0.0618 -0.1806
 3563W        W 7614   9.851   4.627   2.216  0.4606  0.0474 -0.1882
 3564W        W 7615   3.144   4.303   9.682 -0.0339  0.0625 -0.0961
 3565W        W 7616   5.107   1.855   0.764 -0.0780 -0.1081  0.3606
 3566W        W 7617   6.787   8.711   4.214  0.2180  0.0309 -0.0811
 3567W        W 7618   9.351   7.695   9.598  0.1936 -0.0994 -0.1698
 3568W        W 7619   7.884   8.142   4.288  0.0398  0.2382 -0.0642
 3569W        W 7620   5.287   7.890   9.698 -0.1694 -0.0274  0.1895
 3570W        W 7621   0.843   9.083   0.109  0.2211 -0.2957 -0.2650
 3571W        W 7622   9.182   5.932  12.391 -0.0577  0.4153 -0.1622
 3572W        W 7623   2.318   8.873   2.826  0.2463  0.1668 -0.3053
 3573W        W 7624   5.466   8.884  11.042  0.4953  0.1607  0.1657
 3574W        W 7625   1.708   8.513  12.948 -0.3622  0.0666 -0.1051
 3575W        W 7626   7.117   4.626  11.659  0.0628  0.1609  0.1049
 3576W        W 7627   2.914   9.812   1.832  0.2255  0.1855 -0.2581
 3577W        W 7628   9.673   8.322   0.769  0.1464 -0.0293 -0.0909
 3578W        W 7629   5.477   7.097   3.948 -0.1730 -0.3576  0.0460
 3579W        W 7630   5.074   0.784  12.294 -0.1653 -0.0289 -0.1103
 3580W        W 7631   2.983   8.487  10.534 -0.1367  0.0111  0.1695
 3581W        W 7632   1.955   4.597   0.471 -0.0085  0.0490  0.4280
 3582W        W 7633   9.093   7.316   3.273 -0.1675 -0.2050 -0.0425
 3583W        W 7634   0.530   4.656   9.484  0.1370  0.1568 -0.1526
 3584W        W 7635   6.393   7.056   4.082  0.0977  0.1017 -0.2519
 3585W        W 7636   6.261   3.316  11.970  0.0338 -0.1126  0.0543
 3586W        W 7637   9.557   7.248  11.614 -0.0023  0.1505 -0.2125
 3587W        W 7638   2.227   2.688  12.765  0.1090  0.0044 -0.3006
 3588W        W 7639   5.764   5.519   0.571  0.2213  0.2213  0.2447
 3589W        W 7640   9.435   6.509  10.297 -0.0909  0.3455 -0.0847
 3590W        W 7641   8.781   2.109  11.428 -0.1220 -0.1521 -0.0167
 3591W        W 7642   4.621  10.354   3.811 -0.0829 -0.1633  0.2358
 3592W        W 7643   8.644   8.555   2.026 -0.1967 -0.1959 -0.1107
 3593W        W 7644   1.351   2.024   9.594  0.2365  0.0265 -0.0591
 3594W        W 7645   3.421   2.053  10.813 -0.0198  0.2830  0.2154
 3595W        W 7646   9.568   9.509   0.792 -0.0178 -0.3369 -0.0425
 3596W        W 7647   1.158   8.449   1.116  0.0098 -0.3223  0.3604
 3597W        W 7648   1.209   2.295   9.066 -0.1355 -0.0772  0.1724
 3598W        W 7649   2.989   0.171  10.110  0.1535 -0.1669  0.1504
 3599W        W 7650   6.607   6.681   8.541 -0.2361  0.0814 -0.1344
 3600W        W 7651   8.239   7.054   9.904 -0.3020  0.0775  0.1357
 3601W        W 7652   2.307   2.718   9.361 -0.4802 -0.0960  0.2225
 3602W        W 7653   9.127   5.370   5.214  0.5462  0.0827  0.0289
 3603W        W 7654   9.405   7.518   4.682 -0.0717  0.2948  0.1068
 3604W        W 7655   4.484   3.680   2.636 -0.0069 -0.0282  0.1295
 3605W        W 7656   7.906   8.116   9.539  0.0968  0.1247 -0.1022
 3606W        W 7657   6.395   0.286   0.134 -0.1807  0.0156  0.2703
 3607W        W 7658   0.646   3.044  12.057 -0.0383 -0.0082 -0.2601
 3608W        W 7659   0.365   0.010   9.283 -0.2653 -0.3317 -0.3584
 3609W        W 7660   1.956   4.707  12.879  0.4360 -0.1024  0.1257
 3610W        W 7661   1.855   3.882   4.399  0.0839  0.2729 -0.0019
 3611W        W 7662   7.500   1.457  12.571  0.1090  0.3556  0.2389
 3612W        W 7663   5.966   9.732   5.569 -0.2729  0.0527 -0.1549
 3613W        W 7664   6.653   8.416   3.312 -0.3903 -0.0596  0.2766
 3614W        W 7665   0.189   6.508  10.469 -0.0339  0.0461 -0.0253
 3615W        W 7666   5.923   6.865  10.158 -0.0600  0.0681  0.1056
 3616W        W 7667   2.306   7.185   8.811  0.0608 -0.2049  0.1601
 3617W        W 7668   4.081   4.082   3.532  0.4821 -0.2794  0.0960
 3618W        W 7669   3.525   9.567   3.860  0.2961  0.1189 -0.0069
 3619W        W 7670   7.933   3.556   9.658 -0.2162  0.1011 -0.0233
 3620W        W 7671   1.171   5.005  10.908 -0.1396 -0.1565  0.0219
 3621W        W 7672   6.318   1.101  10.151 -0.0428 -0.0613  0.1431
 3622W        W 7673   0.245   6.217   1.946 -0.2916  0.0936  0.1399
 3623W        W 7674   6.426   0.807   3.043  0.2667 -0.2435 -0.4113
 3624W        W 7675   7.751   0.242   5.085  0.0573 -0.1439  0.1683
 3625W        W 7676   4.045   3.285   3.890 -0.0030  0.2157  0.2612
 3626W        W 7677   8.806   4.400   2.382  0.1822  0.0239 -0.2877
 3627W        W 7678  10.259   8.366  11.593  0.0225 -0.2939  0.0845
 3628W        W 7679   8.992   1.571  11.471  0.0966 -0.1367  0.4256
 3629W        W 7680  10.414   5.625   2.089  0.0436  0.2249  0.1659
 3630W        W 7681   8.196   5.064   0.677  0.1813 -0.0218  0.0256
 3631W        W 7682   6.331   3.002   5.183  0.1315  0.0691 -0.2707
 3632W        W 7683   5.529   1.960   3.296  0.2684 -0.1659  0.2016
 3633W        W 7684   4.652   3.970  12.318  0.0604  0.2538 -0.1860
 3634W        W 7685   4.502   0.749  11.653  0.0503 -0.0636 -0.1270
 3635W        W 7686   9.428   1.275   2.609  0.0180  0.0045  0.0800
 3636W        W 7687   3.827   1.211   2.554 -0.4176  0.3571  0.0552
 3637W        W 7688   2.136   6.657  10.328  0.3604 -0.0434 -0.2932
 3638W        W 7689   4.551   0.875  10.310 -0.0768 -0.2005 -0.3619
 3639W        W 7690   1.637   7.291  10.905 -0.2436 -0.3623  0.0046
 3640W        W 7691   8.304   7.355   0.123 -0.2547  0.1372  0.3227
 3641W        W 7692  10.399   0.090  12.018 -0.1716 -0.1298  0.0388
 3642W        W 7693   1.479   9.965   2.358 -0.0803  0.0423 -0.2534
 3643W        W 7694   5.286   8.860  12.973  0.2122 -0.3345 -0.0189
 3644W        W 7695   5.374   4.872  12.337  0.1031 -0.0918  0.0551
 3645W        W 7696   7.322   7.207   2.130 -0.3031 -0.5113  0.1787
 3646W        W 7697   6.897   0.345   1.968  0.2835  0.0593 -0.0954
 3647W        W 7698   5.538   2.865  11.614  0.3818 -0.2801  0.1856
 3648W        W 7699   8.443   8.860  13.147 -0.3264  0.0087 -0.1213
 3649W        W 7700   6.301   2.075   3.392  0.0250 -0.0663 -0.0045
 3650W        W 7701   8.046   1.258   2.249 -0.0639 -0.1733  0.3341
 3651W        W 7702   5.857   7.910   3.555  0.1337 -0.2522  0.0551
 3652W        W 7703   3.634   3.237   0.015 -0.2205  0.2257 -0.0038
 3653W        W 7704   1.702   9.910   1.399 -0.2836  0.0673  0.0166
 3654W        W 7705  10.064   5.869   3.728  0.1614  0.1687  0.2287
 3655W        W 7706   7.523   4.527   0.469  0.1572 -0.0600 -0.1050
 3656W        W 7707   8.031   9.904   9.396  0.1061  0.1398  0.1760
 3657W        W 7708   7.581   2.349   4.210  0.0551  0.2280 -0.1833
 3658W        W 7709   0.508   9.028   2.657 -0.0145 -0.3375  0.1011
 3659W        W 7710   5.701   5.390   2.864  0.0754 -0.1388  0.0079
 3660W        W 7711   3.423   0.366  10.329 -0.4542 -0.1269 -0.2365
 3661W        W 7712   2.176   7.813  12.575  0.4314 -0.4781  0.0018
 3662W        W 7713   4.048   0.779   2.402  0.1630 -0.2724 -0.2123
 3663W        W 7714  10.061   1.318   9.133  0.1086 -0.0192  0.2099
 3664W        W 7715   4.863   9.294   3.240  0.0486 -0.0705 -0.4426
 3665W        W 7716   9.649   1.705   2.385 -0.1161 -0.1291 -0.0649
 3666W        W 7717   0.031   1.180   3.703  0.0488 -0.0370  0.4378
 3667W        W 7718   9.429   0.206  11.740  0.4624  0.1251  0.0654
 3668W        W 7719   3.457   3.938   9.442  0.1087 -0.2156 -0.4528
 3669W        W 7720   5.670   9.038   1.056  0.3785 -0.0972 -0.0150
 3670W        W 7721   0.728   3.319  11.348  0.1185  0.2860 -0.0117
 3671W        W 7722   8.250   7.892   4.742 -0.2266 -0.2136 -0.1262
 3672W        W 7723   9.742   1.978   3.482  0.0645  0.0551 -0.2045
 3673W        W 7724   3.965   9.054   8.797 -0.3182  0.0673  0.3579
 3674W        W 7725   2.030   7.485   1.020 -0.1935 -0.0378 -0.1045
 3675W        W 7726   8.602   2.650   0.282 -0.3124 -0.0562  0.0944
 3676W        W 7727   9.784   9.378   4.061 -0.1704  0.0587 -0.1023
 3677W        W 7728   9.451   3.836  11.302  0.1018  0.1468 -0.2278
 3678W        W 7729   7.463   0.612   1.135  0.0400  0.0700  0.0091
 3679W        W 7730   7.788   6.010  12.662  0.3056  0.0181  0.0418
 3680W        W 7731   4.303   1.634   0.331  0.0231 -0.1654 -0.2782
 3681W        W 7732   7.323  10.090   2.990  0.1675  0.0190 -0.1880
 3682W        W 7733   3.194  10.258  11.961  0.1488  0.1645  0.0284
 3683W        W 7734   8.350   1.107   3.928  0.0719 -0.0253 -0.2163
 3684W        W 7735   3.163   4.660  11.136  0.1258  0.0372 -0.0255
 3685W        W 7736   1.416   5.685  12.276  0.3432 -0.0402  0.1897
 3686W        W 7737   8.686   5.114   1.843 -0.3178  0.0332  0.0914
 3687W        W 7738   5.141   4.720   3.332  0.2753 -0.2402 -0.1716
 3688W        W 7739   3.213   0.276   1.293  0.0477  0.0412  0.0267
 3689W        W 7740   3.711   5.930  10.763 -0.1327 -0.1669 -0.1044
 3690W        W 7741   5.413   8.111   4.131  0.0543 -0.1653 -0.0288
 3691W        W 7742   8.388   9.069  11.569 -0.0686 -0.2925 -0.0614
 3692W        W 7743   5.444   4.970  13.279  0.0863  0.0265 -0.0109
 3693W        W 7744   6.673   1.565   2.604  0.2936 -0.2890  0.0939
 3694W        W 7745  10.183  10.283  11.306  0.1535  0.3014  0.0683
 3695W        W 7746   2.833   7.275   0.520 -0.3308  0.0366 -0.2567
 3696W        W 7747   4.235   9.328  10.377  0.1795 -0.3703 -0.0865
 3697W        W 7748   6.168   0.090   8.726  0.0694 -0.0311 -0.3560
 3698W        W 7749   0.792   1.005   4.083 -0.0073  0.2869 -0.3009
 3699W        W 7750   7.683   6.943   5.010  0.1100  0.2093 -0.0420
 3700W        W 7751   3.004   1.076   3.610 -0.0609  0.1689  0.2036
 3701W        W 7752   0.855   2.789   1.348  0.0446  0.1412  0.2735
 3702W        W 7753   1.100   7.179   0.022 -0.0151 -0.0811 -0.0172
 3703W        W 7754   4.459   1.399  12.443 -0.2644  0.2683  0.0558
 3704W        W 7755   6.283   6.176   3.031  0.0400 -0.0905  0.2817
 3705W        W 7756   9.299   4.468  12.463  0.2285 -0.1338 -0.1953
 3706W        W 7757   9.992   2.557   4.596 -0.0146 -0.0116 -0.0639
 3707W        W 7758   7.987   8.469  10.512 -0.2721 -0.0639 -0.2205
 3708W        W 7759   8.257   0.627   3.287  0.3173  0.0302 -0.0018
 3709W        W 7760   4.681   3.634   9.565  0.1195  0.0672 -0.1890
 3710W        W 7761   4.001   2.874   2.601  0.1632 -0.2784  0.1301
 3711W        W 7762   1.279   1.375   2.410 -0.0322  0.0097  0.2636
 3712W        W 7763   5.634   1.512   3.581 -0.2808  0.0092 -0.2604
 3713W        W 7764   9.505   5.597   3.106  0.4163 -0.0181 -0.0888
 3714W        W 7765   3.647   6.845   4.231  0.2179 -0.1914  0.1085
 3715W        W 7766   5.458   7.915  11.803 -0.1309  0.0274 -0.2675
 3716W        W 7767   3.878   0.248   0.616 -0.1831 -0.1309  0.0055
 3717W        W 7768   8.890   9.224   5.500  0.3813 -0.0853  0.1390
 3718W        W 7769   3.579   1.223  10.301 -0.3346 -0.0605 -0.0979
 3719W        W 7770   8.551   6.011  13.217 -0.1744 -0.3152  0.0755
 3720W        W 7771   8.435   2.871   2.271 -0.1470 -0.1955  0.2481
 3721W        W 7772   6.470  10.350   9.722 -0.4728 -0.0615 -0.4281
 3722W        W 7773   9.535   2.729   3.124  0.3125 -0.4447  0.3348
 3723W        W 7774   7.950   7.554  10.458 -0.4073  0.0325  0.0838
 3724W        W 7775   2.408   4.964  10.744 -0.2895  0.2662 -0.0387
 3725W        W 7776   0.019   0.728   3.046 -0.2187  0.3218  0.0762
 3726W        W 7777   6.334   7.332   3.094 -0.1324 -0.1463  0.0874
 3727W        W 7778   8.677   8.662  11.743  0.2204  0.0802  0.0088
 3728W        W 7779   3.779  10.150   2.849 -0.2431 -0.2064 -0.3179
 3729W        W 7780   9.316   8.531   1.512  0.0063  0.0006 -0.0037
 3730W        W 7781   7.685   5.305   1.629 -0.2767 -0.1001  0.2675
 3731W        W 7782   4.152   8.477   1.816  0.3708  0.0436 -0.2466
 3732W        W 7783   9.557   7.128   1.045  0.1879 -0.1290 -0.0966
 3733W        W 7784   1.783   5.637   9.682  0.2197  0.0944  0.1847
 3734W        W 7785   9.194   3.308   0.459 -0.0328 -0.1881 -0.0015
 3735W        W 7786   6.844   7.202  12.963  0.0769  0.0660  0.1570
 3736W        W 7787   3.806   6.846  10.835  0.0268 -0.2631  0.1311
 3737W        W 7788   2.093   3.454   1.554  0.2215  0.3022 -0.0741
 3738W        W 7789   5.697   1.258  10.854 -0.1386 -0.3317 -0.0543
 3739W        W 7790  10.356   5.320  11.213  0.0994 -0.1186  0.1843
 3740W        W 7791   0.861   6.563   9.861  0.0180 -0.1845 -0.0531
 3741W        W 7792   8.613   0.317   1.217 -0.0379  0.1901 -0.0268
 3742W        W 7793   1.225   9.784  10.413  0.1294 -0.0982 -0.2288
 3743W        W 7794   4.962   1.409   5.177 -0.1309 -0.0590 -0.1329
 3744W        W 7795   0.377   8.653   0.069  0.0916  0.0199  0.1341
 3745W        W 7796   2.838   4.162  13.157 -0.2026  0.2344 -0.1364
 3746W        W 7797   8.313   5.094   3.549  0.3055 -0.0817 -0.2171
 3747W        W 7798   7.113   7.972   4.664  0.2511 -0.0036  0.1912
 3748W        W 7799   8.075   3.847   3.142  0.2506 -0.2918  0.0708
 3749W        W 7800   2.460   3.477   4.896 -0.0758 -0.3636 -0.0528
 3750W        W 7801   5.558   5.557   1.039  0.0501 -0.1512 -0.0183
 3751W        W 7802   4.352   6.284   0.200  0.1970  0.1690 -0.1217
 3752W        W 7803   5.835   4.445  12.539 -0.0288 -0.0835 -0.2707
 3753W        W 7804  10.427   3.029   1.557 -0.0463  0.0553  0.0599
 3754W        W 7805   9.456   5.581   2.135  0.2913  0.3616 -0.1818
 3755W        W 7806   0.519   0.462   0.390  0.0150  0.0400 -0.0273
 3756W        W 7807   5.760   8.834   9.833  0.2760  0.1288  0.1668
 3757W        W 7808  10.400   4.897   1.822 -0.0080  0.1772  0.0869
 3758W        W 7809   6.273   8.501  12.035  0.1816  0.2108  0.1514
 3759W        W 7810   5.870   9.398   4.402  0.2102 -0.0153  0.4750
 3760W        W 7811   3.926   4.332   0.577 -0.1124 -0.1146 -0.2179
 3761W        W 7812   8.773   6.496   4.565 -0.2956 -0.2413  0.0753
 3762W        W 7813   4.503   5.799   4.771  0.1080 -0.1958  0.0015
 3763W        W 7814   3.323   9.933   4.152 -0.1231  0.7082  0.1003
 3764W        W 7815   9.945   3.690  11.269  0.2176 -0.1138  0.0746
 3765W        W 7816   1.576   8.120   8.643  0.0723 -0.1068 -0.0714
 3766W        W 7817   3.469   7.822  11.363 -0.2024 -0.3324  0.1878
 3767W        W 7818   2.566   1.364   1.647 -0.2010 -0.0926  0.1396
 3768W        W 7819   3.893   6.475   0.976 -0.1869  0.0763 -0.0716
 3769W        W 7820   1.969  10.352   2.520  0.0743  0.1984 -0.0643
 3770W        W 7821   6.644   6.314  10.701  0.1372  0.1915  0.1828
 3771W        W 7822   1.097   5.063   2.526  0.0071  0.2462 -0.0321
 3772W        W 7823   7.261  10.377  12.443  0.1008  0.2294  0.0413
 3773W        W 7824   3.205   6.986   0.580  0.2084 -0.0958  0.2803
 3774W        W 7825   4.953   7.324   2.473  0.2036  0.3436 -0.4410
 3775W        W 7826   6.116   7.360   4.389  0.0991 -0.2402 -0.4389
 3776W        W 7827   4.068   6.349  10.884  0.0044 -0.0503 -0.0532
 3777W        W 7828   5.415   2.728   2.320  0.0294 -0.0414 -0.1498
 3778W        W 7829   6.912   1.836   4.847 -0.1497 -0.5493  0.0106
 3779W        W 7830   7.388   5.497   9.915  0.2402  0.0646 -0.0958
 3780W        W 7831   6.037   4.710  10.836  0.1263 -0.0339 -0.0618
 3781W        W 7832   1.648   0.959   3.956 -0.1902  0.1918  0.0828
 3782W        W 7833   4.367   9.070   1.815  0.2634 -0.0344 -0.4109
 3783W        W 7834   6.945   3.481  13.199  0.2351  0.1574 -0.0857
 3784W        W 7835   2.276   1.721  10.082  0.2170 -0.1111 -0.3569
 3785W        W 7836   8.911   8.655  13.193 -0.1453 -0.0786  0.0741
 3786W        W 7837   1.652   1.999  12.803  0.2325  0.1126  0.1525
 3787W        W 7838   8.392   1.506  10.597  0.2099  0.4580  0.2223
 3788W        W 7839   7.735   8.093  10.834  0.2490  0.2006  0.0345
 3789W        W 7840   4.381   2.262  11.472 -0.3266 -0.1281 -0.0508
 3790W        W 7841   5.358   0.469   1.907  0.2153 -0.4191 -0.4427
 3791W        W 7842   8.065   5.737   5.354  0.2567  0.2366 -0.0962
 3792W        W 7843   9.312   1.101   3.794  0.1403 -0.1770  0.0284
 3793W        W 7844   1.854   4.103   3.938 -0.1241 -0.1705  0.2305
 3794W        W 7845   5.276   1.459  12.910  0.1007  0.3219  0.0962
 3795W        W 7846   3.185   4.366   2.396 -0.1433 -0.1306  0.1205
 3796W        W 7847   6.087   0.554   4.602 -0.2208 -0.1718  0.1345
 3797W        W 7848   9.416   9.169  11.572  0.1928 -0.0219  0.0805
 3798W        W 7849   5.586   8.897   3.772  0.0470 -0.0499 -0.2827
 3799W        W 7850   7.571   7.621   4.961 -0.1442 -0.1818  0.1285
 3800W        W 7851   7.491   5.481   0.169 -0.2171  0.1241  0.4607
 3801W        W 7852   0.241   9.960   9.149  0.1154  0.0497  0.1454
 3802W        W 7853   1.430   9.009   1.283  0.1538  0.1966  0.0820
 3803W        W 7854   6.886   0.798  11.365 -0.3100 -0.0066 -0.1080
 3804W        W 7855   6.577   2.022  12.484 -0.0028  0.2552 -0.3428
 3805W        W 7856   2.742   7.035   2.783 -0.1323 -0.5038  0.0867
 3806W        W 7857   5.731   3.686   2.238  0.0540  0.1113 -0.2682
 3807W        W 7858   7.562   2.905   1.127  0.2749 -0.0076  0.1837
 3808W        W 7859   1.856   3.640   2.641  0.2622 -0.1417 -0.0833
 3809W        W 7860   3.596   1.717   4.332  0.2724  0.2163 -0.3118
 3810W        W 7861   1.714   7.891   9.372 -0.1455  0.0114 -0.0283
 3811W        W 7862   5.801   4.219   0.496 -0.1209  0.3453  0.2141
 3812W        W 7863   4.244   1.946   5.117  0.1615 -0.1631  0.0589
 3813W        W 7864   6.689   7.465   0.921 -0.1566  0.1349 -0.0770
 3814W        W 7865   5.910   4.227   8.845  0.0265 -0.2977 -0.1191
 3815W        W 7866   3.483   8.888   2.020 -0.0736 -0.1992  0.0156
 3816W        W 7867   2.539   4.713   0.007 -0.1582 -0.1620  0.2552
 3817W        W 7868   8.126   9.866   2.332 -0.1288 -0.2293 -0.0018
 3818W        W 7869   5.515   3.458   1.873 -0.2116  0.0885  0.2012
 3819W        W 7870   7.071   6.681   3.050  0.1136 -0.0239 -0.0908
 3820W        W 7871   0.472   2.879  11.016  0.0139 -0.1304  0.2964
 3821W        W 7872   1.516   7.460  12.171  0.1623  0.0860  0.2677
 3822W        W 7873   9.853   4.322  13.255 -0.1039  0.1643  0.0026
 3823W        W 7874   2.495   9.091   0.906  0.0419  0.0094 -0.1134
 3824W        W 7875   0.597   1.662   9.242  0.1169  0.0267  0.2845
 3825W        W 7876   6.366  10.392   4.993  0.1014 -0.1503 -0.1737
 3826W        W 7877   6.559   0.468   3.634  0.2178  0.0678  0.0491
 3827W        W 7878  10.254   3.020   9.837 -0.1230 -0.4471  0.1113
 3828W        W 7879   4.532   8.541   3.928 -0.2061 -0.0560 -0.0449
 3829W        W 7880   9.893   3.107  10.585 -0.1551  0.1305  0.1519
 3830W        W 7881   6.234   2.581   5.491 -0.1686  0.1661  0.1654
 3831W        W 7882   3.681   6.107   9.811  0.2521  0.0049  0.1750
 3832W        W 7883   4.340   3.041  13.092 -0.0840  0.2927  0.0365
 3833W        W 7884   1.541   6.186   0.502  0.0858 -0.0924  0.2949
 3834W        W 7885   4.345   8.784  13.078 -0.4483  0.0740  0.3002
 3835W        W 7886   2.520   5.205  11.576 -0.1137  0.0809 -0.1053
 3836W        W 7887   5.334   5.440  10.977  0.0492 -0.0997  0.0157
 3837W        W 7888   4.569   5.741   4.284  0.0518 -0.1752  0.0621
 3838W        W 7889   3.901   7.853   1.815  0.2705 -0.1544 -0.1621
 3839W        W 7890   6.743   8.378  11.533 -0.1775  0.0011 -0.0824
 3840W        W 7891   6.056   0.634   1.962 -0.1404  0.2037  0.0180
 3841W        W 7892   6.587   0.706   2.253 -0.0202  0.0900  0.0558
 3842W        W 7893   9.806   0.198  12.935  0.3317  0.3916  0.0407
 3843W        W 7894   9.648   1.025   2.930 -0.0164 -0.0883  0.0564
 3844W        W 7895   8.507   3.551   3.893 -0.0965  0.2550 -0.0165
 3845W        W 7896   4.238   9.472   9.428  0.0352 -0.0998  0.0795
 3846W        W 7897   5.534   8.255   2.314  0.0370 -0.0832  0.3822
 3847W        W 7898   4.368   3.268   2.348 -0.0982 -0.2135 -0.0488
 3848W        W 7899   5.162   9.389   9.247 -0.4373 -0.2542 -0.1329
 3849W        W 7900   3.664   6.874   9.499  0.3812 -0.0666  0.1257
 3850W        W 7901   1.069   0.716  12.566 -0.1597  0.0557  0.0662
 3851W        W 7902   7.725   2.102   2.888 -0.1195 -0.0148  0.0542
 3852W        W 7903   3.609   8.350   1.846 -0.0731 -0.0010  0.0941
 3853W        W 7904   5.544   7.012  11.884  0.1794 -0.0959 -0.3162
 3854W        W 7905   6.718   5.337   4.338 -0.0805 -0.1712  0.1563
 3855W        W 7906   8.696   9.844   4.210 -0.1210 -0.0846 -0.1897
 3856W        W 7907   9.955   4.981  12.733 -0.2091 -0.0118  0.4001
 3857W        W 7908   5.488   2.112   5.675  0.0350 -0.4237 -0.0387
 3858W        W 7909  10.084   0.246   3.829  0.3267  0.2980 -0.1369
 3859W        W 7910   3.113   7.985   4.536 -0.0043  0.1189 -0.1830
 3860W        W 7911   1.431   6.459   9.733 -0.0580  0.0520 -0.0110
 3861W        W 7912   7.241   7.377  10.626 -0.0797 -0.2330 -0.2594
 3862W        W 7913   4.226   4.870  12.063  0.0440  0.1662  0.0275
 3863W        W 7914   6.512   3.679   2.639  0.0278 -0.0026  0.1547
 3864W        W 7915   8.820   2.812   8.491 -0.1800  0.0700 -0.2412
 3865W        W 7916   8.373   4.632   2.611  0.0502  0.1333  0.1148
 3866W        W 7917   7.023   2.620   4.212  0.0226  0.0796  0.3577
 3867W        W 7918   1.802   4.139   1.879 -0.2598 -0.1672  0.2491
 3868W        W 7919   1.019   8.432  11.188  0.0769 -0.1559 -0.2173
 3869W        W 7920   0.368   2.268   0.560  0.0144 -0.0390 -0.1842
 3870W        W 7921   8.126   2.459   1.531 -0.2737  0.2363 -0.0016
 3871W        W 7922   9.316   6.090   2.889  0.3537 -0.2869 -0.1643
 3872W        W 7923   1.803   3.973  11.082 -0.2527 -0.1089  0.0664
 3873W        W 7924   2.841   7.297  12.909  0.0339 -0.2311 -0.1492
 3874W        W 7925   3.260   8.045   2.663  0.0046  0.0810  0.1847
 3875W        W 7926   5.055  10.137  13.191 -0.1417 -0.2301  0.2299
 3876W        W 7927   6.518   8.759   0.697 -0.0622 -0.0003  0.2160
 3877W        W 7928   9.546   5.593   0.005 -0.2382  0.0421 -0.2116
 3878W        W 7929   6.610   1.549  12.032 -0.0708 -0.3357  0.0293
 3879W        W 7930   5.041   2.751   1.085  0.0213 -0.0902 -0.1525
 3880W        W 7931   5.159   4.808   4.068 -0.3302 -0.1256 -0.0123
 3881W        W 7932   4.779   5.345   1.286  0.0071 -0.0287 -0.1200
 3882W        W 7933   8.571   5.608   0.128  0.0166 -0.1693 -0.2049
 3883W        W 7934   8.152   7.528   2.676 -0.5442 -0.1420 -0.1524
 3884W        W 7935   1.701   9.486   3.328  0.0754 -0.0197 -0.1625
 3885W        W 7936   5.593  10.328  13.313 -0.1074  0.4890  0.0948
 3886W        W 7937   0.989   9.134   2.806 -0.2082 -0.0456 -0.0074
 3887W        W 7938   9.967   1.530   1.381  0.0178  0.3513  0.2804
 3888W        W 7939   9.795   7.477   4.181 -0.2814 -0.1283 -0.2861
 3889W        W 7940  10.187   5.127   0.331  0.1591  0.1050  0.1174
 3890W        W 7941   5.598   3.186  11.242 -0.0463 -0.0613  0.1924
 3891W        W 7942  10.216  10.259   2.052 -0.1305  0.1351 -0.2094
 3892W        W 7943   7.174   9.621   0.671 -0.0745 -0.2124  0.0674
 3893W        W 7944   8.649   9.931  11.986  0.2139 -0.0552 -0.2085
 3894W        W 7945   6.137   1.208   3.181  0.0731  0.1065 -0.1258
 3895W        W 7946   6.126   6.754  10.632  0.1403 -0.1107  0.0152
 3896W        W 7947   1.252   2.991  12.019  0.2430 -0.0284 -0.2897
 3897W        W 7948   3.867   4.672   0.128 -0.0723  0.2882  0.0620
 3898W        W 7949   1.621   3.417   9.385  0.1039  0.3976  0.1186
 3899W        W 7950   8.848   3.342   9.406  0.1739  0.1309  0.0833
 3900W        W 7951   6.287   2.436   0.713 -0.0189  0.0262 -0.1986
 3901W        W 7952   5.163   2.458  11.520  0.3821 -0.0135  0.2479
 3902W        W 7953   2.692   7.456   1.024 -0.0152 -0.2131  0.0646
 3903W        W 7954   5.496  10.033   9.920  0.4288  0.0223  0.0441
 3904W        W 7955   7.548   4.003   0.418  0.0501  0.0716  0.1005
 3905W        W 7956   6.213   8.845   1.913  0.0942 -0.2463  0.2571
 3906W        W 7957   0.609   4.683   2.921  0.3605 -0.2398 -0.0116
 3907W        W 7958   1.680  10.050  10.396  0.1290 -0.0532 -0.0615
 3908W        W 7959   9.422   6.278  12.977 -0.4615 -0.2315  0.5103
 3909W        W 7960   5.611   7.327   4.410  0.2790 -0.0350 -0.1825
 3910W        W 7961   3.411   2.201   9.471  0.0809  0.1251 -0.0240
 3911W        W 7962   9.042   8.814   3.495  0.3457  0.1024 -0.2334
 3912W        W 7963   3.871   9.979   9.271  0.0001 -0.1225 -0.0096
 3913W        W 7964   9.691   7.949   4.114 -0.0482  0.1930 -0.2041
 3914W        W 7965   2.985   9.544   4.392  0.0575  0.1887  0.0103
 3915W        W 7966   9.583   7.018   2.358 -0.2337  0.1198  0.0225
 3916W        W 7967   2.488   3.571  11.933 -0.1961  0.0872 -0.2699
 3917W        W 7968   2.782   9.549  12.925  0.1204  0.1779  0.0399
 3918W        W 7969   8.439   8.736   3.715 -0.0505 -0.2899  0.2853
 3919W        W 7970   9.165   7.873   3.363 -0.1137  0.2206 -0.0912
 3920W        W 7971   0.014   3.659  11.291 -0.0422 -0.0046  0.1774
 3921W        W 7972   8.141   0.127   1.357 -0.0831 -0.0954  0.3637
 3922W        W 7973   3.471   0.100   2.203  0.1265  0.0173 -0.2625
 3923W        W 7974   4.163   0.998   2.841 -0.6491  0.0673  0.0163
 3924W        W 7975   3.360   4.134  10.419 -0.0310  0.1604  0.0150
 3925W        W 7976   3.964   2.076  11.754  0.1842  0.0506  0.1133
 3926W        W 7977   3.042   9.041   2.216 -0.3697 -0.0926 -0.2793
 3927W        W 7978   3.853   0.200  12.377 -0.1419 -0.2745 -0.3345
 3928W        W 7979   1.717   1.972  13.302 -0.0768  0.1180 -0.0198
 3929W        W 7980   7.618   4.181   2.241 -0.1135  0.0463  0.1018
 3930W        W 7981   7.266   6.958  12.778  0.0377 -0.0150  0.0608
 3931W        W 7982  10.128   1.875   4.172 -0.0277 -0.0081 -0.0787
 3932W        W 7983   0.761   2.080   9.920  0.0054 -0.4432  0.1188
 3933W        W 7984   8.946   8.235   1.472  0.1068 -0.3821 -0.1681
 3934W        W 7985  10.100   7.840  10.029  0.1968  0.2228 -0.1866
 3935W        W 7986   6.340   0.115  11.674 -0.3083  0.0966 -0.1487
 3936W        W 7987   1.446   0.921   2.348 -0.1716  0.3611  0.1566
 3937W        W 7988   7.012   5.951  10.531  0.4699 -0.0751  0.1063
 3938W        W 7989   7.249  10.206   1.357 -0.1488  0.2861 -0.2453
 3939W        W 7990   4.261  10.056   4.581  0.0123  0.1432 -0.1199
 3940W        W 7991   2.929   7.812  11.347 -0.1634  0.2966 -0.1890
 3941W        W 7992   2.390   3.623  10.916 -0.0717  0.3309  0.3028
 3942W        W 7993   5.589   1.263  12.561 -0.1460 -0.2567 -0.1312
 3943W        W 7994   8.494  10.101   0.605  0.0562  0.5181 -0.4232
 3944W        W 7995   4.977   7.813  11.719  0.0971  0.0325 -0.3521
 3945W        W 7996   5.469  10.419   4.974  0.0420  0.4157 -0.0322
 3946W        W 7997   6.073   0.900   4.029  0.0441  0.0378 -0.1856
 3947W        W 7998   4.728   5.311   3.139 -0.0732 -0.0667 -0.5106
 3948W        W 7999   1.235   9.829   2.771  0.0365 -0.1451 -0.0402
 3949W        W 8000   1.716   1.000  10.629  0.5123 -0.1175  0.2563
 3950W        W 8001   9.846   0.026   4.264  0.0158  0.0233  0.0406
 3951W        W 8002   3.348   1.687   4.762 -0.1679 -0.1047  0.0819
 3952W        W 8003   2.091   9.330  10.249  0.0690  0.0420 -0.0997
 3953W        W 8004   0.680   3.679  13.122 -0.0361 -0.0693  0.1433
 3954W        W 8005   7.163   5.971   4.442 -0.1813  0.1231 -0.3706
 3955W        W 8006   4.433   7.462   1.152  0.2321 -0.0295 -0.2488
 3956W        W 8007   4.883   6.568   2.217  0.0016 -0.3021 -0.0727
 3957W        W 8008  10.182   2.780  10.333  0.3146 -0.1321 -0.2330
 3958W        W 8009   4.599   3.072  11.618 -0.2118  0.3373 -0.0252
 3959W        W 8010   8.420   7.547   1.295 -0.0437  0.0748 -0.1855
 3960W        W 8011   3.930   6.306   0.510 -0.2614  0.0614  0.0461
 3961W        W 8012   4.518   7.703   3.298 -0.2704  0.0543 -0.2569
 3962W        W 8013   9.475   7.441  10.631 -0.1735 -0.1662  0.1595
 3963W        W 8014   9.653   6.692   3.991  0.0538 -0.0922  0.2717
 3964W        W 8015   8.662   2.303   1.435  0.1034 -0.1740 -0.1554
 3965W        W 8016   3.092   5.822   3.952 -0.0251 -0.4357  0.0586
 3966W        W 8017   3.156   7.629   9.174  0.0565  0.0950 -0.0339
 3967W        W 8018   3.992   6.140   3.657 -0.0814  0.0828  0.3720
 3968W        W 8019   6.173   2.338  12.214 -0.0456  0.0112  0.1093
 3969W        W 8020   9.224   0.062  12.174  0.0776 -0.1748 -0.3828
 3970W        W 8021   3.059   9.733   9.436 -0.2415  0.0944  0.2046
 3971W        W 8022   7.042   5.030   2.463  0.0174 -0.2883  0.0033
 3972W        W 8023   8.689   7.184   5.469  0.1093 -0.2486  0.0662
 3973W        W 8024   1.462   8.141   3.646 -0.1568  0.1016 -0.1950
 3974W        W 8025   5.745   3.980   1.796 -0.2010 -0.1152 -0.0262
 3975W        W 8026   8.579   1.587  12.942 -0.0297  0.0441 -0.0764
 3976W        W 8027   1.860   2.966  13.112 -0.2628  0.1760  0.4249
 3977W        W 8028   9.191   8.575   4.294  0.0558  0.0436 -0.1956
 3978W        W 8029   0.597   3.219  10.654 -0.0682  0.0181 -0.0965
 3979W        W 8030   1.242   0.118   0.115 -0.0680  0.1050  0.2900
 3980W        W 8031   8.309   7.395   4.492  0.0291 -0.2806 -0.1729
 3981W        W 8032   5.673  10.391   1.463 -0.3195 -0.1959 -0.1014
 3982W        W 8033   5.821   2.928   0.153  0.0044  0.0406 -0.1916
 3983W        W 8034   2.788   4.048   2.452  0.0144  0.1123  0.0537
 3984W        W 8035   4.080   6.847   0.601  0.4518  0.0696  0.2093
 3985W        W 8036   2.784   7.625   2.768  0.0144 -0.1337  0.3654
 3986W        W 8037   2.949   8.081   3.050  0.1172  0.0410 -0.1467
 3987W        W 8038   0.685   6.514  12.862  0.2597 -0.3809 -0.2961
 3988W        W 8039   5.414   9.014   0.115 -0.1093  0.1975  0.0683
 3989W        W 8040   8.617   7.980  10.931  0.0365 -0.1582  0.0964
 3990W        W 8041   6.359   3.177  12.829 -0.1508 -0.2024  0.1527
 3991W        W 8042   4.647   9.519   3.906 -0.1324 -0.1846 -0.0597
 3992W        W 8043   9.771   9.950   1.823 -0.2387 -0.0439 -0.2281
 3993W        W 8044   4.470   2.749  11.275  0.1556 -0.0386 -0.1278
 3994W        W 8045   8.805   0.200  10.379  0.1132  0.3190 -0.0228
 3995W        W 8046   4.130   5.448  10.415  0.0404 -0.0378  0.0597
 3996W        W 8047   7.135   1.287   0.414  0.0837  0.1275 -0.0607
 3997W        W 8048   0.972   8.819  10.851 -0.2160 -0.1628  0.1678
 3998W        W 8049   8.127   7.196  10.929  0.2419 -0.1819 -0.0631
 3999W        W 8050   9.569   4.547  10.218 -0.0908 -0.0189 -0.1142
 4000W        W 8051   2.999   2.380   1.594  0.1388 -0.1520 -0.3852
 4001W        W 8052   6.298   7.354  12.269 -0.4470 -0.1333  0.0829
 4002W        W 8053   3.110   1.342  12.250 -0.0077  0.0400 -0.1291
 4003W        W 8054   7.641   9.947   0.416 -0.2148  0.0750 -0.2001
 4004W        W 8055   6.459   2.023  12.010  0.3192  0.1546  0.0807
 4005W        W 8056   2.916   3.327   1.684 -0.2312 -0.0493  0.1017
 4006W        W 8057   8.077   4.015   9.428 -0.0051 -0.0071  0.3566
 4007W        W 8058   6.403   2.375   4.213 -0.1320  0.0311 -0.1256
 4008W        W 8059   5.895  10.155  10.952 -0.2436 -0.4929 -0.2479
 4009W        W 8060   3.689   1.772   9.535 -0.3634 -0.0812 -0.2050
 4010W        W 8061   3.752   7.542   2.237  0.0640 -0.2168 -0.2370
 4011W        W 8062   0.126   7.335   1.453  0.2211 -0.4036 -0.2603
 4012W        W 8063   6.063   8.653  10.221  0.3298 -0.0602  0.0819
 4013W        W 8064   2.236  10.377  12.978 -0.3009  0.2547 -0.2122
 4014W        W 8065   1.365   1.206   0.021 -0.0403  0.0873 -0.1008
 4015W        W 8066   6.433   4.961  10.889 -0.1952 -0.2494 -0.0752
 4016W        W 8067   5.055   4.859   4.633  0.1797 -0.0408  0.1826
 4017W        W 8068   5.776   5.638  10.908 -0.1844 -0.3483 -0.3401
 4018W        W 8069   0.250   8.579  11.938  0.0733  0.1827 -0.1371
 4019W        W 8070   7.898   8.976  11.421  0.2815  0.0702 -0.0467
 4020W        W 8071   0.490   6.005   2.700  0.1469  0.2728  0.1013
 4021W        W 8072   0.426   0.971   3.454 -0.0534 -0.0994  0.1974
 4022W        W 8073   0.324   9.016   2.073  0.1609 -0.1936  0.2264
 4023W        W 8074   9.907   6.992   4.857  0.3478 -0.0358 -0.2849
 4024W        W 8075   1.485   5.973   3.391  0.2018  0.2816  0.4098
 4025W        W 8076   8.802   2.970  10.541 -0.3109 -0.3251  0.0072
 4026W        W 8077   4.255   1.103  10.801  0.2038 -0.0604 -0.2261
 4027W        W 8078   1.232   0.701   3.948 -0.4785  0.2059  0.1052
 4028W        W 8079   7.909   4.714   4.779 -0.0892 -0.0718  0.2518
 4029W        W 8080   2.559   9.273  10.057 -0.0780 -0.1314 -0.1988
 4030W        W 8081   8.052   7.675  10.976  0.0634  0.3428 -0.0745
 4031W        W 8082   7.544   6.516   2.882  0.3716  0.1414 -0.0592
 4032W        W 8083   4.614   9.182   1.104  0.2302  0.0281  0.2290
 4033W        W 8084   5.342   1.936   0.264 -0.0504 -0.1958 -0.2127
 4034W        W 8085   4.866   0.480   0.371 -0.0198 -0.1414  0.3191
 4035W        W 8086  10.069   5.622  10.820 -0.1222  0.2606  0.1706
 4036W        W 8087  10.116   8.122  13.344  0.2039  0.2181  0.0909
 4037W        W 8088   3.207   7.210   2.426 -0.2798 -0.0656 -0.0500
 4038W        W 8089   7.987   4.561   8.608 -0.1202 -0.0464  0.1214
 4039W        W 8090   4.444   0.566   1.384  0.0614  0.2828  0.1565
 4040W        W 8091   5.625   6.539  10.460 -0.0361 -0.0164  0.1695
 4041W        W 8092   7.313   6.920  10.424 -0.0060  0.0688 -0.0234
 4042W        W 8093   4.955   2.048  11.339 -0.0874 -0.1791 -0.1188
 4043W        W 8094   3.810   0.377  11.807  0.2850  0.1431 -0.1230
 4044W        W 8095   6.532   1.506   3.314 -0.1108 -0.2556 -0.2510
 4045W        W 8096   0.743   0.868   0.601 -0.2756 -0.2517 -0.1111
 4046W        W 8097   1.453   8.281   2.740 -0.2907 -0.0835  0.0922
 4047W        W 8098   5.074   4.340   9.476 -0.0850 -0.0113  0.0805
 4048W        W 8099   6.549   7.651  12.653  0.2370 -0.1880 -0.2788
 4049W        W 8100  10.260   9.604  11.514 -0.0411  0.0092 -0.0049
 4050W        W 8101   3.841   7.283  10.348 -0.0148  0.1361 -0.1882
 4051W        W 8102   4.240   5.766  12.177  0.0756  0.0497 -0.0021
 4052W        W 8103   6.071   6.287  10.520  0.1912 -0.1133  0.0010
 4053W        W 8104   6.909   1.344   1.139  0.3621  0.0866 -0.3765
 4054W        W 8105   5.932   0.778   2.967  0.0991  0.0749  0.0955
 4055W        W 8106   4.856   0.720   9.900  0.1282  0.1367  0.1494
 4056W        W 8107   7.760   6.690   4.276  0.0080 -0.1601  0.0610
 4057W        W 8108   1.241   8.171   8.182 -0.0058 -0.0709  0.1074
 4058W        W 8109   8.047   5.594  11.207 -0.3069  0.0313 -0.0988
 4059W        W 8110   8.594   3.873   2.401 -0.0037  0.1557  0.2654
 4060W        W 8111   8.783   1.161  12.667  0.0749 -0.0909 -0.3041
 4061W        W 8112   5.895   9.785   4.021  0.1432  0.3226  0.0363
 4062W        W 8113   1.648   2.458   0.089 -0.0241  0.1318 -0.1199
 4063W        W 8114   7.948   4.232   9.890 -0.2811 -0.1558  0.1504
 4064W        W 8115   0.827   2.941   3.092  0.0796  0.1757 -0.0042
 4065W        W 8116   9.370   3.618   9.935  0.3726 -0.0644  0.0320
 4066W        W 8117   7.690   3.230   9.984 -0.1082  0.1965 -0.1285
 4067W        W 8118   1.334   4.817   1.764 -0.2204 -0.2595 -0.0575
 4068W        W 8119   8.562   0.798   3.627  0.0976 -0.2862 -0.0479
 4069W        W 8120   6.195   1.275   1.326 -0.0858  0.1604  0.3056
 4070W        W 8121   0.606   3.648   3.193 -0.0444  0.0314  0.1076
 4071W        W 8122   2.969   7.363   3.656 -0.1537 -0.1690  0.0782
 4072W        W 8123   7.949   9.176  11.984 -0.2716  0.0752  0.0617
 4073W        W 8124   7.503   5.154  12.391 -0.0230  0.0030 -0.3833
 4074W        W 8125   7.743  10.093   9.847  0.0813  0.1938  0.1956
 4075W        W 8126   2.018   7.648   2.242  0.1809 -0.0645  0.3891
 4076W        W 8127   0.783   1.118   3.097 -0.2496  0.1017 -0.1046
 4077W        W 8128   4.313   2.224   4.597  0.0661  0.0020  0.0878
 4078W        W 8129   3.083   0.134   1.763  0.1580 -0.0977  0.0899
 4079W        W 8130   6.919   2.336  11.632  0.0349 -0.4274  0.2623
 4080W        W 8131   4.220   7.365  13.063 -0.1788 -0.0791  0.0722
 4081W        W 8132   9.064   4.847   3.104 -0.3712 -0.0532  0.1292
 4082W        W 8133   1.143   6.706   3.405 -0.0385 -0.1171 -0.0608
 4083W        W 8134   0.896   0.976   9.617  0.1554 -0.2286 -0.1166
 4084W        W 8135  10.075   9.520  10.988 -0.0805 -0.1887  0.0055
 4085W        W 8136   2.315   9.988  12.412 -0.0275 -0.1774 -0.0460
 4086W        W 8137  10.248   7.326   0.332 -0.0082 -0.2722  0.1285
 4087W        W 8138   1.569   9.023   0.714 -0.1243  0.2761 -0.1406
 4088W        W 8139   4.666   9.736   2.440 -0.0971 -0.0582 -0.0244
 4089W        W 8140   8.912   3.994   9.375  0.1920 -0.1851  0.1594
 4090W        W 8141   6.263  10.329  12.113 -0.1562 -0.0058 -0.2216
 4091W        W 8142   8.340   2.001  12.434 -0.1233  0.2630 -0.0099
 4092W        W 8143   7.555   9.504  12.764 -0.0721 -0.3321 -0.0218
 4093W        W 8144   6.209   3.776   3.523 -0.1586  0.1523 -0.0839
 4094W        W 8145   7.283   8.017  11.021 -0.0602 -0.2641 -0.2642
 4095W        W 8146   9.484   3.857   0.203 -0.0117 -0.0172 -0.0548
 4096W        W 8147   9.605   7.813   3.097 -0.3255 -0.3029  0.2826
 4097W        W 8148   6.078   1.969   9.904  0.0850 -0.1610 -0.0092
 4098W        W 8149   0.698   6.897   3.498 -0.1184 -0.2854  0.2468
 4099W        W 8150   6.083   5.807  10.504 -0.0334  0.0026  0.0351
 4100W        W 8151   4.970   9.315   0.224 -0.0729 -0.2378 -0.2335
 4101W        W 8152   8.729   7.041   3.049  0.3217  0.0723 -0.0804
 4102W        W 8153   2.303   5.906   6.979 -0.2825 -0.0149 -0.1549
 4103W        W 8154   3.092   4.913   2.284 -0.1068 -0.0701 -0.0635
 4104W        W 8155   7.328   7.077  11.010 -0.2090 -0.1832 -0.1996
 4105W        W 8156   7.362   4.846   1.585  0.0967 -0.2755  0.2669
 4106W        W 8157   0.537   7.818  13.058 -0.0392  0.3629  0.0944
 4107W        W 8158   3.929   0.780   1.585 -0.0625 -0.1445 -0.2748
 4108W        W 8159   8.053   1.783   4.148  0.0351 -0.2706 -0.0669
 4109W        W 8160   1.953   3.485  13.062  0.0210 -0.2015 -0.0407
 4110W        W 8161   6.270   5.034   3.949  0.1575 -0.1949  0.0385
 4111W        W 8162   5.902   8.433   3.540  0.2282 -0.4660  0.1892
 4112W        W 8163   9.536   1.143   2.075  0.2046 -0.5621  0.0928
 4113W        W 8164   6.630   5.938   1.172  0.3015 -0.4174  0.2211
 4114W        W 8165   0.437   4.379  11.371 -0.1244  0.0028 -0.0224
 4115W        W 8166   7.789   5.037  12.789 -0.1631 -0.0695  0.1650
 4116W        W 8167   5.883   0.099   1.881  0.0444 -0.3327 -0.2369
 4117W        W 8168   6.274   7.055  12.661 -0.3139  0.2301 -0.2915
 4118W        W 8169   3.763   8.581   5.208 -0.0499  0.0434  0.1225
 4119W        W 8170   7.707   9.425   4.704  0.1082 -0.0879 -0.0163
 4120W        W 8171  10.077   3.368  10.166  0.2699 -0.0276 -0.0605
 4121W        W 8172   2.998   4.660   3.256  0.4685 -0.0406  0.0056
 4122W        W 8173   8.399   3.061   0.153  0.0127 -0.2705 -0.1565
 4123W        W 8174   7.372   0.074   1.791  0.3226 -0.1420 -0.0414
 4124W        W 8175   3.052   1.487   4.125 -0.0233 -0.1316 -0.2949
 4125W        W 8176   3.925   9.538   1.391  0.1630  0.1772  0.2061
 4126W        W 8177   6.232   8.186  11.404  0.0180  0.0754  0.3636
 4127W        W 8178   7.816   0.526   0.416  0.0831  0.0129 -0.2474
 4128W        W 8179   8.129   0.174  12.509 -0.1643 -0.0018 -0.1172
 4129W        W 8180  10.421   7.882   8.636 -0.0929  0.2006  0.2139
 4130W        W 8181   4.963   9.916  11.160 -0.0086 -0.2776  0.1670
 4131W        W 8182   9.538   5.138   1.459 -0.1669 -0.1472 -0.0685
 4132W        W 8183   2.638   9.955   2.192 -0.2517 -0.1383  0.1978
 4133W        W 8184   7.218   7.550   3.548  0.0417  0.0714  0.1181
 4134W        W 8185   3.647   8.032   2.245  0.0164 -0.0834 -0.1671
 4135W        W 8186   8.976   9.718  11.669  0.0143 -0.0969  0.0490
 4136W        W 8187   4.947   1.985   1.787 -0.0056  0.0467 -0.1632
 4137W        W 8188   8.431   0.608  12.589  0.1156  0.1917  0.1624
 4138W        W 8189   6.861   7.050  10.489 -0.0774  0.2424 -0.0173
 4139W        W 8190   3.752   0.725   2.838 -0.0094  0.1058  0.1020
 4140W        W 8191   9.255   8.323   3.905 -0.1071  0.3350  0.1249
 4141W        W 8192   5.696   0.558   9.271  0.0805  0.1539 -0.0425
 4142W        W 8193   1.579   8.427   4.057 -0.1922  0.0151 -0.0131
 4143W        W 8194   2.714   5.913  12.459  0.1377 -0.4171 -0.2409
 4144W        W 8195   9.065  10.037   9.677  0.0623 -0.0994  0.2916
 4145W        W 8196   4.010   7.018   3.543  0.0433  0.1788 -0.0497
 4146W        W 8197   3.448   0.850  10.663  0.2773 -0.1644 -0.1458
 4147W        W 8198   2.435   5.759  11.874  0.2466 -0.2253 -0.0364
 4148W        W 8199   4.125   3.034  11.932  0.1011  0.1027 -0.2979
 4149W        W 8200   5.631   5.376  13.098  0.3805  0.2750 -0.0697
 4150W        W 8201   5.025   0.212   3.149  0.0993  0.1019  0.1469
 4151W        W 8202   8.622   6.613   9.773 -0.2003  0.0536  0.2424
 4152W        W 8203   6.115   7.127   9.752 -0.0470 -0.0655  0.0997
 4153W        W 8204   0.671   3.610   0.389  0.0831 -0.2145  0.2437
 4154W        W 8205  10.007   5.139  10.891  0.2622  0.2275  0.1868
 4155W        W 8206   7.713   5.403   9.538  0.2078 -0.0152 -0.0787
 4156W        W 8207   0.237   8.866  12.937  0.2924 -0.2521 -0.2374
 4157W        W 8208   9.702   8.706   1.089  0.0267 -0.0176 -0.2877
 4158W        W 8209   8.494   8.164  11.580 -0.3152 -0.1846 -0.1922
 4159W        W 8210  10.304   6.950   0.709 -0.0871  0.0476  0.2896
 4160W        W 8211   9.202   7.058   3.874 -0.0492  0.0063  0.1068
 4161W        W 8212   2.232   5.975  12.293  0.1376 -0.1002  0.1633
 4162W        W 8213  10.118   3.287   3.279 -0.4180 -0.4268  0.0444
 4163W        W 8214   0.513   1.326   3.848  0.0389  0.2981  0.1986
 4164W        W 8215  10.190   1.594  11.314 -0.1644 -0.1001 -0.1449
 4165W        W 8216   9.543   7.612  11.292 -0.0667  0.1491  0.0170
 4166W        W 8217   4.014   0.379   9.429 -0.0490  0.1818  0.1257
 4167W        W 8218   2.118   3.318  10.093 -0.0742  0.0408  0.0293
 4168W        W 8219   8.816   8.277   9.885 -0.0286  0.1623 -0.0457
 4169W        W 8220  10.285   8.384  12.951  0.2430  0.1453 -0.1705
 4170W        W 8221   0.060   5.768   3.454 -0.2175  0.0874  0.0825
 4171W        W 8222   2.962   7.174  11.265  0.2875 -0.2803  0.0007
 4172W        W 8223   2.601   0.337   2.003  0.2721  0.2806  0.1064
 4173W        W 8224   4.197   3.577  12.765 -0.2838 -0.2031  0.3962
 4174W        W 8225   6.770   9.828   4.295 -0.0719  0.5225  0.0149
 4175W        W 8226   5.406   3.890   0.385 -0.0914  0.0679 -0.1002
 4176W        W 8227   2.814   1.765  10.761  0.1377  0.1789  0.1339
 4177W        W 8228   5.190   7.520   3.986 -0.1640 -0.3083 -0.1261
 4178W        W 8229   7.083   9.273  10.258  0.0545 -0.1282 -0.0989
 4179W        W 8230   2.617   5.361   4.353  0.0297 -0.3099 -0.0899
 4180W        W 8231   8.978   2.667  12.722 -0.0602  0.1954 -0.2700
 4181W        W 8232   8.330   8.041  10.062 -0.2385 -0.4221  0.1391
 4182W        W 8233   3.161   5.999   9.865  0.0222  0.1962  0.0270
 4183W        W 8234   8.112   3.493  10.154  0.3114  0.0045 -0.1147
 4184W        W 8235   5.365   1.855   1.518  0.1325  0.1318 -0.4917
 4185W        W 8236   6.123   2.842  12.162 -0.0348  0.1271 -0.0818
 4186W        W 8237   4.174   7.003  11.711 -0.1091  0.3602 -0.3180
 4187W        W 8238   8.988   2.526   8.911  0.4057  0.3531 -0.2061
 4188W        W 8239  10.158   2.421   0.385 -0.5460  0.3782 -0.1977
 4189W        W 8240   5.363   1.259  11.578 -0.0898  0.0941 -0.0001
 4190W        W 8241   3.950   1.208   9.819  0.1545  0.3199  0.0167
 4191W        W 8242   5.139   4.770   2.087 -0.2130  0.1545 -0.2957
 4192W        W 8243   0.056   4.551  11.646 -0.3566  0.0409  0.0030
 4193W        W 8244   5.755   3.133   4.369 -0.0333 -0.0536 -0.0240
 4194W        W 8245   7.527   1.346   3.635  0.0790 -0.4175  0.4135
 4195W        W 8246   8.762   3.242  11.994  0.3122  0.0009 -0.0477
 4196W        W 8247   9.231   7.325  12.399  0.0469  0.1800 -0.1782
 4197W        W 8248   0.726   8.759  11.464  0.0739 -0.1671  0.0848
 4198W        W 8249   6.195   7.052   5.111 -0.1766 -0.2893 -0.4485
 4199W        W 8250   9.563   4.320   8.742  0.1573 -0.0305  0.0740
 4200W        W 8251   1.101   4.767  10.439 -0.0284  0.0948  0.0986
 4201W        W 8252   6.469   3.548  11.146  0.1569 -0.2335  0.0560
 4202W        W 8253   7.746   6.886   3.306  0.1871 -0.1623  0.0920
 4203W        W 8254   8.780   6.884   5.039 -0.1522 -0.3218 -0.2318
 4204W        W 8255   8.719   7.474  12.216 -0.1794  0.1393 -0.0719
 4205W        W 8256   7.424   4.684   4.383  0.0980  0.0257  0.1211
 4206W        W 8257   1.731   2.001   4.518 -0.0554 -0.1173  0.1100
 4207W        W 8258   2.640  10.354   1.723  0.0946  0.3460  0.2487
 4208W        W 8259   4.805   4.150  10.205 -0.2597  0.2295  0.4090
 4209W        W 8260   7.216   6.653  11.297 -0.0502 -0.2502 -0.0912
 4210W        W 8261   9.557   7.496   1.439 -0.1900 -0.1669  0.0081
 4211W        W 8262   9.968  10.234  11.759  0.2187  0.0352 -0.1838
 4212W        W 8263   8.060   0.603  11.436  0.0601 -0.2786 -0.2053
 4213W        W 8264   2.656   7.679  10.157 -0.1784 -0.1971  0.3117
 4214W        W 8265   8.441   5.921   1.605 -0.2221 -0.3561 -0.2730
 4215W        W 8266   8.438   8.371   9.355 -0.2527  0.0332  0.0015
 4216W        W 8267   5.188   3.897   3.460 -0.1471  0.1332  0.1127
 4217W        W 8268   1.915   2.730  10.948 -0.2093  0.1700 -0.0527
 4218W        W 8269   5.483   3.792  11.858 -0.1207 -0.0518  0.1669
 4219W        W 8270   1.812   5.125  11.383  0.1347 -0.1497  0.0983
 4220W        W 8271   6.807  10.399   1.621  0.0503  0.0348  0.2483
 4221W        W 8272   2.729   3.274   4.456  0.0663 -0.0116 -0.1662
 4222W        W 8273   9.307   4.137  10.369  0.1331 -0.2539  0.0766
 4223W        W 8274   8.643   5.330   0.553 -0.2390 -0.1707  0.1357
 4224W        W 8275   4.168   3.479   5.626  0.1760 -0.2082  0.2593
 4225W        W 8276   7.716   7.358   3.011  0.0481 -0.0113  0.0714
 4226W        W 8277   5.526   3.469  12.288  0.3085  0.0356  0.0795
 4227W        W 8278   1.066   4.338   1.055  0.1690  0.0454 -0.0020
 4228W        W 8279   0.988   1.430   0.461 -0.1205 -0.1423  0.1620
 4229W        W 8280   0.389   8.971  11.081 -0.0759  0.1559  0.1642
 4230W        W 8281   7.453   6.008  10.875  0.0183  0.0639  0.0333
 4231W        W 8282   7.340   6.991   2.644  0.1153 -0.4107 -0.0399
 4232W        W 8283   9.701   3.989  10.116 -0.2477  0.2412 -0.1240
 4233W        W 8284   8.135   0.543  12.064 -0.2369  0.0466  0.2240
 4234W        W 8285   6.904   9.064  11.474 -0.1259  0.0011 -0.0655
 4235W        W 8286   1.872   9.134  11.267  0.0399  0.1190 -0.0792
 4236W        W 8287   0.183   6.505   3.914  0.1703 -0.1297  0.1602
 4237W        W 8288  10.085   1.551  12.472 -0.1859 -0.0387 -0.0109
 4238W        W 8289   5.050   8.015   1.572  0.0270 -0.0518 -0.6817
 4239W        W 8290   2.790   4.319   0.291 -0.3009  0.2332  0.1378
 4240W        W 8291   1.790  10.328   9.298 -0.1237 -0.2346 -0.0736
 4241W        W 8292   6.255   1.541  13.288  0.3219 -0.2576  0.0266
 4242W        W 8293   3.609   4.327   4.247  0.0876  0.1564  0.1162
 4243W        W 8294   3.244   8.837  11.380  0.0118 -0.4413  0.2836
 4244W        W 8295   9.152   0.502  12.032 -0.0986  0.0469 -0.2097
 4245W        W 8296   0.202   2.234   1.266  0.0950  0.4346 -0.1286
 4246W        W 8297   8.747   3.585   0.048  0.1522 -0.1368 -0.1551
 4247W        W 8298   3.789   3.159   2.264 -0.0342 -0.1041 -0.0471
 4248W        W 8299   7.017   7.664   9.796 -0.1420  0.1282 -0.0652
 4249W        W 8300  10.422   1.172   9.992  0.0300  0.0775  0.0289
 4250W        W 8301  10.071   0.343   1.403  0.1672  0.3829  0.1269
 4251W        W 8302   7.363   0.006   3.794 -0.2840  0.1045 -0.0913
 4252W        W 8303   0.421   6.361   0.310 -0.2276 -0.2670 -0.3710
 4253W        W 8304   8.814   9.909   1.599  0.0949 -0.2307  0.1225
 4254W        W 8305   5.708   5.122  10.839 -0.3935  0.2669  0.1478
 4255W        W 8306   4.724  10.144   9.229 -0.0355  0.1230  0.2266
 4256W        W 8307   7.884   3.728   0.821  0.2402 -0.0871  0.2652
 4257W        W 8308   8.986   6.027   9.604  0.2440 -0.0739  0.0942
 4258W        W 8309   0.001   7.162  13.225  0.1185  0.1242 -0.2732
 4259W        W 8310   5.745   3.987  12.701  0.3852 -0.1073  0.0809
 4260W        W 8311   4.656  10.143   0.820 -0.0928  0.1621 -0.0304
 4261W        W 8312   9.242   2.922   5.040  0.1490  0.1523 -0.0951
 4262W        W 8313  10.127   3.624   9.731  0.3267  0.0481  0.3385
 4263W        W 8314   7.690   0.874  10.337  0.0842 -0.0517  0.2289
 4264W        W 8315   9.185   9.447  11.203  0.3172  0.2857  0.0452
 4265W        W 8316   0.535   7.817   9.343 -0.3937  0.2827  0.2164
 4266W        W 8317   6.506   8.702   2.856 -0.0367 -0.2607  0.3127
 4267W        W 8318   3.450   2.365   1.743 -0.1621 -0.2844 -0.0097
 4268W        W 8319   7.315   7.164  11.622  0.1276 -0.1994  0.3800
 4269W        W 8320   5.853   7.553  11.031 -0.0340 -0.0282 -0.2868
 4270W        W 8321  10.234   4.424  10.760 -0.1357  0.1604  0.1910
 4271W        W 8322   0.603   4.211  12.321  0.1357 -0.0374  0.1518
 4272W        W 8323   4.326   6.111  12.551  0.0574  0.2434 -0.1036
 4273W        W 8324   4.599   4.284   4.116  0.2778 -0.0377 -0.0678
 4274W        W 8325   2.193   6.043   1.587  0.1058 -0.0693 -0.0494
 4275W        W 8326   2.980   0.108   3.772 -0.3042  0.3487 -0.0965
 4276W        W 8327   5.567   1.465   3.091  0.0777 -0.2918  0.1779
 4277W        W 8328   2.967   2.227  12.347 -0.4821 -0.1662  0.3129
 4278W        W 8329   7.577   6.357   1.103 -0.2917 -0.0515 -0.1178
 4279W        W 8330   7.019   2.177   4.471 -0.0258 -0.2049  0.1517
 4280W        W 8331   1.993   3.847   0.027 -0.1347  0.1784 -0.3534
 4281W        W 8332   7.260   2.505   5.507 -0.2161 -0.1684 -0.1796
 4282W        W 8333   2.200   3.897   1.707 -0.1377 -0.2002  0.1204
 4283W        W 8334   8.220   4.048  12.620  0.0374 -0.0892  0.0375
 4284W        W 8335   1.513   8.684   4.437  0.2259 -0.2596 -0.1730
 4285W        W 8336   0.046   1.460  10.896 -0.2509 -0.0695  0.1466
 4286W        W 8337   5.525   2.534   2.946 -0.0693  0.1088 -0.3112
 4287W        W 8338   0.019  10.081   0.553 -0.1484  0.1065 -0.3876
 4288W        W 8339   4.505   4.961   1.254 -0.2686 -0.0051 -0.3340
 4289W        W 8340   6.220   1.189  10.905  0.0925  0.0864 -0.1699
 4290W        W 8341   9.004   4.227   3.934  0.3459 -0.1235 -0.1445
 4291W        W 8342   1.552   9.801  11.457 -0.0694 -0.0444 -0.0887
 4292W        W 8343  10.120   5.996  11.178  0.0142 -0.0508 -0.0200
 4293W        W 8344   2.171   2.534   2.736 -0.0308 -0.2226  0.3306
 4294W        W 8345   8.604   7.359   5.010  0.2643 -0.1813 -0.3292
 4295W        W 8346   5.801   2.312  10.871  0.0326  0.0283  0.0919
 4296W        W 8347   7.002   2.992   1.093 -0.2457  0.0303  0.0789
 4297W        W 8348   8.036   8.144   9.105  0.0987  0.2936 -0.1319
 4298W        W 8349   2.435   6.940  11.496 -0.0713 -0.2021 -0.1191
 4299W        W 8350   0.628   4.716   3.824  0.0696  0.1609 -0.2539
 4300W        W 8351   5.063  10.047   2.927 -0.1092 -0.0324 -0.2888
 4301W        W 8352   4.262   4.884   3.864 -0.4023 -0.0429  0.0305
 4302W        W 8353   9.872   5.139  12.115  0.1535  0.2355  0.0064
 4303W        W 8354   5.343   4.371   0.030  0.1628  0.0574  0.0683
 4304W        W 8355   8.550   9.185   0.937  0.1026 -0.1045  0.0022
 4305W        W 8356   2.937   3.868  10.130 -0.1901  0.1076 -0.0013
 4306W        W 8357   7.544   3.894   3.364 -0.1104 -0.0502  0.0342
 4307W        W 8358   9.002   1.514   4.256 -0.0251  0.0898 -0.0669
 4308W        W 8359   1.785   1.076  12.734  0.2667  0.1285  0.2139
 4309W        W 8360   9.852   9.894  11.212  0.1756 -0.1733  0.2400
 4310W        W 8361   6.932   9.105   2.835  0.1326  0.1444 -0.1835
 4311W        W 8362   9.466  10.049   9.133 -0.0230 -0.3047 -0.2433
 4312W        W 8363   6.909   0.842   3.825 -0.2287 -0.1383 -0.0559
 4313W        W 8364   2.653   5.529  13.057  0.0908  0.1381 -0.0698
 4314W        W 8365   0.316   5.144  10.900 -0.0776  0.0266  0.2319
 4315W        W 8366   4.413   7.546  10.386 -0.2083 -0.0418  0.3024
 4316W        W 8367   9.769   9.900   9.989  0.1308  0.0120 -0.2430
 4317W        W 8368   3.143   1.266  13.263  0.0642  0.1287  0.0313
 4318W        W 8369   9.419   4.172   0.619  0.0673  0.1259  0.1112
 4319W        W 8370   8.003   7.201  12.993  0.2928 -0.2283  0.2367
 4320W        W 8371  10.198   8.372   1.217  0.1133  0.0421  0.2022
 4321W        W 8372   6.403   3.126   4.663 -0.1752 -0.0424  0.0695
 4322W        W 8373   1.898   8.166   2.372  0.1247 -0.0002 -0.3087
 4323W        W 8374   0.181   4.796   2.713 -0.3369  0.1036  0.0895
 4324W        W 8375   7.039   4.002  13.317 -0.3128 -0.0711  0.3021
 4325W        W 8376   1.832   2.537  11.395  0.2007  0.3522 -0.3772
 4326W        W 8377   1.687   4.956   2.269  0.0021 -0.2911 -0.1379
 4327W        W 8378   8.131   3.225   3.181 -0.1714 -0.1756  0.0455
 4328W        W 8379   4.011   0.784  12.568 -0.0565  0.0150 -0.3213
 4329W        W 8380   0.786   6.829  10.312 -0.0157 -0.0612 -0.0689
 4330W        W 8381   7.157   0.716   2.221 -0.2179  0.0164  0.1192
 4331W        W 8382   3.998   2.404   0.233 -0.0078 -0.1145 -0.0445
 4332W        W 8383   2.578   2.696   2.457  0.2066 -0.0368  0.2589
 4333W        W 8384   5.896   6.784   9.431 -0.4012  0.0209 -0.2839
 4334W        W 8385   5.057   6.482   1.759 -0.1259 -0.2847 -0.2589
 4335W        W 8386   6.596   0.435   1.499 -0.0898  0.1614  0.0326
 4336W        W 8387   5.548   4.441  11.619 -0.2453  0.3709 -0.0837
 4337W        W 8388   0.916   8.357   1.534 -0.0025 -0.0784  0.1492
 4338W        W 8389   8.698   4.161  10.108 -0.0621  0.1739 -0.4914
 4339W        W 8390   6.099   7.809   3.094  0.0774 -0.1703  0.1945
 4340W        W 8391   2.458   9.583  11.002  0.1071  0.1289 -0.0850
 4341W        W 8392   8.013   8.417   9.937  0.2349 -0.1426 -0.1068
 4342W        W 8393   1.038   6.819   2.496 -0.1161  0.0292  0.0503
 4343W        W 8394   4.914   4.143  12.760  0.1926  0.1129  0.1363
 4344W        W 8395   9.091   0.561   1.037 -0.0517  0.2945 -0.2353
 4345W        W 8396   6.913  10.299   9.957  0.1190  0.3649  0.0523
 4346W        W 8397   9.895   9.192   2.140 -0.1135 -0.0614 -0.0748
 4347W        W 8398   6.967   3.500   1.372  0.1435 -0.1367 -0.0922
 4348W        W 8399   6.594   4.062   0.515 -0.1228 -0.1371 -0.0571
 4349W        W 8400   4.873   2.673   4.216 -0.1437 -0.1656  0.0155
 4350W        W 8401   2.853   2.240  10.694 -0.1436 -0.4325  0.0266
 4351W        W 8402  10.246   8.183   1.914 -0.1892 -0.0398  0.0256
 4352W        W 8403   7.771   5.443   0.669  0.2676 -0.2741  0.0139
 4353W        W 8404   4.643   4.831   4.200 -0.1636  0.0788  0.1385
 4354W        W 8405   2.331   6.001   3.644  0.1706 -0.2444  0.1385
 4355W        W 8406   3.765   9.483   9.995  0.2575 -0.0572 -0.0213
 4356W        W 8407   0.329   9.083   0.345  0.2695 -0.0997  0.0738
 4357W        W 8408   8.529   6.433  11.446  0.2351  0.1515 -0.1691
 4358W        W 8409   3.994   6.846   3.009  0.0261 -0.0890  0.0476
 4359W        W 8410  10.189   8.399  12.083 -0.3629  0.3183 -0.1588
 4360W        W 8411   9.766   9.459  12.536  0.1764 -0.0194  0.5797
 4361W        W 8412   1.606   0.539  10.344 -0.4112 -0.0843 -0.1453
 4362W        W 8413   7.829   4.960   5.679 -0.4854  0.0037  0.0069
 4363W        W 8414   3.820   1.419   4.692 -0.0829 -0.2257 -0.0593
 4364W        W 8415   9.875   5.489  11.260  0.1987  0.0654 -0.1041
 4365W        W 8416   4.864   6.379  12.231  0.1018 -0.1271 -0.4248
 4366W        W 8417   5.675   4.993   0.570 -0.2593  0.1048  0.4437
 4367W        W 8418   3.563   6.635   0.511  0.0945 -0.0005 -0.1101
 4368W        W 8419   5.168   6.269  10.566  0.0300 -0.2928  0.1184
 4369W        W 8420   5.662   2.295   0.051  0.2665  0.2077 -0.4763
 4370W        W 8421   0.376   3.791   1.338 -0.2357  0.1770  0.1248
 4371W        W 8422   3.421   4.213   1.053  0.1133 -0.0621  0.1252
 4372W        W 8423   9.172   2.143   1.304  0.4095  0.1279 -0.1655
 4373W        W 8424   4.682   1.745   5.296 -0.0670 -0.4331  0.1600
 4374W        W 8425   2.850   8.550   8.992  0.1793  0.2849 -0.0569
 4375W        W 8426   6.937   3.654  11.456  0.2848  0.0079  0.1650
 4376W        W 8427   5.257   8.253  10.081 -0.2074 -0.0325  0.0976
 4377W        W 8428   0.549   4.291   4.585  0.2687  0.1575 -0.2502
 4378W        W 8429   7.078   1.346   4.709  0.1224 -0.0019  0.0353
 4379W        W 8430   7.084   8.718  11.864 -0.0566  0.2239  0.1594
 4380W        W 8431   8.662   7.566   2.550 -0.1870  0.1318  0.1966
 4381W        W 8432   1.156   6.309   8.578  0.3005 -0.2896  0.0257
 4382W        W 8433   1.736   8.229   9.882  0.0865  0.1838 -0.2940
 4383W        W 8434   5.094   8.881   1.982  0.1420 -0.2174  0.2002
 4384W        W 8435   1.519   8.449  12.310 -0.2956  0.0068 -0.0633
 4385W        W 8436   3.999   1.943  13.277 -0.2072  0.0906 -0.2697
 4386W        W 8437   3.232   4.699  12.667  0.3069 -0.2353 -0.2317
 4387W        W 8438   2.170   5.491   3.945  0.1652  0.0508  0.0686
 4388W        W 8439   9.012   2.075   5.039  0.1121  0.0060 -0.1957
 4389W        W 8440   8.694   7.000  12.106 -0.2029 -0.3547 -0.0083
 4390W        W 8441   5.227   0.567   5.110  0.0076 -0.0780  0.0489
 4391W        W 8442   4.675   6.238  13.171  0.1087 -0.1455  0.2053
 4392W        W 8443   0.132   1.986   2.161 -0.0328 -0.2067 -0.0369
 4393W        W 8444   3.543   2.567  12.371  0.4629 -0.1570 -0.3672
 4394W        W 8445   5.271   0.573   9.529  0.0670 -0.0176  0.0113
 4395W        W 8446   4.627   6.227   1.634 -0.0745  0.0908 -0.2621
 4396W        W 8447   6.877   2.396   2.941 -0.0252  0.3050 -0.0662
 4397W        W 8448   5.945   4.248   3.390  0.0147 -0.0108  0.1526
 4398W        W 8449   3.223  10.397   4.631 -0.3339 -0.1386 -0.2151
 4399W        W 8450   1.445   0.307  12.481 -0.1552  0.2744 -0.3601
 4400W        W 8451   3.983   8.366  12.207  0.0061 -0.0155 -0.1455
 4401W        W 8452   8.916   3.605   1.723 -0.0270  0.1609  0.4072
 4402W        W 8453   0.176   3.585   3.388  0.0275  0.0985 -0.1025
 4403W        W 8454   5.646   0.370   3.279  0.1929 -0.1580  0.0694
 4404W        W 8455   1.449   1.230  10.963  0.1384 -0.1516 -0.2856
 4405W        W 8456  10.097   9.052  11.150 -0.5369 -0.1032 -0.0179
 4406W        W 8457   1.575   3.201   2.629 -0.3715 -0.0058  0.4964
 4407W        W 8458   9.421   7.096   4.407  0.1234  0.0365  0.0696
 4408W        W 8459   4.935   1.184  13.189  0.1071  0.2761 -0.1031
 4409W        W 8460   8.941  10.059  10.162 -0.1437 -0.2546 -0.1541
 4410W        W 8461   1.761   2.037  10.999  0.1000  0.0898 -0.2320
 4411W        W 8462   3.675   7.501   3.160  0.0672  0.0446  0.1547
 4412W        W 8463   7.401   2.751   0.263  0.2319 -0.0175 -0.0066
 4413W        W 8464   1.298   2.698  10.706 -0.0229 -0.1051  0.0517
 4414W        W 8465   1.820   7.404   9.172  0.1156  0.0068 -0.0312
 4415W        W 8466   2.967   1.943   9.507 -0.0681  0.3160  0.0098
 4416W        W 8467   3.739   2.763   1.179  0.3674  0.3141 -0.0488
 4417W        W 8468   7.733   7.175  10.092 -0.1744 -0.1395  0.2121
 4418W        W 8469   3.154   9.925   0.268  0.0644 -0.3057  0.1964
 4419W        W 8470   6.959   1.065   9.966 -0.1234  0.0546 -0.2839
 4420W        W 8471   2.311   1.397  11.220  0.2097 -0.1237  0.1445
 4421W        W 8472   4.448   9.740   3.510 -0.0719 -0.0791 -0.2315
 4422W        W 8473   9.837   2.032   1.556 -0.0050 -0.0674  0.1384
 4423W        W 8474   1.036   9.013   2.188  0.0659 -0.1972 -0.0585
 4424W        W 8475   1.106   3.510   0.114  0.0882 -0.2235  0.4560
 4425W        W 8476   1.881   5.887   0.242  0.0685  0.0720  0.1254
 4426W        W 8477  10.172   0.827   3.973 -0.3729  0.1591 -0.2198
 4427W        W 8478   8.544   6.648  10.256 -0.0268  0.2314 -0.1320
 4428W        W 8479   1.040   5.487  11.913  0.0653  0.1838  0.1390
 4429W        W 8480   3.606   5.077   3.575  0.5341 -0.0613 -0.0412
 4430W        W 8481   2.949   0.833  10.909  0.3456  0.0027 -0.2263
 4431W        W 8482   6.906   2.754   3.774 -0.0139  0.0438 -0.1381
 4432W        W 8483   3.833   5.645   1.455 -0.0195  0.0410 -0.0200
 4433W        W 8484   4.527   9.958   9.893 -0.1694  0.0192  0.1813
 4434W        W 8485   8.574   5.094   9.891 -0.0579 -0.2062  0.1456
 4435W        W 8486   8.373   9.712  11.644  0.0628 -0.1818  0.2429
 4436W        W 8487   0.711   7.439  11.119 -0.0512 -0.0615 -0.0157
 4437W        W 8488   1.630   1.115   1.579 -0.0626  0.0537 -0.1050
 4438W        W 8489   5.737   9.952  11.446  0.2459 -0.0759 -0.3519
 4439W        W 8490   0.143   0.364   1.994 -0.1386 -0.0451  0.3104
 4440W        W 8491   6.036   1.990   0.562  0.0524  0.1999 -0.2132
 4441W        W 8492   3.489   8.338  11.379 -0.0667 -0.0289  0.3406
 4442W        W 8493   4.432   0.998   3.832  0.1311  0.0199 -0.4991
 4443W        W 8494   5.833   7.027  12.964  0.0308  0.1756  0.1925
 4444W        W 8495   9.024   9.551  12.672 -0.0229 -0.4010  0.0432
 4445W        W 8496   6.390   4.143   3.878 -0.0758  0.1637 -0.3228
 4446W        W 8497   5.481   0.613  10.355  0.0927  0.2443  0.0869
 4447W        W 8498   3.605   2.728   9.682 -0.2734  0.1697 -0.0218
 4448W        W 8499   3.048   2.435  11.535  0.1088 -0.0455 -0.2249
 4449W        W 8500   6.762  10.343  12.631  0.2786 -0.2480  0.1207
 4450W        W 8501   5.287   3.460   0.701 -0.0514  0.1562 -0.1953
 4451W        W 8502   0.909  10.416   8.817 -0.0933  0.2979 -0.2980
 4452W        W 8503   3.262   9.402  12.649  0.0639 -0.1836  0.2000
 4453W        W 8504   3.468   7.717   4.739  0.0596  0.0488 -0.3968
 4454W        W 8505   6.990   1.740  12.565 -0.2283 -0.3557 -0.0061
 4455W        W 8506  10.303   8.605  11.086 -0.1597 -0.0519  0.1498
 4456W        W 8507   2.583   0.950  11.303  0.3143  0.6905  0.2413
 4457W        W 8508   8.441   5.592   3.387 -0.2683  0.1036  0.1427
 4458W        W 8509   5.079   5.701   1.138  0.2275  0.0491 -0.2644
 4459W        W 8510   6.085   2.472   3.659 -0.0214 -0.1714 -0.2129
 4460W        W 8511   3.088   3.477   1.044  0.1082 -0.2053 -0.1803
 4461W        W 8512   6.727   6.248  13.121  0.0969 -0.0098 -0.0832
 4462W        W 8513   8.205   5.415   1.003 -0.0125 -0.0475  0.0270
 4463W        W 8514   4.594   8.990   9.940  0.0849  0.1801 -0.0755
 4464W        W 8515   0.997  10.108   0.228  0.2204 -0.1260 -0.3183
 4465W        W 8516  10.293   6.534  12.028 -0.2980 -0.1003  0.0311
 4466W        W 8517   3.648  10.230  10.085  0.0526 -0.1627  0.0090
 4467W        W 8518   6.540   3.261   0.462  0.0240 -0.0850  0.1579
 4468W        W 8519   7.567   3.225   5.502 -0.2120  0.2176 -0.1037
 4469W        W 8520   7.118  10.017   1.840  0.2747  0.0516  0.0509
 4470W        W 8521   5.045   0.060  11.506 -0.0172  0.1669  0.0649
 4471W        W 8522   8.773   2.598  11.495  0.1224  0.0310  0.0753
 4472W        W 8523   7.484   5.223   3.511 -0.0034  0.0303 -0.2048
 4473W        W 8524   7.011   4.537  12.210  0.4139  0.2035  0.0990
 4474W        W 8525   4.714   8.899   9.026 -0.2140 -0.0661 -0.2878
 4475W        W 8526   9.864   4.496   1.486 -0.0770  0.0907  0.1913
 4476W        W 8527   3.520   9.539   4.465  0.1194  0.1418 -0.5312
 4477W        W 8528   5.946   8.947   2.768 -0.1470 -0.0536  0.1200
 4478W        W 8529   2.237   8.643   1.317  0.3110 -0.0065  0.3056
 4479W        W 8530   3.300   3.245   5.267  0.0614  0.2255 -0.4926
 4480W        W 8531   0.613   8.741   0.594 -0.1809  0.0263  0.1284
 4481W        W 8532   9.674   8.824   0.598 -0.1718 -0.1378 -0.0330
 4482W        W 8533   4.966   1.818  13.199 -0.1787 -0.0981 -0.0085
 4483W        W 8534   5.033   7.042   2.080 -0.1879 -0.0419  0.0004
 4484W        W 8535   5.164   4.045   5.210  0.0382 -0.2234  0.0025
 4485W        W 8536   5.863  10.305  12.451  0.3105 -0.0058 -0.1291
 4486W        W 8537   2.246   4.219   3.245  0.2587  0.0420 -0.0759
 4487W        W 8538   9.882   3.772   2.492 -0.2088 -0.0690  0.1667
 4488W        W 8539   0.474   6.220  13.183  0.1079  0.2046  0.1477
 4489W        W 8540   6.737   3.315   2.223  0.3852 -0.0729  0.1706
 4490W        W 8541   7.575   9.681   2.147 -0.2524  0.0434 -0.0282
 4491W        W 8542   4.574   0.286   3.398  0.2325  0.0775  0.1260
 4492W        W 8543   7.702   3.801  12.293  0.0205  0.0516  0.5299
 4493W        W 8544   6.983   5.220   3.376  0.0323  0.1124 -0.2352
 4494W        W 8545   4.399   9.809  13.305  0.0624 -0.5244 -0.2455
 4495W        W 8546   3.930   0.177   9.863  0.3468  0.1800  0.0496
 4496W        W 8547   1.293   4.868  11.384 -0.0664  0.2329 -0.1698
 4497W        W 8548   7.597   4.023   3.852  0.5595  0.2282  0.4201
 4498W        W 8549   5.420   1.521   4.276 -0.0626 -0.0919  0.1574
 4499W        W 8550   9.674   2.791   1.189 -0.1352 -0.1941 -0.0892
 4500W        W 8551   8.570   3.393   2.315  0.3707 -0.0076 -0.1962
 4501W        W 8552   2.778  10.247   3.294  0.1669 -0.3628 -0.0324
 4502W        W 8553   2.315   7.826  11.250 -0.2211 -0.0057 -0.0998
 4503W        W 8554   4.242   9.837   8.928 -0.0075  0.1285  0.2026
 4504W        W 8555   7.192   4.931   0.486  0.0705  0.1113 -0.0246
 4505W        W 8556   5.507   7.726   0.287 -0.0052  0.0177  0.2650
 4506W        W 8557   4.582   6.768   1.854  0.1407  0.0389 -0.0037
 4507W        W 8558   2.632   4.917   1.927 -0.2596  0.1083  0.2305
 4508W        W 8559   3.289   1.530  11.598 -0.0808  0.4634  0.0262
 4509W        W 8560   8.750   3.097   0.990 -0.2054 -0.0973  0.3892
 4510W        W 8561   3.578   2.775   2.040  0.2604  0.1895  0.0238
 4511W        W 8562   3.099   8.350   0.132 -0.2299 -0.3562 -0.1217
 4512W        W 8563   3.716   2.163   9.933 -0.0911 -0.3365 -0.1041
 4513W        W 8564   4.166   5.723   3.871 -0.1834  0.0607  0.2877
 4514W        W 8565   9.799   6.918   2.946 -0.1851 -0.0902  0.2398
 4515W        W 8566   3.009   2.087   1.067  0.0911  0.0227  0.2450
 4516W        W 8567   8.408   9.347  13.359  0.1245  0.1301 -0.2451
 4517W        W 8568   4.109   8.398   4.174  0.2221  0.2732  0.0665
 4518W        W 8569   8.667   7.236  11.631  0.4143 -0.3114 -0.1789
 4519W        W 8570   5.937  10.062   1.770  0.3312  0.1422  0.3836
 4520W        W 8571   5.595   4.296   4.968  0.0967 -0.0921  0.0512
 4521W        W 8572   3.639   5.321   1.118  0.0554 -0.3080  0.2007
 4522W        W 8573   3.366   8.673  10.143 -0.1478 -0.2301  0.0869
 4523W        W 8574   7.094   9.813   8.984  0.0281  0.1990 -0.0064
 4524W        W 8575   2.922   9.794   3.264 -0.2239  0.3612 -0.3440
 4525W        W 8576   7.496   3.290   9.447 -0.1818 -0.4329  0.2641
 4526W        W 8577   2.079   9.560   3.026 -0.1807 -0.1416 -0.2316
 4527W        W 8578   2.263   0.634   2.999  0.1933  0.1671  0.3744
 4528W        W 8579   7.995   5.324   4.286 -0.3700  0.1497  0.2340
 4529W        W 8580   8.654   1.063  10.656 -0.0212 -0.0130 -0.2429
 4530W        W 8581   9.446   6.715   0.627 -0.0534  0.0165  0.2488
 4531W        W 8582  10.014   2.742   1.523  0.1105 -0.2123  0.0175
 4532W        W 8583   1.779   2.306  12.356  0.0114 -0.3325 -0.3069
 4533W        W 8584   1.154   0.701  10.731 -0.1034  0.0173  0.0446
 4534W        W 8585   9.965   2.892   0.275 -0.0648 -0.1073  0.0739
 4535W        W 8586   7.872   6.460   4.757  0.5481 -0.0578  0.1757
 4536W        W 8587   2.061   1.569   1.953  0.1251  0.0186 -0.1566
 4537W        W 8588   5.643   0.428   1.098 -0.1020 -0.3077 -0.3676
 4538W        W 8589   9.801   3.078   2.122 -0.0628  0.0063 -0.0961
 4539W        W 8590   6.059   5.712  10.038  0.1826 -0.1039  0.0397
 4540W        W 8591   8.174   1.805  12.883  0.3430  0.0019 -0.1838
 4541W        W 8592   1.781   6.397   1.400 -0.1445 -0.0087  0.3996
 4542W        W 8593   0.290   5.868  11.694 -0.1429 -0.0154  0.1302
 4543W        W 8594   4.468   2.755  12.244  0.3643  0.1184  0.4592
 4544W        W 8595   9.992   5.534   0.774  0.1145  0.1088  0.0312
 4545W        W 8596   1.470   3.516   0.948 -0.1255  0.1933  0.0385
 4546W        W 8597   7.139   0.565  11.040 -0.0749  0.3910  0.1104
 4547W        W 8598   2.866   1.825   2.566  0.2085 -0.1190  0.3434
 4548W        W 8599   8.619   0.643   9.909  0.0190  0.0769  0.1098
 4549W        W 8600   2.500   4.123  10.157  0.0599  0.1402 -0.3518
 4550W        W 8601   2.025   7.194  10.640 -0.0316  0.0870  0.0362
 4551W        W 8602   0.564   8.032   9.835  0.0751 -0.1161 -0.2744
 4552W        W 8603   7.533   9.247   3.341  0.1038  0.2475 -0.3885
 4553W        W 8604   0.518   6.963   8.850 -0.0371 -0.0530  0.1439
 4554W        W 8605   7.249   9.460   3.834  0.3048  0.1685 -0.3434
 4555W        W 8606  10.405   7.629  11.095  0.2642 -0.0525 -0.1634
 4556W        W 8607   5.343   2.469   1.491  0.1538  0.1027 -0.2660
 4557W        W 8608   8.807   8.838   1.674  0.0257 -0.0143 -0.2217
 4558W        W 8609   1.209   2.855   9.911  0.0501  0.1199 -0.0490
 4559W        W 8610   0.017   1.196   1.594  0.0407  0.1185 -0.1381
 4560W        W 8611   3.404   6.226   0.882  0.0085  0.1003  0.2937
 4561W        W 8612   1.082   1.731   2.925  0.3555  0.1105 -0.5849
 4562W        W 8613   7.373   1.414   1.421 -0.0373 -0.0253 -0.1604
 4563W        W 8614   6.520   3.581   3.121  0.0536 -0.2318  0.3487
 4564W        W 8615   2.841   5.743   1.827 -0.1647  0.1317 -0.1113
 4565W        W 8616   9.703   3.921  12.622  0.0239  0.3156 -0.1816
 4566W        W 8617   5.662   1.456   1.431  0.1789  0.6187 -0.2771
 4567W        W 8618   3.771   2.155  12.244 -0.1507 -0.1565 -0.0986
 4568W        W 8619   0.061   2.549   3.280 -0.0259  0.0212 -0.2513
 4569W        W 8620   0.319   0.445  10.200  0.2275  0.0785 -0.2258
 4570W        W 8621   6.433   9.395  13.088 -0.2173  0.0854  0.3770
 4571W        W 8622   6.497   2.374   2.205  0.0607 -0.2521  0.1442
 4572W        W 8623   1.453   9.968  13.253 -0.0315  0.1430  0.1581
 4573W        W 8624   7.873  10.148   2.933  0.0409 -0.0183 -0.2747
 4574W        W 8625   5.186   1.557   3.839  0.2007  0.0574 -0.2021
 4575W        W 8626   9.863   6.592  13.171  0.1021 -0.3479 -0.0529
 4576W        W 8627   9.158   5.690   1.735  0.0714  0.3518 -0.2236
 4577W        W 8628   7.391   2.722   2.444  0.0581 -0.1274  0.0576
 4578W        W 8629   9.274   6.890   3.037  0.3754  0.1682  0.4340
 4579W        W 8630   9.026   8.156   0.142  0.0653  0.0196 -0.0254
 4580W        W 8631   8.139   4.065  10.854  0.0411  0.2596  0.0469
 4581W        W 8632   0.001   5.603   4.548  0.1680  0.0802 -0.1288
 4582W        W 8633   6.159   9.485   4.945  0.0881 -0.2366 -0.0264
 4583W        W 8634   7.508  10.012  12.968 -0.0231 -0.2528  0.3839
 4584W        W 8635   6.751   8.026   2.307  0.0957  0.2083  0.0804
 4585W        W 8636   0.535   4.280   3.946  0.1260  0.3593  0.1163
 4586W        W 8637   5.737   7.008   8.970 -0.0757  0.0905  0.0677
 4587W        W 8638   4.554   0.269   4.403 -0.0178  0.1568  0.0326
 4588W        W 8639   7.552   5.517   1.199 -0.1932 -0.1806 -0.0303
 4589W        W 8640   9.381   4.401  11.464 -0.0980 -0.1399 -0.0892
 4590W        W 8641   8.433   1.304  11.048  0.2665 -0.0263  0.2302
 4591W        W 8642   6.530   8.104  12.408 -0.1103 -0.1325  0.1007
 4592W        W 8643   1.101   5.785   1.946 -0.0504 -0.0046 -0.0927
 4593W        W 8644   3.489   8.330  10.638  0.1199  0.0434 -0.0422
 4594W        W 8645   0.737   3.472   2.753 -0.3052 -0.0321  0.1653
 4595W        W 8646   6.981   4.607   3.286 -0.3333  0.2841 -0.0475
 4596W        W 8647   7.915   1.736  12.430 -0.2625  0.0581  0.1311
 4597W        W 8648   6.468   9.266   1.439 -0.1385 -0.6160  0.1024
 4598W        W 8649   7.367   1.058   9.683  0.0724  0.1016  0.1138
 4599W        W 8650   6.360   7.167   3.590 -0.1196  0.1208  0.1512
 4600W        W 8651   0.266   8.536   2.629  0.1363  0.1165  0.1949
 4601W        W 8652   4.663   8.481  10.050  0.2509  0.2152  0.2256
 4602W        W 8653   2.232   4.817  11.351  0.1201 -0.1788 -0.2100
 4603W        W 8654   9.186   9.206  10.708  0.1507  0.0600  0.3215
 4604W        W 8655   6.097   3.469   5.027  0.0020 -0.1313  0.0318
 4605W        W 8656   9.753   4.183  10.570  0.1929 -0.2379 -0.0536
 4606W        W 8657   5.334   4.301   4.079 -0.0501 -0.2516  0.1518
 4607W        W 8658   4.274   6.385   1.213 -0.0131 -0.1103 -0.1359
 4608W        W 8659  10.230   3.896  10.928 -0.0712 -0.3324  0.2186
 4609W        W 8660   6.674   9.955  10.984 -0.1916  0.0203 -0.0230
 4610W        W 8661   9.915   7.817  12.835 -0.3521  0.1214  0.3485
 4611W        W 8662   1.847   4.297  13.174 -0.0340 -0.0192  0.1636
 4612W        W 8663   6.837   7.182   2.863  0.1384 -0.1312 -0.1800
 4613W        W 8664   9.057   1.913   2.283  0.2626 -0.0086  0.0311
 4614W        W 8665   3.680  10.139  11.093  0.0522  0.0257 -0.0139
 4615W        W 8666  10.218   3.307  10.933  0.0807  0.1322 -0.1468
 4616W        W 8667   1.164   3.417   9.954 -0.1276 -0.1370  0.1526
 4617W        W 8668   7.576   1.839  10.492  0.0342  0.2540 -0.1898
 4618W        W 8669   9.618   2.742  11.010  0.0318 -0.1481 -0.3231
 4619W        W 8670   2.231   2.373  11.735 -0.0342 -0.1611 -0.0959
 4620W        W 8671   4.944   5.974  11.882  0.0195  0.0724 -0.2373
 4621W        W 8672   2.437   9.738  10.237 -0.0137 -0.1169  0.0365
 4622W        W 8673   2.921   4.832   2.736  0.0469  0.0346 -0.3321
 4623W        W 8674   5.314   3.951   2.098 -0.0232 -0.0518  0.1478
 4624W        W 8675   7.700   4.032  12.746 -0.0011 -0.0430 -0.1774
 4625W        W 8676   2.175   1.983  11.353 -0.1505 -0.2490  0.0494
 4626W        W 8677   8.962   7.924   3.828  0.1893 -0.2097  0.2342
 4627W        W 8678   1.812   0.398   0.197 -0.0572  0.1811 -0.1233
 4628W        W 8679   4.151   7.627   3.762  0.0154  0.0146 -0.0193
 4629W        W 8680   6.376   2.542   3.081  0.0008 -0.0145  0.1730
 4630W        W 8681   7.310   0.412  12.620  0.0184  0.2431  0.4704
 4631W        W 8682   9.334   8.576   0.112  0.0198 -0.2252 -0.1270
 4632W        W 8683   3.459   3.628   0.244 -0.1742  0.2248 -0.1987
 4633W        W 8684   6.705   1.850   3.612 -0.0868 -0.1095 -0.3612
 4634W        W 8685   3.454   0.524   0.393 -0.3442  0.0943 -0.3381
 4635W        W 8686   9.777   4.825   2.735  0.0293  0.2433  0.0336
 4636W        W 8687   1.159   8.984   8.599 -0.1625  0.1026  0.0871
 4637W        W 8688   9.774   1.054  11.955 -0.1785  0.0012  0.2870
 4638W        W 8689   9.719   2.359   9.560  0.1814 -0.2278 -0.0581
 4639W        W 8690   9.538   9.692  10.842  0.0096  0.4593  0.0175
 4640W        W 8691   3.487   9.566  11.845  0.0037 -0.0012  0.3059
 4641W        W 8692   7.631   2.696   9.881  0.1888  0.1118  0.0981
 4642W        W 8693   9.909   6.763   1.187 -0.3597 -0.0767  0.0864
 4643W        W 8694   4.473   0.706   4.266  0.1384  0.0251  0.0184
 4644W        W 8695  10.010   7.151   2.551 -0.1706  0.1891  0.1375
 4645W        W 8696   8.980   6.196   1.789  0.1374  0.0279 -0.0920
 4646W        W 8697   9.605  10.201  10.877 -0.1212 -0.0462 -0.1877
 4647W        W 8698   9.472   5.848   3.750  0.1345  0.0136  0.2268
 4648W        W 8699   0.321   1.104   2.792  0.1777 -0.0387 -0.0619
 4649W        W 8700   3.142   7.207  13.358  0.2537  0.0158  0.1109
 4650W        W 8701   5.278   4.364   9.898 -0.0182  0.0348  0.1808
 4651W        W 8702   3.501   5.795   1.054  0.0616 -0.1454  0.1153
 4652W        W 8703   4.804   6.747   9.224 -0.2118  0.0173 -0.0840
 4653W        W 8704   3.180   8.088  10.345 -0.1798 -0.0290  0.4261
 4654W        W 8705   1.532   5.788  11.596 -0.2831  0.3408  0.3039
 4655W        W 8706   9.121   3.287  10.320 -0.0724 -0.1618  0.0347
 4656W        W 8707   6.356   9.948   4.059 -0.1618 -0.1848  0.1436
 4657W        W 8708   9.849   7.083  10.736  0.0141  0.3433  0.2174
 4658W        W 8709   9.769   4.809   1.105  0.0098  0.2774  0.2493
 4659W        W 8710   2.683   5.521   1.294  0.1306 -0.0914 -0.0500
 4660W        W 8711   8.346   8.849  10.646  0.5763  0.1698 -0.4940
 4661W        W 8712   4.883   1.105   8.957  0.1831 -0.0748  0.1156
 4662W        W 8713   6.681   9.621   3.299 -0.1229  0.1345 -0.2891
 4663W        W 8714   9.453   1.576   1.019  0.2220 -0.0570 -0.0139
 4664W        W 8715   3.249   3.318  10.781 -0.0703  0.0292 -0.2131
 4665W        W 8716   5.034   9.145  10.962  0.0134  0.0763 -0.0324
 4666W        W 8717   3.267   9.266   9.352 -0.0067 -0.2069  0.1570
 4667W        W 8718   0.773   0.137  10.043 -0.3026  0.0331 -0.0770
 4668W        W 8719   3.064   9.096   1.623 -0.2395  0.1915 -0.0677
 4669W        W 8720   3.550   5.712   1.990  0.1098 -0.1558 -0.0084
 4670W        W 8721   8.259   5.329   8.740 -0.0472 -0.1256  0.0958
 4671W        W 8722   9.172   2.009   0.742 -0.2426 -0.0995  0.0865
 4672W        W 8723  10.035   5.038   3.114  0.1230  0.3150  0.1328
 4673W        W 8724   6.147   8.167   1.478  0.2099  0.1933  0.1121
 4674W        W 8725   2.072   9.254  13.160  0.1834  0.3482  0.0024
 4675W        W 8726   0.998   1.761  11.929 -0.0089 -0.0071  0.0516
 4676W        W 8727   1.529   4.579  10.679 -0.1623  0.0011  0.1249
 4677W        W 8728   4.016   1.725  12.346 -0.0874 -0.1723  0.1218
 4678W        W 8729   6.521   0.262   4.615 -0.0250  0.0365  0.0199
 4679W        W 8730   3.541   7.030   3.170  0.1716  0.0798  0.3069
 4680W        W 8731   9.214   6.201  10.727  0.2721  0.1368  0.0350
 4681W        W 8732   7.232   3.902   2.031 -0.0875 -0.1139 -0.1782
 4682W        W 8733   7.614   8.763  10.945  0.1119  0.0913  0.1237
 4683W        W 8734   8.320   6.767   3.336 -0.1235  0.0495  0.0682
 4684W        W 8735   4.042   1.017   5.024 -0.0573  0.0273  0.0065
 4685W        W 8736   2.696   8.943  11.530 -0.0255  0.1059 -0.0459
 4686W        W 8737   6.327   5.933   0.518  0.1542 -0.2219 -0.1136
 4687W        W 8738   0.039   8.170  11.185  0.0802  0.2684 -0.0782
 4688W        W 8739   0.575   8.300  12.333 -0.0651  0.0563 -0.1096
 4689W        W 8740   1.660   2.958   3.508  0.2603 -0.0757 -0.0734
 4690W        W 8741   4.364   4.981  10.779 -0.0344 -0.1402 -0.1236
 4691W        W 8742   8.418   2.824   9.582  0.0487 -0.0101  0.0698
 4692W        W 8743   0.375   9.059   9.522  0.2631 -0.1465  0.1421
 4693W        W 8744   2.830  10.122  11.605 -0.0103 -0.0643 -0.0046
 4694W        W 8745   6.173   5.379   3.075 -0.1692  0.1720 -0.0281
 4695W        W 8746   7.479   4.439  12.014  0.2805  0.2088 -0.1245
 4696W        W 8747   6.454   4.295  11.378  0.1218  0.1552  0.0478
 4697W        W 8748   5.993   1.392   4.095 -0.0549 -0.2295  0.0855
 4698W        W 8749   0.618   7.874  11.906  0.0049  0.0105  0.1813
 4699W        W 8750   6.882   0.625  12.031  0.2353 -0.0649 -0.3006
 4700W        W 8751   3.647  10.190   4.451 -0.1471  0.1607 -0.0949
 4701W        W 8752   5.517   1.067  13.157 -0.3531 -0.1103 -0.1262
 4702W        W 8753   8.978   0.415  10.810  0.3678  0.1680  0.2290
 4703W        W 8754   8.212   9.759   4.450  0.2395  0.3353 -0.0385
 4704W        W 8755   3.776   2.513   4.968  0.4265  0.1464  0.2246
 4705W        W 8756   6.969   5.214  11.086 -0.0326  0.0371 -0.0608
 4706W        W 8757   1.528   9.025   8.918  0.2811 -0.1552  0.3158
 4707W        W 8758   2.255   6.809  12.471 -0.2366  0.2393 -0.1384
 4708W        W 8759   3.910   5.527   3.488  0.0500 -0.0281 -0.0061
 4709W        W 8760   4.665   0.363  11.291  0.3076 -0.0423  0.3662
 4710W        W 8761   3.089   2.629   2.133  0.0659 -0.0712  0.1602
 4711W        W 8762   9.105   0.722   2.038  0.0576 -0.5747  0.1780
 4712W        W 8763   0.918   7.914   3.566  0.1001  0.0138  0.0484
 4713W        W 8764   6.379   1.048   2.587 -0.3193  0.2176  0.1785
 4714W        W 8765   6.934   6.594   1.512  0.2249 -0.2687  0.0323
 4715W        W 8766   4.757   5.260  11.556 -0.0734 -0.0752  0.1147
 4716W        W 8767   1.633   5.201   1.720 -0.4399 -0.0033  0.0904
 4717W        W 8768   9.803   1.983   0.036  0.0974  0.3322 -0.0999
 4718W        W 8769   0.769   4.111  11.659  0.3174  0.1356 -0.0018
 4719W        W 8770   9.594   3.981   9.618  0.1601  0.0651  0.0185
 4720W        W 8771   3.635   2.816  11.895 -0.3915 -0.2459  0.0038
 4721W        W 8772   7.498   9.076  10.100  0.1655 -0.0668  0.1399
 4722W        W 8773   0.208   9.478   0.095 -0.0427 -0.0862 -0.0809
 4723W        W 8774   0.624   1.204   2.198 -0.0144  0.0191 -0.2826
 4724W        W 8775   3.925   4.276   1.712 -0.0866 -0.1938  0.2499
 4725W        W 8776   3.283   3.855   0.729  0.1150  0.2960  0.4019
 4726W        W 8777   6.372   8.601  12.654  0.1388 -0.3238  0.1891
 4727W        W 8778   3.908   9.401   0.914 -0.0669  0.1412  0.1573
 4728W        W 8779   8.351   3.249   9.185  0.1901  0.3709 -0.0348
 4729W        W 8780   2.403   8.518  11.431 -0.1359  0.1787 -0.0680
 4730W        W 8781   3.125   5.836   2.267 -0.1285  0.3434 -0.1952
 4731W        W 8782   8.565   0.664  11.586 -0.1139  0.0537  0.0215
 4732W        W 8783   9.512   9.651   9.483 -0.0657 -0.2262 -0.3578
 4733W        W 8784   1.743   1.546  10.707 -0.1106 -0.0893  0.3939
 4734W        W 8785   9.295   8.520  12.429 -0.1010  0.1346 -0.2851
 4735W        W 8786   7.394   2.164  11.804  0.0355 -0.0376 -0.0604
 4736W        W 8787   3.504   7.932   8.990 -0.2703 -0.0901  0.1570
 4737W        W 8788   7.706   4.866   9.618  0.1281 -0.0027  0.1548
 4738W        W 8789   8.416   8.632   9.760 -0.2671 -0.0860 -0.1788
 4739W        W 8790   2.156   3.013   0.728 -0.2380 -0.1929 -0.2749
 4740W        W 8791   6.978  10.296   2.679 -0.2584 -0.3530  0.1647
 4741W        W 8792   8.233   7.187  11.453 -0.0323 -0.2761 -0.0258
 4742W        W 8793   7.479   2.805   8.817 -0.2918  0.1281  0.0350
 4743W        W 8794   8.907   5.797  10.689 -0.1240 -0.2570 -0.0841
 4744W        W 8795  10.314   1.231  13.218  0.1451  0.0945 -0.0148
 4745W        W 8796   5.866  10.051   3.193  0.1188 -0.1297  0.3080
 4746W        W 8797  10.303   9.608  10.538  0.1060 -0.2172  0.1876
 4747W        W 8798   0.106   3.490  10.059 -0.0575  0.3495 -0.1144
 4748W        W 8799   2.165  10.264   4.468 -0.0967 -0.0505 -0.0089
 4749W        W 8800   1.215   1.849   4.331  0.1190  0.2138 -0.0932
 4750W        W 8801   1.986   7.787   9.898 -0.1516 -0.3651 -0.0987
 4751W        W 8802   0.063   9.112  11.424 -0.0846  0.1792 -0.1337
 4752W        W 8803   6.269   6.920   4.591 -0.1810  0.0481  0.0016
 4753W        W 8804   7.560   4.803  10.456  0.1977  0.1436  0.1730
 4754W        W 8805   2.419   7.561  13.084 -0.1470  0.1433  0.0567
 4755W        W 8806   0.712   9.263  11.379  0.0854  0.1299  0.0718
 4756W        W 8807   5.511   1.145   3.994  0.0367 -0.1907  0.1873
 4757W        W 8808   2.551   1.869  12.794 -0.4704 -0.0321 -0.0769
 4758W        W 8809   7.463   5.186   2.053 -0.0070  0.0195 -0.1480
 4759W        W 8810   7.630   8.694   3.083  0.0411  0.0131  0.2643
 4760W        W 8811   2.296   6.101  11.519  0.0249  0.3158  0.0567
 4761W        W 8812   3.996   9.139   9.693  0.0312 -0.2513  0.0455
 4762W        W 8813   4.752   5.784   2.699  0.0910 -0.3433 -0.1501
 4763W        W 8814   1.805   7.471  12.695  0.2692 -0.2567 -0.1639
 4764W        W 8815   3.039   2.816  10.771  0.0003  0.2450  0.1274
 4765W        W 8816   4.945   0.324  12.332  0.0424 -0.1791  0.2254
 4766W        W 8817   4.226   3.244  10.966  0.2754 -0.1845 -0.1866
 4767W        W 8818   6.940   7.760  11.728 -0.0212  0.1012  0.1575
 4768W        W 8819   5.504   8.197   3.318 -0.0116 -0.1282 -0.0681
 4769W        W 8820   0.612   9.319   3.075 -0.1454  0.2414  0.0825
 4770W        W 8821   2.741   0.967  12.238  0.0501  0.2390 -0.0412
 4771W        W 8822   1.097   9.584  12.378  0.2786  0.2110 -0.1468
 4772W        W 8823   1.878   2.967   4.586  0.0577  0.2445  0.0565
 4773W        W 8824   4.770   4.178  10.767  0.1301 -0.1774 -0.0315
 4774W        W 8825  10.039   5.572   0.217 -0.1299  0.0642  0.0465
 4775W        W 8826   9.827   5.081   9.703  0.2697  0.0839  0.2338
 4776W        W 8827   9.684   0.728  12.935  0.0917  0.2790 -0.2099
 4777W        W 8828   1.679   1.940   3.286  0.3562 -0.1268  0.0151
 4778W        W 8829   7.843   5.541  11.670  0.2182  0.2482 -0.1153
 4779W        W 8830   3.511   6.457  12.539 -0.3851  0.0976  0.0402
 4780W        W 8831   2.345   2.891  10.291 -0.1224 -0.1073  0.3953
 4781W        W 8832   7.697   6.834  13.064  0.0592 -0.1062 -0.2907
 4782W        W 8833   4.167   0.564   9.924  0.0944 -0.0597  0.4119
 4783W        W 8834   8.377   5.212   2.981  0.3912  0.0156 -0.1107
 4784W        W 8835   3.642   5.825   4.738 -0.0813 -0.1183  0.1315
 4785W        W 8836   0.319   0.826   3.945 -0.3015  0.1460  0.2004
 4786W        W 8837   2.299   0.237   0.077  0.2235  0.4562  0.1862
 4787W        W 8838   5.718   6.990   2.843 -0.0264 -0.0649  0.2656
 4788W        W 8839   1.383   2.649   2.562 -0.0757 -0.2744  0.2088
 4789W        W 8840   6.947   9.307   4.228 -0.0046 -0.3156  0.0602
 4790W        W 8841   8.684   4.940   1.367  0.0554 -0.1901 -0.3035
 4791W        W 8842   6.403   8.273   0.536  0.2192 -0.2286  0.2226
 4792W        W 8843   6.476   2.490  11.859 -0.0171  0.0375  0.0412
 4793W        W 8844   6.198   1.630  12.766  0.0445 -0.1328  0.2174
 4794W        W 8845   3.015   6.886   3.733  0.0104  0.0537 -0.0732
 4795W        W 8846   0.173   1.679  11.703  0.1079 -0.1956  0.2384
 4796W        W 8847   0.332   0.789   9.752 -0.1329 -0.1970  0.1053
 4797W        W 8848   0.019   9.066  10.772  0.1937 -0.0592  0.2551
 4798W        W 8849  10.316   8.807  11.725  0.0582 -0.2012 -0.2796
 4799W        W 8850   0.267   3.078   2.007  0.0309  0.1345  0.0419
 4800W        W 8851   4.295   4.606   2.460  0.0292  0.0180  0.0209
 4801W        W 8852   6.276   2.558   1.755 -0.0960  0.0951 -0.4216
 4802W        W 8853   5.552   5.307   3.416  0.2416 -0.0208 -0.0751
 4803W        W 8854   4.648   7.860  10.734 -0.0916 -0.0713 -0.1754
 4804W        W 8855   0.940   8.410   3.555 -0.0651 -0.0919 -0.2259
 4805W        W 8856   0.474   2.810   0.529 -0.0247 -0.0148 -0.1123
 4806W        W 8857   0.403   2.496  11.972 -0.2880 -0.0622 -0.0055
 4807W        W 8858   5.322   9.478   3.250 -0.0489 -0.2747 -0.3376
 4808W        W 8859   9.525   1.515   3.623  0.3388 -0.3745 -0.0793
 4809W        W 8860   5.500   6.231   3.595 -0.2572  0.0521  0.2371
 4810W        W 8861   4.901   2.297   9.421  0.0265 -0.0089  0.1324
 4811W        W 8862   8.880   6.774   1.780  0.2020 -0.1273 -0.0920
 4812W        W 8863   8.039   5.590   1.425 -0.0651 -0.1108 -0.0715
 4813W        W 8864   5.645   3.191   2.343 -0.0938 -0.1713 -0.3099
 4814W        W 8865   7.022   3.836  12.792 -0.2214 -0.0263  0.1611
 4815W        W 8866   7.397   0.869   0.163 -0.3199 -0.1686  0.2207
 4816W        W 8867   4.114   8.447   0.124 -0.1523  0.1726 -0.0638
 4817W        W 8868   0.165   2.551  13.346 -0.0716 -0.2815 -0.0087
 4818W        W 8869   3.097   0.718   9.630  0.1724 -0.0334 -0.1335
 4819W        W 8870   1.192  10.234   3.470 -0.1938  0.1427 -0.2939
 4820W        W 8871   0.640   4.109  12.839  0.2236  0.0199  0.0113
 4821W        W 8872  10.008   2.350   4.140 -0.0851 -0.0661 -0.1022
 4822W        W 8873   5.420   5.234   3.901 -0.0335  0.1382  0.1191
 4823W        W 8874   9.756   9.699  11.725 -0.0274 -0.2633 -0.2006
 4824W        W 8875   1.070   8.960  12.678  0.0536 -0.0706 -0.3370
 4825W        W 8876   7.691   1.030   1.557  0.2999 -0.1031  0.1999
 4826W        W 8877   1.766   6.679   0.385 -0.2423  0.2072  0.2197
 4827W        W 8878   4.759   6.622   1.349  0.0985 -0.1593 -0.1074
 4828W        W 8879   0.890   3.921   1.644 -0.0661 -0.0709 -0.0147
 4829W        W 8880   9.647   0.531   0.033 -0.1934 -0.1822  0.0433
 4830W        W 8881   5.890   5.385  10.370 -0.4450 -0.1935 -0.1050
 4831W        W 8882  10.370   0.028   2.925  0.1253  0.1775  0.1391
 4832W        W 8883   2.187   3.904  11.338 -0.4104 -0.2749 -0.0527
 4833W        W 8884   8.606   3.296   2.910 -0.1618  0.3711  0.0236
 4834W        W 8885   4.742   5.946  10.297 -0.1750  0.0850 -0.3144
 4835W        W 8886   2.130   1.056   0.927 -0.0138  0.2415  0.1640
 4836W        W 8887   0.721   6.026  12.697 -0.0460  0.0474  0.2972
 4837W        W 8888   3.976   6.797   0.158  0.1230 -0.0459  0.3152
 4838W        W 8889   7.677   4.492   5.332 -0.0940 -0.2840 -0.0966
 4839W        W 8890   2.914   8.419   3.418  0.1209 -0.1829 -0.2169
 4840W        W 8891   7.964   2.318  10.678  0.2169  0.2298  0.0793
 4841W        W 8892   4.778   1.806   3.735  0.2747  0.2792  0.0227
 4842W        W 8893   1.578   0.259   1.499  0.2046 -0.1378 -0.0308
 4843W        W 8894   3.780   8.792   1.610  0.0699  0.0959 -0.1341
 4844W        W 8895   2.440   6.086   9.991  0.3737 -0.0562 -0.0490
 4845W        W 8896   3.697   1.457  10.709 -0.1082  0.0507  0.0446
 4846W        W 8897   1.641   7.093   0.123  0.0033  0.1363 -0.3107
 4847W        W 8898   0.368   7.707  11.381  0.0407 -0.0723  0.1101
 4848W        W 8899   1.626   6.441   1.991  0.3126  0.1287  0.1653
 4849W        W 8900   0.863   5.888  12.279 -0.2972  0.0230  0.0893
 4850W        W 8901   8.161   8.193  11.044  0.1574 -0.0112  0.0935
 4851W        W 8902   5.010   8.049  12.151  0.1457 -0.0015  0.0105
 4852W        W 8903   1.836   8.719   9.726  0.3586 -0.2124 -0.0093
 4853W        W 8904   2.756   0.612   9.325  0.1481 -0.1204  0.0734
 4854W        W 8905   1.118   6.676  12.680  0.4825 -0.0519 -0.3272
 4855W        W 8906   8.747   0.058   9.201 -0.1164  0.1749  0.2004
 4856W        W 8907   8.593  10.326   3.952 -0.0673  0.1651  0.0295
 4857W        W 8908   9.058   4.939  10.825  0.1671  0.1734  0.3047
 4858W        W 8909   0.929   0.178   5.381 -0.0801  0.0532 -0.2347
 4859W        W 8910   8.043   0.164   0.083 -0.1362 -0.0800  0.2425
 4860W        W 8911   8.769   4.047  10.834  0.0399 -0.0333 -0.0668
 4861W        W 8912   2.647  10.298   0.140  0.0433 -0.3031 -0.1318
 4862W        W 8913   7.196   3.924  10.861 -0.0622  0.2900  0.0118
 4863W        W 8914   9.770   2.006  12.356  0.1452 -0.0245 -0.1824
 4864W        W 8915   4.073   6.557  12.659 -0.1895 -0.2257  0.0803
 4865W        W 8916   3.666   3.475   3.459 -0.2928  0.2554  0.0895
 4866W        W 8917   3.762   1.670  10.070 -0.0256 -0.0812 -0.2007
 4867W        W 8918   0.559   5.002  11.849  0.0841  0.0227  0.0937
 4868W        W 8919   9.303   9.968  12.011  0.0586 -0.1468 -0.1673
 4869W        W 8920   2.381   6.423   9.657 -0.2029 -0.2361  0.1972
 4870W        W 8921   6.877   9.186   9.814  0.3345  0.0203  0.0248
 4871W        W 8922   1.914   9.088   1.269  0.0052  0.0152  0.0294
 4872W        W 8923   5.175   0.143   5.406 -0.1614  0.1425  0.2836
 4873W        W 8924   2.572   8.094  11.640 -0.1019  0.3293  0.0034
 4874W        W 8925   0.432   4.471  13.149 -0.4074  0.0425 -0.0537
 4875W        W 8926   1.486   1.731   0.869  0.1450 -0.2981 -0.0112
 4876W        W 8927   0.963   1.605   3.958 -0.2640  0.1808 -0.2052
 4877W        W 8928   9.497   8.925  11.143 -0.2513  0.2979  0.0289
 4878W        W 8929   5.077   0.431   4.226  0.3107 -0.3220  0.3443
 4879W        W 8930   8.114   2.859  12.654  0.0813  0.1643  0.2429
 4880W        W 8931   7.232  10.153   4.340  0.1546 -0.0018  0.1983
 4881W        W 8932   1.257   2.383  12.616  0.2862 -0.0981  0.2369
 4882W        W 8933   6.515   6.464   1.237  0.0527  0.1478  0.0526
 4883W        W 8934   8.009   6.955   8.760  0.0479  0.2197  0.1290
 4884W        W 8935   9.213   1.125  10.132 -0.0717  0.0831 -0.0558
 4885W        W 8936   6.882   4.686   1.328  0.2283 -0.1393 -0.1024
 4886W        W 8937   4.628   1.362   9.269  0.0476  0.1596 -0.1517
 4887W        W 8938   2.383   1.960   3.769 -0.0806 -0.3427 -0.0674
 4888W        W 8939   6.855   1.868   1.041  0.2656 -0.4877 -0.2138
 4889W        W 8940   0.275   5.781  12.888 -0.2164 -0.0185 -0.3872
 4890W        W 8941   4.927   0.181   9.523  0.3488 -0.1015  0.2464
 4891W        W 8942   2.641   7.985   4.811 -0.0202  0.2864 -0.2663
 4892W        W 8943   4.328   8.930   2.935  0.0877 -0.1997 -0.3702
 4893W        W 8944   2.533   0.499   2.589  0.3147  0.2299  0.2833
 4894W        W 8945   7.218   0.770  12.989  0.1021  0.1883 -0.0627
 4895W        W 8946   2.409   4.524   0.461 -0.1664 -0.0473  0.1182
 4896W        W 8947   3.277   9.630   8.577  0.2360  0.0135  0.1796
 4897W        W 8948  10.276   2.103  12.517 -0.0364 -0.1273 -0.3037
 4898W        W 8949   6.958   2.300   3.439 -0.0712  0.2099  0.2279
 4899W        W 8950   5.545   9.913   0.688 -0.0326  0.0607 -0.0118
 4900W        W 8951   7.704   8.183   1.950 -0.2099  0.1458  0.0274
 4901W        W 8952   0.005   9.788   9.661  0.1827 -0.0811  0.3344
 4902W        W 8953   7.079   1.375  12.281 -0.4024 -0.0415 -0.1428
 4903W        W 8954   4.582   3.536  13.217  0.0433  0.1432  0.2081
 4904W        W 8955   1.138   2.339  10.258 -0.0258 -0.3507 -0.1657
 4905W        W 8956   3.384   3.546   2.384 -0.0121 -0.0956  0.0417
 4906W        W 8957   7.467   5.151   9.161 -0.1172 -0.0236  0.0527
 4907W        W 8958   1.973   7.350   9.661 -0.0281 -0.1581 -0.2925
 4908W        W 8959   8.701   7.843   1.569  0.0451 -0.3447 -0.2169
 4909W        W 8960   9.987   0.280  11.055 -0.0579  0.1148  0.4197
 4910W        W 8961   9.740   1.587  11.141  0.0943 -0.1261 -0.1727
 4911W        W 8962   9.246   1.646  10.282 -0.3393  0.1442 -0.1302
 4912W        W 8963   0.692   9.477   1.335  0.3510 -0.0521  0.0450
 4913W        W 8964   5.115   3.145   2.013 -0.3055  0.2019  0.0107
 4914W        W 8965   2.784   8.126   2.515 -0.2070 -0.2601  0.1117
 4915W        W 8966   5.275   3.295  11.773 -0.2659 -0.0985 -0.0001
 4916W        W 8967   2.825   5.696   3.079  0.0506 -0.1627  0.0642
 4917W        W 8968   6.245   8.951   1.144  0.3666  0.2407 -0.0735
 4918W        W 8969   8.822   2.424   0.832 -0.0377 -0.0646  0.2033
 4919W        W 8970   2.287   8.419   9.838  0.3393 -0.2658 -0.1516
 4920W        W 8971   7.215   1.060  11.083 -0.3414  0.1886 -0.3216
 4921W        W 8972   2.105   1.670   3.419  0.2639 -0.0097  0.0747
 4922W        W 8973   7.816   2.836   3.609  0.1210  0.0776 -0.0174
 4923W        W 8974   4.827   3.461   2.228 -0.3625 -0.3581 -0.0063
 4924W        W 8975   6.018   3.481  11.456  0.0395  0.2304  0.1035
 4925W        W 8976   5.579   0.428   4.793 -0.3104 -0.1017  0.1681
 4926W        W 8977   4.525   3.938   4.451  0.1107  0.2634 -0.0298
 4927W        W 8978   4.842   7.347   2.971  0.1062  0.0879  0.1993
 4928W        W 8979   7.542   7.852  12.655  0.0795  0.0368 -0.1072
 4929W        W 8980  10.041   2.931  11.233 -0.3274 -0.2074  0.0388
 4930W        W 8981   1.813   5.960   3.023 -0.1051 -0.0865  0.0543
 4931W        W 8982   8.008   5.505  12.702 -0.1864  0.2831 -0.2334
 4932W        W 8983   0.323  10.215   3.254  0.2074  0.0212  0.2443
 4933W        W 8984   8.188   5.316   1.913 -0.1312 -0.0239 -0.0687
 4934W        W 8985   4.623   9.036   4.156 -0.2318  0.4662  0.1335
 4935W        W 8986   2.682   4.630  10.962  0.1589 -0.5624  0.0704
 4936W        W 8987   4.756   7.289  13.266  0.1500  0.0005  0.0358
 4937W        W 8988   0.369   6.337   0.923  0.1463  0.1141  0.2334
 4938W        W 8989   7.133   5.870  13.234  0.0809 -0.1247  0.0945
 4939W        W 8990   3.398   1.246   5.042 -0.0875 -0.2086 -0.4563
 4940W        W 8991   8.715   9.088   9.616  0.1460 -0.2089 -0.1170
 4941W        W 8992   0.254   9.393  12.688 -0.0015  0.0510  0.0795
 4942W        W 8993   5.153   2.615   5.148 -0.1738 -0.2880  0.1694
 4943W        W 8994   0.174   9.509  10.988 -0.1283  0.0990 -0.2199
 4944W        W 8995   5.724   3.868   3.166  0.1057 -0.0198  0.2577
 4945W        W 8996   0.924   5.819   2.492  0.0950 -0.0105 -0.0602
 4946W        W 8997   3.636   9.048  11.921  0.0642 -0.1668 -0.2114
 4947W        W 8998   8.698   0.400   2.029 -0.0204  0.0326  0.2240
 4948W        W 8999   5.437   6.479  10.994 -0.3552  0.0411 -0.0585
 4949W        W 9000   7.846   7.248   9.512 -0.3413  0.0340  0.0538
 4950W        W 9001   1.799   6.342  11.668  0.0439  0.1967  0.5199
 4951W        W 9002   7.951   4.305  10.461 -0.1152 -0.2003  0.0953
 4952W        W 9003   9.305   5.830   4.819  0.0393  0.0946  0.2417
 4953W        W 9004   7.252   8.753   4.274 -0.2313  0.0144  0.0859
 4954W        W 9005   6.691   6.474   0.208  0.1330 -0.2474 -0.1707
 4955W        W 9006   7.772   4.318   4.395 -0.0672  0.0305 -0.0585
 4956W        W 9007   4.568   2.170   5.544 -0.3203 -0.0864 -0.1556
 4957W        W 9008   3.488   3.767  10.768 -0.0429 -0.3435 -0.1225
 4958W        W 9009   4.390   6.655   4.339  0.2097  0.1839 -0.0547
 4959W        W 9010   9.562   1.018   4.198  0.0345  0.2625  0.2273
 4960W        W 9011   3.313   8.493   0.987 -0.2156 -0.0565  0.0107
 4961W        W 9012   3.795   2.349  13.024  0.2816 -0.5800  0.2160
 4962W        W 9013   2.033   9.298  10.859  0.1684 -0.0834  0.2393
 4963W        W 9014   5.421   6.190   4.115  0.1220  0.2087 -0.2266
 4964W        W 9015   1.699   5.785   0.756  0.0363 -0.1567 -0.1563
 4965W        W 9016   9.331   9.608  13.124 -0.0446 -0.1957 -0.2837
 4966W        W 9017   9.266   1.443  11.037 -0.0207  0.0825  0.1171
 4967W        W 9018   3.554   2.649   3.516  0.1543  0.1687  0.3386
 4968W        W 9019   4.027   1.360  12.766 -0.0226 -0.1822  0.3522
 4969W        W 9020   3.633   7.393   1.722  0.2937  0.1457  0.2326
 4970W        W 9021   2.557   0.440  11.565  0.3438 -0.0749 -0.0784
 4971W        W 9022   0.630   5.912   2.092  0.1711 -0.2277  0.1485
 4972W        W 9023   4.027  10.354  11.985  0.0165  0.1387 -0.0950
 4973W        W 9024   5.183   0.380   9.977  0.0557  0.2256  0.0457
 4974W        W 9025   9.805  10.321   1.426 -0.3160  0.0497 -0.1215
 4975W        W 9026   7.495   6.009   9.819 -0.1625  0.1287  0.1687
 4976W        W 9027   3.896   0.054  13.314  0.0709  0.0878 -0.1118
 4977W        W 9028   2.458   1.625   0.982 -0.0685 -0.3036 -0.0635
 4978W        W 9029   7.331   3.426   4.306  0.1433 -0.1485  0.0242
 4979W        W 9030   5.379   6.889   2.449 -0.1121  0.2190 -0.0227
 4980W        W 9031   7.954   6.706   1.148 -0.1704 -0.0596  0.3072
 4981W        W 9032   3.235   9.444   1.879 -0.1654 -0.3315  0.1844
 4982W        W 9033   9.026   7.110   2.580  0.1783  0.2596  0.2098
 4983W        W 9034   5.621   4.831  12.835 -0.1644  0.1161  0.0632
 4984W        W 9035   1.669   0.906   0.769 -0.1466  0.2049 -0.0433
 4985W        W 9036   3.428   7.620   4.288 -0.1543 -0.3732 -0.2083
 4986W        W 9037   8.352   4.982  12.143 -0.0192 -0.0519  0.0938
 4987W        W 9038   3.496   4.289  12.584 -0.0082  0.0101  0.1512
 4988W        W 9039   4.260   4.091  10.425  0.3298 -0.1812 -0.2721
 4989W        W 9040   1.359   9.746  11.911 -0.1389  0.1923 -0.2441
 4990W        W 9041   2.816   6.002  11.675 -0.0533 -0.2006  0.2221
 4991W        W 9042   5.193   4.335  10.496  0.1238 -0.1906 -0.1303
 4992W        W 9043   1.431   8.711   3.692  0.0103 -0.0830  0.2069
 4993W        W 9044   4.504  10.285  11.824  0.0375  0.0803 -0.1337
 4994W        W 9045   0.496   3.206   1.507  0.2112 -0.0236 -0.0931
 4995W        W 9046   9.072   5.397  10.973  0.0785  0.0611  0.4173
 4996W        W 9047   7.771   7.758   3.832 -0.1907 -0.1245 -0.1523
 4997W        W 9048   4.231  10.303   0.478 -0.2040 -0.2060 -0.0447
 4998W        W 9049   8.901   5.150  13.040  0.2426  0.3750 -0.0624
 4999W        W 9050   1.429   9.426  11.121  0.0206  0.1356 -0.0665
 5000W        W 9051   8.404   1.573   1.251 -0.0680 -0.0503 -0.1118
 5001W        W 9052   5.977   3.435   3.113  0.0886 -0.0584 -0.2463
 5002W        W 9053   7.786   9.466   3.983  0.0043  0.4602  0.2636
 5003W        W 9054   3.479   9.293   2.953 -0.3542  0.3811  0.3332
 5004W        W 9055   5.957  10.054  10.329 -0.0977 -0.2665  0.2824
 5005W        W 9056   0.637   1.217  12.788  0.2675 -0.2091 -0.0087
 5006W        W 9057   4.732   3.495  11.388 -0.0369 -0.0063  0.1548
 5007W        W 9058   0.011   7.760   3.585  0.1630  0.0518  0.1860
 5008W        W 9059   9.189   7.459   9.112 -0.3513 -0.0691  0.1807
 5009W        W 9060   1.828   4.654   1.794  0.1265 -0.1611 -0.1386
 5010W        W 9061   1.678   7.687   8.794 -0.0368 -0.2722  0.2074
 5011W        W 9062  10.258   8.140  12.532 -0.0924 -0.2059  0.2751
 5012W        W 9063   4.954   3.889   2.483  0.0798 -0.2123 -0.1649
 5013W        W 9064   4.688   5.009  12.037  0.1662 -0.2118  0.1243
 5014W        W 9065   6.464   3.924  10.017  0.3039 -0.2686 -0.0326
 5015W        W 9066   3.543   3.897   8.965  0.2563 -0.1881 -0.0234
 5016W        W 9067   3.781   5.249  11.742 -0.5100 -0.0746 -0.1434
 5017W        W 9068  10.236   4.930  13.128  0.2962 -0.3413 -0.0394
 5018W        W 9069   3.585   4.813  11.880 -0.0723  0.2849 -0.0057
 5019W        W 9070   4.741   8.395   9.192 -0.2111  0.1091 -0.3010
 5020W        W 9071   0.350   9.551  11.524  0.1752 -0.3290 -0.1416
 5021W        W 9072   5.532   4.326   2.941 -0.1747  0.1026 -0.2208
 5022W        W 9073   7.422   5.023  11.533 -0.0944  0.1460  0.2574
 5023W        W 9074   4.576   8.619  11.605 -0.0993  0.1464  0.3748
 5024W        W 9075   8.589   0.381   3.877  0.0391 -0.0263  0.3894
 5025W        W 9076  10.310   3.551   2.882 -0.1094  0.2052 -0.0902
 5026W        W 9077   9.793   2.892  12.686  0.2068 -0.1142 -0.2081
 5027W        W 9078   5.173   3.018   1.521 -0.1508  0.1254 -0.1108
 5028W        W 9079   6.938   7.426   9.310 -0.1407  0.3001  0.1456
 5029W        W 9080   9.757   5.351   3.603  0.0652 -0.0559 -0.0607
 5030W        W 9081   9.081   7.897   0.577  0.2052 -0.2837  0.0225
 5031W        W 9082   8.893   1.415   9.810  0.1812  0.3045 -0.0081
 5032W        W 9083   2.516   4.706   3.507 -0.0446 -0.3215 -0.1267
 5033W        W 9084   1.154   0.639   3.143 -0.1203 -0.2008 -0.0524
 5034W        W 9085   1.037   0.186   2.235  0.1418 -0.2554 -0.0692
 5035W        W 9086   9.382   6.874  11.849 -0.2708 -0.1416  0.1099
 5036W        W 9087   5.228   5.185   2.973 -0.0167  0.0733 -0.2416
 5037W        W 9088   3.044   9.390   0.032  0.1939 -0.3729  0.1878
 5038W        W 9089   6.967   3.231   9.512 -0.2825 -0.1556  0.0996
 5039W        W 9090   0.754   0.515   9.453  0.1996  0.0435  0.0937
 5040W        W 9091   6.447   0.467  12.055  0.0405 -0.2887 -0.1581
 5041W        W 9092   9.033   6.887   9.644 -0.1571 -0.0304 -0.1050
 5042W        W 9093   4.957   9.250   0.728 -0.0857 -0.2457 -0.0430
 5043W        W 9094   5.401  10.310  11.148 -0.2533 -0.1187  0.3556
 5044W        W 9095   4.662   7.621   3.776  0.1031 -0.4981  0.0618
 5045W        W 9096   1.916   7.785  11.727  0.2882 -0.1378 -0.4636
 5046W        W 9097   1.892   0.008   0.682 -0.3795  0.1835  0.1786
 5047W        W 9098   9.802   4.662  11.070 -0.4947 -0.0268  0.0165
 5048W        W 9099   5.865   8.604   1.400 -0.0941 -0.1036  0.0155
 5049W        W 9100   1.381   2.843   4.301  0.1171  0.0001 -0.3201
 5050W        W 9101   1.611   0.763  11.060  0.1584  0.1847 -0.2614
 5051W        W 9102   2.237   1.221   9.513 -0.1636  0.2224  0.3760
 5052W        W 9103   8.010   7.565  12.603 -0.2351 -0.5534  0.1977
 5053W        W 9104   9.079   7.360  11.360 -0.2664 -0.2125  0.0992
 5054W        W 9105   7.949   6.412   3.396  0.1759  0.1335  0.0114
 5055W        W 9106   9.807   6.457   9.874  0.2494  0.2058 -0.2572
 5056W        W 9107   4.516   8.686  12.363 -0.1217  0.0461 -0.2532
 5057W        W 9108   5.771   7.814   1.486 -0.0371 -0.2800 -0.0183
 5058W        W 9109   9.314   3.415   4.883 -0.0163  0.0241  0.1290
 5059W        W 9110   5.746   4.844   4.079  0.0997  0.1058 -0.1604
 5060W        W 9111   4.038   2.841  10.766  0.0803  0.1182  0.2429
 5061W        W 9112   0.523   2.302   3.146  0.2138  0.1826  0.2639
 5062W        W 9113   5.822   8.125   5.382 -0.1701  0.1449  0.3269
 5063W        W 9114   4.482   6.826   3.011 -0.0900 -0.2328  0.0715
 5064W        W 9115   3.314   5.308   2.016  0.1249 -0.3994 -0.0896
 5065W        W 9116   9.045   2.587   2.962 -0.0749 -0.4010 -0.1061
 5066W        W 9117   6.672   9.080  12.705  0.1086  0.0677 -0.0179
 5067W        W 9118   3.818   0.225   4.132  0.0699 -0.0416 -0.0494
 5068W        W 9119   4.521   0.867  11.153 -0.3805  0.2939  0.0277
 5069W        W 9120  10.193   1.243  10.491  0.1227  0.1161  0.0470
 5070W        W 9121   0.118   5.095   0.673  0.0102 -0.2086 -0.1629
 5071W        W 9122   3.110   1.944   4.388 -0.1528  0.0420  0.2473
 5072W        W 9123   1.223   2.197  10.773  0.1307  0.2493  0.0420
 5073W        W 9124   6.092   9.669  12.741  0.2549 -0.0964 -0.0680
 5074W        W 9125   8.593   3.011  11.020  0.2139  0.0726  0.2293
 5075W        W 9126   8.770   8.057   3.080  0.0834 -0.0682 -0.1087
 5076W        W 9127   3.484   4.827   2.812 -0.1775 -0.2529 -0.0131
 5077W        W 9128   1.904   2.071   3.725  0.0791 -0.1873  0.0516
 5078W        W 9129   6.492   8.590   0.152 -0.3439 -0.0698 -0.0209
 5079W        W 9130   9.238   1.702   2.768 -0.0946 -0.2939 -0.1449
 5080W        W 9131   1.195   4.901   2.992 -0.1826 -0.0474 -0.2844
 5081W        W 9132   5.329   5.296   4.392 -0.1294 -0.2454 -0.1549
 5082W        W 9133   2.675   1.074   4.504  0.2191  0.0636  0.1784
 5083W        W 9134   8.608   7.062  12.957 -0.0754 -0.1732  0.0982
 5084W        W 9135   9.788   6.096  11.960  0.0724  0.3159  0.1143
 5085W        W 9136   3.870   9.350  12.703  0.1606  0.1716 -0.0642
 5086W        W 9137   2.471   9.290   3.007 -0.0080 -0.1782 -0.2474
 5087W        W 9138   2.780   3.157   3.966  0.0170 -0.0418  0.0134
 5088W        W 9139   8.269   3.411  11.191  0.1233  0.0435 -0.1833
 5089W        W 9140   9.219   9.724   1.876  0.2451 -0.0171  0.0029
 5090W        W 9141   1.179   8.096   0.332  0.1993 -0.2775  0.1644
 5091W        W 9142   8.871   9.379  10.103  0.1166 -0.1075  0.0628
 5092W        W 9143   7.272   5.655   3.571 -0.0729 -0.0736 -0.1354
 5093W        W 9144   7.262   0.553  11.643  0.2889 -0.3135  0.2519
 5094W        W 9145   9.693   9.845  12.802 -0.0195  0.0496  0.3236
 5095W        W 9146   1.048   7.846   9.629  0.0057 -0.0721 -0.2422
 5096W        W 9147   1.624   7.247  11.636  0.2484 -0.2582 -0.1841
 5097W        W 9148   3.288   5.689   3.251  0.0675 -0.1409  0.2087
 5098W        W 9149   7.333   6.481   4.042  0.0627 -0.3735 -0.2310
 5099W        W 9150   1.370   5.936  10.516 -0.3260  0.2218  0.1002
 5100W        W 9151   8.589   0.682   5.278  0.2274 -0.4733  0.2087
 5101W        W 9152   0.599  10.217  10.987 -0.0883  0.0756  0.0704
 5102W        W 9153   8.917   8.802  10.806 -0.0224  0.2147 -0.1204
 5103W        W 9154   7.092   9.521  12.239 -0.0626 -0.3163  0.2108
 5104W        W 9155   0.146   1.728   3.922  0.0080 -0.0012  0.3318
 5105W        W 9156   4.417   0.973   9.646 -0.3335  0.6013 -0.2860
 5106W        W 9157   5.573   7.115   9.708  0.0345  0.1293  0.1397
 5107W        W 9158   9.309   2.307  11.804  0.3687  0.0949 -0.0958
 5108W        W 9159   5.643   4.229  10.307 -0.1789 -0.0857  0.2839
 5109W        W 9160  10.390   8.849   1.147  0.1429 -0.0570  0.2309
 5110W        W 9161   1.596   8.243  11.826  0.0159 -0.2782 -0.0886
 5111W        W 9162   7.401   1.242   2.375 -0.1246  0.0447 -0.0346
 5112W        W 9163   1.711   8.762  11.773  0.0003  0.3654  0.1218
 5113W        W 9164   7.647   0.204   1.408  0.0912 -0.1500  0.0519
 5114W        W 9165   3.026   9.734  11.851 -0.1007  0.0650  0.3160
 5115W        W 9166   2.978  10.265   0.622  0.0873 -0.1185 -0.3527
 5116W        W 9167   1.611   0.921   3.054 -0.0358  0.0519 -0.2832
 5117W        W 9168   6.433   9.898   4.884 -0.2054 -0.0394  0.2048
 5118W        W 9169   9.463   8.151  11.383 -0.4571  0.3671  0.3130
 5119W        W 9170   8.311   3.114  11.843 -0.5248 -0.1365 -0.3178
 5120W        W 9171   2.076   9.866   2.227  0.1846  0.2979 -0.0146
 5121W        W 9172   5.953   7.734  11.461 -0.0018  0.0044  0.2494
 5122W        W 9173   3.987   2.842   3.583 -0.0996 -0.1402  0.1855
 5123W        W 9174   2.204   4.858   3.951  0.3303  0.0503 -0.1276
 5124W        W 9175   3.081   3.813   1.535 -0.0738  0.1173 -0.2015
 5125W        W 9176   3.130   3.166   0.014 -0.0760 -0.0496  0.0574
 5126W        W 9177   1.616   4.700  11.757  0.3150  0.2798 -0.1079
 5127W        W 9178   0.308   3.490  10.913  0.3050 -0.2396 -0.1474
 5128W        W 9179   0.551   1.998  11.671 -0.1796 -0.0913  0.0330
 5129W        W 9180   6.698  10.348   5.349 -0.1935 -0.0570  0.0170
 5130W        W 9181   4.870   4.313   3.182 -0.1560 -0.0577 -0.1354
 5131W        W 9182   1.345   6.474  12.321 -0.0251 -0.0408  0.0217
 5132W        W 9183   1.291   2.941   1.611 -0.0595 -0.1635  0.1850
 5133W        W 9184   5.761   7.998  12.777  0.1119  0.5243  0.0479
 5134W        W 9185   7.625   1.500  11.416  0.0623  0.0074 -0.2005
 5135W        W 9186   3.220   8.187   2.111  0.2415  0.0475  0.1989
 5136W        W 9187   5.980   7.075   1.220 -0.4101 -0.1122  0.1264
 5137W        W 9188   3.790   9.723  11.407  0.2522 -0.1821  0.0945
 5138W        W 9189   9.956   4.236   4.481  0.0820  0.0467 -0.1201
 5139W        W 9190   7.004   7.861   9.326 -0.0306 -0.0937 -0.1880
 5140W        W 9191   2.122   0.684  12.896 -0.2905 -0.1509 -0.0173
 5141W        W 9192   7.967   4.853   4.289 -0.2176  0.0464  0.3100
 5142W        W 9193   0.666   1.658  10.233 -0.2291  0.0961  0.1678
 5143W        W 9194   7.726   4.201   0.845  0.0516  0.0314  0.1377
 5144W        W 9195   9.302   4.951   0.907 -0.1557  0.1650 -0.6626
 5145W        W 9196   5.992   0.052   4.671 -0.0805 -0.0284 -0.3928
 5146W        W 9197   0.878   7.676  11.524 -0.0187 -0.0588  0.1908
 5147W        W 9198   7.996   0.653   4.829 -0.2060  0.1642 -0.7657
 5148W        W 9199   4.974   6.922   0.212  0.2457 -0.1603  0.1735
 5149W        W 9200   5.304   0.899   9.939  0.1186 -0.2464 -0.1230
 5150W        W 9201   7.608   2.980   1.972 -0.1115  0.1459  0.1919
 5151W        W 9202   3.315   8.683   1.477 -0.2690 -0.3070  0.0458
 5152W        W 9203   4.421   1.960   1.477 -0.1387  0.0437  0.2119
 5153W        W 9204   5.962   5.413  11.789 -0.1213  0.3850 -0.2522
 5154W        W 9205   4.383   9.287   3.283  0.2288 -0.4405 -0.2586
 5155W        W 9206   1.067   4.473  11.955 -0.1006  0.0867 -0.1958
 5156W        W 9207  10.304   2.434   2.827 -0.0073  0.0370  0.5390
 5157W        W 9208   8.881   2.428  10.966  0.0783 -0.1867  0.0716
 5158W        W 9209   2.121   4.449   3.685 -0.2852 -0.2504  0.2852
 5159W        W 9210   0.083   3.598  10.512  0.1151  0.0751  0.0319
 5160W        W 9211   0.448   5.213   9.495 -0.0213  0.2978 -0.1740
 5161W        W 9212   1.592   5.207   2.661 -0.1081 -0.1848 -0.1045
 5162W        W 9213   1.640   8.035  11.339 -0.0337 -0.4981 -0.1034
 5163W        W 9214   8.446   2.777   3.056 -0.1218  0.0630  0.0346
 5164W        W 9215  10.120   4.012  12.951  0.1032  0.1282 -0.0479
 5165W        W 9216   1.117   9.368  13.104  0.2206  0.1042 -0.0602
 5166W        W 9217   5.166   0.759   1.190  0.0649 -0.0750 -0.2455
 5167W        W 9218   0.525   0.170  12.089  0.3933 -0.2335  0.2136
 5168W        W 9219   6.809   7.281   2.327  0.0643 -0.0275  0.4096
 5169W        W 9220   1.673  10.408   4.347 -0.2877 -0.1562 -0.1070
 5170W        W 9221   2.756   7.269   2.250  0.1294 -0.2305 -0.0919
 5171W        W 9222   7.613   5.537  10.973 -0.0949 -0.0681 -0.0004
 5172W        W 9223   2.467   7.524   3.762  0.3415  0.1048 -0.0852
 5173W        W 9224   4.500   4.444  12.225  0.2888 -0.0753 -0.1152
 5174W        W 9225   8.932   4.050   3.296  0.0332  0.0314  0.0659
 5175W        W 9226   5.683   2.706  12.575  0.2184  0.2477 -0.1094
 5176W        W 9227   4.893   7.523   1.389 -0.0701 -0.3498  0.1955
 5177W        W 9228   8.545   3.889  13.004  0.2070 -0.0104 -0.1426
 5178W        W 9229   9.374   9.135   2.313  0.3790  0.1323 -0.2824
 5179W        W 9230   8.166   8.695   1.699  0.0949 -0.3768 -0.0685
 5180W        W 9231   6.020   2.161   2.276 -0.0686  0.1239  0.0034
 5181W        W 9232   0.369   7.264  10.354  0.0989 -0.0161 -0.0452
 5182W        W 9233   7.951   7.697   1.468  0.2860  0.0352 -0.0052
 5183W        W 9234   9.432   0.040   1.129 -0.0741 -0.3496  0.1934
 5184W        W 9235   4.679   4.516   4.678  0.0143  0.0814 -0.2768
 5185W        W 9236   9.301   7.596   4.185  0.4279 -0.0216 -0.1775
 5186W        W 9237  10.397   8.098   0.786 -0.0963 -0.0689  0.4459
 5187W        W 9238   1.331   7.415   9.438  0.0252 -0.2408  0.2760
 5188W        W 9239   8.567   8.245   3.877  0.2241  0.1936  0.2047
 5189W        W 9240   3.568   8.521   2.377 -0.2133 -0.0572  0.2308
 5190W        W 9241   7.924   1.969   5.083  0.0764  0.0445  0.0242
 5191W        W 9242   1.748   5.891   1.288  0.5050  0.1361 -0.3607
 5192W        W 9243   2.497   5.570   2.528 -0.1481  0.0521  0.3339
 5193W        W 9244   4.962   0.582  12.841  0.0980  0.0836 -0.1022
 5194W        W 9245   3.727   8.038  10.969  0.1671 -0.2001 -0.2848
 5195W        W 9246   1.832   7.997  10.362 -0.0007  0.1584 -0.0507
 5196W        W 9247   3.888   4.785   1.892 -0.1871  0.1436 -0.0657
 5197W        W 9248   0.077   6.682  12.538  0.0289 -0.0340 -0.0163
 5198W        W 9249   5.143   8.610   0.086  0.3256  0.1510  0.1592
 5199W        W 9250   1.556   2.262   2.878 -0.2453 -0.2403  0.0498
 5200W        W 9251   7.030   6.810  11.758 -0.0284  0.0679 -0.0307
 5201W        W 9252   4.975   8.315  11.526  0.2668  0.4407  0.2633
 5202W        W 9253   0.872   2.253   1.203  0.1274  0.2430 -0.1356
 5203W        W 9254   2.107   1.250  10.413 -0.0529 -0.0805 -0.0890
 5204W        W 9255   1.498   6.753   2.327 -0.1424 -0.2982  0.0143
 5205W        W 9256   2.946   4.370  10.229 -0.1719  0.1031  0.1663
 5206W        W 9257   6.960   3.101   4.446 -0.0789  0.0456 -0.0014
 5207W        W 9258   7.396   8.507  12.390 -0.0768 -0.0126  0.3629
 5208W        W 9259   1.681   7.905  12.879 -0.0703  0.4040 -0.2361
 5209W        W 9260   9.825   0.190   1.910 -0.0736 -0.2173  0.0659
 5210W        W 9261   2.408   8.447   3.502 -0.1945  0.3883  0.1518
 5211W        W 9262   0.924  10.061  12.207 -0.1240  0.2674  0.1457
 5212W        W 9263   4.047   8.325   2.302 -0.1783 -0.0111  0.1730
 5213W        W 9264   7.714   7.628  12.237 -0.2460 -0.0423  0.3444
 5214W        W 9265   8.187   4.622   3.767  0.0332  0.1762 -0.2397
 5215W        W 9266   0.948   9.429  10.241 -0.1098 -0.1068  0.1380
 5216W        W 9267  10.268  10.332   1.568 -0.4981  0.3303 -0.0751
 5217W        W 9268   3.752   6.946   1.541  0.1801 -0.1226 -0.0424
 5218W        W 9269   3.644   5.641  12.140 -0.0358 -0.3613  0.1226
 5219W        W 9270   9.369   0.712   0.453  0.3109  0.1783  0.4836
 5220W        W 9271   0.873   3.917   2.692 -0.1099  0.2963  0.0762
 5221W        W 9272  10.054   0.864   0.822 -0.0278  0.0599  0.0269
 5222W        W 9273  10.000   1.201   1.850 -0.0508 -0.4113  0.1220
 5223W        W 9274   3.109   4.641   0.078  0.0509  0.1776  0.1650
 5224W        W 9275   2.029   8.336  12.567 -0.2043  0.1189 -0.0588
 5225W        W 9276   3.664   9.842  12.566 -0.0911 -0.3060  0.1475
 5226W        W 9277   0.522   6.984   9.392 -0.1357  0.0546 -0.0169
 5227W        W 9278   3.646   7.081  11.767  0.1423 -0.2689 -0.0128
 5228W        W 9279   3.573   6.553  11.194  0.0028  0.2128  0.2622
 5229W        W 9280   3.227   7.549   1.426 -0.2638  0.1636  0.0727
 5230W        W 9281   6.908   1.130   2.408  0.1772  0.3087 -0.1295
 5231W        W 9282   4.905   9.993  11.702  0.3825  0.0678  0.0450
 5232W        W 9283   7.163   2.452   9.815  0.1445 -0.2225  0.0845
 5233W        W 9284   5.996   5.733   5.071 -0.1587 -0.0270  0.1440
 5234W        W 9285   5.627   6.890   1.511 -0.2667 -0.2498  0.4039
 5235W        W 9286   1.056   1.179   1.872  0.0184  0.0583 -0.0092
 5236W        W 9287  10.413   7.597   0.817 -0.1388  0.2434  0.0287
 5237W        W 9288   3.792   1.501  13.199  0.0313  0.0831 -0.1994
 5238W        W 9289   2.386   0.040  12.376  0.0912  0.0219  0.1524
 5239W        W 9290   2.918   2.263   9.972  0.0014 -0.1962 -0.0125
 5240W        W 9291  10.431   8.606  12.516 -0.0391 -0.2006  0.0594
 5241W        W 9292   8.164   0.205   4.122 -0.0079 -0.0675  0.1044
 5242W        W 9293   6.010   4.570   1.896 -0.2401  0.2190  0.2001
 5243W        W 9294   1.474   6.877  11.949 -0.1488 -0.2894  0.2600
 5244W        W 9295   1.107   6.336   0.282 -0.1559  0.2499 -0.1949
 5245W        W 9296   4.271   8.590   9.024  0.0273  0.1873 -0.2474
 5246W        W 9297   9.445   0.802   1.448  0.1480 -0.1731 -0.1772
 5247W        W 9298   9.438   6.184   0.142  0.2738 -0.3538  0.2151
 5248W        W 9299   9.780   8.452  11.188  0.2175 -0.0604  0.1353
 5249W        W 9300   1.256  10.175  11.625 -0.0789  0.4138  0.0768
 5250W        W 9301   3.298   1.122   3.046  0.2488 -0.2883  0.0527
 5251W        W 9302   3.866   6.244  10.334 -0.1025 -0.1955 -0.2220
 5252W        W 9303   8.248   6.034   0.264 -0.0349 -0.0351 -0.0841
 5253W        W 9304   6.869   7.716  10.864 -0.0976  0.0347 -0.1553
 5254W        W 9305   8.315   7.796   4.158 -0.0066 -0.0039  0.1534
 5255W        W 9306   6.975   3.470   2.776 -0.1285  0.1536  0.3311
 5256W        W 9307   4.284   9.217   2.379  0.2291  0.0416  0.2321
 5257W        W 9308   8.602   2.745  10.052 -0.2451 -0.1123 -0.3478
 5258W        W 9309   5.461   8.290   1.417 -0.0701 -0.3076 -0.1026
 5259W        W 9310   8.151  10.074   3.992 -0.2158  0.0424  0.1646
 5260W        W 9311   5.519   9.357   4.011  0.1057 -0.5099  0.0475
 5261W        W 9312   6.385   1.951   0.222 -0.1376  0.0781  0.0433
 5262W        W 9313   7.314   3.127  11.659  0.0995 -0.0671  0.0954
 5263W        W 9314   2.329   9.838  11.523  0.1991 -0.0846 -0.0369
 5264W        W 9315   8.934   5.702  11.587  0.0842  0.2590  0.1994
 5265W        W 9316   5.958   3.779   5.506 -0.0140 -0.1040  0.0354
 5266W        W 9317   4.870   3.535  10.042  0.0234  0.0022 -0.0415
 5267W        W 9318   5.826  10.405  11.461  0.0033 -0.3233 -0.0652
 5268W        W 9319   6.709   2.521  10.657  0.1615  0.1291 -0.2119
 5269W        W 9320   4.796   0.444   1.030  0.0786  0.4131 -0.0066
 5270W        W 9321   9.565   2.036   9.180 -0.0694 -0.3288 -0.6244
 5271W        W 9322   6.403  10.394  13.038 -0.1030 -0.0614 -0.1709
 5272W        W 9323   3.054   4.333   1.550  0.2459 -0.1653 -0.1358
 5273W        W 9324   2.653   5.285  12.550  0.0184  0.2830 -0.1107
 5274W        W 9325   0.806   5.553  12.667 -0.0869 -0.0922 -0.0232
 5275W        W 9326   4.604   6.947  10.437  0.0926  0.2127  0.1444
 5276W        W 9327   8.881   0.148   2.944 -0.1744  0.1982 -0.1715
 5277W        W 9328   0.326   1.077   1.200  0.1447  0.1749  0.0153
 5278W        W 9329   9.509   0.366   3.994  0.0702 -0.0852 -0.0477
 5279W        W 9330   0.789   0.081   3.105 -0.5088  0.2975 -0.1142
 5280W        W 9331   3.557   4.623   1.479  0.0378  0.0046 -0.0684
 5281W        W 9332   2.148   1.133   3.116  0.1063  0.0622 -0.3938
 5282W        W 9333   9.042  10.217  11.697 -0.0357 -0.0974 -0.2592
 5283W        W 9334   1.966   4.282   1.417 -0.2594  0.0264  0.2104
 5284W        W 9335   0.472   8.870  10.611  0.4359  0.0355  0.3598
 5285W        W 9336   2.732   1.038   0.203 -0.1138 -0.2450  0.1216
 5286W        W 9337   4.561   9.931   2.856 -0.0339 -0.0175 -0.2441
 5287W        W 9338   7.570   4.982   2.555 -0.1411 -0.2310  0.2204
 5288W        W 9339   5.167   7.430  10.906 -0.1829 -0.2135  0.1407
 5289W        W 9340   8.970  10.005  12.367 -0.0806  0.1022  0.1417
 5290W        W 9341   3.306   3.229   4.392  0.0269 -0.1471 -0.0964
 5291W        W 9342  10.124   2.452  11.335 -0.2207 -0.0057  0.2170
 5292W        W 9343   4.879   8.917   2.438 -0.0142 -0.1103  0.1003
 5293W        W 9344   9.167   4.810  12.781  0.0888  0.1878 -0.2344
 5294W        W 9345   4.287   1.081   4.590  0.0671 -0.2697  0.0574
 5295W        W 9346   6.173   3.225   0.942 -0.1551  0.1339 -0.0444
 5296W        W 9347   9.555  10.079  10.444  0.2328 -0.0308  0.3887
 5297W        W 9348   4.471   6.764   0.414 -0.1395  0.2430 -0.0967
 5298W        W 9349   4.206   8.973   0.693 -0.1544  0.0139  0.0246
 5299W        W 9350   2.629  10.060   1.349  0.1661 -0.3560  0.5011
 5300W        W 9351   4.378   3.012   0.640  0.1521  0.0861  0.1296
 5301W        W 9352   0.793   3.140   9.984 -0.0031 -0.1064  0.0938
 5302W        W 9353   7.987   7.194   5.410 -0.1334 -0.0687 -0.1222
 5303W        W 9354   7.945   9.759   3.555 -0.0239 -0.1615  0.0646
 5304W        W 9355   6.252   9.193   0.565 -0.1272  0.0130 -0.1547
 5305W        W 9356   4.578   2.260   2.190 -0.0772 -0.0639 -0.2466
 5306W        W 9357   9.196   1.874   3.795 -0.0924  0.0163  0.1423
 5307W        W 9358   4.280   4.939  12.722 -0.2417 -0.2304 -0.0712
 5308W        W 9359   6.051   1.370   9.765 -0.1329 -0.0025 -0.0504
 5309W        W 9360   7.280   5.202  10.292 -0.0609  0.0687  0.2888
 5310W        W 9361   7.556   2.345  10.236 -0.0220  0.0116 -0.6014
 5311W        W 9362   1.216   3.247   3.998 -0.4323  0.4742  0.2088
 5312W        W 9363   6.863   7.239  10.962  0.2477  0.1608  0.1366
 5313W        W 9364   6.017   1.800   1.347  0.0699 -0.1663 -0.0410
 5314W        W 9365  10.118   6.445   4.089 -0.1707  0.0258 -0.3518
 5315W        W 9366   2.160   8.307   0.236  0.2840  0.1940  0.2179
 5316W        W 9367   4.774  10.362   0.311  0.1357 -0.2122 -0.0139
 5317W        W 9368   5.562   1.346   9.901 -0.1589  0.3136 -0.0308
 5318W        W 9369   5.044   3.556   1.733 -0.0708  0.0861  0.1929
 5319W        W 9370   9.436   2.589   2.173  0.0134  0.0030  0.2692
 5320W        W 9371   7.654   5.681   2.154  0.2664  0.2742  0.1444
 5321W        W 9372   6.662   8.727   8.959 -0.1655 -0.0770 -0.0366
 5322W        W 9373   6.893   6.952   9.350  0.0615  0.0044 -0.1453
 5323W        W 9374   8.092   2.421   3.453  0.0034  0.2390 -0.0558
 5324W        W 9375   1.406   2.235   3.555 -0.2161  0.0374 -0.2784
 5325W        W 9376   2.923   5.230  13.349 -0.1300  0.0688  0.0257
 5326W        W 9377   9.871   3.370  12.452  0.3371  0.1432 -0.0945
 5327W        W 9378   1.150   5.234   1.235 -0.2283  0.3701  0.0774
 5328W        W 9379   1.445   3.073  10.272 -0.2150 -0.1175  0.3597
 5329W        W 9380   7.286   6.256   1.600 -0.4285  0.0553 -0.0920
 5330W        W 9381   3.766   8.920   9.322  0.1799 -0.0620 -0.0231
 5331W        W 9382   7.443   2.776   9.351  0.3187 -0.1973  0.1051
 5332W        W 9383   9.132   7.314  11.923  0.0793 -0.2091 -0.3401
 5333W        W 9384   9.239   6.806  11.314  0.1241 -0.0079 -0.2140
 5334W        W 9385   0.443   3.796   3.703 -0.1037  0.4979 -0.0948
 5335W        W 9386   7.515   9.821   9.355  0.1528 -0.1053  0.2354
 5336W        W 9387   8.792   3.767  12.112  0.2982 -0.2547  0.2059
 5337W        W 9388   2.637  10.076  12.804  0.1783 -0.1925  0.2932
 5338W        W 9389   0.118   2.085  11.953 -0.2776 -0.2400  0.1789
 5339W        W 9390   9.300   0.775   2.608 -0.0513 -0.0595  0.4317
 5340W        W 9391   2.118   6.580  11.375 -0.1031  0.2638  0.1858
 5341W        W 9392   7.522   7.879  11.755 -0.0048  0.0385 -0.0408
 5342W        W 9393   1.359   1.756  11.516 -0.1071 -0.2318  0.1229
 5343W        W 9394   1.443   3.598  12.492 -0.0034 -0.1786 -0.0496
 5344W        W 9395   3.274   5.278  11.921 -0.0340 -0.4968 -0.0981
 5345W        W 9396   2.693   9.766   2.767 -0.0158  0.0656 -0.0580
 5346W        W 9397   2.298   2.945   2.084  0.0686  0.1563  0.1221
 5347W        W 9398   4.463   5.555   2.345 -0.3043 -0.1450 -0.3539
 5348W        W 9399   4.115   0.565  11.271  0.0117  0.0443 -0.2768
 5349W        W 9400   7.099   2.649   4.722 -0.1644 -0.4475 -0.0513
 5350W        W 9401   7.945   5.353   3.404  0.0206  0.0497  0.1889
 5351W        W 9402   6.915   5.236   3.890  0.2758  0.1444  0.3751
 5352W        W 9403   0.233  10.304   1.857 -0.1120  0.1436 -0.0789
 5353W        W 9404   0.975   4.637   3.335  0.0847 -0.2043  0.0872
 5354W        W 9405   8.437   4.043   0.095 -0.1119 -0.0456  0.0279
 5355W        W 9406   6.689   7.086   4.929  0.1329 -0.1147  0.3673
 5356W        W 9407   7.718   6.772   3.767  0.0289  0.2088 -0.1851
 5357W        W 9408   6.677   4.748  10.505 -0.3444 -0.0733  0.4293
 5358W        W 9409   4.817   6.133   2.125  0.0757 -0.0385  0.0743
 5359W        W 9410   5.763   3.745   0.764 -0.0110 -0.1102  0.0087
 5360W        W 9411   1.435   7.746  11.746  0.0974  0.1490  0.0906
 5361W        W 9412   1.627   5.518  10.198 -0.1751  0.0860  0.2478
 5362W        W 9413   1.037   6.044   9.544 -0.1432 -0.1100  0.0466
 5363W        W 9414   3.951   7.953  13.329 -0.1073  0.0694 -0.2645
 5364W        W 9415   6.965   0.866  12.499 -0.1682 -0.0176  0.1325
 5365W        W 9416   8.941   0.540   4.528  0.3453  0.2983 -0.2255
 5366W        W 9417   1.414   5.879  11.062  0.1210 -0.0713  0.1114
 5367W        W 9418   1.483   6.021   9.998  0.0105 -0.1572  0.1606
 5368W        W 9419   6.358   7.467   4.852  0.0785 -0.2534 -0.0831
 5369W        W 9420   8.319   7.754  11.999 -0.3353 -0.1515  0.0533
 5370W        W 9421   9.758   5.261   9.173 -0.0589 -0.2396  0.2370
 5371W        W 9422   2.625   8.017   9.759  0.1136 -0.0822  0.2829
 5372W        W 9423   1.846   2.681  12.055 -0.0917 -0.1394 -0.0422
 5373W        W 9424   9.698   0.292   3.472 -0.2094  0.3213  0.1367
 5374W        W 9425   8.357   8.888   1.287 -0.1977 -0.4789  0.0177
 5375W        W 9426   1.972   8.867   1.717 -0.2960  0.2256  0.3697
 5376W        W 9427   4.899   8.284   9.658 -0.2305  0.1776  0.2378
 5377W        W 9428   3.115   4.378   0.665  0.1057  0.2157  0.1322
 5378W        W 9429   9.094   9.332   4.157  0.0888  0.0428  0.0883
 5379W        W 9430   9.614   0.223   9.333 -0.2087  0.2786  0.2277
 5380W        W 9431   3.983   5.514   0.790  0.1310 -0.2363  0.0587
 5381W        W 9432   6.705   1.871   3.046 -0.2694  0.0678  0.0440
 5382W        W 9433   3.800   6.576   3.428 -0.1018  0.0585 -0.0437
 5383W        W 9434   9.936   0.826   9.922  0.0329 -0.0316  0.2135
 5384W        W 9435   5.554   4.518  10.763 -0.2933 -0.2789  0.1809
 5385W        W 9436  10.083   4.558   3.179 -0.0100 -0.1207 -0.1976
 5386W        W 9437   5.679   6.123   2.962 -0.0263 -0.1375  0.1854
 5387W        W 9438   4.249   8.379   2.759 -0.0697 -0.2010  0.3089
 5388W        W 9439  10.249   4.397   1.846  0.1748 -0.6031 -0.2769
 5389W        W 9440   2.112  10.214   9.740 -0.2742  0.0729 -0.1915
 5390W        W 9441   4.225   5.888   2.750  0.1628 -0.2092  0.2703
 5391W        W 9442   3.311   2.870  11.182  0.5043  0.0537 -0.1441
 5392W        W 9443   4.652   8.156   3.076 -0.2233  0.4193  0.0401
 5393W        W 9444   9.227   4.494   2.157 -0.2151  0.0605 -0.3437
 5394W        W 9445   1.032   4.282  12.541  0.1336 -0.2882 -0.2341
 5395W        W 9446   9.407   8.715  10.667 -0.1680 -0.3234  0.3378
 5396W        W 9447   7.770  10.244  12.604 -0.1212 -0.1667  0.1391
 5397W        W 9448   9.474   7.949   2.612  0.1960 -0.1704  0.2176
 5398W        W 9449  10.203   2.510   9.725 -0.1863 -0.0994 -0.1448
 5399W        W 9450   2.779   2.701  13.088 -0.2490 -0.0667 -0.2840
 5400W        W 9451   7.047   6.299   1.048  0.1596 -0.1089 -0.0518
 5401W        W 9452   2.113   4.318   9.294  0.2601  0.0772  0.2495
 5402W        W 9453   4.366   9.251  12.102  0.2204 -0.5927  0.1591
 5403W        W 9454   8.268   6.385   4.418 -0.3493 -0.3558 -0.2490
 5404W        W 9455   2.760   4.893   0.483  0.1749 -0.0656  0.1250
 5405W        W 9456   9.130   3.111  12.917 -0.2275 -0.3757 -0.2017
 5406W        W 9457   8.472   4.046   3.752 -0.0060 -0.0397  0.0319
 5407W        W 9458   5.617   0.345   8.799 -0.1204  0.0360 -0.0025
 5408W        W 9459   6.702   4.129   4.789 -0.0579  0.2899  0.2771
 5409W        W 9460   5.498   0.820   0.728 -0.1738 -0.3906 -0.3485
 5410W        W 9461   6.754   4.485   3.822 -0.1351  0.0181 -0.0426
 5411W        W 9462  10.349   1.504   9.467 -0.1767  0.1383  0.0764
 5412W        W 9463   8.281   2.643  11.774  0.2132 -0.0547 -0.0020
 5413W        W 9464   9.932   5.481   2.355  0.3617 -0.1280 -0.2167
 5414W        W 9465   5.288   6.338   0.619 -0.1592 -0.2933 -0.0502
 5415W        W 9466   4.138   1.661  11.437 -0.1736 -0.1724 -0.0677
 5416W        W 9467   4.325   9.509  12.927 -0.1261  0.0442  0.2379
 5417W        W 9468   4.606   0.128  12.732 -0.0088 -0.0911  0.0485
 5418W        W 9469   9.639   7.381   1.999  0.1777 -0.0392 -0.1959
 5419W        W 9470   5.024   0.381   2.444 -0.0029  0.1741 -0.0760
 5420W        W 9471   3.428   5.107   4.186  0.2503  0.2904 -0.1428
 5421W        W 9472   5.042   0.160   4.668  0.1348 -0.2634  0.0747
 5422W        W 9473   0.689   9.251  12.225  0.1550 -0.2504 -0.0316
 5423W        W 9474   5.050   9.344  12.723  0.0478 -0.2675 -0.0872
 5424W        W 9475   7.407   7.243   9.283 -0.0378 -0.1267 -0.1902
 5425W        W 9476   9.186   4.692   2.629 -0.0077  0.0837  0.0487
 5426W        W 9477   4.225   9.045   9.196 -0.1507  0.0225  0.2471
 5427W        W 9478   3.183   0.693   0.005 -0.2124 -0.0612 -0.0994
 5428W        W 9479   6.368  10.374   3.338 -0.2809  0.3537 -0.2968
 5429W        W 9480   3.913   3.889   9.760 -0.0121 -0.0105 -0.0308
 5430W        W 9481   4.467   9.917   4.116  0.1498  0.3480 -0.1065
 5431W        W 9482   4.953   2.653   1.897  0.1792  0.2401 -0.0819
 5432W        W 9483   2.900   3.721   4.789  0.1206  0.1511 -0.1865
 5433W        W 9484   2.860   3.882   9.602 -0.2586  0.0838 -0.0404
 5434W        W 9485   7.751   1.068   4.732  0.3506 -0.0479 -0.0286
 5435W        W 9486   0.009   2.943   0.192  0.1320 -0.3955 -0.1831
 5436W        W 9487   7.112   0.175  11.337 -0.0448 -0.3276 -0.1766
 5437W        W 9488  10.063   3.263   2.477 -0.1140 -0.3174 -0.0319
 5438W        W 9489   0.468  10.407   2.286  0.2066  0.2121  0.0211
 5439W        W 9490   3.778   1.016  10.964  0.0076 -0.2924 -0.4162
 5440W        W 9491   2.562   2.179   2.356 -0.1615  0.1290  0.2990
 5441W        W 9492   6.525   4.446  12.351 -0.1589 -0.4774  0.1094
 5442W        W 9493   3.368   8.968   2.635  0.1510  0.1405  0.0797
 5443W        W 9494   6.076   4.273  11.699 -0.0434  0.1930 -0.2345
 5444W        W 9495  10.301   1.869   1.287  0.2972 -0.2242  0.3901
 5445W        W 9496   5.347   5.884   2.024  0.3868  0.2526 -0.2727
 5446W        W 9497   5.674   6.097  10.705  0.1708  0.0237 -0.2878
 5447W        W 9498   9.120   9.212   3.193 -0.1345  0.0837 -0.1930
 5448W        W 9499   2.765   9.564  11.414  0.4599 -0.0177  0.1499
 5449W        W 9500   2.157   2.138   4.161  0.2491 -0.3686  0.0279
 5450W        W 9501  10.085   0.445   2.217 -0.2539 -0.1056  0.2055
 5451W        W 9502   1.983   8.176   1.403 -0.4965 -0.0514 -0.0855
 5452W        W 9503   1.821   6.563  12.290 -0.0950  0.0783  0.0423
 5453W        W 9504   1.614   6.976   9.633  0.0537  0.2551  0.1629
 5454W        W 9505   2.810   5.576   9.810  0.0406 -0.0891 -0.1781
 5455W        W 9506   0.667   4.346   2.532  0.2462 -0.0769  0.0351
 5456W        W 9507   5.922   2.744   2.104  0.0966 -0.0370 -0.0256
 5457W        W 9508   4.940   0.806   3.852 -0.1215  0.1459  0.0701
 5458W        W 9509   6.442   4.714   9.144  0.0219 -0.0391 -0.0531
 5459W        W 9510   6.868   1.119  10.440  0.1636 -0.0521 -0.1549
 5460W        W 9511   7.708   2.884  10.392  0.0066  0.0569  0.1245
 5461W        W 9512   1.635   1.827   2.601  0.1156 -0.0605  0.0634
 5462W        W 9513   0.120   2.491  11.100  0.1349 -0.1046  0.0841
 5463W        W 9514  10.031   6.951  11.749 -0.1979  0.1529  0.0592
 5464W        W 9515   1.949   0.396   2.550 -0.1334  0.2805  0.0761
 5465W        W 9516   3.414   2.220   4.641 -0.1136  0.0808 -0.2159
 5466W        W 9517   8.190   9.710   9.814  0.0474  0.4009 -0.3427
 5467W        W 9518   0.806   0.342  13.338  0.5708 -0.2760  0.0388
 5468W        W 9519   8.388   7.230  12.482  0.1241 -0.0649  0.2943
 5469W        W 9520   7.576   2.185   9.674 -0.0475  0.0296  0.0290
 5470W        W 9521   9.376   2.531  12.372 -0.1140 -0.0095  0.1077
 5471W        W 9522   0.529   7.732   1.787  0.4049  0.0402  0.0504
 5472W        W 9523   2.646   3.698   1.364  0.2154 -0.2298  0.1585
 5473W        W 9524   7.791   0.335   0.865 -0.0472 -0.0168 -0.1699
 5474W        W 9525   2.880   3.263  11.198 -0.1697  0.1648 -0.3626
 5475W        W 9526   2.269   3.939  13.000  0.0310  0.2599  0.1895
 5476W        W 9527   6.285   4.575   4.229 -0.0541  0.2651  0.1973
 5477W        W 9528   1.006   1.748  10.612 -0.0918 -0.2923  0.1354
 5478W        W 9529   3.784   4.445   2.675  0.1297  0.0092  0.1004
 5479W        W 9530   0.911   1.589   2.090 -0.1560 -0.0248 -0.1212
 5480W        W 9531   1.872   0.285  13.096  0.3156 -0.0875  0.1744
 5481W        W 9532   9.655   7.109  12.211 -0.0114  0.0637 -0.0049
 5482W        W 9533   6.887   7.664  10.304 -0.3506  0.0442 -0.2222
 5483W        W 9534   4.789   3.030  13.338 -0.0224  0.2495 -0.3802
 5484W        W 9535   9.392   3.686   0.805  0.2087  0.0172  0.0626
 5485W        W 9536   6.678   3.586  11.945  0.2480 -0.0233 -0.1345
 5486W        W 9537   6.250   6.691   0.832 -0.2534 -0.0362  0.1877
 5487W        W 9538   2.670   3.565   2.874 -0.3335  0.0853  0.0220
 5488W        W 9539   5.544   0.362  10.953  0.0272  0.0114 -0.0926
 5489W        W 9540   3.140  10.138   1.508  0.0061 -0.1766 -0.1535
 5490W        W 9541   3.695   3.228  11.657 -0.1935 -0.2218  0.1478
 5491W        W 9542   3.827   1.942   0.374 -0.0049 -0.0435 -0.2558
 5492W        W 9543   2.810   5.398  12.095 -0.0686 -0.2077  0.0295
 5493W        W 9544   7.019   9.623  11.193 -0.1489  0.1244  0.0226
 5494W        W 9545   4.612   4.267   0.361  0.2046 -0.0528  0.2471
 5495W        W 9546   2.745   0.916   2.260  0.1121 -0.0517  0.2171
 5496W        W 9547   6.971   8.794  10.586 -0.0556 -0.0111  0.0312
 5497W        W 9548   9.334   5.952  10.300  0.0665 -0.2149  0.1601
 5498W        W 9549   0.786   6.486   3.217  0.1603  0.1589  0.2795
 5499W        W 9550   5.073   9.799  10.167  0.0036  0.1186  0.1283
 5500W        W 9551  10.265   6.071   0.161  0.0040  0.1350 -0.1917
 5501W        W 9552  10.246   6.227   1.669  0.1690  0.1664 -0.2082
 5502W        W 9553   0.435   6.808   3.029 -0.2749  0.0103  0.0591
 5503W        W 9554   6.300   3.249   4.161  0.1290  0.3248  0.0014
 5504W        W 9555   8.778   2.017   0.373  0.0464 -0.3734  0.0853
 5505W        W 9556   5.422   4.771   9.229 -0.4167 -0.2202 -0.0099
 5506W        W 9557   2.907   5.227   1.617  0.0554  0.0026  0.1285
 5507W        W 9558   0.368   4.970  11.368  0.0425  0.1333 -0.0948
 5508W        W 9559   8.702   9.833   2.632  0.1043 -0.1326  0.3060
 5509W        W 9560   4.508   1.918   4.162 -0.2441  0.3637  0.0681
 5510W        W 9561   1.854   7.251   2.516 -0.0522  0.1186 -0.0776
 5511W        W 9562   2.809   4.732  12.399  0.0628 -0.1935  0.2284
 5512W        W 9563   0.402   7.461   8.701  0.0732 -0.3306  0.2390
 5513W        W 9564   3.014   9.619  10.928 -0.0841  0.1191 -0.1719
 5514W        W 9565   9.507   4.047   1.276 -0.3724  0.1916 -0.0299
 5515W        W 9566   4.643   9.718   8.564 -0.0080 -0.1555 -0.0008
 5516W        W 9567   0.987  10.316   1.243 -0.0975 -0.3271  0.1396
 5517W        W 9568   4.361   3.935   0.693  0.0297 -0.2447  0.1597
 5518W        W 9569   2.359   0.083   2.915 -0.1520  0.0636 -0.0479
 5519W        W 9570   4.503   0.005   4.911 -0.0165  0.2609 -0.1080
 5520W        W 9571   3.478   6.137  12.114  0.1448  0.1165 -0.0644
 5521W        W 9572   0.619   1.753   3.168 -0.1647 -0.1134 -0.1873
 5522W        W 9573   7.242   1.872   3.602 -0.2440  0.1105  0.2403
 5523W        W 9574   2.032   4.928   2.818  0.0629 -0.3285 -0.2031
 5524W        W 9575   7.076   5.456  12.751 -0.1324 -0.0902  0.0714
 5525W        W 9576   8.473   2.466  12.566 -0.2399  0.1932 -0.1523
 5526W        W 9577   6.645   9.548   0.574  0.4674 -0.3622 -0.0295
 5527W        W 9578   4.642   5.557  11.111 -0.1011  0.0765 -0.1060
 5528W        W 9579   3.609   7.710  10.575  0.1382  0.0757 -0.1490
 5529W        W 9580   6.407   0.914  13.314  0.0129  0.1272  0.1322
 5530W        W 9581   3.934   9.957   0.048  0.0872  0.0752  0.0582
 5531W        W 9582   1.523   3.669   3.994  0.0553 -0.0641  0.0085
 5532W        W 9583   3.658   0.418   3.224  0.0744 -0.0918  0.0355
 5533W        W 9584   0.812   0.459  11.386 -0.2224 -0.0548  0.1431
 5534W        W 9585   5.242   4.858   2.604 -0.0502 -0.0014 -0.0506
 5535W        W 9586   1.811   5.853  12.563 -0.4376  0.0537  0.0553
 5536W        W 9587   4.838   8.753   9.612 -0.1396 -0.0073  0.2141
 5537W        W 9588   5.299   4.270  12.018  0.3152  0.1288 -0.0312
 5538W        W 9589   7.462   9.591  10.207  0.2291 -0.2135  0.0526
 5539W        W 9590   5.886   4.061   9.361 -0.0099 -0.1989 -0.1468
 5540W        W 9591   5.997   8.983   4.102  0.0640  0.1151  0.0987
 5541W        W 9592   5.633   9.411  10.887 -0.0320  0.1884  0.1399
 5542W        W 9593   3.084   2.709   3.162 -0.1269 -0.1929  0.0146
 5543W        W 9594   0.938   5.072   9.594  0.2692 -0.0818  0.1249
 5544W        W 9595   8.951   9.450  12.171  0.3376 -0.1466 -0.0383
 5545W        W 9596   7.387   6.487   3.404  0.0783 -0.1883  0.0241
 5546W        W 9597   3.488   3.741   1.194  0.1666  0.1321  0.0874
 5547W        W 9598   8.721   7.189   9.909 -0.1135  0.1927 -0.6558
 5548W        W 9599   5.343   2.517  10.140 -0.2442 -0.1353  0.2567
 5549W        W 9600   2.729   0.336   1.414  0.3635  0.1866  0.2607
 5550W        W 9601   3.079   3.493   9.895 -0.2829  0.1568 -0.3826
 5551W        W 9602   5.991   3.788  11.855  0.1571 -0.0615 -0.3524
 5552W        W 9603   7.601   0.525  10.730 -0.0241 -0.1908 -0.2345
 5553W        W 9604   9.000   5.312   0.174 -0.2868  0.1074  0.1711
 5554W        W 9605   7.352   3.335   1.044 -0.0083  0.2112 -0.2656
 5555W        W 9606   7.691   6.583   1.550  0.0737 -0.2121 -0.0308
 5556W        W 9607   3.138   0.112   0.214 -0.4604 -0.2773  0.1013
 5557W        W 9608   2.614   3.270  10.193 -0.0959 -0.3359 -0.0248
 5558W        W 9609   1.875   4.305  12.077  0.0766  0.1522 -0.1148
 5559W        W 9610   5.875   8.484   5.003  0.1231  0.0871 -0.1189
 5560W        W 9611   6.678   6.356   2.805  0.0324  0.1458 -0.0469
 5561W        W 9612   0.517   4.493  11.874 -0.0074 -0.1141 -0.4506
 5562W        W 9613   9.676   5.122   0.129 -0.3830  0.1729  0.4131
 5563W        W 9614   3.745   3.585  12.584  0.1420 -0.1069 -0.1112
 5564W        W 9615   1.607   6.453   5.997 -0.1910 -0.0018 -0.0345
 5565W        W 9616   2.384   8.349   4.018  0.1578  0.2943  0.0662
 5566W        W 9617   5.816   4.684   0.168 -0.0806 -0.1483 -0.2322
 5567W        W 9618   2.025   3.038   9.000  0.1836 -0.1273  0.1114
 5568W        W 9619   2.282   0.722   2.251  0.1466 -0.0857  0.1595
 5569W        W 9620   0.901   5.976   3.004 -0.3241 -0.0749  0.0670
 5570W        W 9621   4.298   7.672  11.094  0.0879 -0.0626 -0.1180
 5571W        W 9622   7.569   0.605   2.659 -0.2129  0.0085 -0.0306
 5572W        W 9623   4.381   1.119   2.351 -0.0035  0.2321  0.0030
 5573W        W 9624   2.370   7.379   0.646  0.1493 -0.0617  0.1810
 5574W        W 9625   6.564   5.981   9.258 -0.0911  0.4390  0.0358
 5575W        W 9626   3.489   6.172   2.283  0.2304 -0.1292 -0.0422
 5576W        W 9627   9.034   2.473   9.913 -0.1483 -0.1393 -0.0978
 5577W        W 9628   6.859   0.378  13.116  0.0127 -0.3750 -0.0567
 5578W        W 9629   2.891   7.227  12.313 -0.0442 -0.1097 -0.0876
 5579W        W 9630   1.327   2.663   3.291  0.2447  0.0802  0.2693
 5580W        W 9631   1.287   4.026   1.944 -0.1902 -0.1617  0.0146
 5581W        W 9632   3.558   2.456   9.056 -0.2070  0.0988 -0.0665
 5582W        W 9633   8.033   8.342   4.827  0.3486 -0.7580 -0.0227
 5583W        W 9634   9.321   3.869   2.352  0.1935 -0.0481 -0.0930
 5584W        W 9635   4.984   0.886  11.825 -0.1775 -0.0246 -0.2270
 5585W        W 9636   6.178   2.473   4.919 -0.1998 -0.1707 -0.1441
 5586W        W 9637   0.947   6.940   3.012 -0.0184  0.2940  0.0144
 5587W        W 9638   9.393   2.055   9.873  0.2459 -0.0024 -0.2256
 5588W        W 9639   3.733   0.636  10.095  0.0808 -0.0221  0.0568
 5589W        W 9640   0.519   1.701   2.433 -0.2613  0.0872 -0.2562
 5590W        W 9641   2.862   4.753   9.649  0.0742 -0.2016 -0.0032
 5591W        W 9642  10.405   9.925  11.079  0.1318 -0.1032 -0.2796
 5592W        W 9643   9.025   5.320   2.403 -0.1161 -0.2886 -0.2249
 5593W        W 9644   2.695   0.493   0.257  0.2136  0.1140 -0.2933
 5594W        W 9645   3.203   9.294  11.508  0.0337  0.1946 -0.1844
 5595W        W 9646   9.888   1.969  11.498 -0.0404  0.0814  0.4987
 5596W        W 9647   6.108   6.356   0.361  0.3243 -0.0307  0.1369
 5597W        W 9648   3.698   0.776  12.173  0.0611 -0.2006  0.0203
 5598W        W 9649   6.727   3.475   9.157 -0.1086 -0.0815  0.0237
 5599W        W 9650   5.254   2.681   3.811  0.0236 -0.3211  0.0188
 5600W        W 9651   4.701   3.770  10.495  0.0725  0.0202 -0.0067
 5601W        W 9652   2.980   6.280   2.074  0.0939 -0.0439 -0.0999
 5602W        W 9653   5.303   5.274   2.326 -0.0656  0.0291 -0.0710
 5603W        W 9654   8.837   1.193   3.941 -0.4452  0.1988 -0.3129
 5604W        W 9655   2.161   2.521  10.508 -0.1028  0.0167 -0.0158
 5605W        W 9656   7.363   7.010   9.753  0.1192 -0.2177 -0.0923
 5606W        W 9657   6.885   0.453  10.659  0.6717 -0.1877  0.2139
 5607W        W 9658   1.081   3.606  11.610  0.2497  0.0556 -0.2793
 5608W        W 9659   3.922   4.765   9.900  0.2371  0.1217 -0.0368
 5609W        W 9660   5.833   2.268   1.707  0.1838 -0.0104  0.2634
 5610W        W 9661   5.078   8.771  10.637  0.1035 -0.0929 -0.1154
 5611W        W 9662   7.604   1.441   0.262  0.3976  0.0817 -0.0543
 5612W        W 9663   9.898   6.421   0.266 -0.2073 -0.2862  0.0860
 5613W        W 9664   3.995   7.105   2.369  0.0349  0.1707 -0.0793
 5614W        W 9665  10.177   1.178   3.158  0.0066 -0.0027 -0.2598
 5615W        W 9666   5.992   3.272   5.464  0.2387  0.1552 -0.0769
 5616W        W 9667   1.543   8.608   1.653  0.0820 -0.2077  0.2738
 5617W        W 9668   6.971   9.028  12.279  0.0135 -0.2845  0.1591
 5618W        W 9669   4.845   2.131  11.886  0.0042 -0.1206 -0.0006
 5619W        W 9670   5.011   0.164  11.001  0.0390  0.0010 -0.2229
 5620W        W 9671   5.320   8.339  11.202  0.0592  0.0970 -0.1613
 5621W        W 9672   9.030   8.936  11.346  0.0419 -0.1950  0.2628
 5622W        W 9673   6.203   6.002   8.796 -0.0136 -0.1003 -0.0740
 5623W        W 9674   4.479  10.044  12.834 -0.0644 -0.0196 -0.0779
 5624W        W 9675   0.722   0.037   0.358  0.1443  0.2334  0.1622
 5625W        W 9676   2.925   9.320   0.959 -0.0740 -0.3264 -0.2189
 5626W        W 9677   1.272   0.926   5.381 -0.2320 -0.2721  0.2985
 5627W        W 9678   7.014   0.148   9.537 -0.2621 -0.0036 -0.0823
 5628W        W 9679   7.383   7.167   0.273 -0.0646  0.0851 -0.0396
 5629W        W 9680   9.501   8.389   2.313 -0.0298 -0.3271  0.1969
 5630W        W 9681   5.863   8.589  11.129 -0.2040 -0.3320 -0.1288
 5631W        W 9682   2.816   1.134   9.723 -0.3873  0.0918  0.1765
 5632W        W 9683   8.442   8.466   3.294  0.0025 -0.3256 -0.0488
 5633W        W 9684   4.779   7.107   1.158 -0.0881 -0.4581  0.0134
 5634W        W 9685   6.893   0.880   9.471  0.5274 -0.3452 -0.0059
 5635W        W 9686   0.635   6.375  10.252  0.1013 -0.0993  0.0060
 5636W        W 9687   6.666   4.883   3.560 -0.1362  0.0698 -0.0621
 5637W        W 9688   7.257   7.992   3.799  0.0207  0.0436 -0.1864
 5638W        W 9689   3.566   1.486   3.485 -0.0065  0.0769 -0.0218
 5639W        W 9690   9.382   7.182   9.450 -0.4108  0.1612  0.3746
 5640W        W 9691   0.902   7.097   3.914  0.0976 -0.2802 -0.0109
 5641W        W 9692   3.563   1.182   9.339  0.5261  0.1000  0.1521
 5642W        W 9693   3.281   5.163   3.236 -0.0352 -0.1344  0.2388
 5643W        W 9694   3.548   9.174   1.404  0.2113 -0.1984  0.2344
 5644W        W 9695   2.429   5.280   0.907 -0.2028 -0.5074  0.0751
 5645W        W 9696  10.322   6.813   2.850  0.0216  0.2272 -0.1779
 5646W        W 9697   8.495   4.751   9.474  0.2178  0.0390  0.1976
 5647W        W 9698   3.611   1.747   1.746 -0.1513 -0.1487  0.6542
 5648W        W 9699   7.930   7.134  12.288 -0.0079  0.2693  0.2575
 5649W        W 9700   9.115   1.273   9.346 -0.0102 -0.2297  0.2069
 5650W        W 9701   2.131   4.487  11.714  0.0145  0.0755  0.1847
 5651W        W 9702   3.531   0.411   1.753  0.0005  0.0491  0.2760
 5652W        W 9703   3.065   1.575   3.027 -0.0663  0.2208  0.0401
 5653W        W 9704   3.846   7.253   9.822 -0.2213  0.1509  0.1787
 5654W        W 9705   6.455   7.941  10.473 -0.2458  0.0248 -0.0813
 5655W        W 9706   1.121   3.020   3.518 -0.2431  0.0872  0.2801
 5656W        W 9707   7.255   7.251   0.928 -0.0804  0.1340  0.0637
 5657W        W 9708   0.774   4.006   1.181  0.0724  0.0599 -0.1450
 5658W        W 9709   1.084   9.637  11.419  0.1786  0.1318 -0.0231
 5659W        W 9710   8.223   2.932  11.378  0.2903  0.0470 -0.2973
 5660W        W 9711   3.142   2.627  12.039 -0.0794  0.0417  0.2453
 5661W        W 9712   9.888   5.661  12.765 -0.0147 -0.0781 -0.1703
 5662W        W 9713   7.155   7.311  10.094 -0.0134 -0.0402  0.0940
 5663W        W 9714   4.178   8.673  10.189  0.0177 -0.3933  0.3173
 5664W        W 9715   8.784   4.595  12.527  0.1694  0.0813 -0.1188
 5665W        W 9716   0.345   0.700   1.544 -0.0740 -0.0923 -0.2957
 5666W        W 9717   6.090   1.994   3.880 -0.3559  0.2219  0.1367
 5667W        W 9718   4.172   5.581  12.647  0.0801  0.5155 -0.1535
 5668W        W 9719   8.967   2.211   1.872  0.1901  0.0934 -0.0792
 5669W        W 9720   5.096   2.206   8.568 -0.1953 -0.0530 -0.1654
 5670W        W 9721   7.688   7.143  10.656 -0.0324 -0.1190  0.0725
 5671W        W 9722   3.500   0.958   9.753  0.0585  0.3132 -0.1149
 5672W        W 9723   2.585   4.250   0.819  0.0894 -0.2347  0.1845
 5673W        W 9724   0.864  10.222   4.928 -0.1431 -0.2637 -0.4302
 5674W        W 9725   6.478   4.817   1.863  0.1484 -0.0008  0.0776
 5675W        W 9726   5.701   1.782  12.677 -0.2650 -0.2167 -0.0918
 5676W        W 9727   7.272   4.583  11.133 -0.1462 -0.0685  0.0929
 5677W        W 9728   5.800   8.281   1.870  0.2564 -0.0251  0.1745
 5678W        W 9729   1.911   8.141   3.386 -0.0477  0.3695 -0.0457
 5679W        W 9730   6.013   4.147   2.165  0.2582 -0.0958 -0.2225
 5680W        W 9731   6.565   5.508  11.118 -0.2227 -0.1056 -0.2286
 5681W        W 9732   1.213   4.929   0.351  0.0091 -0.0725 -0.1867
 5682W        W 9733   9.702   5.930  11.447  0.1361 -0.1745  0.3186
 5683W        W 9734   9.206   1.334  12.417  0.0622 -0.0382  0.0699
 5684W        W 9735   7.192   1.673  13.054  0.2275 -0.0622  0.3831
 5685W        W 9736   4.694   8.949   0.436  0.1197  0.0393 -0.1001
 5686W        W 9737   5.835   8.207  10.345 -0.0411  0.0082  0.1089
 5687W        W 9738   6.431   8.923  10.589  0.1166  0.0543  0.0934
 5688W        W 9739   4.376   5.122   1.687  0.0375 -0.0695 -0.0498
 5689W        W 9740  10.020   9.113   1.468  0.0680 -0.1864  0.2162
 5690W        W 9741   3.537   2.226   4.146  0.2145  0.2445  0.1121
 5691W        W 9742   8.774   6.230  10.069  0.0604 -0.1471  0.1456
 5692W        W 9743   4.271   2.476   6.621 -0.5245 -0.2478 -0.1439
 5693W        W 9744   6.281   4.405   0.487 -0.1097 -0.1396 -0.0136
 5694W        W 9745   6.137   4.425  10.394 -0.0582  0.2278  0.3247
 5695W        W 9746   6.175   3.944   0.276  0.1462  0.1815 -0.1115
 5696W        W 9747   9.250   1.821   3.290  0.0239  0.2322  0.2330
 5697W        W 9748   1.012   5.513  10.916  0.1055 -0.0045  0.3621
 5698W        W 9749   9.460   6.827  12.922  0.0519  0.1961 -0.2680
 5699W        W 9750   0.960   6.184   4.044  0.3723 -0.1199  0.1957
 5700W        W 9751   2.746   8.587   1.538  0.0412  0.1104  0.1413
 5701W        W 9752   1.920  10.159  11.357 -0.0175  0.0623  0.0427
 5702W        W 9753   8.227   0.457  13.018 -0.2198 -0.0998  0.2533
 5703W        W 9754   3.196   7.368   2.932  0.5327  0.2235 -0.1693
 5704W        W 9755   2.994   3.194   9.050  0.2135 -0.0007 -0.1743
 5705W        W 9756   2.461   6.174  10.541 -0.1596 -0.0362 -0.2453
 5706W        W 9757   0.380   0.273   9.724  0.0484  0.3978 -0.0756
 5707W        W 9758   7.136   1.082   3.463 -0.1151 -0.1416  0.1277
 5708W        W 9759   8.840   7.492  12.693  0.4206 -0.0061 -0.1421
 5709W        W 9760   8.199   0.174   3.110  0.1254  0.5182  0.3379
 5710W        W 9761   9.731   7.149   3.752 -0.1331  0.0723  0.2425
 5711W        W 9762   7.664   7.227   4.561 -0.0167 -0.0631  0.1796
 5712W        W 9763   2.978   8.817   1.126  0.0831 -0.3470  0.1013
 5713W        W 9764   7.216   0.110   3.244 -0.0430 -0.1073 -0.0075
 5714W        W 9765   6.062   9.892  12.272 -0.1526  0.1723  0.2862
 5715W        W 9766   5.091   3.231   4.241  0.0432 -0.0730 -0.0897
 5716W        W 9767   2.962   5.469   3.561  0.0026  0.3977  0.0072
 5717W        W 9768   0.727   0.374  10.917 -0.0792 -0.3965 -0.1086
 5718W        W 9769   4.803   2.261  10.657 -0.2504 -0.0524  0.1278
 5719W        W 9770   7.027   0.501   9.946 -0.0606  0.1028  0.2753
 5720W        W 9771   7.330   8.280  12.844 -0.1709 -0.0740  0.1120
 5721W        W 9772   7.025   3.922   9.907 -0.0281  0.0173 -0.4480
 5722W        W 9773   5.571   9.240   9.420 -0.0820  0.1221  0.0323
 5723W        W 9774   8.821   8.847   0.668  0.2992 -0.3133 -0.0509
 5724W        W 9775   8.707   9.181  10.561  0.0455 -0.1503  0.2987
 5725W        W 9776   0.261   2.210   3.555 -0.0001  0.0947 -0.2544
 5726W        W 9777   5.830   5.021   2.577 -0.0149  0.0003 -0.1104
 5727W        W 9778   8.899   4.352  11.947  0.1232 -0.3509 -0.1209
 5728W        W 9779   3.042   9.381  12.197 -0.1473  0.3260 -0.1006
 5729W        W 9780   7.625   2.420   1.884  0.2304  0.3468  0.2245
 5730W        W 9781   2.680   4.476   3.917 -0.1762 -0.0836  0.3656
 5731W        W 9782  10.133   1.643   3.686 -0.0944 -0.1493 -0.0582
 5732W        W 9783   5.169   5.833  12.296 -0.0607  0.5108 -0.1846
 5733W        W 9784   6.480   4.535   3.069 -0.1723  0.1358  0.1500
 5734W        W 9785   3.774   5.024   0.696 -0.0176  0.0359  0.1395
 5735W        W 9786   1.647  10.004   9.695  0.0023  0.3261  0.0139
 5736W        W 9787   3.293   1.472   2.558  0.0837  0.0269  0.4641
 5737W        W 9788   8.495   9.014   4.689  0.2362  0.1067 -0.1055
 5738W        W 9789   2.055   8.883   0.796 -0.0705  0.0334 -0.0827
 5739W        W 9790   7.886   8.633  12.267  0.1595  0.1780  0.1085
 5740W        W 9791   8.281  10.204  12.275 -0.2824 -0.0768 -0.1025
 5741W        W 9792   2.560   9.661   0.884  0.0555  0.0207 -0.1899
 5742W        W 9793   9.827   3.563   2.946  0.1165 -0.2598  0.1565
 5743W        W 9794   9.653   1.186  12.581  0.4848  0.2558  0.2311
 5744W        W 9795  10.289   9.971   4.614  0.0220 -0.2150 -0.0123
 5745W        W 9796   6.335   6.402   4.666 -0.0060  0.2457  0.0562
 5746W        W 9797   2.512   0.601  10.929 -0.4990 -0.2189 -0.2021
 5747W        W 9798   0.280   4.048  11.063  0.0768  0.1564 -0.0380
 5748W        W 9799   8.162   2.956   1.845  0.1201 -0.2339 -0.1960
 5749W        W 9800   2.867   6.452   1.127  0.1920 -0.0897  0.0926
 5750W        W 9801   6.452   5.520   9.639 -0.0441 -0.0085  0.4487
 5751W        W 9802   3.866   3.362   1.329  0.3597  0.4621  0.2513
 5752W        W 9803   6.294   5.615   1.833  0.0268  0.3575 -0.4502
 5753W        W 9804   0.559   1.902  12.161  0.1648 -0.0795 -0.0471
 5754W        W 9805   9.992   0.695   3.171  0.0843  0.0721 -0.1555
 5755W        W 9806   6.718   4.948  12.082  0.2912  0.4343  0.2072
 5756W        W 9807   3.027   1.009   4.117  0.0783  0.0061 -0.0639
 5757W        W 9808   8.594   2.398   3.338 -0.1095  0.1519  0.1939
 5758W        W 9809   1.595   9.448  10.640  0.0608 -0.0448  0.0001
 5759W        W 9810   2.980   3.581   0.359  0.2621  0.4743  0.0249
 5760W        W 9811   6.844  10.421   1.077  0.0893 -0.0955  0.3229
 5761W        W 9812   2.013   6.924   9.195 -0.1723 -0.2470  0.0125
 5762W        W 9813   6.057   1.245  12.455 -0.0007 -0.2067 -0.1305
 5763W        W 9814   5.525   6.574   3.239 -0.0803 -0.1483  0.4481
 5764W        W 9815   4.810   9.846   0.169 -0.1859 -0.0709  0.2457
 5765W        W 9816   1.857   2.209   1.559  0.0832  0.0090 -0.3778
 5766W        W 9817   8.693   3.128  11.490  0.0526  0.0200 -0.0172
 5767W        W 9818   1.258   2.302   2.133 -0.2195  0.0879 -0.1989
 5768W        W 9819   1.089   4.523  10.984  0.2328 -0.4344  0.2247
 5769W        W 9820   5.854   9.472   1.260  0.4514 -0.0068  0.0410
 5770W        W 9821   9.142   1.122   1.742 -0.0833  0.0971 -0.1880
 5771W        W 9822   0.178   8.674   0.744  0.0912  0.2900 -0.1764
 5772W        W 9823   3.955   5.115   4.971 -0.2777  0.1943  0.1623
 5773W        W 9824   7.452   9.004   0.443 -0.1776  0.4361  0.4976
 5774W        W 9825   6.736   3.436   0.938 -0.3100 -0.0160 -0.1956
 5775W        W 9826   2.553   1.815   0.144 -0.1172  0.1947  0.0997
 5776W        W 9827   1.236   9.905   0.701 -0.0674 -0.1335 -0.1274
 5777W        W 9828   0.867   1.576  12.367 -0.0049 -0.3000 -0.0815
 5778W        W 9829   0.536   5.365  13.085  0.2022 -0.1903  0.1957
 5779W        W 9830   9.702  10.422  11.354  0.0496  0.0476  0.0957
 5780W        W 9831   9.943   0.454  10.247 -0.2890 -0.0261 -0.1668
 5781W        W 9832   3.570   4.621  10.930 -0.2572  0.0012  0.0456
 5782W        W 9833   4.093   7.945   0.880 -0.1584  0.0913 -0.0741
 5783W        W 9834   5.960   7.329   2.152 -0.0913  0.0678 -0.1074
 5784W        W 9835   9.416   7.288   2.816  0.2348 -0.0030 -0.0557
 5785W        W 9836  10.093   7.806   3.203 -0.2609  0.1460 -0.2408
 5786W        W 9837   6.037   8.714  11.573  0.3374  0.1250 -0.1052
 5787W        W 9838   4.500   7.998   4.029  0.3084 -0.2159 -0.4240
 5788W        W 9839   7.975   3.082   9.553  0.0842  0.1238  0.1280
 5789W        W 9840   8.299   0.169   3.571  0.0301  0.0139  0.0306
 5790W        W 9841   4.174   2.428   5.221 -0.0249  0.1218 -0.1530
 5791W        W 9842   7.657   6.152   4.423 -0.0814  0.2477 -0.0375
 5792W        W 9843   5.577   6.936  10.835 -0.1494 -0.4300  0.1806
 5793W        W 9844   3.676   4.691   4.669  0.1527 -0.1063  0.3817
 5794W        W 9845   4.395   4.920   3.317  0.4443  0.2017  0.3257
 5795W        W 9846   8.139   9.852  12.643 -0.1688  0.2017 -0.1236
 5796W        W 9847   9.603  10.070   3.290  0.0969  0.0145 -0.1209
 5797W        W 9848   9.495  10.366   3.783  0.1332  0.0491  0.1410
 5798W        W 9849   4.685   8.280  12.810 -0.1268 -0.0835  0.3400
 5799W        W 9850   4.052   8.453  11.249 -0.2472  0.0857 -0.0967
 5800W        W 9851   9.525  10.072   2.825  0.2447 -0.0255 -0.2776
 5801W        W 9852   0.550   7.204   1.761 -0.1784 -0.3715 -0.0920
 5802W        W 9853   7.162   0.053   0.454  0.0528  0.0286  0.0205
 5803W        W 9854   6.151   2.094   5.653  0.2241 -0.3363 -0.1509
 5804W        W 9855   6.331   1.771   9.493  0.3467 -0.0995  0.1233
 5805W        W 9856   8.409  10.274   2.787 -0.1004 -0.0221  0.1653
 5806W        W 9857   9.219   5.053   4.302 -0.2782  0.3038 -0.3155
 5807W        W 9858   4.943   9.417  11.389  0.1137  0.1450 -0.0322
 5808W        W 9859   8.128   5.082   9.743  0.3685 -0.1685 -0.0633
 5809W        W 9860   6.805   0.284  11.691 -0.2297  0.1524  0.0038
 5810W        W 9861   1.903   0.493   4.727 -0.2124  0.1044  0.2617
 5811W        W 9862   2.940   6.997   3.264 -0.1461  0.2963 -0.2466
 5812W        W 9863   9.530   1.681  12.684  0.1245  0.2367  0.0756
 5813W        W 9864   3.209   0.832  12.265 -0.1589 -0.1624  0.2486
 5814W        W 9865   8.019   9.955   0.778 -0.3128  0.4386  0.4223
 5815W        W 9866   7.208   2.061  10.089  0.2206 -0.0105 -0.2789
 5816W        W 9867   3.031   1.110  12.653  0.0423  0.0535  0.0950
 5817W        W 9868   0.339   1.091  13.259 -0.0013  0.0635  0.2568
 5818W        W 9869   3.324  10.136   9.167 -0.1358  0.2031 -0.2101
 5819W        W 9870   9.231   6.194   3.473  0.2045  0.0233  0.1504
 5820W        W 9871   5.722   6.090   0.789 -0.1410  0.0019 -0.0490
 5821W        W 9872   3.169   7.630  12.508 -0.0463 -0.2955 -0.1545
 5822W        W 9873   3.251   0.476   4.906 -0.0681  0.1117  0.0187
 5823W        W 9874   6.088   7.844   1.903 -0.1065 -0.1166 -0.2648
 5824W        W 9875   6.760   8.681   1.170  0.4652  0.0022 -0.1418
 5825W        W 9876   2.580   4.778  10.087 -0.0044  0.0849  0.0499
 5826W        W 9877   0.599   0.287   1.814  0.2192  0.2210 -0.0040
 5827W        W 9878  10.371   0.712   1.186  0.1980 -0.1236  0.2506
 5828W        W 9879   0.290   4.459   0.539 -0.2578 -0.1462 -0.0186
 5829W        W 9880   6.710   6.736  13.141 -0.1601 -0.0142 -0.1470
 5830W        W 9881   5.065   3.669  13.358  0.0378  0.0662 -0.2570
 5831W        W 9882   8.470   4.732   4.740 -0.1457 -0.0563  0.1231
 5832W        W 9883   6.124   5.737  11.401 -0.2538 -0.0126 -0.0060
 5833W        W 9884   6.396   7.576  11.715 -0.0877  0.0346  0.0209
 5834W        W 9885   9.363   2.347  10.812  0.0935  0.0104  0.0578
 5835W        W 9886   3.270   5.008   1.288 -0.1020 -0.1642 -0.1152
 5836W        W 9887   5.878   9.428  12.287  0.1481  0.0790  0.4502
 5837W        W 9888   7.460   5.294   8.618 -0.2515  0.1181 -0.0880
 5838W        W 9889   8.012   3.574  12.740 -0.0296  0.3458 -0.0380
 5839W        W 9890   3.410   9.212  13.103  0.0273 -0.2147 -0.2348
 5840W        W 9891   4.318   2.912   9.717  0.3800 -0.0322 -0.1917
 5841W        W 9892   3.946   0.529   0.242 -0.0847 -0.1150  0.3027
 5842W        W 9893   0.402   5.773  12.384  0.0588 -0.0325  0.1539
 5843W        W 9894   3.294   1.052  11.404  0.1621 -0.0407 -0.0121
 5844W        W 9895   4.706   8.673   8.206 -0.2290 -0.1231  0.0489
 5845W        W 9896   7.251   1.816   0.350  0.1403 -0.0157  0.2106
 5846W        W 9897   5.500   1.612  11.193 -0.1358  0.0553  0.1415
 5847W        W 9898  10.304   4.815  11.285  0.0276 -0.0878  0.1976
 5848W        W 9899   9.252   0.890  10.890  0.0234 -0.1469 -0.0632
 5849W        W 9900   2.030   5.270   0.024  0.0536  0.2210 -0.3704
 5850W        W 9901   8.084   5.466   0.244 -0.1787 -0.0501 -0.0987
 5851W        W 9902   2.280   6.817  12.993 -0.1005 -0.3678  0.1567
 5852W        W 9903   3.775   1.392   0.358 -0.0439 -0.0299  0.1205
 5853W        W 9904   7.264   2.102   2.117  0.0283  0.2863 -0.1892
 5854W        W 9905   7.691   0.367   3.997 -0.0488 -0.0711  0.1085
 5855W        W 9906   2.590  10.020   8.839 -0.1187 -0.0041 -0.1000
 5856W        W 9907   4.369   4.410  13.312  0.1818  0.1275 -0.0236
 5857W        W 9908   5.178   4.403   1.135 -0.1936  0.2383  0.0779
 5858W        W 9909   4.978   6.638   4.267 -0.2959 -0.1410 -0.2706
 5859W        W 9910   0.698   7.270   0.887  0.4110  0.1814  0.0681
 5860W        W 9911   2.921   5.349   0.507 -0.1477  0.1228 -0.3621
 5861W        W 9912   4.629   7.145   4.409  0.2334 -0.3633 -0.1693
 5862W        W 9913   8.319   5.460  11.771 -0.0254  0.1501  0.0765
 5863W        W 9914   8.336  10.088   1.143  0.3315 -0.0627 -0.0665
 5864W        W 9915   4.195   8.030   0.388 -0.0110  0.0784 -0.0015
 5865W        W 9916   3.957   4.239  11.372  0.0062 -0.4323 -0.1974
 5866W        W 9917   7.178   2.512   1.138  0.0823 -0.3759  0.2247
 5867W        W 9918   7.435   8.755  11.446 -0.3217 -0.3844 -0.0520
 5868W        W 9919   2.264   3.849   1.021 -0.0621  0.0805 -0.1608
 5869W        W 9920   9.388   8.718   2.793 -0.0277 -0.0006 -0.0603
 5870W        W 9921   2.297   4.045   0.480 -0.0472  0.1993  0.1330
 5871W        W 9922   4.497   1.388  11.123  0.0586 -0.2204  0.1982
 5872W        W 9923   8.307  10.322   2.270  0.0193 -0.0690 -0.3046
 5873W        W 9924   8.050   5.648  10.465 -0.0412  0.0105 -0.2014
 5874W        W 9925   0.531   2.865  13.211  0.0874  0.0647  0.0238
 5875W        W 9926   3.565   0.983  13.025  0.0197 -0.1767  0.0448
 5876W        W 9927   6.656   8.039   1.737 -0.1455  0.0270  0.1076
 5877W        W 9928   5.453   4.828   3.679  0.0029  0.1445 -0.1388
 5878W        W 9929   6.086   0.293   1.388  0.1383  0.0286  0.0227
 5879W        W 9930  10.365  10.352  10.809 -0.2003 -0.0224  0.0400
 5880W        W 9931   6.173   8.336   3.006 -0.0617  0.0196 -0.2235
 5881W        W 9932   9.656   4.790  13.049 -0.1258 -0.2505  0.1404
 5882W        W 9933   4.638   1.049   4.935  0.1069 -0.0953  0.1783
 5883W        W 9934   8.105  10.324  12.971  0.0059 -0.0467  0.0993
 5884W        W 9935   3.400   3.223   1.383 -0.2362  0.0792  0.1143
 5885W        W 9936   3.336   5.034   0.279 -0.0274  0.0397 -0.1326
 5886W        W 9937   6.334   8.125   3.523 -0.1002 -0.2892 -0.2139
 5887W        W 9938   6.403   7.573   9.430 -0.0522 -0.1294 -0.2939
 5888W        W 9939   1.518   4.401   2.147 -0.2824 -0.0691 -0.1069
 5889W        W 9940   7.447   3.501  10.892 -0.2105 -0.2775 -0.6361
 5890W        W 9941   5.418   7.860  10.803  0.0196  0.1082  0.1929
 5891W        W 9942   0.981   3.180   4.440 -0.0130 -0.0866  0.2865
 5892W        W 9943   0.648   2.446   3.963 -0.2132  0.1060  0.3451
 5893W        W 9944   4.161   0.121   1.496  0.0279  0.2322 -0.2878
 5894W        W 9945   3.020   6.622   9.243 -0.0200  0.0435  0.0358
 5895W        W 9946   7.868   6.777   8.320 -0.0300  0.1170  0.1884
 5896W        W 9947   0.748   8.218   2.610  0.3188 -0.0628 -0.2899
 5897W        W 9948   9.041   6.997  10.917  0.3520  0.3021 -0.1633
 5898W        W 9949   4.317   2.001   3.608  0.1119 -0.1792  0.2131
 5899W        W 9950   2.092   1.767   9.530 -0.1255  0.0347  0.1598
 5900W        W 9951   1.226   7.873   1.734  0.0659  0.0368  0.1819
 5901W        W 9952   9.581   4.649   3.276  0.0821  0.1430 -0.0391
 5902W        W 9953   4.743   7.583   4.583 -0.0152 -0.2151 -0.0016
 5903W        W 9954   0.271   7.088   3.862  0.2321  0.2017  0.4461
 5904W        W 9955   9.980   5.414   1.310  0.0497 -0.1407 -0.1651
 5905W        W 9956   5.470   0.293  11.489 -0.1692 -0.2227  0.1750
 5906W        W 9957   6.125   9.077  11.968  0.2329 -0.1973 -0.0764
 5907W        W 9958   0.775   2.982   1.806 -0.2842 -0.2314 -0.1010
 5908W        W 9959  10.041   7.297   1.619  0.1776  0.3625 -0.0272
 5909W        W 9960   1.173   0.364   1.196 -0.2810  0.1424 -0.2333
 5910W        W 9961   1.843   3.773  12.025  0.0352  0.0913 -0.1317
 5911W        W 9962   1.640   5.901   1.797  0.0711  0.2190 -0.3633
 5912W        W 9963   2.498   3.715  10.423 -0.3396  0.2062  0.0382
 5913W        W 9964   6.726   2.982  13.084  0.4127  0.2464  0.1625
 5914W        W 9965   8.992   0.857   3.454  0.0055 -0.0960  0.1566
 5915W        W 9966   0.442  10.127   9.711  0.1566 -0.0618 -0.1252
 5916W        W 9967   6.419   7.668   3.989  0.0345 -0.0729  0.0113
 5917W        W 9968   2.259   2.866  11.824  0.0436  0.0316  0.1568
 5918W        W 9969   5.683   6.287   9.638 -0.0482 -0.2804  0.1943
 5919W        W 9970   7.785   5.250  10.551  0.0383 -0.0107 -0.0513
 5920W        W 9971   8.258   2.077   1.256 -0.0198 -0.1728  0.1365
 5921W        W 9972   7.433   9.210  11.207  0.3188  0.1992  0.0152
 5922W        W 9973   7.898  10.036  13.288  0.0357 -0.1785  0.0329
 5923W        W 9974   6.666   3.989  10.997 -0.0283  0.0097  0.0128
 5924W        W 9975   8.239   4.159   2.677  0.0020 -0.1325  0.0446
 5925W        W 9976   4.081   5.571  11.406 -0.0458  0.3041  0.0530
 5926W        W 9977   7.101   6.289  11.773  0.1026 -0.0381  0.1735
 5927W        W 9978   0.503   8.286  10.337 -0.1568 -0.0524 -0.4032
 5928W        W 9979   4.567   9.691  10.378 -0.0279  0.2454  0.1411
 5929W        W 9980   4.423   0.288   1.877 -0.2690 -0.0954  0.0489
 5930W        W 9981   4.627   8.332  11.992 -0.1249 -0.2243 -0.4622
 5931W        W 9982   9.401   1.242  12.999 -0.5716 -0.3304 -0.3955
 5932W        W 9983   8.132   5.836   4.221 -0.0126  0.1923 -0.2469
 5933W        W 9984  10.175   8.995   0.449  0.0002  0.1101  0.2367
 5934W        W 9985   1.293   8.140  12.615 -0.1031  0.2983  0.0415
 5935W        W 9986   3.344   7.229   9.710 -0.1536 -0.3467 -0.1067
 5936W        W 9987   2.097   7.960   8.445  0.1475 -0.0560  0.1408
 5937W        W 9988   2.502   2.117   0.948  0.4525 -0.0821 -0.2130
 5938W        W 9989   0.540  10.287  12.675  0.0158 -0.1803 -0.0758
 5939W        W 9990   9.914   4.721  10.576  0.0422 -0.1745  0.0445
 5940W        W 9991   4.970   6.320   5.010 -0.2446 -0.0746 -0.0719
 5941W        W 9992   4.839   3.183   9.664  0.0756 -0.0484  0.0282
 5942W        W 9993   9.142   7.809  12.183  0.1011 -0.0017  0.0543
 5943W        W 9994   7.273   0.236   2.324 -0.1801  0.1668 -0.1882
 5944W        W 9995   0.026   1.173  11.427  0.1922  0.1586 -0.0010
 5945W        W 9996   6.975   2.471   2.456  0.2427  0.1014 -0.1395
 5946W        W 9997   2.112   3.163   0.209 -0.1691 -0.1686 -0.0643
 5947W        W 9998   7.152   0.136  10.376 -0.1966  0.1014  0.2403
 5948W        W 9999   1.059   4.427   2.878  0.1456  0.1350 -0.0984
 5949W        W10000   5.223   8.922   9.181  0.1875  0.2430 -0.0200
 5950W        W10001   6.351  10.114  12.594 -0.0079 -0.1993  0.0246
 5951W        W10002   0.055   8.255   3.466  0.2631  0.3882  0.3056
 5952W        W10003   2.599   2.830   3.665  0.1507  0.0323 -0.1150
 5953W        W10004   6.687  10.028  12.185  0.1129 -0.1763  0.1763
 5954W        W10005   1.572   2.421  10.015 -0.0082 -0.0122  0.0354
 5955W        W10006   3.993   1.165   1.964 -0.0795 -0.0102 -0.0763
 5956W        W10007   6.672   5.788  12.324  0.0073 -0.2634  0.0995
 5957W        W10008   4.011   3.857   4.365 -0.2454  0.1069  0.4651
 5958W        W10009   1.490   0.532  12.055 -0.1822 -0.0329  0.1150
 5959W        W10010   4.522   1.849   0.807  0.1107 -0.1520 -0.0353
 5960W        W10011   1.904   3.649   2.063  0.3197  0.2985 -0.1678
 5961W        W10012   7.121   2.710  12.816 -0.3647  0.3448 -0.2698
 5962W        W10013   8.233   3.880  10.418 -0.2221 -0.3668  0.0093
 5963W        W10014   3.342   3.118   3.081  0.0934  0.3053  0.2505
 5964W        W10015   6.726   8.902   9.398 -0.0790  0.1133 -0.1318
 5965W        W10016   0.259   8.151   0.014 -0.1182 -0.0026  0.1664
 5966W        W10017   1.878   5.653  12.015  0.4075 -0.1930 -0.2773
 5967W        W10018   3.910   7.808   4.163 -0.2235  0.3708  0.0603
 5968W        W10019   2.035   6.897   3.314  0.0124  0.2036  0.0254
 5969W        W10020   4.364   1.718  11.994 -0.0833  0.0090  0.1912
 5970W        W10021   0.364   0.849   4.837 -0.0236  0.3409 -0.0936
 5971W        W10022   6.915   6.795   9.887 -0.1371 -0.1416 -0.0463
 5972W        W10023   9.883   3.229   1.680 -0.1129 -0.0757 -0.1177
 5973W        W10024  10.019   6.664   2.458 -0.1468  0.1557  0.0853
 5974W        W10025   5.154   6.718   3.840  0.0557 -0.2009  0.1269
 5975W        W10026   3.511   2.823  12.828  0.3382  0.0722 -0.0740
 5976W        W10027   7.689   5.967  11.349 -0.3309 -0.0361 -0.2164
 5977W        W10028  10.173   0.794   8.977  0.1133  0.2630 -0.4245
 5978W        W10029   0.138   3.965   9.707  0.1387  0.2782 -0.0115
 5979W        W10030   6.021   7.255   9.260 -0.0349  0.4238  0.0248
 5980W        W10031   1.568   3.211  12.771 -0.3210  0.0478 -0.0246
 5981W        W10032   6.245   6.053   1.495  0.2198  0.1920 -0.0177
 5982W        W10033   3.471   2.356   3.037  0.2808 -0.4502 -0.0142
 5983W        W10034   0.487   2.054   5.417 -0.2813 -0.1018 -0.0662
 5984W        W10035   9.927   4.853   3.581 -0.3504  0.3348 -0.1335
 5985W        W10036   2.553   9.816   3.704 -0.4391  0.2020  0.2879
 5986W        W10037   3.589   8.774  12.964 -0.2175  0.2023  0.0444
 5987W        W10038   1.515   7.039   8.990 -0.4294  0.2845  0.0014
 5988W        W10039   6.952   5.926   9.639  0.2561 -0.3008 -0.0419
 5989W        W10040   3.682   8.158  11.855 -0.3790 -0.1807  0.0717
 5990W        W10041   1.680   2.054   0.459 -0.1193  0.0595 -0.0436
 5991W        W10042   0.436   1.591   1.857 -0.1371  0.0821  0.1906
 5992W        W10043   6.722   2.836   2.059 -0.1224 -0.3080 -0.0729
 5993W        W10044   2.299   1.295   4.879 -0.2360  0.2277 -0.4178
 5994W        W10045   0.191   0.963  11.861  0.0067 -0.0316 -0.0984
 5995W        W10046   7.565   2.696  12.275 -0.0252  0.1076  0.1224
 5996W        W10047   6.523   2.695   2.629 -0.1836  0.0466  0.2458
 5997W        W10048   7.634   4.660   9.106 -0.1358  0.0867  0.0513
 5998W        W10049   3.341   7.260  10.223 -0.0090  0.1304 -0.0661
 5999W        W10050   0.247   9.112  12.308  0.0610 -0.0036 -0.2918
 6000W        W10051   5.228   1.253  12.114  0.0369  0.1248 -0.2565
 6001W        W10052   6.805   3.147  10.263  0.0698 -0.0661 -0.0406
 6002W        W10053   0.446   4.161   9.261 -0.0924  0.2993 -0.1270
 6003W        W10054   6.363   6.124   1.981 -0.1881  0.2607 -0.3187
 6004W        W10055   4.180   7.082  12.562  0.1040 -0.0345  0.2318
 6005W        W10056   3.955   0.364   2.044  0.1387 -0.1429  0.4270
 6006W        W10057   9.622   1.499  12.218 -0.1498  0.0778 -0.0395
 6007W        W10058   2.565   0.629   4.250 -0.1758  0.2599  0.1031
 6008W        W10059   6.199   7.579   1.317  0.0334 -0.1495  0.1505
 6009W        W10060   4.233  10.374   4.163 -0.0624 -0.2496  0.2505
 6010W        W10061   3.250   8.795   9.388 -0.0374 -0.2264  0.0586
 6011W        W10062   2.587   2.318   0.015 -0.3984  0.1352  0.0534
 6012W        W10063   2.637   2.795   4.347 -0.0511 -0.1767  0.2727
 6013W        W10064   3.869   3.774   3.805  0.2495  0.1130  0.2082
 6014W        W10065   9.586   7.612  12.109  0.2383 -0.0965  0.2132
 6015W        W10066   4.562   7.783   5.527  0.0321 -0.0337 -0.0138
 6016W        W10067   1.242   9.441   2.447  0.0136  0.2109 -0.0624
 6017W        W10068   9.925   4.328   3.598 -0.1310 -0.1476 -0.0830
 6018W        W10069   9.373   1.732   1.513  0.0499 -0.0548  0.0199
 6019W        W10070   9.027   5.258   9.971 -0.0029 -0.0188 -0.1643
 6020W        W10071   5.352   8.612   9.703  0.0372  0.1837 -0.0037
 6021W        W10072   7.304   1.412   8.847  0.0067 -0.3028 -0.0898
 6022W        W10073   6.604   2.345   3.821 -0.2776 -0.3921 -0.0624
 6023W        W10074   5.531   5.819  10.321  0.3183 -0.1491 -0.1658
 6024W        W10075   2.468   8.462  12.382 -0.1028  0.1494  0.0889
 6025W        W10076   5.943   6.867   4.236 -0.1647  0.0755  0.0189
 6026W        W10077   7.678   0.214  12.871  0.1549 -0.0827 -0.1022
 6027W        W10078   2.035   3.758  10.655  0.2035  0.0122 -0.3475
 6028W        W10079   1.260   1.367  12.614  0.0381 -0.1438 -0.1143
 6029W        W10080   9.634   1.927  11.885 -0.3178  0.0225 -0.1563
 6030W        W10081   9.824   9.387   3.552 -0.1384 -0.1197  0.0842
 6031W        W10082   8.348   7.699  11.440  0.0294 -0.1556 -0.0147
 6032W        W10083   2.396   4.264   2.073  0.2686 -0.0366 -0.2907
 6033W        W10084   5.948   0.859  10.497 -0.2870  0.0729 -0.0589
 6034W        W10085   9.648   2.541   0.307 -0.1409  0.1509 -0.3287
 6035W        W10086   8.040   7.691   0.489  0.1288 -0.0368  0.1709
 6036W        W10087   3.796   7.479  11.054  0.5557 -0.1391 -0.3399
 6037W        W10088   2.241   1.890   0.565  0.0385  0.2973 -0.2711
 6038W        W10089   8.477   5.430   4.306  0.1103  0.0547  0.2584
 6039W        W10090   6.710   5.283  10.580 -0.0557 -0.2268 -0.0895
 6040W        W10091   3.706   5.999   2.756 -0.1450 -0.1110 -0.1323
 6041W        W10092   8.870   1.187  13.168 -0.1087 -0.0239 -0.1564
 6042W        W10093   5.852   7.021   3.586  0.0340 -0.0195  0.0985
 6043W        W10094   5.072   0.076  12.808  0.0389  0.3836 -0.2342
 6044W        W10095   5.111   5.322   4.898 -0.0659  0.0642 -0.1580
 6045W        W10096   5.087   8.780   1.047 -0.0095 -0.1286  0.1791
 6046W        W10097   1.253   6.043  12.571  0.4297  0.0856 -0.2319
 6047W        W10098   6.421  10.052  10.109 -0.0174  0.2519  0.1824
 6048W        W10099   1.572   7.909   3.088  0.1862 -0.1619 -0.0067
 6049W        W10100   4.117   9.629  10.755  0.0418 -0.1733  0.0840
 6050W        W10101   5.953   2.767   0.921  0.0778  0.0108  0.1997
 6051W        W10102   0.850   4.114  10.234  0.0544  0.1266  0.0600
 6052W        W10103   1.366   2.639   1.101 -0.2072 -0.2046 -0.0912
 6053W        W10104   9.576   9.188   9.413  0.0081  0.3728  0.0687
 6054W        W10105   3.870  10.217   0.982  0.1636  0.2913  0.0143
 6055W        W10106   1.828  10.418  10.742  0.1596  0.1945 -0.3615
 6056W        W10107   4.447   0.967  12.213 -0.1027  0.0317 -0.1614
 6057W        W10108   8.673   2.101  12.852 -0.2795  0.2295 -0.4098
 6058W        W10109   2.447   0.154   0.519  0.1487 -0.2699  0.4021
 6059W        W10110   4.507   3.400   3.111  0.2073  0.1791  0.0613
 6060W        W10111   9.010   9.526   9.472  0.1873  0.4102  0.1378
 6061W        W10112   1.898   1.064   0.265  0.3034 -0.2110  0.1447
 6062W        W10113   6.764   1.547   0.668  0.0059  0.0223  0.0321
 6063W        W10114   3.008   0.743   0.520  0.2737  0.0731 -0.0744
 6064W        W10115   9.752   3.163  11.985 -0.0738  0.1870  0.1473
 6065W        W10116   8.630   0.806   4.229  0.4073  0.3544 -0.3019
 6066W        W10117   8.081   1.200   1.230 -0.1659  0.1121  0.2962
 6067W        W10118   8.249   9.607  10.692 -0.1261 -0.1086 -0.0380
 6068W        W10119  10.398   9.834   2.293  0.0865 -0.1193  0.0592
 6069W        W10120   7.699   3.758  10.138 -0.2713 -0.2890  0.0742
 6070W        W10121   5.842   5.966   1.817 -0.2275 -0.1362 -0.0900
 6071W        W10122   5.000   5.532   0.439  0.2350 -0.1508 -0.3364
 6072W        W10123   5.722   8.545   3.017 -0.3725 -0.0024  0.4536
 6073W        W10124   9.492   6.469   3.181  0.0510 -0.3668 -0.1286
 6074W        W10125   1.686   6.497  11.076 -0.2048  0.4329  0.0734
 6075W        W10126   4.241   8.877  10.854  0.0298  0.1096  0.0501
 6076W        W10127   5.528   9.713   1.920 -0.0166  0.0407 -0.0178
 6077W        W10128   7.958   3.161   0.339  0.0968  0.0235 -0.6659
 6078W        W10129   4.618   1.896   9.214  0.3344  0.1322 -0.1061
 6079W        W10130   1.465   1.918  12.025 -0.1109  0.3590  0.2005
 6080W        W10131   7.850   8.896   9.692 -0.0362 -0.1871  0.0855
 6081W        W10132   7.194   5.083   9.537 -0.1086  0.2396  0.0818
 6082W        W10133   3.509   2.729   0.135 -0.2596  0.4396  0.0018
 6083W        W10134   9.933   2.342  10.116 -0.0411  0.0833 -0.3498
 6084W        W10135   8.307   0.428   0.876 -0.1356  0.3075  0.0732
 6085W        W10136   6.177   6.870   3.228  0.1080 -0.1158 -0.2309
 6086W        W10137   2.089   3.185  12.687  0.1218  0.1432  0.0823
 6087W        W10138   6.150   2.290  12.744  0.3107 -0.3388  0.1524
 6088W        W10139   3.342   5.110  10.919 -0.2349  0.0419 -0.1604
 6089W        W10140   4.035   0.279   3.573  0.0051 -0.0122 -0.0114
 6090W        W10141   4.426   0.274   0.191 -0.3178 -0.2399  0.0747
 6091W        W10142   6.509  10.212   4.446  0.0788 -0.0111 -0.1878
 6092W        W10143   8.769   2.275   3.795 -0.0918 -0.1122  0.0372
 6093W        W10144   2.850   3.784   3.722 -0.0095  0.1726 -0.0555
 6094W        W10145   3.250   0.511   4.057 -0.2435 -0.1487  0.0405
 6095W        W10146   4.591   5.561  10.015  0.1405 -0.0440 -0.0687
 6096W        W10147   8.232   3.296   0.836 -0.0238  0.0277  0.0496
 6097W        W10148   5.501   1.144  10.394 -0.3041 -0.1252  0.0333
 6098W        W10149  10.130   6.845   0.206 -0.0517  0.0920  0.0135
 6099W        W10150  10.003   9.236   2.988  0.0879  0.3631 -0.2658
 6100W        W10151   9.456   8.936   4.005 -0.0554  0.1134 -0.2712
 6101W        W10152   3.905   2.455   4.417 -0.2588 -0.1530  0.3460
 6102W        W10153   5.141   1.670  11.714  0.0409 -0.1416 -0.0203
 6103W        W10154   6.209   4.106   0.870 -0.2074 -0.0892  0.0703
 6104W        W10155   1.709   9.959   0.364 -0.2423  0.0959 -0.2275
 6105W        W10156   9.056   0.085   1.438 -0.2820 -0.0117  0.1311
 6106W        W10157  10.260   4.495   1.081 -0.0208 -0.3086  0.1948
 6107W        W10158   3.165   1.088   1.973  0.1319 -0.1751  0.2482
 6108W        W10159   8.117   8.469   0.093 -0.0319 -0.3688  0.1398
 6109W        W10160   9.831   8.942   0.101  0.1741  0.0951 -0.0947
 6110W        W10161   6.436   7.467  10.587 -0.2406 -0.0883 -0.4514
 6111W        W10162   8.992   7.505  10.854 -0.2110 -0.2106 -0.1062
 6112W        W10163   1.503   3.285   2.150 -0.0905 -0.2854  0.0773
 6113W        W10164  10.029   6.587   3.312 -0.2186 -0.0126 -0.0062
 6114W        W10165  10.309   6.819  12.953 -0.2615  0.3376  0.0440
 6115W        W10166   2.689   2.670  12.274 -0.0536  0.1332  0.1845
 6116W        W10167   9.425   1.052   9.674 -0.0273  0.0704  0.1506
 6117W        W10168   8.058   5.884   2.462 -0.3724  0.0854 -0.2472
 6118W        W10169   9.362   5.182   3.299 -0.3176  0.1876 -0.2548
 6119W        W10170   8.464   6.807  11.719  0.3993  0.0331 -0.0553
 6120W        W10171   3.992   2.571   1.770  0.1805  0.1354 -0.0579
 6121W        W10172   2.629   6.679  10.645  0.0884  0.3318  0.1963
 6122W        W10173   4.463   7.403  11.654  0.0087 -0.3172 -0.1278
 6123W        W10174   2.349   7.026   2.478 -0.0178 -0.0735 -0.0674
 6124W        W10175   7.379   0.023   9.923  0.0809  0.5765  0.3308
 6125W        W10176  10.234   5.830   9.811 -0.3205 -0.3135  0.2546
 6126W        W10177   9.026   9.453   0.139  0.2883  0.2103  0.0663
 6127W        W10178   2.813   8.079  13.139 -0.0708 -0.0095 -0.0294
 6128W        W10179   9.861   9.705   3.080  0.2923 -0.3913 -0.1610
 6129W        W10180   8.462   6.073   2.673 -0.0221 -0.0782  0.1870
 6130W        W10181   0.887   3.624  10.931  0.0181 -0.2742  0.3326
 6131W        W10182   6.506   5.032   2.562 -0.5091 -0.1621 -0.0023
 6132W        W10183   9.904   0.574   9.518 -0.0899 -0.3423 -0.4055
 6133W        W10184   6.032   8.284   9.150 -0.1307  0.1638 -0.0230
 6134W        W10185   6.219   9.842   9.433 -0.0022  0.2265  0.3256
 6135W        W10186   4.011   9.309  11.732  0.1890 -0.0392 -0.1306
 6136W        W10187   1.223   1.120   4.315  0.1009 -0.1527 -0.3606
 6137W        W10188   0.463   5.327   0.218  0.1336 -0.0990 -0.1828
 6138W        W10189   0.129   3.097  10.298 -0.1957 -0.1399  0.0878
 6139W        W10190   5.922   9.723  10.685  0.2317 -0.3291  0.1671
 6140W        W10191   1.826   8.665   0.424 -0.0624 -0.3319  0.2373
 6141W        W10192   8.499   1.643   4.402  0.2751  0.2598  0.2665
 6142W        W10193   8.168   5.696   2.924  0.0448  0.1857  0.1007
 6143W        W10194   5.548   9.383  12.746 -0.0278 -0.1832  0.0255
 6144W        W10195   6.897   1.977   0.054 -0.3186 -0.1097  0.0503
 6145W        W10196   0.834   3.228   2.267  0.0366  0.0111  0.1983
 6146W        W10197   8.624   2.253  10.169 -0.2775 -0.0790  0.3448
 6147W        W10198   7.306   2.897   5.186  0.1193 -0.0404 -0.1152
 6148W        W10199   6.445   3.302   1.321 -0.0689 -0.3628 -0.1506
 6149W        W10200   2.909   9.545  10.418 -0.1838  0.0372 -0.0408
 6150W        W10201   1.273   4.288  10.321  0.2765  0.2219 -0.1540
 6151W        W10202   4.385   0.440  10.328 -0.0583  0.4572 -0.2684
 6152W        W10203  10.345   1.651   1.797 -0.3242 -0.0986 -0.1645
 6153W        W10204   8.658   2.823   1.417 -0.0977  0.1092  0.1598
 6154W        W10205   7.648   1.517   2.769  0.1327  0.0142  0.1452
 6155W        W10206   2.485   7.047   3.593  0.2030  0.1629 -0.0142
 6156W        W10207   2.428   3.449  12.428  0.2088  0.2710  0.1503
 6157W        W10208   5.414   3.591   5.595 -0.2157 -0.3596 -0.0803
 6158W        W10209   4.733   8.906  11.997 -0.0455 -0.0513  0.0892
 6159W        W10210   8.214   9.725  13.142 -0.3732 -0.0018  0.1002
 6160W        W10211   8.079   5.751  13.239  0.0888  0.0870  0.0546
 6161W        W10212   4.828   2.977   3.840 -0.1146 -0.0794 -0.0262
 6162W        W10213   7.745  10.230  12.118  0.2692 -0.1772  0.0266
 6163W        W10214   4.241   5.292   5.372  0.2050 -0.2266 -0.1627
 6164W        W10215   6.424   1.256  11.468  0.1502  0.2726 -0.1085
 6165W        W10216   3.498   9.959   9.658  0.1332 -0.0682  0.1596
 6166W        W10217   7.297   7.918  10.516  0.1891  0.0559  0.1327
 6167W        W10218   1.497  10.334  11.197  0.2437 -0.2255 -0.1508
 6168W        W10219   0.733   6.093  11.543  0.1967 -0.0400  0.0620
 6169W        W10220   2.776   9.166  11.130  0.2478  0.2111 -0.0988
 6170W        W10221   4.735   2.437   3.049  0.1368 -0.1972 -0.1141
 6171W        W10222   0.540   4.090   0.190 -0.4120 -0.1841  0.2376
 6172W        W10223   9.092   1.978  11.003  0.3057  0.2227 -0.1409
 6173W        W10224   7.559  10.269   2.172  0.1461  0.1619  0.0967
 6174W        W10225   0.899   7.041   9.725 -0.2728 -0.0440 -0.1442
 6175W        W10226   3.486   3.543   1.741 -0.0218  0.1688  0.2648
 6176W        W10227   8.691   9.391   2.891  0.0865 -0.0056  0.0747
 6177W        W10228   3.309   0.573  11.119 -0.1472 -0.1957  0.1491
 6178W        W10229   8.044   9.232   1.587  0.1058  0.1688 -0.2083
 6179W        W10230   8.249   2.494   2.494 -0.0530 -0.1543  0.0858
 6180W        W10231   5.883  10.131   5.046 -0.2568  0.0187 -0.0145
 6181W        W10232   3.064   1.109  11.796 -0.1128  0.1001  0.1951
 6182W        W10233   6.316   2.760   1.292 -0.1037 -0.1535  0.0849
 6183W        W10234   5.964   4.622   0.778  0.2963 -0.1313 -0.0282
 6184W        W10235   2.971   4.856   4.061 -0.3806  0.0097 -0.6581
 6185W        W10236   2.954   3.596  13.132 -0.0578  0.0461  0.0402
 6186W        W10237   0.315   9.268   3.569  0.0519  0.1218  0.3727
 6187W        W10238   7.705   0.336   2.152  0.0440  0.1866 -0.1292
 6188W        W10239   0.102   2.437  10.552  0.2822  0.1103  0.1672
 6189W        W10240   4.579   3.393  12.004  0.3262 -0.0072  0.1425
 6190W        W10241   4.714   1.625  12.827 -0.1217  0.0389  0.2975
 6191W        W10242   1.972   9.209   2.650 -0.2859  0.3280  0.3304
 6192W        W10243   8.767   9.016   2.251 -0.0091  0.2994 -0.1672
 6193W        W10244   5.135   7.128   4.379  0.1238  0.0066  0.0383
 6194W        W10245   2.959   8.075   8.895 -0.1433  0.0832  0.3644
 6195W        W10246   8.727   9.918   2.136 -0.1382 -0.1483 -0.0875
 6196W        W10247   7.467   8.972   3.867  0.0273 -0.2665 -0.0985
 6197W        W10248   4.329   4.137  10.984 -0.1319 -0.1715 -0.1580
 6198W        W10249   0.307   2.501   2.031  0.0359  0.1285 -0.2125
 6199W        W10250   3.032   8.937   5.210 -0.2922 -0.2591 -0.2788
 6200W        W10251   1.092   6.787   9.380  0.0157  0.1863 -0.0312
 6201W        W10252   3.925   1.611  11.899  0.0845 -0.2640  0.0256
 6202W        W10253   7.527   5.101   4.164 -0.0708  0.2864 -0.2050
 6203W        W10254  10.113   1.819  12.019  0.4053  0.2791  0.0396
 6204W        W10255   6.976   3.292   3.375  0.0145  0.0770 -0.1260
 6205W        W10256   0.695   6.635   8.423 -0.1339  0.1966 -0.0325
 6206W        W10257   7.804   9.617  11.046  0.0836 -0.2887  0.1091
 6207W        W10258   5.760   1.403   4.594  0.1555  0.1686 -0.0263
 6208W        W10259   8.377   7.488  10.125 -0.3657  0.3326  0.2362
 6209W        W10260   9.754   4.159   3.133 -0.1728 -0.1363 -0.1365
 6210W        W10261  10.298   5.139  12.375  0.1588 -0.0702  0.1440
 6211W        W10262   8.060  10.429  11.307 -0.2842 -0.0315 -0.1343
 6212W        W10263   1.357   5.532   2.436  0.2242  0.0023 -0.2547
 6213W        W10264   5.104  10.417   3.950  0.1470  0.1205  0.0953
 6214W        W10265   7.214   7.748  12.201  0.0648 -0.0816 -0.3258
 6215W        W10266   3.199   4.587  12.153 -0.0895  0.0421  0.1606
 6216W        W10267   4.265   3.574   1.124  0.0544 -0.2990  0.1035
 6217W        W10268   8.215   3.558   2.694 -0.0172 -0.0736  0.0399
 6218W        W10269  10.165   1.395  11.793 -0.2160 -0.2364  0.0708
 6219W        W10270   2.109   4.595  10.906  0.0160 -0.1880 -0.1702
 6220W        W10271   9.026   3.512   2.661 -0.0534  0.1717 -0.2531
 6221W        W10272   7.004   8.706  12.686  0.1589 -0.2742 -0.0562
 6222W        W10273   2.308   0.450   3.847 -0.3465  0.0657 -0.1042
 6223W        W10274   6.918   5.746  11.664  0.0468  0.0771  0.0263
 6224W        W10275   6.441   6.686  12.376 -0.2842  0.1396 -0.0447
 6225W        W10276   9.156   1.275  10.579  0.4073 -0.1886  0.5323
 6226W        W10277   7.946   9.093   2.213 -0.2822 -0.0157 -0.0056
 6227W        W10278   0.244  10.026  10.640  0.0877  0.2767  0.0862
 6228W        W10279   4.474   6.809   0.978  0.2200  0.0828  0.1514
 6229W        W10280   0.998  10.404  11.187 -0.0162 -0.0735 -0.0054
 6230W        W10281   2.909   6.363  10.144  0.1053  0.1921  0.0741
 6231W        W10282   3.936   6.343   2.521 -0.3700  0.1222 -0.2406
 6232W        W10283   2.040   5.237  10.131 -0.0958 -0.3261 -0.1474
 6233W        W10284   6.043   0.274   3.610 -0.1724  0.2477  0.1238
 6234W        W10285   8.991   8.384  10.416 -0.4784 -0.1279  0.0734
 6235W        W10286   3.087   8.581   4.896 -0.3420 -0.2189  0.1159
 6236W        W10287   5.048  10.148   9.734 -0.1703 -0.1966 -0.0316
 6237W        W10288   3.517   1.282   5.659 -0.0405 -0.0932  0.3007
 6238W        W10289   4.645   4.381   9.799  0.2471  0.0327 -0.0661
 6239W        W10290   1.308   8.105   2.249 -0.1539  0.1715  0.2345
 6240W        W10291   5.951   1.265   2.131 -0.0692  0.2842  0.0950
 6241W        W10292   2.144   7.297  11.732 -0.0018  0.0124  0.0316
 6242W        W10293   7.354   3.582   3.698 -0.0013 -0.3581 -0.2546
 6243W        W10294   5.516   7.422   9.247  0.0544  0.1756 -0.0966
 6244W        W10295   5.995   8.574   0.762 -0.2259 -0.0649  0.0286
 6245W        W10296   9.403   9.806   0.454  0.0716  0.0309 -0.0898
 6246W        W10297   2.260   5.554   9.298 -0.1458  0.0730  0.0202
 6247W        W10298   8.652   8.527  11.240  0.1997 -0.1165  0.0551
 6248W        W10299   0.114   2.012   3.011 -0.1312  0.3065  0.0264
 6249W        W10300   4.555   2.673   0.960  0.1671 -0.0574 -0.1897
 6250W        W10301   4.262   3.068   1.094  0.0605  0.0187  0.0473
 6251W        W10302   1.960   9.328  11.769  0.1584 -0.1792 -0.3509
 6252W        W10303   1.781   1.161  11.844 -0.0998 -0.2171 -0.1402
 6253W        W10304   2.515   4.672   3.024  0.1239 -0.1328  0.1596
 6254W        W10305   1.774  10.370   1.785 -0.1046 -0.2518 -0.1223
 6255W        W10306   3.161   1.774  11.175 -0.1477 -0.1993  0.4200
 6256W        W10307   0.497   6.680  12.051 -0.0162 -0.0047 -0.1101
 6257W        W10308   7.876   3.647  11.212 -0.2798  0.0085 -0.0103
 6258W        W10309   9.728   8.227  13.030  0.1854 -0.3326 -0.4601
 6259W        W10310   8.289   5.088  12.678 -0.2378 -0.1657 -0.3184
 6260W        W10311   6.764   1.814  11.638 -0.2597  0.1725 -0.1825
 6261W        W10312   5.719   8.233  11.546  0.3399 -0.0675  0.1064
 6262W        W10313   0.285   2.276   2.520 -0.0046  0.0629 -0.0477
 6263W        W10314   5.833   7.331   1.652 -0.0079  0.3237  0.1623
 6264W        W10315   5.096   9.931   2.039 -0.3852 -0.0144  0.3197
 6265W        W10316   6.967   9.204   1.411 -0.2826 -0.0075 -0.0779
 6266W        W10317   5.687   3.242   0.844  0.1699  0.2431 -0.0590
 6267W        W10318   3.118  10.157   8.710 -0.0387 -0.1716  0.1157
 6268W        W10319   7.482   5.914   4.034  0.2676  0.0598 -0.2332
 6269W        W10320   1.904   6.383   9.866  0.0006  0.3070  0.0984
 6270W        W10321  10.130   4.930   1.395  0.4538 -0.3944 -0.0095
 6271W        W10322   6.912   3.407  10.892 -0.2963  0.0042  0.1241
 6272W        W10323  10.279   2.323  12.955 -0.0039  0.3424 -0.1186
 6273W        W10324   4.651   3.276   1.266  0.0154  0.3721 -0.0521
 6274W        W10325   7.375   6.780   0.713  0.1020 -0.5258 -0.2493
 6275W        W10326   3.279   9.525   9.812  0.0273  0.3495  0.2796
 6276W        W10327   9.149   3.193   9.789  0.1347 -0.2501 -0.1280
 6277W        W10328   6.710   4.845   4.140 -0.2282  0.1690 -0.0518
 6278W        W10329   6.099   8.079   3.965 -0.1854  0.0286  0.0056
 6279W        W10330   4.827   6.884  12.381  0.2295 -0.0544 -0.2358
 6280W        W10331   2.891   1.974   3.771  0.0257 -0.2597 -0.1555
 6281W        W10332   7.706   5.901   9.349  0.2108  0.3308  0.0906
 6282W        W10333  10.153   9.146  12.623 -0.0014  0.0100 -0.0245
 6283W        W10334   6.326   5.034   4.495  0.2410  0.1192 -0.0018
 6284W        W10335   1.406   0.476   2.721 -0.0648 -0.0917  0.1709
 6285W        W10336   4.449   2.096   0.016 -0.1796 -0.2202 -0.1726
 6286W        W10337   5.277   0.708   3.291  0.0202 -0.0102  0.2959
 6287W        W10338   2.783   7.834   3.484 -0.1042  0.0784 -0.0464
 6288W        W10339   5.919  10.341   4.074  0.0855 -0.0710 -0.2443
 6289W        W10340   1.497   3.294   4.478  0.1103  0.0561 -0.0325
 6290W        W10341   4.878   0.192   2.023  0.1169 -0.2567  0.1461
 6291W        W10342   0.280   4.918  12.260 -0.1940 -0.1454 -0.0652
 6292W        W10343   5.557   1.710  12.229 -0.3069 -0.1425  0.1429
 6293W        W10344   7.096   4.425   9.786  0.0901  0.3048  0.2246
 6294W        W10345   4.609   8.686   1.888  0.0033  0.3660  0.3530
 6295W        W10346   9.331   7.005   1.870  0.0162  0.3766 -0.2954
 6296W        W10347   9.114   1.836  11.924 -0.0017  0.2497  0.0975
 6297W        W10348   3.173   5.595  13.083 -0.5276 -0.1957 -0.0558
 6298W        W10349   9.404   0.493   4.457  0.2779  0.1330  0.1910
 6299W        W10350   9.612  10.275  12.595 -0.0971 -0.1055  0.2270
 6300W        W10351   9.049   7.740   2.838  0.1177 -0.2350 -0.0412
 6301W        W10352   8.268   3.783   5.278  0.1304 -0.0296 -0.3622
 6302W        W10353   4.590   7.130   9.581 -0.2527  0.0326 -0.1835
 6303W        W10354   7.513   8.460   4.974  0.1257  0.2099 -0.3147
 6304W        W10355   1.999   2.116   2.867 -0.3018 -0.1011 -0.5508
 6305W        W10356   5.683   5.908  11.800  0.0222 -0.0845 -0.4825
 6306W        W10357   0.647   2.617   9.990  0.0373 -0.1255 -0.0330
 6307W        W10358   0.785   8.148   0.021  0.2129  0.0669 -0.1345
 6308W        W10359   8.279   2.046   3.678 -0.0139  0.0370 -0.3458
 6309W        W10360   7.021   3.481   1.863 -0.0100  0.0522  0.3128
 6310W        W10361   0.271   4.592  10.990 -0.0072 -0.4233 -0.1760
 6311W        W10362   2.974   9.107  10.643 -0.2113  0.4623  0.2312
 6312W        W10363   6.681   5.157   0.377  0.0985 -0.1332  0.0529
 6313W        W10364   3.691   6.463  11.769 -0.1298 -0.1764  0.4049
 6314W        W10365   5.127   5.100  12.821 -0.0590 -0.1481  0.2780
 6315W        W10366   0.926   4.536  12.942 -0.2128 -0.1822  0.0563
 6316W        W10367   3.040   2.685   0.332  0.2076  0.3030  0.4387
 6317W        W10368   3.882   8.297   9.301 -0.2664 -0.0320  0.2710
 6318W        W10369   7.973   3.064  12.235 -0.0151  0.1693  0.2107
 6319W        W10370   0.843   9.644   9.153  0.0871 -0.0449  0.1657
 6320W        W10371   6.365   0.260  10.750  0.1467  0.0423  0.4300
 6321W        W10372   7.839   1.398  10.427  0.1345  0.0193 -0.0529
 6322W        W10373   3.770   5.152  11.249 -0.1469  0.0254 -0.0466
 6323W        W10374   3.280   6.122   3.111  0.2289 -0.0363  0.2585
 6324W        W10375   1.393   8.919   0.244 -0.2026 -0.2889  0.0394
 6325W        W10376   3.539   1.605  12.311 -0.2718  0.0079  0.3273
 6326W        W10377   3.423   2.228   0.252 -0.1342 -0.0055  0.0960
 6327W        W10378   6.985   1.413  11.392  0.1777  0.2893 -0.3300
 6328W        W10379   4.535   5.754   1.388 -0.1468 -0.1493  0.1214
 6329W        W10380   1.112   8.910   1.647  0.0178 -0.0621 -0.2273
 6330W        W10381   2.200   3.017   2.767 -0.0352 -0.1498  0.0484
 6331W        W10382   1.913   9.080   3.662  0.2657  0.2388 -0.0184
 6332W        W10383   0.427   2.192  10.843 -0.1960 -0.0747  0.0891
 6333W        W10384   0.285   9.975   0.137  0.1289  0.0015  0.0334
 6334W        W10385   6.765   0.697   2.690 -0.1676  0.0716 -0.3518
 6335W        W10386   9.424   3.225   4.170  0.4873  0.3666 -0.2124
 6336W        W10387   3.072   7.598  10.512 -0.0653 -0.0279  0.2855
 6337W        W10388   8.841   1.660   0.066  0.3270 -0.1018  0.1389
 6338W        W10389   6.812   6.220   4.725 -0.1294 -0.3274  0.2422
 6339W        W10390   9.433   7.606   3.720  0.0288 -0.0059 -0.1740
 6340W        W10391   8.842   8.516   2.548  0.1343 -0.2291  0.2000
 6341W        W10392   3.616   8.480   0.063 -0.4033  0.0863  0.1451
 6342W        W10393   7.482   1.751   1.861  0.0920  0.2755  0.0115
 6343W        W10394   9.499   0.430  12.517 -0.0027 -0.4434 -0.1617
 6344W        W10395   6.014   8.268  12.394  0.0111 -0.1159  0.0683
 6345W        W10396   0.614   4.804   2.374 -0.1505 -0.0285 -0.1170
 6346W        W10397   7.222   1.885  11.446  0.1365  0.2642  0.1144
 6347W        W10398   0.442   7.934   3.503  0.2547 -0.1409  0.1842
 6348W        W10399   8.656   9.910   4.730 -0.1738  0.1187  0.2785
 6349W        W10400   0.825   2.484   1.757 -0.3975  0.2247  0.0768
 6350W        W10401   1.366   3.904   3.554 -0.1804 -0.0727 -0.1131
 6351W        W10402   9.095   4.538   9.416  0.2478  0.4573  0.5259
 6352W        W10403   5.303   7.210  12.364 -0.0123 -0.1310 -0.0225
 6353W        W10404   2.125   9.229   2.115  0.1390  0.0773  0.2349
 6354W        W10405   7.249   2.993   9.851 -0.0264 -0.1629  0.0211
 6355W        W10406   9.123   1.830   9.462 -0.1498  0.1704  0.1349
 6356W        W10407   0.589   4.156   3.044  0.0759  0.0827 -0.0938
 6357W        W10408   1.460   9.224  11.666  0.2746 -0.2619 -0.2223
 6358W        W10409   8.172   0.661   4.390  0.2313 -0.2063  0.1698
 6359W        W10410   0.710   9.999   3.553 -0.0549 -0.0882  0.3450
 6360W        W10411   0.024   5.362   1.115  0.1411 -0.0678  0.0500
 6361W        W10412   3.452   5.607   0.119  0.2515  0.0446 -0.0266
 6362W        W10413   4.689  10.229   4.477  0.0120  0.1458 -0.1212
 6363W        W10414   2.849   9.047  13.075 -0.0610 -0.0306 -0.5085
 6364W        W10415   1.467   7.465  13.089 -0.1557 -0.0351 -0.0418
 6365W        W10416   6.097   6.608  12.873  0.1424 -0.0677 -0.2076
 6366W        W10417   6.033   0.836  12.115  0.1661  0.2238 -0.0666
 6367W        W10418   7.045   4.258   2.274 -0.0476  0.0141  0.1448
 6368W        W10419   3.245   7.420  11.593 -0.1707  0.3436 -0.0044
 6369W        W10420   5.018   1.579   2.096 -0.0776 -0.2110 -0.0754
 6370W        W10421   4.850   3.175   0.828  0.1047  0.1492  0.2030
 6371W        W10422   0.581   0.313   1.281 -0.0112  0.3856 -0.0905
 6372W        W10423   4.509   7.640   2.746  0.0358  0.0762  0.1510
 6373W        W10424   7.208   5.044   2.983 -0.0893  0.2185  0.0544
 6374W        W10425   5.706   0.540   1.600 -0.0524  0.0318 -0.3351
 6375W        W10426   7.098   8.501  11.123 -0.1184 -0.1516  0.2464
 6376W        W10427   1.641   9.033   4.045 -0.2757 -0.2748 -0.0724
 6377W        W10428   8.103   1.103  11.291  0.0227 -0.1117 -0.0743
 6378W        W10429   5.463   5.462   0.203  0.0075 -0.0063 -0.0431
 6379W        W10430   3.422   9.484   0.924  0.1554  0.0011 -0.1476
 6380W        W10431   2.096   8.349   0.754  0.0739  0.1383 -0.0784
 6381W        W10432   5.076   9.045   2.899 -0.1146 -0.2430 -0.1969
 6382W        W10433   3.473   5.396   0.602 -0.1352 -0.0317  0.1154
 6383W        W10434   3.222   7.510  11.008  0.0847 -0.1174  0.0288
 6384W        W10435   2.427   0.240   0.985 -0.0268 -0.0660 -0.1349
 6385W        W10436   1.508   9.025   2.429  0.0232  0.0980  0.1822
 6386W        W10437   2.504   2.555  10.856  0.0087 -0.2557 -0.1719
 6387W        W10438   9.445   6.413  11.652  0.4198  0.0641 -0.2308
 6388W        W10439   8.198   6.050  11.284 -0.0635 -0.0314 -0.2179
 6389W        W10440   8.084   7.944   5.641  0.0712 -0.5477 -0.3820
 6390W        W10441   2.903   3.163   0.627  0.1150  0.2213 -0.1230
 6391W        W10442   7.612   1.301   1.952 -0.0957 -0.4303  0.1182
 6392W        W10443   4.532   2.042  11.065  0.0317 -0.0753 -0.0232
 6393W        W10444   5.028   9.601  10.772  0.1004 -0.0097  0.0356
 6394W        W10445   1.945   8.374   9.401 -0.1998 -0.1822 -0.0826
 6395W        W10446   7.829   4.541  10.994 -0.0284 -0.1243  0.1998
 6396W        W10447   1.349   5.359  11.296  0.3166  0.0947 -0.2653
 6397W        W10448   4.509   4.548  10.244 -0.0081 -0.2832  0.2073
 6398W        W10449   2.814   4.293   2.946  0.4233 -0.0117 -0.1952
 6399W        W10450   6.475   7.655  13.162  0.0893  0.2235  0.2338
 6400W        W10451   0.174  10.023  12.374  0.0036  0.1574  0.2347
 6401W        W10452   1.370   8.172  10.265 -0.2654 -0.0047 -0.1437
 6402W        W10453   0.985   5.285   0.690 -0.0838 -0.0983  0.0125
 6403W        W10454   8.403   8.719   0.415  0.3317 -0.0680  0.1858
 6404W        W10455   9.160   3.614   1.303  0.1781 -0.0447 -0.0271
 6405W        W10456   9.041  10.134   3.979 -0.2959  0.2650  0.0070
 6406W        W10457   6.581   5.217   2.070 -0.1310 -0.2013 -0.3334
 6407W        W10458   2.392   4.017   2.781 -0.3793 -0.1421  0.1204
 6408W        W10459   9.133   9.107  12.398  0.0312  0.1941  0.5869
 6409W        W10460   8.107  10.176   3.363 -0.0513  0.1009  0.1687
 6410W        W10461   4.940   7.932   4.125 -0.0844 -0.1212 -0.0454
 6411W        W10462   2.300   5.764  10.894 -0.3992  0.1872 -0.0863
 6412W        W10463   9.051   1.577  12.816  0.1278  0.4079 -0.2321
 6413W        W10464   0.081   3.394   9.571 -0.0249 -0.0758 -0.1606
 6414W        W10465   4.328   3.825   0.191  0.1809 -0.0707 -0.2177
 6415W        W10466   4.506   9.170  12.557  0.3150  0.0931 -0.1078
 6416W        W10467   4.116   1.580   1.662  0.1096 -0.0375  0.0845
 6417W        W10468   1.295   6.327  10.800  0.1829 -0.1848 -0.2413
 6418W        W10469   7.462   5.635  12.519  0.1441  0.1383  0.3335
 6419W        W10470   8.145   3.630   4.192 -0.3050 -0.0646  0.0145
 6420W        W10471   1.880  10.373   3.060  0.1521  0.0351 -0.1073
 6421W        W10472   2.283   5.599   9.869  0.0037  0.5922  0.0306
 6422W        W10473  10.033   1.914   9.256 -0.1985 -0.3660  0.0048
 6423W        W10474   4.478   2.374   1.752  0.2618 -0.1591 -0.1104
 6424W        W10475   4.130  10.295   2.186 -0.0733 -0.1443 -0.2122
 6425W        W10476   4.040   2.507   9.882  0.0524 -0.0735  0.1619
 6426W        W10477   3.974   3.789   3.121 -0.0748  0.1752  0.1923
 6427W        W10478   7.074   8.184  12.002  0.2313  0.1339  0.3207
 6428W        W10479   9.952   1.426   0.193 -0.2110  0.1516  0.3780
 6429W        W10480   3.277   9.190   4.081  0.2992  0.1091 -0.0177
 6430W        W10481   6.136   4.923   2.911 -0.0621  0.1442 -0.3325
 6431W        W10482   5.121   0.986   0.271  0.3141  0.1752  0.2160
 6432W        W10483   3.637   9.800   1.685  0.0828  0.2255 -0.0686
 6433W        W10484   7.270   1.148   4.034 -0.0738  0.2244 -0.0512
 6434W        W10485   7.784   8.803   1.371 -0.0550 -0.1063  0.1700
 6435W        W10486   9.809   2.492   2.792  0.3774  0.1038  0.0922
 6436W        W10487   9.423   9.624   3.316 -0.2633 -0.0212  0.0376
 6437W        W10488   8.361   7.301   2.173 -0.0525  0.0163  0.2783
 6438W        W10489   2.329   8.936  11.042  0.0204 -0.1474  0.1443
 6439W        W10490   5.873   9.524   9.743 -0.1288 -0.0009  0.1062
 6440W        W10491   7.378   6.944   1.707  0.1277 -0.0606  0.1559
 6441W        W10492   5.880   1.822   4.287 -0.1173  0.1735 -0.0287
 6442W        W10493   5.984   8.788  12.352 -0.1012 -0.2893  0.0858
 6443W        W10494   7.323   3.491   9.882 -0.0990 -0.1556  0.2054
 6444W        W10495   2.739   3.361   9.605  0.2876  0.0250 -0.0193
 6445W        W10496   6.396   6.551   4.164  0.3060 -0.0826  0.0737
 6446W        W10497   8.765   9.358   0.543  0.1690  0.1881  0.0058
 6447W        W10498   7.584   8.522  11.838 -0.0523 -0.1959  0.0004
 6448W        W10499   6.606   1.409   2.056 -0.0120 -0.0606  0.1171
 6449W        W10500   6.289   6.853   0.283 -0.2613  0.0290 -0.2305
 6450W        W10501   6.303   3.020   2.231  0.0626 -0.2150 -0.1249
 6451W        W10502   6.794   7.148   0.137  0.0021  0.2517  0.2218
 6452W        W10503   0.351   8.221   1.617 -0.0373 -0.2459 -0.1809
 6453W        W10504   2.792   0.212  11.176 -0.0619 -0.1402  0.0387
 6454W        W10505   6.861   0.341   4.039  0.0362 -0.0046 -0.0991
 6455W        W10506   5.980   2.576  13.142 -0.2167 -0.2257  0.1514
 6456W        W10507   3.075   8.626   1.946  0.0682 -0.1173  0.0525
 6457W        W10508   5.634   8.130  13.331 -0.2517  0.1307  0.0382
 6458W        W10509   5.802   8.107  11.055  0.1396  0.2122 -0.0670
 6459W        W10510   5.132  10.322   2.447  0.1031  0.1011 -0.0391
 6460W        W10511   4.179   7.346   3.136 -0.2818 -0.1902  0.0644
 6461W        W10512  10.271   5.203   3.618  0.0513  0.0385  0.3616
 6462W        W10513   3.092   5.684  11.232 -0.0332 -0.2455 -0.4737
 6463W        W10514   8.519   3.894  11.248  0.0157  0.0385  0.0536
 6464W        W10515   7.129   8.232  13.341  0.0219 -0.1034  0.2506
 6465W        W10516   9.931  10.412  10.036 -0.0222 -0.3111 -0.1353
 6466W        W10517   6.166   1.293  11.938  0.1456  0.0010 -0.3565
 6467W        W10518   8.542   2.753  12.176  0.3513  0.0006  0.2404
 6468W        W10519   2.199   0.666  11.333 -0.0949  0.5104 -0.0508
 6469W        W10520   1.713  10.363   0.052  0.1358  0.0570 -0.2165
 6470W        W10521   5.498   4.108  11.019 -0.0111  0.2175  0.3878
 6471W        W10522   3.381   9.800  10.222  0.1108  0.2729  0.4725
 6472W        W10523   7.288   8.227  11.509 -0.0158  0.0871 -0.1873
 6473W        W10524   9.471   2.559   9.089  0.2727 -0.1053  0.1524
 6474W        W10525   3.974   5.936   2.238 -0.0017 -0.0410  0.1281
 6475W        W10526   9.152   1.235   8.532 -0.1114 -0.1272 -0.0367
 6476W        W10527   0.201   4.268   2.683  0.0023 -0.0329  0.1603
 6477W        W10528   6.351   6.891   1.510 -0.1673 -0.0828  0.0353
 6478W        W10529   4.863   5.264   4.018  0.1134 -0.0247 -0.0190
 6479W        W10530   8.812   8.259   4.292 -0.1569 -0.0190 -0.2517
 6480W        W10531   2.391   3.296   3.256 -0.4095 -0.3353 -0.1581
 6481W        W10532   6.833   6.762   0.966 -0.2616  0.0732 -0.0367
 6482W        W10533   7.310   3.186   4.758  0.0914  0.1475 -0.4844
 6483W        W10534   7.449   9.331   9.142 -0.0302 -0.1031 -0.1179
 6484W        W10535  10.220   7.327  12.046  0.4713  0.4353  0.4628
 6485W        W10536   9.784   4.323   0.891  0.0859 -0.0299  0.0929
 6486W        W10537   6.198   6.702   3.741 -0.3800  0.1045 -0.0577
 6487W        W10538   7.219   7.726   0.888  0.3795 -0.1920  0.1362
 6488W        W10539   9.058   6.066   4.382  0.0223  0.0333  0.2559
 6489W        W10540   2.888   1.873  10.277  0.0690 -0.1979  0.0723
 6490W        W10541  10.309   6.285   2.607  0.0142 -0.0555 -0.1328
 6491W        W10542   7.173   0.983   1.411  0.1095  0.2213 -0.0030
 6492W        W10543   1.737   2.708   1.442  0.1468  0.0459 -0.1616
 6493W        W10544   4.920   8.549  11.034 -0.1124  0.2501  0.2490
 6494W        W10545   9.742   6.567  12.108 -0.2783  0.2165 -0.0155
 6495W        W10546   5.636   3.509   9.408 -0.0527 -0.3681 -0.0813
 6496W        W10547   7.802   0.631  13.247  0.1352 -0.0565 -0.1155
 6497W        W10548   8.679   1.731   2.557  0.0308  0.2604  0.0066
 6498W        W10549   4.511   3.255   8.744  0.1439 -0.1130 -0.0916
 6499W        W10550   7.611   5.165   4.684  0.2190  0.2758 -0.1055
 6500W        W10551   6.235   5.833  12.083  0.0801 -0.0234  0.1858
 6501W        W10552   7.219   8.960   1.780  0.0143 -0.2984 -0.1530
 6502W        W10553   0.994  10.341   3.890  0.2251 -0.0438 -0.1259
 6503W        W10554   5.989   1.975  11.300 -0.0492  0.0322 -0.0043
 6504W        W10555   6.944   6.248   9.990 -0.1002  0.0555 -0.4154
 6505W        W10556   6.605   9.636  11.466  0.0747 -0.0571  0.0958
 6506W        W10557   6.020   0.676   0.304 -0.3332  0.1106  0.0872
 6507W        W10558   3.547   8.864   3.214  0.0850 -0.0762  0.0680
 6508W        W10559   3.756   0.336   1.132 -0.1895  0.0996 -0.0733
 6509W        W10560   1.804   8.714   2.740  0.2938  0.0222 -0.0020
 6510W        W10561   6.729   0.425  12.620  0.0946 -0.2497 -0.0254
 6511W        W10562   7.322   0.238   5.332  0.0494 -0.1912 -0.2192
 6512W        W10563   4.165   8.906  11.441 -0.2833 -0.1269 -0.1829
 6513W        W10564   5.165   3.438   1.211 -0.3524  0.0801  0.0510
 6514W        W10565   2.346   1.400   0.281  0.0502 -0.3217 -0.0387
 6515W        W10566   3.495   8.918   4.469  0.0493 -0.1720 -0.0671
 6516W        W10567   7.087   7.581  12.701  0.4500 -0.1123  0.2371
 6517W        W10568   4.750   9.282   2.073 -0.0635  0.1965 -0.0684
 6518W        W10569   2.738   4.133  11.648  0.2923 -0.2096  0.0020
 6519W        W10570   5.738   2.577   0.501  0.2046  0.4068  0.0145
 6520W        W10571  10.171   1.672   3.053  0.0424  0.1588  0.3079
 6521W        W10572   8.750   2.935   2.591 -0.2104 -0.0694  0.1234
 6522W        W10573   8.405   8.503   0.931 -0.1677  0.1567 -0.1314
 6523W        W10574   0.255   1.178  10.483  0.0028  0.0427  0.1255
 6524W        W10575   5.639   5.374   4.873 -0.0346  0.0683  0.2446
 6525W        W10576   8.747  10.379   9.845  0.0103  0.2374  0.0819
 6526W        W10577   0.886   6.978  12.966 -0.1960 -0.3113 -0.3709
 6527W        W10578   5.916   5.896   0.189  0.0135 -0.0480  0.2185
 6528W        W10579   3.154   8.668   4.093 -0.0728  0.2723  0.1822
 6529W        W10580   1.362   0.036  12.079  0.0181 -0.3789  0.1085
 6530W        W10581   5.159   1.129  11.183 -0.1706 -0.0435  0.1389
 6531W        W10582   5.705   9.579   3.604 -0.0011  0.2390  0.0579
 6532W        W10583   0.064   1.410   0.295 -0.1861  0.4021 -0.0364
 6533W        W10584   6.940   9.062  13.209 -0.0435  0.3334  0.2812
 6534W        W10585   4.697   4.388   2.697  0.1278  0.2147 -0.2523
 6535W        W10586   9.126   5.310   1.214  0.0082  0.0605  0.1090
 6536W        W10587   9.808   8.736  11.635  0.2279 -0.0438  0.0568
 6537W        W10588  10.241   1.220   1.138 -0.0274 -0.0322 -0.1598
 6538W        W10589   5.835   4.597  12.048  0.0359 -0.2358 -0.0457
 6539W        W10590   4.232   4.165  12.588 -0.2539  0.0528  0.2700
 6540W        W10591   7.898   2.379  11.162  0.2061 -0.0062 -0.4835
 6541W        W10592   2.114   6.060   2.536 -0.3537  0.1401 -0.1954
 6542W        W10593   3.118   6.789   9.932 -0.0376  0.4015  0.2924
 6543W        W10594   0.498   9.254  13.144  0.1021 -0.0023 -0.3561
 6544W        W10595   5.275   7.904  12.791  0.0657  0.1085  0.0085
 6545W        W10596   0.536   5.832  10.193 -0.3247  0.1262 -0.0999
 6546W        W10597   9.872   2.469  12.346  0.0119 -0.2772  0.2454
 6547W        W10598   5.257   3.883  10.230 -0.1981 -0.2963  0.0124
 6548W        W10599   9.579   5.754  10.913 -0.2069  0.0106 -0.0653
 6549W        W10600   8.427   9.430   2.440 -0.1093  0.0434 -0.1582
 6550W        W10601   9.106   8.602   8.999  0.2909  0.0576 -0.3189
 6551W        W10602   0.814  10.393  10.588 -0.1561  0.1946 -0.1082
 6552W        W10603   2.358   6.557   1.451 -0.0617 -0.1590  0.0450
 6553W        W10604   4.352   1.255  11.743 -0.0585 -0.2897  0.3627
 6554W        W10605   2.282   2.760   3.263  0.2169 -0.0691 -0.1511
 6555W        W10606   5.832   5.040   4.596 -0.2524  0.0372 -0.0951
 6556W        W10607   3.496   7.203   4.641 -0.3603  0.0866  0.0239
 6557W        W10608   1.948   0.384   2.089  0.2526  0.0387 -0.1153
 6558W        W10609   7.832   5.121   1.115 -0.1085  0.1824 -0.1245
 6559W        W10610   2.656   1.388  11.944  0.0007 -0.0988 -0.0661
 6560W        W10611  10.203   3.193   5.058 -0.1173 -0.2653  0.3035
 6561W        W10612  10.115   6.933  12.389 -0.1557  0.0633  0.1182
 6562W        W10613   5.267   2.247   4.116 -0.3059  0.0650 -0.0874
 6563W        W10614   7.681   7.886   3.358  0.1634  0.0813  0.2994
 6564W        W10615   3.887   6.654   2.179 -0.1446  0.0277 -0.0412
 6565W        W10616  10.324   1.838   4.827  0.1064  0.0010 -0.0952
 6566W        W10617   6.928   5.229  11.706  0.3389  0.0207  0.0939
 6567W        W10618   6.677   7.755   4.595 -0.2604  0.1028 -0.2476
 6568W        W10619   1.290   0.402  11.252  0.2010 -0.2004  0.2292
 6569W        W10620   4.658   2.219   5.014 -0.1249  0.2245  0.1867
 6570W        W10621   1.000   3.691   2.190 -0.3539 -0.3949  0.0423
 6571W        W10622   3.871   9.201  10.894 -0.2212  0.0408  0.1837
 6572W        W10623   2.967   9.817   1.072  0.0643  0.1249  0.0015
 6573W        W10624   1.618   8.870  12.513 -0.2104 -0.0152 -0.0264
 6574W        W10625   0.197   1.086   0.731 -0.0165  0.1316  0.0911
 6575W        W10626   2.874   1.609   9.891 -0.1601 -0.1128  0.0071
 6576W        W10627   2.665   9.893  10.662  0.0458 -0.3274  0.1052
 6577W        W10628   6.115   2.761   4.468  0.2660 -0.3172 -0.0266
 6578W        W10629  10.400   7.719   1.711 -0.0259  0.3769 -0.2320
 6579W        W10630   3.937   4.687   3.517  0.0687  0.1814  0.2181
 6580W        W10631   5.418   9.725   4.396 -0.0124  0.0928  0.0400
 6581W        W10632   5.617   5.794   9.824  0.0577 -0.2197 -0.0488
 6582W        W10633   2.804   4.262  12.638  0.0226 -0.4239  0.0431
 6583W        W10634   0.451   2.678   9.044  0.0151  0.1744 -0.2299
 6584W        W10635   1.288   5.735   1.025 -0.3552  0.2878 -0.0481
 6585W        W10636   7.784   1.727  13.147 -0.1664  0.1636  0.0371
 6586W        W10637   1.430   2.254  11.262  0.3453  0.0767  0.1647
 6587W        W10638   1.003   6.286  13.115 -0.4439 -0.0953  0.0303
 6588W        W10639   6.845  10.034   0.711  0.1121 -0.2882 -0.1250
 6589W        W10640   5.697   6.626   0.542 -0.4676 -0.0645 -0.3560
 6590W        W10641   8.938   8.249  12.070  0.0801 -0.0209 -0.0136
 6591W        W10642   8.672   6.861   1.352  0.1645 -0.1281  0.3703
 6592W        W10643   1.951   3.481  11.138 -0.0235 -0.1660  0.1530
 6593W        W10644   0.845   8.276  10.716  0.1963 -0.0966  0.1979
 6594W        W10645   2.780   3.979   1.896  0.4944  0.1405  0.2699
 6595W        W10646   1.289   3.499  13.017  0.2297 -0.1397  0.0649
 6596W        W10647   4.709   3.658  12.756  0.2443 -0.0601 -0.0191
 6597W        W10648  10.045   5.628   3.246  0.3510  0.1798  0.0544
 6598W        W10649   0.427   4.508  10.237  0.1739  0.0670  0.0296
 6599W        W10650   9.334   2.493   0.743  0.5104  0.0455  0.2171
 6600W        W10651   3.184   0.738   4.479  0.2114 -0.0298  0.0364
 6601W        W10652   3.711   9.071  10.214 -0.1404  0.0020 -0.0113
 6602W        W10653   6.514   6.002  10.231  0.0311 -0.1364 -0.1422
 6603W        W10654   1.778   5.497   2.092 -0.0077  0.1792 -0.1204
 6604W        W10655   8.190   6.310  10.470  0.1433  0.0203 -0.0192
 6605W        W10656  10.227   1.977   2.506 -0.1865 -0.2862 -0.1115
 6606W        W10657   4.080   5.562  10.908 -0.1724 -0.3124  0.1858
 6607W        W10658  10.176   3.800  11.669 -0.0626 -0.0851 -0.1523
 6608W        W10659   7.191  10.020  12.031  0.0025  0.0833  0.3252
 6609W        W10660   5.802   1.655   0.163  0.1476 -0.0425 -0.1586
 6610W        W10661   3.994   1.996   2.028  0.2392  0.0214 -0.0785
 6611W        W10662   0.257   1.231   5.207  0.1284  0.2349 -0.1999
 6612W        W10663   3.083   7.027  11.867 -0.5457 -0.1985  0.0239
 6613W        W10664   2.181   2.404   2.149 -0.2764 -0.2832  0.0685
 6614W        W10665   6.841   9.553   1.021 -0.3342 -0.2316 -0.1895
 6615W        W10666   4.705   0.147   9.966 -0.0767 -0.0863  0.1415
 6616W        W10667   5.122   1.666   3.335  0.2870  0.2795  0.1749
 6617W        W10668   7.805   9.638   3.111 -0.0342  0.3141  0.6158
 6618W        W10669   7.336   4.104  12.386 -0.0833 -0.0892  0.1321
 6619W        W10670   2.746   2.493   4.806  0.1042  0.2851  0.0524
 6620W        W10671   1.731   1.220   5.015 -0.1093  0.3762 -0.3191
 6621W        W10672   8.512   4.660   0.571  0.1660  0.2332  0.1917
 6622W        W10673   8.838   2.536  13.210  0.1839 -0.0369 -0.2703
 6623W        W10674   4.741   5.423  12.810  0.1092 -0.1515 -0.1443
 6624W        W10675   2.542   5.237  10.288  0.3553  0.1240 -0.0140
 6625W        W10676   1.067   3.059   2.678 -0.0987 -0.2452  0.1159
 6626W        W10677   1.803   0.926   9.501  0.0423 -0.2266  0.2959
 6627W        W10678   0.009   3.050  13.077 -0.1629 -0.1852  0.0427
 6628W        W10679   6.252   4.644   2.395 -0.2906  0.0153  0.0046
 6629W        W10680   1.810   6.701  13.194 -0.3020  0.1419 -0.0951
 6630W        W10681   8.004   4.562   0.635  0.3528  0.0114  0.0098
 6631W        W10682   5.029   9.853  12.146 -0.1017 -0.0900 -0.2090
 6632W        W10683   9.932   1.375   2.715 -0.0447  0.0802  0.0703
 6633W        W10684   1.226   7.193   1.124  0.1925 -0.1944  0.0299
 6634W        W10685   1.785   9.959   2.748  0.0247  0.1023  0.1676
 6635W        W10686   6.904   8.270  10.685 -0.1129  0.4651 -0.2295
 6636W        W10687   4.320   2.861   6.209 -0.1650 -0.2632 -0.2861
 6637W        W10688   0.612   2.865  11.552  0.2564  0.1345 -0.1846
 6638W        W10689   7.636   2.750  10.852 -0.0987 -0.1336 -0.2118
 6639W        W10690   0.818   7.380   9.219  0.0355 -0.0875  0.3956
 6640W        W10691   9.759   7.059   0.510 -0.2849  0.1007 -0.0799
 6641W        W10692   2.862   7.906   1.887 -0.1243  0.0739 -0.2342
 6642W        W10693   2.280   8.104  10.192  0.0678  0.1468 -0.0078
 6643W        W10694   1.438   5.190   9.438 -0.0954 -0.0315  0.4357
 6644W        W10695   5.724   3.220  10.015 -0.3146  0.0017  0.0165
 6645W        W10696   7.916   9.174  13.015  0.1440  0.1779 -0.0241
 6646W        W10697   5.268   6.253   4.592 -0.0711  0.0681 -0.0802
 6647W        W10698   0.308   5.782   0.030  0.0804  0.2813 -0.4082
 6648W        W10699   9.861   1.750  10.253 -0.0183  0.0123  0.2147
 6649W        W10700   6.569   8.770  11.778 -0.0441 -0.3070  0.4289
 6650W        W10701   6.628   3.442   8.623 -0.0152 -0.2209  0.1491
 6651W        W10702   4.848   2.318   3.814  0.1214  0.2780 -0.2683
 6652W        W10703   4.006   9.972   9.747  0.0571 -0.2275  0.0560
 6653W        W10704   9.416   9.996  11.448  0.0271  0.1981  0.3443
 6654W        W10705  10.091   7.267   1.104  0.1045  0.1481  0.0250
 6655W        W10706   1.638   3.193   9.839 -0.0122  0.1725 -0.0680
 6656W        W10707   5.865   0.294   0.085  0.1092  0.2755  0.0195
 6657W        W10708   0.615   5.689  11.180  0.1069  0.2075  0.0519
 6658W        W10709   9.188   3.983  12.732 -0.1814 -0.0870  0.0349
 6659W        W10710   6.070   7.920   9.536  0.1043  0.2478 -0.0953
 6660W        W10711   9.296   4.308   0.140 -0.0243  0.0049  0.2759
 6661W        W10712   8.034   3.303   2.197 -0.2566 -0.0942 -0.0200
 6662W        W10713   9.068   4.691   4.063 -0.0050  0.3057 -0.3142
 6663W        W10714   4.205   7.931   2.957  0.3584 -0.3022 -0.0884
 6664W        W10715   0.838   8.100   1.995 -0.2658  0.0212  0.1467
 6665W        W10716   2.358   4.472  12.418 -0.2568  0.1593  0.0286
 6666W        W10717   3.932   8.819   2.701  0.2246  0.1015  0.0070
 6667W        W10718   5.367   0.856  10.763  0.0880  0.2576 -0.0938
 6668W        W10719  10.203   8.283   9.695  0.0949 -0.1580 -0.1460
 6669W        W10720   8.865  10.235   4.457  0.1925 -0.2170 -0.0014
 6670W        W10721   5.310   6.122  11.532  0.0531 -0.3146 -0.2221
 6671W        W10722   4.759   7.404   9.973 -0.2043 -0.3134 -0.3253
 6672W        W10723   4.649   2.634  12.737  0.2333  0.1122 -0.0128
 6673W        W10724   1.421   4.471   3.180  0.0456  0.5976  0.0326
 6674W        W10725   8.426  10.096  10.252 -0.2363  0.3090 -0.0977
 6675W        W10726   5.476   2.940  10.432  0.0648  0.2068  0.1412
 6676W        W10727   1.424   0.665   1.844 -0.0484  0.0746  0.0442
 6677W        W10728   6.963   2.749   9.407 -0.0777  0.0481 -0.4160
 6678W        W10729   1.053   1.910   3.445 -0.1287  0.0557  0.1568
 6679W        W10730   2.200   1.359  11.702 -0.0073 -0.2166 -0.1156
 6680W        W10731  10.291   8.978   1.918  0.0997 -0.0426  0.0897
 6681W        W10732   5.098   4.280   0.494  0.1486 -0.1368 -0.1713
 6682W        W10733   1.500   8.149   1.397 -0.4357 -0.1117 -0.1423
 6683W        W10734   1.665   2.923   9.407 -0.3132 -0.1048  0.0078
 6684W        W10735   6.201   4.105  12.471  0.1752  0.0851 -0.3035
 6685W        W10736   4.488   3.016   2.737 -0.1340  0.0688 -0.3943
 6686W        W10737   1.635   9.491   0.537  0.0767 -0.1439 -0.2529
 6687W        W10738   4.288   4.938   4.560  0.0583 -0.1422 -0.1496
 6688W        W10739   6.926   1.949  12.059  0.0074 -0.4146 -0.2585
 6689W        W10740  10.324   7.821   9.559 -0.0183 -0.1247 -0.0321
 6690W        W10741   9.410   4.595  10.721  0.4655  0.0971  0.1976
 6691W        W10742  10.212   3.983   4.172  0.1239 -0.1704  0.0356
 6692W        W10743   2.240  10.335   2.036 -0.1640 -0.0266 -0.0120
 6693W        W10744   5.935   7.786  10.592  0.0774  0.4412  0.2011
 6694W        W10745   3.391   9.716  13.020 -0.0458  0.0019 -0.1506
 6695W        W10746   9.108   4.184   8.935  0.2184 -0.3607 -0.3267
 6696W        W10747   2.715   8.438  10.063  0.1769 -0.0030  0.0277
 6697W        W10748   1.605   4.262   9.719 -0.3613  0.1978 -0.0284
 6698W        W10749   5.234   2.075   2.873 -0.2268 -0.4064  0.0800
 6699W        W10750   6.410   3.289   9.519 -0.2443  0.2399  0.0209
 6700W        W10751   7.223  10.001   2.406  0.0392  0.1863 -0.0640
 6701W        W10752   7.158   9.168  12.742 -0.3914  0.0261  0.3215
 6702W        W10753   4.459   2.517   2.636  0.1033 -0.3140 -0.0336
 6703W        W10754   9.941   1.916  12.868  0.1520 -0.1900  0.2339
 6704W        W10755   0.406   6.822   2.118 -0.1350  0.3347  0.3468
 6705W        W10756   2.254   7.657  10.431 -0.0933 -0.2331  0.1203
 6706W        W10757   2.652   9.585   1.421  0.0097 -0.0524 -0.2391
 6707W        W10758   4.519   6.268   2.589 -0.0184 -0.0850  0.1751
 6708W        W10759   4.344   6.593   3.452  0.0806 -0.0819 -0.1454
 6709W        W10760   8.928   9.199  13.052  0.2979 -0.3272 -0.0961
 6710W        W10761   3.057   0.642   8.461  0.0969 -0.7462 -0.0595
 6711W        W10762   1.592  10.018   3.908 -0.1703 -0.3114  0.2318
 6712W        W10763   0.856   9.659  11.886  0.1642 -0.0489  0.3496
 6713W        W10764   5.183   6.830  10.621  0.3791  0.1922 -0.2025
 6714W        W10765   9.685   9.840  13.355 -0.1550  0.0552 -0.0105
 6715W        W10766   6.042   7.777  12.373 -0.2228 -0.0857 -0.1928
 6716W        W10767   2.732   7.207   4.118  0.4126  0.0741  0.2087
 6717W        W10768   4.753   7.904   9.257 -0.2593 -0.4276 -0.2066
 6718W        W10769   8.936   0.920   9.629  0.1670  0.1318 -0.0482
 6719W        W10770   5.541  10.347  12.828  0.0157  0.0997  0.2813
 6720W        W10771   8.268   9.110   9.728 -0.0352 -0.2547  0.3188
 6721W        W10772   7.415   4.641  12.433  0.0478  0.0069  0.0998
 6722W        W10773   3.837   1.963   4.774  0.0409  0.0197  0.2089
 6723W        W10774   3.289   0.229  12.666 -0.1368  0.3493 -0.2087
 6724W        W10775   0.585   8.423   3.896  0.0097  0.3822 -0.0803
 6725W        W10776   7.265   9.192  11.750 -0.1383 -0.0033  0.0237
 6726W        W10777  10.274   3.482   3.743  0.1677  0.1814 -0.0047
 6727W        W10778   0.471   2.755  10.485  0.1347 -0.0396  0.2589
 6728W        W10779   9.422   3.086  12.404  0.0789  0.0640  0.1958
 6729W        W10780   7.519   1.211  13.117 -0.3088  0.0516 -0.0205
 6730W        W10781   2.382   7.192  11.097 -0.1527  0.0192 -0.0143
 6731W        W10782   2.347   1.184   2.093  0.2688  0.0721 -0.2195
 6732W        W10783   5.404   7.832  11.299  0.0588  0.0883  0.0475
 6733W        W10784  10.039   6.007   2.201  0.0818  0.0738  0.1296
 6734W        W10785   9.608   7.364  12.787  0.0107 -0.4112  0.2025
 6735W        W10786   3.004   6.811   2.095 -0.0598 -0.2486 -0.2429
 6736W        W10787   7.869   0.997   9.495 -0.1976  0.2271  0.0249
 6737W        W10788   7.435   9.052   2.215 -0.0968  0.4284 -0.2405
 6738W        W10789   1.369   6.229   0.966 -0.0630  0.0320 -0.2428
 6739W        W10790   1.674   3.926  12.872  0.2067 -0.3589 -0.0266
 6740W        W10791   6.167   2.425   9.946 -0.0147  0.2594 -0.1729
 6741W        W10792   7.034   3.224  12.777  0.3665 -0.0629  0.0690
 6742W        W10793   4.552   1.289   0.677  0.1511 -0.0765 -0.1854
 6743W        W10794   1.914   1.449   0.747  0.0633 -0.2085 -0.1202
 6744W        W10795   8.246   7.336   1.699 -0.2278 -0.1495 -0.0157
 6745W        W10796   4.937   8.777   3.769 -0.0420  0.1857  0.3732
 6746W        W10797   1.010   5.679  13.072 -0.0290 -0.1056  0.2625
 6747W        W10798   4.608   2.615  11.744  0.1059  0.3806  0.1374
 6748W        W10799   7.007   2.572  10.254  0.2401  0.0759 -0.0790
 6749W        W10800   1.309   5.905   0.141  0.2124  0.1455 -0.1771
 6750W        W10801   7.939   2.707   0.491 -0.1199  0.2288  0.0417
 6751W        W10802   0.026   7.889  13.006 -0.1608  0.0227  0.1286
 6752W        W10803   3.116   3.861  11.510 -0.2008  0.0650 -0.1502
 6753W        W10804   7.186   0.341   2.812 -0.1761 -0.1991 -0.0338
 6754W        W10805   4.263   2.461  13.087 -0.1348 -0.0892  0.0241
 6755W        W10806   4.036   2.952  11.347  0.3421 -0.0837 -0.3254
 6756W        W10807   5.734   2.257  10.355 -0.0848  0.0402 -0.2973
 6757W        W10808   6.273   9.845   1.439  0.1482  0.3391 -0.0808
 6758W        W10809   3.026   4.989  10.095  0.0790 -0.0311 -0.0126
 6759W        W10810   3.518   9.525   0.276  0.0198  0.0048  0.2798
 6760W        W10811   2.585   9.877   0.386  0.0894 -0.2577  0.2259
 6761W        W10812   9.728   1.176   1.036  0.0654  0.0546 -0.2414
 6762W        W10813   7.035   8.160  10.058  0.1489 -0.0022 -0.0435
 6763W        W10814   1.510   5.542   3.038  0.0920  0.0215  0.2314
 6764W        W10815   0.485   1.254   9.905 -0.2862  0.0141 -0.1172
 6765W        W10816   1.421   6.991  12.979 -0.0661 -0.0635  0.1861
 6766W        W10817   1.732   0.982   4.479  0.3269  0.1814  0.1863
 6767W        W10818   8.926   7.398   9.520 -0.1632 -0.0599 -0.2494
 6768W        W10819   7.933   4.610  11.927  0.0599  0.0818 -0.0966
 6769W        W10820   8.689   8.012  10.473  0.0785 -0.0782 -0.1584
 6770W        W10821   6.231   5.415  10.748 -0.1591  0.0683  0.1555
 6771W        W10822   1.167   8.681   2.581 -0.1509 -0.1927 -0.2747
 6772W        W10823   7.829   5.431   2.607 -0.1805 -0.1465  0.1981
 6773W        W10824   0.121   2.286   4.100 -0.0346 -0.1502  0.0703
 6774W        W10825   8.198   0.542   2.180 -0.1616  0.0623  0.0418
 6775W        W10826   3.027   2.911   4.614  0.1249  0.0412 -0.3938
 6776W        W10827   2.149   7.273   0.224  0.1002 -0.3076  0.0692
 6777W        W10828   7.266   4.343   8.856  0.2276 -0.4329 -0.1003
 6778W        W10829   3.006   0.934   4.901  0.0307 -0.0798 -0.3924
 6779W        W10830   6.958   4.459   1.804 -0.0131 -0.0132  0.2189
 6780W        W10831   1.839   3.347   0.582  0.0246 -0.0055  0.0263
 6781W        W10832   1.283  10.218  10.655 -0.3593  0.2242 -0.0010
 6782W        W10833   5.584   3.533   2.745 -0.0639 -0.2744 -0.2120
 6783W        W10834   1.379   0.191  12.960 -0.1708 -0.2138  0.2767
 6784W        W10835   0.461   9.547   3.999  0.0239  0.3981  0.1405
 6785W        W10836   1.979   9.987  13.240  0.0672  0.1821 -0.1551
 6786W        W10837   8.950   0.480  12.639 -0.0753 -0.2607 -0.2154
 6787W        W10838   4.084   3.242   4.755 -0.0530  0.3210  0.0269
 6788W        W10839   4.802   4.197   0.880  0.2363  0.1594  0.1441
 6789W        W10840   2.902   8.403  11.471 -0.0395  0.1014  0.0417
 6790W        W10841   3.241   9.428   3.466  0.2040  0.4512  0.0047
 6791W        W10842   5.798   8.521   8.763 -0.0255 -0.0052  0.0563
 6792W        W10843   8.091   1.562   9.627  0.0915  0.3081  0.0327
 6793W        W10844   0.265   6.073  11.189  0.1319 -0.0660  0.0656
 6794W        W10845   1.359   7.503   0.366 -0.0112 -0.0679  0.2337
 6795W        W10846   1.505   4.618   2.678 -0.0848 -0.0248  0.4110
 6796W        W10847   1.075   5.814   0.603  0.2201 -0.3097 -0.3599
 6797W        W10848   5.655   0.599  11.842 -0.2827  0.2313  0.0548
 6798W        W10849   4.843   4.698  10.620 -0.0812  0.0537  0.0000
 6799W        W10850   7.548   8.971   4.717  0.1482 -0.1697  0.0879
 6800W        W10851   8.670  10.281   3.280  0.1490  0.0413 -0.0936
 6801W        W10852   3.349   0.513   0.896 -0.3432  0.2424 -0.0905
 6802W        W10853   7.204   7.573  11.295 -0.0327 -0.1085  0.0490
 6803W        W10854   2.357  10.051   3.138  0.3540  0.0802  0.0186
 6804W        W10855   0.467   7.581   1.243 -0.0043 -0.1942  0.1082
 6805W        W10856   0.033   9.347   1.509 -0.1008 -0.0148  0.0013
 6806W        W10857   3.730   6.213   1.368  0.1233 -0.2076  0.1112
 6807W        W10858   7.926   1.659   3.634 -0.0005 -0.0761  0.0959
 6808W        W10859   9.180   9.985   4.747 -0.4123  0.1704 -0.1443
 6809W        W10860   6.318   9.419   5.375 -0.0451  0.1841 -0.0119
 6810W        W10861   3.768   9.899  12.086 -0.0238 -0.3376 -0.0871
 6811W        W10862   6.324   1.046   1.983 -0.0455  0.0010 -0.2172
 6812W        W10863   2.728   4.331  12.100 -0.2850 -0.1449  0.1121
 6813W        W10864   1.324   0.111   3.073  0.1475  0.2018 -0.0344
 6814W        W10865   9.967   5.004  10.173 -0.1892  0.3266 -0.2122
 6815W        W10866   7.820   7.690  13.095 -0.1064  0.1587 -0.0184
 6816W        W10867   1.028   7.604  12.076 -0.1496 -0.0328  0.1163
 6817W        W10868   2.601   5.909   9.510  0.0823 -0.0540 -0.1443
 6818W        W10869   5.121   1.053   4.281  0.0044  0.0352 -0.0964
 6819W        W10870   7.830   0.894   9.011 -0.1048  0.4874  0.0865
 6820W        W10871   0.556   6.967   2.583  0.0193 -0.1108  0.2652
 6821W        W10872   3.328   6.031   1.686  0.3143 -0.4010  0.1319
 6822W        W10873   5.487   9.190  10.052  0.0289  0.0336  0.0222
 6823W        W10874   0.406   3.892  10.157 -0.1801 -0.1733  0.0220
 6824W        W10875   9.406   7.905   2.134 -0.3861 -0.2619  0.0527
 6825W        W10876   0.872   8.320   0.727 -0.0159 -0.2268  0.1708
 6826W        W10877   8.589   6.522  12.938 -0.1598 -0.2411 -0.1945
 6827W        W10878   0.844   3.742  12.623 -0.0699  0.0874 -0.0266
 6828W        W10879   9.553   8.817   1.971 -0.0441  0.0449  0.1005
 6829W        W10880   0.611   9.792  12.527  0.2204  0.2537  0.0548
 6830W        W10881   3.995   1.997   4.227  0.0926  0.2421  0.0626
 6831W        W10882   6.930   6.761  10.897 -0.2132 -0.3057  0.1151
 6832W        W10883   9.822   3.425   0.817 -0.2949  0.1070 -0.3348
 6833W        W10884   0.165   3.519   1.683 -0.0504  0.2929 -0.0570
 6834W        W10885   7.320   0.651  12.196  0.0540 -0.1091 -0.0205
 6835W        W10886   0.852   2.092   4.571 -0.2195  0.0597 -0.2172
 6836W        W10887   4.142   7.873  12.850  0.0295  0.1485 -0.0436
 6837W        W10888   0.332   6.047  10.588  0.0525  0.0598 -0.2603
 6838W        W10889   8.175   4.877  13.145  0.0674  0.0334 -0.2470
 6839W        W10890   6.632   4.096  12.907 -0.1660 -0.0265 -0.1066
 6840W        W10891   1.045   8.953   0.627 -0.0936  0.0962 -0.0682
 6841W        W10892   1.255   7.490   8.930 -0.2544 -0.0882 -0.1650
 6842W        W10893   1.424   2.618  11.669 -0.1267  0.0092 -0.2741
 6843W        W10894   8.946   6.201  11.614 -0.0705 -0.1668 -0.0350
 6844W        W10895   6.054   6.006   3.746  0.4540  0.0792 -0.0268
 6845W        W10896   1.794   2.749  12.580 -0.1813 -0.0270 -0.0027
 6846W        W10897   0.622   4.452   1.446  0.0595  0.3290 -0.0877
 6847W        W10898   9.782   3.621   2.018  0.1448  0.3349  0.1940
 6848W        W10899   0.786   5.686   1.100 -0.2462  0.1704 -0.0287
 6849W        W10900   6.451   4.571   4.714  0.1657 -0.0116 -0.0660
 6850W        W10901   7.748   8.250   0.363  0.0439  0.2469  0.2351
 6851W        W10902   9.671   8.218   1.848 -0.3625  0.0073 -0.0800
 6852W        W10903   1.453   5.152   0.811 -0.0780  0.2196 -0.0695
 6853W        W10904   9.116   7.230  12.959 -0.1710  0.2100  0.0063
 6854W        W10905   6.167   1.393   3.620  0.2106  0.3530 -0.2498
 6855W        W10906   0.780   3.128   0.288  0.0894 -0.0946  0.0731
 6856W        W10907   4.757   4.834   2.443 -0.0829 -0.0051 -0.1507
 6857W        W10908   1.357  10.356   2.058 -0.0044  0.3360  0.0472
 6858W        W10909   6.271   3.375  10.235 -0.0352 -0.1918  0.2893
 6859W        W10910   2.037   6.644   1.847 -0.1755  0.1167  0.1800
 6860W        W10911   2.314  10.270  11.913  0.3509 -0.0142  0.1485
 6861W        W10912   6.165   1.703  10.866  0.0761 -0.0187  0.2919
 6862W        W10913   4.044   7.436   1.442  0.3140 -0.2278 -0.0745
 6863W        W10914   2.528   0.324  10.497 -0.0457  0.0132 -0.0621
 6864W        W10915   0.858   1.374   2.652 -0.1415  0.1021 -0.2659
 6865W        W10916   8.689   7.294   0.930 -0.4021  0.1125  0.1569
 6866W        W10917   7.153   5.877  12.160 -0.1407 -0.1595  0.1698
 6867W        W10918   8.612   9.315   4.248 -0.0914 -0.1207  0.1263
 6868W        W10919   1.145   1.763  10.047 -0.1603 -0.4199 -0.2640
 6869W        W10920   3.074   6.582   0.713  0.0271  0.2748 -0.0946
 6870W        W10921   1.035   0.589  11.825 -0.1193 -0.1385 -0.0744
 6871W        W10922   8.852   1.585   0.646  0.0480  0.0493  0.1992
 6872W        W10923   0.033   7.668  12.426 -0.0976  0.0348  0.1553
 6873W        W10924   1.267   9.877   1.198 -0.0597 -0.0409 -0.2068
 6874W        W10925   1.593   3.606   3.093 -0.0763  0.0457  0.0187
 6875W        W10926  10.134   6.218  12.471 -0.1531  0.1322  0.0999
 6876W        W10927   5.483   3.423   4.681 -0.2467  0.1067  0.0568
 6877W        W10928   9.391   1.724   5.101  0.0565 -0.1002 -0.2386
 6878W        W10929   8.401   9.661   0.745  0.1941 -0.1365  0.0245
 6879W        W10930   4.219   1.682  10.866  0.1491 -0.0829  0.0049
 6880W        W10931   0.811   5.399   2.201 -0.2138 -0.1394 -0.1103
 6881W        W10932   6.418   3.001   1.723 -0.0007 -0.0933 -0.1021
 6882W        W10933   9.108   1.048   4.427  0.0504  0.2646 -0.1124
 6883W        W10934   2.206   2.466   3.684  0.2528  0.3009 -0.2357
 6884W        W10935   5.649   5.706   2.387  0.0873  0.1537 -0.1223
 6885W        W10936   0.041   3.003   3.480  0.1933  0.0868  0.1952
 6886W        W10937   6.380   9.045   4.467  0.3585  0.1219 -0.1162
 6887W        W10938   3.998   4.359   2.146 -0.0757 -0.0856 -0.1147
 6888W        W10939   6.629   8.414  10.179 -0.1652  0.1631 -0.1808
 6889W        W10940   3.519   9.203   8.874  0.0033  0.3528 -0.0695
 6890W        W10941   0.281   3.406  12.254 -0.2457  0.1852 -0.1349
 6891W        W10942   8.600   3.505  10.600  0.2034  0.2281 -0.0705
 6892W        W10943   9.610   4.138  12.122  0.0664 -0.0263  0.1489
 6893W        W10944   5.755   6.176   2.472 -0.4409 -0.1349 -0.3603
 6894W        W10945   2.714   8.509   9.479 -0.0376  0.2925  0.1157
 6895W        W10946   2.691   7.391  11.651 -0.1676  0.0864  0.1104
 6896W        W10947   3.590   3.991   3.356 -0.0821  0.0715  0.3185
 6897W        W10948   5.867   8.183   1.047  0.2236  0.2275  0.1559
 6898W        W10949   9.012   4.081  11.362 -0.2504 -0.1379 -0.1581
 6899W        W10950   2.975   0.135   2.323 -0.1950  0.0420  0.0229
 6900W        W10951   2.671   5.397  10.730  0.1012 -0.0139  0.1174
 6901W        W10952   2.006   8.537   3.760  0.2787  0.1324  0.0359
 6902W        W10953   5.006   7.340  10.440 -0.0691 -0.0544  0.3453
 6903W        W10954   5.164   4.735  11.845 -0.1486  0.1353  0.0127
 6904W        W10955   1.934   1.087  11.313 -0.0492 -0.0537  0.0627
 6905W        W10956   8.632   3.982   1.300 -0.4176 -0.0490  0.0852
 6906W        W10957   5.383   7.537   1.590  0.0233 -0.1796  0.2033
 6907W        W10958   5.363   6.720  13.340  0.3663 -0.2025  0.0437
 6908W        W10959   3.440   5.245   2.516 -0.1951  0.1578  0.0082
 6909W        W10960   6.506   1.679   1.345 -0.1084 -0.0903  0.0999
 6910W        W10961   1.327   1.461  12.095  0.0084 -0.1951 -0.0578
 6911W        W10962   4.731   6.316   3.188  0.1273 -0.0116  0.1554
 6912W        W10963   1.851   9.569   3.851  0.0206  0.2472  0.3895
 6913W        W10964   5.170   7.062   8.977  0.0933 -0.0696 -0.1682
 6914W        W10965   4.499   9.313   0.164 -0.0135  0.0691 -0.0059
 6915W        W10966   1.103   0.287   1.745  0.2545  0.3980  0.0803
 6916W        W10967   2.519  10.200   0.794 -0.2971  0.1060  0.0364
 6917W        W10968   1.138   3.731  10.407  0.1781  0.1740 -0.2447
 6918W        W10969   8.011   2.815   0.966  0.1493  0.0485 -0.1196
 6919W        W10970   0.666   4.489  10.672  0.1886  0.1740 -0.1754
 6920W        W10971  10.215   5.729  11.561  0.0596  0.2159 -0.2452
 6921W        W10972   5.776   4.917  11.687  0.1249  0.0042 -0.4724
 6922W        W10973   5.358   7.039   3.397  0.1390  0.1441  0.1155
 6923W        W10974   6.508   6.644  11.863  0.0042 -0.2125 -0.1535
 6924W        W10975   6.015   0.248  11.103  0.1141  0.2139 -0.2039
 6925W        W10976   1.070   8.512   2.096  0.3895  0.1275  0.2367
 6926W        W10977   4.114   8.932   3.929  0.0268  0.0367  0.1357
 6927W        W10978   2.501   7.829   2.271 -0.1966 -0.0113 -0.1488
 6928W        W10979   1.880   5.828  10.658 -0.0435 -0.1818  0.0672
 6929W        W10980   7.949   7.845   2.296 -0.0455  0.0742  0.1259
 6930W        W10981   0.458   4.908  10.493 -0.1540 -0.1973 -0.0794
 6931W        W10982   7.271   5.571   9.413 -0.2184 -0.2326 -0.3816
 6932W        W10983   0.195  10.076  11.517  0.2716  0.3509  0.1880
 6933W        W10984   7.516   3.651   4.843 -0.0845  0.1008  0.0272
 6934W        W10985   6.614   4.756  12.962  0.0432  0.1626  0.0083
 6935W        W10986   6.285   4.027   3.024 -0.2873 -0.0134 -0.1545
 6936W        W10987   3.936   7.972  11.439 -0.2691 -0.1959 -0.0447
 6937W        W10988   9.098   2.873  11.133 -0.6035  0.0331  0.3357
 6938W        W10989   5.811   2.356   4.164 -0.2384 -0.1060  0.0926
 6939W        W10990   2.007   4.036   2.380 -0.1909 -0.2101  0.0449
 6940W        W10991   4.205   3.826  12.178 -0.3323  0.1295 -0.2767
 6941W        W10992   0.964   0.642   4.964 -0.0996 -0.1279 -0.2401
 6942W        W10993   9.600   1.541   3.077 -0.2701  0.1287  0.0835
 6943W        W10994   9.523   4.539   4.320 -0.3314 -0.1557 -0.0613
 6944W        W10995   4.542   4.711   1.947 -0.0749 -0.1294 -0.2795
 6945W        W10996   9.515   6.346  11.146 -0.0710 -0.0434  0.2875
 6946W        W10997   9.491   7.810  13.268 -0.2852  0.0406  0.1030
 6947W        W10998   0.036   7.116   2.516  0.0414 -0.2058  0.3868
 6948W        W10999   6.058   1.525   0.930 -0.1042  0.1293  0.0056
 6949W        W11000   6.208   1.740   2.803 -0.2020 -0.0655  0.1167
 6950W        W11001   4.746   1.708  10.743  0.3492 -0.0405 -0.0425
 6951W        W11002   1.376   8.253   9.547  0.1399  0.1242 -0.3336
 6952W        W11003   9.103   2.322   3.387 -0.0151 -0.3291 -0.3108
 6953W        W11004   1.297   7.753   1.242  0.0953  0.2329 -0.0928
 6954W        W11005   9.186   4.150   4.445  0.0751 -0.2878  0.1024
 6955W        W11006   1.176   8.890  13.183  0.0571  0.0323 -0.0207
 6956W        W11007   3.503   2.114  11.406 -0.0248 -0.1515 -0.0379
 6957W        W11008   7.843   0.210  11.805 -0.0446 -0.3137 -0.2707
 6958W        W11009   3.414   7.241  12.850 -0.0156  0.2184  0.2107
 6959W        W11010   0.287  10.263   1.137  0.1893 -0.1391 -0.0805
 6960W        W11011   0.571   8.574   9.747  0.2242  0.0502 -0.0981
 6961W        W11012   1.874   1.428   9.900  0.1438 -0.0683 -0.0831
 6962W        W11013   2.947   4.024   1.111  0.1606  0.1648 -0.1350
 6963W        W11014   4.650   1.267   1.934 -0.0499 -0.4362 -0.1657
 6964W        W11015   2.723   9.321   3.564 -0.0783  0.0968  0.2621
 6965W        W11016   4.065   1.170   0.758 -0.2656  0.2241  0.2765
 6966W        W11017   0.148   6.767  11.526  0.0589 -0.1213  0.2381
 6967W        W11018   8.028   0.122   1.852  0.1918 -0.1442 -0.0228
 6968W        W11019   2.846   6.761  13.133  0.2568 -0.0375  0.2275
 6969W        W11020   5.698   9.698   4.848 -0.2957 -0.2412  0.3000
 6970W        W11021   7.203   5.981   2.220 -0.1955 -0.0712 -0.0249
 6971W        W11022   0.315   7.297   0.449  0.3060 -0.4456  0.1544
 6972W        W11023   4.550   9.337   2.784  0.0859  0.2671  0.0708
 6973W        W11024   6.260   6.555   9.794  0.0600 -0.1361  0.4485
 6974W        W11025   5.489  10.027   3.960 -0.0306 -0.0505  0.2866
 6975W        W11026   7.693   0.386   4.493 -0.3500 -0.0391 -0.0337
 6976W        W11027   8.992   4.126   1.557 -0.4000  0.0749  0.0356
 6977W        W11028   5.663   0.427   9.838 -0.2381  0.0526  0.1750
 6978W        W11029   9.965   3.853   8.846 -0.0397  0.2097  0.0374
 6979W        W11030   1.686   0.466   3.125 -0.3714  0.2837  0.4457
 6980W        W11031   4.903   9.316  12.215 -0.0044 -0.1099  0.6709
 6981W        W11032   7.470   8.946  12.132  0.1446  0.0708  0.3997
 6982W        W11033   7.068   4.602  10.247  0.0313 -0.1549 -0.0804
 6983W        W11034   8.293   1.910  10.363  0.2460 -0.2117  0.4051
 6984W        W11035   4.750   8.995   5.648 -0.3572  0.3964  0.0118
 6985W        W11036   5.532   8.153  12.354  0.1442  0.1126  0.2717
 6986W        W11037   3.004   5.942   1.179  0.1243  0.0226  0.0303
 6987W        W11038   9.865   2.843   4.193 -0.1084 -0.0305  0.3712
 6988W        W11039   0.861   7.353   2.664  0.0599 -0.0101  0.0233
 6989W        W11040   9.461   6.068   1.747 -0.0209  0.0838 -0.2897
 6990W        W11041   8.239   8.200   0.535 -0.0870  0.0701 -0.3526
 6991W        W11042   9.606   8.055   3.548  0.0221  0.1153 -0.2526
 6992W        W11043   1.027   7.789  10.128 -0.2048  0.2138 -0.0452
 6993W        W11044   1.813   6.968  10.107 -0.0576 -0.2197 -0.0352
 6994W        W11045   7.585   4.691   2.939 -0.1109 -0.0584 -0.1654
 6995W        W11046   6.123   5.040   2.170 -0.1148  0.0888  0.0044
 6996W        W11047   3.489   4.086   1.547  0.1306  0.0119 -0.0571
 6997W        W11048   5.533   7.082   0.311 -0.0893 -0.2611  0.1516
 6998W        W11049   4.311   4.016  13.061  0.0783  0.0405 -0.0431
 6999W        W11050   8.260   7.191   0.654  0.1967 -0.4436 -0.0672
 7000W        W11051   7.256   8.848   1.260  0.2258  0.0791  0.0558
 7001W        W11052   9.625   2.991   0.644  0.0080  0.1121 -0.2177
 7002W        W11053   3.541  10.179  11.582 -0.0690  0.2263  0.0090
 7003W        W11054   7.601   2.242   0.415 -0.2529 -0.0202  0.4640
 7004W        W11055   7.274   7.439   4.005 -0.0344 -0.3661 -0.3012
 7005W        W11056   0.503   4.672  12.649  0.0971 -0.0622  0.1294
 7006W        W11057   7.687   1.886   0.820  0.0605  0.0245  0.0314
 7007W        W11058   8.114   7.571   3.376 -0.1315 -0.1523  0.2618
 7008W        W11059   2.741   3.772   0.748 -0.0911  0.2310 -0.1257
 7009W        W11060   2.291   3.194   4.240  0.0198  0.2696  0.3828
 7010W        W11061   1.420   5.472  12.726  0.3490 -0.1871 -0.4364
 7011W        W11062   9.805   9.451  13.069  0.0072 -0.1287  0.0410
 7012W        W11063   6.972   7.529   1.899 -0.0014  0.2909 -0.1032
 7013W        W11064   4.127   6.220   3.128  0.1550  0.0978 -0.0673
 7014W        W11065   8.386   4.453  11.033  0.1079  0.1805 -0.0953
 7015W        W11066   8.467   9.647   5.085 -0.1738  0.1711 -0.0778
 7016W        W11067   4.594   3.222   1.881  0.4125 -0.4315  0.1281
 7017W        W11068   6.332   6.472  13.304  0.4547  0.2891  0.1535
 7018W        W11069   8.532   0.808   1.179  0.2503 -0.1064  0.0289
 7019W        W11070   5.598   7.018   5.187 -0.2483  0.1782  0.0992
 7020W        W11071   9.763   3.233   9.740 -0.0318  0.0878 -0.1748
 7021W        W11072   4.572   0.450   3.840 -0.0186 -0.1061  0.0873
 7022W        W11073   9.606   7.290   3.278  0.0533 -0.1607 -0.0179
 7023W        W11074   4.999   7.430   3.459  0.0011 -0.1637  0.0396
 7024W        W11075   5.763   7.567   1.058  0.2165  0.1357 -0.2207
 7025W        W11076   9.467   3.699  10.431  0.2740  0.2682 -0.1189
 7026W        W11077  10.290   2.731  12.702 -0.1732 -0.1145  0.1616
 7027W        W11078   3.200  10.078  10.793  0.1281 -0.0856  0.0009
 7028W        W11079   6.118   0.270   9.605  0.0026 -0.1423  0.1808
 7029W        W11080   1.500   6.653   8.668 -0.4010 -0.0336  0.1622
 7030W        W11081   5.436   3.322  10.800 -0.3173 -0.1030 -0.0873
 7031W        W11082   1.315  10.130  10.062 -0.1966  0.0941 -0.3318
 7032W        W11083   7.697   0.858   2.186 -0.0343  0.0270 -0.1155
 7033W        W11084   3.398  10.196  13.250 -0.1379 -0.2538 -0.4280
 7034W        W11085   5.813   1.478  13.019 -0.1787 -0.1861 -0.2960
 7035W        W11086   6.806   8.105   8.631  0.0341  0.1423  0.2115
 7036W        W11087   2.440   1.479   2.459 -0.1612 -0.2851 -0.3107
 7037W        W11088   3.104   4.253   4.131  0.1460 -0.1290 -0.1779
 7038W        W11089   9.619   9.342   0.323  0.1430 -0.1354  0.0657
 7039W        W11090   2.514   8.782   4.317 -0.1710 -0.0309  0.2384
 7040W        W11091   4.703   6.497  11.709 -0.0896 -0.0829 -0.1688
 7041W        W11092   7.183   6.846  13.284  0.3113 -0.1826 -0.1445
 7042W        W11093  10.317   9.245  13.059 -0.1110  0.0992  0.0880
 7043W        W11094   5.770   9.032  13.060 -0.1192  0.1129  0.0384
 7044W        W11095   2.701   9.683   4.793  0.0291 -0.1294 -0.3123
 7045W        W11096   6.859  10.168   4.772  0.1589 -0.1208 -0.1270
 7046W        W11097   1.908   8.817  13.309  0.0845  0.1110  0.0565
 7047W        W11098   0.622   6.124   9.796 -0.1321 -0.1621  0.0241
 7048W        W11099   8.273   7.165   2.998 -0.1569 -0.0623  0.2149
 7049W        W11100   0.225   0.065   0.153 -0.2712 -0.1039 -0.3504
 7050W        W11101   5.756   8.251   9.815  0.0665 -0.2567 -0.2924
 7051W        W11102   6.425   2.806   3.557 -0.1088  0.1309  0.1728
 7052W        W11103   6.661   8.847   5.382  0.2474 -0.2166  0.3561
 7053W        W11104   2.519   6.712   3.176  0.1702  0.0283  0.0616
 7054W        W11105   1.565   7.688   2.496 -0.2074 -0.1008 -0.0174
 7055W        W11106   4.772   5.709   3.777 -0.1477  0.0409  0.2521
 7056W        W11107   5.963  10.105  12.931 -0.0961  0.0634 -0.0267
 7057W        W11108   7.278   3.119  10.350  0.1162  0.2887  0.1527
 7058W        W11109   3.936   8.228   8.805  0.1792 -0.0089  0.3047
 7059W        W11110   0.309   9.587   2.516  0.0617  0.0419  0.2974
 7060W        W11111   1.835   7.032   8.570  0.3070 -0.0392  0.1642
 7061W        W11112   2.148  10.042  10.915 -0.0018 -0.3746  0.1185
 7062W        W11113   1.733   8.343  10.683 -0.1056  0.1238 -0.2026
 7063W        W11114   3.149   6.706  11.438 -0.0039  0.3874  0.0457
 7064W        W11115   9.571   7.915   4.916  0.1721  0.0123 -0.0697
 7065W        W11116   2.884   9.084  12.544  0.1935  0.1744 -0.1316
 7066W        W11117   2.271   4.945  12.515  0.1576 -0.0162  0.1206
 7067W        W11118   8.143   4.888  11.134 -0.0055  0.0905  0.2141
 7068W        W11119   3.440   4.029   9.962 -0.0879 -0.0067 -0.1096
 7069W        W11120   1.688   3.132  11.752 -0.0802  0.1482  0.0673
 7070W        W11121   1.811   3.052   4.083 -0.0253 -0.1994 -0.2979
 7071W        W11122   2.449   9.360   4.472  0.1967  0.2178 -0.0057
 7072W        W11123   7.840   8.764   3.535 -0.1807 -0.1350  0.0556
 7073W        W11124  10.143   0.751  10.757 -0.0460 -0.1412  0.0775
 7074W        W11125   5.915   1.021   1.686 -0.1832 -0.0313  0.0657
 7075W        W11126   5.957   0.244  12.966  0.0105  0.2442 -0.0024
 7076W        W11127   7.392   4.378  12.949  0.4027  0.1757 -0.1969
 7077W        W11128   0.140   1.917   9.184 -0.0786  0.0574 -0.2401
 7078W        W11129   9.872   9.997   2.328 -0.0256 -0.2366 -0.2910
 7079W        W11130   5.402   3.964   9.501 -0.0868  0.2025  0.2254
 7080W        W11131   5.164   7.005   0.652 -0.1910  0.0916 -0.1741
 7081W        W11132   3.943   2.989   0.326  0.2333  0.1298 -0.1329
 7082W        W11133   8.197   8.026  10.592 -0.0087  0.1337 -0.1675
 7083W        W11134   7.391   4.096  11.600 -0.0220 -0.0777  0.0229
 7084W        W11135   0.902   2.819  12.828  0.0997  0.1609  0.1359
 7085W        W11136   3.881   2.128   1.502  0.0487  0.0789  0.1606
 7086W        W11137   2.251   4.408   4.702 -0.1059  0.4063 -0.0348
 7087W        W11138   7.599   2.780  11.381  0.1389 -0.2155 -0.1580
 7088W        W11139   7.598   1.790   3.252  0.0645 -0.0109  0.1228
 7089W        W11140   5.118   5.867   5.075 -0.1952 -0.0483 -0.0129
 7090W        W11141   4.060   1.370   9.251 -0.0715  0.0530 -0.1052
 7091W        W11142   5.728   9.069   3.183  0.2991 -0.0414 -0.3137
 7092W        W11143   4.284   2.442  10.864  0.0563 -0.1942  0.2065
 7093W        W11144   2.235   7.960   9.503  0.1237 -0.0838  0.1184
 7094W        W11145   8.134   1.917  10.887  0.1582  0.2424 -0.2170
 7095W        W11146   0.301   6.616   9.607 -0.2706  0.1598  0.0310
 7096W        W11147   6.654   5.798  12.883 -0.0897 -0.0629  0.5144
 7097W        W11148   0.444   7.074   9.888  0.2320  0.2227  0.0308
 7098W        W11149   8.783   1.599  10.336 -0.0383  0.0544 -0.3120
 7099W        W11150  10.033   9.065  10.248 -0.1157  0.0006 -0.1650
 7100W        W11151   6.571   5.550   0.730  0.0246  0.1832  0.1185
 7101W        W11152   9.764   5.945   0.419 -0.0006  0.1015 -0.2641
 7102W        W11153   4.511   4.798  11.608  0.2309 -0.0226  0.1109
 7103W        W11154   6.338   9.200  11.425 -0.2257  0.1196 -0.0972
 7104W        W11155   8.591   6.455   0.105  0.2136 -0.2092 -0.1647
 7105W        W11156   8.651   6.207  10.581  0.0451 -0.1499  0.1800
 7106W        W11157   9.854   8.776   3.064  0.1854 -0.0359  0.0002
 7107W        W11158   1.052   2.158  11.625  0.0693  0.4218 -0.1927
 7108W        W11159   2.731   7.243   1.452  0.0203  0.3978 -0.0474
 7109W        W11160  10.332   5.700  12.466 -0.2096 -0.2119  0.0306
 7110W        W11161   2.831   8.996   0.290  0.1746 -0.3270 -0.0871
 7111W        W11162   3.339   1.477   1.264 -0.1732  0.2109 -0.5400
 7112W        W11163   8.317   3.904   9.849 -0.0611 -0.0896 -0.1134
 7113W        W11164   4.545   5.975   5.258  0.1617 -0.1220 -0.2521
 7114W        W11165   1.797   7.453  10.252  0.2981  0.1513  0.2662
 7115W        W11166   5.457   7.425   0.719  0.2375 -0.3581 -0.0571
 7116W        W11167   5.565   5.938   4.954  0.0356  0.0018  0.3590
 7117W        W11168   4.554   7.731   1.707  0.2626  0.3566 -0.1641
 7118W        W11169   5.354   8.392  12.883  0.0839  0.2564 -0.2177
 7119W        W11170   2.219   7.281   3.030  0.0060  0.0286  0.2175
 7120W        W11171   2.979   0.641   2.578  0.3328 -0.1025  0.1467
 7121W        W11172   1.507   5.471  13.289  0.2067  0.2128 -0.0113
 7122W        W11173   8.611   2.281  11.875  0.0732  0.0299 -0.0645
 7123W        W11174   2.209   1.831   4.581 -0.0154  0.4996 -0.1923
 7124W        W11175   8.429   2.005  13.277 -0.2513 -0.2053  0.0178
 7125W        W11176   8.587  10.299  11.430 -0.1270  0.0513 -0.0002
 7126W        W11177   8.485   5.530   2.576  0.1051  0.0402 -0.0275
 7127W        W11178   1.323   1.363  10.513  0.0536  0.0836  0.1404
 7128W        W11179   1.096   4.612   2.250  0.5747  0.0143 -0.3422
 7129W        W11180   9.561   9.525   2.160  0.2106  0.0046  0.0993
 7130W        W11181   5.485   6.670   4.275  0.4364  0.0854  0.2486
 7131W        W11182   8.789   0.415   3.361 -0.3048 -0.1141 -0.0801
 7132W        W11183   5.505   1.981   4.545  0.0122 -0.2478  0.1309
 7133W        W11184   7.168   3.616   9.372 -0.0242 -0.2826 -0.0529
 7134W        W11185   2.362   3.516   0.537  0.1235  0.2551  0.0387
 7135W        W11186   9.971   2.785   2.439 -0.0575  0.0948  0.2052
 7136W        W11187   1.316  10.203   1.617 -0.0169 -0.3490 -0.0668
 7137W        W11188   8.713   9.701  10.432 -0.0836 -0.1870  0.1622
 7138W        W11189   6.623   0.037   0.550  0.0451  0.1158 -0.1856
 7139W        W11190   9.033   6.641   0.350 -0.1030  0.0588  0.0819
 7140W        W11191   3.412   7.128  10.713 -0.0950 -0.2632  0.0579
 7141W        W11192   7.713  10.199   1.155  0.1998 -0.0213 -0.1866
 7142W        W11193   0.507   1.697   0.137  0.0702  0.3835 -0.1260
 7143W        W11194   3.958   2.925  10.127  0.0092 -0.1439  0.0647
 7144W        W11195   9.594   8.997  12.388  0.0226  0.0700  0.2301
 7145W        W11196   1.915   7.030  12.181 -0.1830 -0.0296  0.2014
 7146W        W11197  10.064   9.424   9.522 -0.2040  0.0012  0.1141
 7147W        W11198   8.653   2.401   2.747  0.0649 -0.0478 -0.0746
 7148W        W11199   3.085   6.390  12.930  0.2556 -0.2071  0.1568
 7149W        W11200   5.413   7.407   2.851  0.1115  0.1586 -0.0186
 7150W        W11201   7.488   3.541  12.677 -0.1848 -0.1292  0.1034
 7151W        W11202   5.430   9.980   3.465  0.2015 -0.3718 -0.1768
 7152W        W11203   3.033   1.428   0.855  0.1769 -0.0733  0.0003
 7153W        W11204   8.387   9.899   8.981 -0.0458  0.1877  0.0407
 7154W        W11205   5.358   2.635   0.180  0.0263 -0.4225  0.1139
 7155W        W11206  10.242   3.325   2.064 -0.1567 -0.4060 -0.1162
 7156W        W11207   5.545   7.935   0.733  0.1145  0.0547  0.2555
 7157W        W11208   4.108   1.563   2.293  0.3343  0.0708  0.1227
 7158W        W11209   0.805   2.565   2.772 -0.0727  0.1609  0.2253
 7159W        W11210   3.424   1.471  12.861  0.0757 -0.0063  0.3733
 7160W        W11211   1.772   2.544   4.310 -0.0929  0.2761 -0.1051
 7161W        W11212   8.466   3.631   3.413  0.0226  0.3514 -0.0493
 7162W        W11213   9.800   0.507  11.428 -0.2153 -0.0143 -0.2290
 7163W        W11214   9.351   8.621  11.513  0.0128  0.0268  0.1493
 7164W        W11215  10.052   2.329   1.199 -0.0756  0.2174 -0.0775
 7165W        W11216  10.139   8.104  10.802  0.0219  0.3158 -0.2052
 7166W        W11217   6.798   6.005   0.318  0.3345  0.1648  0.0938
 7167W        W11218   7.144   4.910  10.732  0.0076  0.2232 -0.3811
 7168W        W11219   5.427   9.070  10.570 -0.1727 -0.5771 -0.1608
 7169W        W11220   4.103   7.852  10.671  0.0023 -0.0361  0.1315
 7170W        W11221   4.035   7.345  12.140 -0.1868 -0.6014  0.2930
 7171W        W11222   1.049   5.735  11.422 -0.3883 -0.2198  0.2716
 7172W        W11223   4.102   6.596  11.372  0.1018  0.2026 -0.0203
 7173W        W11224   8.287   6.532   3.822 -0.0098  0.1940 -0.2184
 7174W        W11225   9.017   6.928   9.174  0.0378  0.0768 -0.1166
 7175W        W11226   5.606   9.903  12.596 -0.2380  0.0713  0.0282
 7176W        W11227   6.887   0.694   3.198 -0.1598  0.0951 -0.2122
 7177W        W11228   5.546   3.419   0.280  0.1078  0.0667  0.1804
 7178W        W11229   7.811   4.192   8.979  0.3307  0.0710 -0.2863
 7179W        W11230   2.753   2.360   3.448 -0.2655 -0.0741  0.2596
 7180W        W11231   6.478   5.499  11.700 -0.2787 -0.0442 -0.1096
 7181W        W11232   4.522   1.105  12.851  0.2553 -0.1565  0.0117
 7182W        W11233   5.467   1.371   1.892  0.0844  0.3401  0.1210
 7183W        W11234   1.705   2.485   0.762  0.1737  0.1774  0.0022
 7184W        W11235   5.459   3.182  12.687  0.4450  0.1157  0.0432
 7185W        W11236   4.574   6.605  12.757 -0.0330 -0.0681 -0.1868
 7186W        W11237   1.256   9.153  12.191  0.0521 -0.0882 -0.1121
 7187W        W11238   9.287   1.288  11.889  0.1872  0.0611 -0.1284
 7188W        W11239   8.815   4.985   0.882  0.0188 -0.1713  0.2144
 7189W        W11240   3.597   0.898   4.708 -0.0677  0.2283 -0.0761
 7190W        W11241   1.981   4.772  12.130  0.2468 -0.1510 -0.0333
 7191W        W11242   6.028   5.793   2.818  0.2404 -0.0902 -0.1888
 7192W        W11243   6.168   4.728  11.420 -0.2409 -0.2697 -0.1053
 7193W        W11244   4.642   7.289  10.826 -0.0392  0.1148 -0.1974
 7194W        W11245   4.109   4.911  10.363  0.0681 -0.0665 -0.0035
 7195W        W11246   5.230   3.809  10.725  0.1027  0.3415  0.1205
 7196W        W11247   7.733   4.098   2.738  0.2173  0.0951 -0.1063
 7197W        W11248   0.446   5.017   1.643  0.2586  0.0192  0.2647
 7198W        W11249   5.875   5.102  12.302 -0.2957 -0.0959  0.1201
 7199W        W11250   4.639   1.611   2.447  0.1825 -0.1447  0.0731
 7200W        W11251   8.797  10.365   2.506 -0.3104 -0.0787 -0.0277
 7201W        W11252   9.408   0.921  12.216 -0.1534 -0.3471  0.0736
 7202W        W11253   7.778   1.978  11.524 -0.1012 -0.0159 -0.0872
 7203W        W11254   8.744   4.377   0.184 -0.1940 -0.0191 -0.1760
 7204W        W11255   3.420   8.418   4.469 -0.0987  0.0446  0.1331
 7205W        W11256   1.106   8.090  11.529 -0.0470 -0.2299 -0.0201
 7206W        W11257   3.225   9.256   0.565 -0.3439 -0.1084  0.3876
 7207W        W11258   7.558  10.229  11.170 -0.2963 -0.2079 -0.1419
 7208W        W11259   0.367   0.321   4.049  0.0090  0.0520 -0.2862
 7209W        W11260   8.013   3.630   4.881 -0.1119 -0.3221  0.0369
 7210W        W11261   0.380   4.584   1.891 -0.3058 -0.0685 -0.2470
 7211W        W11262   1.624   3.404   0.097 -0.0482 -0.1648  0.0783
 7212W        W11263   4.719   4.954  13.062 -0.4233  0.1964 -0.0575
 7213W        W11264  10.212   0.304   3.340  0.1188  0.0100  0.0250
 7214W        W11265   4.149   5.507   1.854  0.3188 -0.0930 -0.4073
 7215W        W11266   8.314   8.450  12.531 -0.1269 -0.2115 -0.0821
 7216W        W11267   7.059   1.572  10.464 -0.1375  0.4074  0.2363
 7217W        W11268   5.000  10.189  10.738 -0.1089  0.0262  0.2021
 7218W        W11269   5.129   2.406  12.637  0.0004 -0.5267 -0.1223
 7219W        W11270  10.229   3.381  12.059  0.0833 -0.4963 -0.3382
 7220W        W11271   9.347   9.072  13.253 -0.3858 -0.0276  0.1160
 7221W        W11272   8.219   6.733  11.199  0.3853 -0.0949  0.0533
 7222W        W11273   6.415   3.652   4.571 -0.1831 -0.1108  0.0964
 7223W        W11274   2.894   1.144   2.738  0.3126 -0.2184  0.0701
 7224W        W11275   0.314  10.280  10.192 -0.1727 -0.0456 -0.3159
 7225W        W11276   3.686   2.158   0.813 -0.5749  0.0209 -0.2197
 7226W        W11277   8.519   1.969   9.610 -0.2423 -0.2589  0.0295
 7227W        W11278   4.362   5.839  13.068 -0.2389 -0.2557  0.0673
 7228W        W11279   8.458   4.398  10.536 -0.0137  0.1138 -0.3836
 7229W        W11280  10.274   4.173  11.320  0.1414  0.0142 -0.0558
 7230W        W11281   0.259   7.697  10.081  0.1451 -0.2911  0.0214
 7231W        W11282   3.523   3.522   2.925 -0.1255  0.0506 -0.1197
 7232W        W11283   0.903   1.383  13.299  0.0773  0.0906  0.1246
 7233W        W11284   9.785   6.032   3.330  0.0901 -0.0361 -0.1769
 7234W        W11285   4.793   5.799   3.281  0.0884  0.1561  0.1923
 7235W        W11286   5.528   1.425   5.143 -0.2110  0.1654  0.1191
 7236W        W11287   2.722   9.184   4.091 -0.1149 -0.0258 -0.1001
 7237W        W11288   5.583   0.849   2.028 -0.0779 -0.1990 -0.3022
 7238W        W11289  10.243   8.434   4.011  0.1403 -0.0048 -0.0971
 7239W        W11290   3.738   4.217   4.782  0.0515 -0.1566 -0.0011
 7240W        W11291   0.733   8.736   4.449 -0.0241  0.0028 -0.0090
 7241W        W11292   3.243   9.606   1.401  0.3246  0.1305  0.1710
 7242W        W11293   4.910   7.990  11.167  0.0561 -0.4084  0.1248
 7243W        W11294   3.867   9.298  13.283 -0.1568 -0.2597 -0.1245
 7244W        W11295   9.570   1.877  10.696  0.1136 -0.0794 -0.0702
 7245W        W11296   6.228   0.862   9.700 -0.0678  0.1692  0.0385
 7246W        W11297   5.895   8.090  11.967  0.1589 -0.3008 -0.2968
 7247W        W11298   7.012  10.086  11.309 -0.1843 -0.1908 -0.2046
 7248W        W11299   9.960  10.263   3.587 -0.1375 -0.1131  0.1977
 7249W        W11300   5.949   9.089  11.214  0.0760 -0.1037  0.3051
 7250W        W11301  10.053   1.675  10.756 -0.1430  0.1654 -0.0474
 7251W        W11302  10.264   0.545  12.651 -0.0539  0.1033 -0.2166
 7252W        W11303   1.965   7.446   1.750  0.1793 -0.0245 -0.2748
 7253W        W11304   2.336   9.641   9.729 -0.1669  0.1581 -0.0598
 7254W        W11305   7.145   3.005  12.287  0.2855 -0.3917  0.1823
 7255W        W11306   7.189   2.221   1.628 -0.1923 -0.4106 -0.0084
 7256W        W11307   5.883   7.402  10.167  0.1720 -0.1773  0.0717
 7257W        W11308   8.935   5.213  11.435 -0.1104 -0.0863  0.1071
 7258W        W11309   7.094   7.878   1.375 -0.0396 -0.1280  0.0519
 7259W        W11310   4.260   7.514   2.062 -0.4049  0.1731 -0.2696
 7260W        W11311  10.271   1.801  13.257 -0.1719  0.2712 -0.0935
 7261W        W11312   2.433   7.568   9.719 -0.4335  0.0960  0.2546
 7262W        W11313   3.793   5.239   0.166  0.1603  0.0606  0.2685
 7263W        W11314   5.700   6.136  11.245 -0.0712 -0.0549 -0.1187
 7264W        W11315   4.363   8.423   4.850 -0.1717  0.1756  0.3822
 7265W        W11316   1.901   7.536  11.266 -0.0184  0.0622 -0.1384
 7266W        W11317   3.719   3.195  11.037 -0.4256 -0.0472  0.0136
 7267W        W11318   4.926   6.708  13.126 -0.0219 -0.3257 -0.1991
 7268W        W11319   8.374   1.653   0.397  0.0789  0.0662 -0.3967
 7269W        W11320   9.002   6.442   0.854 -0.0276  0.2484 -0.0087
 7270W        W11321   3.276   1.664  10.375 -0.0294 -0.0004 -0.0763
 7271W        W11322   2.073   8.861  12.821  0.2601 -0.1828 -0.0305
 7272W        W11323   5.304   4.002  13.033  0.0860 -0.2073  0.0880
 7273W        W11324   3.662   9.409  12.301 -0.0666 -0.0442 -0.3009
 7274W        W11325   9.127   0.747   4.079  0.1548  0.0284  0.0731
 7275W        W11326   8.868   8.846   4.052  0.0104 -0.0343  0.1440
 7276W        W11327   5.905   3.944   4.884  0.3166 -0.1615  0.0665
 7277W        W11328   2.960   5.136  12.848 -0.0170 -0.1447 -0.1369
 7278W        W11329   8.929   6.351   2.623 -0.0487 -0.1880 -0.0096
 7279W        W11330   9.768   1.052  13.319  0.2541  0.2676 -0.0459
 7280W        W11331   8.230  10.069   1.830  0.1819 -0.0134  0.0213
 7281W        W11332   3.516   0.627  12.692  0.1900 -0.1493 -0.2095
 7282W        W11333   0.379   1.179   4.340  0.2018 -0.3177 -0.0232
 7283W        W11334   3.974   2.669  12.220 -0.0228 -0.1768 -0.1683
 7284W        W11335   6.603   3.595  12.885  0.0811 -0.3680 -0.2025
 7285W        W11336   6.729   4.835   9.549  0.3539 -0.0891  0.2069
 7286W        W11337   5.992   5.638   1.443  0.0809 -0.1739 -0.0336
 7287W        W11338   5.350   8.350   5.121 -0.2363  0.0588  0.0238
 7288W        W11339   0.253   4.217   1.069 -0.0901  0.1363  0.3676
 7289W        W11340   0.542   4.926   0.570  0.0374 -0.0453 -0.0036
 7290W        W11341   3.298   0.061   4.168 -0.0710  0.1805 -0.0467
 7291W        W11342   9.107   3.113   2.957  0.0007 -0.1244  0.3549
 7292W        W11343   1.877   0.686  12.412  0.2082  0.1867 -0.3144
 7293W        W11344   6.772   4.691   2.228  0.2270  0.0729 -0.0725
 7294W        W11345   5.695   0.041  10.161 -0.2444 -0.2812  0.0595
 7295W        W11346  10.082  10.034   2.789 -0.0187 -0.0371  0.1183
 7296W        W11347   0.581   3.017   2.620  0.3218  0.2041 -0.1095
 7297W        W11348   0.374   9.045   0.948 -0.1861  0.0285  0.0280
 7298W        W11349   4.773   1.284   9.780 -0.2668  0.1184 -0.1186
 7299W        W11350   8.896   2.788   3.952  0.2644 -0.0502 -0.0893
 7300W        W11351   4.742   5.352   4.518  0.0456  0.0220  0.3039
 7301W        W11352   1.561   0.494   4.317 -0.1541  0.0453 -0.0149
 7302W        W11353   0.389   8.260   0.485  0.0344  0.0271 -0.0763
 7303W        W11354   2.638   2.536   2.916 -0.4149 -0.0402  0.1225
 7304W        W11355   7.085   8.781   5.089  0.1302 -0.0510  0.2096
 7305W        W11356   0.865  10.243   1.867 -0.1714  0.1652  0.1971
 7306W        W11357   7.072   9.668   8.543 -0.0485 -0.3294 -0.0953
 7307W        W11358   2.414   7.978   2.764  0.2176  0.1422 -0.1782
 7308W        W11359   1.199   5.516   9.703  0.1561 -0.1984 -0.2570
 7309W        W11360   8.534   2.130   2.299 -0.0959  0.1375  0.0790
 7310W        W11361   2.309   5.953   0.699 -0.0422 -0.0158  0.1563
 7311W        W11362   2.439   5.237   2.932  0.1724 -0.3196  0.2410
 7312W        W11363   3.405   0.355  12.175  0.2435 -0.5660 -0.1132
 7313W        W11364   2.776   5.898  10.924 -0.2259  0.0665  0.0365
 7314W        W11365   9.914   7.522   0.738 -0.0918 -0.2615 -0.0759
 7315W        W11366   4.743   4.835   2.978  0.2801  0.1791 -0.0919
 7316W        W11367   2.820   5.305   2.231 -0.0478 -0.2788  0.2118
 7317W        W11368  10.097   5.554   4.086 -0.0405 -0.2232 -0.2773
 7318W        W11369   0.926  10.033   3.072 -0.0831  0.4231  0.1881
 7319W        W11370   1.280   2.876  12.510 -0.0087  0.1527 -0.0788
 7320W        W11371   3.211   2.406  11.061  0.1409 -0.1642  0.0935
 7321W        W11372   9.984   0.897   1.412  0.0433  0.0960 -0.1611
 7322W        W11373   5.645   1.802   1.048 -0.2774 -0.1107 -0.2716
 7323W        W11374   4.974   3.722   4.452  0.0525  0.2062  0.1120
 7324W        W11375   1.195   7.910  13.020 -0.1042 -0.0163  0.0748
 7325W        W11376   5.893   9.274   0.175 -0.1671 -0.2256  0.1846
 7326W        W11377   8.073   8.931   0.900 -0.1059 -0.0085  0.2015
 7327W        W11378   9.345   7.812  12.761 -0.0782 -0.0675 -0.1266
 7328W        W11379   2.147   7.898   1.842  0.1526  0.1533 -0.0198
 7329W        W11380   7.614   5.643   4.443  0.0891 -0.0395 -0.1141
 7330W        W11381   1.530   7.932   0.008 -0.0301  0.0922  0.2670
 7331W        W11382   9.275   8.043   4.369 -0.0703  0.3087  0.0479
 7332W        W11383   6.581   1.918   4.236  0.2385 -0.0882  0.0121
 7333W        W11384   9.435   2.311  13.301  0.1707 -0.0050  0.2830
 7334W        W11385   6.814   6.945   1.865  0.2271 -0.1815  0.0065
 7335W        W11386  10.348   9.528  12.334  0.1714  0.3829  0.0481
 7336W        W11387   5.044   0.376   3.664 -0.1312  0.6826  0.3563
 7337W        W11388   2.029   3.580   4.069  0.1533  0.1705  0.2422
 7338W        W11389   4.095   2.903   5.271  0.0763  0.1682 -0.2065
 7339W        W11390  10.136   4.676   9.684  0.0477 -0.1084  0.0446
 7340W        W11391   1.881   0.866   2.591 -0.1387  0.0135 -0.2904
 7341W        W11392   4.230   8.825  11.929  0.0321 -0.0406  0.0119
 7342W        W11393   4.847   9.728   4.440  0.1072  0.1831  0.1668
 7343W        W11394   9.485   0.738   3.319 -0.0400 -0.1387 -0.1541
 7344W        W11395   5.867   1.664   2.444 -0.1929 -0.0784 -0.2816
 7345W        W11396   6.257   2.769  10.732 -0.1139  0.0150 -0.2995
 7346W        W11397   3.466   6.412  10.101  0.1627 -0.1086  0.1322
 7347W        W11398   4.796   2.254   4.453  0.0634  0.4194  0.2326
 7348W        W11399   5.669   1.150  11.933 -0.0581  0.0984 -0.2772
 7349W        W11400   4.980   8.614   5.393  0.1996 -0.1838 -0.1082
 7350W        W11401   3.496   5.426  12.666 -0.0225  0.1840  0.0805
 7351W        W11402   8.429   5.975   3.850 -0.1566  0.0382  0.1413
 7352W        W11403   3.719   1.282  11.522 -0.3430  0.0297  0.2989
 7353W        W11404   5.434   9.363  11.325  0.2496 -0.2919  0.4035
 7354W        W11405   1.977   6.890   2.848 -0.0299 -0.1359  0.1726
 7355W        W11406   2.434   7.672  11.962 -0.0494 -0.4845  0.0056
 7356W        W11407   3.400   8.963  12.453  0.2391  0.4048  0.1168
 7357W        W11408   9.477   2.205   3.113 -0.1241 -0.2324  0.0089
 7358W        W11409   0.635   0.692  12.103  0.1109 -0.2254  0.0319
 7359W        W11410   8.226   9.253   8.943  0.2435 -0.4780  0.2307
 7360W        W11411   9.504  10.302  13.117 -0.2238  0.1586 -0.1369
 7361W        W11412   8.750   3.514  11.059 -0.2035  0.5054 -0.1367
 7362W        W11413   3.370   3.678  12.275  0.0987 -0.3007 -0.2363
 7363W        W11414   5.887   7.345   3.219  0.0049 -0.1605  0.1487
 7364W        W11415   7.921   1.867   0.253  0.1256 -0.2783 -0.1063
 7365W        W11416   9.665   3.418   8.864  0.1066 -0.2635  0.0098
 7366W        W11417   7.202   4.823   3.817 -0.2558 -0.1093 -0.1302
 7367W        W11418   4.598   3.517   4.748  0.3802 -0.1931 -0.0209
 7368W        W11419   1.122   6.393  10.313 -0.1306 -0.0858  0.1401
 7369W        W11420   3.169   5.546  10.769 -0.1834 -0.1055 -0.0067
 7370W        W11421   4.634   4.990   0.246 -0.1199 -0.0245 -0.2009
 7371W        W11422   8.513   0.784   0.611  0.0731  0.3918 -0.1102
 7372W        W11423   5.100   3.261   0.277 -0.0926 -0.2728  0.1523
 7373W        W11424   5.553  10.397   2.616 -0.2692  0.2833  0.2555
 7374W        W11425   4.013   1.235  12.220 -0.0305 -0.0608  0.0783
 7375W        W11426   1.400  10.302   0.496  0.3501 -0.1100  0.0673
 7376W        W11427   8.014   6.049  11.738 -0.2302 -0.0783 -0.1713
 7377W        W11428   8.376   1.084  12.973 -0.2506 -0.3141  0.2524
 7378W        W11429   4.468   2.964   4.425  0.0994  0.0486 -0.0643
 7379W        W11430   6.326   7.888  10.930  0.0273  0.1495  0.0682
 7380W        W11431   7.238   6.503   4.598 -0.1949  0.0980 -0.1117
 7381W        W11432   1.200   3.448   4.881  0.0367  0.0005  0.1614
 7382W        W11433   8.748   4.091  12.528 -0.0320  0.3059 -0.3092
 7383W        W11434   3.250   8.833   0.152 -0.2437 -0.0724  0.0286
 7384W        W11435   1.184   0.180   4.896 -0.2097 -0.1111 -0.2859
 7385W        W11436   4.969   9.550   1.621 -0.0752 -0.1289 -0.2498
 7386W        W11437   1.608   1.595   8.816 -0.0832 -0.2869  0.0220
 7387W        W11438   6.478   2.177   2.709 -0.0383 -0.1790  0.1370
 7388W        W11439   6.710   6.631   9.018 -0.0539 -0.1542 -0.0116
 7389W        W11440   2.294   2.224  12.982  0.1670  0.0003  0.1801
 7390W        W11441   6.447   6.510  11.094 -0.2248 -0.0372  0.1552
 7391W        W11442   8.760   4.970   2.768  0.1271 -0.3929 -0.0845
 7392W        W11443   2.033   6.138  13.228 -0.1355 -0.1461  0.1999
 7393W        W11444   3.847   3.845  10.265  0.2482 -0.1031 -0.1938
 7394W        W11445   4.031   6.715  10.391 -0.0847  0.0731  0.2284
 7395W        W11446   7.888   4.836   3.372 -0.1949  0.0478 -0.0095
 7396W        W11447  10.085   9.631   1.375 -0.0362 -0.0407  0.1130
 7397W        W11448   9.090   5.103   9.067  0.0755 -0.1052 -0.1367
 7398W        W11449   2.880  10.132   4.051  0.0415 -0.2910  0.1378
 7399W        W11450   3.686   9.551   9.506 -0.2785  0.2883  0.0939
 7400W        W11451   6.861   0.801   1.770 -0.1772 -0.0069  0.0362
 7401W        W11452   1.706   8.176   0.478  0.0264 -0.0569 -0.1178
 7402W        W11453   3.388   6.084   3.594  0.3211 -0.0042 -0.0407
 7403W        W11454   9.918   8.708  10.712  0.1879  0.3320  0.2926
 7404W        W11455   8.412   8.851   4.224 -0.4681  0.2333 -0.2941
 7405W        W11456   1.717   8.580   1.001 -0.2272 -0.0849 -0.0758
 7406W        W11457   7.603   7.782   0.218 -0.3164  0.1563 -0.1492
 7407W        W11458   1.546   8.967  10.912  0.0965  0.0520  0.4412
 7408W        W11459   4.788   6.076  11.427  0.0339  0.4720 -0.1002
 7409W        W11460   5.972   5.444   9.617  0.1318  0.1545 -0.0301
 7410W        W11461   6.683   8.429  13.021 -0.0002  0.0038  0.0876
 7411W        W11462   4.095   4.654  11.140  0.2926 -0.0901  0.0844
 7412W        W11463   7.434   4.629   4.910  0.2259 -0.2731  0.6597
 7413W        W11464   5.316   2.235   1.106 -0.1415  0.2192  0.1514
 7414W        W11465   4.776   3.797   3.169 -0.0138 -0.0232  0.1006
 7415W        W11466   5.385  10.182  11.703  0.1167 -0.3325  0.3298
 7416W        W11467   2.080   8.425   1.843 -0.0843 -0.1332  0.0289
 7417W        W11468   5.541   5.871  13.202  0.1716  0.1990  0.1198
 7418W        W11469   4.760   5.211   2.025  0.2278 -0.2592 -0.0763
 7419W        W11470   2.073   0.623   8.706  0.2029  0.2304  0.0683
 7420W        W11471   6.429   6.624   1.972 -0.2658 -0.0911 -0.1157
 7421W        W11472   4.378   8.145  12.434 -0.0142  0.1484 -0.2927
 7422W        W11473   6.628   2.617   0.331 -0.2421  0.1060  0.0588
 7423W        W11474   3.925   2.385   2.798  0.4565  0.0615 -0.1910
 7424W        W11475   4.079  10.269  11.515  0.1891 -0.1236 -0.2089
 7425W        W11476   7.769   7.251   4.034  0.1625 -0.2258 -0.0103
 7426W        W11477   9.989   8.023   0.493  0.0045  0.0113  0.3648
 7427W        W11478   5.812   0.350   2.766 -0.2251  0.0816 -0.2278
 7428W        W11479   4.156   2.814  12.659  0.0292  0.1696 -0.2327
 7429W        W11480   6.230   7.854   2.621 -0.0481 -0.0332  0.2789
 7430W        W11481  10.012   8.526   4.782 -0.0569 -0.2551  0.0692
 7431W        W11482   2.089   0.179  10.364  0.4659 -0.2257 -0.2182
 7432W        W11483   4.976   2.908   2.946  0.0654 -0.0161 -0.0571
 7433W        W11484   1.050   6.649   0.920 -0.2095 -0.1081 -0.1109
 7434W        W11485   9.705   1.513  11.659 -0.2147  0.1694  0.2839
 7435W        W11486   4.525   9.998  12.209  0.0540 -0.0180 -0.1351
 7436W        W11487  10.404   2.259   4.654 -0.0934  0.0026  0.1198
 7437W        W11488   5.380   2.900   4.808 -0.1630 -0.0068 -0.0941
 7438W        W11489   5.667   4.414   1.494 -0.0802  0.1039 -0.1641
 7439W        W11490   6.900  10.430   0.032  0.1645 -0.0482  0.2422
 7440W        W11491   9.047   3.843   8.553  0.1112  0.0978 -0.0804
 7441W        W11492   6.122   9.246  10.793 -0.1274  0.0319  0.0698
 7442W        W11493  10.165   5.552  12.039 -0.0229 -0.4008  0.1505
 7443W        W11494   3.535   3.538   9.717 -0.3506  0.2470 -0.2684
 7444W        W11495   0.675   5.024   1.130 -0.1726 -0.3106 -0.1547
 7445W        W11496   8.035   1.590   5.454 -0.2155 -0.0605  0.3141
 7446W        W11497   7.918   8.701  13.087 -0.1568  0.0939 -0.4114
 7447W        W11498   0.599   5.619  10.669 -0.0081 -0.0420 -0.0601
 7448W        W11499   9.653   1.224  10.756  0.1634  0.0236 -0.2212
 7449W        W11500   6.807   7.655   8.886 -0.4123  0.0943 -0.0475
 7450W        W11501   6.246   9.079   9.990  0.2929  0.1719 -0.0793
 7451W        W11502   5.050   7.109  11.573 -0.1990 -0.0564  0.0804
 7452W        W11503   1.506   4.419   9.078 -0.3279 -0.0028 -0.0967
 7453W        W11504   1.390   0.413   5.332 -0.0638  0.0543  0.3841
 7454W        W11505   8.731   5.588   2.083  0.1041 -0.0073  0.0903
 7455W        W11506   0.112   9.138  10.303 -0.0403  0.1156  0.1103
 7456W        W11507   3.968   4.976   2.619  0.0993  0.1776 -0.1016
 7457W        W11508   6.720   7.925   3.697 -0.0898 -0.0566  0.2534
 7458W        W11509   3.917   9.791   4.169 -0.0917  0.2794 -0.1390
 7459W        W11510   5.392   9.448   0.877 -0.2758  0.0001 -0.1597
 7460W        W11511  10.408   9.367   0.936  0.0675  0.5495  0.2763
 7461W        W11512   9.250  10.024   1.072 -0.1753  0.2669 -0.2784
 7462W        W11513   6.983   9.166  10.940  0.0598  0.0283 -0.1128
 7463W        W11514  10.424   7.154   1.940  0.0190  0.2245 -0.1802
 7464W        W11515   9.646   2.423  11.467 -0.1433 -0.4889  0.1654
 7465W        W11516   0.035   6.745  10.066 -0.2550 -0.2709  0.2499
 7466W        W11517   9.715   8.693  10.252  0.1637 -0.2075  0.1609
 7467W        W11518   4.160   6.071   1.632 -0.0862 -0.2140  0.3133
 7468W        W11519   0.699   9.274   4.776 -0.0887 -0.1406 -0.0534
 7469W        W11520   5.540   2.130   2.441 -0.1858  0.0760 -0.0513
 7470W        W11521   0.157   5.981   2.351 -0.0306 -0.1558 -0.3508
 7471W        W11522   7.054   1.289  12.799 -0.1016  0.0883 -0.0439
 7472W        W11523   4.714   8.664   2.894 -0.0870  0.2971 -0.0672
 7473W        W11524   2.066   6.648   8.786 -0.1191 -0.1970  0.0791
 7474W        W11525   7.873   4.677  10.067  0.3737  0.2379  0.0223
 7475W        W11526   0.274   8.115  11.651  0.2855  0.0053 -0.1173
 7476W        W11527   4.984   4.464  12.351  0.0939  0.2557  0.0910
 7477W        W11528   4.948   7.584   0.385 -0.0662  0.2981 -0.1615
 7478W        W11529   4.863   2.468  11.086  0.2482 -0.1190 -0.0651
 7479W        W11530   4.053  10.172  10.644  0.0283 -0.2227 -0.1427
 7480W        W11531   0.361   2.692   1.562  0.0521  0.2796  0.2169
 7481W        W11532   7.524   8.123   2.414 -0.0679 -0.0731 -0.1148
 7482W        W11533  10.109   8.594   0.770  0.1013  0.2890 -0.2901
 7483W        W11534   8.935   0.847  12.327 -0.1276 -0.0913 -0.0975
 7484W        W11535   5.021   1.864   4.228  0.2087 -0.0662 -0.3284
 7485W        W11536   8.043   4.512   9.349 -0.0831 -0.2444  0.0497
 7486W        W11537   5.038   7.518   1.993  0.1317 -0.3165 -0.2055
 7487W        W11538   4.629   7.095  12.778 -0.0445 -0.6056  0.1671
 7488W        W11539   4.257   5.077   2.206  0.0137 -0.2658  0.2540
 7489W        W11540   2.038   4.412   2.801 -0.4038  0.0731  0.0901
 7490W        W11541   8.192   3.928   8.841  0.2491 -0.3814  0.0343
 7491W        W11542   9.656   0.787   4.783  0.1961  0.1665 -0.1132
 7492W        W11543   7.331   6.106   3.107 -0.2303 -0.1224  0.3517
 7493W        W11544   7.554   7.537   1.210  0.0704  0.1053  0.0819
 7494W        W11545   3.766   8.208   2.718  0.0934 -0.0578 -0.0130
 7495W        W11546   2.991   2.287   2.536 -0.3715 -0.2636 -0.1403
 7496W        W11547   4.310   7.943   4.516 -0.4860  0.0222  0.1235
 7497W        W11548   0.998   1.862   8.790  0.0432  0.0358  0.0256
 7498W        W11549   4.081   2.596   0.771  0.1999 -0.1065 -0.0730
 7499W        W11550  10.190  10.229   0.131  0.1320 -0.0578  0.2349
 7500W        W11551   4.043   0.791  10.427 -0.1450 -0.2958  0.1013
 7501W        W11552   2.324   5.328  12.214 -0.0270 -0.0117  0.1995
 7502W        W11553   1.443   2.786  11.175  0.2102  0.1754  0.1053
 7503W        W11554   8.504   1.803  11.156  0.1412  0.2988 -0.0262
 7504W        W11555   0.100   5.304   3.145  0.0845 -0.2624 -0.1238
 7505W        W11556   0.833   0.467  10.401 -0.0330  0.2709  0.2501
 7506W        W11557   0.465   3.262  12.847 -0.1077 -0.2779 -0.4684
 7507W        W11558   3.518   4.581   0.466 -0.0971 -0.1376  0.1447
 7508W        W11559   2.596   2.572   1.308  0.0804  0.2469  0.0738
 7509W        W11560   7.193   5.324   1.473 -0.0977  0.1609  0.0819
 7510W        W11561   5.911   9.981   1.108  0.0492  0.0468 -0.1099
 7511W        W11562   5.437   2.105   5.067  0.1963 -0.1111  0.0252
 7512W        W11563   9.629   5.301   1.028  0.1307 -0.1369  0.1628
 7513W        W11564   5.916   8.679   2.334  0.0567 -0.3440  0.0323
 7514W        W11565   7.582  10.194   3.402 -0.1533 -0.0382 -0.3843
 7515W        W11566   8.969   9.657   3.762 -0.1059 -0.0163  0.1334
 7516W        W11567   5.629   2.237   9.774 -0.0072  0.2894 -0.2639
 7517W        W11568   3.425   6.738  12.107 -0.2198 -0.4460  0.0055
 7518W        W11569   6.154   5.592  13.133  0.0981 -0.0008 -0.0707
 7519W        W11570   3.397   0.695  11.780 -0.1816 -0.2458  0.2548
 7520W        W11571   8.435   4.718   3.200 -0.0869 -0.1707 -0.0129
 7521W        W11572   7.669   3.294   3.467  0.0723 -0.5057 -0.1393
 7522W        W11573   8.274   9.425  11.201  0.2164 -0.0281 -0.1295
 7523W        W11574   0.289   8.299   9.258  0.2312  0.1622 -0.0435
 7524W        W11575   6.913   8.508   2.511  0.1531 -0.2780 -0.3793
 7525W        W11576   5.914   4.371  11.182 -0.2464 -0.0604  0.0044
 7526W        W11577   6.440   7.973   9.150 -0.0506 -0.2402  0.3851
 7527W        W11578   1.920   9.820  12.026  0.0847  0.1795 -0.0093
 7528W        W11579  10.221   6.070   3.063  0.3238  0.1969  0.0403
 7529W        W11580   1.557   4.140   1.022  0.0175 -0.1727  0.0381
 7530W        W11581   0.527   7.302  11.635  0.2237 -0.1630  0.0832
 7531W        W11582   8.743   9.754  13.170 -0.0253 -0.0529 -0.2386
 7532W        W11583   0.841   4.566   0.485  0.0053 -0.2716 -0.2158
 7533W        W11584   2.264   2.402  12.225  0.1446  0.2185 -0.0263
 7534W        W11585   0.911   7.831  12.535 -0.3396  0.1289  0.0889
 7535W        W11586   9.992   8.571   2.236  0.1524 -0.1212  0.2433
 7536W        W11587   9.201  10.008  12.864  0.1277 -0.2502  0.0483
 7537W        W11588   2.783   5.144   3.229 -0.1418  0.4100 -0.3877
 7538W        W11589   4.598   4.631  11.073  0.0603 -0.1771  0.0708
 7539W        W11590   9.458   7.192  11.069  0.2212 -0.0777 -0.0913
 7540W        W11591   0.201   0.940  10.979  0.1168 -0.1980 -0.0537
 7541W        W11592   8.604   4.522   4.073 -0.2324  0.0818  0.3881
 7542W        W11593   9.457   0.215   0.616 -0.2856 -0.0110 -0.1847
 7543W        W11594   2.565   1.081   3.983 -0.0692 -0.4043 -0.0918
 7544W        W11595   4.342   8.085   3.519 -0.0540  0.2221 -0.1738
 7545W        W11596   6.471   6.966  10.870 -0.0518 -0.0559 -0.0399
 7546W        W11597   5.485   9.474   0.362 -0.1968 -0.0362  0.0193
 7547W        W11598   8.877   4.856   0.394 -0.0661  0.0809 -0.1837
 7548W        W11599   9.170   2.159  12.868 -0.3413  0.0609  0.0364
 7549W        W11600   8.012   0.864   0.799  0.1487 -0.1835  0.2263
 7550W        W11601   3.373   9.865   0.667  0.2156 -0.0316 -0.2405
 7551W        W11602   9.183   0.028  12.688  0.2971 -0.0571 -0.0732
 7552W        W11603   2.644   2.260  11.266  0.3201  0.0447  0.0295
 7553W        W11604   9.946   6.366  11.579  0.1114  0.2491  0.0435
 7554W        W11605   7.484   9.761  11.369 -0.0847 -0.1000 -0.4734
 7555W        W11606   2.441   2.116  10.370 -0.0198  0.1141  0.0180
 7556W        W11607   5.864   0.727  12.672  0.0721  0.1239  0.2847
 7557W        W11608   5.667   8.625  13.290 -0.0875  0.0350  0.1361
 7558W        W11609   3.413   0.745   1.378  0.0763 -0.0485  0.1849
 7559W        W11610  10.288   9.519   3.340 -0.0264  0.2844 -0.0341
 7560W        W11611   5.035   3.109   2.521  0.0824  0.1404  0.1078
 7561W        W11612   8.954   0.623   1.506  0.3365  0.1666  0.0863
 7562W        W11613   4.345   5.316   4.127  0.0274 -0.1098 -0.0396
 7563W        W11614   6.057   3.236   3.632 -0.0443  0.0422  0.1220
 7564W        W11615   7.496   1.910  12.733  0.1164  0.1948  0.1503
 7565W        W11616   5.907   6.383   4.155  0.0424  0.0238 -0.2201
 7566W        W11617   5.952  10.172   3.643  0.0873  0.3790 -0.0561
 7567W        W11618   2.064   9.716  10.568  0.1279 -0.0044 -0.0493
 7568W        W11619   4.996   3.375  12.320  0.1966  0.0468  0.0321
 7569W        W11620   4.093   0.629   3.229 -0.2779 -0.1329  0.0119
 7570W        W11621   0.529   1.469   0.831  0.2087 -0.3035  0.1187
 7571W        W11622   8.944   7.203   4.622 -0.0836 -0.1860 -0.0820
 7572W        W11623   2.455   9.212  12.696  0.1827 -0.1328 -0.1396
 7573W        W11624   2.567   1.012  12.802  0.0799 -0.0802  0.0833
 7574W        W11625   1.731   2.006   9.169 -0.0395 -0.0833  0.1900
 7575W        W11626   1.709   7.164   1.151 -0.0860  0.0094  0.0384
 7576W        W11627   8.059   4.120   4.015 -0.0789  0.0242 -0.0092
 7577W        W11628   6.679   5.151   1.448 -0.1229 -0.0575 -0.0549
 7578W        W11629   0.651   7.667  10.471 -0.2134 -0.2768 -0.1541
 7579W        W11630   7.236   6.038  11.385  0.0793 -0.4818 -0.4693
 7580W        W11631   3.285  10.308  10.386  0.2545 -0.0218 -0.1772
 7581W        W11632   6.784   5.627   3.150  0.2338  0.2445  0.0298
 7582W        W11633   6.842   7.330   3.832 -0.0564  0.1204 -0.0565
 7583W        W11634   6.516   4.333   1.493 -0.1433 -0.0198  0.3264
 7584W        W11635   9.854   6.472   1.904 -0.0470 -0.1891 -0.0025
 7585W        W11636   9.394   6.544   2.142  0.1625 -0.1834  0.2775
 7586W        W11637   6.436  10.223   2.657  0.0183  0.0636  0.2637
 7587W        W11638   0.054   7.797   0.324  0.0421 -0.3097  0.1828
 7588W        W11639   9.690   5.669  12.207  0.2232 -0.2877 -0.1053
 7589W        W11640   4.573   5.630  10.621  0.0430  0.1544 -0.1340
 7590W        W11641   1.318   5.588   1.525  0.0774  0.1948  0.0163
 7591W        W11642   7.054   2.239  12.551 -0.4362  0.3050  0.2715
 7592W        W11643   1.229   2.771   0.480  0.0211 -0.3579 -0.0210
 7593W        W11644   8.490   7.550  10.672 -0.2636  0.2063 -0.2563
 7594W        W11645   9.929   0.526   4.307  0.3532  0.2344 -0.0613
 7595W        W11646   9.423   1.517   9.848  0.4277 -0.1038  0.2944
 7596W        W11647   8.776   4.383   2.956  0.3415  0.0232  0.0058
 7597W        W11648   6.036   2.079  13.156  0.0028 -0.0666  0.0107
 7598W        W11649   5.968   3.244   1.860 -0.0324  0.1270  0.1507
 7599W        W11650  10.077   1.026  12.759  0.1298 -0.0054 -0.4146
 7600W        W11651   3.931   7.443  11.543  0.0303  0.1121 -0.0574
 7601W        W11652   4.036   8.493   0.654 -0.1854  0.2213  0.0322
 7602W        W11653   5.009   5.090  11.095 -0.1664  0.0148  0.0050
 7603W        W11654   2.383   4.426  12.918 -0.1565  0.1750  0.0460
 7604W        W11655   2.234   9.415   3.471  0.1373  0.2700 -0.2647
 7605W        W11656   0.977  10.012   9.675  0.1918  0.0221  0.0700
 7606W        W11657   4.448   0.478  13.057 -0.0763  0.1542 -0.1604
 7607W        W11658   0.670   5.005   9.069 -0.1778  0.3910  0.0461
 7608W        W11659   9.425   5.256  13.027 -0.0276  0.0633 -0.0874
 7609W        W11660   5.295   7.702  12.295 -0.1354  0.1812  0.1387
 7610W        W11661   4.525   0.651  12.590  0.0390 -0.1674  0.0141
 7611W        W11662   2.192   1.690   1.417  0.1062  0.0713 -0.2967
 7612W        W11663   0.409   1.515   1.360  0.3164  0.0777  0.1810
 7613W        W11664   9.222   5.740   0.348  0.1614 -0.1046 -0.0183
 7614W        W11665   2.384   8.931   0.071 -0.3458  0.2163  0.0525
 7615W        W11666   1.313   8.583  10.653 -0.1279 -0.1318 -0.0621
 7616W        W11667   3.112   0.929   5.483  0.0517  0.0832  0.0234
 7617W        W11668   5.262   1.961  10.395 -0.3012  0.3113  0.1018
 7618W        W11669   3.525   3.382   3.957  0.0711 -0.4175  0.2030
 7619W        W11670   8.973   4.451  11.007  0.0833 -0.1399  0.0179
 7620W        W11671   7.683   7.416   2.504  0.3530  0.2938 -0.1400
 7621W        W11672   6.430   9.201   3.483 -0.1518  0.4206  0.2232
 7622W        W11673   6.263   0.794   1.407  0.0967 -0.0002  0.0697
 7623W        W11674   7.344   4.115   4.558 -0.0407  0.0373 -0.0015
 7624W        W11675   1.374   8.521   0.585  0.1167 -0.0974  0.3597
 7625W        W11676   8.110   9.349  12.414  0.1399  0.2182  0.1183
 7626W        W11677   3.379   4.109  11.181  0.1670  0.1015  0.0817
 7627W        W11678   6.074   6.965  11.984  0.0385  0.0341  0.1059
 7628W        W11679   5.898   3.167  12.484 -0.0628 -0.0676 -0.0489
 7629W        W11680   8.435   6.766   2.056  0.0325 -0.1553 -0.0542
 7630W        W11681   2.068   0.356   4.304 -0.2975  0.1005  0.2202
 7631W        W11682   7.656   9.640   0.851  0.0063 -0.1075 -0.3762
 7632W        W11683   2.885   0.058  12.989  0.0239  0.1261 -0.1918
 7633W        W11684   0.089   0.158  12.490 -0.1470  0.1155 -0.2794
 7634W        W11685   2.463   2.010   2.793 -0.2386 -0.1571 -0.1527
 7635W        W11686   1.386   2.527  12.143 -0.1091 -0.0314 -0.3369
 7636W        W11687   1.365   7.403   1.585 -0.2666 -0.0354 -0.4210
 7637W        W11688   2.173   1.561  12.214  0.1533 -0.1959  0.0699
 7638W        W11689   5.020   1.099   3.090  0.0296  0.2228  0.1796
 7639W        W11690   5.448   9.846  11.045 -0.0196  0.3312  0.2766
 7640W        W11691   3.932   5.207  12.341  0.0510  0.2705  0.0184
 7641W        W11692   5.938   2.899   2.639 -0.1615  0.3019 -0.2668
 7642W        W11693   6.172   0.047  10.260  0.0604  0.1851 -0.1812
 7643W        W11694   8.209   2.360   2.972 -0.0944  0.2519 -0.1470
 7644W        W11695   5.699   5.801  12.734 -0.0205  0.0710 -0.3551
 7645W        W11696   2.857   1.367  11.429  0.1280 -0.1589 -0.1494
 7646W        W11697   1.315   3.822   4.454 -0.1410 -0.0167  0.1679
 7647W        W11698   2.617   3.246   2.501 -0.1727  0.1875 -0.1136
 7648W        W11699   9.292   2.322   2.548  0.0172 -0.0933  0.3222
 7649W        W11700   7.444   8.336   3.487  0.1108  0.2273  0.1509
 7650W        W11701   9.188   8.066   5.230  0.0609 -0.0718  0.0986
 7651W        W11702   4.075   9.806  10.291 -0.0026  0.2574 -0.1733
 7652W        W11703   6.665   1.172   1.543  0.1178  0.2434 -0.1080
 7653W        W11704   1.792   0.968  10.076  0.2992 -0.2900  0.2325
 7654W        W11705   0.777   1.570   4.413 -0.0880  0.0052  0.2784
 7655W        W11706   2.721   1.292  10.964 -0.3022  0.0839  0.0064
 7656W        W11707   1.245   9.425   1.475  0.0294 -0.1722 -0.1155
 7657W        W11708   9.643   1.586   9.345  0.0420  0.0276  0.3042
 7658W        W11709   4.182  10.260  10.114  0.1955 -0.0680  0.0320
 7659W        W11710   5.473   1.183   2.301 -0.0945 -0.2424 -0.5161
 7660W        W11711   6.970   7.306  11.988 -0.0205 -0.1721  0.1100
 7661W        W11712   2.905   6.280  10.676 -0.2905 -0.3896  0.3052
 7662W        W11713   8.952   4.392  10.551 -0.0256  0.1142 -0.0505
 7663W        W11714   1.561   2.157   1.174  0.0655 -0.2888 -0.1468
 7664W        W11715   1.021   0.485   0.401  0.2451  0.1116  0.2116
 7665W        W11716   8.939   6.396  11.072 -0.3715 -0.0563  0.0711
 7666W        W11717   1.492   8.529  11.320 -0.0465  0.1050 -0.6928
 7667W        W11718   0.958   7.675   0.035  0.2329  0.1171  0.0319
 7668W        W11719   4.326   2.847   3.973 -0.3496 -0.1662 -0.1221
 7669W        W11720   3.515   0.121   2.742  0.0742 -0.1484 -0.0258
 7670W        W11721   1.154   9.409   0.375 -0.1043 -0.0287 -0.0079
 7671W        W11722   0.671   6.876  12.542 -0.0321  0.0187  0.4497
 7672W        W11723   3.869   3.054   0.785 -0.2303 -0.1153  0.1764
 7673W        W11724  10.113   7.512   8.865 -0.0581 -0.2451  0.0875
 7674W        W11725   8.897   1.148   0.410 -0.3095  0.2213  0.1933
 7675W        W11726   1.459   7.066  12.467  0.4206 -0.2327 -0.3747
 7676W        W11727   9.381   3.826   1.746 -0.4791  0.0391  0.2945
 7677W        W11728   9.842   5.373   2.806  0.0584 -0.1324  0.3225
 7678W        W11729   3.493   9.580   2.248 -0.1175  0.2190  0.3508
 7679W        W11730  10.169   0.016   4.615 -0.1397  0.1071  0.1044
 7680W        W11731   8.207   2.383   5.065 -0.0840 -0.1224  0.2869
 7681W        W11732   2.823   5.025   0.957 -0.1699 -0.1519  0.0987
 7682W        W11733   0.304   2.264  12.462 -0.0092 -0.2863 -0.0959
 7683W        W11734   4.490   2.264   0.481 -0.2492 -0.1258 -0.2311
 7684W        W11735   6.231   1.739  11.646 -0.0545  0.1435 -0.0189
 7685W        W11736   9.655   3.727  10.870 -0.2355 -0.2337 -0.1049
 7686W        W11737   7.621  10.054   1.736 -0.0445  0.3165  0.1109
 7687W        W11738   6.797   3.971  12.354  0.1807 -0.1015  0.1141
 7688W        W11739   4.171   8.925   0.159  0.0336  0.0952 -0.3524
 7689W        W11740   8.756   6.391   3.589 -0.0181  0.1061 -0.0860
 7690W        W11741   8.563   0.737   4.786 -0.0970 -0.1830  0.1719
 7691W        W11742   1.642   5.562   8.656  0.2131 -0.0146 -0.5420
 7692W        W11743   6.303   7.149  13.159 -0.2371  0.0902 -0.2330
 7693W        W11744   5.823   4.968   9.562 -0.0219  0.0231  0.0738
 7694W        W11745   6.202   4.673   9.647  0.1565 -0.0180  0.1227
 7695W        W11746  10.337   6.584   2.102  0.0540 -0.0107 -0.0963
 7696W        W11747   9.019   6.744  10.116  0.0497 -0.0968 -0.2545
 7697W        W11748   1.727   1.308   3.386  0.2511 -0.1434 -0.1092
 7698W        W11749   7.368   1.912   1.257  0.0770  0.0362  0.0593
 7699W        W11750   5.952   1.181   0.120 -0.0151 -0.2390  0.0481
 7700W        W11751   3.784  10.004   2.325  0.1139  0.0254  0.0218
 7701W        W11752   2.574  10.101   9.690 -0.1037 -0.1434 -0.0019
 7702W        W11753   7.822   7.038  11.800  0.0066 -0.1448  0.0010
 7703W        W11754   3.015   0.399   5.745 -0.3645 -0.0765 -0.0242
 7704W        W11755   9.583   5.130   2.300  0.1968  0.2503 -0.5386
 7705W        W11756   5.944   6.483  10.996  0.0105  0.1118  0.1980
 7706W        W11757   9.574   8.866   9.822  0.0950 -0.2187 -0.1176
 7707W        W11758   9.519   4.782   3.874 -0.0686 -0.0757  0.1453
 7708W        W11759   0.491   5.391   0.855 -0.0238  0.3197 -0.0244
 7709W        W11760   6.101   3.359   2.594 -0.2130  0.0463 -0.0954
 7710W        W11761   8.218  10.197  11.779  0.1135  0.0284 -0.0575
 7711W        W11762   8.001   1.031   3.562 -0.1908 -0.2334  0.0969
 7712W        W11763   0.360   0.569   0.849  0.1006 -0.2842  0.1364
 7713W        W11764   9.863   1.916   9.792  0.1777  0.0832 -0.2960
 7714W        W11765   3.680   2.450  10.850 -0.0724  0.0515  0.1925
 7715W        W11766   7.304   7.705   2.930  0.1253  0.1738  0.1589
 7716W        W11767   3.379   6.464   9.588 -0.2092 -0.1681 -0.0882
 7717W        W11768   4.847  10.194  12.541 -0.3764 -0.2013  0.0685
 7718W        W11769   0.931   6.073  11.071  0.0911 -0.0957  0.3371
 7719W        W11770   0.451   1.453   4.802 -0.1447  0.1553  0.2317
 7720W        W11771   3.946   7.846   9.164 -0.1047  0.0149  0.0746
 7721W        W11772   5.175   6.050   2.497 -0.0564 -0.0321 -0.0214
 7722W        W11773   5.648   3.917   9.931 -0.1109 -0.0374 -0.2667
 7723W        W11774   1.207   5.207  12.314 -0.0536  0.0218  0.2329
 7724W        W11775   0.430   2.175   1.700 -0.0766  0.0121 -0.0080
 7725W        W11776   4.380   8.155  13.188 -0.1785 -0.1790 -0.2290
 7726W        W11777   7.675   6.803  11.238  0.1031 -0.2129  0.0038
 7727W        W11778   8.906   3.288   4.063 -0.1125 -0.1883 -0.1073
 7728W        W11779   2.306   1.355   4.346 -0.0564  0.1292  0.1848
 7729W        W11780   1.617  10.202  12.755 -0.1319  0.2208 -0.0076
 7730W        W11781  10.426   5.780  10.298  0.1441  0.0925  0.1252
 7731W        W11782   1.725   1.429  13.037  0.0151 -0.1474 -0.0016
 7732W        W11783   1.973   7.736   2.814 -0.2131  0.1314  0.2026
 7733W        W11784   9.206   8.563   0.604  0.0106 -0.2068  0.0440
 7734W        W11785   5.657   5.014   1.635  0.1414 -0.1786 -0.0104
 7735W        W11786   9.411   9.362  12.019  0.1808  0.1364 -0.1104
 7736W        W11787   8.680   9.238   3.764  0.2919 -0.3212  0.3839
 7737W        W11788   2.521   6.182   3.114 -0.1874  0.3991 -0.2631
 7738W        W11789   8.298   4.303   2.207 -0.1142  0.2509  0.2898
 7739W        W11790   9.377   9.717  12.434 -0.1473  0.0292  0.0790
 7740W        W11791   3.105   8.063  10.852  0.1735  0.1209 -0.5502
 7741W        W11792   8.904   7.904  13.049  0.1791 -0.0621  0.0334
 7742W        W11793   8.586   5.962   4.366  0.0442  0.0961 -0.2341
 7743W        W11794   0.399   1.204   9.373 -0.2090 -0.1533 -0.2944
 7744W        W11795   4.736   4.837  12.529  0.2940  0.0301 -0.1309
 7745W        W11796   1.811   2.744   2.989 -0.2069  0.0950  0.1978
 7746W        W11797   8.243   6.836   1.619 -0.0702  0.0242  0.1132
 7747W        W11798  10.379   2.015   9.659 -0.1657 -0.2381 -0.2440
 7748W        W11799   9.206   0.037   4.774 -0.5183  0.1279 -0.0055
 7749W        W11800   8.163   1.236   4.507  0.1947  0.0709  0.1150
 7750W        W11801   3.686  10.324   3.328  0.3119  0.0071  0.0589
 7751W        W11802   4.591   7.191   0.629  0.1963 -0.1859 -0.3293
 7752W        W11803   9.852   3.568   5.037  0.0966 -0.0920 -0.0446
 7753W        W11804   8.736   7.289   1.614 -0.3071  0.3069 -0.0039
 7754W        W11805   4.625   9.575  11.855 -0.1598 -0.1027  0.1374
 7755W        W11806   2.202   6.404   3.990 -0.1657 -0.0089  0.1283
 7756W        W11807   1.463   0.180   3.890 -0.2245 -0.0298  0.1928
 7757W        W11808   5.737   3.976  11.467 -0.2284  0.0751 -0.1634
 7758W        W11809  10.082   4.177   9.759 -0.2756  0.0792  0.3175
 7759W        W11810   4.335   3.848  11.348  0.1411 -0.1721  0.1560
 7760W        W11811   8.283   3.121   1.323  0.3241  0.1767 -0.0033
 7761W        W11812   8.343   3.015  10.534  0.1037  0.1290  0.1185
 7762W        W11813   3.504   3.679  11.772  0.2391 -0.1086 -0.0317
 7763W        W11814   8.290   1.076   2.812  0.1844  0.1187 -0.1084
 7764W        W11815   4.226   3.606   3.517  0.0562  0.1563 -0.0025
 7765W        W11816   7.701   3.737   4.330  0.1245 -0.0272 -0.0535
 7766W        W11817  10.324   0.711   1.758  0.3581  0.0975 -0.1122
 7767W        W11818   6.240   0.938   4.986 -0.1190  0.2731  0.1509
 7768W        W11819   9.531   1.549   4.156  0.1747  0.1860  0.1117
 7769W        W11820   1.258   6.766   3.917 -0.0897 -0.0725 -0.2585
 7770W        W11821   2.734   6.739   0.385 -0.2499  0.0819 -0.0051
 7771W        W11822   7.146   9.965   0.330 -0.0148  0.0501  0.0039
 7772W        W11823   9.653   2.019   4.009  0.0830  0.1791 -0.2162
 7773W        W11824   6.834   9.609   0.101 -0.0413  0.2870 -0.3245
 7774W        W11825   8.821   7.694   2.049  0.1668  0.1903 -0.1800
 7775W        W11826   6.925   7.680   0.121 -0.0058  0.4048  0.0075
 7776W        W11827   0.669   0.136   4.625  0.3354 -0.4921 -0.0920
 7777W        W11828   1.957   4.514   4.305  0.0613 -0.1382  0.2808
 7778W        W11829   3.348   2.174  10.298 -0.0438  0.1508 -0.1191
 7779W        W11830   9.926   1.263   3.914  0.1573 -0.0828  0.0622
 7780W        W11831   0.557   8.768  12.504  0.1871 -0.3070  0.0349
 7781W        W11832   2.202   1.021  10.894 -0.0726 -0.0488 -0.0840
 7782W        W11833   5.832   0.747  10.997 -0.1621  0.2150  0.0364
 7783W        W11834   2.672   7.380   3.250 -0.1176  0.1013 -0.2227
 7784W        W11835   4.790   0.991   1.400 -0.1308  0.0015 -0.3577
 7785W        W11836   8.223   6.248   2.149 -0.2471  0.1133  0.0201
 7786W        W11837   4.286   0.492   2.812 -0.4106 -0.1977  0.0556
 7787W        W11838   9.283   1.227   3.215 -0.0161  0.2821  0.0435
 7788W        W11839   7.706   9.577  13.227 -0.0448 -0.2694 -0.0907
 7789W        W11840   5.528   4.854   1.158 -0.1507  0.0282  0.1577
 7790W        W11841   4.764   1.332   4.082  0.2864 -0.0387  0.0193
 7791W        W11842   9.135  10.403  10.716 -0.2147  0.0331 -0.2225
 7792W        W11843   4.271   9.352   4.264  0.0742 -0.0064 -0.2231
 7793W        W11844   8.279   0.673   0.095 -0.0890 -0.0818 -0.1555
 7794W        W11845   6.905  10.323   2.164 -0.0341  0.0096  0.1028
 7795W        W11846   7.611   0.298  10.308  0.0019  0.1080 -0.1234
 7796W        W11847   8.629   6.029   4.826 -0.1465 -0.1115 -0.0977
 7797W        W11848   3.159   0.617   3.441  0.2106 -0.2870  0.0240
 7798W        W11849   3.949   3.512   2.636 -0.1787  0.3835 -0.1657
 7799W        W11850   0.441   8.221   2.201 -0.1233 -0.0625 -0.0396
 7800W        W11851   1.813   2.444  12.948  0.0032  0.0051 -0.2839
 7801W        W11852   9.887   1.441  13.044 -0.0453  0.2543  0.2416
 7802W        W11853   6.788   8.923   3.245  0.0401  0.1022  0.0033
 7803W        W11854   1.964   9.026  12.129  0.0742  0.1704 -0.2307
 7804W        W11855   9.832   7.829  10.496  0.1824 -0.3341  0.1157
 7805W        W11856   7.625   4.672   0.968 -0.1088  0.1988 -0.1238
 7806W        W11857   4.462   7.902  11.587 -0.0797 -0.1261 -0.0535
 7807W        W11858   5.020  10.185   1.086 -0.0969  0.0621  0.3675
 7808W        W11859   7.587   9.409  12.305  0.3413  0.1331  0.1257
 7809W        W11860   8.509   3.367   4.918 -0.0345 -0.1621 -0.0146
 7810W        W11861   6.127   1.527   1.750  0.6505  0.2115 -0.1911
 7811W        W11862   5.349   5.773   0.655  0.1604 -0.0539 -0.0782
 7812W        W11863   4.999   8.885   4.514  0.0915 -0.0922 -0.0256
 7813W        W11864   6.566   7.898   3.102 -0.1581 -0.0139 -0.2863
 7814W        W11865   1.707   8.981  10.254  0.1635 -0.1785 -0.0371
 7815W        W11866   2.012   0.476   0.674  0.1422  0.1909 -0.0707
 7816W        W11867   7.461   7.891   4.222  0.1432 -0.1499 -0.2240
 7817W        W11868   9.302   3.521  13.308 -0.1814 -0.3530  0.0288
 7818W        W11869   2.082   5.509   0.627 -0.0234  0.1019  0.1741
 7819W        W11870   0.828   4.934   1.932 -0.0965 -0.3851  0.2665
 7820W        W11871   5.403   5.426  11.932 -0.0490  0.0046  0.2658
 7821W        W11872   1.255   4.846   3.647 -0.0404 -0.2145 -0.1077
 7822W        W11873   2.116   8.499  11.015 -0.1635 -0.1232 -0.2016
 7823W        W11874   2.114   0.282   3.353  0.0940 -0.0379 -0.0157
 7824W        W11875   0.744   2.668   2.278  0.2139  0.0949 -0.0726
 7825W        W11876   2.378   4.028   3.776  0.1086  0.0907  0.1019
 7826W        W11877   4.793   0.679   1.793 -0.0436 -0.0032 -0.1477
 7827W        W11878   5.068   8.409  12.496 -0.2175  0.0640 -0.3909
 7828W        W11879   7.656   0.345  11.230  0.2556 -0.2259  0.2087
 7829W        W11880   0.296   3.809   2.850  0.0837 -0.0057 -0.1805
 7830W        W11881   6.646   4.196  10.408 -0.0387 -0.1270 -0.0490
 7831W        W11882   5.490   6.496   5.019  0.1365  0.1535  0.0949
 7832W        W11883   5.212   0.454  11.948  0.1242  0.1327 -0.0561
 7833W        W11884   8.858   4.644   9.895  0.3466 -0.0695 -0.1423
 7834W        W11885   2.470   8.475  10.576 -0.0304  0.2073 -0.4947
 7835W        W11886   6.309   8.645   3.711 -0.0230  0.1604 -0.1276
 7836W        W11887   5.542   7.439  12.747 -0.4310 -0.0997  0.4698
 7837W        W11888   5.293   4.926  10.704  0.1558  0.1110 -0.0674
 7838W        W11889   1.798   5.690   2.580  0.2657  0.0864 -0.2834
 7839W        W11890   1.639   4.043  10.534  0.1863 -0.0420  0.1740
 7840W        W11891   8.911   8.343   3.457 -0.0323  0.2198 -0.1468
 7841W        W11892   2.462   1.860  11.749  0.0679  0.0449  0.2142
 7842W        W11893   4.559   7.728  12.063  0.0634 -0.4851 -0.0075
 7843W        W11894   2.946   8.235  12.593  0.0771 -0.1482  0.0359
 7844W        W11895   4.958   4.387   3.662 -0.1951 -0.1116  0.1606
 7845W        W11896   9.252   4.517   1.134 -0.2390  0.3246  0.0895
 7846W        W11897   8.576   8.967  10.154  0.2116 -0.1718  0.2654
 7847W        W11898   2.993   3.722  11.022 -0.3636  0.2023  0.0852
 7848W        W11899   8.829   5.825  12.064 -0.3065 -0.0690 -0.1808
 7849W        W11900   3.139   5.772  12.024 -0.1085 -0.1574  0.0077
 7850W        W11901   7.862   0.881   3.052  0.1251 -0.0362 -0.0335
 7851W        W11902   4.741   2.108  12.879 -0.1837 -0.3976 -0.1656
 7852W        W11903   6.362   3.098   3.187 -0.0160 -0.0627 -0.1306
 7853W        W11904   0.738   6.463   2.201 -0.2034  0.4429  0.0047
 7854W        W11905   2.365   4.740   9.416  0.1868 -0.1096  0.1808
 7855W        W11906   4.205   2.745   4.807  0.0171 -0.0204 -0.2453
 7856W        W11907  10.381   4.696  12.556 -0.0036  0.1495  0.0471
 7857W        W11908   0.108   1.325  12.675  0.2694  0.0508  0.0245
 7858W        W11909   9.250   0.840  13.296 -0.4056  0.0262  0.0509
 7859W        W11910   6.834   0.059   3.631 -0.1466 -0.3046  0.1184
 7860W        W11911   8.740   2.250   4.682  0.2455 -0.1933  0.1343
 7861W        W11912   6.833  10.248   4.053  0.0904  0.0860  0.4229
 7862W        W11913   9.459   6.767  10.782  0.2083 -0.1488 -0.1494
 7863W        W11914   4.365   1.506   3.758 -0.1104 -0.0948  0.0276
 7864W        W11915   7.044   8.070   2.731 -0.0564 -0.0097  0.1122
 7865W        W11916   4.040  10.037   1.406 -0.2022 -0.0203 -0.0288
 7866W        W11917   4.432   6.841  13.203  0.0754 -0.0945  0.0617
 7867W        W11918   0.001   2.079  11.456  0.2037  0.1047 -0.0895
 7868W        W11919   9.217   0.140   0.183  0.1202 -0.4024 -0.1667
 7869W        W11920   8.885   9.130  11.820  0.0629 -0.1028  0.0531
 7870W        W11921   9.677   7.488   9.199  0.1455 -0.1239  0.1683
 7871W        W11922   5.062   0.630  11.399  0.0956  0.2819 -0.2475
 7872W        W11923   6.601   1.412  12.549 -0.2279  0.0397 -0.3032
 7873W        W11924   8.616   2.428   9.365 -0.0836 -0.0367  0.5204
 7874W        W11925   6.782   3.498   9.867 -0.3070 -0.0302  0.0680
 7875W        W11926   8.075   6.222   9.519  0.0608 -0.0948  0.5393
 7876W        W11927   4.657   7.691   2.280 -0.1617 -0.0575  0.0663
 7877W        W11928   4.426   2.549   3.560 -0.0283  0.2225 -0.1170
 7878W        W11929   1.199   7.566   2.988  0.2484  0.0443 -0.0684
 7879W        W11930   4.318   5.166  11.230  0.0871  0.0235  0.3110
 7880W        W11931   6.720   7.627   2.671 -0.2133  0.1678 -0.1739
 7881W        W11932   0.081   4.172   3.232 -0.1357  0.1394  0.0964
 7882W        W11933   3.701  10.045   8.829 -0.0199  0.2388  0.1637
 7883W        W11934   7.511   0.916  12.536 -0.0443 -0.2784 -0.0804
 7884W        W11935   3.605   6.520   2.950  0.1329 -0.0243 -0.0744
 7885W        W11936   7.558   0.574   9.890  0.0569  0.0790 -0.1519
 7886W        W11937   9.485   5.654   1.380 -0.0635  0.3689  0.3204
 7887W        W11938   4.837   5.186  10.514  0.1411  0.3206  0.2368
 7888W        W11939   2.431   7.870   4.148  0.2220  0.0307  0.2231
 7889W        W11940   0.105   2.355   8.733 -0.3611 -0.0006 -0.1069
 7890W        W11941   4.257   9.341  11.190  0.0001 -0.0271  0.0722
 7891W        W11942  10.355   3.865   1.903  0.0853  0.1460  0.2082
 7892W        W11943   8.498   4.993  11.596  0.2540  0.0173  0.1578
 7893W        W11944   5.806   7.537   9.660 -0.1425  0.0044 -0.0041
 7894W        W11945   5.313   6.664  11.569  0.0509  0.0756  0.0477
 7895W        W11946   2.080   6.442   3.057 -0.1872 -0.2032 -0.2637
 7896W        W11947  10.012   0.200  12.434  0.2271 -0.1751 -0.0749
 7897W        W11948   9.205   5.412  10.436 -0.3244  0.0968  0.1775
 7898W        W11949   8.107   0.578   3.803 -0.2623  0.1838  0.2461
 7899W        W11950   6.652   2.630   4.542 -0.0526  0.1279  0.0997
 7900W        W11951   1.662   5.058   9.863  0.0400  0.2723  0.3373
 7901W        W11952   5.029   2.022   2.368 -0.0013 -0.0171 -0.1637
 7902W        W11953   0.124   0.593   0.016  0.1196 -0.0031 -0.2004
 7903W        W11954   5.630   1.513   0.601 -0.2043  0.2220 -0.2337
 7904W        W11955   0.825   1.078   4.655  0.1592 -0.0833 -0.2303
 7905W        W11956   5.711   1.898   2.857  0.0071 -0.2389 -0.2723
 7906W        W11957  10.167   0.720  13.167  0.0226 -0.1559  0.1440
 7907W        W11958   6.895   7.498   5.482  0.1899 -0.1820  0.1715
 7908W        W11959   5.978   3.549  12.797  0.0960 -0.1034  0.0139
 7909W        W11960   0.376   6.208  12.037  0.3176 -0.1691 -0.0451
 7910W        W11961   0.941   4.424   1.802 -0.0294  0.1508  0.2432
 7911W        W11962   6.938   6.836   0.463  0.1605  0.1021 -0.2192
 7912W        W11963   9.377   8.328  11.906  0.1999 -0.1948 -0.1574
 7913W        W11964   1.612   6.283   0.032  0.1726 -0.0711 -0.0613
 7914W        W11965   1.258   0.609   9.523  0.2878 -0.3248  0.0199
 7915W        W11966   3.756   8.661  11.671 -0.0526 -0.2319 -0.2666
 7916W        W11967   1.226   1.678  13.014 -0.3868 -0.0104  0.1233
 7917W        W11968   5.987   3.848   2.697 -0.1126  0.1765 -0.1822
 7918W        W11969   3.320   1.006   0.963  0.1549  0.2000 -0.1751
 7919W        W11970   6.973   1.439   3.728  0.2008  0.2174 -0.1555
 7920W        W11971   8.280   8.487   5.635 -0.3414  0.1191 -0.2591
 7921W        W11972   5.478   2.985  12.156  0.4296  0.4428  0.1548
 7922W        W11973   1.142   8.740   4.114  0.3524  0.0392 -0.1692
 7923W        W11974   6.593  10.006   3.657 -0.0973  0.0611  0.2113
 7924W        W11975   0.128   4.544   1.467  0.3253 -0.1794  0.5278
 7925W        W11976   6.961   4.194  11.334  0.1037  0.0374  0.1074
 7926W        W11977   0.646   3.392   3.991  0.0237 -0.0910  0.4271
 7927W        W11978   4.621   8.508  10.619 -0.1556  0.3524 -0.0984
 7928W        W11979   1.603   9.458   1.131 -0.0425 -0.1379 -0.1337
 7929W        W11980   7.566   7.320  12.591  0.2106  0.2151  0.2347
 7930W        W11981   1.267   0.563  13.219 -0.2367 -0.0786 -0.0232
 7931W        W11982   7.633   2.614  13.126  0.1114 -0.0156 -0.1025
 7932W        W11983   7.676   0.016   0.473  0.0554 -0.2656  0.1963
 7933W        W11984   1.642   1.323   5.554 -0.3218  0.1012 -0.1794
 7934W        W11985   8.680   6.013  11.189  0.0299 -0.2757  0.0041
 7935W        W11986   8.245   7.121   1.182 -0.1458 -0.3277 -0.4062
 7936W        W11987   6.182   9.131  12.719 -0.1512 -0.0857  0.0832
 7937W        W11988   7.325   1.520   0.914  0.1826 -0.0400  0.1351
 7938W        W11989   3.901   7.906   3.399  0.0523  0.0426  0.0756
 7939W        W11990   6.234   5.102   0.671  0.2455  0.0809 -0.2567
 7940W        W11991   8.354  10.227   4.438 -0.3637  0.1741 -0.0601
 7941W        W11992   1.462   0.360   0.750 -0.1849  0.3902 -0.0248
 7942W        W11993   8.866   6.871   3.548  0.0296 -0.1140  0.0278
 7943W        W11994   8.948   1.411   3.498  0.1081 -0.3071 -0.3773
 7944W        W11995   6.308   9.649   0.976 -0.4534 -0.2135  0.1339
 7945W        W11996   0.441   8.263   3.099 -0.0027 -0.2044  0.2714
 7946W        W11997   4.921   0.650   4.697  0.1142  0.3902  0.1492
 7947W        W11998   2.594   2.114   4.523 -0.1159 -0.2558 -0.1258
 7948W        W11999   2.165   0.769   9.132 -0.0051  0.0510 -0.0856
 7949W        W12000   4.780   2.057   3.310 -0.2363 -0.1917 -0.4644
 7950W        W12001   8.436   9.557   3.339  0.3956  0.0045 -0.4908
 7951W        W12002   2.625   6.468  12.653  0.1194 -0.0851  0.0565
 7952W        W12003   2.836   6.955   0.939 -0.1363 -0.1703  0.0316
 7953W        W12004   2.289   1.094  13.229 -0.1844 -0.0008 -0.1454
 7954W        W12005   5.308   9.367   2.237  0.3626 -0.0858  0.1596
 7955W        W12006   9.784   1.094   3.430 -0.4767  0.0697 -0.0836
 7956W        W12007   4.979   2.468   2.557 -0.1019 -0.1188 -0.2301
 7957W        W12008   0.653   1.617   8.365  0.4413  0.1673  0.0135
 7958W        W12009   4.849   7.137   3.924 -0.2460  0.2240  0.0286
 7959W        W12010   6.959   2.592  13.265  0.2023 -0.0011  0.0423
 7960W        W12011   0.870   3.836   9.838  0.0468 -0.1282 -0.1940
 7961W        W12012   1.148   5.091  10.062  0.5007  0.1314 -0.1547
 7962W        W12013   1.703   2.501   1.907  0.0066 -0.0770  0.1140
 7963W        W12014   7.037   8.569   8.690 -0.0546 -0.0326 -0.0679
 7964W        W12015   2.837   1.926   0.643 -0.0866  0.0604  0.0190
 7965W        W12016   5.235   5.667   2.889 -0.4153  0.1415  0.0009
 7966W        W12017   7.857   9.404   2.595  0.0753 -0.1846 -0.1536
 7967W        W12018   4.532   8.232   0.644 -0.0072  0.0264 -0.1437
 7968W        W12019   9.388   8.756  12.840  0.1652  0.0841 -0.0218
 7969W        W12020   2.522   7.540   1.897  0.1351 -0.0260 -0.2414
 7970W        W12021   0.353   8.392  12.891 -0.0522 -0.1528 -0.1403
 7971W        W12022   9.156   6.828  12.300  0.2114  0.0922  0.0779
 7972W        W12023   9.881   4.532  11.534 -0.1686 -0.3539  0.2392
 7973W        W12024   8.493   9.585   9.377 -0.0014 -0.1267  0.0218
 7974W        W12025   3.495  10.269  12.362  0.0849  0.0209 -0.2264
 7975W        W12026   2.329   8.864  10.234 -0.1190  0.2463  0.0945
 7976W        W12027   4.122   7.037   1.902  0.2004 -0.0395  0.3012
 7977W        W12028   5.418   1.045   2.780 -0.2891  0.0157 -0.0800
 7978W        W12029   9.192   7.126   1.421  0.0088  0.1003  0.0931
 7979W        W12030   8.986   6.099  12.844 -0.2410 -0.0464 -0.3583
 7980W        W12031   3.184   4.279   3.610  0.1152 -0.1362 -0.1101
 7981W        W12032   9.681   9.456   1.691 -0.2741 -0.1472 -0.0403
 7982W        W12033   7.155   6.344   0.032 -0.1252  0.3813  0.1143
 7983W        W12034   4.630   9.010  11.191 -0.2937 -0.0956  0.0740
 7984W        W12035   2.295  10.238   9.243  0.1082 -0.3491 -0.2404
 7985W        W12036   7.127  10.395  12.906 -0.1620  0.2464 -0.1998
 7986W        W12037   3.362   4.266   2.978 -0.1359 -0.0762 -0.2388
 7987W        W12038   6.646   9.269  11.871  0.1572 -0.4274  0.2661
 7988W        W12039   4.723   6.856   2.602 -0.1797  0.2242  0.0208
 7989W        W12040  10.008   5.536  10.127  0.0113  0.0932 -0.0495
 7990W        W12041   4.620   6.453  10.640 -0.0430 -0.1834  0.1013
 7991W        W12042   4.304   3.161  10.419  0.1723 -0.0768  0.0967
 7992W        W12043   4.494   9.759  11.354  0.0360 -0.1291 -0.1845
 7993W        W12044   7.314   1.031   9.196  0.2099 -0.1038  0.0782
 7994W        W12045   0.139   7.718   3.062 -0.0084 -0.0588 -0.0242
 7995W        W12046   7.185   4.556   0.053  0.2658 -0.0295  0.0413
 7996W        W12047   2.609   1.748  11.252 -0.0853  0.2286  0.1754
 7997W        W12048   2.874   6.269  11.231  0.1178  0.0828 -0.3396
 7998W        W12049   9.594   2.685  11.968  0.3333 -0.2542 -0.0226
 7999W        W12050   4.565   2.852  10.685 -0.4068  0.1151  0.1015
 8000W        W12051   5.056   6.910   2.946  0.1114  0.2513  0.0736
 8001W        W12052   2.532   0.713   0.795  0.1748  0.0903  0.0801
 8002W        W12053  10.221   4.745  12.058  0.2997  0.1478 -0.0667
 8003W        W12054   5.576   7.698   3.217  0.1384  0.0431 -0.0614
 8004W        W12055   9.661   3.231  11.063  0.0645  0.1638 -0.2679
 8005W        W12056   9.830   8.962   2.559  0.0376  0.0898  0.1689
 8006W        W12057   3.035   6.277  12.421 -0.0514 -0.1121  0.1556
 8007W        W12058   8.532   9.675  12.393 -0.3339  0.0834  0.1884
 8008W        W12059   4.836   4.087  13.264  0.0299 -0.0716 -0.1711
 8009W        W12060   9.075   4.804  10.272 -0.1420 -0.0010 -0.2354
 8010W        W12061   1.385   0.162   9.693  0.0714 -0.1208 -0.1343
 8011W        W12062   6.562   4.145   3.430 -0.3309  0.5336  0.3123
 8012W        W12063   7.587   8.483   4.491  0.3486 -0.3240  0.0370
 8013W        W12064   0.927   0.438   2.768  0.1351  0.0727 -0.2089
 8014W        W12065   7.292   5.567   3.015  0.4129 -0.3335 -0.1745
 8015W        W12066   9.122   7.616   0.157  0.0779  0.4041 -0.2828
 8016W        W12067   5.907   2.327   3.228  0.1199 -0.2012  0.0219
 8017W        W12068   7.603   1.138   1.052  0.3535  0.1090  0.2028
 8018W        W12069   8.624   1.541   3.040 -0.2119 -0.4038  0.0694
 8019W        W12070  10.353   5.336   1.634  0.1395 -0.0901 -0.0125
 8020W        W12071   5.485   1.834  13.158  0.0118 -0.1305 -0.0508
 8021W        W12072   7.978   2.562   9.356 -0.1921  0.1647 -0.0409
 8022W        W12073   7.693   0.239   8.957  0.3116  0.0478 -0.0480
 8023W        W12074   7.034   8.566   2.982  0.1393  0.1166 -0.3404
 8024W        W12075   5.686   0.026  11.993 -0.1217  0.0331 -0.0229
 8025W        W12076   5.129   4.356   2.411  0.1728 -0.0459  0.0975
 8026W        W12077   9.434   8.525   3.265 -0.4608  0.0593  0.0995
 8027W        W12078   8.663   6.054  12.457  0.0218 -0.1197 -0.1742
 8028W        W12079   3.691   3.071  12.439  0.2247 -0.1316  0.2435
 8029W        W12080   8.028   8.541   9.434 -0.3199 -0.0226 -0.2747
 8030W        W12081   8.846   8.628   1.163  0.2705  0.0930  0.2487
 8031W        W12082   6.510   1.701  11.205 -0.1810 -0.0232  0.0781
 8032W        W12083   6.663   7.841   0.552 -0.1546 -0.1159  0.0065
 8033W        W12084   7.037   6.474   2.004 -0.3617  0.1603 -0.2265
 8034W        W12085   9.865   7.677  11.682  0.1646  0.3028 -0.1696
 8035W        W12086   4.689   3.422   4.076  0.0948 -0.2649  0.1703
 8036W        W12087   2.727  10.224   4.520 -0.2629 -0.1623 -0.0037
 8037W        W12088   3.812   1.657   1.223  0.0235  0.0140 -0.0172
 8038W        W12089   1.241   6.292   3.039 -0.1262 -0.2987 -0.1999
 8039W        W12090   1.807   1.333   2.425  0.3327 -0.2378  0.1058
 8040W        W12091   3.245   8.416   9.686 -0.0868 -0.1257 -0.0651
 8041W        W12092   3.621   7.644  11.857  0.1624 -0.1421 -0.0560
 8042W        W12093   4.688   9.937   4.875  0.2245 -0.2301  0.2713
 8043W        W12094   7.339   2.505   3.796  0.2854 -0.0237  0.2498
 8044W        W12095   9.486   6.819   3.506  0.0730 -0.1258 -0.0519
 8045W        W12096   0.041   5.037   4.060  0.1270 -0.3337 -0.1077
 8046W        W12097   6.381   7.064  10.217 -0.1930  0.0122  0.2232
 8047W        W12098   0.390   7.441   2.669  0.3215 -0.0595 -0.1436
 8048W        W12099   8.135   1.648  11.518 -0.2020  0.4870 -0.0670
 8049W        W12100   0.222   9.769   1.183  0.0645  0.2554 -0.0414
 8050W        W12101   6.082   5.653   0.881 -0.0558  0.1890  0.1055
 8051W        W12102   1.609   6.077   9.503  0.0273  0.0484 -0.0302
 8052W        W12103   9.703   4.130   2.133 -0.1251  0.1717  0.2659
 8053W        W12104   7.313   6.327  12.352  0.0520 -0.1238 -0.0677
 8054W        W12105  10.182   6.673  10.686  0.3786 -0.1355  0.0674
 8055W        W12106   3.100   7.732   2.301  0.1059  0.1592  0.3909
 8056W        W12107   6.839   9.771   2.191 -0.1733 -0.5861 -0.0834
 8057W        W12108   4.939   3.402  10.905 -0.0315 -0.1893 -0.0662
 8058W        W12109   0.103   3.525   4.339  0.1378 -0.0349  0.0015
 8059W        W12110   5.950   3.072  13.026 -0.0159 -0.1785 -0.0250
 8060W        W12111   7.746   8.936   1.824  0.0705 -0.0905  0.0054
 8061W        W12112   8.664   7.802   4.449 -0.1033  0.0420 -0.0883
 8062W        W12113   5.471   8.720  11.627  0.1128  0.0213  0.1809
 8063W        W12114   5.020   1.209  10.253  0.0208  0.2250 -0.0458
 8064W        W12115   1.417   5.954   2.729 -0.0539  0.0171 -0.0311
 8065W        W12116   4.992   9.287  10.407  0.1182  0.0260  0.0502
 8066W        W12117   5.480   7.331  11.355  0.0300 -0.2988  0.0121
 8067W        W12118   5.193   6.121   3.095  0.0253 -0.0056  0.0382
 8068W        W12119   5.935   7.056   0.567 -0.2217  0.3396 -0.1828
 8069W        W12120   9.108   3.174   1.499  0.2108 -0.0131  0.4324
 8070W        W12121   1.269   0.207  10.328 -0.0208 -0.3288  0.2466
 8071W        W12122   7.401   3.258   1.528 -0.1820  0.0395  0.0907
 8072W        W12123   0.448   0.705  10.631 -0.1936 -0.3079  0.1525
 8073W        W12124   6.480   1.168   3.936 -0.0010  0.1264 -0.2317
 8074W        W12125   6.389   4.773   1.004  0.6426 -0.2032  0.2418
 8075W        W12126   6.496   8.399   9.366  0.2029 -0.0602 -0.0162
 8076W        W12127   2.473   5.530   3.417  0.2033 -0.2518  0.1758
 8077W        W12128   0.229   7.141  12.482 -0.2864  0.2963  0.0852
 8078W        W12129   9.252   5.333   3.778  0.3720 -0.0933 -0.4241
 8079W        W12130   3.832   8.720  10.555 -0.3632  0.1323 -0.0781
 8080W        W12131   5.200   2.074  10.901 -0.4248  0.2125  0.3455
 8081W        W12132   8.741   5.357   3.790 -0.1298  0.0106 -0.1037
 8082W        W12133   7.567   5.709  13.057  0.1166  0.1704  0.2407
 8083W        W12134   7.072   1.529   3.214 -0.0917  0.2526 -0.3335
 8084W        W12135   8.892   9.847   0.440 -0.1906  0.1544 -0.1197
 8085W        W12136   0.438   7.798   0.802  0.2443 -0.1430 -0.1678
 8086W        W12137   8.625  10.418   1.681  0.0298 -0.3160  0.1243
 8087W        W12138   9.111   8.688   2.073 -0.0847 -0.0472  0.0915
 8088W        W12139   8.404   2.616   3.800  0.1797 -0.0523  0.0487
 8089W        W12140   1.848   5.525  11.091  0.0880 -0.1973  0.3031
 8090W        W12141   4.189   9.804  11.859  0.1167  0.1160  0.1083
 8091W        W12142   0.835   4.678   9.983  0.4001  0.1889  0.1505
 8092W        W12143   9.245   9.939   2.381  0.0603  0.1165 -0.0015
 8093W        W12144   2.532   1.773   4.174  0.1197  0.3330 -0.2479
 8094W        W12145   3.688  10.297  12.823  0.0178  0.2112 -0.1305
 8095W        W12146   3.751   2.774   3.066  0.2077  0.1601  0.3872
 8096W        W12147   7.539   0.803   3.691 -0.2442 -0.1590 -0.2155
 8097W        W12148   0.344   7.436  10.800 -0.0673 -0.2248 -0.5304
 8098W        W12149   4.301   1.166   3.358  0.1908  0.0157 -0.0762
 8099W        W12150  10.134   1.867   0.442 -0.0264  0.0707 -0.0028
 8100W        W12151   2.923   4.924  11.882 -0.0770 -0.1530  0.0630
 8101W        W12152   9.811   0.829   2.403  0.4594  0.2244 -0.1670
 8102W        W12153   6.510   4.596  10.067  0.2587  0.2761 -0.0491
 8103W        W12154   2.515   3.790   3.331  0.0668 -0.0827  0.1856
 8104W        W12155   0.075   3.053  11.828 -0.0280  0.0910 -0.0029
 8105W        W12156   5.945   0.406   4.092  0.1259 -0.3095 -0.0651
 8106W        W12157   3.615   0.890   2.063  0.0680  0.4270 -0.2169
 8107W        W12158   4.852   8.818  12.748 -0.0919  0.0517 -0.1053
 8108W        W12159   8.924   1.256   2.793  0.3749 -0.1353 -0.1754
 8109W        W12160   3.221   7.851   1.036  0.0679  0.0560 -0.0985
 8110W        W12161   5.935   5.455   3.686 -0.0896  0.0599 -0.6078
 8111W        W12162   2.313   9.550   2.509 -0.0704 -0.0711  0.1732
 8112W        W12163   8.521   9.968   3.631  0.3610 -0.2523  0.1493
 8113W        W12164   4.605   1.443  10.356 -0.3220  0.2013 -0.1978
 8114W        W12165   1.001   2.440   4.866  0.1084 -0.0132 -0.1756
 8115W        W12166   1.255   4.863   9.111 -0.0097  0.0644  0.1093
 8116W        W12167   9.957   8.974   3.851  0.2324 -0.2023 -0.4658
 8117W        W12168  10.364  10.316   9.800 -0.2696  0.0713 -0.1167
 8118W        W12169   4.741   2.335  12.347  0.1037 -0.0135 -0.1203
 8119W        W12170  10.380   7.268  11.526  0.1995  0.0294  0.0106
 8120W        W12171   8.013   8.899  10.156 -0.1812  0.2597 -0.0898
 8121W        W12172   9.928   2.635  13.199 -0.0678 -0.2995 -0.2333
 8122W        W12173   5.014   0.693  10.382  0.1700 -0.0584  0.1088
 8123W        W12174   3.579   1.241   1.627 -0.0268 -0.2312  0.2272
 8124W        W12175   1.696   9.877   1.901 -0.2514  0.0527 -0.1458
 8125W        W12176   3.392   6.523   1.920  0.0041 -0.0834  0.2630
 8126W        W12177   8.666   3.479   1.323  0.2487  0.1373  0.0867
 8127W        W12178   9.693   6.065  12.564  0.1411  0.1221 -0.2314
 8128W        W12179   1.538   6.894   1.633  0.1438  0.0048  0.0937
 8129W        W12180   0.360   9.730   3.302  0.0760  0.0069  0.3794
 8130W        W12181   8.700   6.936   4.041  0.0076 -0.0144 -0.2617
 8131W        W12182   9.424   3.840   2.897  0.2544 -0.1141 -0.1806
 8132W        W12183   2.497   3.470   1.880  0.1765  0.1565  0.0829
 8133W        W12184   1.465   4.420  12.781 -0.0006 -0.0416 -0.0071
 8134W        W12185   3.466   7.090  11.194  0.0403 -0.0242 -0.3688
 8135W        W12186   0.063   3.177  11.313  0.0072  0.1370  0.2603
 8136W        W12187   3.842   0.543   4.983 -0.3090  0.4631 -0.2542
 8137W        W12188   4.577   1.721   4.633  0.1746 -0.0053  0.0078
 8138W        W12189   0.953   5.257   3.841 -0.2708  0.4280  0.2336
 8139W        W12190  10.156   8.479   9.162 -0.0679  0.2176 -0.0357
 8140W        W12191   0.894   0.098  11.803 -0.1205  0.1547  0.3607
 8141W        W12192   0.248   8.619  11.447  0.1627  0.1554  0.0529
 8142W        W12193   1.041  10.206  13.009 -0.0524 -0.3187 -0.1501
 8143W        W12194   0.225   3.352   0.530 -0.1562 -0.0255  0.3434
 8144W        W12195   7.693   8.122  10.187  0.3824  0.0488 -0.0676
 8145W        W12196   2.341   6.503   2.625  0.2287  0.2791 -0.0807
 8146W        W12197   8.267   5.260  10.792 -0.0376  0.0457 -0.1532
 8147W        W12198   2.644  10.361  10.763 -0.0279  0.0351 -0.1242
 8148W        W12199   7.035   2.064  10.575 -0.2366  0.3218 -0.4099
 8149W        W12200   2.136   5.071   2.018  0.2329  0.3934  0.0332
 8150W        W12201   0.279   0.524  11.763 -0.1293  0.1697  0.2726
 8151W        W12202   9.387   8.100   9.157 -0.2088 -0.5040 -0.2080
 8152W        W12203   0.454   5.422   1.399 -0.0546 -0.0747  0.2401
 8153W        W12204   1.857   7.018  11.243  0.2596 -0.2988  0.2053
 8154W        W12205   9.444   6.236   4.595 -0.0789  0.0621  0.0148
 8155W        W12206   1.792   1.625  11.705 -0.0530 -0.1328 -0.2444
 8156W        W12207   3.660   7.811  12.353 -0.1226 -0.2195  0.0868
 8157W        W12208   3.655   7.125   2.707  0.4160  0.2165  0.1483
 8158W        W12209   0.899   2.573  11.851  0.0287 -0.3068 -0.1035
 8159W        W12210   9.664   1.304  10.280 -0.0601 -0.1951 -0.2963
 8160W        W12211   0.922   7.288  10.215  0.1254  0.1322 -0.5667
 8161W        W12212   8.529   2.570   4.292  0.1710 -0.0810  0.2137
 8162W        W12213   5.293   3.547   2.358 -0.0993 -0.1633 -0.3049
 8163W        W12214   6.210   0.487  10.040  0.1629 -0.1757 -0.1637
 8164W        W12215   5.553   2.964   1.847 -0.1404 -0.2097  0.2803
 8165W        W12216   0.623   2.426   0.152 -0.1863 -0.1724  0.0735
 8166W        W12217   2.725   3.257  10.671  0.1994 -0.4306 -0.5419
 8167W        W12218   8.452   5.487  12.325 -0.4399  0.1933  0.1963
 8168W        W12219   2.327   5.682  10.405  0.0044 -0.1143  0.3186
 8169W        W12220   9.476   8.116   0.374  0.3874  0.1824 -0.0612
 8170W        W12221   5.995   2.373   2.737  0.0827 -0.1730 -0.3816
 8171W        W12222   4.334   8.017   1.967 -0.1019 -0.6094 -0.1401
 8172W        W12223   3.517   6.969   3.680 -0.0320  0.2598 -0.2010
 8173W        W12224   7.537   3.307  12.215 -0.1514 -0.1449 -0.3435
 8174W        W12225   6.411   6.063   9.737  0.2958  0.1050 -0.3231
 8175W        W12226   7.222   9.980  10.838 -0.0886 -0.1600 -0.0938
 8176W        W12227   2.545   8.124   9.150 -0.1060 -0.0538  0.1380
 8177W        W12228   6.698   0.839  12.894 -0.0308 -0.0599 -0.2687
 8178W        W12229   9.583   5.328  12.591 -0.0813  0.0057  0.0726
 8179W        W12230   7.139   5.875   1.326 -0.1397 -0.2174 -0.1537
 8180W        W12231   1.526   3.632   1.776  0.0280 -0.2100 -0.1212
 8181W        W12232   6.588   5.370  12.616 -0.2064 -0.1911 -0.0607
 8182W        W12233   6.560   9.408  10.970  0.1673  0.0107  0.0807
 8183W        W12234   2.483   6.066   1.141 -0.3145 -0.0107  0.1235
 8184W        W12235   3.514   2.792   4.405  0.2134  0.1593  0.3738
 8185W        W12236   4.384   1.864  10.455 -0.1718  0.1481 -0.1689
 8186W        W12237   6.942   9.662   4.940  0.0290  0.0037  0.0000
 8187W        W12238   5.401   6.394   2.188 -0.0895  0.0166 -0.1048
 8188W        W12239   7.972   2.763   4.085 -0.0691  0.0703 -0.2942
 8189W        W12240   1.046   8.789   3.211  0.0340 -0.0703  0.1675
 8190W        W12241   4.965   4.775  10.161  0.1688  0.1173  0.1091
 8191W        W12242   8.424   0.573   1.612  0.0433 -0.1807 -0.1060
 8192W        W12243   1.010   6.813  12.204 -0.1846 -0.1581  0.2872
 8193W        W12244   8.782   7.427   4.176 -0.0031 -0.0618  0.0271
 8194W        W12245   0.146   5.617  10.872 -0.1258 -0.0289 -0.0482
 8195W        W12246   8.862   7.458   3.695  0.0085  0.1701  0.3819
 8196W        W12247   2.716   2.578  10.353  0.1918 -0.2685  0.1182
 8197W        W12248   5.947   6.814  12.422  0.2523 -0.1661  0.0749
 8198W        W12249   8.906   7.220   2.099  0.1247 -0.3014  0.1567
 8199W        W12250   6.273   7.975   4.408 -0.2015  0.1628 -0.0938
 8200W        W12251   8.223   8.633   2.330 -0.1073 -0.2468  0.0051
 8201W        W12252  10.267   5.820   1.260 -0.0733 -0.2482 -0.0105
 8202W        W12253   9.872   7.089  13.116  0.0184  0.1218  0.2856
 8203W        W12254   9.378   6.472  12.508 -0.0913 -0.0089  0.0111
 8204W        W12255   5.253   9.952   4.829 -0.0445 -0.0592 -0.0629
 8205W        W12256   6.791   7.057   1.363 -0.1339 -0.0489  0.1117
 8206W        W12257   8.570   0.252   4.397 -0.1412  0.0372 -0.1531
 8207W        W12258   6.888   3.070   1.580 -0.3765 -0.1295  0.1594
 8208W        W12259   2.510   2.573   9.896 -0.3663 -0.3285  0.1587
 8209W        W12260   0.540   1.564  10.836  0.0149 -0.1035 -0.0592
 8210W        W12261   2.973   0.697  11.477  0.1449 -0.0793 -0.1181
 8211W        W12262   5.411   9.691   1.374 -0.4863 -0.2404  0.2326
 8212W        W12263   4.362  10.369   9.640  0.0714 -0.0498 -0.1677
 8213W        W12264   2.106   2.627  13.330  0.1960  0.0346 -0.2554
 8214W        W12265   7.642  10.115  10.631 -0.1954 -0.1967 -0.0400
 8215W        W12266   4.856   2.784   3.411 -0.0235 -0.0755 -0.1193
 8216W        W12267   4.860   7.215   4.887  0.1576 -0.1129  0.0345
 8217W        W12268   6.016   9.993   9.024  0.0807 -0.2153 -0.3158
 8218W        W12269   4.202  10.234   3.623 -0.0396  0.1268  0.0896
 8219W        W12270   1.913   3.243   3.183  0.2594  0.2833 -0.1517
 8220W        W12271   4.324   6.690   2.428  0.0563  0.1137 -0.0858
 8221W        W12272  10.282  10.022   3.268  0.0099 -0.0949 -0.0100
 8222W        W12273   9.604   0.360   1.511  0.0451  0.2938  0.1369
 8223W        W12274   0.703   0.867  11.013  0.2123  0.2036  0.1054
 8224W        W12275   7.317   7.864  13.074  0.4435 -0.1824 -0.1035
 8225W        W12276   6.443   4.221   2.510 -0.1279  0.1215  0.1311
 8226W        W12277   8.081  10.173   0.360  0.2673 -0.5288  0.0519
 8227W        W12278   5.749   9.594   2.360  0.0744 -0.0220  0.1530
 8228W        W12279   4.306   6.944   1.456  0.0494  0.3583 -0.0130
 8229W        W12280   1.411   3.714   0.455  0.0053 -0.2045 -0.1403
 8230W        W12281   0.530   7.600  12.304  0.2997 -0.6940  0.0613
 8231W        W12282   3.227   2.396   3.693 -0.1691  0.0892 -0.3808
 8232W        W12283   9.611   3.925  13.095 -0.4393  0.1097  0.0431
 8233W        W12284   2.962   1.889  11.591 -0.1068  0.1508  0.0413
 8234W        W12285   2.824   2.759  11.179 -0.1570 -0.2235  0.2157
 8235W        W12286   3.932   4.913   1.259 -0.0783  0.0823  0.0545
 8236W        W12287   5.104   5.991   9.560 -0.1635  0.1901 -0.3872
 8237W        W12288   5.271   4.660   1.575  0.2206 -0.0898  0.1343
 8238W        W12289   9.172   0.504   3.672 -0.1330  0.0138 -0.0472
 8239W        W12290   6.659   5.749   4.625  0.0720 -0.0273 -0.2911
 8240W        W12291   7.397   7.290  13.131  0.1235  0.0665  0.0492
 8241W        W12292   6.953   8.120   0.882 -0.0729 -0.2565 -0.1319
 8242W        W12293   7.725   3.139   5.073 -0.1989 -0.3870  0.2150
 8243W        W12294   8.276   5.930  12.151  0.0295  0.0324 -0.6469
 8244W        W12295   8.926  10.381  13.132  0.0251  0.2757 -0.2422
 8245W        W12296   4.176   3.047   1.588  0.1265  0.1232 -0.0526
 8246W        W12297   7.980   9.932  11.386 -0.0027 -0.0757 -0.2317
 8247W        W12298   6.744   1.033   5.002 -0.3178  0.2490 -0.0867
 8248W        W12299   5.565   0.760  12.274 -0.0215  0.2185  0.2855
 8249W        W12300   5.445   7.352   2.166 -0.0288  0.1954 -0.1275
 8250W        W12301   2.618   8.587  11.876 -0.0943  0.0011 -0.1525
 8251W        W12302   2.930   2.024   4.856  0.0558  0.1254  0.0627
 8252W        W12303   0.772   2.953   0.868  0.0940 -0.2243 -0.1745
 8253W        W12304   5.916   1.065   0.670  0.0849 -0.2561  0.1399
 8254W        W12305   0.436   1.957   4.796  0.0666  0.1059 -0.2689
 8255W        W12306   9.063   5.559   4.221 -0.0343 -0.1367 -0.0174
 8256W        W12307   3.472   4.117   0.322  0.2596 -0.1597 -0.0546
 8257W        W12308   9.148   5.347   0.642  0.3476 -0.0224 -0.1883
 8258W        W12309   9.369   2.750   9.566 -0.1062  0.0842 -0.1694
 8259W        W12310   6.372   7.239   2.572 -0.1517  0.1033 -0.4938
 8260W        W12311   9.372   4.382  12.992 -0.0026 -0.0902  0.2756
 8261W        W12312   8.551   2.486   1.891  0.2651  0.4636 -0.2216
 8262W        W12313   9.196   5.984   9.150  0.0674 -0.4516  0.0155
 8263W        W12314  10.315   1.374   4.169  0.1716 -0.0088 -0.0532
 8264W        W12315   0.026   2.412   9.227 -0.2194 -0.0369  0.0529
 8265W        W12316   2.659   8.345   2.075  0.3735  0.0819  0.0752
 8266W        W12317   8.691   3.238  10.080  0.1825 -0.0446 -0.0373
 8267W        W12318   8.144   5.992   4.723 -0.2690 -0.1006 -0.0071
 8268W        W12319   7.211   1.555  11.835 -0.0723  0.2141 -0.2129
 8269W        W12320   4.287   6.046  10.593 -0.2390  0.1776 -0.2774
 8270W        W12321   5.705   4.496   2.479 -0.2483 -0.2329 -0.1475
 8271W        W12322   3.882   3.858   0.422  0.1215  0.5188 -0.0693
 8272W        W12323   0.611   3.901  10.645  0.0086 -0.1167  0.0854
 8273W        W12324   5.393   3.591  11.344 -0.0849 -0.0421 -0.3868
 8274W        W12325   7.298   4.843   8.777 -0.1154  0.1697 -0.2259
 8275W        W12326   5.117   6.190   9.126 -0.0734 -0.0685 -0.1158
 8276W        W12327   4.310   4.158   4.896  0.1149  0.0137 -0.3006
 8277W        W12328   0.207   9.405   9.854  0.0291  0.0394 -0.1047
 8278W        W12329   5.923   4.364   3.903 -0.2114 -0.0491  0.1478
 8279W        W12330   7.572   5.699  10.394  0.0225  0.3025 -0.2807
 8280W        W12331   2.853   6.735  12.174  0.0404  0.2489 -0.3616
 8281W        W12332   9.843   4.010   1.644  0.0336 -0.1977  0.0004
 8282W        W12333   1.304   1.230   3.739  0.0614 -0.1968  0.0957
 8283W        W12334   5.912   4.629   4.823 -0.1580 -0.0813  0.2836
 8284W        W12335   9.548   4.999  10.390  0.2324  0.0041  0.0463
 8285W        W12336   2.279   0.955  12.344  0.0478 -0.1956  0.2110
 8286W        W12337   0.015   5.127   9.886 -0.0358 -0.0114  0.1225
 8287W        W12338   0.852   6.027  10.561  0.4372  0.0174  0.0215
 8288W        W12339   4.584  10.252  11.335  0.0158  0.2498  0.3373
 8289W        W12340   3.383   6.680   2.440 -0.0033  0.0860 -0.3738
 8290W        W12341   4.653   1.471   1.467 -0.0879 -0.4811 -0.1633
 8291W        W12342   2.937   0.728   1.097  0.4369 -0.2704  0.0177
 8292W        W12343  10.255   3.618   0.752  0.3158 -0.5076 -0.0669
 8293W        W12344   7.301   4.208   3.039 -0.0553  0.2785 -0.2092
 8294W        W12345   0.669   6.592   1.698 -0.2673 -0.3175 -0.1954
 8295W        W12346   2.148   1.212   3.707 -0.2978 -0.0946  0.0119
 8296W        W12347   0.596   7.133   0.010  0.1807 -0.0492 -0.3022
 8297W        W12348   6.675   0.325   3.032  0.2307 -0.0681 -0.0157
 8298W        W12349   0.140   2.776   2.428  0.1796 -0.2260 -0.1381
 8299W        W12350   7.728   5.757   3.163 -0.1165  0.3514  0.3201
 8300W        W12351   3.860   8.494   3.159  0.2526 -0.2090 -0.2602
 8301W        W12352   0.149   4.222  12.638  0.0103 -0.0630 -0.0783
 8302W        W12353   2.480   9.313  10.603  0.1484 -0.0859 -0.2148
 8303W        W12354   4.985   6.473   2.737 -0.0357  0.3230 -0.0593
 8304W        W12355   3.278   4.935   0.746 -0.0773 -0.2157  0.3113
 8305W        W12356  10.265   7.136  10.980 -0.1501  0.5048  0.1741
 8306W        W12357   5.534   7.877   1.900  0.1085 -0.1925  0.2034
 8307W        W12358   2.706   5.678   0.833 -0.1689  0.0260 -0.0957
 8308W        W12359   9.366  10.098   1.566 -0.2117 -0.1840 -0.1869
 8309W        W12360   6.733   9.492   3.782 -0.1838 -0.2271  0.0604
 8310W        W12361   3.413   2.310   1.246 -0.0308  0.0080 -0.0929
 8311W        W12362   7.831   0.094  10.795 -0.0574  0.0456 -0.1811
 8312W        W12363   8.558   3.980   1.807  0.1210  0.5511 -0.1023
 8313W        W12364   3.150   2.572   9.649  0.0031 -0.1377  0.2517
 8314W        W12365   4.029   1.689   0.818  0.0850 -0.1809  0.1859
 8315W        W12366   5.225   5.168   1.849  0.0890 -0.4152  0.1869
 8316W        W12367   0.088   1.575   0.957  0.2277  0.0577  0.0905
 8317W        W12368   9.882   0.757  12.368 -0.1126 -0.2332  0.1611
 8318W        W12369   3.239  10.198   2.928 -0.1345  0.0026 -0.1467
 8319W        W12370   4.755   1.172  11.477 -0.0655  0.0265  0.0810
 8320W        W12371   8.254  10.246   9.819 -0.2456 -0.0822 -0.3613
 8321W        W12372  10.137   6.303  10.284  0.3224 -0.1974 -0.1124
 8322W        W12373   6.961   8.377   9.610  0.2092 -0.1166 -0.0009
 8323W        W12374   6.641   2.879  12.558  0.0079 -0.0121  0.1253
 8324W        W12375   5.624   6.335   0.135  0.0754  0.0610  0.2022
 8325W        W12376   8.807   5.242   3.279 -0.1728 -0.0268 -0.2790
 8326W        W12377   7.412   6.709  12.011  0.1853 -0.2375 -0.4280
 8327W        W12378   0.926   7.908  11.042 -0.0928  0.1012  0.2258
 8328W        W12379   5.581   8.554   0.428 -0.1484 -0.0119  0.1611
 8329W        W12380   4.184   7.825   2.443 -0.1019 -0.0438  0.0293
 8330W        W12381   1.393   8.085   0.833  0.1306  0.2876  0.0868
 8331W        W12382   8.890   4.447  12.979 -0.0396 -0.0160  0.2242
 8332W        W12383   1.791   6.824  12.701 -0.1903  0.1954 -0.0072
 8333W        W12384   0.430   2.136   9.505 -0.0446 -0.3237 -0.2792
 8334W        W12385   3.228   8.010  11.722 -0.0112 -0.2457 -0.2602
 8335W        W12386   8.302   9.588   3.940 -0.0848  0.1191  0.1659
 8336W        W12387   1.209   2.896   2.138 -0.0012  0.0985 -0.2466
 8337W        W12388   4.552   8.176   2.450  0.0521  0.0020  0.2017
 8338W        W12389   4.360   6.326  10.152  0.3456 -0.2498  0.0673
 8339W        W12390   0.803   8.796   9.245 -0.1948 -0.0399  0.1847
 8340W        W12391   8.745   5.479   9.658  0.2583 -0.2678 -0.1730
 8341W        W12392   0.917   1.110  12.227  0.0005  0.1704  0.0273
 8342W        W12393   6.255   3.941   1.777  0.0137  0.3181 -0.1884
 8343W        W12394   4.643   7.240   1.702  0.0841  0.0049 -0.1547
 8344W        W12395   9.923   7.972  11.219 -0.0574  0.0836  0.0566
 8345W        W12396   7.937  10.359  10.282  0.1278  0.0155 -0.1740
 8346W        W12397   2.383   8.890   9.580  0.1144  0.1345 -0.4412
 8347W        W12398   9.724   9.376   9.870  0.0212  0.1143  0.0426
 8348W        W12399   7.930   9.402   9.422 -0.3414  0.1498 -0.1321
 8349W        W12400   1.123   8.179  12.094 -0.0446 -0.0534  0.0430
 8350W        W12401   7.853   3.266  11.520  0.0276  0.1404 -0.0413
 8351W        W12402   2.713   4.794   1.418 -0.0028 -0.1894  0.1932
 8352W        W12403  10.133   0.506   4.730 -0.1617  0.0826  0.1276
 8353W        W12404   6.296   6.283   8.368  0.0793 -0.0556 -0.3974
 8354W        W12405   7.846   9.850   5.590  0.0479 -0.0420  0.1319
 8355W        W12406   9.100   7.464   5.094 -0.0494 -0.1020 -0.0215
 8356W        W12407   2.073   3.734   3.068  0.0186  0.2324  0.4817
 8357W        W12408   3.687   6.952  12.523  0.1543 -0.1735 -0.1630
 8358W        W12409   4.290   6.131  11.484  0.2490 -0.2392 -0.0501
 8359W        W12410   0.790   9.924   4.019 -0.1696 -0.1969 -0.1338
 8360W        W12411   3.180   2.851   4.024  0.0583  0.1534  0.1077
 8361W        W12412   4.846   0.248  10.493 -0.0054  0.0116 -0.2642
 8362W        W12413   1.807   2.452   4.819 -0.0655  0.1924 -0.2006
 8363W        W12414   7.580   3.055  12.640  0.1682 -0.0148  0.2502
 8364W        W12415   1.545   8.416   0.044  0.1022 -0.0264 -0.4369
 8365W        W12416   0.825   8.768  12.060  0.0957  0.0989 -0.0317
 8366W        W12417   2.096   1.750  13.038  0.3987  0.4986 -0.3590
 8367W        W12418   3.158   7.346   0.938 -0.0414  0.0213 -0.1475
 8368W        W12419   7.753   5.835  12.173  0.0890  0.2434  0.2101
 8369W        W12420   0.072   6.272  11.582  0.0852  0.2562  0.0175
 8370W        W12421   5.299   0.962   4.744  0.1178  0.1712 -0.0778
 8371W        W12422   6.823   7.988  13.005 -0.1760  0.0329  0.2395
 8372W        W12423   4.756   4.838   3.702  0.1770  0.1340 -0.0058
 8373W        W12424   2.153   6.433  11.927  0.0683  0.1053 -0.1632
 8374W        W12425   3.474   3.539  10.285  0.0277  0.0478  0.0563
 8375W        W12426   8.591   8.342   0.212  0.2793 -0.3810  0.3444
 8376W        W12427   2.667   3.029   2.956 -0.1258  0.1936  0.3384
 8377W        W12428   9.047   2.708   1.843 -0.0056 -0.1365  0.1811
 8378W        W12429   2.437   0.819   3.487 -0.0538 -0.2447  0.5885
 8379W        W12430   6.586   2.916   0.829 -0.0043 -0.0056  0.1555
 8380W        W12431   6.234   9.993   0.482  0.1827  0.1646  0.2868
 8381W        W12432   2.469   6.589   2.129 -0.1818  0.2548  0.1234
 8382W        W12433   7.941   5.857   3.611 -0.3360  0.1391 -0.2533
 8383W        W12434   5.825   6.973   4.730  0.3418  0.3669  0.2820
 8384W        W12435   9.211   8.430  11.033  0.0135 -0.2282  0.2520
 8385W        W12436   0.703   1.743  12.999 -0.0222  0.2428 -0.0869
 8386W        W12437   4.986   8.450   4.161  0.1083  0.1106  0.1206
 8387W        W12438   2.899   2.074   3.024  0.1406 -0.4008 -0.3601
 8388W        W12439   9.394   4.885   9.838  0.2644  0.1710  0.0876
 8389W        W12440   2.787   6.176   1.554  0.2346  0.1973 -0.0328
 8390W        W12441   6.862   8.406   0.490  0.3004 -0.0167 -0.3716
 8391W        W12442   6.663   9.848   9.691  0.4018 -0.2502 -0.2865
 8392W        W12443   4.244   5.905   0.524 -0.0374  0.2907  0.2929
 8393W        W12444  10.181   4.555   2.714  0.2708 -0.1083 -0.1132
 8394W        W12445   7.022   1.569   9.873  0.1189 -0.0005 -0.2396
 8395W        W12446   3.077   7.734   4.009  0.0692 -0.2243 -0.1065
 8396W        W12447   8.320   8.882  12.134  0.0272 -0.0089  0.0805
 8397W        W12448   1.650   9.919  10.930 -0.0092  0.0457 -0.2405
 8398W        W12449   2.123   1.153   1.549  0.3242  0.0008  0.3030
 8399W        W12450   1.233   9.064  10.499 -0.0817 -0.1610  0.3504
 8400W        W12451   3.284   1.897   9.891 -0.0862 -0.1747 -0.2574
 8401W        W12452   3.010   1.136   1.490  0.0051 -0.0667 -0.0522
 8402W        W12453   0.150   0.243   1.509 -0.1014  0.0573 -0.0483
 8403W        W12454   1.473   9.130   9.814  0.0194  0.0205  0.1444
 8404W        W12455   7.094   2.342   0.317 -0.1787 -0.3701  0.1457
 8405W        W12456   5.721   6.515  11.768 -0.1111 -0.0483 -0.0239
 8406W        W12457   5.066   6.942  11.120 -0.0241  0.1283  0.3565
 8407W        W12458   9.370   1.333   0.162 -0.1221  0.1944  0.0826
 8408W        W12459   0.580   3.471   0.873 -0.2534 -0.0669 -0.1163
 8409W        W12460   2.645   9.316  11.874 -0.0554 -0.2000 -0.1502
 8410W        W12461  10.138  10.143   1.057  0.1380 -0.1287  0.1273
 8411W        W12462   5.511   6.677   9.950  0.0457 -0.3008  0.1888
 8412W        W12463   2.909   7.151  10.786  0.1283 -0.1726 -0.3367
 8413W        W12464   3.307   8.491  11.886 -0.3835 -0.2713  0.1483
 8414W        W12465   5.271   3.895   0.905  0.0900  0.0220 -0.3554
 8415W        W12466   8.640   4.481   3.576  0.0611 -0.1793  0.3650
 8416W        W12467   4.902   3.791   0.480  0.0952  0.3721 -0.1504
 8417W        W12468   9.296   3.152   0.979  0.3076 -0.0980  0.0914
 8418W        W12469   7.959   6.010  10.832 -0.2140 -0.0808 -0.1100
 8419W        W12470   0.100   0.623  12.227 -0.1232 -0.0083 -0.0728
 8420W        W12471   7.069   8.763   0.240  0.0578 -0.1089  0.2705
 8421W        W12472   5.939   6.538   8.820 -0.1163 -0.0208 -0.2683
 8422W        W12473   6.382   5.474   1.206  0.2534 -0.4087  0.1509
 8423W        W12474   4.885   4.028   1.390 -0.3395  0.1787  0.0940
 8424W        W12475   3.585   9.089   3.700 -0.2055  0.3793 -0.0113
 8425W        W12476   9.282   6.123   1.289 -0.1558 -0.1703 -0.3800
 8426W        W12477   3.111   6.408  11.877  0.4703  0.3337  0.0252
 8427W        W12478   4.530  10.258   3.206 -0.0216 -0.1403  0.3046
 8428W        W12479   5.754   9.435  11.752 -0.4255  0.1743 -0.0575
 8429W        W12480   1.905   4.594   3.240 -0.2836  0.3221  0.0674
 8430W        W12481   2.508   4.206   1.353 -0.1443  0.3548  0.1114
 8431W        W12482   2.246   0.696   0.278  0.0300 -0.1819 -0.0376
 8432W        W12483   8.631   0.468  12.123  0.1583 -0.0742 -0.1197
 8433W        W12484   4.825   1.860  10.226  0.0106 -0.0102 -0.0584
 8434W        W12485   6.670   2.464  12.801 -0.3368 -0.0041  0.0780
 8435W        W12486   4.849   0.225  13.280 -0.1982  0.3622 -0.1033
 8436W        W12487   8.367   4.409   1.551  0.0711 -0.1281  0.3400
 8437W        W12488   3.872   6.105  12.772 -0.1208  0.0751 -0.1752
 8438W        W12489   4.570  10.314   5.387  0.1201 -0.2245  0.0737
 8439W        W12490   8.101   2.028   2.560 -0.1148  0.0795 -0.0540
 8440W        W12491   1.034   2.080   3.944  0.1969  0.2565  0.1620
 8441W        W12492   5.372   4.887   9.755  0.0288 -0.0370  0.0783
 8442W        W12493   1.894  10.237  12.310  0.1648 -0.1453 -0.2113
 8443W        W12494   1.304   1.714  11.045  0.2544 -0.1307  0.1634
 8444W        W12495   4.254   3.824   2.198  0.0841  0.0334  0.2094
 8445W        W12496   3.971   8.816   2.138  0.1880 -0.0659 -0.0218
 8446W        W12497   7.856   0.488   9.323 -0.1554  0.1745 -0.1077
 8447W        W12498   8.549   3.810   2.962  0.0805  0.0840  0.0349
 8448ION    NA+12499   2.349   3.888   9.409 -0.0896  0.2299 -0.1941
 8449ION    NA+12500   2.464  10.113   4.902  0.1003 -0.0212 -0.0749
 8450ION    NA+12501   7.326   3.399   0.128 -0.3313  0.0459 -0.2269
 8451ION    NA+12502   2.689   2.446   9.455  0.1524 -0.1732  0.2859
 8452ION    NA+12503   0.661   4.860  13.359  0.0941 -0.1711 -0.1481
 8453ION    NA+12504  10.100  10.421   0.593  0.1058  0.1727 -0.1647
 8454ION    NA+12505   2.615   2.981  12.623  0.1070  0.2430 -0.3038
 8455ION    NA+12506   4.615   1.246   2.866 -0.1119 -0.0290  0.2137
 8456ION    NA+12507   2.953   3.432  11.727 -0.1027 -0.0642  0.1091
 8457ION    NA+12508   1.856   0.929   2.035 -0.0655 -0.2215  0.0926
 8458ION    NA+12509   7.163   7.377   1.462 -0.0421  0.3366 -0.1253
 8459ION    NA+12510   9.251   6.027   2.206 -0.1244  0.2616  0.0710
 8460ION    NA+12511   9.221  10.072   0.103  0.2907  0.2285  0.0568
 8461ION    NA+12512   9.609   1.242   1.566 -0.0601  0.1342 -0.0719
 8462ION    NA+12513   8.310   0.157  10.593 -0.0347 -0.0591 -0.1897
 8463ION    NA+12514   2.834   7.221  10.056 -0.1677  0.1695  0.2623
 8464ION    NA+12515   5.534   2.119   0.681 -0.1156 -0.1779  0.1069
 8465ION    NA+12516   3.125   4.940   3.628 -0.7223 -0.3427  0.0079
 8466ION    NA+12517   3.881   5.252   4.509 -0.0805  0.1941 -0.0633
 8467ION    NA+12518   5.501   4.029   2.567  0.1329 -0.2580  0.0808
 8468ION    NA+12519   0.097   6.532  13.291  0.1297  0.2201 -0.0242
 8469ION    NA+12520   5.446   7.120  10.229  0.0015  0.0304 -0.2508
 8470ION    NA+12521   7.523   7.611  10.233 -0.2410  0.1546 -0.1616
 8471ION    NA+12522  10.093   7.610  13.282  0.1435 -0.4349  0.1012
 8472ION    NA+12523   3.283   5.969  12.670 -0.1822 -0.1412 -0.0934
 8473ION    NA+12524   3.561   4.570  13.061  0.0332  0.1521  0.0658
 8474ION    NA+12525   3.913   9.838   0.584 -0.0332 -0.1664  0.0639
 8475ION    NA+12526   8.015   1.597   1.773  0.2404 -0.1490  0.0899
 8476ION    NA+12527   2.088   3.358  12.068 -0.2089 -0.2339  0.3082
 8477ION    NA+12528   9.499   6.092   9.532 -0.0051  0.1944  0.0453
 8478ION    NA+12529   8.064   8.943   5.509 -0.1490 -0.1741 -0.1772
 8479ION    NA+12530   9.636   2.652   4.909 -0.0338  0.3379 -0.1446
 8480ION    NA+12531   7.826   7.336   8.969 -0.1185 -0.2015 -0.0639
 8481ION    NA+12532   6.121  10.254   0.062  0.0323 -0.2822 -0.1172
 8482ION    NA+12533  10.324   7.650   2.588  0.0567 -0.1238  0.0331
 8483ION    NA+12534   0.519   2.435   4.977 -0.0184  0.0635  0.0942
 8484ION    NA+12535   8.968   0.070   3.644 -0.0395  0.0881 -0.2344
 8485ION    NA+12536  10.336   7.398   9.878 -0.2851 -0.1688  0.0659
 8486ION    NA+12537   2.852   4.055  10.611  0.0378  0.0297 -0.2017
 8487ION    NA+12538   8.206   5.096   1.477 -0.0070  0.2637 -0.2995
 8488ION    NA+12539   0.847   0.929   0.085 -0.5212  0.1205 -0.0496
 8489ION    NA+12540   2.554   0.894  10.491 -0.2082  0.2434 -0.3074
 8490ION    NA+12541   5.044   3.380  12.943  0.1535  0.3484  0.3314
 8491ION    NA+12542   3.035   5.069   4.532  0.3582  0.0717  0.1346
 8492ION    NA+12543   9.625   1.691   8.820  0.1585 -0.0571  0.1275
 8493ION    NA+12544   3.860   3.233  12.953 -0.1344 -0.2326  0.3395
 8494ION    NA+12545   3.208   7.037   1.385  0.0995  0.2810 -0.0322
 8495ION    NA+12546   6.521   2.344  13.238 -0.2252  0.0306  0.0843
 8496ION    NA+12547   2.897   0.303   0.756 -0.1832  0.1447 -0.3184
 8497ION    NA+12548   6.290   8.058  12.841  0.1196 -0.1648 -0.2945
 8498ION    NA+12549   6.380   0.198   1.932  0.1623 -0.0408 -0.1572
 8499ION    NA+12550   4.062   0.088  11.021 -0.4896 -0.2518  0.2743
 8500ION    NA+12551   4.304  10.317   2.668 -0.0797  0.0654 -0.2878
 8501ION    NA+12552   7.232   6.984   4.799 -0.1949 -0.1339  0.3303
 8502ION    NA+12553   4.828   8.015   8.778 -0.0373  0.0370 -0.1591
 8503ION    NA+12554   7.226   2.300   9.323 -0.2289  0.0165  0.0568
 8504ION    NA+12555  10.146   3.571   1.484 -0.1568  0.0334 -0.0007
 8505ION    NA+12556   8.327   8.184   5.221  0.0494 -0.2964 -0.2824
 8506ION    NA+12557   5.236   0.793   2.425  0.0505 -0.0370  0.0362
 8507ION    NA+12558   3.579   1.543   2.976  0.0902 -0.0440  0.0460
 8508ION    NA+12559   6.547   5.913   2.705  0.0149  0.0977  0.1181
 8509ION    NA+12560   6.289   3.815   9.394 -0.1215  0.0388 -0.1981
 8510ION    NA+12561   3.562   7.103   0.212 -0.0107  0.0090  0.1744
 8511ION    NA+12562   3.711   4.362   9.649  0.1971  0.0732 -0.0652
 8512ION    NA+12563   8.965   9.965  11.220  0.1255  0.2157 -0.0293
 8513ION    NA+12564   1.076   4.729   1.336  0.1179  0.3700  0.2708
 8514ION    NA+12565   9.960   6.950   2.016  0.1721  0.1718  0.1208
 8515ION    NA+12566   5.304  10.059   0.274 -0.0469  0.0693 -0.0786
 8516ION    NA+12567   6.251   5.016  10.418  0.1258 -0.1903 -0.1048
 8517ION    NA+12568   5.609   3.670   5.143 -0.2189  0.4315  0.0782
 8518ION    NA+12569   3.380  10.036   1.980  0.1062 -0.2556 -0.0437
 8519ION    NA+12570   6.748   9.550  12.681 -0.0351  0.2669 -0.1190
 8520ION    NA+12571   6.643   4.368   0.941  0.1423  0.0639  0.0349
 8521ION    NA+12572   6.995   5.569   5.119 -0.2052  0.0856 -0.3336
 8522ION    NA+12573   6.413   0.738  10.500  0.3013  0.1474 -0.0651
 8523ION    NA+12574   1.479   5.486  10.693 -0.1431 -0.2541  0.1430
 8524ION    NA+12575   0.648   1.498   5.359  0.1768  0.0498  0.0195
 8525ION    NA+12576   9.863   6.383   2.829 -0.0788 -0.0552  0.0192
 8526ION    NA+12577   8.977   0.427   0.549  0.1943  0.3254 -0.1930
 8527ION    NA+12578   5.040   1.610   9.427  0.2890  0.1657  0.0801
 8528ION    NA+12579   3.884   3.167   9.517  0.2949 -0.0129 -0.1877
 8529ION    NA+12580   4.305   2.079   3.139 -0.4288  0.1476 -0.1726
 8530ION    NA+12581   7.846   8.859   2.644 -0.1984 -0.0683 -0.1656
 8531ION    NA+12582   7.087   3.599   8.855 -0.1643  0.1926  0.0569
 8532ION    NA+12583   9.983   0.522   5.190 -0.1362 -0.0405 -0.0776
 8533ION    NA+12584   3.155   1.202  10.518  0.1306 -0.0587 -0.2269
 8534ION    NA+12585   9.125   8.222   1.918 -0.1016 -0.0279 -0.0196
 8535ION    NA+12586   6.244   3.412   9.074 -0.0377  0.2214 -0.0158
 8536ION    NA+12587   9.264   9.575   9.022  0.2638  0.3504  0.0931
 8537ION    CL-12588   0.219   7.358   3.462  0.2663  0.3367 -0.0789
 8538ION    CL-12589   3.735   1.828   2.576  0.0828 -0.1803  0.0894
 8539ION    CL-12590   0.316   3.931   4.240  0.1324 -0.0704 -0.1345
 8540ION    CL-12591   0.002   0.445   0.477  0.0258 -0.1913 -0.2140
 8541ION    CL-12592  10.075   9.784   3.750 -0.1808  0.2322  0.2650
 8542ION    CL-12593   8.058   6.896   4.666  0.2763 -0.1902 -0.2740
 8543ION    CL-12594   3.813   1.959   3.038 -0.1167 -0.1722  0.0027
 8544ION    CL-12595   0.559   4.594   0.950  0.1371 -0.0266 -0.0671
 8545ION    CL-12596   2.891   2.957   5.160 -0.1404 -0.1485 -0.1294
 8546ION    CL-12597   9.064   2.067   4.273 -0.2067 -0.0778  0.3486
 8547ION    CL-12598   8.276   9.219   0.527 -0.0661 -0.1811  0.2204
 8548ION    CL-12599   6.967   3.303   3.943 -0.2274 -0.0319 -0.0315
 8549ION    CL-12600   2.006   2.800   9.785  0.2603  0.1604 -0.3921
 8550ION    CL-12601   5.474   3.186   5.297 -0.0584 -0.0015 -0.1807
 8551ION    CL-12602   8.805   3.717   9.796  0.0697  0.0934 -0.0503
 8552ION    CL-12603   7.534   2.417  12.656  0.0153  0.4059  0.0549
 8553ION    CL-12604   9.049   3.238   4.502  0.0888 -0.0172 -0.4504
 8554ION    CL-12605   6.098   2.194   4.529 -0.1395 -0.0395 -0.1427
 8555ION    CL-12606   7.681   9.869   4.437 -0.1520 -0.1122  0.0907
 8556ION    CL-12607   0.786   7.995   1.143  0.0402 -0.2379 -0.1882
 8557ION    CL-12608   9.716   2.726   9.951  0.1987 -0.1639 -0.0322
 8558ION    CL-12609   1.081   0.660   4.444 -0.1953 -0.0322  0.1422
 8559ION    CL-12610   9.442   3.579  12.304 -0.4504  0.1020 -0.2112
 8560ION    CL-12611   3.422  10.397   0.877 -0.2728  0.0847  0.0037
 8561ION    CL-12612   9.691   6.925   1.560  0.0114  0.3210  0.0993
 8562ION    CL-12613   7.069   9.905  12.627 -0.0581  0.2845  0.2148
 8563ION    CL-12614   6.466   8.945  12.267  0.3611 -0.0655  0.1107
 8564ION    CL-12615   6.784   5.782   4.143  0.2574  0.0970 -0.2453
 8565ION    CL-12616  10.006   1.002   4.508  0.2729  0.0484 -0.1940
 8566ION    CL-12617   4.977   9.782   0.619  0.0828  0.0572 -0.0919
 8567ION    CL-12618  10.341   8.163   2.447 -0.1868 -0.1268  0.0823
 8568ION    CL-12619   2.609   1.432  10.462 -0.0133  0.2099  0.1815
 8569ION    CL-12620   7.952   4.663   1.451  0.0127 -0.1272  0.1043
 8570ION    CL-12621   3.466   5.567   3.689 -0.0985 -0.1968 -0.1342
 8571ION    CL-12622   8.411   9.906  11.150  0.0756  0.2703 -0.0586
 8572ION    CL-12623   3.889   2.473   3.926 -0.0669  0.1384 -0.1463
 8573ION    CL-12624   2.080   4.194   9.814  0.0386 -0.0731 -0.1233
 8574ION    CL-12625   0.715   6.444   9.375 -0.0610 -0.1234 -0.0658
 8575ION    CL-12626   5.619   1.784  10.089 -0.0015  0.1346 -0.4590
 8576ION    CL-12627   5.012   6.432  11.233  0.1465 -0.4448  0.2474
 8577ION    CL-12628   4.270   1.404  13.208  0.0651 -0.0231  0.1862
 8578ION    CL-12629   6.833   5.096   0.865  0.1985  0.2051 -0.0021
 8579ION    CL-12630   2.722   3.158  12.132 -0.0723 -0.1004  0.1728
 8580ION    CL-12631   7.811   1.612   1.239 -0.1589  0.0384 -0.1706
 8581ION    CL-12632   4.504   0.284   2.391 -0.1261 -0.1814  0.4065
 8582ION    CL-12633   6.870   3.611   0.311 -0.2360  0.3334 -0.0745
 8583ION    CL-12634   8.222   8.280   1.950  0.0981  0.0355 -0.3249
 8584ION    CL-12635   8.139   0.717   9.841  0.1750 -0.1985 -0.0611
 8585ION    CL-12636   3.117   7.957   9.855 -0.2814  0.1543 -0.0211
 8586ION    CL-12637   2.161   2.718   4.120  0.0507  0.1803  0.3625
 8587ION    CL-12638   9.456   6.977   9.895 -0.1160  0.4513 -0.1689
 8588ION    CL-12639   3.143   4.477  10.712  0.1524  0.3479 -0.1816
 8589ION    CL-12640   4.101   1.398  10.355  0.2987  0.2104  0.0104
 8590ION    CL-12641   4.963   1.197   2.552  0.1418 -0.2379 -0.4283
 8591ION    CL-12642   8.180   3.960   4.519  0.1963 -0.0537 -0.0809
 8592ION    CL-12643   7.281   0.075  10.842  0.0326  0.1356  0.0178
 8593ION    CL-12644   3.081   5.563  12.500 -0.0303 -0.0096 -0.2297
 8594ION    CL-12645   8.245   1.702   2.185  0.2750  0.3186 -0.0837
 8595ION    CL-12646   1.087   5.030  13.117  0.2150 -0.0826  0.0281
 8596ION    CL-12647   9.594   6.175   2.483 -0.2428 -0.0767 -0.0795
 8597ION    CL-12648   5.759  10.332   0.460  0.2932 -0.0659 -0.1882
 8598ION    CL-12649   4.752   2.638   4.736  0.4579 -0.0255 -0.0447
 8599ION    CL-12650   2.788   6.921   9.604  0.2613 -0.1533  0.0307
 8600ION    CL-12651   4.697   3.126  12.723  0.2456 -0.1114  0.2561
 8601ION    CL-12652   7.247   7.469   4.524  0.0977 -0.0028  0.1608
 8602ION    CL-12653   7.467   9.146   2.821 -0.0466 -0.1259  0.0076
 8603ION    CL-12654  10.300   7.437  12.824 -0.0819  0.0156 -0.2150
 8604ION    CL-12655   9.630  10.265   0.326  0.0097 -0.1638 -0.0368
 8605ION    CL-12656   6.920   3.023   0.174  0.1382  0.0072 -0.0651
 8606ION    CL-12657   1.913   9.296   9.804 -0.0466  0.0854 -0.0210
 8607ION    CL-12658   6.801   5.457   2.617 -0.1423 -0.1003  0.1112
 8608ION    CL-12659   7.724   5.168  10.039 -0.0677  0.0856 -0.0896
 8609ION    CL-12660   9.194   3.033   2.301  0.0605  0.0295  0.1213
 8610ION    CL-12661   1.498   0.624   3.535  0.1646 -0.1160  0.0964
 8611ION    CL-12662   2.570   5.145   3.796  0.0600 -0.0707  0.1474
 8612ION    CL-12663   0.263   1.773   0.560  0.2041 -0.1109 -0.0144
 8613ION    CL-12664   7.490   7.501   9.708  0.0952  0.2672 -0.1686
 8614ION    CL-12665   3.837   4.045  12.838 -0.1222 -0.0692  0.0613
 8615ION    CL-12666   5.229   2.491   0.685 -0.0847  0.0298 -0.0516
 8616ION    CL-12667   1.940   3.677   9.686 -0.1396 -0.0157 -0.0024
 8617ION    CL-12668   1.870   0.633   1.622 -0.1722 -0.2487  0.0946
 8618ION    CL-12669   9.158  10.046   3.482  0.0886  0.1698  0.2246
 8619ION    CL-12670   5.380   9.218   4.510 -0.2851 -0.4415  0.1856
 8620ION    CL-12671   6.370   9.928  13.144  0.0125  0.1811 -0.2710
 8621ION    CL-12672   3.637   7.224   0.669  0.3693 -0.0613 -0.2803
 8622ION    CL-12673   6.346   5.043   9.924 -0.0078 -0.1810  0.0167
 8623ION    CL-12674   3.009   5.370   4.054 -0.2461  0.1842  0.0311
 8624ION    CL-12675   5.325   3.665  12.668  0.0155 -0.3009 -0.0350
 8625ION    CL-12676   0.989   1.282  10.033  0.2605  0.1915 -0.2032
  10.43126  10.43126  13.36050
