[ moleculetype ]
; Name            nrexcl
AU                  1

[ atoms ]
;   nr       type  resnr residue  atom    cgnr     charge       mass
     1        C5     1    AU   AUC        1         0          784
     2        C5     1    AU   AUC        2         0          784
     3        C5     1    AU   AUC        3         0          784
     4        C5     1    AU   AUC        4         0          784
     5        C5     1    AU   AUC        5         0          784
     6        C5     1    AU   AUC        6         0          784
     7        C5     1    AU   AUC        7         0          784
     8        C5     1    AU   AUC        8         0          784
     9        C5     1    AU   AUC        9         0          784
    10        C5     1    AU   AUC       10         0          784
    11        C5     1    AU   AUC       11         0          784
    12        C5     1    AU   AUC       12         0          784
    13        C5     1    AU   AUC       13         0          784
    14        C5     1    AU   AUC       14         0          784
    15        C5     1    AU   AUC       15         0          784
    16        C5     1    AU   AUC       16         0          784
    17        C5     1    AU   AUC       17         0          784
    18        C5     1    AU   AUC       18         0          784
    19        C5     1    AU   AUC       19         0          784
    20        C5     1    AU   AUC       20         0          784
    21        C5     1    AU   AUC       21         0          784
    22        C5     1    AU   AUC       22         0          784
    23        C5     1    AU   AUC       23         0          784
    24        C5     1    AU   AUC       24         0          784
    25        C5     1    AU   AUC       25         0          784
    26        C5     1    AU   AUC       26         0          784
    27        C5     1    AU   AUC       27         0          784
    28        C5     1    AU   AUC       28         0          784
    29        C5     1    AU   AUC       29         0          784
    30        C5     1    AU   AUC       30         0          784
    31        C5     1    AU   AUC       31         0          784
    32        C5     1    AU   AUC       32         0          784
    33        C5     1    AU   AUC       33         0          784
    34        C5     1    AU   AUC       34         0          784
    35        C5     1    AU   AUC       35         0          784
    36        C5     1    AU   AUC       36         0          784
    37        C5     1    AU   AUC       37         0          784
    38        C5     1    AU   AUC       38         0          784
    39        C5     1    AU   AUC       39         0          784
    40        C5     1    AU   AUC       40         0          784
    41        C5     1    AU   AUC       41         0          784
    42        C5     1    AU   AUC       42         0          784
    43        C5     1    AU   AUC       43         0          784
    44        C5     1    AU   AUC       44         0          784
    45        C5     1    AU   AUC       45         0          784
    46        C5     1    AU   AUC       46         0          784
    47        C5     1    AU   AUC       47         0          784
    48        C5     1    AU   AUC       48         0          784
    49        C5     1    AU   AUC       49         0          784
    50        C5     1    AU   AUC       50         0          784
    51        C5     1    AU   AUC       51         0          784
    52        C5     1    AU   AUC       52         0          784
    53        C5     1    AU   AUC       53         0          784
    54        C5     1    AU   AUC       54         0          784
    55        C5     1    AU   AUC       55         0          784
    56        C5     1    AU   AUSL      56         0          784
    57        C5     1    AU   AUSL      57         0          784
    58        C5     1    AU   AUL       58         0          784
    59        C5     1    AU   AUSL      59         0          784
    60        C5     1    AU   AUSL      60         0          784
    61        C5     1    AU   AUL       61         0          784
    62        C5     1    AU   AUSL      62         0          784
    63        C5     1    AU   AUSL      63         0          784
    64        C5     1    AU   AUL       64         0          784
    65        C5     1    AU   AUSL      65         0          784
    66        C5     1    AU   AUSL      66         0          784
    67        C5     1    AU   AUL       67         0          784
    68        C5     1    AU   AUSL      68         0          784
    69        C5     1    AU   AUSL      69         0          784
    70        C5     1    AU   AUL       70         0          784
    71        C5     1    AU   AUSL      71         0          784
    72        C5     1    AU   AUSL      72         0          784
    73        C5     1    AU   AUL       73         0          784
    74        C5     1    AU   AUSL      74         0          784
    75        C5     1    AU   AUSL      75         0          784
    76        C5     1    AU   AUL       76         0          784
    77        C5     1    AU   AUSL      77         0          784
    78        C5     1    AU   AUSL      78         0          784
    79        C5     1    AU   AUL       79         0          784
    80        C5     1    AU   AUSL      80         0          784
    81        C5     1    AU   AUSL      81         0          784
    82        C5     1    AU   AUL       82         0          784
    83        C5     1    AU   AUSL      83         0          784
    84        C5     1    AU   AUSL      84         0          784
    85        C5     1    AU   AUL       85         0          784
    86        C5     1    AU   AUSL      86         0          784
    87        C5     1    AU   AUSL      87         0          784
    88        C5     1    AU   AUL       88         0          784
    89        C5     1    AU   AUSL      89         0          784
    90        C5     1    AU   AUSL      90         0          784
    91        C5     1    AU   AUL       91         0          784
    92        C5     1    AU   AUSL      92         0          784
    93        C5     1    AU   AUSL      93         0          784
    94        C5     1    AU   AUL       94         0          784
    95        C5     1    AU   AUSL      95         0          784
    96        C5     1    AU   AUSL      96         0          784
    97        C5     1    AU   AUL       97         0          784
    98        C5     1    AU   AUSL      98         0          784
    99        C5     1    AU   AUSL      99         0          784
   100        C5     1    AU   AUL      100         0          784
   101        C5     1    AU   AUSL     101         0          784
   102        C5     1    AU   AUSL     102         0          784
   103        C5     1    AU   AUL      103         0          784
   104        C5     1    AU   AUSL     104         0          784
   105        C5     1    AU   AUSL     105         0          784
   106        C5     1    AU   AUL      106         0          784
   107        C5     1    AU   AUSL     107         0          784
   108        C5     1    AU   AUSL     108         0          784
   109        C5     1    AU   AUL      109         0          784
   110        C5     1    AU   AUSL     110         0          784
   111        C5     1    AU   AUSL     111         0          784
   112        C5     1    AU   AUL      112         0          784
   113        C5     1    AU   AUSL     113         0          784
   114        C5     1    AU   AUSL     114         0          784
   115        C5     1    AU   AUL      115         0          784
   116        C5     1    AU   AUSL     116         0          784
   117        C5     1    AU   AUSL     117         0          784
   118        C5     1    AU   AUL      118         0          784
   119        C5     1    AU   AUSL     119         0          784
   120        C5     1    AU   AUSL     120         0          784
   121        C5     1    AU   AUL      121         0          784
   122        C5     1    AU   AUSL     122         0          784
   123        C5     1    AU   AUSL     123         0          784
   124        C5     1    AU   AUL      124         0          784
   125        C5     1    AU   AUSL     125         0          784
   126        C5     1    AU   AUSL     126         0          784
   127        C5     1    AU   AUL      127         0          784
   128        C5     1    AU   AUSL     128         0          784
   129        C5     1    AU   AUSL     129         0          784
   130        C5     1    AU   AUL      130         0          784
   131        C5     1    AU   AUSL     131         0          784
   132        C5     1    AU   AUSL     132         0          784
   133        C5     1    AU   AUL      133         0          784
   134        C5     1    AU   AUSL     134         0          784
   135        C5     1    AU   AUSL     135         0          784
   136        C5     1    AU   AUL      136         0          784
   137        C5     1    AU   AUSL     137         0          784
   138        C5     1    AU   AUSL     138         0          784
   139        C5     1    AU   AUL      139         0          784
   140        C5     1    AU   AUSL     140         0          784
   141        C5     1    AU   AUSL     141         0          784
   142        C5     1    AU   AUL      142         0          784
   143        C5     1    AU   AUSL     143         0          784
   144        C5     1    AU   AUSL     144         0          784
   145        C5     1    AU   AUL      145         0          784
   146        N0     1    AU   S        146         0           46
   147        C1     1    AU   LIG      147         0           56
   148        C1     1    AU   LIG      148         0           56
   149        C1     1    AU   LIG      149         0           56
   150        N0     1    AU   S        150         0           46
   151        C1     1    AU   LIG      151         0           56
   152        C1     1    AU   LIG      152         0           56
   153        C1     1    AU   LIG      153         0           56
   154        N0     1    AU   S        154         0           46
   155        C1     1    AU   LIG      155         0           56
   156        C1     1    AU   LIG      156         0           56
   157        C1     1    AU   LIG      157         0           56
   158        N0     1    AU   S        158         0           46
   159        C1     1    AU   LIG      159         0           56
   160        C1     1    AU   LIG      160         0           56
   161        C1     1    AU   LIG      161         0           56
   162        N0     1    AU   S        162         0           46
   163        C1     1    AU   LIG      163         0           56
   164        C1     1    AU   LIG      164         0           56
   165        C1     1    AU   LIG      165         0           56
   166        N0     1    AU   S        166         0           46
   167        C1     1    AU   LIG      167         0           56
   168        C1     1    AU   LIG      168         0           56
   169        C1     1    AU   LIG      169         0           56
   170        N0     1    AU   S        170         0           46
   171        C1     1    AU   LIG      171         0           56
   172        C1     1    AU   LIG      172         0           56
   173        C1     1    AU   LIG      173         0           56
   174        N0     1    AU   S        174         0           46
   175        C1     1    AU   LIG      175         0           56
   176        C1     1    AU   LIG      176         0           56
   177        C1     1    AU   LIG      177         0           56
   178        N0     1    AU   S        178         0           46
   179        C1     1    AU   LIG      179         0           56
   180        C1     1    AU   LIG      180         0           56
   181        C1     1    AU   LIG      181         0           56
   182        N0     1    AU   S        182         0           46
   183        C1     1    AU   LIG      183         0           56
   184        C1     1    AU   LIG      184         0           56
   185        C1     1    AU   LIG      185         0           56
   186        N0     1    AU   S        186         0           46
   187        C1     1    AU   LIG      187         0           56
   188        C1     1    AU   LIG      188         0           56
   189        C1     1    AU   LIG      189         0           56
   190        N0     1    AU   S        190         0           46
   191        C1     1    AU   LIG      191         0           56
   192        C1     1    AU   LIG      192         0           56
   193        C1     1    AU   LIG      193         0           56
   194        N0     1    AU   S        194         0           46
   195        C1     1    AU   LIG      195         0           56
   196        C1     1    AU   LIG      196         0           56
   197        C1     1    AU   LIG      197         0           56
   198        N0     1    AU   S        198         0           46
   199        C1     1    AU   LIG      199         0           56
   200        C1     1    AU   LIG      200         0           56
   201        C1     1    AU   LIG      201         0           56
   202        N0     1    AU   S        202         0           46
   203        C1     1    AU   LIG      203         0           56
   204        C1     1    AU   LIG      204         0           56
   205        C1     1    AU   LIG      205         0           56
   206        N0     1    AU   S        206         0           46
   207        C1     1    AU   LIG      207         0           56
   208        C1     1    AU   LIG      208         0           56
   209        C1     1    AU   LIG      209         0           56
   210        N0     1    AU   S        210         0           46
   211        C1     1    AU   LIG      211         0           56
   212        C1     1    AU   LIG      212         0           56
   213        C1     1    AU   LIG      213         0           56
   214        N0     1    AU   S        214         0           46
   215        C1     1    AU   LIG      215         0           56
   216        C1     1    AU   LIG      216         0           56
   217        C1     1    AU   LIG      217         0           56
   218        N0     1    AU   S        218         0           46
   219        C1     1    AU   LIG      219         0           56
   220        C1     1    AU   LIG      220         0           56
   221        C1     1    AU   LIG      221         0           56
   222        N0     1    AU   S        222         0           46
   223        C1     1    AU   LIG      223         0           56
   224        C1     1    AU   LIG      224         0           56
   225        C1     1    AU   LIG      225         0           56
   226        N0     1    AU   S        226         0           46
   227        C1     1    AU   LIG      227         0           56
   228        C1     1    AU   LIG      228         0           56
   229        C1     1    AU   LIG      229         0           56
   230        N0     1    AU   S        230         0           46
   231        C1     1    AU   LIG      231         0           56
   232        C1     1    AU   LIG      232         0           56
   233        C1     1    AU   LIG      233         0           56
   234        N0     1    AU   S        234         0           46
   235        C1     1    AU   LIG      235         0           56
   236        C1     1    AU   LIG      236         0           56
   237        C1     1    AU   LIG      237         0           56
   238        N0     1    AU   S        238         0           46
   239        C1     1    AU   LIG      239         0           56
   240        C1     1    AU   LIG      240         0           56
   241        C1     1    AU   LIG      241         0           56
   242        N0     1    AU   S        242         0           46
   243        C1     1    AU   LIG      243         0           56
   244        C1     1    AU   LIG      244         0           56
   245        C1     1    AU   LIG      245         0           56
   246        N0     1    AU   S        246         0           46
   247        C1     1    AU   LIG      247         0           56
   248        C1     1    AU   LIG      248         0           56
   249        C1     1    AU   LIG      249         0           56
   250        N0     1    AU   S        250         0           46
   251        C1     1    AU   LIG      251         0           56
   252        C1     1    AU   LIG      252         0           56
   253        C1     1    AU   LIG      253         0           56
   254        N0     1    AU   S        254         0           46
   255        C1     1    AU   LIG      255         0           56
   256        C1     1    AU   LIG      256         0           56
   257        C1     1    AU   LIG      257         0           56
   258        N0     1    AU   S        258         0           46
   259        C1     1    AU   LIG      259         0           56
   260        C1     1    AU   LIG      260         0           56
   261        C1     1    AU   LIG      261         0           56
   262        N0     1    AU   S        262         0           46
   263        C1     1    AU   LIG      263         0           56
   264        C1     1    AU   LIG      264         0           56
   265        C1     1    AU   LIG      265         0           56
   266        N0     1    AU   S        266         0           46
   267        C1     1    AU   LIG      267         0           56
   268        C1     1    AU   LIG      268         0           56
   269        C1     1    AU   LIG      269         0           56
   270        N0     1    AU   S        270         0           46
   271        C1     1    AU   LIG      271         0           56
   272        C1     1    AU   LIG      272         0           56
   273        C1     1    AU   LIG      273         0           56
   274        N0     1    AU   S        274         0           46
   275        C1     1    AU   LIG      275         0           56
   276        C1     1    AU   LIG      276         0           56
   277        C1     1    AU   LIG      277         0           56
   278        N0     1    AU   S        278         0           46
   279        C1     1    AU   LIG      279         0           56
   280        C1     1    AU   LIG      280         0           56
   281        C1     1    AU   LIG      281         0           56
   282        N0     1    AU   S        282         0           46
   283        C1     1    AU   LIG      283         0           56
   284        C1     1    AU   LIG      284         0           56
   285        C1     1    AU   LIG      285         0           56
   286        N0     1    AU   S        286         0           46
   287        C1     1    AU   LIG      287         0           56
   288        C1     1    AU   LIG      288         0           56
   289        C1     1    AU   LIG      289         0           56
   290        N0     1    AU   S        290         0           46
   291        C1     1    AU   LIG      291         0           56
   292        C1     1    AU   LIG      292         0           56
   293        C1     1    AU   LIG      293         0           56
   294        N0     1    AU   S        294         0           46
   295        C1     1    AU   LIG      295         0           56
   296        C1     1    AU   LIG      296         0           56
   297        C1     1    AU   LIG      297         0           56
   298        N0     1    AU   S        298         0           46
   299        C1     1    AU   LIG      299         0           56
   300        C1     1    AU   LIG      300         0           56
   301        C1     1    AU   LIG      301         0           56
   302        N0     1    AU   S        302         0           46
   303        C1     1    AU   LIG      303         0           56
   304        C1     1    AU   LIG      304         0           56
   305        C1     1    AU   LIG      305         0           56
   306        N0     1    AU   S        306         0           46
   307        C1     1    AU   LIG      307         0           56
   308        C1     1    AU   LIG      308         0           56
   309        C1     1    AU   LIG      309         0           56
   310        N0     1    AU   S        310         0           46
   311        C1     1    AU   LIG      311         0           56
   312        C1     1    AU   LIG      312         0           56
   313        C1     1    AU   LIG      313         0           56
   314        N0     1    AU   S        314         0           46
   315        C1     1    AU   LIG      315         0           56
   316        C1     1    AU   LIG      316         0           56
   317        C1     1    AU   LIG      317         0           56
   318        N0     1    AU   S        318         0           46
   319        C1     1    AU   LIG      319         0           56
   320        C1     1    AU   LIG      320         0           56
   321        C1     1    AU   LIG      321         0           56
   322        N0     1    AU   S        322         0           46
   323        C1     1    AU   LIG      323         0           56
   324        C1     1    AU   LIG      324         0           56
   325        C1     1    AU   LIG      325         0           56
   326        N0     1    AU   S        326         0           46
   327        C1     1    AU   LIG      327         0           56
   328        C1     1    AU   LIG      328         0           56
   329        C1     1    AU   LIG      329         0           56
   330        N0     1    AU   S        330         0           46
   331        C1     1    AU   LIG      331         0           56
   332        C1     1    AU   LIG      332         0           56
   333        C1     1    AU   LIG      333         0           56
   334        N0     1    AU   S        334         0           46
   335        C1     1    AU   LIG      335         0           56
   336        C1     1    AU   LIG      336         0           56
   337        C1     1    AU   LIG      337         0           56
   338        N0     1    AU   S        338         0           46
   339        C1     1    AU   LIG      339         0           56
   340        C1     1    AU   LIG      340         0           56
   341        C1     1    AU   LIG      341         0           56
   342        N0     1    AU   S        342         0           46
   343        C1     1    AU   LIG      343         0           56
   344        C1     1    AU   LIG      344         0           56
   345        C1     1    AU   LIG      345         0           56
   346        N0     1    AU   S        346         0           46
   347        C1     1    AU   LIG      347         0           56
   348        C1     1    AU   LIG      348         0           56
   349        C1     1    AU   LIG      349         0           56
   350        N0     1    AU   S        350         0           46
   351        C1     1    AU   LIG      351         0           56
   352        C1     1    AU   LIG      352         0           56
   353        C1     1    AU   LIG      353         0           56
   354        N0     1    AU   S        354         0           46
   355        C1     1    AU   LIG      355         0           56
   356        C1     1    AU   LIG      356         0           56
   357        C1     1    AU   LIG      357         0           56
   358        N0     1    AU   S        358         0           46
   359        C1     1    AU   LIG      359         0           56
   360        C1     1    AU   LIG      360         0           56
   361        C1     1    AU   LIG      361         0           56
   362        N0     1    AU   S        362         0           46
   363        C1     1    AU   LIG      363         0           56
   364        C1     1    AU   LIG      364         0           56
   365        C1     1    AU   LIG      365         0           56
   366        N0     1    AU   S        366         0           46
   367        C1     1    AU   LIG      367         0           56
   368        C1     1    AU   LIG      368         0           56
   369        C1     1    AU   LIG      369         0           56
   370        N0     1    AU   S        370         0           46
   371        C1     1    AU   LIG      371         0           56
   372        C1     1    AU   LIG      372         0           56
   373        C1     1    AU   LIG      373         0           56
   374        N0     1    AU   S        374         0           46
   375        C1     1    AU   LIG      375         0           56
   376        C1     1    AU   LIG      376         0           56
   377        C1     1    AU   LIG      377         0           56
   378        N0     1    AU   S        378         0           46
   379        C1     1    AU   LIG      379         0           56
   380        C1     1    AU   LIG      380         0           56
   381        C1     1    AU   LIG      381         0           56
   382        N0     1    AU   S        382         0           46
   383        C1     1    AU   LIG      383         0           56
   384        C1     1    AU   LIG      384         0           56
   385        C1     1    AU   LIG      385         0           56

 [ bonds ]
;         i           j    funct      length   force_k
         1          2      1           0.288 3500
         1          3      1           0.288 3500
         1          4      1           0.289 3500
         1          5      1           0.289 3500
         1          6      1           0.288 3500
         1          7      1           0.288 3500
         1          8      1           0.289 3500
         1          9      1           0.289 3500
         1         10      1           0.288 3500
         1         11      1           0.288 3500
         1         12      1           0.288 3500
         1         13      1           0.288 3500
         2          3      1           0.304 3500
         2          7      1           0.303 3500
         2          9      1           0.304 3500
         2         12      1           0.303 3500
         2         13      1           0.302 3500
         2         14      1           0.289 3500
         2         15      1           0.289 3500
         2         30      1           0.418 3500
         2         34      1           0.288 3500
         2         35      1           0.288 3500
         2         40      1           0.288 3500
         2         41      1           0.419 3500
         2         44      1           0.289 3500
         2         45      1           0.420 3500
         2         53      1           0.418 3500
         2         55      1           0.418 3500
         3          7      1           0.303 3500
         3          9      1           0.304 3500
         3         10      1           0.303 3500
         3         11      1           0.302 3500
         3         15      1           0.289 3500
         3         16      1           0.289 3500
         3         27      1           0.418 3500
         3         32      1           0.288 3500
         3         33      1           0.288 3500
         3         40      1           0.419 3500
         3         41      1           0.288 3500
         3         44      1           0.420 3500
         3         45      1           0.289 3500
         3         49      1           0.418 3500
         3         51      1           0.418 3500
         4          5      1           0.304 3500
         4          6      1           0.303 3500
         4          8      1           0.304 3500
         4         12      1           0.304 3500
         4         13      1           0.303 3500
         4         17      1           0.288 3500
         4         18      1           0.288 3500
         4         30      1           0.419 3500
         4         38      1           0.288 3500
         4         39      1           0.288 3500
         4         42      1           0.288 3500
         4         43      1           0.419 3500
         4         46      1           0.289 3500
         4         47      1           0.419 3500
         4         52      1           0.418 3500
         4         54      1           0.418 3500
         5          6      1           0.303 3500
         5          8      1           0.304 3500
         5         10      1           0.304 3500
         5         11      1           0.303 3500
         5         18      1           0.288 3500
         5         19      1           0.288 3500
         5         27      1           0.419 3500
         5         36      1           0.288 3500
         5         37      1           0.288 3500
         5         42      1           0.419 3500
         5         43      1           0.288 3500
         5         46      1           0.419 3500
         5         47      1           0.289 3500
         5         48      1           0.418 3500
         5         50      1           0.418 3500
         6          7      1           0.304 3500
         6         11      1           0.303 3500
         6         13      1           0.303 3500
         6         18      1           0.418 3500
         6         20      1           0.288 3500
         6         21      1           0.288 3500
         6         37      1           0.419 3500
         6         39      1           0.419 3500
         6         42      1           0.288 3500
         6         43      1           0.288 3500
         6         48      1           0.288 3500
         6         49      1           0.419 3500
         6         52      1           0.288 3500
         6         53      1           0.419 3500
         7         11      1           0.303 3500
         7         13      1           0.303 3500
         7         15      1           0.418 3500
         7         21      1           0.288 3500
         7         22      1           0.288 3500
         7         33      1           0.418 3500
         7         35      1           0.418 3500
         7         40      1           0.288 3500
         7         41      1           0.288 3500
         7         48      1           0.419 3500
         7         49      1           0.288 3500
         7         52      1           0.419 3500
         7         53      1           0.288 3500
         8          9      1           0.304 3500
         8         10      1           0.303 3500
         8         12      1           0.303 3500
         8         18      1           0.419 3500
         8         23      1           0.288 3500
         8         24      1           0.288 3500
         8         36      1           0.419 3500
         8         38      1           0.419 3500
         8         46      1           0.288 3500
         8         47      1           0.288 3500
         8         50      1           0.288 3500
         8         51      1           0.419 3500
         8         54      1           0.288 3500
         8         55      1           0.419 3500
         9         10      1           0.303 3500
         9         12      1           0.303 3500
         9         15      1           0.419 3500
         9         24      1           0.288 3500
         9         25      1           0.288 3500
         9         32      1           0.418 3500
         9         34      1           0.418 3500
         9         44      1           0.288 3500
         9         45      1           0.288 3500
         9         50      1           0.419 3500
         9         51      1           0.288 3500
         9         54      1           0.419 3500
         9         55      1           0.288 3500
        10         11      1           0.303 3500
        10         24      1           0.418 3500
        10         26      1           0.289 3500
        10         27      1           0.289 3500
        10         32      1           0.288 3500
        10         33      1           0.418 3500
        10         36      1           0.289 3500
        10         37      1           0.419 3500
        10         45      1           0.418 3500
        10         47      1           0.418 3500
        10         50      1           0.288 3500
        10         51      1           0.288 3500
        11         21      1           0.418 3500
        11         27      1           0.289 3500
        11         28      1           0.289 3500
        11         32      1           0.418 3500
        11         33      1           0.288 3500
        11         36      1           0.419 3500
        11         37      1           0.289 3500
        11         41      1           0.418 3500
        11         43      1           0.418 3500
        11         48      1           0.289 3500
        11         49      1           0.289 3500
        12         13      1           0.303 3500
        12         24      1           0.418 3500
        12         29      1           0.289 3500
        12         30      1           0.289 3500
        12         34      1           0.288 3500
        12         35      1           0.418 3500
        12         38      1           0.289 3500
        12         39      1           0.419 3500
        12         44      1           0.418 3500
        12         46      1           0.418 3500
        12         54      1           0.288 3500
        12         55      1           0.288 3500
        13         21      1           0.418 3500
        13         30      1           0.289 3500
        13         31      1           0.289 3500
        13         34      1           0.418 3500
        13         35      1           0.288 3500
        13         38      1           0.419 3500
        13         39      1           0.289 3500
        13         40      1           0.418 3500
        13         42      1           0.418 3500
        13         52      1           0.289 3500
        13         53      1           0.289 3500
        14         15      1           0.303 3500
        14         34      1           0.304 3500
        14         35      1           0.304 3500
        14         40      1           0.303 3500
        14         44      1           0.304 3500
        14         65      1           0.289 5000
        14         69      1           0.289 5000
        14         87      1           0.288 5000
        14         89      1           0.288 5000
        14        107      1           0.288 5000
        15         16      1           0.303 3500
        15         40      1           0.303 3500
        15         41      1           0.303 3500
        15         44      1           0.304 3500
        15         45      1           0.304 3500
        15         89      1           0.288 5000
        15         90      1           0.289 5000
        15         92      1           0.288 5000
        15        107      1           0.289 5000
        16         32      1           0.304 3500
        16         33      1           0.304 3500
        16         41      1           0.303 3500
        16         45      1           0.304 3500
        16         56      1           0.289 5000
        16         63      1           0.288 5000
        16         90      1           0.288 5000
        16         92      1           0.288 5000
        16        105      1           0.289 5000
        17         18      1           0.303 3500
        17         38      1           0.303 3500
        17         39      1           0.303 3500
        17         42      1           0.303 3500
        17         46      1           0.304 3500
        17         80      1           0.289 5000
        17         84      1           0.288 5000
        17         98      1           0.288 5000
        17        102      1           0.288 5000
        17        111      1           0.289 5000
        18         19      1           0.303 3500
        18         42      1           0.303 3500
        18         43      1           0.303 3500
        18         46      1           0.304 3500
        18         47      1           0.304 3500
        18         98      1           0.288 5000
        18        101      1           0.288 5000
        18        102      1           0.289 5000
        18        113      1           0.289 5000
        19         36      1           0.303 3500
        19         37      1           0.303 3500
        19         43      1           0.303 3500
        19         47      1           0.304 3500
        19         74      1           0.289 5000
        19         78      1           0.289 5000
        19         96      1           0.288 5000
        19        101      1           0.288 5000
        19        113      1           0.288 5000
        20         21      1           0.304 3500
        20         42      1           0.303 3500
        20         43      1           0.303 3500
        20         48      1           0.303 3500
        20         52      1           0.303 3500
        20         95      1           0.288 5000
        20         99      1           0.289 5000
        20        117      1           0.289 5000
        20        119      1           0.289 5000
        20        137      1           0.289 5000
        21         22      1           0.303 3500
        21         48      1           0.303 3500
        21         49      1           0.303 3500
        21         52      1           0.303 3500
        21         53      1           0.303 3500
        21        119      1           0.289 5000
        21        120      1           0.289 5000
        21        122      1           0.289 5000
        21        137      1           0.289 5000
        22         40      1           0.303 3500
        22         41      1           0.303 3500
        22         49      1           0.302 3500
        22         53      1           0.302 3500
        22         86      1           0.289 5000
        22         93      1           0.289 5000
        22        120      1           0.288 5000
        22        122      1           0.288 5000
        22        135      1           0.289 5000
        23         24      1           0.304 3500
        23         46      1           0.303 3500
        23         47      1           0.303 3500
        23         50      1           0.303 3500
        23         54      1           0.303 3500
        23        110      1           0.288 5000
        23        114      1           0.289 5000
        23        128      1           0.289 5000
        23        132      1           0.289 5000
        23        141      1           0.289 5000
        24         25      1           0.303 3500
        24         50      1           0.303 3500
        24         51      1           0.303 3500
        24         54      1           0.303 3500
        24         55      1           0.303 3500
        24        128      1           0.289 5000
        24        131      1           0.289 5000
        24        132      1           0.289 5000
        24        143      1           0.289 5000
        25         44      1           0.303 3500
        25         45      1           0.303 3500
        25         51      1           0.303 3500
        25         55      1           0.303 3500
        25        104      1           0.289 5000
        25        108      1           0.289 5000
        25        126      1           0.289 5000
        25        131      1           0.288 5000
        25        143      1           0.288 5000
        26         27      1           0.304 3500
        26         32      1           0.303 3500
        26         36      1           0.304 3500
        26         50      1           0.304 3500
        26         51      1           0.304 3500
        26         57      1           0.289 5000
        26         59      1           0.288 5000
        26         77      1           0.289 5000
        26        125      1           0.288 5000
        26        129      1           0.289 5000
        27         28      1           0.303 3500
        27         32      1           0.303 3500
        27         33      1           0.303 3500
        27         36      1           0.304 3500
        27         37      1           0.304 3500
        27         59      1           0.288 5000
        27         60      1           0.288 5000
        27         62      1           0.288 5000
        27         77      1           0.289 5000
        28         33      1           0.303 3500
        28         37      1           0.304 3500
        28         48      1           0.304 3500
        28         49      1           0.304 3500
        28         60      1           0.289 5000
        28         62      1           0.288 5000
        28         75      1           0.289 5000
        28        116      1           0.289 5000
        28        123      1           0.289 5000
        29         30      1           0.304 3500
        29         34      1           0.303 3500
        29         38      1           0.304 3500
        29         54      1           0.304 3500
        29         55      1           0.304 3500
        29         68      1           0.288 5000
        29         72      1           0.289 5000
        29         81      1           0.289 5000
        29        140      1           0.288 5000
        29        144      1           0.289 5000
        30         31      1           0.303 3500
        30         34      1           0.303 3500
        30         35      1           0.303 3500
        30         38      1           0.304 3500
        30         39      1           0.304 3500
        30         68      1           0.288 5000
        30         71      1           0.288 5000
        30         72      1           0.289 5000
        30         83      1           0.288 5000
        31         35      1           0.303 3500
        31         39      1           0.304 3500
        31         52      1           0.304 3500
        31         53      1           0.304 3500
        31         66      1           0.289 5000
        31         71      1           0.288 5000
        31         83      1           0.289 5000
        31        134      1           0.289 5000
        31        138      1           0.289 5000
        32         33      1           0.303 3500
        32         45      1           0.303 3500
        32         51      1           0.303 3500
        32         56      1           0.289 5000
        32         57      1           0.289 5000
        32         59      1           0.289 5000
        32        105      1           0.289 5000
        33         41      1           0.303 3500
        33         49      1           0.304 3500
        33         56      1           0.288 5000
        33         62      1           0.289 5000
        33         63      1           0.289 5000
        33        123      1           0.289 5000
        34         35      1           0.303 3500
        34         44      1           0.303 3500
        34         55      1           0.303 3500
        34         65      1           0.289 5000
        34         68      1           0.289 5000
        34         69      1           0.289 5000
        34        144      1           0.289 5000
        35         40      1           0.303 3500
        35         53      1           0.304 3500
        35         65      1           0.288 5000
        35         66      1           0.289 5000
        35         71      1           0.289 5000
        35         87      1           0.289 5000
        36         37      1           0.303 3500
        36         47      1           0.303 3500
        36         50      1           0.303 3500
        36         74      1           0.288 5000
        36         77      1           0.289 5000
        36         78      1           0.288 5000
        36        129      1           0.289 5000
        37         43      1           0.303 3500
        37         48      1           0.304 3500
        37         60      1           0.289 5000
        37         74      1           0.288 5000
        37         75      1           0.289 5000
        37         96      1           0.288 5000
        38         39      1           0.303 3500
        38         46      1           0.303 3500
        38         54      1           0.303 3500
        38         72      1           0.289 5000
        38         80      1           0.288 5000
        38         81      1           0.289 5000
        38        111      1           0.288 5000
        39         42      1           0.303 3500
        39         52      1           0.304 3500
        39         80      1           0.288 5000
        39         83      1           0.289 5000
        39         84      1           0.288 5000
        39        138      1           0.289 5000
        40         41      1           0.304 3500
        40         53      1           0.303 3500
        40         86      1           0.289 5000
        40         87      1           0.288 5000
        40         89      1           0.289 5000
        40        135      1           0.289 5000
        41         49      1           0.303 3500
        41         63      1           0.288 5000
        41         86      1           0.289 5000
        41         92      1           0.289 5000
        41         93      1           0.289 5000
        42         43      1           0.304 3500
        42         52      1           0.303 3500
        42         84      1           0.288 5000
        42         95      1           0.289 5000
        42         98      1           0.289 5000
        42         99      1           0.289 5000
        43         48      1           0.303 3500
        43         95      1           0.289 5000
        43         96      1           0.288 5000
        43        101      1           0.289 5000
        43        117      1           0.289 5000
        44         45      1           0.304 3500
        44         55      1           0.302 3500
        44         69      1           0.288 5000
        44        104      1           0.288 5000
        44        107      1           0.289 5000
        44        108      1           0.289 5000
        45         51      1           0.302 3500
        45         90      1           0.289 5000
        45        104      1           0.288 5000
        45        105      1           0.288 5000
        45        126      1           0.289 5000
        46         47      1           0.304 3500
        46         54      1           0.302 3500
        46        102      1           0.289 5000
        46        110      1           0.288 5000
        46        111      1           0.288 5000
        46        141      1           0.289 5000
        47         50      1           0.302 3500
        47         78      1           0.288 5000
        47        110      1           0.288 5000
        47        113      1           0.289 5000
        47        114      1           0.289 5000
        48         49      1           0.304 3500
        48         75      1           0.289 5000
        48        116      1           0.289 5000
        48        117      1           0.289 5000
        48        119      1           0.288 5000
        49         93      1           0.288 5000
        49        116      1           0.289 5000
        49        122      1           0.288 5000
        49        123      1           0.289 5000
        50         51      1           0.304 3500
        50        114      1           0.289 5000
        50        125      1           0.289 5000
        50        128      1           0.289 5000
        50        129      1           0.289 5000
        51         57      1           0.289 5000
        51        125      1           0.289 5000
        51        126      1           0.288 5000
        51        131      1           0.289 5000
        52         53      1           0.304 3500
        52         99      1           0.289 5000
        52        134      1           0.289 5000
        52        137      1           0.288 5000
        52        138      1           0.289 5000
        53         66      1           0.289 5000
        53        120      1           0.288 5000
        53        134      1           0.289 5000
        53        135      1           0.288 5000
        54         55      1           0.304 3500
        54         81      1           0.289 5000
        54        132      1           0.289 5000
        54        140      1           0.289 5000
        54        141      1           0.289 5000
        55        108      1           0.288 5000
        55        140      1           0.289 5000
        55        143      1           0.289 5000
        55        144      1           0.289 5000
        56         58      1           0.381 5000
        56         64      1           0.380 5000
        56        150      1           0.274 1250
        57         58      1           0.380 5000
        57        127      1           0.380 5000
        57        146      1           0.271 1250
        59         61      1           0.380 5000
        59        154      1           0.266 1250
        60         61      1           0.380 5000
        60         76      1           0.380 5000
        60        158      1           0.278 1250
        62         64      1           0.381 5000
        62        162      1           0.267 1250
        63         64      1           0.380 5000
        63         94      1           0.380 5000
        63        166      1           0.267 1250
        65         67      1           0.380 5000
        65         70      1           0.381 5000
        65        170      1           0.273 1250
        66         67      1           0.380 5000
        66        136      1           0.380 5000
        66        174      1           0.276 1250
        68         70      1           0.381 5000
        68         73      1           0.380 5000
        68        182      1           0.266 1250
        69         70      1           0.380 5000
        69        109      1           0.380 5000
        69        178      1           0.280 1250
        71         73      1           0.380 5000
        71        190      1           0.279 1250
        72         73      1           0.381 5000
        72         82      1           0.380 5000
        72        186      1           0.267 1250
        74         76      1           0.380 5000
        74         79      1           0.381 5000
        74        194      1           0.273 1250
        75         76      1           0.380 5000
        75        118      1           0.380 5000
        75        198      1           0.267 1250
        77         79      1           0.380 5000
        77        206      1           0.267 1250
        78         79      1           0.380 5000
        78        115      1           0.380 5000
        78        202      1           0.274 1250
        80         82      1           0.381 5000
        80         85      1           0.380 5000
        80        210      1           0.274 1250
        81         82      1           0.380 5000
        81        142      1           0.380 5000
        81        214      1           0.278 1250
        83         85      1           0.380 5000
        83        222      1           0.277 1250
        84         85      1           0.380 5000
        84        100      1           0.380 5000
        84        218      1           0.274 1250
        86         88      1           0.380 5000
        86         94      1           0.380 5000
        86        230      1           0.280 1250
        87         88      1           0.380 5000
        87        226      1           0.267 1250
        89         91      1           0.379 5000
        89        234      1           0.270 1250
        90         91      1           0.380 5000
        90        106      1           0.380 5000
        90        238      1           0.276 1250
        92         94      1           0.380 5000
        92        246      1           0.269 1250
        93         94      1           0.380 5000
        93        124      1           0.380 5000
        93        242      1           0.277 1250
        95         97      1           0.380 5000
        95        100      1           0.380 5000
        95        254      1           0.266 1250
        96         97      1           0.380 5000
        96        250      1           0.273 1250
        98        100      1           0.380 5000
        98        103      1           0.380 5000
        98        258      1           0.269 1250
        99        100      1           0.379 5000
        99        139      1           0.380 5000
        99        262      1           0.275 1250
       101        103      1           0.380 5000
       101        270      1           0.269 1250
       102        103      1           0.381 5000
       102        112      1           0.380 5000
       102        266      1           0.277 1250
       104        106      1           0.380 5000
       104        109      1           0.380 5000
       104        274      1           0.266 1250
       105        106      1           0.380 5000
       105        278      1           0.280 1250
       107        109      1           0.380 5000
       107        282      1           0.277 1250
       108        109      1           0.380 5000
       108        145      1           0.380 5000
       108        286      1           0.269 1250
       110        112      1           0.380 5000
       110        115      1           0.380 5000
       110        294      1           0.280 1250
       111        112      1           0.380 5000
       111        290      1           0.275 1250
       113        115      1           0.380 5000
       113        302      1           0.277 1250
       114        115      1           0.379 5000
       114        130      1           0.380 5000
       114        298      1           0.269 1250
       116        118      1           0.381 5000
       116        124      1           0.380 5000
       116        310      1           0.269 1250
       117        118      1           0.380 5000
       117        306      1           0.276 1250
       119        121      1           0.381 5000
       120        121      1           0.381 5000
       120        136      1           0.380 5000
       120        318      1           0.268 1250
       122        124      1           0.380 5000
       122        326      1           0.269 1250
       123        124      1           0.380 5000
       123        322      1           0.275 1250
       125        127      1           0.380 5000
       125        130      1           0.381 5000
       125        330      1           0.277 1250
       126        127      1           0.380 5000
       126        334      1           0.269 1250
       128        130      1           0.380 5000
       128        133      1           0.381 5000
       128        338      1           0.266 1250
       129        130      1           0.380 5000
       129        342      1           0.279 1250
       131        133      1           0.381 5000
       131        350      1           0.277 1250
       132        133      1           0.381 5000
       132        142      1           0.380 5000
       132        346      1           0.266 1250
       134        136      1           0.380 5000
       134        139      1           0.381 5000
       134        354      1           0.269 1250
       135        136      1           0.380 5000
       135        358      1           0.276 1250
       137        139      1           0.380 5000
       137        362      1           0.280 1250
       138        139      1           0.380 5000
       138        366      1           0.267 1250
       140        142      1           0.381 5000
       140        145      1           0.380 5000
       140        374      1           0.277 1250
       141        142      1           0.380 5000
       141        370      1           0.268 1250
       143        145      1           0.380 5000
       143        378      1           0.277 1250
       144        145      1           0.380 5000
       144        382      1           0.271 1250
       146        278      1           0.318 1250
       146        334      1           0.310 1250
       146        147      1           0.470 1250
       147        148      1           0.470 1250
       148        149      1           0.470 1250
       150        154      1           0.321 1250
       150        151      1           0.470 1250
       151        152      1           0.470 1250
       152        153      1           0.470 1250
       154        155      1           0.470 1250
       155        156      1           0.470 1250
       156        157      1           0.470 1250
       158        194      1           0.326 1250
       158        206      1           0.316 1250
       158        159      1           0.470 1250
       159        160      1           0.470 1250
       160        161      1           0.470 1250
       162        163      1           0.470 1250
       163        164      1           0.470 1250
       164        165      1           0.470 1250
       166        242      1           0.319 1250
       166        322      1           0.315 1250
       166        167      1           0.470 1250
       167        168      1           0.470 1250
       168        169      1           0.470 1250
       170        182      1           0.321 1250
       170        190      1           0.314 1250
       170        171      1           0.470 1250
       171        172      1           0.470 1250
       172        173      1           0.470 1250
       174        226      1           0.316 1250
       174        358      1           0.323 1250
       174        175      1           0.470 1250
       175        176      1           0.470 1250
       176        177      1           0.470 1250
       178        286      1           0.315 1250
       178        382      1           0.318 1250
       178        179      1           0.470 1250
       179        180      1           0.470 1250
       180        181      1           0.470 1250
       182        190      1           0.317 1250
       182        183      1           0.470 1250
       183        184      1           0.470 1250
       184        185      1           0.470 1250
       186        210      1           0.307 1250
       186        222      1           0.318 1250
       186        187      1           0.470 1250
       187        188      1           0.470 1250
       188        189      1           0.470 1250
       190        191      1           0.470 1250
       191        192      1           0.470 1250
       192        193      1           0.470 1250
       194        206      1           0.307 1250
       194        195      1           0.470 1250
       195        196      1           0.470 1250
       196        197      1           0.470 1250
       198        250      1           0.321 1250
       198        306      1           0.322 1250
       198        199      1           0.470 1250
       199        200      1           0.470 1250
       200        201      1           0.470 1250
       202        298      1           0.292 1250
       202        342      1           0.313 1250
       202        203      1           0.470 1250
       203        204      1           0.470 1250
       204        205      1           0.470 1250
       206        207      1           0.470 1250
       207        208      1           0.470 1250
       208        209      1           0.470 1250
       210        222      1           0.326 1250
       210        211      1           0.470 1250
       211        212      1           0.470 1250
       212        213      1           0.470 1250
       214        290      1           0.313 1250
       214        370      1           0.313 1250
       214        215      1           0.470 1250
       215        216      1           0.470 1250
       216        217      1           0.470 1250
       218        366      1           0.321 1250
       218        219      1           0.470 1250
       219        220      1           0.470 1250
       220        221      1           0.470 1250
       222        223      1           0.470 1250
       223        224      1           0.470 1250
       224        225      1           0.470 1250
       226        358      1           0.319 1250
       226        227      1           0.470 1250
       227        228      1           0.470 1250
       228        229      1           0.470 1250
       230        234      1           0.317 1250
       230        246      1           0.317 1250
       230        231      1           0.470 1250
       231        232      1           0.470 1250
       232        233      1           0.470 1250
       234        246      1           0.319 1250
       234        235      1           0.470 1250
       235        236      1           0.470 1250
       236        237      1           0.470 1250
       238        274      1           0.315 1250
       238        282      1           0.315 1250
       238        239      1           0.470 1250
       239        240      1           0.470 1250
       240        241      1           0.470 1250
       242        322      1           0.323 1250
       242        243      1           0.470 1250
       243        244      1           0.470 1250
       244        245      1           0.470 1250
       246        247      1           0.470 1250
       247        248      1           0.470 1250
       248        249      1           0.470 1250
       250        251      1           0.470 1250
       251        252      1           0.470 1250
       252        253      1           0.470 1250
       254        255      1           0.470 1250
       255        256      1           0.470 1250
       256        257      1           0.470 1250
       258        259      1           0.470 1250
       259        260      1           0.470 1250
       260        261      1           0.470 1250
       262        366      1           0.323 1250
       262        263      1           0.470 1250
       263        264      1           0.470 1250
       264        265      1           0.470 1250
       266        294      1           0.278 1250
       266        302      1           0.241 1250
       266        267      1           0.470 1250
       267        268      1           0.470 1250
       268        269      1           0.470 1250
       270        271      1           0.470 1250
       271        272      1           0.470 1250
       272        273      1           0.470 1250
       274        282      1           0.316 1250
       274        275      1           0.470 1250
       275        276      1           0.470 1250
       276        277      1           0.470 1250
       278        334      1           0.315 1250
       278        279      1           0.470 1250
       279        280      1           0.470 1250
       280        281      1           0.470 1250
       282        283      1           0.470 1250
       283        284      1           0.470 1250
       284        285      1           0.470 1250
       286        382      1           0.310 1250
       286        287      1           0.470 1250
       287        288      1           0.470 1250
       288        289      1           0.470 1250
       290        370      1           0.293 1250
       290        291      1           0.470 1250
       291        292      1           0.470 1250
       292        293      1           0.470 1250
       294        302      1           0.280 1250
       294        295      1           0.470 1250
       295        296      1           0.470 1250
       296        297      1           0.470 1250
       298        342      1           0.313 1250
       298        299      1           0.470 1250
       299        300      1           0.470 1250
       300        301      1           0.470 1250
       302        303      1           0.470 1250
       303        304      1           0.470 1250
       304        305      1           0.470 1250
       306        307      1           0.470 1250
       307        308      1           0.470 1250
       308        309      1           0.470 1250
       310        314      1           0.325 1250
       310        326      1           0.328 1250
       310        311      1           0.470 1250
       311        312      1           0.470 1250
       312        313      1           0.470 1250
       314        326      1           0.317 1250
       314        315      1           0.470 1250
       315        316      1           0.470 1250
       316        317      1           0.470 1250
       318        354      1           0.328 1250
       318        362      1           0.317 1250
       318        319      1           0.470 1250
       319        320      1           0.470 1250
       320        321      1           0.470 1250
       322        323      1           0.470 1250
       323        324      1           0.470 1250
       324        325      1           0.470 1250
       326        327      1           0.470 1250
       327        328      1           0.470 1250
       328        329      1           0.470 1250
       330        338      1           0.309 1250
       330        350      1           0.306 1250
       330        331      1           0.470 1250
       331        332      1           0.470 1250
       332        333      1           0.470 1250
       334        335      1           0.470 1250
       335        336      1           0.470 1250
       336        337      1           0.470 1250
       338        350      1           0.317 1250
       338        339      1           0.470 1250
       339        340      1           0.470 1250
       340        341      1           0.470 1250
       342        343      1           0.470 1250
       343        344      1           0.470 1250
       344        345      1           0.470 1250
       346        374      1           0.311 1250
       346        378      1           0.318 1250
       346        347      1           0.470 1250
       347        348      1           0.470 1250
       348        349      1           0.470 1250
       350        351      1           0.470 1250
       351        352      1           0.470 1250
       352        353      1           0.470 1250
       354        362      1           0.327 1250
       354        355      1           0.470 1250
       355        356      1           0.470 1250
       356        357      1           0.470 1250
       358        359      1           0.470 1250
       359        360      1           0.470 1250
       360        361      1           0.470 1250
       362        363      1           0.470 1250
       363        364      1           0.470 1250
       364        365      1           0.470 1250
       366        367      1           0.470 1250
       367        368      1           0.470 1250
       368        369      1           0.470 1250
       370        371      1           0.470 1250
       371        372      1           0.470 1250
       372        373      1           0.470 1250
       374        378      1           0.306 1250
       374        375      1           0.470 1250
       375        376      1           0.470 1250
       376        377      1           0.470 1250
       378        379      1           0.470 1250
       379        380      1           0.470 1250
       380        381      1           0.470 1250
       382        383      1           0.470 1250
       383        384      1           0.470 1250
       384        385      1           0.470 1250

 [ angles ]
;  i j k     funct  angle  force.c.
   146  147  148   2    180.0  25.0
   147  148  149   2    180.0  25.0
   150  151  152   2    180.0  25.0
   151  152  153   2    180.0  25.0
   154  155  156   2    180.0  25.0
   155  156  157   2    180.0  25.0
   158  159  160   2    180.0  25.0
   159  160  161   2    180.0  25.0
   162  163  164   2    180.0  25.0
   163  164  165   2    180.0  25.0
   166  167  168   2    180.0  25.0
   167  168  169   2    180.0  25.0
   170  171  172   2    180.0  25.0
   171  172  173   2    180.0  25.0
   174  175  176   2    180.0  25.0
   175  176  177   2    180.0  25.0
   178  179  180   2    180.0  25.0
   179  180  181   2    180.0  25.0
   182  183  184   2    180.0  25.0
   183  184  185   2    180.0  25.0
   186  187  188   2    180.0  25.0
   187  188  189   2    180.0  25.0
   190  191  192   2    180.0  25.0
   191  192  193   2    180.0  25.0
   194  195  196   2    180.0  25.0
   195  196  197   2    180.0  25.0
   198  199  200   2    180.0  25.0
   199  200  201   2    180.0  25.0
   202  203  204   2    180.0  25.0
   203  204  205   2    180.0  25.0
   206  207  208   2    180.0  25.0
   207  208  209   2    180.0  25.0
   210  211  212   2    180.0  25.0
   211  212  213   2    180.0  25.0
   214  215  216   2    180.0  25.0
   215  216  217   2    180.0  25.0
   218  219  220   2    180.0  25.0
   219  220  221   2    180.0  25.0
   222  223  224   2    180.0  25.0
   223  224  225   2    180.0  25.0
   226  227  228   2    180.0  25.0
   227  228  229   2    180.0  25.0
   230  231  232   2    180.0  25.0
   231  232  233   2    180.0  25.0
   234  235  236   2    180.0  25.0
   235  236  237   2    180.0  25.0
   238  239  240   2    180.0  25.0
   239  240  241   2    180.0  25.0
   242  243  244   2    180.0  25.0
   243  244  245   2    180.0  25.0
   246  247  248   2    180.0  25.0
   247  248  249   2    180.0  25.0
   250  251  252   2    180.0  25.0
   251  252  253   2    180.0  25.0
   254  255  256   2    180.0  25.0
   255  256  257   2    180.0  25.0
   258  259  260   2    180.0  25.0
   259  260  261   2    180.0  25.0
   262  263  264   2    180.0  25.0
   263  264  265   2    180.0  25.0
   266  267  268   2    180.0  25.0
   267  268  269   2    180.0  25.0
   270  271  272   2    180.0  25.0
   271  272  273   2    180.0  25.0
   274  275  276   2    180.0  25.0
   275  276  277   2    180.0  25.0
   278  279  280   2    180.0  25.0
   279  280  281   2    180.0  25.0
   282  283  284   2    180.0  25.0
   283  284  285   2    180.0  25.0
   286  287  288   2    180.0  25.0
   287  288  289   2    180.0  25.0
   290  291  292   2    180.0  25.0
   291  292  293   2    180.0  25.0
   294  295  296   2    180.0  25.0
   295  296  297   2    180.0  25.0
   298  299  300   2    180.0  25.0
   299  300  301   2    180.0  25.0
   302  303  304   2    180.0  25.0
   303  304  305   2    180.0  25.0
   306  307  308   2    180.0  25.0
   307  308  309   2    180.0  25.0
   310  311  312   2    180.0  25.0
   311  312  313   2    180.0  25.0
   314  315  316   2    180.0  25.0
   315  316  317   2    180.0  25.0
   318  319  320   2    180.0  25.0
   319  320  321   2    180.0  25.0
   322  323  324   2    180.0  25.0
   323  324  325   2    180.0  25.0
   326  327  328   2    180.0  25.0
   327  328  329   2    180.0  25.0
   330  331  332   2    180.0  25.0
   331  332  333   2    180.0  25.0
   334  335  336   2    180.0  25.0
   335  336  337   2    180.0  25.0
   338  339  340   2    180.0  25.0
   339  340  341   2    180.0  25.0
   342  343  344   2    180.0  25.0
   343  344  345   2    180.0  25.0
   346  347  348   2    180.0  25.0
   347  348  349   2    180.0  25.0
   350  351  352   2    180.0  25.0
   351  352  353   2    180.0  25.0
   354  355  356   2    180.0  25.0
   355  356  357   2    180.0  25.0
   358  359  360   2    180.0  25.0
   359  360  361   2    180.0  25.0
   362  363  364   2    180.0  25.0
   363  364  365   2    180.0  25.0
   366  367  368   2    180.0  25.0
   367  368  369   2    180.0  25.0
   370  371  372   2    180.0  25.0
   371  372  373   2    180.0  25.0
   374  375  376   2    180.0  25.0
   375  376  377   2    180.0  25.0
   378  379  380   2    180.0  25.0
   379  380  381   2    180.0  25.0
   382  383  384   2    180.0  25.0
   383  384  385   2    180.0  25.0
