Protein in INSANE! Membrane UpperLeaflet>POPC=1.0 LowerLeaflet>POPC=1.0
10365
    1AU     AUC    1   2.349   4.553   6.168 -0.0183 -0.0008 -0.0009
    1AU     AUC    2   2.046   4.463   6.151  0.1480 -0.0602 -0.1484
    1AU     AUC    3   2.302   4.360   5.904  0.0682  0.1445  0.0758
    1AU     AUC    4   2.418   4.779   6.387  0.0185 -0.0490 -0.0510
    1AU     AUC    5   2.648   4.669   6.184  0.0346  0.0426 -0.0507
    1AU     AUC    6   2.379   4.855   6.094  0.0212  0.0526  0.1198
    1AU     AUC    7   2.155   4.657   5.906  0.0437  0.0642 -0.0829
    1AU     AUC    8   2.538   4.464   6.424 -0.0061  0.0001 -0.0091
    1AU     AUC    9   2.302   4.237   6.216 -0.1221 -0.0313  0.0365
    1AU     AUC   10   2.571   4.331   6.085  0.0687  0.0686  0.1837
    1AU     AUC   11   2.516   4.594   5.894  0.0162  0.0661  0.0254
    1AU     AUC   12   2.188   4.532   6.428 -0.0002 -0.0117 -0.1064
    1AU     AUC   13   2.098   4.759   6.235 -0.1657  0.0631  0.0779
    1AU     AUC   14   1.704   4.365   6.092 -0.0548 -0.0172  0.0103
    1AU     AUC   15   1.920   4.242   5.849  0.0820 -0.0456  0.1099
    1AU     AUC   16   2.227   4.152   5.671  0.0940  0.0949  0.0354
    1AU     AUC   17   2.490   5.027   6.563 -0.0629 -0.0315 -0.0182
    1AU     AUC   18   2.719   4.946   6.396 -0.0030  0.0892 -0.0525
    1AU     AUC   19   2.965   4.777   6.215 -0.0470 -0.0116 -0.0487
    1AU     AUC   20   2.403   5.181   6.061  0.0595  0.1414  0.0430
    1AU     AUC   21   2.198   5.015   5.830 -0.0388 -0.0505 -0.0315
    1AU     AUC   22   1.980   4.808   5.635 -0.0324 -0.0408 -0.0510
    1AU     AUC   23   2.701   4.341   6.675 -0.0271  0.1011  0.0832
    1AU     AUC   24   2.465   4.107   6.556  0.0898  0.0250  0.0031
    1AU     AUC   25   2.218   3.916   6.365 -0.0134 -0.0343 -0.0958
    1AU     AUC   26   2.814   4.094   6.023 -0.0347 -0.0777 -0.0187
    1AU     AUC   27   2.793   4.365   5.766 -0.0418  0.0807 -0.0151
    1AU     AUC   28   2.720   4.669   5.607 -0.0458 -0.0329 -0.0095
    1AU     AUC   29   2.046   4.481   6.736  0.1449  0.0334  0.0560
    1AU     AUC   30   1.931   4.740   6.545  0.1303 -0.1561 -0.0549
    1AU     AUC   31   1.808   4.998   6.304 -0.0275 -0.0188 -0.0140
    1AU     AUC   32   2.535   4.114   5.830  0.0561  0.1310  0.0118
    1AU     AUC   33   2.471   4.379   5.605  0.0380  0.0306  0.0319
    1AU     AUC   34   1.820   4.416   6.425 -0.0472  0.0042  0.0303
    1AU     AUC   35   1.729   4.667   6.218  0.0169 -0.0035  0.0297
    1AU     AUC   36   2.942   4.411   6.112  0.0318  0.0093  0.0589
    1AU     AUC   37   2.869   4.726   5.902  0.1246 -0.0649 -0.0456
    1AU     AUC   38   2.259   4.760   6.711  0.0700  0.0400 -0.0169
    1AU     AUC   39   2.145   5.026   6.502 -0.0504 -0.0083 -0.1133
    1AU     AUC   40   1.789   4.564   5.843 -0.0304  0.0048  0.0499
    1AU     AUC   41   2.100   4.495   5.615 -0.0031 -0.0186  0.0128
    1AU     AUC   42   2.426   5.175   6.289  0.0090 -0.0684  0.0023
    1AU     AUC   43   2.727   5.025   6.140 -0.0472 -0.0529  0.0306
    1AU     AUC   44   1.966   4.104   6.212  0.0980  0.0425 -0.0299
    1AU     AUC   45   2.185   4.012   6.008 -0.0125 -0.0045 -0.1223
    1AU     AUC   46   2.649   4.686   6.657  0.0100 -0.0256 -0.1283
    1AU     AUC   47   2.878   4.555   6.451  0.0608  0.0190 -0.0205
    1AU     AUC   48   2.608   4.974   5.819  0.0247 -0.1045  0.0493
    1AU     AUC   49   2.350   4.755   5.628 -0.1068  0.0758 -0.0361
    1AU     AUC   50   2.746   4.206   6.350  0.0094  0.0133 -0.0631
    1AU     AUC   51   2.535   3.966   6.203  0.0327 -0.0722 -0.0042
    1AU     AUC   52   2.093   5.107   6.152 -0.0258 -0.0080  0.0729
    1AU     AUC   53   1.838   4.885   5.980 -0.0220  0.0542 -0.0062
    1AU     AUC   54   2.375   4.403   6.737 -0.0191 -0.0040 -0.0308
    1AU     AUC   55   2.139   4.208   6.528  0.0518  0.0363 -0.0601
    1AU    AUSL   56   2.494   3.987   5.477 -0.0256  0.0159 -0.0440
    1AU    AUSL   57   2.667   3.768   5.849 -0.0671 -0.0581 -0.0962
    1AU     AUL   58   2.528   3.594   5.469  0.0043 -0.0603 -0.0377
    1AU       S   59   2.449   3.360   5.854 -0.1168 -0.3097  0.1276
    1AU     LIG   60   2.763   3.011   5.979  0.0628 -0.3867 -0.0497
    1AU     LIG   61   2.922   2.688   6.140 -0.1441 -0.0081  0.0406
    1AU     LIG   62   3.185   2.415   6.331 -0.0008 -0.1272 -0.3349
    1AU       S   63   2.829   3.869   5.239  0.3519  0.6732  0.0910
    1AU     LIG   64   2.579   3.669   4.969  0.2629  0.2445  0.0264
    1AU     LIG   65   2.459   3.287   4.838  0.0649  0.1982  0.1180
    1AU     LIG   66   2.433   2.898   4.617  0.2105 -0.1596 -0.1049
    1AU    AUSL   67   2.843   4.120   5.727 -0.0929 -0.0561  0.0328
    1AU    AUSL   68   3.063   4.494   5.591  0.0306 -0.0646  0.0686
    1AU     AUL   69   3.180   4.266   5.399  0.0018 -0.0301  0.0457
    1AU       S   70   2.979   3.871   5.518 -0.0447  0.3623  0.2503
    1AU     LIG   71   3.099   3.590   5.696 -0.1840  0.2133  0.1421
    1AU     LIG   72   3.198   3.160   5.816  0.1479 -0.5561  0.2385
    1AU     LIG   73   3.166   2.777   5.722 -0.2902 -0.1103 -0.1459
    1AU       S   74   3.575   4.396   5.612 -0.1390  0.3645  0.1259
    1AU     LIG   75   4.045   4.597   5.577  0.0805  0.2637 -0.0505
    1AU     LIG   76   4.356   4.524   5.323  0.1030  0.0295 -0.1413
    1AU     LIG   77   4.675   4.356   5.135 -0.0063 -0.2125  0.4174
    1AU    AUSL   78   2.737   4.325   5.360 -0.0718  0.0131  0.0486
    1AU    AUSL   79   2.304   4.334   5.309  0.0389  0.0454 -0.0488
    1AU     AUL   80   2.424   4.109   5.151  0.0187 -0.0353 -0.1039
    1AU       S   81   2.863   4.190   5.089 -0.2622 -0.2325  0.1800
    1AU     LIG   82   3.345   4.287   4.884 -0.0456  0.0850 -0.1812
    1AU     LIG   83   3.552   4.668   4.612  0.1060  0.3086  0.1925
    1AU     LIG   84   3.860   4.938   4.794 -0.2696  0.1000 -0.1112
    1AU       S   85   2.435   4.549   4.980  0.2654  0.0506 -0.1322
    1AU     LIG   86   2.575   4.632   4.572 -0.3798 -0.0986 -0.2455
    1AU     LIG   87   2.408   4.749   4.170  0.3915  0.4273 -0.2789
    1AU     LIG   88   2.387   5.033   3.832  0.0419 -0.0377 -0.2253
    1AU    AUSL   89   1.521   4.526   6.352  0.0051 -0.0160  0.0136
    1AU    AUSL   90   1.460   4.924   6.153 -0.1206 -0.0206  0.0065
    1AU     AUL   91   1.172   4.616   6.298  0.0939  0.0323 -0.0268
    1AU       S   92   1.269   4.902   6.653  0.0502  0.0753 -0.1706
    1AU     LIG   93   0.978   5.313   6.665 -0.0490  0.3125 -0.3704
    1AU     LIG   94   0.592   5.517   6.476  0.1678 -0.0878 -0.2011
    1AU     LIG   95   0.165   5.435   6.642 -0.1730  0.2250 -0.1206
    1AU       S   96   1.163   5.035   6.004  0.0719  0.0585  0.0623
    1AU     LIG   97   0.990   5.348   5.801 -0.0848  0.1054  0.0500
    1AU     LIG   98   0.590   5.619   5.906 -0.4293  0.2803  0.0104
    1AU     LIG   99   0.134   5.722   6.047  0.2568 -0.0057 -0.2941
    1AU    AUSL  100   1.608   4.553   6.796 -0.0067 -0.0087  0.0845
    1AU    AUSL  101   1.520   4.117   6.402 -0.0921  0.0130 -0.0082
    1AU     AUL  102   1.314   4.371   6.646 -0.0259  0.0483 -0.0146
    1AU       S  103   1.391   3.852   6.598  0.2568 -0.2387 -0.5308
    1AU     LIG  104   1.087   3.554   6.547 -0.2398 -0.1054  0.4499
    1AU     LIG  105   0.920   3.126   6.421 -0.1205 -0.2951 -0.1154
    1AU     LIG  106   0.731   2.845   6.567  0.2188  0.1924 -0.1924
    1AU       S  107   1.258   4.879   6.825 -0.0742  0.2099  0.6166
    1AU     LIG  108   0.862   4.662   6.699  0.0444  0.1302  0.1119
    1AU     LIG  109   0.770   4.234   6.426 -0.2519  0.2961  0.1271
    1AU     LIG  110   0.449   4.017   6.467  0.3247 -0.0102  0.2125
    1AU    AUSL  111   1.719   4.865   6.498 -0.0087  0.0880 -0.0608
    1AU    AUSL  112   1.992   4.740   6.843 -0.1203 -0.0243 -0.0366
    1AU     AUL  113   1.665   4.766   6.931  0.0023  0.0257  0.0361
    1AU       S  114   1.808   5.169   7.210  0.3593 -0.1053  0.2259
    1AU     LIG  115   1.374   4.798   7.336 -0.0497 -0.2199  0.2430
    1AU     LIG  116   1.010   4.482   7.191  0.0862  0.2654 -0.1551
    1AU     LIG  117   0.680   4.349   7.547 -0.1981 -0.1488  0.0188
    1AU       S  118   1.453   5.031   6.615  0.5055 -0.4414  0.1430
    1AU     LIG  119   1.321   5.356   6.326  0.2753 -0.4644  0.3181
    1AU     LIG  120   1.003   5.627   6.241  0.0263 -0.2593 -0.2509
    1AU     LIG  121   1.233   6.011   6.516  0.0142  0.1529  0.2029
    1AU    AUSL  122   3.074   4.619   5.999 -0.0452  0.0351  0.0067
    1AU    AUSL  123   2.964   4.895   5.654 -0.0482  0.0968  0.0232
    1AU     AUL  124   3.294   4.786   5.673  0.0244 -0.0798  0.0486
    1AU       S  125   3.609   4.433   5.743  0.1572 -0.3805  0.1818
    1AU     LIG  126   3.965   4.217   5.931 -0.5339 -0.1008  0.2219
    1AU     LIG  127   4.301   4.040   5.694 -0.1241 -0.2951  0.0824
    1AU     LIG  128   4.588   3.816   5.395 -0.1275 -0.2042  0.1228
    1AU       S  129   3.203   5.267   5.678 -0.0326 -0.5718 -0.0705
    1AU     LIG  130   3.371   5.170   5.292 -0.0676  0.1576 -0.1803
    1AU     LIG  131   3.365   5.118   4.911  0.2851 -0.1845 -0.1386
    1AU     LIG  132   3.355   5.077   4.456 -0.2498  0.3156 -0.1167
    1AU    AUSL  133   3.215   4.231   5.900  0.1185  0.0499 -0.0459
    1AU    AUSL  134   3.292   4.450   6.335 -0.0167  0.1070 -0.0478
    1AU     AUL  135   3.411   4.590   6.103  0.0247 -0.0058 -0.0096
    1AU       S  136   3.494   4.193   6.341  0.4162 -0.5136  0.5079
    1AU     LIG  137   3.842   4.469   6.382  0.1123 -0.3017 -0.3385
    1AU     LIG  138   4.176   4.655   6.023  0.2143  0.2714  0.2636
    1AU     LIG  139   4.540   4.601   5.877 -0.1093  0.1170  0.2813
    1AU       S  140   3.370   4.182   5.824  0.1208 -0.2822  0.3121
    1AU     LIG  141   3.607   3.791   5.865 -0.4109  0.1806 -0.2504
    1AU     LIG  142   4.073   3.545   5.918  0.2364  0.1927  0.2965
    1AU     LIG  143   4.153   3.142   6.039 -0.0861 -0.0315  0.2611
    1AU    AUSL  144   2.259   5.103   6.949  0.0434  0.0049  0.0103
    1AU    AUSL  145   2.299   4.593   7.089  0.0502  0.0153 -0.0194
    1AU     AUL  146   2.109   4.830   7.203 -0.0004  0.0445 -0.0188
    1AU       S  147   2.000   5.290   7.204 -0.0839  0.2733  0.1489
    1AU     LIG  148   2.122   5.510   7.546  0.2386  0.2177  0.0622
    1AU     LIG  149   2.068   5.714   7.972 -0.3170 -0.0610 -0.1385
    1AU     LIG  150   1.988   6.050   8.308  0.0512  0.0220  0.0796
    1AU       S  151   2.547   4.697   7.351  0.1604  0.2857 -0.1086
    1AU     LIG  152   2.160   4.539   7.603  0.1373  0.3614  0.1665
    1AU     LIG  153   1.867   4.439   7.407  0.2879 -0.0998  0.0589
    1AU     LIG  154   1.594   4.289   7.219 -0.0691  0.2707  0.2678
    1AU    AUSL  155   1.885   5.144   6.744 -0.0387 -0.0222 -0.0144
    1AU    AUSL  156   2.305   5.241   6.539 -0.0546  0.0093  0.0081
    1AU     AUL  157   2.224   5.405   6.829 -0.0302  0.0431  0.0659
    1AU       S  158   1.949   5.686   6.615  0.3754 -0.0139  0.2877
    1AU     LIG  159   1.800   6.123   6.799 -0.5644  0.1736  0.0569
    1AU     LIG  160   1.920   6.397   6.501  0.0217  0.0816  0.0959
    1AU     LIG  161   1.993   6.523   6.070  0.0582 -0.2067 -0.0141
    1AU       S  162   1.818   5.211   6.918  0.1392  0.0937 -0.0776
    1AU     LIG  163   1.331   5.275   7.057  0.2500 -0.1490  0.0072
    1AU     LIG  164   1.261   5.273   7.486 -0.2108 -0.2383  0.0471
    1AU     LIG  165   1.667   5.292   7.830 -0.0124  0.0594  0.0435
    1AU    AUSL  166   1.766   4.553   5.476 -0.0462 -0.0708  0.0006
    1AU    AUSL  167   1.440   4.526   5.935  0.0044 -0.0297 -0.0136
    1AU     AUL  168   1.377   4.647   5.538 -0.0687  0.0046 -0.0397
    1AU       S  169   1.018   4.690   5.873 -0.2323 -0.0103  0.0203
    1AU     LIG  170   0.727   4.657   6.237 -0.1969 -0.3876 -0.3795
    1AU     LIG  171   0.434   4.834   6.484 -0.3991  0.1381 -0.2275
    1AU     LIG  172   0.549   5.068   6.775  0.1106 -0.1030  0.0606
    1AU       S  173   1.573   4.396   5.189 -0.2985 -0.2898 -0.1021
    1AU     LIG  174   1.386   4.630   4.939  0.0326 -0.0831 -0.2808
    1AU     LIG  175   1.638   4.812   4.695  0.4149 -0.0438  0.5911
    1AU     LIG  176   1.954   4.873   4.422  0.0475 -0.0889  0.1389
    1AU    AUSL  177   1.583   4.222   5.695 -0.0710  0.0318  0.0029
    1AU    AUSL  178   1.861   3.856   5.701 -0.0601 -0.0042 -0.0153
    1AU     AUL  179   1.470   3.866   5.701 -0.0985  0.1071 -0.0439
    1AU       S  180   1.511   4.181   5.385 -0.2064  0.0086 -0.3407
    1AU     LIG  181   1.293   3.783   5.227 -0.0419  0.0276  0.0090
    1AU     LIG  182   1.280   3.405   5.310  0.2463 -0.0954  0.1521
    1AU     LIG  183   1.178   3.069   5.114  0.0407  0.0556  0.0889
    1AU       S  184   1.733   3.459   5.780 -0.1754  0.2495  0.1848
    1AU     LIG  185   1.941   3.136   5.610 -0.3969  0.0396 -0.2889
    1AU     LIG  186   2.413   3.059   5.511  0.0831  0.3695 -0.0262
    1AU     LIG  187   2.662   2.869   5.069 -0.0665 -0.3008 -0.0382
    1AU    AUSL  188   2.010   4.229   5.586 -0.0191  0.0202  0.1017
    1AU    AUSL  189   2.095   4.753   5.289  0.0020  0.0053 -0.0410
    1AU     AUL  190   2.016   4.362   5.191 -0.0367 -0.0192 -0.0250
    1AU       S  191   2.239   4.764   4.980  0.2925 -0.1269 -0.2090
    1AU     LIG  192   2.289   5.077   4.704  0.0375 -0.1053 -0.2498
    1AU     LIG  193   2.468   5.464   4.665 -0.0367 -0.1211  0.0370
    1AU     LIG  194   2.844   5.790   4.476 -0.1071  0.2533 -0.4285
    1AU       S  195   1.718   3.997   5.271 -0.0642  0.0500  0.0523
    1AU     LIG  196   2.093   3.786   5.121 -0.1095 -0.2908  0.2491
    1AU     LIG  197   2.176   3.392   5.222  0.0540  0.2906  0.0932
    1AU     LIG  198   2.147   2.964   5.084 -0.0034  0.1162  0.0884
    1AU    AUSL  199   2.705   5.392   6.565  0.0095  0.0871 -0.0416
    1AU    AUSL  200   3.187   5.016   6.062 -0.0053 -0.0722  0.0398
    1AU     AUL  201   3.283   5.149   6.447 -0.1267 -0.0324  0.0573
    1AU       S  202   3.302   5.200   5.950 -0.1132  0.0072 -0.2401
    1AU     LIG  203   3.470   5.522   6.172 -0.0066  0.1110  0.1192
    1AU     LIG  204   3.765   5.448   6.463 -0.1979  0.0564  0.1390
    1AU     LIG  205   3.905   5.725   6.780  0.0518 -0.1432 -0.1888
    1AU       S  206   2.866   5.551   6.709 -0.0283  0.1627 -0.0906
    1AU     LIG  207   2.615   5.480   7.109  0.0047  0.1307  0.1212
    1AU     LIG  208   2.483   5.204   7.361 -0.0269  0.1246 -0.2641
    1AU     LIG  209   2.432   4.947   7.762 -0.1842  0.1712 -0.4153
    1AU    AUSL  210   2.679   5.478   6.181  0.0360  0.0476  0.1400
    1AU    AUSL  211   2.249   5.511   6.195  0.0177 -0.0265  0.0728
    1AU     AUL  212   2.428   5.622   6.439 -0.0346 -0.0717 -0.0826
    1AU       S  213   2.883   5.796   6.371  0.0909 -0.1384  0.0403
    1AU     LIG  214   3.193   5.997   6.193  0.3137  0.0073 -0.0489
    1AU     LIG  215   3.576   6.287   6.159  0.1917 -0.4334  0.0407
    1AU     LIG  216   3.994   6.382   6.180 -0.1910 -0.1573  0.1394
    1AU       S  217   2.049   5.834   6.379 -0.2421  0.0318 -0.2987
    1AU     LIG  218   2.374   6.114   6.229  0.0817  0.2513  0.5215
    1AU     LIG  219   2.797   6.321   6.322  0.0811  0.0073  0.0732
    1AU     LIG  220   3.254   6.395   6.566  0.0060 -0.0759  0.1093
    1AU    AUSL  221   2.862   5.108   6.286  0.0455  0.0074  0.0229
    1AU    AUSL  222   2.881   5.063   6.721  0.0166  0.0788 -0.0170
    1AU     AUL  223   2.993   5.385   6.240 -0.0254  0.0228 -0.0485
    1AU       S  224   3.198   5.116   6.920 -0.1476 -0.0880 -0.1082
    1AU     LIG  225   3.171   5.441   7.154  0.0456 -0.0796  0.1744
    1AU     LIG  226   3.059   5.796   7.248  0.1082 -0.0437  0.0008
    1AU     LIG  227   3.150   6.212   7.309  0.1408 -0.1586  0.2012
    1AU       S  228   3.150   5.517   6.660  0.2363 -0.1831 -0.0836
    1AU     LIG  229   3.435   5.814   6.564  0.0335  0.0717 -0.0727
    1AU     LIG  230   3.732   6.134   6.573  0.0286 -0.2571  0.0971
    1AU     LIG  231   3.887   6.160   6.975  0.1686 -0.2478 -0.1463
    1AU    AUSL  232   1.971   3.742   6.109  0.0140 -0.0270 -0.1188
    1AU    AUSL  233   2.271   3.918   5.818 -0.1185 -0.0069 -0.0055
    1AU     AUL  234   2.098   3.690   5.643  0.0532 -0.0659  0.0091
    1AU       S  235   1.868   3.524   6.037 -0.5533 -0.9368  0.0215
    1AU     LIG  236   1.792   3.081   6.141  0.0438  0.2107 -0.0827
    1AU     LIG  237   1.830   2.634   5.918  0.0429  0.3384 -0.1397
    1AU     LIG  238   1.650   2.484   5.461  0.0282  0.3466  0.2389
    1AU       S  239   2.303   3.406   5.902  0.1818  0.0349  0.2152
    1AU     LIG  240   2.279   2.984   6.105  0.3828 -0.3361 -0.4049
    1AU     LIG  241   2.168   2.727   6.344  0.1271  0.0900 -0.0459
    1AU     LIG  242   1.919   2.528   6.799  0.3217  0.3465  0.2265
    1AU    AUSL  243   1.755   4.118   6.066  0.0064 -0.0145  0.0933
    1AU    AUSL  244   1.852   3.824   6.489 -0.0045  0.0980  0.0510
    1AU     AUL  245   1.581   3.842   6.186  0.0479 -0.0116  0.0059
    1AU       S  246   1.617   3.484   5.929  0.2549 -0.4612  0.1356
    1AU     LIG  247   1.169   3.440   6.028  0.0368 -0.1467 -0.2227
    1AU     LIG  248   0.833   3.688   6.148  0.0423  0.0164 -0.2465
    1AU     LIG  249   0.314   3.626   6.226 -0.0518 -0.3485 -0.0350
    1AU       S  250   1.589   3.670   6.657 -0.0978 -0.1838  0.1742
    1AU     LIG  251   1.460   3.288   6.465 -0.1346 -0.4172 -0.1537
    1AU     LIG  252   1.380   2.907   6.364 -0.2268 -0.1711  0.3682
    1AU     LIG  253   1.630   2.547   6.371  0.0314 -0.2614 -0.1709
    1AU    AUSL  254   2.962   4.658   6.859  0.0695 -0.0662 -0.0340
    1AU    AUSL  255   2.535   4.816   6.807  0.0155 -0.1318  0.0134
    1AU     AUL  256   2.733   5.043   6.964  0.0251  0.0915  0.0624
    1AU       S  257   2.766   4.703   7.300  0.4291  0.0226 -0.1734
    1AU     LIG  258   2.909   4.967   7.493  0.0225 -0.2943  0.0811
    1AU     LIG  259   2.861   5.425   7.551 -0.3241  0.0677  0.0414
    1AU     LIG  260   2.792   5.852   7.720  0.0833 -0.5336  0.0196
    1AU       S  261   3.199   4.883   7.056  0.0342 -0.1094 -0.3274
    1AU     LIG  262   3.522   4.534   7.103 -0.0998  0.2616  0.1586
    1AU     LIG  263   3.877   4.345   6.957 -0.0527  0.0583 -0.2095
    1AU     LIG  264   4.105   4.137   6.639 -0.2064  0.3034  0.2644
    1AU    AUSL  265   3.048   4.763   6.458 -0.0107 -0.0664 -0.0729
    1AU    AUSL  266   3.045   4.292   6.650 -0.0231 -0.0238  0.0566
    1AU     AUL  267   3.282   4.543   6.678  0.0791  0.0007  0.0265
    1AU       S  268   3.496   4.109   6.574  0.1308  0.0082  0.2668
    1AU     LIG  269   3.548   3.666   6.615 -0.2043 -0.0700  0.0238
    1AU     LIG  270   3.373   3.239   6.734  0.3465 -0.3626 -0.2140
    1AU     LIG  271   3.468   2.745   6.648  0.2951 -0.1024  0.3243
    1AU       S  272   3.317   4.959   6.862 -0.1682 -0.0285 -0.4138
    1AU     LIG  273   3.680   4.855   6.659 -0.1597 -0.0105  0.1430
    1AU     LIG  274   3.728   4.990   6.211 -0.0677 -0.0428  0.0874
    1AU     LIG  275   3.741   4.964   5.699 -0.1749  0.2957 -0.1829
    1AU    AUSL  276   2.612   5.074   5.470  0.0137 -0.0642  0.0792
    1AU    AUSL  277   2.783   5.204   5.867  0.0097 -0.0544 -0.0085
    1AU     AUL  278   2.937   5.034   5.405  0.0088  0.0039 -0.0060
    1AU       S  279   3.048   5.424   5.785 -0.1476  0.0853 -0.2953
    1AU     LIG  280   2.967   5.791   5.835  0.0176 -0.2432  0.0083
    1AU     LIG  281   2.732   6.139   5.886  0.1553 -0.3221 -0.4984
    1AU     LIG  282   2.774   6.474   5.547  0.1584 -0.5176  0.1393
    1AU       S  283   2.719   5.461   5.341  0.6892 -0.1797 -0.0132
    1AU     LIG  284   3.151   5.704   5.351  0.1158 -0.6172  0.2985
    1AU     LIG  285   3.202   6.231   5.283  0.1738  0.1080  0.0310
    1AU     LIG  286   3.100   6.611   5.216 -0.0068 -0.1841  0.1571
    1AU    AUSL  287   2.419   5.374   5.744  0.0838  0.1086  0.0634
    1AU    AUSL  288   1.854   5.160   5.568 -0.0760 -0.0468  0.0684
    1AU     AUL  289   2.102   5.465   5.575  0.0100  0.0565 -0.0270
    1AU       S  290   2.617   5.574   5.548  0.0509  0.0832 -0.0379
    1AU     LIG  291   2.347   5.840   5.838  0.0963  0.6767 -0.0204
    1AU     LIG  292   1.958   6.002   5.946 -0.3384  0.1279 -0.0482
    1AU     LIG  293   1.583   6.113   5.737  0.0425  0.1772  0.1577
    1AU       S  294   1.625   5.471   5.501 -0.3106 -0.1427  0.1335
    1AU     LIG  295   1.197   5.592   5.270 -0.0991 -0.4785  0.3970
    1AU     LIG  296   0.963   5.901   5.253  0.0879 -0.2968 -0.1988
    1AU     LIG  297   0.764   6.049   5.582 -0.3066  0.0096  0.3967
    1AU    AUSL  298   2.233   4.970   5.621  0.0991 -0.1184 -0.0464
    1AU    AUSL  299   2.509   4.684   5.416  0.0942  0.0917 -0.0856
    1AU     AUL  300   2.294   5.076   5.313  0.0314 -0.0550  0.0615
    1AU       S  301   2.561   4.711   5.106  0.2206  0.5670  0.4175
    1AU     LIG  302   2.729   5.114   4.960 -0.0132  0.1012  0.1525
    1AU     LIG  303   2.936   5.445   4.832 -0.0714  0.3697  0.1491
    1AU     LIG  304   3.252   5.667   4.811  0.1423  0.1259 -0.1733
    1AU       S  305   2.449   5.506   5.232 -0.4115 -0.1486 -0.4515
    1AU     LIG  306   2.097   5.587   5.030  0.1356  0.3667 -0.1025
    1AU     LIG  307   1.680   5.530   5.028  0.0846 -0.2870 -0.3905
    1AU     LIG  308   1.362   5.294   4.840  0.2660 -0.1592  0.2394
    1AU    AUSL  309   2.831   3.782   6.262  0.0565 -0.0448 -0.0152
    1AU    AUSL  310   2.393   3.731   6.184 -0.0288 -0.0243  0.0164
    1AU     AUL  311   2.801   3.534   6.075 -0.0165  0.1294 -0.0076
    1AU       S  312   2.903   3.513   6.535  0.1006 -0.2700  0.1267
    1AU     LIG  313   3.287   3.505   6.252  0.4505  0.1180  0.1167
    1AU     LIG  314   3.726   3.330   6.260 -0.1356 -0.0297  0.1016
    1AU     LIG  315   4.048   3.315   6.566  0.0425  0.3758  0.3166
    1AU       S  316   2.348   3.470   6.131  0.3625  0.0467 -0.0222
    1AU     LIG  317   2.067   3.409   6.463  0.0631  0.2581  0.0235
    1AU     LIG  318   1.837   3.000   6.700  0.1555 -0.1265 -0.3376
    1AU     LIG  319   1.508   2.864   7.050  0.1410 -0.1833 -0.2169
    1AU    AUSL  320   2.727   4.037   6.602  0.0745 -0.0299 -0.0404
    1AU    AUSL  321   2.963   4.171   6.241 -0.0616 -0.1005  0.0232
    1AU     AUL  322   3.065   3.950   6.547 -0.0374 -0.0483  0.0209
    1AU       S  323   2.902   3.481   6.698  0.0270  0.1244 -0.1684
    1AU     LIG  324   2.951   3.057   6.510  0.2820  0.0320 -0.1910
    1AU     LIG  325   3.268   3.007   6.252  0.1422  0.1241  0.0498
    1AU     LIG  326   3.471   2.695   6.044 -0.0093 -0.5083 -0.0737
    1AU       S  327   3.399   3.993   6.248 -0.4790 -0.0268 -0.0651
    1AU     LIG  328   3.852   3.909   6.292  0.1332  0.0362  0.0772
    1AU     LIG  329   4.207   3.722   6.350  0.4286  0.0756 -0.5774
    1AU     LIG  330   4.405   3.673   6.674 -0.0765  0.0319  0.2845
    1AU    AUSL  331   2.490   3.682   6.599 -0.0220  0.0410  0.0183
    1AU    AUSL  332   2.494   4.024   6.945 -0.0099 -0.1299 -0.0990
    1AU     AUL  333   2.758   3.867   6.918 -0.0972  0.0563  0.0666
    1AU       S  334   2.325   3.766   7.052  0.0274  0.1761  0.1266
    1AU     LIG  335   2.591   3.557   7.240  0.0537  0.0001  0.1879
    1AU     LIG  336   2.785   3.607   7.602 -0.0548 -0.0308 -0.2315
    1AU     LIG  337   2.797   3.699   8.043  0.0746  0.0545 -0.2568
    1AU       S  338   2.589   3.475   6.571 -0.0340 -0.2568 -0.1687
    1AU     LIG  339   2.380   3.055   6.585  0.2218 -0.1504  0.1339
    1AU     LIG  340   2.644   2.666   6.516  0.0244 -0.3509  0.1624
    1AU     LIG  341   3.034   2.622   6.854  0.0206 -0.2532 -0.1765
    1AU    AUSL  342   1.671   5.247   5.979 -0.0294  0.0623  0.0410
    1AU    AUSL  343   1.756   4.828   5.811  0.0771  0.0092 -0.0465
    1AU     AUL  344   1.515   5.056   5.710  0.0020 -0.0538 -0.0126
    1AU       S  345   1.514   5.471   5.867 -0.2530  0.0247 -0.0969
    1AU     LIG  346   1.560   5.812   6.205 -0.2451  0.0701  0.3063
    1AU     LIG  347   1.540   6.264   6.194 -0.0630 -0.1943  0.1574
    1AU     LIG  348   1.466   6.623   6.471  0.0464 -0.2243  0.0474
    1AU       S  349   1.118   4.851   5.831  0.3694  0.1935 -0.2656
    1AU     LIG  350   1.035   5.023   5.414  0.1294  0.1648 -0.2062
    1AU     LIG  351   0.907   5.115   4.994  0.2310 -0.1425  0.1142
    1AU     LIG  352   0.744   5.255   4.642  0.1491 -0.2973 -0.0494
    1AU    AUSL  353   2.090   5.222   5.946  0.0747 -0.0844  0.0190
    1AU    AUSL  354   1.883   5.289   6.342  0.0203  0.1130 -0.0935
    1AU     AUL  355   1.953   5.520   6.007  0.0255  0.1162 -0.0172
    1AU       S  356   1.616   5.601   5.681  0.2089  0.1827 -0.1085
    1AU     LIG  357   1.191   5.825   5.702 -0.1798 -0.3795 -0.0409
    1AU     LIG  358   0.972   6.086   6.021 -0.3773 -0.1479 -0.1717
    1AU     LIG  359   0.697   6.001   6.364  0.3236  0.4847 -0.0512
    1AU       S  360   1.786   5.501   6.456  0.1939  0.0850 -0.3191
    1AU     LIG  361   1.500   5.617   6.713  0.1146  0.2166  0.0750
    1AU     LIG  362   1.627   5.672   7.086 -0.0575 -0.1304 -0.1906
    1AU     LIG  363   1.669   5.622   7.484  0.2246 -0.0419  0.2564
    1AU    AUSL  364   2.112   4.231   6.956 -0.0237 -0.1225  0.0065
    1AU    AUSL  365   2.637   4.404   6.904  0.0908  0.0390  0.0299
    1AU     AUL  366   2.374   4.257   7.210 -0.0182 -0.0714 -0.0585
    1AU       S  367   2.773   4.505   7.230  0.0376 -0.0648 -0.2894
    1AU     LIG  368   3.096   4.205   7.186 -0.0890 -0.0784 -0.1893
    1AU     LIG  369   3.279   3.827   7.040 -0.1940  0.2165  0.4841
    1AU     LIG  370   3.123   3.399   7.192  0.2828 -0.0463  0.1499
    1AU       S  371   2.067   3.849   7.199 -0.1842 -0.0225  0.3557
    1AU     LIG  372   2.216   3.998   7.638  0.0722  0.0685  0.0074
    1AU     LIG  373   2.325   3.891   8.039 -0.2285  0.1672  0.2122
    1AU     LIG  374   2.410   3.513   8.381 -0.3286  0.1405  0.0197
    1AU    AUSL  375   2.222   3.985   6.608 -0.0272 -0.1154 -0.0738
    1AU    AUSL  376   1.856   4.267   6.607 -0.0040  0.0132 -0.0137
    1AU     AUL  377   1.885   4.008   6.819 -0.1412 -0.0415  0.0260
    1AU       S  378   2.159   3.650   6.907 -0.1407 -0.0750  0.1709
    1AU     LIG  379   1.803   3.348   7.000  0.0771  0.0549  0.4786
    1AU     LIG  380   1.375   3.365   6.993 -0.1065 -0.2673  0.1236
    1AU     LIG  381   0.905   3.485   6.953 -0.0429 -0.0887  0.0242
    1AU       S  382   1.444   3.979   6.878 -0.0965  0.1724  0.1009
    1AU     LIG  383   1.030   3.954   6.876 -0.0111  0.2346 -0.1200
    1AU     LIG  384   0.669   4.260   6.893  0.2230 -0.0862 -0.1213
    1AU     LIG  385   0.264   4.443   6.715 -0.1303 -0.2455 -0.0043
    2POPC   NC3  386   1.550   1.851   8.603  0.0608 -0.1999 -0.1947
    2POPC   PO4  387   1.499   1.436   8.472  0.1237  0.1879  0.7097
    2POPC   GL1  388   1.797   1.400   8.185  0.3451 -0.3423 -0.1936
    2POPC   GL2  389   1.881   1.664   8.192  0.1924 -0.3075  0.2879
    2POPC   C1A  390   1.838   1.327   7.775 -0.1064 -0.5052  0.1457
    2POPC   D2A  391   1.816   1.461   7.271  0.2137 -0.2344 -0.0566
    2POPC   C3A  392   2.005   1.802   7.066 -0.1161 -0.0451  0.0411
    2POPC   C4A  393   1.838   1.957   6.606  0.0859  0.1285  0.3574
    2POPC   C1B  394   1.860   1.904   7.817  0.0830  0.0691  0.2764
    2POPC   C2B  395   2.107   2.082   7.476  0.0876 -0.0738 -0.1361
    2POPC   C3B  396   2.237   2.248   7.111  0.1100  0.1519 -0.0477
    2POPC   C4B  397   2.332   2.265   6.653  0.1882  0.1774 -0.0260
    3POPC   NC3  398   9.592   5.059   8.877 -0.1345 -0.1166 -0.0902
    3POPC   PO4  399   9.197   5.173   8.734 -0.1720  0.0379 -0.1075
    3POPC   GL1  400   9.396   5.332   8.305  0.0123  0.2289  0.1671
    3POPC   GL2  401   9.283   5.372   8.045  0.0360 -0.0024  0.0177
    3POPC   C1A  402   9.799   5.376   8.022 -0.0527  0.2587  0.1320
    3POPC   D2A  403  10.090   5.539   7.788  0.0344  0.1952  0.0628
    3POPC   C3A  404  10.134   5.309   7.366  0.2342  0.5973 -0.2462
    3POPC   C4A  405   9.855   5.161   7.066  0.3938 -0.0081 -0.1347
    3POPC   C1B  406   9.243   5.597   7.592  0.0581  0.0189 -0.0290
    3POPC   C2B  407   9.358   5.973   7.248 -0.0175  0.2355  0.1182
    3POPC   C3B  408   9.650   5.964   6.978  0.1016 -0.0682 -0.1527
    3POPC   C4B  409   9.704   5.918   6.518  0.0212  0.1655 -0.1058
    4POPC   NC3  410   4.265   6.176   8.546  0.2220 -0.1747 -0.0867
    4POPC   PO4  411   4.025   6.559   8.645  0.1118  0.0094 -0.0645
    4POPC   GL1  412   3.933   6.512   8.222 -0.2716  0.2176 -0.2131
    4POPC   GL2  413   4.228   6.415   8.067 -0.0421  0.0606 -0.2547
    4POPC   C1A  414   3.821   6.225   7.802 -0.0849  0.1953 -0.2427
    4POPC   D2A  415   3.751   5.877   7.483  0.1457  0.4772  0.5422
    4POPC   C3A  416   3.490   5.851   7.079  0.0621  0.4549 -0.0821
    4POPC   C4A  417   3.089   6.043   6.812  0.0758 -0.1501 -0.0010
    4POPC   C1B  418   4.501   6.072   7.953  0.3367  0.2405  0.1388
    4POPC   C2B  419   4.732   5.820   7.806  0.3437  0.2857  0.7293
    4POPC   C3B  420   4.987   5.322   7.639 -0.0054  0.1260 -0.1636
    4POPC   C4B  421   5.027   5.226   7.144  0.0476  0.0465 -0.0752
    5POPC   NC3  422   6.824   7.538   8.683  0.2386  0.1110 -0.0220
    5POPC   PO4  423   6.931   7.901   8.512 -0.2816 -0.0007 -0.0693
    5POPC   GL1  424   6.992   8.118   8.100 -0.2007 -0.4880  0.3695
    5POPC   GL2  425   6.982   7.874   7.836  0.2002  0.1629 -0.4331
    5POPC   C1A  426   7.224   8.345   7.710  0.0972  0.3325 -0.0359
    5POPC   D2A  427   7.036   8.527   7.266  0.0333 -0.1260 -0.0519
    5POPC   C3A  428   7.257   8.614   6.794 -0.0817 -0.1857 -0.1731
    5POPC   C4A  429   7.564   8.570   6.450  0.0765 -0.0510 -0.0796
    5POPC   C1B  430   6.963   7.995   7.357 -0.2586  0.0955 -0.1848
    5POPC   C2B  431   7.173   8.081   6.908  0.2356  0.0634 -0.0631
    5POPC   C3B  432   7.130   7.753   6.568  0.1474 -0.0730 -0.0345
    5POPC   C4B  433   6.842   7.364   6.363  0.0905 -0.0523 -0.1901
    6POPC   NC3  434   7.701   0.114   8.363 -0.1160 -0.1721 -0.0117
    6POPC   PO4  435   8.057  -0.034   8.222  0.0618 -0.2330  0.3961
    6POPC   GL1  436   7.751   0.005   7.828 -0.1069 -0.4678 -0.0893
    6POPC   GL2  437   7.519  -0.190   7.774 -0.3047  0.1357  0.0476
    6POPC   C1A  438   7.705   0.065   7.356 -0.1816 -0.0668  0.0098
    6POPC   D2A  439   7.965   0.300   7.170 -0.2765  0.1330  0.5637
    6POPC   C3A  440   7.894   0.391   6.727 -0.0092 -0.1163 -0.3281
    6POPC   C4A  441   7.825   0.733   6.534 -0.1498  0.0418 -0.0252
    6POPC   C1B  442   7.364  -0.293   7.496 -0.0611  0.2982  0.1364
    6POPC   C2B  443   7.215  -0.283   7.100 -0.0022  0.0903  0.0047
    6POPC   C3B  444   7.158   0.005   6.687  0.2808 -0.1219 -0.2216
    6POPC   C4B  445   7.016   0.420   6.485  0.0130  0.1395 -0.3011
    7POPC   NC3  446   4.967   3.380   8.251 -0.3216  0.0504 -0.2019
    7POPC   PO4  447   5.107   3.770   8.093 -0.1238 -0.2257  0.0197
    7POPC   GL1  448   4.789   3.775   7.876 -0.0555  0.0525  0.0579
    7POPC   GL2  449   4.561   3.487   7.891  0.2092  0.2314 -0.2987
    7POPC   C1A  450   4.548   4.025   7.564  0.0187  0.2298 -0.0717
    7POPC   D2A  451   4.264   4.086   7.164 -0.1137 -0.3433  0.0127
    7POPC   C3A  452   4.349   4.532   6.854 -0.1549  0.3485 -0.0505
    7POPC   C4A  453   4.164   4.831   6.543  0.1150  0.0611 -0.0397
    7POPC   C1B  454   4.543   3.103   7.669 -0.2356  0.1037  0.2682
    7POPC   C2B  455   4.344   2.929   7.332  0.0121  0.0877  0.2708
    7POPC   C3B  456   4.320   3.099   6.919 -0.0484 -0.3217 -0.3300
    7POPC   C4B  457   4.504   3.080   6.472 -0.1678 -0.0617  0.1346
    8POPC   NC3  458   7.388   7.196   8.989  0.0201  0.1636  0.2390
    8POPC   PO4  459   7.586   6.873   8.775  0.1624 -0.0511  0.0709
    8POPC   GL1  460   7.584   6.993   8.272 -0.0056  0.0089 -0.3288
    8POPC   GL2  461   7.510   7.224   8.048  0.0029 -0.1805  0.0977
    8POPC   C1A  462   7.703   6.768   7.981 -0.0534 -0.0023  0.5493
    8POPC   D2A  463   7.694   6.775   7.552 -0.3450 -0.2853 -0.2627
    8POPC   C3A  464   7.385   6.984   7.309  0.1588  0.5080 -0.0644
    8POPC   C4A  465   7.237   7.464   7.087 -0.2283  0.2139  0.1213
    8POPC   C1B  466   7.604   7.316   7.597 -0.1123 -0.0425 -0.0481
    8POPC   C2B  467   7.732   7.419   7.245 -0.0729 -0.0989 -0.1696
    8POPC   C3B  468   8.014   7.403   6.947 -0.2302  0.1314 -0.2530
    8POPC   C4B  469   7.937   7.666   6.523 -0.0977  0.0749  0.2480
    9POPC   NC3  470   2.042   1.959   8.581 -0.0541  0.2452 -0.2268
    9POPC   PO4  471   2.349   2.127   8.682  0.0105  0.2045  0.1169
    9POPC   GL1  472   2.238   2.352   8.303 -0.1439 -0.3534 -0.1972
    9POPC   GL2  473   2.134   2.197   8.099 -0.0464  0.0932  0.0164
    9POPC   C1A  474   2.330   2.601   7.987  0.2803 -0.0325  0.0585
    9POPC   D2A  475   2.480   2.963   7.776 -0.1654  0.0673  0.0310
    9POPC   C3A  476   2.432   2.986   7.338 -0.1174  0.1767 -0.1430
    9POPC   C4A  477   2.744   3.126   7.007 -0.1625  0.0304 -0.0159
    9POPC   C1B  478   1.830   2.464   7.853 -0.0706  0.0325 -0.0840
    9POPC   C2B  479   1.668   2.421   7.473 -0.0638 -0.2619 -0.1478
    9POPC   C3B  480   1.715   2.249   7.115 -0.2799 -0.1110 -0.2225
    9POPC   C4B  481   1.433   2.373   6.853 -0.0978 -0.1629  0.1500
   10POPC   NC3  482   7.795   6.390   8.523 -0.2997 -0.0097  0.0238
   10POPC   PO4  483   7.352   6.461   8.574 -0.0969  0.0234  0.1008
   10POPC   GL1  484   7.289   6.487   8.178  0.1134  0.1973 -0.0214
   10POPC   GL2  485   6.996   6.580   8.068 -0.2356 -0.1050  0.2454
   10POPC   C1A  486   7.188   6.075   7.844 -0.0116  0.0330 -0.1448
   10POPC   D2A  487   7.269   5.771   7.843 -0.0583  0.0481 -0.0249
   10POPC   C3A  488   7.129   5.553   7.419  0.6057 -0.1125 -0.0579
   10POPC   C4A  489   6.768   5.382   7.244 -0.1878 -0.0606  0.3257
   10POPC   C1B  490   6.731   6.302   7.801 -0.2023 -0.1301  0.0970
   10POPC   C2B  491   6.788   6.351   7.335 -0.0461 -0.1385 -0.2432
   10POPC   C3B  492   7.019   6.448   7.108 -0.0170 -0.3056  0.0852
   10POPC   C4B  493   7.178   6.091   6.849 -0.2421 -0.2770  0.0781
   11POPC   NC3  494   8.179   3.115   8.203 -0.0941  0.1587 -0.1587
   11POPC   PO4  495   7.925   2.770   7.978 -0.2085 -0.0578  0.1612
   11POPC   GL1  496   8.090   3.097   7.726  0.0034 -0.1889 -0.0429
   11POPC   GL2  497   8.043   2.864   7.447  0.3156  0.3665 -0.0278
   11POPC   C1A  498   8.214   3.282   7.259  0.0543  0.0496 -0.0520
   11POPC   D2A  499   8.291   3.431   6.886  0.0755  0.2976  0.0431
   11POPC   C3A  500   8.168   3.440   6.414  0.0904  0.0473 -0.0795
   11POPC   C4A  501   8.440   3.409   6.181  0.2819 -0.1803  0.0669
   11POPC   C1B  502   8.224   2.744   7.005  0.0264  0.1949 -0.0221
   11POPC   C2B  503   8.287   2.718   6.664 -0.0741  0.3117  0.1755
   11POPC   C3B  504   8.078   2.479   6.393  0.0812 -0.4480  0.2671
   11POPC   C4B  505   8.225   2.541   5.990 -0.1173  0.1468 -0.0544
   12POPC   NC3  506   9.209   9.067   8.780  0.0013  0.2454 -0.2887
   12POPC   PO4  507   9.009   9.421   8.520 -0.0489 -0.0964  0.4120
   12POPC   GL1  508   8.981   9.237   8.028  0.0784 -0.4179 -0.1626
   12POPC   GL2  509   8.640   9.153   7.991  0.0899 -0.0477  0.3081
   12POPC   C1A  510   8.893   9.449   7.701 -0.5323  0.0669  0.0929
   12POPC   D2A  511   8.888   9.868   7.427  0.3918  0.1007  0.2955
   12POPC   C3A  512   8.829  10.175   7.202  0.0684  0.1193  0.0093
   12POPC   C4A  513   8.822  10.233   6.689 -0.0578 -0.1691  0.0207
   12POPC   C1B  514   8.409   9.068   7.600  0.0743  0.2079  0.1371
   12POPC   C2B  515   8.442   9.259   7.300 -0.2187  0.0233 -0.0070
   12POPC   C3B  516   8.571   9.220   6.878 -0.1381  0.2128 -0.1984
   12POPC   C4B  517   9.007   9.183   6.697  0.4968 -0.1381 -0.2655
   13POPC   NC3  518   1.033   0.084   8.727  0.1431  0.0960 -0.0601
   13POPC   PO4  519   0.986  -0.036   8.390 -0.0526  0.2775 -0.0694
   13POPC   GL1  520   0.846   0.139   8.023 -0.0801 -0.4625  0.2783
   13POPC   GL2  521   0.962   0.155   7.761  0.1876 -0.2621 -0.0333
   13POPC   C1A  522   0.456   0.280   7.742  0.0299  0.0118 -0.0374
   13POPC   D2A  523   0.423   0.510   7.355 -0.1155  0.1149  0.1488
   13POPC   C3A  524   0.592   0.803   7.121  0.0412  0.3007  0.0641
   13POPC   C4A  525   1.056   0.862   7.056 -0.0695  0.0139 -0.0551
   13POPC   C1B  526   1.247  -0.149   7.505  0.3463  0.0371  0.2560
   13POPC   C2B  527   1.234  -0.519   7.239  0.0133 -0.1731 -0.0775
   13POPC   C3B  528   1.246  -0.637   6.707 -0.0041 -0.1046 -0.0088
   13POPC   C4B  529   1.239  -0.914   6.368  0.0523  0.1878 -0.1685
   14POPC   NC3  530   2.242   5.776   9.076 -0.0439  0.2071  0.1703
   14POPC   PO4  531   2.631   5.854   8.861  0.0536  0.0427  0.1173
   14POPC   GL1  532   3.032   6.019   8.630  0.0967 -0.2811 -0.0721
   14POPC   GL2  533   3.092   6.311   8.514 -0.0545  0.2758  0.0690
   14POPC   C1A  534   3.032   6.062   8.088  0.0038  0.5364 -0.3102
   14POPC   D2A  535   3.372   6.094   7.731 -0.0622 -0.1056 -0.0276
   14POPC   C3A  536   3.596   6.337   7.393  0.1335 -0.1446 -0.1694
   14POPC   C4A  537   3.579   6.642   7.058  0.0126 -0.1737 -0.0507
   14POPC   C1B  538   3.388   6.454   8.085 -0.1647  0.0350  0.3338
   14POPC   C2B  539   3.346   6.611   7.746 -0.2835 -0.0516 -0.1547
   14POPC   C3B  540   3.631   6.914   7.535  0.2979  0.1270 -0.0915
   14POPC   C4B  541   4.025   6.973   7.272  0.0839  0.0848  0.3023
   15POPC   NC3  542   4.738   1.471   8.704 -0.0015  0.4318  0.2312
   15POPC   PO4  543   4.523   1.740   8.434  0.2134  0.1012 -0.1992
   15POPC   GL1  544   4.502   1.426   8.031 -0.3401 -0.0208  0.0660
   15POPC   GL2  545   4.569   1.139   7.893  0.0396  0.0269 -0.3512
   15POPC   C1A  546   4.367   1.665   7.726  0.3070 -0.2652 -0.0050
   15POPC   D2A  547   4.198   1.735   7.363 -0.3279  0.1241 -0.0343
   15POPC   C3A  548   4.126   1.700   6.983 -0.0351 -0.0717 -0.0056
   15POPC   C4A  549   3.842   1.817   6.741 -0.0207  0.1362 -0.2495
   15POPC   C1B  550   4.345   1.194   7.540  0.0175 -0.0971  0.0844
   15POPC   C2B  551   4.122   1.184   7.158 -0.2334 -0.1092 -0.2306
   15POPC   C3B  552   4.005   1.109   6.723 -0.1052 -0.2201  0.2661
   15POPC   C4B  553   3.607   1.079   6.497 -0.1430  0.2347  0.2641
   16POPC   NC3  554   2.183   1.141   8.294  0.2219 -0.1798 -0.1562
   16POPC   PO4  555   2.325   0.709   8.386  0.1074 -0.2750  0.3787
   16POPC   GL1  556   2.402   0.763   7.974 -0.0356 -0.0228  0.3979
   16POPC   GL2  557   2.242   1.020   7.848  0.1876 -0.0554 -0.3089
   16POPC   C1A  558   2.605   0.865   7.603  0.1240  0.2315 -0.0359
   16POPC   D2A  559   2.350   0.782   7.123 -0.1263 -0.1837  0.2006
   16POPC   C3A  560   2.424   0.913   6.783 -0.0493 -0.1346  0.0302
   16POPC   C4A  561   2.623   0.984   6.375  0.0442 -0.4090 -0.0923
   16POPC   C1B  562   2.176   1.127   7.446  0.2251 -0.1967  0.2468
   16POPC   C2B  563   2.204   1.311   7.036 -0.2506  0.2548 -0.1301
   16POPC   C3B  564   2.116   1.272   6.582 -0.4057  0.0374  0.0172
   16POPC   C4B  565   2.094   1.104   6.287  0.0418  0.1758 -0.0227
   17POPC   NC3  566   6.484   8.097   8.780  0.0315  0.2883  0.0050
   17POPC   PO4  567   6.589   8.329   8.434  0.1334 -0.0327  0.0547
   17POPC   GL1  568   6.590   8.634   8.087  0.0975  0.0027  0.0005
   17POPC   GL2  569   6.824   8.474   7.862  0.0504  0.0690 -0.2277
   17POPC   C1A  570   6.554   8.886   7.637  0.0274 -0.1612  0.2486
   17POPC   D2A  571   6.611   8.727   7.187  0.0221 -0.0672  0.1554
   17POPC   C3A  572   6.758   8.477   6.757  0.0683 -0.2963  0.0018
   17POPC   C4A  573   7.044   8.305   6.449  0.2376 -0.0513  0.2021
   17POPC   C1B  574   6.726   8.268   7.665 -0.0344  0.0788 -0.1267
   17POPC   C2B  575   6.506   8.210   7.182 -0.0601 -0.0951  0.2436
   17POPC   C3B  576   6.289   7.858   7.062  0.0919  0.1494 -0.4046
   17POPC   C4B  577   6.260   7.441   7.069 -0.2987  0.0037 -0.2147
   18POPC   NC3  578   6.337   6.248   8.529 -0.0601  0.0622 -0.1466
   18POPC   PO4  579   6.624   5.955   8.575  0.0822 -0.0706 -0.2736
   18POPC   GL1  580   6.658   5.887   8.126  0.0013  0.0012  0.0737
   18POPC   GL2  581   6.328   5.827   7.908 -0.0872  0.0926 -0.1244
   18POPC   C1A  582   6.772   5.808   7.669 -0.1646  0.2025 -0.2013
   18POPC   D2A  583   6.820   5.827   7.179  0.0268  0.1185 -0.0396
   18POPC   C3A  584   6.938   5.610   6.832  0.1147  0.0860  0.3221
   18POPC   C4A  585   7.086   5.408   6.422  0.0853 -0.1314 -0.2618
   18POPC   C1B  586   6.252   5.951   7.458  0.2793  0.1083  0.1658
   18POPC   C2B  587   6.262   6.158   7.006  0.1037  0.1758 -0.1437
   18POPC   C3B  588   6.248   6.630   6.763 -0.1932 -0.0315 -0.1995
   18POPC   C4B  589   6.364   6.917   6.486  0.1240  0.0489 -0.3528
   19POPC   NC3  590   7.063   1.051   8.177 -0.3956 -0.1660  0.0208
   19POPC   PO4  591   6.594   0.911   8.155 -0.1530 -0.1269  0.0550
   19POPC   GL1  592   6.783   0.997   7.711 -0.3304 -0.2403  0.3134
   19POPC   GL2  593   7.113   0.850   7.703  0.1572 -0.0213  0.0450
   19POPC   C1A  594   6.973   1.232   7.283 -0.2077  0.1465 -0.1473
   19POPC   D2A  595   7.107   1.419   6.900 -0.1240 -0.0659  0.3667
   19POPC   C3A  596   7.003   1.736   6.721  0.1888 -0.2288 -0.0640
   19POPC   C4A  597   7.000   2.103   6.426  0.3132 -0.3220  0.3452
   19POPC   C1B  598   7.149   0.710   7.306  0.2193 -0.1341 -0.2325
   19POPC   C2B  599   6.892   0.676   6.902 -0.1729 -0.0334 -0.0081
   19POPC   C3B  600   6.985   0.878   6.537 -0.2837 -0.0436  0.2526
   19POPC   C4B  601   7.062   1.260   6.348 -0.2588 -0.0323  0.4626
   20POPC   NC3  602   1.327   8.085   8.780  0.3534  0.1334  0.1226
   20POPC   PO4  603   1.610   7.785   8.819  0.2426  0.0778  0.3804
   20POPC   GL1  604   1.698   7.611   8.430  0.1397  0.0547  0.0549
   20POPC   GL2  605   1.837   7.834   8.151  0.0040  0.1017  0.1517
   20POPC   C1A  606   1.501   7.359   8.213 -0.1295 -0.1668 -0.0710
   20POPC   D2A  607   1.272   7.376   7.696  0.1309 -0.3174  0.1127
   20POPC   C3A  608   1.436   7.215   7.409 -0.2769 -0.2544  0.0334
   20POPC   C4A  609   1.461   7.000   6.981  0.0947  0.3996  0.0371
   20POPC   C1B  610   1.795   7.397   7.857 -0.3545  0.1272 -0.2064
   20POPC   C2B  611   1.883   7.027   7.629 -0.2567  0.1533 -0.1852
   20POPC   C3B  612   1.885   6.867   7.220 -0.1694  0.0214 -0.1542
   20POPC   C4B  613   1.735   6.527   7.066  0.1705 -0.2244 -0.1701
   21POPC   NC3  614   8.258   7.035   8.723  0.1808 -0.1871  0.0982
   21POPC   PO4  615   8.429   6.741   8.500  0.0520  0.1951 -0.0789
   21POPC   GL1  616   8.105   6.819   8.264  0.1694  0.2181 -0.1460
   21POPC   GL2  617   8.098   7.173   8.102 -0.0577  0.0451  0.2306
   21POPC   C1A  618   8.227   6.754   7.826 -0.0131  0.0301  0.0163
   21POPC   D2A  619   8.294   6.517   7.351  0.3748 -0.3923 -0.0455
   21POPC   C3A  620   7.891   6.276   7.273 -0.0088 -0.0157  0.1132
   21POPC   C4A  621   7.793   6.103   6.799 -0.1222 -0.0484 -0.0669
   21POPC   C1B  622   8.125   7.245   7.606  0.0547 -0.0209  0.2036
   21POPC   C2B  623   8.186   7.056   7.327 -0.0073  0.0798 -0.2680
   21POPC   C3B  624   7.942   6.750   7.113  0.0252  0.1761  0.1632
   21POPC   C4B  625   7.482   6.450   7.141  0.0524  0.1751  0.1401
   22POPC   NC3  626   0.980   1.665   9.158  0.0036 -0.0920  0.5037
   22POPC   PO4  627   1.051   1.755   8.744 -0.2643  0.1269  0.0280
   22POPC   GL1  628   1.219   1.772   8.243  0.0806 -0.0081  0.0681
   22POPC   GL2  629   1.029   1.559   8.019 -0.4087  0.3208 -0.1789
   22POPC   C1A  630   1.404   1.691   7.767  0.0549  0.0328 -0.0551
   22POPC   D2A  631   1.591   1.871   7.402  0.1504  0.3613 -0.0755
   22POPC   C3A  632   1.520   1.761   6.928 -0.1783  0.0156 -0.3037
   22POPC   C4A  633   1.716   1.449   6.765 -0.4548  0.0000 -0.0339
   22POPC   C1B  634   0.786   1.241   7.908 -0.2659  0.1495 -0.0253
   22POPC   C2B  635   0.641   0.931   7.653 -0.1960 -0.1239  0.1954
   22POPC   C3B  636   0.886   0.567   7.589  0.1915 -0.3187 -0.0781
   22POPC   C4B  637   1.008   0.354   7.209 -0.4283 -0.0224 -0.2066
   23POPC   NC3  638   9.121   7.917   8.457  0.1479 -0.3996 -0.0287
   23POPC   PO4  639   8.906   8.210   8.343  0.1234  0.1924  0.0058
   23POPC   GL1  640   9.075   8.243   8.052 -0.1585 -0.2079  0.1569
   23POPC   GL2  641   9.419   8.187   8.015  0.4273  0.0845  0.1024
   23POPC   C1A  642   9.035   8.413   7.627 -0.2970 -0.1297 -0.1018
   23POPC   D2A  643   9.127   8.404   7.139 -0.4812 -0.3362  0.2038
   23POPC   C3A  644   9.603   8.377   7.059 -0.1503  0.2171 -0.0113
   23POPC   C4A  645   9.987   8.135   7.181 -0.0673  0.3191  0.0446
   23POPC   C1B  646   9.329   7.990   7.519 -0.0573  0.1275  0.2313
   23POPC   C2B  647   9.431   7.869   7.114 -0.6430  0.0884 -0.0286
   23POPC   C3B  648   9.520   7.478   6.843 -0.2043 -0.0095  0.2041
   23POPC   C4B  649   9.644   7.102   6.661  0.1459  0.4452 -0.2090
   24POPC   NC3  650   6.369   7.650   8.539 -0.0990 -0.0919 -0.0368
   24POPC   PO4  651   5.944   7.513   8.521  0.2095  0.1161  0.2042
   24POPC   GL1  652   5.761   7.413   8.031  0.2627 -0.0940 -0.3168
   24POPC   GL2  653   5.664   7.081   8.001 -0.3054  0.2076 -0.1019
   24POPC   C1A  654   5.696   7.592   7.673  0.0894  0.0811 -0.0802
   24POPC   D2A  655   5.789   7.350   7.277 -0.0508 -0.4227 -0.1037
   24POPC   C3A  656   5.827   7.642   6.936 -0.0951  0.0469 -0.1166
   24POPC   C4A  657   5.570   7.879   6.628 -0.1336 -0.2879  0.1045
   24POPC   C1B  658   5.665   6.992   7.573 -0.0736  0.0233  0.2465
   24POPC   C2B  659   5.916   6.864   7.319 -0.1103 -0.2450  0.2564
   24POPC   C3B  660   6.000   7.043   6.950 -0.0025  0.2701  0.1657
   24POPC   C4B  661   5.987   7.322   6.671  0.1620 -0.1790  0.1463
   25POPC   NC3  662   3.703   4.401   9.336 -0.0363 -0.1521 -0.1012
   25POPC   PO4  663   3.386   4.665   9.154  0.2776 -0.1138  0.2671
   25POPC   GL1  664   3.447   4.539   8.749  0.0766  0.2207 -0.1815
   25POPC   GL2  665   3.427   4.180   8.675 -0.2419  0.2837 -0.3572
   25POPC   C1A  666   3.636   4.680   8.367 -0.3172 -0.0196 -0.1881
   25POPC   D2A  667   3.619   4.853   7.964 -0.3076 -0.1068 -0.1588
   25POPC   C3A  668   3.737   4.851   7.412 -0.3861  0.1643 -0.1040
   25POPC   C4A  669   3.966   4.829   7.072  0.4078 -0.2172  0.2223
   25POPC   C1B  670   3.698   4.159   8.353 -0.1847 -0.0125 -0.0007
   25POPC   C2B  671   4.051   4.383   8.229  0.0698  0.0415 -0.3257
   25POPC   C3B  672   3.966   4.478   7.816  0.1682  0.1372  0.0695
   25POPC   C4B  673   4.286   4.532   7.379 -0.0346  0.2208  0.0236
   26POPC   NC3  674   4.412   2.701   8.811  0.1728  0.4326  0.2432
   26POPC   PO4  675   4.052   2.481   8.797 -0.0535 -0.1126 -0.0788
   26POPC   GL1  676   3.827   2.672   8.375 -0.2741  0.2713 -0.3655
   26POPC   GL2  677   3.785   2.434   8.152  0.2478  0.0661 -0.1013
   26POPC   C1A  678   3.944   2.957   8.057 -0.0132  0.0193 -0.0143
   26POPC   D2A  679   3.960   3.051   7.695  0.3751  0.2560  0.0620
   26POPC   C3A  680   3.840   2.948   7.295 -0.5201  0.0330  0.0707
   26POPC   C4A  681   3.822   2.916   6.888 -0.2023  0.0247  0.0207
   26POPC   C1B  682   3.752   2.517   7.673  0.0513 -0.0181 -0.0208
   26POPC   C2B  683   3.688   2.488   7.239 -0.2521 -0.2234  0.1917
   26POPC   C3B  684   3.729   2.386   6.850 -0.3773  0.1010  0.1115
   26POPC   C4B  685   3.655   2.339   6.338  0.4751  0.0882  0.2264
   27POPC   NC3  686   5.384   9.088   8.644  0.1242 -0.0593  0.0101
   27POPC   PO4  687   4.937   9.245   8.584  0.1952  0.1339  0.0803
   27POPC   GL1  688   4.970   9.237   8.101  0.1549  0.2326  0.3412
   27POPC   GL2  689   4.804   9.047   8.017 -0.1316 -0.2587  0.0092
   27POPC   C1A  690   5.232   9.552   7.768 -0.0200  0.0220 -0.1461
   27POPC   D2A  691   5.487   9.380   7.511  0.1618 -0.0439  0.5206
   27POPC   C3A  692   5.563   9.654   7.123  0.3521 -0.1870  0.1974
   27POPC   C4A  693   5.518   9.895   6.747  0.1421  0.0725  0.1163
   27POPC   C1B  694   4.563   9.141   7.574  0.0283  0.0828 -0.0967
   27POPC   C2B  695   4.466   8.878   7.184 -0.2401  0.2227  0.0218
   27POPC   C3B  696   4.886   8.753   6.983 -0.0806 -0.1831 -0.0395
   27POPC   C4B  697   4.848   8.601   6.642  0.1692  0.1753  0.0599
   28POPC   NC3  698   9.039   4.787   8.361 -0.0415  0.1981 -0.1973
   28POPC   PO4  699   9.554   4.807   8.429  0.1494  0.1134 -0.0309
   28POPC   GL1  700   9.482   4.868   8.009 -0.0581  0.0532 -0.3659
   28POPC   GL2  701   9.536   4.441   7.940  0.1648  0.1701 -0.0723
   28POPC   C1A  702   9.523   5.020   7.681 -0.0927 -0.1120 -0.1349
   28POPC   D2A  703   9.604   5.309   7.539 -0.2458  0.1056  0.2136
   28POPC   C3A  704   9.439   5.532   7.179  0.0019  0.4714 -0.1184
   28POPC   C4A  705   9.211   5.562   6.800 -0.0014 -0.1567 -0.0032
   28POPC   C1B  706   9.967   4.486   7.740  0.1821 -0.1692  0.1353
   28POPC   C2B  707  10.021   4.275   7.233  0.3641  0.2106 -0.0161
   28POPC   C3B  708   9.823   3.996   6.910  0.1022 -0.2952  0.0361
   28POPC   C4B  709   9.521   3.993   6.603 -0.0507  0.0108  0.0661
   29POPC   NC3  710   1.698   8.920   8.595  0.1039 -0.0517  0.2767
   29POPC   PO4  711   1.637   8.410   8.569 -0.0360 -0.2379  0.1386
   29POPC   GL1  712   1.460   8.107   8.254 -0.1941 -0.2175 -0.2270
   29POPC   GL2  713   1.552   8.279   7.960 -0.4215  0.0495 -0.1237
   29POPC   C1A  714   1.338   7.798   7.993 -0.1248 -0.1106  0.3190
   29POPC   D2A  715   1.131   7.852   7.648  0.0916 -0.1550 -0.0548
   29POPC   C3A  716   1.134   8.066   7.229 -0.1080 -0.1786  0.0275
   29POPC   C4A  717   1.230   7.942   6.743 -0.2865 -0.0299 -0.0833
   29POPC   C1B  718   1.665   7.890   7.649 -0.0913  0.1924 -0.0456
   29POPC   C2B  719   1.554   7.772   7.244 -0.3091  0.1434 -0.1162
   29POPC   C3B  720   1.621   7.755   6.810  0.1688  0.1640 -0.1908
   29POPC   C4B  721   1.887   7.853   6.477 -0.3603  0.0070 -0.0288
   30POPC   NC3  722   8.150   9.226   8.397 -0.2176 -0.2922  0.0527
   30POPC   PO4  723   7.834   8.905   8.350 -0.0517 -0.0381 -0.1107
   30POPC   GL1  724   7.872   9.151   7.929  0.1787  0.0172  0.0488
   30POPC   GL2  725   8.092   9.287   7.909 -0.1831 -0.4569  0.0188
   30POPC   C1A  726   7.971   8.873   7.513  0.1185 -0.3097  0.0251
   30POPC   D2A  727   8.129   8.920   7.067  0.1689  0.1040  0.0096
   30POPC   C3A  728   7.831   9.009   6.768 -0.2657 -0.1759 -0.1785
   30POPC   C4A  729   7.446   9.095   6.728 -0.2594  0.0883 -0.0193
   30POPC   C1B  730   8.076   9.531   7.594  0.0033  0.2443  0.2475
   30POPC   C2B  731   8.389   9.776   7.319  0.0680 -0.0215 -0.2169
   30POPC   C3B  732   8.421   9.852   6.848  0.0352 -0.0255  0.0082
   30POPC   C4B  733   8.327   9.978   6.447 -0.0038 -0.2363 -0.0388
   31POPC   NC3  734   4.408   4.803   8.759  0.0277 -0.3473  0.1940
   31POPC   PO4  735   4.425   4.400   8.726 -0.0395  0.3097  0.0739
   31POPC   GL1  736   4.498   4.481   8.307  0.1371 -0.1192  0.0204
   31POPC   GL2  737   4.616   4.795   8.336  0.1028 -0.3299 -0.0681
   31POPC   C1A  738   4.431   4.244   7.971  0.0105  0.2741  0.0996
   31POPC   D2A  739   4.686   4.512   7.657 -0.0113  0.2709  0.0152
   31POPC   C3A  740   4.742   4.360   7.227  0.0387  0.0542 -0.0607
   31POPC   C4A  741   4.693   4.159   6.748  0.1634  0.2092 -0.1025
   31POPC   C1B  742   4.366   4.747   7.933  0.1099 -0.1991 -0.0419
   31POPC   C2B  743   4.198   4.942   7.608 -0.1736  0.0918  0.1294
   31POPC   C3B  744   4.231   5.181   7.292 -0.2883 -0.2791 -0.2748
   31POPC   C4B  745   4.081   5.205   6.817  0.2043  0.2751  0.1917
   32POPC   NC3  746   4.357   5.639   9.043 -0.2422  0.1421 -0.3470
   32POPC   PO4  747   4.141   5.683   8.630 -0.0716 -0.0407  0.0720
   32POPC   GL1  748   3.949   5.765   8.300 -0.0468  0.1270  0.2413
   32POPC   GL2  749   4.063   5.879   8.057  0.2188 -0.0783  0.2113
   32POPC   C1A  750   3.613   5.732   7.996 -0.3640  0.0290 -0.0012
   32POPC   D2A  751   3.373   5.575   7.614  0.0634 -0.0516 -0.1001
   32POPC   C3A  752   3.372   5.136   7.573 -0.0556  0.1327 -0.1129
   32POPC   C4A  753   3.223   4.609   7.450  0.1143 -0.0032  0.3522
   32POPC   C1B  754   4.249   5.769   7.619 -0.2600 -0.1711 -0.0514
   32POPC   C2B  755   4.186   5.751   7.178  0.1321  0.0221  0.0511
   32POPC   C3B  756   4.406   5.663   6.797  0.1743 -0.3118 -0.1134
   32POPC   C4B  757   4.236   5.512   6.399  0.1133 -0.1838 -0.1435
   33POPC   NC3  758   6.338   9.360   8.789  0.3129  0.1626 -0.0930
   33POPC   PO4  759   6.247   9.602   8.479 -0.1072 -0.1967  0.0848
   33POPC   GL1  760   5.876   9.653   8.270 -0.0863 -0.1013 -0.0461
   33POPC   GL2  761   6.103   9.561   7.934  0.0814  0.0361 -0.1729
   33POPC   C1A  762   5.666   9.793   7.817  0.1920  0.2077 -0.1585
   33POPC   D2A  763   5.781  10.014   7.416 -0.0779 -0.0712  0.0470
   33POPC   C3A  764   5.988   9.923   7.097 -0.1068 -0.2219 -0.2154
   33POPC   C4A  765   6.416  10.122   7.073  0.0403  0.1942 -0.0644
   33POPC   C1B  766   6.384   9.338   7.580 -0.3032 -0.0309 -0.1093
   33POPC   C2B  767   6.428   9.176   7.246  0.0162  0.1254 -0.0290
   33POPC   C3B  768   6.367   9.002   6.833  0.1264 -0.0275  0.1272
   33POPC   C4B  769   6.594   8.746   6.390 -0.1198  0.2835  0.4855
   34POPC   NC3  770   0.432   4.504   9.189 -0.0130  0.0285 -0.5614
   34POPC   PO4  771   0.777   4.663   8.987  0.0594 -0.1293  0.1641
   34POPC   GL1  772   0.979   4.414   8.725 -0.0168  0.3210 -0.3684
   34POPC   GL2  773   1.293   4.467   8.592 -0.2257  0.0346 -0.1565
   34POPC   C1A  774   1.010   4.153   8.373  0.2770 -0.3155 -0.1865
   34POPC   D2A  775   0.872   3.723   8.299  0.1881 -0.3240 -0.0744
   34POPC   C3A  776   0.773   3.569   7.932  0.2107 -0.1771 -0.0111
   34POPC   C4A  777   0.457   3.426   7.643  0.2398 -0.0588  0.1515
   34POPC   C1B  778   1.528   4.252   8.334  0.1824  0.3046 -0.1707
   34POPC   C2B  779   1.440   3.927   8.073 -0.1376  0.0263  0.0536
   34POPC   C3B  780   1.376   3.627   7.837  0.0450  0.0974  0.2244
   34POPC   C4B  781   1.047   3.483   7.433  0.0393 -0.0273  0.0277
   35POPC   NC3  782   0.682   5.969   9.091 -0.1934 -0.3824 -0.1860
   35POPC   PO4  783   0.556   6.387   9.028 -0.3015  0.1634  0.1932
   35POPC   GL1  784   0.669   6.287   8.621 -0.3574  0.2124  0.0286
   35POPC   GL2  785   0.961   6.289   8.653  0.0403 -0.1514 -0.0991
   35POPC   C1A  786   0.730   5.960   8.374  0.0068  0.1470  0.3887
   35POPC   D2A  787   0.616   5.550   8.261 -0.3179 -0.0201  0.2157
   35POPC   C3A  788   0.572   5.172   8.104  0.1847  0.1752 -0.0174
   35POPC   C4A  789   0.283   4.967   7.760  0.1745 -0.0999 -0.2121
   35POPC   C1B  790   0.949   6.579   8.327 -0.1492 -0.2313  0.2472
   35POPC   C2B  791   1.144   6.511   8.031  0.0332  0.2015  0.0026
   35POPC   C3B  792   1.190   6.342   7.698  0.0466  0.2231  0.1028
   35POPC   C4B  793   1.526   6.170   7.438 -0.1096 -0.2187 -0.1182
   36POPC   NC3  794   2.880   2.953   9.076  0.0933 -0.1264 -0.2478
   36POPC   PO4  795   3.305   2.860   9.180 -0.3796 -0.0479 -0.0060
   36POPC   GL1  796   3.241   2.734   8.783 -0.0512  0.0823 -0.3473
   36POPC   GL2  797   2.942   2.864   8.574 -0.1802 -0.0626  0.1355
   36POPC   C1A  798   3.317   2.568   8.322  0.1459  0.0947 -0.2584
   36POPC   D2A  799   3.204   2.538   7.939 -0.0495  0.0215  0.0016
   36POPC   C3A  800   2.736   2.458   7.764 -0.0380  0.3322  0.2298
   36POPC   C4A  801   2.392   2.493   7.532  0.0204 -0.2720  0.2657
   36POPC   C1B  802   2.500   2.996   8.291  0.2318 -0.1616 -0.1262
   36POPC   C2B  803   2.171   3.291   8.037  0.1059  0.3799  0.0899
   36POPC   C3B  804   2.316   3.434   7.703 -0.2755  0.0756  0.0103
   36POPC   C4B  805   2.166   3.384   7.379  0.2726  0.1475 -0.1065
   37POPC   NC3  806   4.854   0.482   8.295  0.0559  0.0409  0.0636
   37POPC   PO4  807   4.807   0.031   8.410  0.0989  0.1644 -0.0625
   37POPC   GL1  808   4.910   0.142   7.930  0.1178  0.2695  0.0627
   37POPC   GL2  809   4.723  -0.126   7.841 -0.2454  0.0184 -0.2248
   37POPC   C1A  810   4.752   0.364   7.580  0.1714  0.2261  0.2507
   37POPC   D2A  811   4.615   0.343   7.154  0.0900 -0.2483 -0.1441
   37POPC   C3A  812   4.560   0.385   6.712 -0.1519 -0.1999  0.0840
   37POPC   C4A  813   4.790   0.339   6.283  0.0454 -0.0020  0.1144
   37POPC   C1B  814   4.541  -0.088   7.436  0.2928  0.1423  0.1360
   37POPC   C2B  815   4.448  -0.164   6.979 -0.0887 -0.1989 -0.1457
   37POPC   C3B  816   4.571  -0.177   6.563 -0.3430 -0.0962  0.0531
   37POPC   C4B  817   4.356   0.089   6.305  0.1841  0.2410  0.4678
   38POPC   NC3  818   0.324   4.646   8.708  0.0519 -0.2465 -0.0182
   38POPC   PO4  819   0.358   4.157   8.737 -0.3317 -0.0213  0.3711
   38POPC   GL1  820   0.364   4.232   8.256  0.0300  0.0073 -0.1410
   38POPC   GL2  821   0.302   4.675   8.226 -0.0146  0.0775 -0.1430
   38POPC   C1A  822   0.700   4.090   8.039  0.1208  0.0935 -0.0152
   38POPC   D2A  823   1.070   4.155   7.825 -0.0116 -0.0681 -0.0838
   38POPC   C3A  824   1.179   3.971   7.405  0.2882 -0.0277  0.3848
   38POPC   C4A  825   1.543   3.741   7.313  0.1733  0.0649  0.3361
   38POPC   C1B  826   0.778   4.583   8.194 -0.1841 -0.1282  0.1810
   38POPC   C2B  827   1.175   4.551   8.139  0.1257  0.1085 -0.0508
   38POPC   C3B  828   1.466   4.523   7.860 -0.2356 -0.0154  0.3349
   38POPC   C4B  829   1.808   4.882   7.636  0.0444  0.0636  0.0619
   39POPC   NC3  830   5.532   6.782   8.426  0.0404 -0.1919 -0.2907
   39POPC   PO4  831   5.814   6.574   8.699 -0.0913  0.2047  0.1572
   39POPC   GL1  832   5.907   6.504   8.228 -0.0676  0.3154  0.0761
   39POPC   GL2  833   6.002   6.149   8.099  0.2191  0.1077 -0.2802
   39POPC   C1A  834   5.885   6.626   7.781  0.0826  0.2011 -0.1503
   39POPC   D2A  835   5.833   6.376   7.451 -0.3212  0.1530 -0.2932
   39POPC   C3A  836   5.738   5.966   7.499 -0.1893 -0.3983 -0.0105
   39POPC   C4A  837   5.879   5.601   7.256 -0.1402 -0.4873 -0.0310
   39POPC   C1B  838   6.249   6.333   7.767 -0.1056 -0.0165  0.1836
   39POPC   C2B  839   6.344   6.559   7.382 -0.0017 -0.2761 -0.1925
   39POPC   C3B  840   6.478   6.905   7.087  0.0685  0.2015 -0.0783
   39POPC   C4B  841   6.658   7.183   6.822 -0.2375 -0.1075  0.1270
   40POPC   NC3  842   8.472   7.388   8.381 -0.2361  0.0616 -0.1323
   40POPC   PO4  843   8.732   7.135   8.594  0.0019 -0.0333 -0.2354
   40POPC   GL1  844   8.726   6.994   8.101 -0.4197 -0.3288  0.1942
   40POPC   GL2  845   8.591   7.227   7.899  0.2361 -0.1624 -0.0748
   40POPC   C1A  846   8.703   6.761   7.748  0.0815 -0.1687 -0.0519
   40POPC   D2A  847   8.750   6.603   7.291  0.2006  0.1819 -0.1292
   40POPC   C3A  848   9.065   6.395   7.341  0.1331 -0.4310 -0.0689
   40POPC   C4A  849   9.496   6.463   7.364 -0.0598  0.1222 -0.0701
   40POPC   C1B  850   8.677   7.201   7.410  0.0621 -0.0574  0.1151
   40POPC   C2B  851   8.581   7.122   6.979 -0.1234  0.0389 -0.1684
   40POPC   C3B  852   8.224   6.969   6.709 -0.1306 -0.2337  0.0323
   40POPC   C4B  853   7.891   7.090   6.371  0.0378  0.4003 -0.1348
   41POPC   NC3  854   2.890   1.503   8.567  0.1414 -0.1263  0.1933
   41POPC   PO4  855   2.438   1.541   8.472 -0.0395  0.1098 -0.0535
   41POPC   GL1  856   2.575   1.441   8.113 -0.0484  0.0985  0.0462
   41POPC   GL2  857   2.294   1.555   7.899  0.1504  0.1822 -0.4310
   41POPC   C1A  858   2.837   1.496   7.771 -0.0031  0.1180  0.2095
   41POPC   D2A  859   3.080   1.688   7.344  0.1895  0.1707 -0.2373
   41POPC   C3A  860   2.979   1.650   6.939 -0.0600 -0.2220 -0.2364
   41POPC   C4A  861   2.826   1.291   6.732 -0.3763  0.1186  0.0033
   41POPC   C1B  862   2.413   1.602   7.474 -0.2682 -0.0347  0.3329
   41POPC   C2B  863   2.659   1.243   7.269  0.0350  0.0092  0.3327
   41POPC   C3B  864   2.885   0.802   7.189  0.2282  0.1454  0.1394
   41POPC   C4B  865   2.757   0.300   7.232  0.0230  0.0013  0.1323
   42POPC   NC3  866   4.188   9.628   8.667  0.3223 -0.2187 -0.1116
   42POPC   PO4  867   3.983   9.957   8.493  0.2667 -0.0422 -0.0059
   42POPC   GL1  868   3.864  10.014   8.051 -0.0280 -0.3352 -0.0832
   42POPC   GL2  869   3.603  10.127   7.978  0.2044 -0.1838 -0.0903
   42POPC   C1A  870   4.081   9.893   7.685 -0.3484  0.1996  0.0143
   42POPC   D2A  871   4.028   9.700   7.277 -0.0892 -0.1281 -0.0617
   42POPC   C3A  872   4.044   9.296   7.124 -0.0815 -0.2633 -0.0222
   42POPC   C4A  873   3.977   8.878   7.035  0.1960  0.1839  0.4446
   42POPC   C1B  874   3.204   9.977   7.942  0.1894 -0.1461  0.0939
   42POPC   C2B  875   2.806  10.166   7.765 -0.3068 -0.0693 -0.1108
   42POPC   C3B  876   2.419  10.123   7.584 -0.1374  0.0844 -0.0412
   42POPC   C4B  877   2.048  10.036   7.863 -0.1049  0.0038 -0.1538
   43POPC   NC3  878   9.541   2.224   8.598 -0.0733 -0.2865 -0.1591
   43POPC   PO4  879   9.678   2.343   8.184  0.1387 -0.0435  0.1645
   43POPC   GL1  880   9.378   2.499   7.824 -0.1027 -0.1218  0.1198
   43POPC   GL2  881   9.104   2.654   7.937  0.0279  0.0105 -0.0199
   43POPC   C1A  882   9.614   2.611   7.419  0.0684  0.1777 -0.3243
   43POPC   D2A  883   9.579   2.551   6.997 -0.0240  0.1615 -0.1530
   43POPC   C3A  884   9.526   2.978   6.671  0.0902 -0.2280  0.1347
   43POPC   C4A  885   9.717   3.181   6.250 -0.1965 -0.1010  0.1124
   43POPC   C1B  886   9.120   2.637   7.441 -0.0872 -0.2009 -0.1861
   43POPC   C2B  887   9.079   2.499   7.067 -0.0135 -0.0144 -0.0918
   43POPC   C3B  888   9.225   2.525   6.681  0.1852 -0.1867  0.3868
   43POPC   C4B  889   9.219   2.789   6.298  0.2706 -0.1250  0.0387
   44POPC   NC3  890   2.627   8.857   8.107  0.0321  0.1689  0.2541
   44POPC   PO4  891   2.258   9.104   8.266 -0.0731  0.0403 -0.0394
   44POPC   GL1  892   2.186   9.053   7.799  0.1600 -0.0582 -0.2894
   44POPC   GL2  893   2.251   8.747   7.792 -0.0334 -0.2251  0.0364
   44POPC   C1A  894   2.138   9.147   7.350  0.1554  0.0511 -0.0201
   44POPC   D2A  895   2.098   9.245   6.938 -0.0122  0.0240  0.1211
   44POPC   C3A  896   1.675   9.304   6.699 -0.1555 -0.1216 -0.3766
   44POPC   C4A  897   1.617   9.167   6.357 -0.0778 -0.1145  0.1367
   44POPC   C1B  898   2.374   8.699   7.338  0.0318 -0.1665 -0.2599
   44POPC   C2B  899   2.565   8.503   7.091  0.0838 -0.1430 -0.0125
   44POPC   C3B  900   2.491   8.223   6.733  0.4239 -0.0791 -0.1185
   44POPC   C4B  901   2.512   8.318   6.339 -0.4084 -0.1291 -0.2432
   45POPC   NC3  902   8.766   9.008   8.493  0.0339 -0.0078 -0.0760
   45POPC   PO4  903   8.897   8.752   8.198 -0.1076  0.3674  0.0735
   45POPC   GL1  904   8.612   8.504   7.922 -0.0081  0.0842  0.2763
   45POPC   GL2  905   8.658   8.172   7.808  0.1256 -0.2627 -0.0670
   45POPC   C1A  906   8.355   8.581   7.537  0.2114 -0.1318  0.3057
   45POPC   D2A  907   8.256   8.406   7.152 -0.1018 -0.0502 -0.0289
   45POPC   C3A  908   8.093   8.010   7.286 -0.1366 -0.1880 -0.2404
   45POPC   C4A  909   7.938   7.769   7.547  0.4563  0.0991  0.0424
   45POPC   C1B  910   8.740   8.055   7.367  0.2808 -0.1158  0.0172
   45POPC   C2B  911   8.703   8.219   6.938 -0.1394 -0.0702 -0.0075
   45POPC   C3B  912   8.599   8.152   6.491 -0.2635 -0.2979 -0.2863
   45POPC   C4B  913   9.029   8.305   6.331  0.3526  0.0640 -0.3338
   46POPC   NC3  914   3.025   7.704   8.118  0.1225 -0.2217 -0.0042
   46POPC   PO4  915   3.101   8.166   8.183  0.1369 -0.2453  0.0365
   46POPC   GL1  916   2.867   8.017   7.786 -0.0778 -0.0130 -0.3169
   46POPC   GL2  917   2.706   7.712   7.690 -0.1284  0.0228 -0.0314
   46POPC   C1A  918   2.859   8.129   7.305  0.0820  0.0085  0.1939
   46POPC   D2A  919   3.041   8.461   7.066  0.2764  0.1744  0.0062
   46POPC   C3A  920   3.420   8.681   7.305  0.2899  0.2635 -0.0384
   46POPC   C4A  921   3.753   8.523   7.459  0.1202 -0.0610  0.0361
   46POPC   C1B  922   2.572   7.687   7.292  0.2442 -0.0829  0.1292
   46POPC   C2B  923   2.561   7.681   6.884 -0.0501  0.1450  0.2170
   46POPC   C3B  924   2.403   7.528   6.413  0.0046  0.0811  0.0982
   46POPC   C4B  925   2.457   7.131   6.302 -0.1415  0.0139  0.2027
   47POPC   NC3  926   5.940   2.064   8.342 -0.0784  0.0658  0.0702
   47POPC   PO4  927   5.951   2.416   7.983  0.0105  0.0256 -0.2832
   47POPC   GL1  928   6.090   2.558   7.701  0.0624  0.1127 -0.3664
   47POPC   GL2  929   6.103   2.383   7.403 -0.0909  0.0387  0.0633
   47POPC   C1A  930   5.786   2.830   7.381  0.2547  0.1646 -0.1620
   47POPC   D2A  931   5.581   3.287   7.238 -0.0083 -0.1390 -0.0153
   47POPC   C3A  932   5.648   3.348   6.859 -0.1864  0.0256  0.0616
   47POPC   C4A  933   5.298   3.347   6.581  0.0917  0.2081 -0.2049
   47POPC   C1B  934   6.414   2.115   7.258  0.1761  0.2021  0.1570
   47POPC   C2B  935   6.803   2.013   7.030  0.1005 -0.2251 -0.1031
   47POPC   C3B  936   7.089   2.217   6.896 -0.0626  0.1664  0.1548
   47POPC   C4B  937   7.564   2.007   6.857 -0.2306 -0.2416  0.0267
   48POPC   NC3  938   7.988   3.590   8.145  0.0814 -0.2412 -0.0883
   48POPC   PO4  939   8.453   3.522   8.143  0.1987 -0.0057 -0.0111
   48POPC   GL1  940   8.303   3.558   7.722 -0.1854 -0.0594 -0.0317
   48POPC   GL2  941   8.524   3.478   7.606 -0.1001 -0.0503  0.0607
   48POPC   C1A  942   8.110   3.802   7.383  0.0862 -0.0292  0.0065
   48POPC   D2A  943   7.915   4.021   7.177 -0.2479 -0.1976  0.2214
   48POPC   C3A  944   7.819   4.279   6.818  0.0924 -0.1544 -0.1438
   48POPC   C4A  945   8.162   4.451   6.587  0.1710  0.2718  0.1995
   48POPC   C1B  946   8.653   3.124   7.315  0.3390  0.2162 -0.2637
   48POPC   C2B  947   8.761   2.875   6.988 -0.2016  0.3181 -0.3231
   48POPC   C3B  948   8.720   2.871   6.498  0.1186 -0.0168 -0.0357
   48POPC   C4B  949   8.516   2.939   6.112  0.1830 -0.0322  0.0614
   49POPC   NC3  950   6.659   4.223   8.429 -0.2381  0.1040  0.0495
   49POPC   PO4  951   6.579   3.786   8.255  0.2776  0.3182 -0.2040
   49POPC   GL1  952   6.343   3.838   7.841  0.2810 -0.2939  0.1858
   49POPC   GL2  953   6.002   4.006   7.755  0.1835 -0.1133  0.0578
   49POPC   C1A  954   6.238   3.685   7.361 -0.0624 -0.0320  0.2874
   49POPC   D2A  955   5.877   3.670   7.274  0.1619  0.2343 -0.0674
   49POPC   C3A  956   5.694   3.914   6.999 -0.2623 -0.3258  0.3285
   49POPC   C4A  957   5.568   3.863   6.556 -0.0543 -0.0371  0.2141
   49POPC   C1B  958   6.151   4.242   7.401 -0.1185 -0.0658  0.0472
   49POPC   C2B  959   6.427   4.118   7.059  0.0105 -0.0847 -0.3884
   49POPC   C3B  960   6.889   4.110   6.973  0.1719 -0.0483 -0.0955
   49POPC   C4B  961   7.225   4.064   6.575 -0.0779  0.2233  0.0029
   50POPC   NC3  962   8.320   6.218   8.525  0.3349 -0.4134 -0.0374
   50POPC   PO4  963   8.689   6.084   8.616 -0.0975  0.0196  0.1289
   50POPC   GL1  964   8.658   5.873   8.264 -0.0755 -0.2228  0.0761
   50POPC   GL2  965   8.574   5.594   8.060 -0.3801  0.2283 -0.0454
   50POPC   C1A  966   8.894   5.912   7.851 -0.3592  0.3369  0.1702
   50POPC   D2A  967   9.314   6.168   7.699 -0.2925  0.2284  0.0917
   50POPC   C3A  968   9.214   6.568   7.883  0.3849 -0.0123  0.1982
   50POPC   C4A  969   9.259   6.973   8.107 -0.1125 -0.0052  0.1246
   50POPC   C1B  970   8.736   5.508   7.595  0.0675  0.1333  0.2085
   50POPC   C2B  971   8.941   5.695   7.217 -0.0853  0.1441  0.1271
   50POPC   C3B  972   8.830   6.074   7.009  0.0755  0.0867  0.0273
   50POPC   C4B  973   8.803   6.478   6.794 -0.1545 -0.0750  0.0899
   51POPC   NC3  974   6.160   7.194   8.853 -0.1621 -0.2003 -0.2051
   51POPC   PO4  975   6.509   7.152   8.467 -0.0537  0.1408 -0.1379
   51POPC   GL1  976   6.622   6.794   8.270  0.2561 -0.0453  0.0116
   51POPC   GL2  977   6.471   6.566   8.190  0.2747 -0.1663  0.0412
   51POPC   C1A  978   6.738   6.785   7.702 -0.1822 -0.0633 -0.0415
   51POPC   D2A  979   6.894   6.942   7.327 -0.0710 -0.0389 -0.4197
   51POPC   C3A  980   7.094   6.963   6.862 -0.5296 -0.3486 -0.3732
   51POPC   C4A  981   7.633   7.029   6.824 -0.1706  0.5152 -0.0967
   51POPC   C1B  982   6.321   6.910   7.875 -0.0987  0.0797 -0.0990
   51POPC   C2B  983   6.136   7.214   7.621  0.2013 -0.2206  0.4265
   51POPC   C3B  984   6.168   7.591   7.517  0.0196  0.0523 -0.1024
   51POPC   C4B  985   6.393   7.908   7.580 -0.1490  0.0351 -0.2805
   52POPC   NC3  986   0.233   7.189   9.237  0.2778  0.1136 -0.0834
   52POPC   PO4  987  -0.051   6.876   9.018 -0.1406 -0.4948  0.1537
   52POPC   GL1  988   0.191   6.734   8.750 -0.3803 -0.2292  0.3256
   52POPC   GL2  989   0.533   6.777   8.625 -0.2822  0.1809 -0.2085
   52POPC   C1A  990   0.052   6.753   8.219  0.2713  0.0712 -0.2521
   52POPC   D2A  991  -0.018   6.826   7.767  0.0164  0.3405  0.1235
   52POPC   C3A  992  -0.424   6.942   7.599 -0.0162  0.0141  0.3455
   52POPC   C4A  993  -0.658   7.222   7.745  0.0109  0.1013  0.0404
   52POPC   C1B  994   0.596   7.089   8.272 -0.0525 -0.1570  0.1522
   52POPC   C2B  995   0.546   6.994   7.809  0.4334  0.0197 -0.0151
   52POPC   C3B  996   0.419   6.808   7.421 -0.0239 -0.0240  0.0198
   52POPC   C4B  997   0.451   6.740   6.996  0.1330 -0.3623 -0.2938
   53POPC   NC3  998   6.362   5.497   8.277  0.1930  0.0013 -0.0458
   53POPC   PO4  999   6.247   5.121   8.165  0.2658 -0.4613  0.3035
   53POPC   GL1 1000   6.249   4.860   7.852 -0.2548 -0.0849 -0.2475
   53POPC   GL2 1001   5.942   4.560   7.782  0.0629 -0.0282 -0.0745
   53POPC   C1A 1002   6.506   4.574   7.546  0.0542 -0.1191 -0.0901
   53POPC   D2A 1003   6.646   4.112   7.476 -0.3507  0.0121 -0.0656
   53POPC   C3A 1004   6.984   3.960   7.408  0.1970 -0.0586  0.0780
   53POPC   C4A 1005   7.200   3.706   7.095 -0.3300 -0.0574  0.0219
   53POPC   C1B 1006   6.029   4.728   7.382  0.0784 -0.1106  0.0253
   53POPC   C2B 1007   6.008   4.427   6.951  0.0114  0.2001 -0.0204
   53POPC   C3B 1008   5.803   4.296   6.578  0.0935 -0.0085  0.0505
   53POPC   C4B 1009   5.879   4.300   6.122  0.0954  0.0974 -0.2068
   54POPC   NC3 1010   5.333   4.304   8.508  0.0218 -0.3314 -0.1742
   54POPC   PO4 1011   5.537   4.554   8.224 -0.1957  0.1351 -0.1226
   54POPC   GL1 1012   5.429   4.579   7.795 -0.0317 -0.1876 -0.2880
   54POPC   GL2 1013   5.297   4.898   7.655  0.1091  0.0759  0.0537
   54POPC   C1A 1014   5.184   4.472   7.484 -0.1422  0.1938  0.4483
   54POPC   D2A 1015   5.025   4.733   7.115  0.1677 -0.0216  0.1051
   54POPC   C3A 1016   4.911   4.680   6.703  0.5342  0.4338 -0.0646
   54POPC   C4A 1017   4.632   4.701   6.376  0.0417 -0.1102 -0.0926
   54POPC   C1B 1018   5.531   4.873   7.283  0.0546  0.1116  0.2204
   54POPC   C2B 1019   5.429   4.848   6.849  0.0499  0.1876 -0.0841
   54POPC   C3B 1020   5.339   4.538   6.590  0.0097  0.5483 -0.0960
   54POPC   C4B 1021   5.428   4.459   6.248  0.0823 -0.3743  0.2017
   55POPC   NC3 1022   9.145   5.666   8.901  0.0910 -0.2855 -0.1614
   55POPC   PO4 1023   9.601   5.542   8.721 -0.0864  0.0311 -0.2427
   55POPC   GL1 1024   9.781   5.731   8.378  0.3929 -0.0300  0.4533
   55POPC   GL2 1025   9.491   5.867   8.101  0.0240  0.0894  0.4375
   55POPC   C1A 1026  10.124   5.969   8.023  0.0316  0.1222  0.1498
   55POPC   D2A 1027  10.278   5.988   7.604  0.0684 -0.2287  0.0430
   55POPC   C3A 1028  10.671   5.971   7.327 -0.1905  0.1868  0.1320
   55POPC   C4A 1029  10.899   5.765   7.400 -0.0428  0.0346 -0.0963
   55POPC   C1B 1030   9.696   5.839   7.745 -0.2304 -0.0453  0.2450
   55POPC   C2B 1031   9.909   5.750   7.361  0.1862  0.0563 -0.0490
   55POPC   C3B 1032  10.256   5.839   7.071  0.1887  0.4227  0.1169
   55POPC   C4B 1033  10.640   5.697   6.923  0.1514  0.0453  0.1733
   56POPC   NC3 1034   8.829   2.656   8.405  0.2278  0.1926  0.1295
   56POPC   PO4 1035   8.846   2.267   8.290  0.1898  0.1600  0.0274
   56POPC   GL1 1036   8.787   2.260   7.852 -0.2945  0.2044 -0.0237
   56POPC   GL2 1037   8.412   2.219   7.758  0.1001  0.1858 -0.2818
   56POPC   C1A 1038   8.978   2.170   7.435  0.0483  0.1571 -0.0302
   56POPC   D2A 1039   8.957   1.989   6.961 -0.2638 -0.1977  0.0543
   56POPC   C3A 1040   9.191   1.992   6.556 -0.1100  0.1280 -0.3760
   56POPC   C4A 1041   9.273   2.243   6.254  0.0169  0.1508  0.0287
   56POPC   C1B 1042   8.539   1.995   7.415 -0.0896 -0.0553 -0.1793
   56POPC   C2B 1043   8.393   1.856   7.044 -0.2169 -0.0691 -0.2365
   56POPC   C3B 1044   8.108   1.743   6.733  0.1247 -0.5392 -0.0109
   56POPC   C4B 1045   7.816   1.982   6.409  0.0663 -0.3112 -0.2867
   57POPC   NC3 1046   9.222   2.026   8.062  0.2449 -0.2096 -0.1901
   57POPC   PO4 1047   9.459   1.791   8.306 -0.0272  0.0163  0.1260
   57POPC   GL1 1048   9.628   1.797   7.888 -0.0240  0.2683  0.2030
   57POPC   GL2 1049   9.576   2.025   7.718 -0.2534  0.2923  0.1463
   57POPC   C1A 1050   9.739   1.524   7.551  0.0558 -0.3946 -0.1505
   57POPC   D2A 1051   9.935   1.583   7.169  0.0018  0.1371  0.0889
   57POPC   C3A 1052   9.758   1.569   6.789  0.0944  0.3025  0.2262
   57POPC   C4A 1053   9.777   1.739   6.452 -0.2065 -0.1332  0.0251
   57POPC   C1B 1054   9.430   2.016   7.311 -0.3045 -0.0005  0.0183
   57POPC   C2B 1055   9.572   2.054   6.905  0.4701 -0.0685 -0.1634
   57POPC   C3B 1056   9.706   2.203   6.597  0.1992 -0.0941 -0.3100
   57POPC   C4B 1057   9.769   2.113   6.172 -0.0320 -0.0579 -0.0753
   58POPC   NC3 1058   7.101   4.704   8.469 -0.0903  0.2084 -0.1572
   58POPC   PO4 1059   6.813   4.588   8.152 -0.1315  0.5118 -0.0696
   58POPC   GL1 1060   6.974   4.519   7.769  0.1963 -0.0799 -0.2019
   58POPC   GL2 1061   7.231   4.222   7.740 -0.0630 -0.2666 -0.2689
   58POPC   C1A 1062   6.986   4.466   7.317 -0.1682 -0.0716  0.3241
   58POPC   D2A 1063   6.702   4.550   7.014 -0.0404  0.1354  0.1397
   58POPC   C3A 1064   6.837   4.600   6.610 -0.1372 -0.3512  0.0583
   58POPC   C4A 1065   7.050   4.600   6.269  0.0892 -0.1350  0.0943
   58POPC   C1B 1066   7.423   4.457   7.494 -0.1068 -0.1196 -0.0359
   58POPC   C2B 1067   7.645   4.677   7.223 -0.0067 -0.1931  0.1712
   58POPC   C3B 1068   7.771   4.836   6.854  0.1700 -0.0208 -0.3164
   58POPC   C4B 1069   7.723   4.967   6.444 -0.0977  0.0298  0.0415
   59POPC   NC3 1070   1.244   2.566   9.005 -0.1202 -0.4943 -0.1249
   59POPC   PO4 1071   1.625   2.820   8.927  0.1435  0.0988 -0.3232
   59POPC   GL1 1072   1.485   2.779   8.516  0.2071 -0.2798  0.0394
   59POPC   GL2 1073   1.130   2.860   8.608 -0.0090  0.1995 -0.1295
   59POPC   C1A 1074   1.208   2.468   8.255 -0.3514  0.0042 -0.0655
   59POPC   D2A 1075   1.397   2.171   7.930 -0.2756 -0.2971  0.3354
   59POPC   C3A 1076   1.254   2.213   7.596 -0.1067 -0.3899 -0.1307
   59POPC   C4A 1077   1.136   2.055   7.148 -0.2354 -0.1292  0.0210
   59POPC   C1B 1078   1.102   3.014   8.238  0.1423  0.2987  0.0803
   59POPC   C2B 1079   1.029   3.133   7.887  0.1396 -0.1430 -0.1902
   59POPC   C3B 1080   0.705   3.025   7.616  0.0849  0.3152  0.1543
   59POPC   C4B 1081   0.562   2.719   7.315  0.1190  0.2986  0.1327
   60POPC   NC3 1082   4.830   8.253   8.662 -0.0492 -0.1177 -0.1024
   60POPC   PO4 1083   4.441   8.440   8.574 -0.1252 -0.2035  0.3630
   60POPC   GL1 1084   4.538   8.382   8.077 -0.0302  0.2219 -0.1959
   60POPC   GL2 1085   4.396   8.203   7.821 -0.3480 -0.0428  0.2163
   60POPC   C1A 1086   4.429   8.741   7.834 -0.0488  0.1521 -0.0462
   60POPC   D2A 1087   4.123   8.896   7.531 -0.1891  0.1567 -0.0959
   60POPC   C3A 1088   4.028   9.333   7.683  0.3661  0.4187  0.0230
   60POPC   C4A 1089   3.655   9.562   7.669 -0.1619 -0.0457 -0.2744
   60POPC   C1B 1090   4.425   8.400   7.457 -0.2406 -0.3731 -0.1351
   60POPC   C2B 1091   4.393   8.344   7.003 -0.3536 -0.1867  0.1751
   60POPC   C3B 1092   4.300   7.895   6.823 -0.3081  0.0657 -0.1039
   60POPC   C4B 1093   4.648   7.743   6.502  0.4004 -0.0844 -0.1491
   61POPC   NC3 1094   1.582   5.768   9.535 -0.2408  0.3425  0.0461
   61POPC   PO4 1095   1.603   5.872   9.080 -0.0549 -0.0192 -0.1651
   61POPC   GL1 1096   1.271   5.899   8.801 -0.3864 -0.2420 -0.0474
   61POPC   GL2 1097   1.026   5.712   8.824 -0.0669 -0.1922  0.3058
   61POPC   C1A 1098   1.206   5.950   8.349 -0.4556  0.1392  0.0781
   61POPC   D2A 1099   0.875   5.862   7.907 -0.1956  0.0222 -0.1004
   61POPC   C3A 1100   0.795   5.508   7.606 -0.1414 -0.1930 -0.4146
   61POPC   C4A 1101   0.739   5.075   7.644 -0.2866  0.1412  0.1765
   61POPC   C1B 1102   1.084   5.509   8.474 -0.1100  0.1550  0.1499
   61POPC   C2B 1103   1.343   5.193   8.299 -0.0162  0.4795  0.1760
   61POPC   C3B 1104   1.180   4.997   7.962 -0.0852  0.1246  0.1898
   61POPC   C4B 1105   1.055   4.647   7.693  0.1914  0.1219 -0.2015
   62POPC   NC3 1106   5.032   2.362   8.294  0.0173 -0.2176 -0.0038
   62POPC   PO4 1107   4.767   2.584   8.024  0.0864 -0.1680 -0.0859
   62POPC   GL1 1108   4.748   2.548   7.610  0.1936 -0.1164  0.1001
   62POPC   GL2 1109   4.942   2.388   7.363 -0.1364 -0.1095 -0.1706
   62POPC   C1A 1110   4.854   2.932   7.332  0.2123 -0.0818 -0.2910
   62POPC   D2A 1111   4.811   3.191   7.019 -0.1355  0.1509 -0.0838
   62POPC   C3A 1112   4.958   2.997   6.593 -0.1237 -0.5419 -0.0414
   62POPC   C4A 1113   5.309   2.871   6.425 -0.2464  0.0062  0.2572
   62POPC   C1B 1114   4.630   2.564   7.057  0.0953  0.2345 -0.0329
   62POPC   C2B 1115   4.590   2.627   6.684  0.1250 -0.0640 -0.2020
   62POPC   C3B 1116   4.175   2.691   6.542  0.0602  0.0565 -0.0941
   62POPC   C4B 1117   3.836   2.886   6.361 -0.1379 -0.0728 -0.0145
   63POPC   NC3 1118   2.793   4.927   9.729 -0.1483  0.0587  0.1783
   63POPC   PO4 1119   2.552   4.846   9.372  0.0344 -0.2907  0.2048
   63POPC   GL1 1120   2.644   4.874   8.865 -0.3799 -0.1066 -0.0009
   63POPC   GL2 1121   2.971   4.826   8.734 -0.0930  0.2432 -0.1080
   63POPC   C1A 1122   2.197   4.909   8.580 -0.0607 -0.2677 -0.3105
   63POPC   D2A 1123   2.145   5.086   8.177  0.2069  0.1019  0.3577
   63POPC   C3A 1124   1.874   5.353   8.345  0.1851  0.2924  0.0568
   63POPC   C4A 1125   1.645   5.749   8.484  0.0199 -0.0360 -0.1155
   63POPC   C1B 1126   3.202   4.981   8.400 -0.1327  0.3671  0.1274
   63POPC   C2B 1127   3.042   4.755   7.923 -0.2833  0.0299 -0.3405
   63POPC   C3B 1128   2.800   4.464   7.717 -0.0895  0.5072  0.2960
   63POPC   C4B 1129   2.679   4.092   7.543  0.0082  0.4096 -0.0624
   64POPC   NC3 1130   5.422   1.117   8.332  0.1116 -0.3611  0.2408
   64POPC   PO4 1131   5.170   1.434   8.395  0.1674  0.0218  0.1326
   64POPC   GL1 1132   4.980   1.436   7.978 -0.1729  0.0279  0.2609
   64POPC   GL2 1133   4.929   1.688   7.866 -0.0464  0.2407 -0.1513
   64POPC   C1A 1134   4.956   1.149   7.621  0.0419  0.2987 -0.0524
   64POPC   D2A 1135   5.066   0.799   7.372 -0.0254 -0.0738  0.2944
   64POPC   C3A 1136   5.159   0.880   7.014 -0.2073  0.1012  0.3561
   64POPC   C4A 1137   5.006   0.749   6.544  0.0296 -0.3377 -0.0171
   64POPC   C1B 1138   4.809   1.654   7.472 -0.1731 -0.0645 -0.0812
   64POPC   C2B 1139   4.599   1.490   6.998 -0.3009  0.4037  0.1392
   64POPC   C3B 1140   4.728   1.660   6.536 -0.1533 -0.0001  0.0805
   64POPC   C4B 1141   4.890   1.809   6.149  0.3348  0.1066  0.0506
   65POPC   NC3 1142   7.077   6.865   8.487 -0.0192 -0.1758  0.0256
   65POPC   PO4 1143   7.193   7.267   8.558 -0.0650  0.0520 -0.0122
   65POPC   GL1 1144   7.021   7.180   8.069 -0.2115 -0.0318  0.2146
   65POPC   GL2 1145   6.804   7.471   8.126  0.2837 -0.0401 -0.0611
   65POPC   C1A 1146   7.239   6.941   7.762  0.0293  0.2226  0.1913
   65POPC   D2A 1147   7.230   6.538   7.603  0.0549  0.2858 -0.0814
   65POPC   C3A 1148   7.593   6.340   7.723  0.1300  0.2780 -0.0237
   65POPC   C4A 1149   7.770   5.961   7.635  0.0196  0.1851  0.0184
   65POPC   C1B 1150   6.643   7.478   7.782 -0.1765  0.3715  0.0509
   65POPC   C2B 1151   6.728   7.409   7.336  0.0576 -0.1386 -0.0651
   65POPC   C3B 1152   6.801   7.615   6.961 -0.0412  0.0966 -0.1520
   65POPC   C4B 1153   6.656   8.030   6.748  0.1323  0.0909  0.3776
   66POPC   NC3 1154   5.790   4.945   8.007 -0.1386  0.0051  0.0571
   66POPC   PO4 1155   5.412   5.198   8.230 -0.0653 -0.3079  0.2396
   66POPC   GL1 1156   5.409   5.430   7.853 -0.0361 -0.4603 -0.3371
   66POPC   GL2 1157   5.144   5.672   7.967  0.0426  0.2725 -0.2411
   66POPC   C1A 1158   5.497   5.371   7.434 -0.2308  0.0947 -0.0963
   66POPC   D2A 1159   5.564   5.399   6.954 -0.0662 -0.0542 -0.0530
   66POPC   C3A 1160   5.495   5.294   6.523 -0.0492 -0.1405 -0.3167
   66POPC   C4A 1161   5.616   4.907   6.295  0.0571  0.2621  0.1869
   66POPC   C1B 1162   5.221   5.753   7.519 -0.0193 -0.0464  0.1049
   66POPC   C2B 1163   5.416   5.921   7.092  0.1060  0.2403  0.2855
   66POPC   C3B 1164   5.686   5.950   6.729  0.0246  0.1136  0.1138
   66POPC   C4B 1165   6.035   6.193   6.560  0.0550  0.1816  0.0113
   67POPC   NC3 1166   4.244   7.301   8.799  0.0114  0.2069 -0.2851
   67POPC   PO4 1167   4.497   6.959   8.598  0.3543  0.3145  0.1953
   67POPC   GL1 1168   4.497   6.941   8.037 -0.2070 -0.0132  0.2267
   67POPC   GL2 1169   4.625   6.691   7.902  0.0864 -0.0150 -0.1116
   67POPC   C1A 1170   4.359   7.085   7.657  0.5265 -0.0242 -0.2627
   67POPC   D2A 1171   4.447   7.476   7.496  0.1124  0.1709 -0.0839
   67POPC   C3A 1172   4.270   7.616   7.201 -0.2316  0.3449  0.2384
   67POPC   C4A 1173   4.307   7.397   6.817  0.0239 -0.2231  0.1086
   67POPC   C1B 1174   4.368   6.441   7.611  0.1476  0.2145  0.1164
   67POPC   C2B 1175   4.199   6.351   7.262 -0.1979 -0.0455 -0.1384
   67POPC   C3B 1176   4.376   6.161   6.892 -0.2600  0.0868  0.0159
   67POPC   C4B 1177   4.257   5.998   6.422 -0.0292 -0.1892  0.0052
   68POPC   NC3 1178   0.921   0.571   8.739 -0.1233 -0.1795 -0.2062
   68POPC   PO4 1179   0.921   0.915   8.671 -0.0155 -0.0338  0.0137
   68POPC   GL1 1180   1.284   0.955   8.271  0.1796  0.2848  0.1885
   68POPC   GL2 1181   1.390   1.234   8.011  0.2099  0.1001 -0.0423
   68POPC   C1A 1182   1.202   0.745   7.895  0.0512 -0.1595 -0.0590
   68POPC   D2A 1183   1.333   0.772   7.435  0.0440  0.0148 -0.1885
   68POPC   C3A 1184   1.532   0.971   7.259 -0.0533  0.0516 -0.3164
   68POPC   C4A 1185   1.843   0.976   7.022  0.1896 -0.3575  0.1642
   68POPC   C1B 1186   1.185   1.214   7.611 -0.4768  0.2908  0.1246
   68POPC   C2B 1187   1.280   1.419   7.269  0.2234  0.1157 -0.0066
   68POPC   C3B 1188   1.071   1.565   6.912 -0.0196  0.1329 -0.1403
   68POPC   C4B 1189   0.858   1.965   6.710  0.0025 -0.0678  0.1038
   69POPC   NC3 1190   0.773   8.488   8.297 -0.2250  0.1886  0.0483
   69POPC   PO4 1191   1.260   8.593   8.259 -0.2682  0.2898 -0.1113
   69POPC   GL1 1192   1.033   8.291   7.915  0.1523 -0.5594 -0.1524
   69POPC   GL2 1193   1.200   8.485   7.647  0.0621  0.0298  0.2385
   69POPC   C1A 1194   0.735   8.144   7.653  0.0054  0.3679  0.3182
   69POPC   D2A 1195   0.687   7.765   7.345  0.0743 -0.0598 -0.2592
   69POPC   C3A 1196   0.598   7.794   6.928 -0.0135  0.3392 -0.0741
   69POPC   C4A 1197   0.395   7.607   6.636 -0.1116  0.0525  0.0129
   69POPC   C1B 1198   1.593   8.311   7.361  0.1827 -0.1011  0.1024
   69POPC   C2B 1199   1.786   8.325   6.928 -0.2490 -0.0466 -0.0095
   69POPC   C3B 1200   2.087   8.644   6.834 -0.0482  0.0155 -0.2413
   69POPC   C4B 1201   2.141   8.894   6.493 -0.4640 -0.4007 -0.0726
   70POPC   NC3 1202   4.506   3.888   8.850  0.2428  0.1697  0.0380
   70POPC   PO4 1203   4.379   3.505   8.882  0.2767  0.0154 -0.3133
   70POPC   GL1 1204   4.460   3.565   8.455 -0.0248 -0.3655  0.0606
   70POPC   GL2 1205   4.502   3.859   8.307  0.1166  0.2774 -0.2265
   70POPC   C1A 1206   4.153   3.439   8.171 -0.1021  0.0159 -0.2084
   70POPC   D2A 1207   3.720   3.422   8.011  0.1682 -0.4314 -0.0006
   70POPC   C3A 1208   3.545   3.847   7.971  0.1432 -0.1306  0.0697
   70POPC   C4A 1209   3.124   4.091   7.763 -0.0747 -0.0982  0.0353
   70POPC   C1B 1210   4.055   3.885   8.095 -0.0308 -0.2036 -0.2312
   70POPC   C2B 1211   3.972   3.997   7.712 -0.1022 -0.0996 -0.2471
   70POPC   C3B 1212   3.825   3.836   7.343 -0.0714  0.0904  0.0171
   70POPC   C4B 1213   3.939   3.547   6.977 -0.1486  0.0723 -0.0971
   71POPC   NC3 1214   3.265   9.514   8.632 -0.2758 -0.3440  0.0514
   71POPC   PO4 1215   3.265   9.127   8.641  0.2221  0.0476  0.3919
   71POPC   GL1 1216   3.333   9.188   8.188  0.4721  0.0150  0.0026
   71POPC   GL2 1217   3.671   9.222   8.061 -0.2531  0.1035 -0.0907
   71POPC   C1A 1218   3.209   9.450   7.861  0.1234 -0.2195 -0.2564
   71POPC   D2A 1219   3.232   9.810   7.419  0.1983  0.3107  0.2674
   71POPC   C3A 1220   3.245  10.315   7.477  0.5003  0.0771 -0.1751
   71POPC   C4A 1221   3.069  10.595   7.675  0.0973  0.0334 -0.0814
   71POPC   C1B 1222   3.579   8.995   7.664 -0.1813 -0.0704 -0.2944
   71POPC   C2B 1223   3.576   9.223   7.258  0.0037  0.2719 -0.3310
   71POPC   C3B 1224   3.571   9.381   6.843  0.4392 -0.2211  0.0159
   71POPC   C4B 1225   3.465   9.804   6.733  0.0401  0.1486  0.3146
   72POPC   NC3 1226   7.547   8.576   8.654  0.0163 -0.0652  0.2107
   72POPC   PO4 1227   7.419   8.246   8.349  0.1586 -0.0101  0.1806
   72POPC   GL1 1228   7.582   8.110   7.985  0.2401 -0.0145 -0.0694
   72POPC   GL2 1229   7.478   7.890   7.772 -0.0396 -0.0796  0.4914
   72POPC   C1A 1230   7.745   8.303   7.591  0.2408 -0.1309  0.1451
   72POPC   D2A 1231   7.489   8.355   7.251 -0.2322  0.2802 -0.0072
   72POPC   C3A 1232   7.707   8.523   7.106  0.2719  0.2348 -0.2000
   72POPC   C4A 1233   7.942   8.542   6.763  0.0196  0.0364 -0.2554
   72POPC   C1B 1234   7.495   7.826   7.390  0.1193  0.1097 -0.0493
   72POPC   C2B 1235   7.667   7.912   7.037 -0.2018 -0.2449 -0.2557
   72POPC   C3B 1236   7.603   8.173   6.679 -0.1564  0.2714  0.1971
   72POPC   C4B 1237   7.515   7.997   6.348  0.1249  0.3134 -0.1469
   73POPC   NC3 1238   9.321   0.153   8.596 -0.2128 -0.0357 -0.0470
   73POPC   PO4 1239   9.320   0.496   8.451  0.1634  0.1352 -0.1001
   73POPC   GL1 1240   9.439   0.785   8.112  0.0928  0.1186  0.0797
   73POPC   GL2 1241   9.141   0.965   8.001  0.1589 -0.0065 -0.0417
   73POPC   C1A 1242   9.631   1.254   7.954 -0.0941 -0.0130  0.0719
   73POPC   D2A 1243   9.986   1.305   7.917 -0.5122  0.3910  0.1784
   73POPC   C3A 1244  10.216   1.421   7.547 -0.3037  0.1650  0.2376
   73POPC   C4A 1245  10.413   1.270   7.291 -0.1632  0.0022  0.0800
   73POPC   C1B 1246   8.944   0.940   7.622  0.3060  0.1195  0.1621
   73POPC   C2B 1247   8.657   1.103   7.253  0.0458  0.1793  0.2207
   73POPC   C3B 1248   8.744   1.032   6.842  0.0315 -0.0748  0.1699
   73POPC   C4B 1249   8.961   1.054   6.420  0.2060  0.0656  0.0737
   74POPC   NC3 1250   6.973   1.278   8.628 -0.0013 -0.0621  0.1511
   74POPC   PO4 1251   7.325   1.474   8.328 -0.2322  0.0814 -0.0531
   74POPC   GL1 1252   7.388   1.786   7.955 -0.0481 -0.1390  0.0671
   74POPC   GL2 1253   7.127   1.823   7.877 -0.0068  0.0850  0.0431
   74POPC   C1A 1254   7.540   2.160   7.693 -0.4202 -0.0951 -0.2827
   74POPC   D2A 1255   7.743   2.474   7.593 -0.1315 -0.1312  0.1201
   74POPC   C3A 1256   8.062   2.249   7.323 -0.2407 -0.0015 -0.0827
   74POPC   C4A 1257   8.072   2.261   6.799 -0.1950 -0.1311  0.0207
   74POPC   C1B 1258   6.860   1.658   7.487  0.1890  0.0125 -0.3464
   74POPC   C2B 1259   6.650   1.608   7.154 -0.1862 -0.1803  0.1818
   74POPC   C3B 1260   6.497   1.700   6.816 -0.0766  0.0374  0.3214
   74POPC   C4B 1261   6.212   1.772   6.537  0.1716 -0.0033  0.1860
   75POPC   NC3 1262   7.905   2.378   8.292 -0.0981 -0.1809 -0.1199
   75POPC   PO4 1263   8.333   2.643   8.343  0.1361  0.1471  0.1984
   75POPC   GL1 1264   8.550   2.663   7.867  0.1098 -0.0376  0.1463
   75POPC   GL2 1265   8.772   3.011   7.900  0.1293  0.1672 -0.1504
   75POPC   C1A 1266   8.547   2.593   7.395  0.0053 -0.0497 -0.0199
   75POPC   D2A 1267   8.535   2.335   6.998 -0.2522 -0.1388  0.0080
   75POPC   C3A 1268   8.773   2.372   6.582 -0.1314 -0.1261 -0.1944
   75POPC   C4A 1269   8.801   2.559   6.088  0.4892 -0.2239 -0.2097
   75POPC   C1B 1270   8.999   3.258   7.552 -0.0878  0.0230  0.1181
   75POPC   C2B 1271   9.479   3.405   7.479 -0.2710 -0.0855 -0.4081
   75POPC   C3B 1272   9.808   3.449   7.279  0.1380 -0.0326 -0.1571
   75POPC   C4B 1273  10.241   3.177   7.090  0.0650  0.0372  0.0986
   76POPC   NC3 1274   5.043   5.585   8.491 -0.0989 -0.0177  0.0459
   76POPC   PO4 1275   4.908   5.117   8.668 -0.2150  0.1212  0.0836
   76POPC   GL1 1276   4.760   5.249   8.177 -0.1143 -0.1444  0.0591
   76POPC   GL2 1277   4.419   5.506   8.144 -0.0999 -0.1212  0.0737
   76POPC   C1A 1278   4.824   4.899   7.869  0.0135  0.0732 -0.0198
   76POPC   D2A 1279   4.701   4.997   7.418  0.0869  0.0922 -0.2070
   76POPC   C3A 1280   4.581   4.923   7.003 -0.1479 -0.1502 -0.3137
   76POPC   C4A 1281   4.530   5.145   6.601  0.4083  0.0121 -0.0155
   76POPC   C1B 1282   4.520   5.279   7.766 -0.1506 -0.3024  0.0364
   76POPC   C2B 1283   4.576   5.509   7.399 -0.1398 -0.1880  0.0518
   76POPC   C3B 1284   4.813   5.681   7.131  0.3146 -0.1427  0.2134
   76POPC   C4B 1285   4.932   5.772   6.701 -0.0224 -0.0393  0.2646
   77POPC   NC3 1286   9.697   3.346   8.602 -0.0348 -0.0025  0.0977
   77POPC   PO4 1287  10.025   3.113   8.813 -0.2303 -0.1514  0.5448
   77POPC   GL1 1288  10.293   2.859   8.488 -0.1709  0.2007 -0.1408
   77POPC   GL2 1289  10.506   2.511   8.588 -0.0213 -0.0524  0.2240
   77POPC   C1A 1290  10.233   2.979   8.083  0.1054 -0.1944  0.2391
   77POPC   D2A 1291   9.934   2.701   7.956 -0.1273 -0.0851 -0.3347
   77POPC   C3A 1292  10.189   2.474   7.688 -0.1872  0.2989  0.0492
   77POPC   C4A 1293  10.473   2.223   7.492  0.0122 -0.1202 -0.0021
   77POPC   C1B 1294  10.452   2.498   8.174 -0.0780 -0.0700 -0.0211
   77POPC   C2B 1295  10.691   2.560   7.818  0.2245  0.0461 -0.0964
   77POPC   C3B 1296  10.761   2.582   7.334 -0.1004  0.3270  0.0993
   77POPC   C4B 1297  10.696   2.826   7.048  0.3020  0.0512  0.3177
   78POPC   NC3 1298   8.359   8.147   8.337  0.0578 -0.2414 -0.0749
   78POPC   PO4 1299   8.664   7.809   8.544  0.1857  0.0612 -0.1899
   78POPC   GL1 1300   8.715   7.764   8.197 -0.4661 -0.0170  0.1349
   78POPC   GL2 1301   8.395   7.689   7.951 -0.3736  0.1116  0.0433
   78POPC   C1A 1302   8.960   7.810   7.835 -0.0391 -0.0765 -0.0505
   78POPC   D2A 1303   8.941   7.606   7.401 -0.2793 -0.3215  0.3586
   78POPC   C3A 1304   8.935   7.625   6.959 -0.0794 -0.4502 -0.3118
   78POPC   C4A 1305   9.045   7.249   6.660  0.1202  0.0496 -0.2947
   78POPC   C1B 1306   8.421   7.607   7.624 -0.0438 -0.2612  0.0217
   78POPC   C2B 1307   8.452   7.643   7.197  0.1538  0.1119 -0.1440
   78POPC   C3B 1308   8.458   7.713   6.763 -0.0736  0.1431 -0.0418
   78POPC   C4B 1309   8.472   7.494   6.414  0.2563  0.1182  0.0421
   79POPC   NC3 1310   7.030   5.752   8.838 -0.0013  0.1552 -0.2491
   79POPC   PO4 1311   6.883   5.534   8.366 -0.0873  0.1015 -0.0173
   79POPC   GL1 1312   6.752   5.397   7.936  0.0092  0.2724 -0.4483
   79POPC   GL2 1313   6.835   5.074   7.877 -0.1134  0.1608  0.0203
   79POPC   C1A 1314   6.401   5.437   7.624  0.0531  0.1683  0.0009
   79POPC   D2A 1315   6.025   5.250   7.520 -0.1369 -0.0027  0.1844
   79POPC   C3A 1316   5.936   5.095   7.103  0.2937  0.2236 -0.0215
   79POPC   C4A 1317   5.936   4.972   6.742  0.0043 -0.2568  0.0234
   79POPC   C1B 1318   6.790   4.940   7.458  0.0263 -0.2530 -0.0519
   79POPC   C2B 1319   6.438   5.014   7.184 -0.3164  0.1208  0.1736
   79POPC   C3B 1320   6.306   5.389   6.990 -0.1925 -0.1154  0.1411
   79POPC   C4B 1321   6.084   5.720   6.846  0.1521 -0.0314  0.1468
   80POPC   NC3 1322   3.999   2.127   8.483  0.0098 -0.0560 -0.3506
   80POPC   PO4 1323   4.328   2.593   8.291 -0.2615  0.0439 -0.1398
   80POPC   GL1 1324   4.314   2.341   7.904 -0.0459  0.0542  0.0825
   80POPC   GL2 1325   4.328   2.637   7.731  0.1040  0.1507  0.0358
   80POPC   C1A 1326   4.540   2.097   7.490  0.5073  0.0301 -0.2468
   80POPC   D2A 1327   4.612   1.931   7.077 -0.0847  0.3238 -0.1153
   80POPC   C3A 1328   4.698   2.128   6.668 -0.1003 -0.2584  0.0136
   80POPC   C4A 1329   4.953   2.457   6.411  0.0585 -0.1852  0.0491
   80POPC   C1B 1330   4.242   2.453   7.395 -0.1799 -0.0359  0.1482
   80POPC   C2B 1331   4.164   2.525   6.992 -0.4638 -0.0768 -0.0950
   80POPC   C3B 1332   4.191   2.152   6.659 -0.1355 -0.0821 -0.0646
   80POPC   C4B 1333   4.407   1.938   6.308  0.1737  0.0901  0.0226
   81POPC   NC3 1334   9.237   4.156   8.721 -0.1294 -0.0465  0.5069
   81POPC   PO4 1335   9.150   4.243   8.224 -0.2761  0.5481  0.2711
   81POPC   GL1 1336   9.114   4.133   7.740 -0.1758 -0.1656 -0.1930
   81POPC   GL2 1337   9.215   3.767   7.750 -0.1149  0.1553  0.2938
   81POPC   C1A 1338   8.888   4.255   7.343 -0.0837  0.2510 -0.1025
   81POPC   D2A 1339   8.909   4.605   7.045  0.1852 -0.1650  0.0144
   81POPC   C3A 1340   8.660   4.538   6.618  0.0029 -0.1360  0.0880
   81POPC   C4A 1341   8.591   4.440   6.185  0.0346 -0.0193 -0.0102
   81POPC   C1B 1342   8.905   3.751   7.368 -0.5650 -0.1412 -0.0936
   81POPC   C2B 1343   8.855   3.506   7.045  0.1854  0.2788 -0.0979
   81POPC   C3B 1344   8.970   3.234   6.745  0.0432 -0.4134  0.1571
   81POPC   C4B 1345   8.968   3.300   6.264  0.1099  0.0961  0.3596
   82POPC   NC3 1346   2.726   5.301   9.173  0.1042 -0.0952 -0.2047
   82POPC   PO4 1347   2.256   5.297   9.262 -0.1452 -0.2150  0.1883
   82POPC   GL1 1348   1.968   5.021   9.028 -0.1249 -0.3428  0.4714
   82POPC   GL2 1349   2.124   4.737   9.051 -0.1802  0.0528 -0.1001
   82POPC   C1A 1350   1.710   4.749   8.784  0.0262  0.1706  0.2667
   82POPC   D2A 1351   1.702   4.812   8.334  0.2931 -0.0766  0.0205
   82POPC   C3A 1352   1.990   4.586   8.238 -0.2183  0.0599 -0.1695
   82POPC   C4A 1353   2.362   4.399   8.013 -0.1284  0.0374 -0.0480
   82POPC   C1B 1354   2.298   4.432   8.932  0.0849 -0.2294  0.0465
   82POPC   C2B 1355   2.426   4.238   8.513  0.0949  0.1437  0.0020
   82POPC   C3B 1356   2.721   4.162   8.227  0.0681  0.2026 -0.0442
   82POPC   C4B 1357   3.126   4.000   8.250 -0.0390  0.0478  0.0011
   83POPC   NC3 1358   4.820   9.110   9.074 -0.2355  0.2527  0.2465
   83POPC   PO4 1359   5.014   8.765   8.829  0.1747 -0.1535  0.4132
   83POPC   GL1 1360   4.970   8.671   8.418  0.1836  0.3328  0.1182
   83POPC   GL2 1361   5.301   8.834   8.216  0.0862 -0.1419 -0.0187
   83POPC   C1A 1362   4.918   8.603   7.905 -0.1098  0.0781  0.4064
   83POPC   D2A 1363   4.924   8.807   7.473 -0.1835  0.0542  0.0137
   83POPC   C3A 1364   4.970   9.254   7.348 -0.0934 -0.1488 -0.4232
   83POPC   C4A 1365   5.087   9.661   7.157 -0.1385 -0.0812  0.0929
   83POPC   C1B 1366   5.282   8.927   7.819  0.1460 -0.3043  0.1618
   83POPC   C2B 1367   5.358   8.864   7.303  0.0739  0.0776 -0.0838
   83POPC   C3B 1368   5.341   9.143   7.037  0.0374  0.2153  0.0553
   83POPC   C4B 1369   5.366   9.390   6.629  0.3092  0.0943 -0.0760
   84POPC   NC3 1370   2.071   7.973   8.611  0.2519 -0.2557  0.0088
   84POPC   PO4 1371   2.347   8.161   8.493  0.0697 -0.0866  0.3621
   84POPC   GL1 1372   2.071   8.246   8.153 -0.2221  0.0375  0.0671
   84POPC   GL2 1373   2.221   8.050   7.910 -0.2344 -0.0420  0.1595
   84POPC   C1A 1374   1.933   8.375   7.707 -0.5209 -0.1405  0.2387
   84POPC   D2A 1375   1.892   8.704   7.487 -0.1015  0.3907 -0.1817
   84POPC   C3A 1376   1.749   8.913   7.071  0.2078  0.1435  0.0616
   84POPC   C4A 1377   1.615   8.785   6.700  0.1256  0.4930  0.1028
   84POPC   C1B 1378   2.150   7.858   7.563  0.1781 -0.2513 -0.0876
   84POPC   C2B 1379   1.981   7.494   7.345  0.1120 -0.2463 -0.1123
   84POPC   C3B 1380   1.872   7.319   7.034 -0.0221  0.2951  0.0402
   84POPC   C4B 1381   1.704   7.320   6.595 -0.0674  0.2767 -0.2573
   85POPC   NC3 1382   5.518   7.821   8.254 -0.1580  0.2770  0.2375
   85POPC   PO4 1383   5.393   7.306   8.413  0.3538 -0.4264  0.0791
   85POPC   GL1 1384   5.115   7.078   8.107  0.1499 -0.0992 -0.4546
   85POPC   GL2 1385   4.820   7.304   8.136 -0.1621 -0.2270  0.0763
   85POPC   C1A 1386   5.265   6.856   7.780  0.2306  0.3971 -0.0951
   85POPC   D2A 1387   5.203   6.898   7.332  0.0998  0.1298  0.0870
   85POPC   C3A 1388   5.510   6.807   7.036 -0.0157 -0.0419  0.0896
   85POPC   C4A 1389   5.821   6.507   6.946 -0.1503 -0.2217  0.1291
   85POPC   C1B 1390   4.847   7.153   7.653 -0.0393 -0.2092 -0.2441
   85POPC   C2B 1391   4.725   7.150   7.223  0.0165  0.0362 -0.2417
   85POPC   C3B 1392   4.351   6.922   6.861  0.2050  0.0313  0.0889
   85POPC   C4B 1393   4.305   6.582   6.618 -0.2921  0.0465  0.1417
   86POPC   NC3 1394   7.304   2.986   8.138 -0.2925  0.1931  0.1856
   86POPC   PO4 1395   7.552   3.305   8.251 -0.1136  0.0249  0.0279
   86POPC   GL1 1396   7.645   3.252   7.910  0.0248 -0.0409  0.0425
   86POPC   GL2 1397   7.573   2.921   7.679 -0.1582 -0.2437 -0.3557
   86POPC   C1A 1398   7.803   3.418   7.553  0.1300 -0.2639  0.0029
   86POPC   D2A 1399   7.708   3.544   7.193 -0.3724 -0.3683  0.0541
   86POPC   C3A 1400   7.597   3.775   6.853 -0.1518  0.3048 -0.0209
   86POPC   C4A 1401   7.647   3.847   6.372 -0.0578 -0.1645  0.1862
   86POPC   C1B 1402   7.671   2.981   7.219 -0.0002  0.0997 -0.1471
   86POPC   C2B 1403   7.914   3.105   6.836 -0.1312 -0.0524  0.1376
   86POPC   C3B 1404   7.694   3.374   6.569  0.0928  0.1759  0.0595
   86POPC   C4B 1405   7.625   3.420   6.192 -0.0341 -0.0917 -0.0376
   87POPC   NC3 1406   0.501   1.787   9.108 -0.1890 -0.0364 -0.1160
   87POPC   PO4 1407   0.497   2.094   8.738  0.2037 -0.1829 -0.0989
   87POPC   GL1 1408   0.771   1.924   8.352  0.1253 -0.2188  0.1013
   87POPC   GL2 1409   0.603   1.684   8.172 -0.4029 -0.0152  0.1674
   87POPC   C1A 1410   0.899   2.054   7.907 -0.0439  0.3101  0.2329
   87POPC   D2A 1411   0.853   1.713   7.566  0.1482 -0.2350  0.3907
   87POPC   C3A 1412   0.674   1.753   7.153  0.1360 -0.1459 -0.0745
   87POPC   C4A 1413   0.376   1.997   6.822  0.1936  0.0620  0.0269
   87POPC   C1B 1414   0.367   1.748   7.881 -0.0167  0.5192 -0.0171
   87POPC   C2B 1415   0.290   1.991   7.550 -0.5136  0.1178  0.3973
   87POPC   C3B 1416   0.351   2.229   7.246  0.2830 -0.3856  0.0539
   87POPC   C4B 1417   0.683   2.390   7.014 -0.3197  0.0216  0.0991
   88POPC   NC3 1418   6.613   1.896   8.780 -0.2617  0.1761 -0.0667
   88POPC   PO4 1419   6.592   1.863   8.383  0.0528  0.3122 -0.2070
   88POPC   GL1 1420   6.475   1.836   7.980 -0.0235 -0.0430 -0.0659
   88POPC   GL2 1421   6.298   2.115   7.844 -0.0255 -0.1117  0.0761
   88POPC   C1A 1422   6.322   1.640   7.634  0.0470  0.2874 -0.0916
   88POPC   D2A 1423   6.444   1.266   7.411  0.0163  0.0459 -0.0184
   88POPC   C3A 1424   6.211   1.256   7.006 -0.0622  0.2351 -0.0486
   88POPC   C4A 1425   5.959   1.183   6.682 -0.0558 -0.2028 -0.2948
   88POPC   C1B 1426   6.736   2.105   7.582 -0.1918 -0.2286  0.0931
   88POPC   C2B 1427   7.125   2.065   7.396 -0.2318 -0.1260 -0.2218
   88POPC   C3B 1428   7.485   2.409   7.173  0.0430  0.0256  0.0475
   88POPC   C4B 1429   7.737   2.651   6.855  0.0419 -0.0685  0.2289
   89POPC   NC3 1430   5.457   6.246   8.475  0.0135  0.1429 -0.0370
   89POPC   PO4 1431   5.082   6.095   8.344 -0.1827 -0.0578  0.0696
   89POPC   GL1 1432   5.086   6.274   8.054  0.0520 -0.2386 -0.0209
   89POPC   GL2 1433   5.433   6.483   7.991 -0.0997 -0.1193  0.0703
   89POPC   C1A 1434   4.933   6.308   7.700  0.6257 -0.2557  0.3498
   89POPC   D2A 1435   4.818   6.627   7.416 -0.1051  0.0460  0.0837
   89POPC   C3A 1436   4.580   6.580   7.058  0.1074  0.0345  0.3453
   89POPC   C4A 1437   4.735   6.427   6.676 -0.3307 -0.1362  0.0339
   89POPC   C1B 1438   5.396   6.347   7.550  0.1542  0.0344 -0.2269
   89POPC   C2B 1439   5.272   6.403   7.078 -0.0549 -0.0514 -0.1419
   89POPC   C3B 1440   4.933   6.150   7.067  0.1901  0.0666  0.2497
   89POPC   C4B 1441   4.616   6.068   7.382 -0.1950  0.0693 -0.0771
   90POPC   NC3 1442   7.932   4.827   8.225 -0.0905 -0.0242 -0.0336
   90POPC   PO4 1443   8.234   5.193   8.264  0.3603 -0.2662  0.1146
   90POPC   GL1 1444   8.192   5.171   7.846 -0.0766 -0.2099 -0.3535
   90POPC   GL2 1445   8.559   5.033   7.850  0.2274  0.3139 -0.0184
   90POPC   C1A 1446   8.128   5.527   7.522 -0.0031  0.1432  0.1972
   90POPC   D2A 1447   7.915   5.686   7.186 -0.1269 -0.2552  0.0786
   90POPC   C3A 1448   7.487   5.838   7.120 -0.0090 -0.0124  0.0251
   90POPC   C4A 1449   7.198   6.073   7.378 -0.0818 -0.0236 -0.1221
   90POPC   C1B 1450   8.992   5.133   7.694  0.0636  0.0211  0.1369
   90POPC   C2B 1451   9.103   5.158   7.188  0.2157  0.1770 -0.2596
   90POPC   C3B 1452   9.245   4.843   6.844 -0.2350  0.3464 -0.0357
   90POPC   C4B 1453   9.497   4.521   6.653  0.3830 -0.1405  0.1375
   91POPC   NC3 1454   7.161   0.585   8.516 -0.1734  0.0219  0.0749
   91POPC   PO4 1455   7.231   0.207   8.303 -0.1073  0.1562 -0.0393
   91POPC   GL1 1456   7.059   0.088   7.880 -0.0574  0.4379 -0.0320
   91POPC   GL2 1457   6.940  -0.270   7.725  0.2081  0.5359  0.2398
   91POPC   C1A 1458   7.214   0.182   7.420  0.0472  0.1967  0.0675
   91POPC   D2A 1459   7.335   0.361   6.998  0.2141  0.3644 -0.0583
   91POPC   C3A 1460   7.392   0.626   6.799 -0.2019  0.0917 -0.1182
   91POPC   C4A 1461   7.276   0.986   6.922 -0.0744  0.2103  0.0362
   91POPC   C1B 1462   6.804  -0.101   7.339  0.3076  0.0521  0.2240
   91POPC   C2B 1463   6.876   0.205   7.053  0.0957  0.0681  0.1631
   91POPC   C3B 1464   6.672   0.140   6.683  0.1373  0.2562 -0.2190
   91POPC   C4B 1465   6.755   0.035   6.288  0.1934  0.3037  0.1474
   92POPC   NC3 1466   8.519   0.565   8.745 -0.1469  0.1143  0.0994
   92POPC   PO4 1467   8.774   0.686   8.466 -0.1359 -0.0249  0.2158
   92POPC   GL1 1468   8.798   0.612   8.123  0.0419 -0.0788  0.0015
   92POPC   GL2 1469   8.615   0.555   7.838  0.2623 -0.1035 -0.1983
   92POPC   C1A 1470   9.132   0.456   7.805  0.3189  0.0444  0.1869
   92POPC   D2A 1471   9.348   0.358   7.300  0.0900  0.0517  0.2467
   92POPC   C3A 1472   9.193   0.294   6.956 -0.0404 -0.2415 -0.0602
   92POPC   C4A 1473   9.490   0.309   6.615 -0.1037 -0.1762  0.1810
   92POPC   C1B 1474   8.312   0.878   7.652 -0.5859 -0.0237 -0.3546
   92POPC   C2B 1475   8.157   1.000   7.284 -0.0641  0.1401  0.0459
   92POPC   C3B 1476   7.900   1.491   7.122 -0.0930  0.3060  0.0334
   92POPC   C4B 1477   7.590   1.484   6.819 -0.0071 -0.1745  0.3865
   93POPC   NC3 1478   9.672   0.201   8.123  0.0932  0.0981  0.4578
   93POPC   PO4 1479   9.495  -0.182   8.110 -0.3901  0.3941  0.2410
   93POPC   GL1 1480   9.456  -0.429   7.867 -0.0294 -0.0373 -0.0060
   93POPC   GL2 1481   9.757  -0.650   7.881  0.0673 -0.0801  0.3625
   93POPC   C1A 1482   9.242  -0.615   7.551  0.2293 -0.2763  0.1016
   93POPC   D2A 1483   8.850  -0.892   7.551 -0.0291  0.0464 -0.0042
   93POPC   C3A 1484   8.662  -0.949   7.143  0.2568 -0.1484 -0.0817
   93POPC   C4A 1485   8.481  -1.085   6.783 -0.3192  0.2512 -0.2106
   93POPC   C1B 1486   9.731  -0.519   7.441  0.0620  0.1398  0.1252
   93POPC   C2B 1487   9.771  -0.823   7.188  0.2638 -0.0272 -0.2176
   93POPC   C3B 1488  10.104  -1.052   7.044 -0.0232  0.2071  0.0526
   93POPC   C4B 1489  10.452  -1.448   7.062 -0.0824  0.1180 -0.0067
   94POPC   NC3 1490   7.048   8.585   8.264 -0.1132 -0.2709 -0.0793
   94POPC   PO4 1491   6.855   8.966   8.277 -0.4239  0.1035 -0.2350
   94POPC   GL1 1492   7.103   8.947   7.876  0.2010 -0.0465 -0.0733
   94POPC   GL2 1493   7.394   9.094   7.939  0.0882  0.3598 -0.2071
   94POPC   C1A 1494   6.968   9.002   7.399  0.1073 -0.2626 -0.0733
   94POPC   D2A 1495   6.939   9.079   7.001 -0.1799 -0.0239 -0.0049
   94POPC   C3A 1496   6.735   9.402   6.909 -0.2912 -0.0779 -0.0112
   94POPC   C4A 1497   6.360   9.574   6.937 -0.1006 -0.2945  0.1547
   94POPC   C1B 1498   7.428   8.867   7.504  0.2531 -0.1659 -0.4350
   94POPC   C2B 1499   7.444   8.924   7.200  0.0702  0.3475  0.2733
   94POPC   C3B 1500   7.748   9.320   7.112  0.0498  0.1878  0.0719
   94POPC   C4B 1501   7.688   9.643   6.816  0.2125 -0.1200 -0.0800
   95POPC   NC3 1502   1.163   4.033   9.619 -0.4899  0.1217 -0.2503
   95POPC   PO4 1503   1.405   4.076   9.302  0.1587 -0.1088 -0.3991
   95POPC   GL1 1504   1.362   4.068   8.908  0.0045  0.0650  0.1142
   95POPC   GL2 1505   1.717   3.904   8.882 -0.0121  0.0562  0.2042
   95POPC   C1A 1506   1.411   3.706   8.578  0.4037 -0.2307  0.1214
   95POPC   D2A 1507   1.302   3.476   8.297  0.2700 -0.1375  0.0550
   95POPC   C3A 1508   1.573   3.155   8.013  0.1315 -0.0173  0.2438
   95POPC   C4A 1509   1.449   2.784   7.849  0.2256  0.3779 -0.2269
   95POPC   C1B 1510   1.979   4.072   8.627  0.0656 -0.1653 -0.1114
   95POPC   C2B 1511   1.960   4.057   8.334  0.0387 -0.0969  0.0730
   95POPC   C3B 1512   1.894   4.223   7.913  0.0770  0.2431 -0.0458
   95POPC   C4B 1513   1.652   4.044   7.657  0.1263  0.2421 -0.2095
   96POPC   NC3 1514   9.003   7.555   8.771  0.1861 -0.1569  0.0675
   96POPC   PO4 1515   9.510   7.612   8.735  0.1464  0.1446 -0.2220
   96POPC   GL1 1516   9.594   7.463   8.383 -0.2021  0.4099 -0.0477
   96POPC   GL2 1517   9.604   7.165   8.420  0.0678 -0.2294  0.1475
   96POPC   C1A 1518   9.423   7.551   7.996  0.4197  0.0994  0.0184
   96POPC   D2A 1519   9.416   7.443   7.434 -0.0378 -0.4201  0.0813
   96POPC   C3A 1520   9.124   7.214   7.150 -0.1138  0.1971  0.0731
   96POPC   C4A 1521   9.097   6.856   7.008  0.1950  0.1828 -0.2623
   96POPC   C1B 1522   9.834   7.230   8.002 -0.2327 -0.0240 -0.1410
   96POPC   C2B 1523   9.923   7.227   7.548 -0.2604  0.0161 -0.0048
   96POPC   C3B 1524   9.738   7.057   7.247  0.0861  0.3371 -0.0836
   96POPC   C4B 1525   9.701   6.699   6.948  0.1886 -0.1572  0.2429
   97POPC   NC3 1526   7.759   4.052   8.290 -0.2934 -0.1939  0.0455
   97POPC   PO4 1527   7.690   4.410   8.149  0.1575 -0.0452  0.1202
   97POPC   GL1 1528   7.811   4.229   7.788  0.0343 -0.0442 -0.5855
   97POPC   GL2 1529   7.779   3.894   7.725  0.0812  0.2713 -0.1361
   97POPC   C1A 1530   7.955   4.374   7.456  0.2322  0.1077 -0.1112
   97POPC   D2A 1531   8.102   4.514   7.167  0.0688 -0.1596  0.0427
   97POPC   C3A 1532   8.330   4.268   6.985  0.0893 -0.0098 -0.0724
   97POPC   C4A 1533   8.593   4.018   6.876 -0.2139  0.3650 -0.1842
   97POPC   C1B 1534   7.475   3.878   7.459 -0.0406  0.0025  0.1620
   97POPC   C2B 1535   7.398   4.152   7.117  0.2452 -0.1995 -0.0238
   97POPC   C3B 1536   7.299   4.624   6.917  0.2701  0.3787  0.1571
   97POPC   C4B 1537   7.242   4.958   6.566  0.0817  0.2872 -0.1699
   98POPC   NC3 1538   5.517   0.316   8.715  0.1595  0.0795 -0.0177
   98POPC   PO4 1539   5.302   0.679   8.504  0.0398  0.1914  0.3080
   98POPC   GL1 1540   5.283   0.643   8.057 -0.1449 -0.0606 -0.1200
   98POPC   GL2 1541   5.321   0.900   7.806  0.0691 -0.1629 -0.0124
   98POPC   C1A 1542   5.257   0.319   7.577 -0.2798  0.2270 -0.2071
   98POPC   D2A 1543   5.299   0.362   7.218 -0.0549 -0.1381 -0.0714
   98POPC   C3A 1544   5.047   0.353   6.834 -0.4510  0.1078  0.0348
   98POPC   C4A 1545   5.054   0.062   6.538  0.1307  0.0739 -0.1683
   98POPC   C1B 1546   5.553   0.803   7.399 -0.3672 -0.3917 -0.0103
   98POPC   C2B 1547   5.609   0.702   6.979 -0.2070 -0.1465  0.2703
   98POPC   C3B 1548   5.525   0.790   6.523 -0.1456 -0.3063 -0.2521
   98POPC   C4B 1549   5.262   0.431   6.292 -0.2370 -0.0851  0.0460
   99POPC   NC3 1550   6.471   9.246   8.234 -0.3041 -0.0120  0.0316
   99POPC   PO4 1551   6.272   8.795   8.446 -0.1364 -0.0619  0.0780
   99POPC   GL1 1552   6.167   8.801   8.000  0.1311  0.0859  0.0048
   99POPC   GL2 1553   5.912   8.670   7.905  0.1551  0.0866 -0.1579
   99POPC   C1A 1554   5.941   8.972   7.555  0.0340 -0.4077 -0.0713
   99POPC   D2A 1555   5.932   8.726   7.146  0.0416  0.0084 -0.0015
   99POPC   C3A 1556   6.254   8.410   6.821 -0.1450  0.1269  0.0703
   99POPC   C4A 1557   6.342   8.202   6.376 -0.0120  0.1072 -0.0935
   99POPC   C1B 1558   5.648   8.607   7.662 -0.2803  0.1747  0.2509
   99POPC   C2B 1559   5.247   8.456   7.591 -0.2626 -0.0416  0.3035
   99POPC   C3B 1560   4.900   8.194   7.529  0.0052 -0.0860 -0.0350
   99POPC   C4B 1561   4.578   7.972   7.328  0.0711  0.1395  0.4631
  100POPC   NC3 1562   9.117   5.759   8.402 -0.0796 -0.1088  0.2075
  100POPC   PO4 1563   9.396   6.004   8.638  0.0924 -0.0385 -0.0200
  100POPC   GL1 1564   9.605   6.295   8.440 -0.2382 -0.1315 -0.1826
  100POPC   GL2 1565   9.963   6.362   8.416 -0.1540  0.0483 -0.1433
  100POPC   C1A 1566   9.709   6.313   7.979  0.0035  0.4728 -0.2585
  100POPC   D2A 1567   9.932   6.362   7.587  0.0322  0.2932 -0.2314
  100POPC   C3A 1568   9.957   6.235   7.259 -0.0992 -0.2207  0.3692
  100POPC   C4A 1569  10.012   6.338   6.793  0.2321 -0.1167  0.0600
  100POPC   C1B 1570  10.264   6.438   8.150 -0.2536  0.2247  0.3439
  100POPC   C2B 1571  10.378   6.496   7.753 -0.2092 -0.0129  0.3487
  100POPC   C3B 1572  10.454   6.400   7.307  0.1803  0.2012  0.0856
  100POPC   C4B 1573  10.526   6.225   6.911 -0.0211 -0.3934  0.2193
  101POPC   NC3 1574   3.830   3.422   8.970  0.3274  0.1367  0.1644
  101POPC   PO4 1575   3.679   3.845   9.035 -0.2211  0.1026  0.0678
  101POPC   GL1 1576   3.640   3.681   8.576 -0.0499  0.1440 -0.0046
  101POPC   GL2 1577   3.736   3.368   8.482 -0.0668  0.2005 -0.1511
  101POPC   C1A 1578   3.290   3.554   8.375  0.0950  0.1547 -0.1695
  101POPC   D2A 1579   3.201   3.474   7.928 -0.2324 -0.0365 -0.0326
  101POPC   C3A 1580   3.366   3.505   7.603 -0.0277  0.1421  0.0742
  101POPC   C4A 1581   3.619   3.368   7.295 -0.3351  0.1700 -0.1067
  101POPC   C1B 1582   3.497   3.062   8.293  0.2266  0.1873 -0.3632
  101POPC   C2B 1583   3.480   3.028   7.843  0.1892  0.2296  0.1472
  101POPC   C3B 1584   3.423   2.836   7.486  0.1953  0.0612  0.1345
  101POPC   C4B 1585   3.312   2.923   7.114 -0.0421 -0.0230 -0.2813
  102POPC   NC3 1586   4.185   8.097   8.295  0.2024 -0.3013 -0.1090
  102POPC   PO4 1587   4.673   7.876   8.193 -0.2691 -0.1596 -0.1499
  102POPC   GL1 1588   4.890   7.741   7.831 -0.2252 -0.3647  0.1342
  102POPC   GL2 1589   5.212   7.515   7.911 -0.2892 -0.3065 -0.0014
  102POPC   C1A 1590   4.936   7.608   7.390 -0.1427 -0.0907  0.1970
  102POPC   D2A 1591   4.728   7.582   7.001 -0.0264  0.0594 -0.0037
  102POPC   C3A 1592   4.819   7.243   6.728 -0.1556 -0.1330  0.0423
  102POPC   C4A 1593   4.940   6.867   6.829 -0.4023  0.4422 -0.0212
  102POPC   C1B 1594   5.302   7.350   7.548 -0.3102 -0.2930 -0.4017
  102POPC   C2B 1595   5.289   7.326   7.082 -0.0533  0.1740 -0.4083
  102POPC   C3B 1596   5.407   7.185   6.739 -0.2316  0.1472  0.0537
  102POPC   C4B 1597   5.509   7.277   6.373  0.1196 -0.0446 -0.2331
  103POPC   NC3 1598   7.055   3.635   8.333  0.0243  0.0504  0.2802
  103POPC   PO4 1599   7.445   3.769   8.088 -0.1002  0.0520 -0.0676
  103POPC   GL1 1600   7.277   3.536   7.819 -0.0607  0.0880  0.0305
  103POPC   GL2 1601   7.007   3.332   7.878 -0.1243 -0.0712 -0.0161
  103POPC   C1A 1602   7.246   3.288   7.408  0.1466  0.0041 -0.3078
  103POPC   D2A 1603   7.229   2.857   7.336  0.0230 -0.0926  0.2921
  103POPC   C3A 1604   7.236   2.808   6.934 -0.1302  0.0918 -0.3182
  103POPC   C4A 1605   7.434   2.789   6.507  0.1254 -0.0432 -0.2235
  103POPC   C1B 1606   6.796   3.545   7.555  0.1557 -0.1641 -0.1226
  103POPC   C2B 1607   6.728   3.567   7.107 -0.1239 -0.0281  0.0383
  103POPC   C3B 1608   6.953   3.373   6.732 -0.3148  0.0707  0.0899
  103POPC   C4B 1609   7.411   3.286   6.938 -0.1809 -0.1792 -0.0044
  104POPC   NC3 1610   3.795   5.105   9.273  0.0273 -0.3189 -0.2317
  104POPC   PO4 1611   4.130   5.184   8.912  0.0143 -0.2845  0.1675
  104POPC   GL1 1612   3.846   5.286   8.516 -0.0536 -0.4763 -0.0729
  104POPC   GL2 1613   4.080   5.119   8.365  0.0805 -0.0396  0.2298
  104POPC   C1A 1614   3.516   5.324   8.261  0.1639 -0.0621  0.0890
  104POPC   D2A 1615   3.163   5.215   7.981 -0.0214 -0.0751  0.3268
  104POPC   C3A 1616   2.752   5.114   8.137  0.0538 -0.2435 -0.1290
  104POPC   C4A 1617   2.660   4.744   8.365  0.0670 -0.2047 -0.3695
  104POPC   C1B 1618   3.965   5.364   8.006  0.1689  0.3023 -0.1135
  104POPC   C2B 1619   3.920   5.400   7.587  0.3353 -0.0676 -0.1872
  104POPC   C3B 1620   3.727   5.339   7.320 -0.0786  0.2273 -0.1248
  104POPC   C4B 1621   3.601   5.340   7.028 -0.3602 -0.0989 -0.0058
  105POPC   NC3 1622   1.690   9.202   8.006 -0.3639 -0.1898 -0.1793
  105POPC   PO4 1623   1.322   8.923   7.897 -0.1987  0.0692  0.0745
  105POPC   GL1 1624   1.504   8.968   7.524  0.0936 -0.3427 -0.1161
  105POPC   GL2 1625   1.684   9.174   7.520  0.1873 -0.0523 -0.1031
  105POPC   C1A 1626   1.328   8.733   7.193 -0.0823  0.1219  0.4670
  105POPC   D2A 1627   1.233   8.437   6.873  0.0716 -0.3054 -0.0579
  105POPC   C3A 1628   1.410   8.375   6.511  0.2370 -0.1622 -0.1706
  105POPC   C4A 1629   1.328   8.134   6.224  0.3106  0.2409  0.1630
  105POPC   C1B 1630   1.732   9.540   7.304  0.1506 -0.2423 -0.2392
  105POPC   C2B 1631   1.965   9.710   6.918 -0.0428  0.0162 -0.1664
  105POPC   C3B 1632   1.698   9.816   6.693  0.2201  0.0914 -0.1201
  105POPC   C4B 1633   1.645  10.026   6.360 -0.1380 -0.2709 -0.0536
  106POPC   NC3 1634   3.242   4.154   9.696 -0.0778  0.0912 -0.0242
  106POPC   PO4 1635   2.895   3.886   9.448  0.0240  0.0455  0.1757
  106POPC   GL1 1636   2.681   3.947   9.074 -0.0443  0.0349 -0.2578
  106POPC   GL2 1637   2.471   3.682   8.817  0.2384 -0.0498 -0.3142
  106POPC   C1A 1638   2.875   4.191   8.678  0.1648  0.1736  0.0657
  106POPC   D2A 1639   3.173   4.474   8.339  0.0975 -0.3222  0.4406
  106POPC   C3A 1640   3.444   4.364   7.974 -0.1785  0.0636  0.3998
  106POPC   C4A 1641   3.578   4.211   7.524 -0.2110 -0.2393  0.2869
  106POPC   C1B 1642   2.827   3.664   8.630  0.2571 -0.1188  0.0199
  106POPC   C2B 1643   2.873   3.286   8.336  0.0203  0.0835  0.1005
  106POPC   C3B 1644   2.910   2.959   7.994  0.1513 -0.2395  0.1725
  106POPC   C4B 1645   2.900   3.155   7.589 -0.0617  0.3408  0.0082
  107POPC   NC3 1646   1.773   6.770   8.912 -0.1164 -0.1168 -0.0735
  107POPC   PO4 1647   2.182   6.691   8.891  0.3172 -0.0348 -0.0898
  107POPC   GL1 1648   2.093   6.759   8.489  0.2235  0.0271 -0.0445
  107POPC   GL2 1649   1.804   6.972   8.504  0.0573 -0.0588  0.2362
  107POPC   C1A 1650   1.968   6.511   8.123  0.1400  0.0932  0.0855
  107POPC   D2A 1651   1.848   6.459   7.769 -0.1113 -0.0114 -0.2295
  107POPC   C3A 1652   2.169   6.607   7.469  0.1741 -0.1511 -0.0090
  107POPC   C4A 1653   2.258   6.425   6.978  0.2308 -0.1165 -0.1295
  107POPC   C1B 1654   1.607   6.879   8.068  0.4013 -0.1027  0.1975
  107POPC   C2B 1655   1.480   6.757   7.677 -0.0458 -0.1652  0.0032
  107POPC   C3B 1656   1.228   6.571   7.206 -0.1463  0.2252  0.3182
  107POPC   C4B 1657   1.318   6.142   7.011 -0.1936 -0.0263  0.0104
  108POPC   NC3 1658   7.803   1.319   8.112  0.0642 -0.2591  0.4221
  108POPC   PO4 1659   8.174   1.516   8.384  0.4394  0.1578  0.1104
  108POPC   GL1 1660   8.221   1.570   7.875  0.1259  0.3171 -0.1653
  108POPC   GL2 1661   8.043   1.325   7.658 -0.2241 -0.2266 -0.1971
  108POPC   C1A 1662   7.947   1.816   7.535 -0.0660  0.3551  0.0347
  108POPC   D2A 1663   7.686   1.890   7.313 -0.1420  0.4046 -0.1006
  108POPC   C3A 1664   7.384   1.590   7.409 -0.1071 -0.1464  0.0876
  108POPC   C4A 1665   7.497   1.197   7.398 -0.1496  0.0111  0.1458
  108POPC   C1B 1666   8.318   1.450   7.389  0.0021 -0.4580  0.2263
  108POPC   C2B 1667   8.379   1.384   6.958 -0.2031  0.1149  0.1696
  108POPC   C3B 1668   8.490   1.357   6.526  0.0801 -0.2352  0.0589
  108POPC   C4B 1669   8.322   1.396   6.098 -0.1640  0.0086 -0.2575
  109POPC   NC3 1670   9.713   0.982   8.570  0.3887  0.0515  0.1276
  109POPC   PO4 1671   9.906   0.744   8.167 -0.0761  0.2052 -0.2354
  109POPC   GL1 1672   9.857   0.816   7.779 -0.4404  0.1608  0.1734
  109POPC   GL2 1673   9.695   0.545   7.656 -0.0574 -0.4153 -0.1287
  109POPC   C1A 1674   9.891   1.066   7.416  0.0249  0.0737 -0.2143
  109POPC   D2A 1675  10.051   1.167   6.968 -0.0264  0.1844 -0.1172
  109POPC   C3A 1676  10.536   1.139   6.751  0.3641 -0.1307  0.4281
  109POPC   C4A 1677  11.024   1.061   6.674  0.2706 -0.1269 -0.2222
  109POPC   C1B 1678   9.434   0.852   7.539 -0.0981  0.1253 -0.1343
  109POPC   C2B 1679   9.100   0.845   7.141  0.0642  0.3151 -0.3035
  109POPC   C3B 1680   9.251   0.809   6.751  0.3727  0.0084  0.1028
  109POPC   C4B 1681   9.248   0.665   6.288  0.2522  0.0329 -0.1159
  110POPC   NC3 1682   2.413   9.453   8.728 -0.0647  0.0356 -0.4185
  110POPC   PO4 1683   2.372   9.590   8.288 -0.1080  0.1976  0.3672
  110POPC   GL1 1684   2.589   9.646   7.880 -0.1411 -0.0694 -0.1134
  110POPC   GL2 1685   2.669   9.290   7.865 -0.1272 -0.0741 -0.0246
  110POPC   C1A 1686   2.746   9.583   7.457  0.0841 -0.0326  0.1668
  110POPC   D2A 1687   2.515   9.438   7.077  0.0165  0.0273 -0.0656
  110POPC   C3A 1688   2.458   9.665   6.821 -0.2818 -0.2154  0.0032
  110POPC   C4A 1689   2.433  10.036   6.919 -0.0605  0.1188  0.2901
  110POPC   C1B 1690   2.636   9.145   7.497  0.1936 -0.0281 -0.2009
  110POPC   C2B 1691   2.734   8.959   7.081 -0.0975 -0.1148 -0.1090
  110POPC   C3B 1692   2.853   8.782   6.698  0.0700  0.2547  0.3003
  110POPC   C4B 1693   2.725   8.731   6.227  0.2605  0.0545 -0.0084
  111POPC   NC3 1694   8.361   2.110   8.208  0.3180 -0.0256 -0.1762
  111POPC   PO4 1695   8.590   1.826   8.080  0.2476  0.0385  0.1958
  111POPC   GL1 1696   8.846   1.774   7.739 -0.1012  0.0121 -0.1282
  111POPC   GL2 1697   8.713   1.479   7.674  0.2803  0.1401  0.0703
  111POPC   C1A 1698   9.189   1.558   7.562  0.2807  0.0951  0.1220
  111POPC   D2A 1699   9.393   1.506   7.093  0.0547 -0.2463  0.0884
  111POPC   C3A 1700   9.517   1.104   7.071  0.2105 -0.1403 -0.5413
  111POPC   C4A 1701   9.713   0.651   6.950 -0.3142 -0.0685 -0.0547
  111POPC   C1B 1702   8.809   1.553   7.202  0.1555  0.0650 -0.1898
  111POPC   C2B 1703   8.933   1.468   6.778 -0.0614 -0.2206 -0.2845
  111POPC   C3B 1704   8.779   1.772   6.474  0.0898  0.2985  0.0675
  111POPC   C4B 1705   8.854   2.002   6.048 -0.2535 -0.1426 -0.0174
  112POPC   NC3 1706   3.370   1.932   9.031  0.0057 -0.2582 -0.0166
  112POPC   PO4 1707   3.262   1.809   8.676  0.2822  0.0134 -0.1405
  112POPC   GL1 1708   3.002   1.930   8.276 -0.0686  0.0195  0.2952
  112POPC   GL2 1709   2.647   2.018   8.218  0.1515  0.2794 -0.3099
  112POPC   C1A 1710   3.061   2.007   7.777  0.3854 -0.1452  0.1444
  112POPC   D2A 1711   3.331   2.261   7.528  0.0683  0.3269  0.0411
  112POPC   C3A 1712   3.236   2.305   7.194  0.0692 -0.2725  0.1382
  112POPC   C4A 1713   2.954   2.690   7.307 -0.2081  0.2389  0.2366
  112POPC   C1B 1714   2.544   1.983   7.820  0.0402 -0.0957  0.0028
  112POPC   C2B 1715   2.635   2.089   7.417 -0.0147 -0.2348 -0.2441
  112POPC   C3B 1716   2.731   2.317   7.039  0.0024 -0.1790  0.2569
  112POPC   C4B 1717   2.903   2.140   6.708  0.0856  0.0683 -0.0742
  113POPC   NC3 1718   3.523   8.355   8.052 -0.1449 -0.3151  0.1808
  113POPC   PO4 1719   3.643   7.916   8.168  0.1230  0.0413 -0.1343
  113POPC   GL1 1720   3.422   7.857   7.849 -0.1094  0.0291  0.0513
  113POPC   GL2 1721   3.325   8.174   7.634  0.1134  0.0009  0.1643
  113POPC   C1A 1722   3.341   7.675   7.478  0.1042  0.0628 -0.0322
  113POPC   D2A 1723   3.072   7.698   7.086 -0.1419  0.4486  0.2976
  113POPC   C3A 1724   3.081   7.965   6.879 -0.1287 -0.0317 -0.1799
  113POPC   C4A 1725   2.995   8.291   6.562 -0.0383  0.0260  0.1093
  113POPC   C1B 1726   3.436   8.173   7.169  0.0673 -0.1212  0.1558
  113POPC   C2B 1727   3.596   7.915   6.917  0.0748 -0.2537 -0.0350
  113POPC   C3B 1728   3.790   7.587   6.824  0.1264 -0.0570 -0.0294
  113POPC   C4B 1729   3.837   7.132   6.867 -0.3261 -0.0900  0.0851
  114POPC   NC3 1730   7.442   5.619   8.338 -0.0892 -0.1884 -0.2764
  114POPC   PO4 1731   7.742   5.286   8.310  0.0619  0.0609 -0.2102
  114POPC   GL1 1732   7.691   5.105   7.909  0.1695 -0.2432  0.2334
  114POPC   GL2 1733   7.791   4.832   7.720  0.1606 -0.4520  0.1085
  114POPC   C1A 1734   7.361   4.956   7.640  0.0539  0.0705  0.1915
  114POPC   D2A 1735   7.184   5.149   7.164  0.0982  0.0037 -0.1842
  114POPC   C3A 1736   6.844   5.097   6.828 -0.1144  0.1499 -0.0723
  114POPC   C4A 1737   6.401   5.000   6.694 -0.0711  0.0243  0.0502
  114POPC   C1B 1738   8.087   4.954   7.430 -0.1486 -0.1848  0.3298
  114POPC   C2B 1739   8.434   5.147   7.391  0.3298  0.1683 -0.0843
  114POPC   C3B 1740   8.527   5.508   7.165 -0.0400 -0.0533 -0.0520
  114POPC   C4B 1741   8.684   5.613   6.734 -0.1923  0.1701 -0.2115
  115POPC   NC3 1742   8.720   3.950   8.005 -0.1683 -0.1305  0.1378
  115POPC   PO4 1743   8.615   4.293   8.159 -0.0941 -0.1960 -0.0048
  115POPC   GL1 1744   8.724   4.560   7.844  0.1241  0.0803 -0.0897
  115POPC   GL2 1745   9.030   4.587   7.859  0.1731 -0.1996  0.0241
  115POPC   C1A 1746   8.548   4.610   7.399  0.0885  0.1703 -0.1159
  115POPC   D2A 1747   8.404   4.793   6.966 -0.5243 -0.2864  0.1252
  115POPC   C3A 1748   8.833   5.030   6.704 -0.1495  0.1535 -0.1555
  115POPC   C4A 1749   9.075   5.156   6.455  0.1882 -0.1333 -0.0891
  115POPC   C1B 1750   9.205   4.652   7.457  0.2080 -0.4873 -0.4117
  115POPC   C2B 1751   9.699   4.698   7.303 -0.1422  0.2211 -0.2415
  115POPC   C3B 1752  10.133   4.767   7.266  0.2600 -0.2238  0.0875
  115POPC   C4B 1753  10.621   5.094   7.144  0.0329 -0.1181 -0.1113
  116POPC   NC3 1754   0.405   8.225   8.544 -0.2380  0.0602  0.0907
  116POPC   PO4 1755   0.269   8.329   8.121 -0.4005 -0.0825 -0.0810
  116POPC   GL1 1756   0.002   8.447   7.742 -0.2033 -0.2986 -0.3826
  116POPC   GL2 1757   0.190   8.693   7.584  0.2398 -0.1728  0.1765
  116POPC   C1A 1758  -0.283   8.631   7.431 -0.2493 -0.0867 -0.1040
  116POPC   D2A 1759  -0.567   8.888   7.157  0.0638 -0.2901  0.1112
  116POPC   C3A 1760  -0.732   9.353   7.203 -0.4939  0.1372 -0.0893
  116POPC   C4A 1761  -0.829   9.619   7.029 -0.0000  0.1895  0.3450
  116POPC   C1B 1762   0.484   9.107   7.201  0.0411 -0.1017 -0.0785
  116POPC   C2B 1763   0.756   9.247   6.801  0.4766  0.0451  0.3436
  116POPC   C3B 1764   0.993   9.581   6.677  0.1014 -0.0910  0.4465
  116POPC   C4B 1765   1.274   9.707   6.999 -0.0632  0.2161 -0.1594
  117POPC   NC3 1766   0.248   7.371   8.728  0.1794 -0.1611 -0.0087
  117POPC   PO4 1767   0.536   7.737   8.600  0.1011  0.0269  0.1054
  117POPC   GL1 1768   0.313   7.597   8.293 -0.1171 -0.0780 -0.1602
  117POPC   GL2 1769   0.098   7.839   7.997  0.1427 -0.2561 -0.1751
  117POPC   C1A 1770   0.539   7.557   7.795 -0.2347  0.1184  0.0391
  117POPC   D2A 1771   0.795   7.272   7.487 -0.2301 -0.3551 -0.0961
  117POPC   C3A 1772   1.037   7.532   7.119 -0.1739 -0.1078 -0.0952
  117POPC   C4A 1773   1.151   7.475   6.745  0.1402  0.1624  0.0651
  117POPC   C1B 1774   0.079   7.851   7.597 -0.0314 -0.0265  0.2487
  117POPC   C2B 1775   0.170   7.559   7.133  0.2359 -0.1956 -0.0093
  117POPC   C3B 1776   0.515   7.252   7.051 -0.1642 -0.1112 -0.1320
  117POPC   C4B 1777   0.610   7.092   6.626  0.0627  0.0675 -0.1952
  118POPC   NC3 1778   6.108   8.327   8.340 -0.1736  0.1996  0.1807
  118POPC   PO4 1779   5.963   7.978   8.333 -0.1485  0.1132  0.3811
  118POPC   GL1 1780   6.032   8.070   7.863 -0.0744  0.0328 -0.2794
  118POPC   GL2 1781   6.297   8.312   7.841 -0.2147 -0.0517  0.1890
  118POPC   C1A 1782   5.658   8.066   7.673 -0.0651 -0.4189  0.2304
  118POPC   D2A 1783   5.461   7.839   7.294 -0.1974  0.0948  0.1212
  118POPC   C3A 1784   5.153   8.042   7.081 -0.0288 -0.0177 -0.1721
  118POPC   C4A 1785   4.786   8.121   6.869  0.1434 -0.2820  0.2562
  118POPC   C1B 1786   6.247   8.505   7.516  0.2904  0.3051 -0.1491
  118POPC   C2B 1787   5.979   8.255   7.316  0.0365  0.2074  0.1697
  118POPC   C3B 1788   5.548   8.355   7.234 -0.2357 -0.1543 -0.1037
  118POPC   C4B 1789   5.312   8.512   6.985 -0.3207  0.1913  0.2883
  119POPC   NC3 1790   8.458   0.283   8.247 -0.1005  0.0064 -0.2312
  119POPC   PO4 1791   8.098   0.591   8.427  0.0058  0.0413  0.0703
  119POPC   GL1 1792   7.989   0.454   8.005  0.2086  0.1851  0.1104
  119POPC   GL2 1793   7.637   0.443   7.992 -0.0145  0.2552 -0.1602
  119POPC   C1A 1794   8.125   0.395   7.663 -0.5845 -0.1283  0.2185
  119POPC   D2A 1795   8.382   0.563   7.228 -0.1827 -0.3406 -0.0747
  119POPC   C3A 1796   8.239   0.670   6.824  0.0271 -0.0554 -0.0581
  119POPC   C4A 1797   8.413   0.811   6.484 -0.1064 -0.2112 -0.0802
  119POPC   C1B 1798   7.627   0.554   7.663  0.4103  0.2517  0.0095
  119POPC   C2B 1799   7.677   0.708   7.287  0.1130 -0.2319  0.3069
  119POPC   C3B 1800   7.751   0.994   6.970  0.1384  0.0549  0.0850
  119POPC   C4B 1801   8.035   1.140   6.649 -0.0907  0.2260 -0.2212
  120POPC   NC3 1802   4.014   1.102   9.046  0.0039 -0.1636  0.1110
  120POPC   PO4 1803   3.818   1.106   8.567 -0.3294 -0.4257 -0.0344
  120POPC   GL1 1804   3.890   1.317   8.203  0.0613  0.2302  0.4385
  120POPC   GL2 1805   4.081   1.175   7.931  0.2538 -0.0779 -0.1194
  120POPC   C1A 1806   3.735   1.608   7.978  0.2444 -0.1374 -0.1325
  120POPC   D2A 1807   3.759   2.010   7.794 -0.2225 -0.3154 -0.0039
  120POPC   C3A 1808   3.680   1.964   7.365  0.0152  0.0794 -0.1929
  120POPC   C4A 1809   3.445   1.875   7.027  0.1307  0.1990  0.1049
  120POPC   C1B 1810   3.879   1.366   7.567 -0.0820 -0.1859 -0.1146
  120POPC   C2B 1811   3.706   1.439   7.157 -0.1022  0.2192  0.2057
  120POPC   C3B 1812   3.441   1.452   6.827 -0.1152  0.2486  0.4525
  120POPC   C4B 1813   3.358   1.778   6.547 -0.0769  0.2838 -0.0676
  121POPC   NC3 1814   0.166   9.215   8.324 -0.0958  0.3044 -0.0727
  121POPC   PO4 1815   0.248   9.702   8.408  0.0996 -0.0422 -0.1618
  121POPC   GL1 1816   0.214   9.518   7.873 -0.3161  0.2697 -0.1721
  121POPC   GL2 1817   0.008   9.712   7.673 -0.2295  0.1095 -0.1891
  121POPC   C1A 1818   0.362   9.588   7.412 -0.1076  0.1254  0.1970
  121POPC   D2A 1819   0.124   9.823   7.100 -0.0593  0.1015  0.2955
  121POPC   C3A 1820   0.109   9.629   6.629 -0.0106 -0.4927  0.2494
  121POPC   C4A 1821   0.021   9.728   6.223 -0.1095 -0.3795 -0.2061
  121POPC   C1B 1822  -0.341   9.614   7.392  0.1556 -0.1866 -0.3746
  121POPC   C2B 1823  -0.265   9.418   6.932 -0.0369 -0.2037  0.1978
  121POPC   C3B 1824  -0.235   9.139   6.817 -0.1772  0.1483 -0.0586
  121POPC   C4B 1825  -0.274   8.806   6.755  0.1270  0.1594  0.0061
  122POPC   NC3 1826   6.642   9.724   8.186  0.1876 -0.2367  0.1579
  122POPC   PO4 1827   6.804  10.178   8.178  0.3666 -0.1449 -0.1472
  122POPC   GL1 1828   6.569  10.216   7.859  0.0823 -0.1358 -0.0533
  122POPC   GL2 1829   6.750  10.218   7.528  0.0011 -0.2312  0.1114
  122POPC   C1A 1830   6.330   9.838   7.500  0.1038  0.1818 -0.6005
  122POPC   D2A 1831   5.962   9.493   7.376  0.0592  0.0778  0.0796
  122POPC   C3A 1832   5.919   9.224   7.102  0.1647  0.0520 -0.0436
  122POPC   C4A 1833   5.746   9.017   6.738 -0.1590  0.0384  0.1329
  122POPC   C1B 1834   6.682  10.545   7.278  0.0398 -0.2274 -0.2057
  122POPC   C2B 1835   6.721  10.871   6.867  0.0661  0.0282 -0.0995
  122POPC   C3B 1836   6.480  10.983   6.430 -0.0029  0.0581  0.1012
  122POPC   C4B 1837   6.152  11.083   6.169  0.0292 -0.0815  0.2736
  123POPC   NC3 1838   4.068   6.951   8.340  0.1586 -0.2196  0.4298
  123POPC   PO4 1839   3.902   7.381   8.208 -0.1159 -0.1364 -0.1416
  123POPC   GL1 1840   3.943   7.300   7.779  0.2640 -0.1099 -0.3699
  123POPC   GL2 1841   3.892   7.589   7.699 -0.2429  0.0864 -0.1128
  123POPC   C1A 1842   3.717   7.372   7.303 -0.4154  0.0374  0.0726
  123POPC   D2A 1843   3.355   7.169   7.107 -0.0847 -0.3452 -0.0510
  123POPC   C3A 1844   3.436   7.115   6.618 -0.0764 -0.1315 -0.0701
  123POPC   C4A 1845   3.713   7.370   6.315  0.1655  0.1875 -0.1669
  123POPC   C1B 1846   3.838   7.857   7.356 -0.1472 -0.1229 -0.1198
  123POPC   C2B 1847   3.881   8.326   6.995  0.0687  0.2885  0.3338
  123POPC   C3B 1848   3.578   8.585   6.853  0.3505  0.0746 -0.1466
  123POPC   C4B 1849   3.267   8.969   6.949  0.3153 -0.0096  0.3649
  124POPC   NC3 1850   1.034   6.549   9.058 -0.0695 -0.2660  0.3129
  124POPC   PO4 1851   1.342   6.917   9.039 -0.0728 -0.0136  0.0270
  124POPC   GL1 1852   1.329   6.671   8.702 -0.0057  0.0258  0.1672
  124POPC   GL2 1853   1.252   6.987   8.453  0.3220  0.0104 -0.2315
  124POPC   C1A 1854   1.450   6.384   8.458 -0.0099 -0.2247  0.0170
  124POPC   D2A 1855   1.570   6.169   8.061  0.2799 -0.3500  0.0888
  124POPC   C3A 1856   1.405   5.850   7.856 -0.0109  0.0667 -0.0019
  124POPC   C4A 1857   1.180   5.509   7.981  0.2034  0.2523  0.1252
  124POPC   C1B 1858   1.077   7.037   8.008 -0.3200 -0.0918  0.1275
  124POPC   C2B 1859   1.027   6.830   7.557 -0.1531 -0.1563  0.0645
  124POPC   C3B 1860   0.933   6.964   7.081 -0.1167 -0.0936 -0.1314
  124POPC   C4B 1861   1.022   6.913   6.662 -0.2310  0.1518  0.1053
  125POPC   NC3 1862   3.469   0.537   8.460 -0.1056 -0.1019  0.2424
  125POPC   PO4 1863   3.330   0.872   8.546  0.1030  0.4255  0.2767
  125POPC   GL1 1864   3.388   1.088   8.143  0.2786  0.1148 -0.1747
  125POPC   GL2 1865   3.182   1.447   8.152 -0.1190 -0.0834 -0.1729
  125POPC   C1A 1866   3.544   0.929   7.822 -0.2683  0.0941  0.0038
  125POPC   D2A 1867   3.741   0.903   7.438  0.1123  0.1649  0.0599
  125POPC   C3A 1868   3.761   0.485   7.116  0.1947  0.0835 -0.2940
  125POPC   C4A 1869   3.319   0.464   6.990 -0.2774  0.0082 -0.0151
  125POPC   C1B 1870   3.323   1.351   7.740 -0.5314  0.1192  0.0674
  125POPC   C2B 1871   3.284   1.235   7.375  0.1553  0.2300  0.1294
  125POPC   C3B 1872   3.461   0.969   7.015  0.1748 -0.0138  0.4688
  125POPC   C4B 1873   3.166   0.870   6.718  0.2635  0.2356 -0.1120
  126POPC   NC3 1874   3.412   7.403   8.012 -0.2156 -0.0695  0.1181
  126POPC   PO4 1875   3.213   7.146   8.271  0.0931 -0.1218 -0.0779
  126POPC   GL1 1876   3.125   7.073   7.828 -0.3802 -0.0425 -0.1080
  126POPC   GL2 1877   2.875   7.253   7.757 -0.0294 -0.1798 -0.2004
  126POPC   C1A 1878   3.074   6.809   7.382  0.0173  0.0024  0.0317
  126POPC   D2A 1879   3.098   6.799   6.889 -0.0903 -0.1971  0.3135
  126POPC   C3A 1880   2.871   6.827   6.584  0.3047 -0.0231 -0.2132
  126POPC   C4A 1881   2.434   6.635   6.537  0.1347  0.0763 -0.2693
  126POPC   C1B 1882   2.902   7.259   7.351  0.1770  0.1154 -0.0743
  126POPC   C2B 1883   2.899   7.230   6.936 -0.2095  0.1605 -0.0992
  126POPC   C3B 1884   2.920   7.349   6.459  0.1762 -0.0708 -0.0028
  126POPC   C4B 1885   2.749   7.571   6.054 -0.2053 -0.1236 -0.0413
  127POPC   NC3 1886   2.850   6.634   9.143  0.2581  0.0992  0.5530
  127POPC   PO4 1887   2.685   6.556   8.667  0.3352 -0.0248 -0.2796
  127POPC   GL1 1888   2.685   6.541   8.239 -0.1831 -0.0166 -0.3294
  127POPC   GL2 1889   2.932   6.696   8.123 -0.1659 -0.2062  0.0203
  127POPC   C1A 1890   2.439   6.410   7.893  0.0165 -0.0176  0.0819
  127POPC   D2A 1891   2.243   6.129   7.693 -0.2148  0.0028  0.4005
  127POPC   C3A 1892   2.006   6.089   7.349 -0.1059  0.0124  0.2187
  127POPC   C4A 1893   2.122   5.767   7.077  0.2491  0.0066 -0.0612
  127POPC   C1B 1894   2.892   6.400   7.757  0.2618 -0.0873  0.1598
  127POPC   C2B 1895   2.633   6.318   7.411 -0.0579 -0.0038 -0.0096
  127POPC   C3B 1896   2.585   5.999   7.237 -0.0183  0.0312  0.0659
  127POPC   C4B 1897   2.604   5.932   6.826  0.1374 -0.3387  0.0604
  128POPC   NC3 1898   2.165   0.199   8.556 -0.1439  0.1407 -0.4320
  128POPC   PO4 1899   1.842   0.409   8.736 -0.1209 -0.0612  0.0090
  128POPC   GL1 1900   1.731   0.611   8.313 -0.2434 -0.2462 -0.4392
  128POPC   GL2 1901   1.758   0.898   8.212 -0.3664  0.1889  0.0933
  128POPC   C1A 1902   1.589   0.410   7.971  0.0017  0.0692 -0.1267
  128POPC   D2A 1903   1.438   0.286   7.547 -0.0417  0.1106  0.0465
  128POPC   C3A 1904   1.550   0.414   7.116 -0.1636  0.2558 -0.0881
  128POPC   C4A 1905   1.288   0.428   6.742 -0.3605 -0.1493 -0.1111
  128POPC   C1B 1906   1.789   0.840   7.786  0.0579 -0.1382  0.0165
  128POPC   C2B 1907   1.986   0.694   7.481  0.0062 -0.1299 -0.0819
  128POPC   C3B 1908   1.919   0.297   7.399  0.2518 -0.1289  0.1587
  128POPC   C4B 1909   2.245  -0.011   7.353  0.0459  0.0391 -0.0691
  129POPC   NC3 1910   9.666   8.694   8.210  0.0247  0.3962 -0.0166
  129POPC   PO4 1911  10.075   8.750   8.468 -0.0221 -0.1019 -0.0508
  129POPC   GL1 1912  10.179   8.932   8.041  0.2165 -0.0477 -0.0062
  129POPC   GL2 1913  10.547   8.859   7.901  0.1573 -0.0131  0.3755
  129POPC   C1A 1914  10.181   9.114   7.713 -0.2409 -0.2321  0.2479
  129POPC   D2A 1915  10.586   9.263   7.588  0.2539  0.2028 -0.1633
  129POPC   C3A 1916  10.563   9.543   7.254  0.1610  0.0026  0.5464
  129POPC   C4A 1917  10.265   9.657   6.970  0.3665  0.2238  0.2634
  129POPC   C1B 1918  10.390   8.617   7.746  0.0533 -0.2966 -0.2865
  129POPC   C2B 1919  10.428   8.689   7.375 -0.1502  0.0565 -0.0089
  129POPC   C3B 1920  10.576   8.804   6.927 -0.2772  0.0998  0.0311
  129POPC   C4B 1921  10.396   8.789   6.580  0.2037 -0.0154 -0.1111
  130POPC   NC3 1922   5.170   2.119   7.779 -0.2444  0.0021  0.1833
  130POPC   PO4 1923   5.519   2.125   8.137 -0.0762 -0.1432 -0.0554
  130POPC   GL1 1924   5.722   2.066   7.668  0.0507 -0.0647 -0.2076
  130POPC   GL2 1925   5.567   2.296   7.586 -0.2811  0.2551  0.0849
  130POPC   C1A 1926   5.886   1.844   7.408 -0.2667  0.0963 -0.3484
  130POPC   D2A 1927   6.019   1.744   7.063 -0.0124  0.0138  0.2294
  130POPC   C3A 1928   5.772   1.621   6.718  0.2506 -0.5473 -0.0225
  130POPC   C4A 1929   5.613   1.402   6.307  0.1378 -0.0011  0.6210
  130POPC   C1B 1930   5.499   2.408   7.187  0.3960  0.0721  0.0171
  130POPC   C2B 1931   5.704   2.626   6.822  0.0318  0.1552 -0.3379
  130POPC   C3B 1932   5.791   2.778   6.348 -0.1729 -0.0089  0.0617
  130POPC   C4B 1933   5.719   2.981   5.946  0.0292  0.0785  0.3905
  131POPC   NC3 1934   3.268   8.512   8.684  0.2463 -0.3080  0.1844
  131POPC   PO4 1935   3.098   8.712   8.251  0.0696  0.1238 -0.0714
  131POPC   GL1 1936   3.039   8.613   7.884 -0.0132 -0.0624  0.0345
  131POPC   GL2 1937   3.057   8.957   7.812  0.2275 -0.4625  0.3688
  131POPC   C1A 1938   2.871   8.592   7.510 -0.1744  0.0976 -0.4244
  131POPC   D2A 1939   2.403   8.270   7.547 -0.2493  0.1403 -0.0028
  131POPC   C3A 1940   2.232   8.184   7.155  0.1479 -0.0818  0.0056
  131POPC   C4A 1941   2.097   7.871   6.969 -0.0736  0.2695 -0.2006
  131POPC   C1B 1942   3.110   9.221   7.378 -0.1729  0.2547 -0.0969
  131POPC   C2B 1943   3.038   9.439   7.080 -0.2556 -0.2315  0.0870
  131POPC   C3B 1944   2.893   9.374   6.768  0.4165 -0.1941 -0.3170
  131POPC   C4B 1945   2.487   9.227   6.613  0.0173  0.0871  0.0552
  132POPC   NC3 1946   2.056   7.329   8.856  0.1968 -0.2838 -0.2347
  132POPC   PO4 1947   2.159   7.403   8.470  0.0207  0.2853 -0.1916
  132POPC   GL1 1948   2.195   7.258   8.132  0.3206  0.1951 -0.1064
  132POPC   GL2 1949   2.337   7.518   7.917  0.3213  0.0836  0.2219
  132POPC   C1A 1950   2.270   6.885   7.971 -0.1669  0.2559 -0.1765
  132POPC   D2A 1951   2.652   6.833   7.618  0.0085 -0.0200 -0.3053
  132POPC   C3A 1952   2.632   6.729   7.135  0.0587  0.4120 -0.1696
  132POPC   C4A 1953   2.724   6.383   6.849  0.1654 -0.0137 -0.2226
  132POPC   C1B 1954   2.394   7.262   7.578 -0.0299 -0.2796 -0.0588
  132POPC   C2B 1955   2.382   7.163   7.252 -0.0462  0.1916  0.0784
  132POPC   C3B 1956   2.233   6.943   6.857 -0.0733 -0.0306 -0.1520
  132POPC   C4B 1957   1.869   6.857   6.696  0.0983 -0.0512  0.0397
  133POPC   NC3 1958   1.782   3.226   9.154 -0.1986 -0.0104  0.0271
  133POPC   PO4 1959   2.064   3.534   8.986 -0.0050  0.4139 -0.1131
  133POPC   GL1 1960   1.890   3.464   8.564 -0.3604 -0.2677  0.0023
  133POPC   GL2 1961   1.962   3.169   8.456  0.1263  0.1260 -0.1427
  133POPC   C1A 1962   1.812   3.606   8.191 -0.0366 -0.0551  0.0835
  133POPC   D2A 1963   1.847   3.615   7.752 -0.0297 -0.1673  0.0221
  133POPC   C3A 1964   1.572   3.279   7.473 -0.3525 -0.1286 -0.1815
  133POPC   C4A 1965   1.255   3.045   7.448  0.0687  0.0543  0.1614
  133POPC   C1B 1966   1.907   2.883   8.149  0.1394  0.0298 -0.2379
  133POPC   C2B 1967   1.880   2.926   7.677 -0.3047  0.0542  0.1710
  133POPC   C3B 1968   1.998   2.803   7.203  0.2669 -0.0819  0.2429
  133POPC   C4B 1969   2.403   2.707   6.950  0.0885  0.3358  0.2861
  134POPC   NC3 1970   6.358   2.890   8.004 -0.0755  0.1433 -0.0358
  134POPC   PO4 1971   6.863   2.734   8.140  0.0328  0.0212  0.0794
  134POPC   GL1 1972   6.823   2.854   7.651  0.0782  0.0265  0.1686
  134POPC   GL2 1973   6.572   2.609   7.675 -0.1928  0.1355  0.0582
  134POPC   C1A 1974   6.829   3.065   7.217 -0.0648  0.2853  0.2501
  134POPC   D2A 1975   6.537   3.156   6.809 -0.0543  0.2106 -0.1662
  134POPC   C3A 1976   6.299   3.526   6.752 -0.1439 -0.0877  0.0925
  134POPC   C4A 1977   6.049   3.812   6.607 -0.0274 -0.0430 -0.1496
  134POPC   C1B 1978   6.786   2.512   7.222  0.0074  0.2498  0.2781
  134POPC   C2B 1979   6.625   2.470   6.842  0.2176 -0.0399 -0.2806
  134POPC   C3B 1980   6.570   2.359   6.430  0.3054 -0.1008 -0.0200
  134POPC   C4B 1981   6.594   2.449   6.007 -0.0442 -0.1559  0.1265
  135POPC   NC3 1982   5.712   3.512   7.736  0.0520  0.1301 -0.1057
  135POPC   PO4 1983   6.032   3.250   7.986  0.0610  0.3523 -0.0182
  135POPC   GL1 1984   6.112   3.222   7.590  0.5443 -0.3121 -0.0147
  135POPC   GL2 1985   6.447   3.229   7.463  0.0383  0.0534  0.2218
  135POPC   C1A 1986   6.060   3.202   7.137 -0.1906  0.0705  0.1136
  135POPC   D2A 1987   6.028   3.046   6.659 -0.2282 -0.2507 -0.0913
  135POPC   C3A 1988   6.323   2.763   6.507 -0.1695  0.1617 -0.0715
  135POPC   C4A 1989   6.790   2.832   6.490  0.1107  0.2960 -0.0801
  135POPC   C1B 1990   6.371   2.795   7.241 -0.2484 -0.0187 -0.1644
  135POPC   C2B 1991   6.169   2.554   6.966 -0.0638 -0.0939 -0.1765
  135POPC   C3B 1992   6.100   2.292   6.616  0.0377  0.2983  0.0996
  135POPC   C4B 1993   6.210   2.138   6.145  0.4386  0.1167 -0.0173
  136POPC   NC3 1994   3.908   0.737   8.271 -0.2121  0.0293 -0.0810
  136POPC   PO4 1995   4.395   0.708   8.239  0.2487 -0.1633 -0.0277
  136POPC   GL1 1996   4.345   0.674   7.783 -0.0701 -0.1313 -0.1626
  136POPC   GL2 1997   4.023   0.654   7.795  0.0479 -0.1718 -0.0556
  136POPC   C1A 1998   4.579   0.819   7.343 -0.3480 -0.0775  0.1227
  136POPC   D2A 1999   4.661   0.897   6.902  0.3522 -0.0023  0.1173
  136POPC   C3A 2000   4.500   1.182   6.637  0.2541  0.1812 -0.2633
  136POPC   C4A 2001   4.192   1.497   6.509 -0.2378  0.0731  0.1294
  136POPC   C1B 2002   4.184   0.555   7.292 -0.0823  0.0544  0.0832
  136POPC   C2B 2003   4.133   0.715   6.902 -0.1915 -0.2053  0.2070
  136POPC   C3B 2004   4.094   0.660   6.447 -0.2662  0.0282  0.0866
  136POPC   C4B 2005   3.878   0.292   6.257 -0.3432 -0.2590  0.1984
  137POPC   NC3 2006   5.639   1.337   7.943  0.1393 -0.0227  0.0921
  137POPC   PO4 2007   5.425   1.657   7.937  0.0620  0.1449 -0.0866
  137POPC   GL1 2008   5.402   1.693   7.554  0.3067  0.1029 -0.4083
  137POPC   GL2 2009   5.403   1.335   7.466  0.0662  0.5165 -0.0722
  137POPC   C1A 2010   5.447   1.882   7.149 -0.0185 -0.0180  0.2080
  137POPC   D2A 2011   5.655   2.103   6.776 -0.4191  0.0927 -0.3491
  137POPC   C3A 2012   5.528   2.371   6.414 -0.0428 -0.2340  0.0464
  137POPC   C4A 2013   5.254   2.179   6.074  0.2087  0.1365 -0.0533
  137POPC   C1B 2014   5.019   1.301   7.174 -0.1353 -0.1219  0.3222
  137POPC   C2B 2015   5.118   1.625   6.799 -0.1160 -0.4804 -0.2796
  137POPC   C3B 2016   5.367   1.773   6.464 -0.1720 -0.2992  0.2777
  137POPC   C4B 2017   5.742   1.906   6.254  0.0689  0.2621 -0.1215
  138POPC   NC3 2018   8.933   3.311   8.885 -0.0258  0.2546  0.0328
  138POPC   PO4 2019   9.202   3.207   8.515  0.1237 -0.0361 -0.2365
  138POPC   GL1 2020   9.315   3.067   8.094  0.2129  0.2680  0.1172
  138POPC   GL2 2021   9.420   3.387   8.037 -0.2137 -0.1753 -0.0530
  138POPC   C1A 2022   9.400   2.955   7.670 -0.0462  0.3623  0.4496
  138POPC   D2A 2023   9.308   2.978   7.177 -0.0659 -0.0231 -0.0197
  138POPC   C3A 2024   9.404   3.341   6.974  0.2253  0.1523  0.2819
  138POPC   C4A 2025   9.426   3.767   7.151  0.0531 -0.0247 -0.1931
  138POPC   C1B 2026   9.765   3.233   7.923 -0.0386  0.1399  0.3503
  138POPC   C2B 2027   9.891   3.024   7.548 -0.1851  0.1766  0.0837
  138POPC   C3B 2028   9.841   2.991   7.120 -0.1003  0.0536 -0.0839
  138POPC   C4B 2029  10.034   2.811   6.815  0.1393  0.0580 -0.1254
  139POPC   NC3 2030   5.760   3.023   8.330  0.2092 -0.1276 -0.6588
  139POPC   PO4 2031   5.453   3.329   8.163 -0.3068  0.4035  0.0685
  139POPC   GL1 2032   5.218   3.376   7.777 -0.0394 -0.1466 -0.0662
  139POPC   GL2 2033   5.045   3.149   7.818  0.0308 -0.1232  0.4927
  139POPC   C1A 2034   5.115   3.465   7.373 -0.2632 -0.3227 -0.0804
  139POPC   D2A 2035   5.220   3.666   6.977  0.1913  0.1492  0.2936
  139POPC   C3A 2036   4.886   3.669   6.640  0.1678  0.2007 -0.0342
  139POPC   C4A 2037   4.798   3.435   6.231  0.0583 -0.1883 -0.0136
  139POPC   C1B 2038   5.304   3.001   7.500  0.1673  0.1411  0.7522
  139POPC   C2B 2039   5.249   2.899   7.040  0.0402 -0.0087 -0.0625
  139POPC   C3B 2040   5.154   2.576   6.866 -0.0930 -0.0589  0.1113
  139POPC   C4B 2041   5.146   2.148   6.868 -0.1271 -0.2573  0.1242
  140POPC   NC3 2042   6.174   0.848   8.380  0.1625  0.0203 -0.0138
  140POPC   PO4 2043   5.887   1.172   8.316  0.0650 -0.2744  0.0651
  140POPC   GL1 2044   6.147   1.155   7.855 -0.0586 -0.1390  0.1651
  140POPC   GL2 2045   5.969   1.268   7.554 -0.0406  0.1528 -0.0840
  140POPC   C1A 2046   6.235   0.783   7.653  0.1002 -0.2971 -0.0834
  140POPC   D2A 2047   6.049   0.723   7.240 -0.2199 -0.0455 -0.1441
  140POPC   C3A 2048   6.139   0.767   6.847  0.2156 -0.1765  0.0026
  140POPC   C4A 2049   6.459   0.764   6.618 -0.1300 -0.0720 -0.0598
  140POPC   C1B 2050   5.793   1.217   7.190  0.3455 -0.0706 -0.4491
  140POPC   C2B 2051   5.474   1.262   6.875  0.0584 -0.2978  0.0891
  140POPC   C3B 2052   5.079   1.227   6.563  0.1736 -0.2646  0.4521
  140POPC   C4B 2053   4.870   1.162   6.222 -0.1832 -0.1775  0.1149
  141POPC   NC3 2054   8.124   5.508   8.613  0.1557 -0.1279  0.2008
  141POPC   PO4 2055   7.939   5.839   8.473 -0.2354 -0.0120  0.0915
  141POPC   GL1 2056   8.025   5.658   8.125  0.0480  0.1874 -0.2457
  141POPC   GL2 2057   7.738   5.617   7.957 -0.3784 -0.0836  0.1589
  141POPC   C1A 2058   8.285   5.905   7.854  0.2393  0.0980 -0.3962
  141POPC   D2A 2059   8.579   5.967   7.487  0.0485 -0.0044  0.2074
  141POPC   C3A 2060   8.369   6.077   7.140  0.2716  0.2915  0.2187
  141POPC   C4A 2061   8.226   5.784   6.790  0.1447 -0.0675 -0.0954
  141POPC   C1B 2062   7.621   5.440   7.590 -0.1130 -0.1142 -0.0893
  141POPC   C2B 2063   7.704   5.235   7.189 -0.0639  0.6225 -0.0652
  141POPC   C3B 2064   7.548   5.396   6.806  0.2791  0.2081  0.1644
  141POPC   C4B 2065   7.639   5.689   6.575 -0.1609 -0.0745 -0.0324
  142POPC   NC3 2066   0.433   3.676   8.846  0.4890  0.0732  0.0486
  142POPC   PO4 2067   0.199   3.789   8.453 -0.0266 -0.2310  0.1125
  142POPC   GL1 2068   0.308   3.704   8.023  0.2669  0.0579  0.0696
  142POPC   GL2 2069   0.029   3.838   7.894 -0.1834 -0.2083  0.0489
  142POPC   C1A 2070   0.424   3.942   7.591  0.2216 -0.0906 -0.0966
  142POPC   D2A 2071   0.653   3.826   7.181 -0.0574  0.0611  0.4503
  142POPC   C3A 2072   0.406   3.606   6.813 -0.3198  0.0197 -0.4950
  142POPC   C4A 2073   0.374   3.265   6.515 -0.0683 -0.0745 -0.2953
  142POPC   C1B 2074  -0.157   4.031   7.526  0.1976 -0.1649  0.0525
  142POPC   C2B 2075  -0.233   4.267   7.159  0.0647  0.2052 -0.3426
  142POPC   C3B 2076  -0.566   4.174   6.865 -0.2045 -0.0395  0.0406
  142POPC   C4B 2077  -0.608   3.758   6.667 -0.1401 -0.0309 -0.2974
  143POPC   NC3 2078   6.105   4.044   8.316 -0.1000  0.2608  0.0848
  143POPC   PO4 2079   5.623   4.005   8.146 -0.1270  0.1199 -0.0159
  143POPC   GL1 2080   5.452   4.027   7.698  0.1847 -0.0108 -0.0126
  143POPC   GL2 2081   5.413   3.849   7.462  0.3347  0.0387  0.2719
  143POPC   C1A 2082   5.656   4.320   7.460 -0.2641 -0.1281 -0.1344
  143POPC   D2A 2083   5.496   4.386   7.025 -0.1824  0.1249 -0.1905
  143POPC   C3A 2084   5.210   4.133   6.908 -0.2025  0.2314  0.1937
  143POPC   C4A 2085   5.147   4.139   6.499 -0.0768 -0.2000 -0.0223
  143POPC   C1B 2086   5.008   3.986   7.375 -0.1815  0.1840  0.0783
  143POPC   C2B 2087   4.700   3.693   7.159 -0.0882 -0.2321 -0.1323
  143POPC   C3B 2088   4.319   3.513   7.370  0.0430  0.0388 -0.0302
  143POPC   C4B 2089   4.070   3.505   7.640  0.1991 -0.5844 -0.1693
  144POPC   NC3 2090   0.063   7.246   4.882  0.2901 -0.2921 -0.0458
  144POPC   PO4 2091   0.291   7.615   4.834 -0.2257 -0.1190  0.0688
  144POPC   GL1 2092   0.822   7.434   4.741 -0.0678  0.1130 -0.0506
  144POPC   GL2 2093   0.901   7.597   4.923 -0.0983  0.3073 -0.1540
  144POPC   C1A 2094   1.132   7.231   4.578  0.5864  0.1676 -0.0013
  144POPC   D2A 2095   1.219   6.824   4.571 -0.0494  0.1961  0.1641
  144POPC   C3A 2096   1.522   6.739   4.689 -0.4122 -0.1195 -0.0461
  144POPC   C4A 2097   1.616   6.545   4.955 -0.3978 -0.2359  0.1915
  144POPC   C1B 2098   1.064   7.390   5.265 -0.0730  0.2648 -0.0697
  144POPC   C2B 2099   1.326   7.249   5.572 -0.2933  0.2855  0.0872
  144POPC   C3B 2100   1.602   6.924   5.862  0.1170 -0.0861  0.0609
  144POPC   C4B 2101   1.967   7.042   6.152 -0.1531  0.1267 -0.1700
  145POPC   NC3 2102   4.079   0.422   4.253  0.0170 -0.2533  0.0841
  145POPC   PO4 2103   3.777   0.756   4.462 -0.0677  0.3020  0.0734
  145POPC   GL1 2104   3.842   0.936   4.906 -0.1005 -0.3102  0.3700
  145POPC   GL2 2105   3.540   1.150   5.076 -0.3882 -0.1329 -0.4242
  145POPC   C1A 2106   4.074   0.977   5.275 -0.2043 -0.1550  0.1505
  145POPC   D2A 2107   4.319   0.821   5.477 -0.3670 -0.0663  0.1532
  145POPC   C3A 2108   4.420   1.002   5.919 -0.2755  0.4116 -0.0529
  145POPC   C4A 2109   4.080   1.086   6.188 -0.3118 -0.3729  0.0779
  145POPC   C1B 2110   3.773   1.469   5.316  0.1578 -0.2275 -0.0126
  145POPC   C2B 2111   4.224   1.510   5.380 -0.2136  0.0244 -0.0354
  145POPC   C3B 2112   4.493   1.300   5.526 -0.2306 -0.0409 -0.2556
  145POPC   C4B 2113   4.779   1.319   5.786  0.0799 -0.4370 -0.4500
  146POPC   NC3 2114   8.038   2.663   3.679  0.2384 -0.0694 -0.0432
  146POPC   PO4 2115   8.132   2.614   4.133  0.0396  0.0481 -0.0191
  146POPC   GL1 2116   8.269   2.571   4.681 -0.1456  0.1581 -0.0076
  146POPC   GL2 2117   8.045   2.489   4.827  0.1765 -0.2945  0.0751
  146POPC   C1A 2118   8.452   2.563   5.163 -0.2276  0.3834 -0.1136
  146POPC   D2A 2119   8.643   2.663   5.650 -0.1503  0.1166 -0.0884
  146POPC   C3A 2120   8.936   2.973   5.778  0.0236  0.0031 -0.0950
  146POPC   C4A 2121   9.330   3.072   5.884  0.0735  0.1038  0.0476
  146POPC   C1B 2122   8.181   2.130   5.045 -0.1857  0.0730 -0.0619
  146POPC   C2B 2123   8.369   1.770   5.286 -0.0524 -0.1569 -0.0090
  146POPC   C3B 2124   8.588   1.668   5.743 -0.1406  0.0315  0.0136
  146POPC   C4B 2125   8.838   1.455   6.061  0.2722  0.1797  0.0612
  147POPC   NC3 2126   1.887   1.142   4.819 -0.1247  0.1053  0.0981
  147POPC   PO4 2127   1.590   1.013   4.509  0.0745  0.2875 -0.1844
  147POPC   GL1 2128   1.467   0.886   4.866  0.0391 -0.1966  0.2480
  147POPC   GL2 2129   1.316   0.701   4.814  0.1707  0.1222 -0.0310
  147POPC   C1A 2130   1.359   1.067   5.160  0.2313  0.0834 -0.1668
  147POPC   D2A 2131   1.316   0.982   5.673  0.2317  0.0989  0.1849
  147POPC   C3A 2132   1.332   0.655   5.934 -0.0509 -0.0801  0.2960
  147POPC   C4A 2133   1.013   0.445   6.128  0.1193  0.0270 -0.1728
  147POPC   C1B 2134   1.006   0.747   5.137  0.0115 -0.5158 -0.2719
  147POPC   C2B 2135   0.912   0.623   5.585  0.0775 -0.0335 -0.1013
  147POPC   C3B 2136   0.777   0.836   5.938  0.0375  0.0557 -0.2082
  147POPC   C4B 2137   1.096   0.985   6.223 -0.1747 -0.1140  0.2931
  148POPC   NC3 2138   6.374   0.567   4.807 -0.0109  0.1004 -0.1147
  148POPC   PO4 2139   6.344   0.166   4.889 -0.0930  0.1053 -0.0792
  148POPC   GL1 2140   6.133   0.029   5.183  0.0189  0.0914 -0.0288
  148POPC   GL2 2141   5.834   0.165   5.077  0.1697 -0.1292 -0.0226
  148POPC   C1A 2142   6.117   0.131   5.559 -0.1926 -0.0331  0.0716
  148POPC   D2A 2143   6.118   0.476   5.746  0.0957 -0.1157  0.4077
  148POPC   C3A 2144   6.007   0.844   5.605 -0.0181  0.2200 -0.1854
  148POPC   C4A 2145   6.054   0.882   5.236 -0.3097 -0.2391 -0.3121
  148POPC   C1B 2146   5.808   0.468   5.286 -0.1265  0.2432 -0.2856
  148POPC   C2B 2147   5.593   0.786   5.405  0.1923 -0.0298 -0.2316
  148POPC   C3B 2148   5.384   0.973   5.028  0.0265  0.2971  0.0391
  148POPC   C4B 2149   5.372   1.424   4.858 -0.1723 -0.3433 -0.1196
  149POPC   NC3 2150   2.973   2.145   3.649  0.0978  0.0471 -0.0942
  149POPC   PO4 2151   2.876   1.810   3.998  0.0389 -0.3882  0.1417
  149POPC   GL1 2152   2.741   2.015   4.457  0.1449  0.0156  0.2195
  149POPC   GL2 2153   2.385   1.947   4.544 -0.1992 -0.1017 -0.1626
  149POPC   C1A 2154   2.976   2.069   4.909  0.0706  0.1036 -0.1358
  149POPC   D2A 2155   3.052   2.175   5.308  0.0281  0.2009  0.0845
  149POPC   C3A 2156   3.146   1.807   5.641  0.0622 -0.2287 -0.1809
  149POPC   C4A 2157   3.107   1.918   6.037 -0.0201  0.1904 -0.0323
  149POPC   C1B 2158   2.483   1.907   5.044 -0.2579  0.2716 -0.0103
  149POPC   C2B 2159   2.434   2.260   5.438  0.0086 -0.0773 -0.2684
  149POPC   C3B 2160   2.714   2.616   5.553  0.3372  0.1235  0.2165
  149POPC   C4B 2161   2.930   3.055   5.421  0.0633 -0.0043 -0.0465
  150POPC   NC3 2162   9.378   5.559   4.275 -0.2672  0.0217  0.0488
  150POPC   PO4 2163   9.212   5.687   4.684 -0.1243  0.1470 -0.1003
  150POPC   GL1 2164   9.498   5.725   5.054  0.2747 -0.1870  0.1540
  150POPC   GL2 2165   9.836   5.859   5.059 -0.3303  0.3706 -0.2455
  150POPC   C1A 2166   9.715   5.537   5.461 -0.0256  0.0046 -0.1931
  150POPC   D2A 2167   9.560   5.346   5.698 -0.0061  0.0059  0.0054
  150POPC   C3A 2168   9.865   5.183   6.201  0.1035 -0.0401  0.1770
  150POPC   C4A 2169   9.613   5.026   6.564  0.0601 -0.2102 -0.0493
  150POPC   C1B 2170  10.023   5.967   5.423 -0.1540  0.2540  0.1270
  150POPC   C2B 2171  10.071   6.183   5.841 -0.3878  0.2048 -0.0458
  150POPC   C3B 2172   9.994   6.514   6.083 -0.0460 -0.4556  0.1013
  150POPC   C4B 2173   9.966   6.784   6.459 -0.1260 -0.0456  0.3643
  151POPC   NC3 2174   8.443   7.303   5.016  0.0472 -0.0769  0.2609
  151POPC   PO4 2175   8.824   7.228   4.853 -0.0088  0.2672 -0.1103
  151POPC   GL1 2176   8.964   7.199   5.224 -0.2311 -0.0799 -0.1928
  151POPC   GL2 2177   9.368   7.214   5.243  0.2285 -0.0629 -0.2579
  151POPC   C1A 2178   8.978   7.354   5.581 -0.0293 -0.0750 -0.0332
  151POPC   D2A 2179   8.864   7.355   6.044  0.4347  0.1333  0.0766
  151POPC   C3A 2180   8.917   7.706   6.342  0.0389 -0.0149 -0.2845
  151POPC   C4A 2181   9.178   7.943   6.644 -0.3470  0.0759  0.2111
  151POPC   C1B 2182   9.551   6.909   5.568 -0.1140 -0.2664  0.1457
  151POPC   C2B 2183   9.674   6.951   6.040  0.3111 -0.0448 -0.2740
  151POPC   C3B 2184  10.034   7.205   6.215 -0.3025 -0.1236 -0.1718
  151POPC   C4B 2185  10.161   7.762   6.131 -0.0603  0.0712 -0.2432
  152POPC   NC3 2186   0.829   4.437   3.743 -0.0606 -0.2468  0.2776
  152POPC   PO4 2187   0.598   4.703   4.170  0.3231  0.0766  0.1346
  152POPC   GL1 2188   0.497   4.440   4.489 -0.1529 -0.1398 -0.2491
  152POPC   GL2 2189   0.342   4.063   4.587 -0.1807  0.6243 -0.3450
  152POPC   C1A 2190   0.646   4.341   4.866  0.0526 -0.0425  0.3980
  152POPC   D2A 2191   0.791   4.649   5.148 -0.1730  0.0379 -0.0627
  152POPC   C3A 2192   0.660   4.558   5.551  0.1233  0.0183 -0.0053
  152POPC   C4A 2193   0.677   4.222   5.914  0.3338  0.1257 -0.0713
  152POPC   C1B 2194   0.329   3.703   4.831  0.3814 -0.0572 -0.1066
  152POPC   C2B 2195   0.278   3.456   5.211 -0.1594  0.0721  0.2335
  152POPC   C3B 2196   0.404   3.352   5.626  0.0341 -0.0124  0.0287
  152POPC   C4B 2197   0.661   3.304   5.937 -0.2053 -0.0745  0.2805
  153POPC   NC3 2198   8.398   3.050   4.363  0.0301  0.1882 -0.2270
  153POPC   PO4 2199   7.958   3.069   4.486  0.0281 -0.2612 -0.2328
  153POPC   GL1 2200   7.720   2.869   4.784 -0.0336 -0.1149 -0.2667
  153POPC   GL2 2201   7.371   2.909   4.919  0.1344 -0.3296 -0.0603
  153POPC   C1A 2202   7.776   2.792   5.197  0.1045  0.2072  0.0019
  153POPC   D2A 2203   7.658   2.875   5.663 -0.2049  0.0404 -0.1145
  153POPC   C3A 2204   7.510   2.918   6.055  0.0876 -0.2257  0.0985
  153POPC   C4A 2205   7.257   3.123   6.255 -0.1424 -0.0959 -0.1858
  153POPC   C1B 2206   7.105   2.816   5.348 -0.1075  0.1160  0.2656
  153POPC   C2B 2207   7.035   2.770   5.802 -0.3165 -0.4815 -0.0273
  153POPC   C3B 2208   6.661   2.963   5.972  0.2584 -0.0853  0.0385
  153POPC   C4B 2209   6.206   3.024   6.076  0.1383 -0.0987 -0.0201
  154POPC   NC3 2210   8.939   3.761   3.864 -0.3345  0.0176  0.0023
  154POPC   PO4 2211   9.408   3.650   3.941 -0.0689 -0.1299 -0.2242
  154POPC   GL1 2212   9.240   3.686   4.457  0.1379  0.0393 -0.0467
  154POPC   GL2 2213   9.284   3.916   4.549  0.0789 -0.0335  0.0907
  154POPC   C1A 2214   9.494   3.506   4.857  0.2141  0.0119  0.1076
  154POPC   D2A 2215   9.591   3.135   5.088 -0.2629 -0.3985 -0.0071
  154POPC   C3A 2216   9.658   3.316   5.538  0.2054  0.1253 -0.0285
  154POPC   C4A 2217   9.669   3.554   5.905  0.1085 -0.0435 -0.0234
  154POPC   C1B 2218   9.543   4.020   4.928  0.2610 -0.4328 -0.2103
  154POPC   C2B 2219   9.517   4.319   5.308 -0.0190  0.0524  0.1163
  154POPC   C3B 2220   9.784   4.385   5.698  0.0189  0.3023  0.1024
  154POPC   C4B 2221   9.977   4.377   6.140  0.2039  0.1451  0.2126
  155POPC   NC3 2222   8.730   5.549   4.738 -0.0584 -0.2992  0.0142
  155POPC   PO4 2223   8.337   5.857   4.830  0.0587  0.2625 -0.1006
  155POPC   GL1 2224   8.577   5.698   5.168 -0.0343 -0.2153  0.1091
  155POPC   GL2 2225   8.972   5.753   5.148 -0.0713  0.0653  0.1153
  155POPC   C1A 2226   8.448   5.765   5.577 -0.1447 -0.0505  0.3253
  155POPC   D2A 2227   8.360   5.746   5.981  0.0112  0.2456  0.1829
  155POPC   C3A 2228   8.854   5.742   6.275 -0.0033 -0.0162  0.0270
  155POPC   C4A 2229   9.188   6.022   6.451  0.0147 -0.2380  0.0630
  155POPC   C1B 2230   9.102   5.413   5.442  0.2887  0.1574  0.3533
  155POPC   C2B 2231   9.106   5.297   5.916  0.3169 -0.1843 -0.0503
  155POPC   C3B 2232   9.382   5.015   6.101 -0.1129 -0.0347  0.0657
  155POPC   C4B 2233   9.595   4.672   6.104 -0.0466 -0.3172  0.0625
  156POPC   NC3 2234   2.968   6.719   2.939 -0.0935 -0.0555 -0.0813
  156POPC   PO4 2235   2.889   6.923   3.391  0.2253  0.0144  0.1029
  156POPC   GL1 2236   2.700   6.572   3.797 -0.1279  0.0847  0.0120
  156POPC   GL2 2237   2.406   6.581   3.969  0.1368 -0.1074  0.1631
  156POPC   C1A 2238   2.735   6.288   4.137 -0.1920 -0.1800  0.4611
  156POPC   D2A 2239   2.714   6.296   4.593 -0.0880  0.0935 -0.0039
  156POPC   C3A 2240   3.066   6.280   4.777  0.0563  0.0066 -0.2872
  156POPC   C4A 2241   3.533   6.079   4.714 -0.0024 -0.0538  0.0930
  156POPC   C1B 2242   2.456   6.698   4.431 -0.1799 -0.2376  0.0370
  156POPC   C2B 2243   2.407   6.529   4.837 -0.2205 -0.1076  0.1180
  156POPC   C3B 2244   2.673   6.353   5.105 -0.1851 -0.0703 -0.0804
  156POPC   C4B 2245   2.492   6.050   5.398  0.3117  0.0453  0.0982
  157POPC   NC3 2246   3.397   7.463   4.073  0.1261 -0.0673 -0.1124
  157POPC   PO4 2247   3.421   7.832   4.457  0.1666 -0.0466  0.3239
  157POPC   GL1 2248   3.653   7.760   4.851 -0.0401 -0.2201  0.0892
  157POPC   GL2 2249   4.034   7.875   4.837  0.0724 -0.2436  0.3110
  157POPC   C1A 2250   3.640   7.660   5.279  0.1642  0.4207 -0.1082
  157POPC   D2A 2251   3.654   7.492   5.735 -0.1641 -0.0031  0.4129
  157POPC   C3A 2252   3.415   7.149   5.932 -0.1676 -0.0542  0.2884
  157POPC   C4A 2253   3.257   6.842   6.249 -0.2648  0.2379  0.2447
  157POPC   C1B 2254   4.115   7.564   5.109  0.1572  0.1719  0.3182
  157POPC   C2B 2255   4.073   7.390   5.486  0.2006  0.1650 -0.0864
  157POPC   C3B 2256   4.104   7.360   5.994  0.1701 -0.0099  0.2986
  157POPC   C4B 2257   4.136   7.612   6.392 -0.3375 -0.0835 -0.0653
  158POPC   NC3 2258   8.216   3.604   4.124 -0.2550  0.3516 -0.1534
  158POPC   PO4 2259   8.693   3.412   4.211  0.2331  0.3343  0.0918
  158POPC   GL1 2260   8.796   3.379   4.642 -0.0343 -0.0130  0.2609
  158POPC   GL2 2261   8.772   3.723   4.796 -0.2217  0.0664 -0.2124
  158POPC   C1A 2262   8.589   3.327   5.008  0.1460 -0.2364  0.1298
  158POPC   D2A 2263   8.493   3.063   5.351 -0.1937 -0.1046  0.0725
  158POPC   C3A 2264   8.169   2.813   5.551  0.0414 -0.1452  0.0473
  158POPC   C4A 2265   8.008   2.387   5.474  0.2028  0.2703 -0.0140
  158POPC   C1B 2266   9.087   3.664   5.017  0.5560  0.1936  0.0823
  158POPC   C2B 2267   9.384   3.772   5.408  0.3492  0.2005  0.1659
  158POPC   C3B 2268   9.415   3.989   5.801  0.0693  0.0077 -0.0448
  158POPC   C4B 2269   9.566   4.163   6.157 -0.0198  0.1223  0.1641
  159POPC   NC3 2270   1.078   6.011   3.861  0.0118 -0.1814 -0.0403
  159POPC   PO4 2271   1.156   6.430   3.825 -0.0736  0.0484  0.0600
  159POPC   GL1 2272   1.065   6.416   4.219 -0.0241 -0.1704 -0.1182
  159POPC   GL2 2273   1.026   6.147   4.427  0.0096  0.1729  0.3732
  159POPC   C1A 2274   1.517   6.220   4.430  0.0263 -0.2141 -0.2706
  159POPC   D2A 2275   1.602   5.938   4.767 -0.2241  0.0018  0.2671
  159POPC   C3A 2276   1.498   6.012   5.188 -0.0415 -0.1800 -0.3641
  159POPC   C4A 2277   1.890   5.920   5.447  0.2984  0.1089  0.1982
  159POPC   C1B 2278   1.182   6.351   4.784  0.0764  0.3563 -0.0713
  159POPC   C2B 2279   1.190   6.381   5.166  0.0057 -0.1343 -0.1286
  159POPC   C3B 2280   1.160   6.329   5.567  0.1305  0.0748 -0.2336
  159POPC   C4B 2281   1.225   6.633   5.980  0.0043  0.3203  0.2864
  160POPC   NC3 2282   3.245   0.806   4.718 -0.0994 -0.3577  0.1212
  160POPC   PO4 2283   2.786   0.902   4.821 -0.0941  0.0606  0.3620
  160POPC   GL1 2284   3.040   1.083   5.085 -0.0544 -0.1160  0.0668
  160POPC   GL2 2285   3.176   0.772   5.206  0.0221  0.1198 -0.1847
  160POPC   C1A 2286   3.213   1.261   5.482 -0.2715 -0.4179 -0.1102
  160POPC   D2A 2287   3.496   1.388   5.802  0.0655 -0.0357  0.0860
  160POPC   C3A 2288   3.604   1.725   5.854  0.0450 -0.3419  0.1218
  160POPC   C4A 2289   3.850   1.952   6.121 -0.1520 -0.4139  0.0466
  160POPC   C1B 2290   3.670   0.657   5.263 -0.0198  0.1097  0.0108
  160POPC   C2B 2291   3.761   0.898   5.640  0.0592  0.0746  0.0448
  160POPC   C3B 2292   3.989   1.241   5.727  0.1548 -0.0425 -0.0609
  160POPC   C4B 2293   3.759   1.468   6.229 -0.1035 -0.0908 -0.0775
  161POPC   NC3 2294   6.666   7.841   4.350 -0.2291 -0.0235  0.0024
  161POPC   PO4 2295   6.392   7.489   4.355 -0.3024 -0.0455  0.1630
  161POPC   GL1 2296   6.376   7.653   4.904  0.3594 -0.0915  0.1819
  161POPC   GL2 2297   6.218   7.472   5.184 -0.0972  0.0690  0.0750
  161POPC   C1A 2298   6.667   7.730   5.304  0.1683  0.1057  0.1548
  161POPC   D2A 2299   6.773   7.610   5.773 -0.0657  0.2563 -0.3976
  161POPC   C3A 2300   6.864   7.264   5.819 -0.3073 -0.1555 -0.0147
  161POPC   C4A 2301   7.151   7.089   5.953 -0.0206 -0.2502 -0.0186
  161POPC   C1B 2302   6.416   7.342   5.473  0.0949  0.0397  0.1059
  161POPC   C2B 2303   6.300   7.446   5.862  0.4721  0.1200  0.1263
  161POPC   C3B 2304   6.327   7.350   6.234 -0.0560  0.0491 -0.3778
  161POPC   C4B 2305   6.408   7.557   6.577 -0.0370  0.0691 -0.0260
  162POPC   NC3 2306   0.762   2.715   3.720 -0.1296  0.2130  0.0752
  162POPC   PO4 2307   0.856   3.148   3.680 -0.1698  0.1044  0.3877
  162POPC   GL1 2308   1.102   3.227   4.084 -0.1903 -0.1755 -0.1825
  162POPC   GL2 2309   1.145   3.478   4.004  0.0331 -0.1924  0.2611
  162POPC   C1A 2310   1.530   3.068   4.138 -0.1130  0.1095  0.0540
  162POPC   D2A 2311   1.957   2.710   4.260  0.2832 -0.0721 -0.0123
  162POPC   C3A 2312   2.210   2.401   4.504 -0.0703 -0.1858  0.1497
  162POPC   C4A 2313   2.500   2.347   4.888 -0.0712 -0.2467 -0.0753
  162POPC   C1B 2314   1.075   3.737   4.407  0.0682  0.4380 -0.1981
  162POPC   C2B 2315   0.969   3.840   4.860 -0.0243  0.2386  0.2380
  162POPC   C3B 2316   0.716   3.925   5.250  0.2065  0.2707 -0.0263
  162POPC   C4B 2317   0.915   3.741   5.634 -0.1553  0.1076  0.1145
  163POPC   NC3 2318   3.707   6.465   3.713  0.1879  0.1280 -0.2185
  163POPC   PO4 2319   3.496   6.513   4.031  0.2344  0.0060 -0.2131
  163POPC   GL1 2320   3.319   6.468   4.423  0.1156  0.3441 -0.2044
  163POPC   GL2 2321   3.073   6.632   4.372  0.1589  0.2824  0.1286
  163POPC   C1A 2322   3.398   6.856   4.718  0.1688 -0.1709 -0.2257
  163POPC   D2A 2323   3.217   7.065   5.099  0.0832 -0.3186 -0.2097
  163POPC   C3A 2324   3.089   7.013   5.560  0.2582 -0.2538 -0.1612
  163POPC   C4A 2325   2.833   7.105   5.940  0.2047  0.0758  0.2482
  163POPC   C1B 2326   2.873   6.717   4.787  0.0488  0.0239 -0.0165
  163POPC   C2B 2327   2.724   6.938   5.208 -0.1627  0.3010  0.2457
  163POPC   C3B 2328   2.627   7.197   5.502  0.0127 -0.0015  0.0957
  163POPC   C4B 2329   2.459   7.392   5.713 -0.1763  0.1156  0.2625
  164POPC   NC3 2330   6.517   2.915   4.530 -0.2111 -0.1527 -0.3113
  164POPC   PO4 2331   6.523   3.357   4.270 -0.2376  0.0437  0.0851
  164POPC   GL1 2332   6.455   3.392   4.724  0.0773  0.0595  0.1171
  164POPC   GL2 2333   6.561   3.379   4.956 -0.0814 -0.1598  0.1484
  164POPC   C1A 2334   6.037   3.305   5.070 -0.1440  0.2295 -0.1574
  164POPC   D2A 2335   5.870   3.024   5.323  0.1847  0.1457  0.1189
  164POPC   C3A 2336   6.078   2.775   5.607 -0.1124  0.1016  0.2630
  164POPC   C4A 2337   5.944   2.523   5.901 -0.0594 -0.0633  0.0892
  164POPC   C1B 2338   6.848   3.691   5.128  0.3004 -0.2067 -0.1525
  164POPC   C2B 2339   7.140   3.762   5.544 -0.2571 -0.1323  0.3084
  164POPC   C3B 2340   7.213   3.848   5.945  0.1442  0.2109  0.0002
  164POPC   C4B 2341   7.152   3.651   6.299  0.0982  0.0808 -0.5657
  165POPC   NC3 2342   7.465   7.966   4.476 -0.1792 -0.2607 -0.1085
  165POPC   PO4 2343   7.464   8.342   4.659 -0.0156 -0.1115 -0.0117
  165POPC   GL1 2344   7.492   8.419   5.085 -0.2165  0.0984  0.1604
  165POPC   GL2 2345   7.758   8.320   5.201  0.0460  0.3043  0.0638
  165POPC   C1A 2346   7.216   8.464   5.424  0.1442 -0.2630  0.0009
  165POPC   D2A 2347   6.836   8.574   5.430 -0.0550  0.0513 -0.0309
  165POPC   C3A 2348   6.561   8.291   5.610 -0.1559 -0.0728  0.1398
  165POPC   C4A 2349   6.342   7.913   5.723  0.0304 -0.2616 -0.0699
  165POPC   C1B 2350   7.683   8.340   5.662  0.0647  0.1090  0.0226
  165POPC   C2B 2351   7.725   8.282   6.081  0.0183 -0.1681 -0.0746
  165POPC   C3B 2352   7.971   8.133   6.327  0.0098 -0.2097 -0.0923
  165POPC   C4B 2353   8.148   8.106   6.770  0.0978  0.1718  0.1889
  166POPC   NC3 2354   0.317   6.938   4.097  0.1046  0.0631  0.0188
  166POPC   PO4 2355  -0.038   6.980   4.458  0.0002 -0.0766 -0.1803
  166POPC   GL1 2356   0.202   6.753   4.788 -0.1435 -0.1144  0.0089
  166POPC   GL2 2357   0.213   6.412   4.853 -0.2643  0.0983 -0.0268
  166POPC   C1A 2358   0.412   6.832   5.138 -0.0299 -0.1445 -0.2264
  166POPC   D2A 2359   0.775   6.976   5.339 -0.0365  0.0530  0.0197
  166POPC   C3A 2360   0.994   6.982   5.767 -0.0604  0.1228  0.0422
  166POPC   C4A 2361   0.783   7.001   6.154  0.1085  0.3369 -0.0507
  166POPC   C1B 2362   0.063   6.410   5.248 -0.2011  0.3893  0.1349
  166POPC   C2B 2363  -0.169   6.415   5.691 -0.4224  0.4027  0.2557
  166POPC   C3B 2364  -0.360   6.595   6.058 -0.0078  0.0427  0.1936
  166POPC   C4B 2365  -0.557   6.797   6.492  0.0188 -0.0929 -0.1186
  167POPC   NC3 2366   4.137   1.334   4.620 -0.1429 -0.2446 -0.2541
  167POPC   PO4 2367   4.225   1.635   4.323  0.0134  0.4341 -0.2174
  167POPC   GL1 2368   4.070   1.900   4.649  0.1824 -0.2025  0.0313
  167POPC   GL2 2369   4.098   2.243   4.716  0.3395  0.0835  0.0810
  167POPC   C1A 2370   3.988   1.913   5.100  0.2088  0.0819  0.1863
  167POPC   D2A 2371   4.006   1.931   5.566 -0.1672 -0.3042  0.0601
  167POPC   C3A 2372   4.194   2.232   5.869  0.2074  0.1482 -0.1244
  167POPC   C4A 2373   3.960   2.574   6.011  0.3434  0.1264 -0.2128
  167POPC   C1B 2374   4.157   2.398   5.151 -0.4138  0.2382  0.1933
  167POPC   C2B 2375   4.175   2.657   5.554  0.0665 -0.0632 -0.0523
  167POPC   C3B 2376   4.433   2.783   5.868  0.1043  0.2241 -0.0284
  167POPC   C4B 2377   4.808   2.834   6.122 -0.2060 -0.3103  0.3779
  168POPC   NC3 2378   2.951   4.575   2.898  0.1373 -0.2566 -0.0656
  168POPC   PO4 2379   3.303   4.208   3.057  0.3462  0.1757 -0.0358
  168POPC   GL1 2380   3.430   3.903   3.433 -0.1471 -0.0688 -0.1323
  168POPC   GL2 2381   3.325   3.586   3.463 -0.1878  0.2623  0.2658
  168POPC   C1A 2382   3.678   4.068   3.783  0.0449 -0.6013  0.1458
  168POPC   D2A 2383   3.933   4.376   3.846  0.2258  0.1087 -0.1832
  168POPC   C3A 2384   4.006   4.495   4.313 -0.1678 -0.1601 -0.5102
  168POPC   C4A 2385   4.268   4.495   4.566  0.1969  0.0601  0.1992
  168POPC   C1B 2386   2.887   3.633   3.699  0.3181  0.1119  0.3803
  168POPC   C2B 2387   2.650   3.705   4.042 -0.1365 -0.2229 -0.0825
  168POPC   C3B 2388   2.456   3.666   4.475  0.1450 -0.3059 -0.3596
  168POPC   C4B 2389   2.349   4.083   4.695  0.1597  0.1315 -0.0026
  169POPC   NC3 2390   2.872   9.424   4.526 -0.0986 -0.0184  0.0701
  169POPC   PO4 2391   2.675   9.252   4.843  0.0713  0.1590  0.0048
  169POPC   GL1 2392   2.673   9.015   5.199  0.0118 -0.3112  0.0825
  169POPC   GL2 2393   2.861   8.925   5.317 -0.0379 -0.2652 -0.0710
  169POPC   C1A 2394   2.410   9.149   5.547  0.1515 -0.0482 -0.1226
  169POPC   D2A 2395   2.502   9.125   5.900 -0.2368  0.2162 -0.1147
  169POPC   C3A 2396   2.831   9.194   6.204  0.1586  0.1703 -0.2720
  169POPC   C4A 2397   3.171   9.124   6.417  0.0164 -0.1946 -0.1053
  169POPC   C1B 2398   2.990   8.937   5.622  0.2956  0.0790  0.1006
  169POPC   C2B 2399   3.319   9.115   5.895  0.0474  0.4008 -0.0716
  169POPC   C3B 2400   3.642   9.117   6.170  0.0843 -0.1554  0.0251
  169POPC   C4B 2401   3.812   8.990   6.528 -0.2281 -0.0540 -0.3626
  170POPC   NC3 2402   6.459   8.556   4.766  0.3264  0.0720 -0.3011
  170POPC   PO4 2403   6.582   8.124   4.804  0.3936  0.2524  0.4393
  170POPC   GL1 2404   6.376   8.328   5.184  0.1709 -0.0024 -0.4296
  170POPC   GL2 2405   6.161   8.603   5.208 -0.0650 -0.3156  0.0073
  170POPC   C1A 2406   6.088   8.381   5.712 -0.2326 -0.3693 -0.1547
  170POPC   D2A 2407   6.307   8.538   6.063  0.2922  0.1820 -0.2407
  170POPC   C3A 2408   6.048   8.660   6.442 -0.0359  0.1925 -0.0514
  170POPC   C4A 2409   5.774   8.356   6.734 -0.0922  0.0930  0.0587
  170POPC   C1B 2410   6.359   8.825   5.491  0.1160 -0.2850 -0.0352
  170POPC   C2B 2411   6.504   9.003   5.782  0.0948  0.1983  0.1105
  170POPC   C3B 2412   6.684   9.158   6.106  0.1513  0.0051 -0.0989
  170POPC   C4B 2413   7.030   9.321   6.407  0.0400 -0.2761 -0.3561
  171POPC   NC3 2414   1.592   9.107   4.720 -0.0306 -0.0003 -0.0164
  171POPC   PO4 2415   1.766   8.633   4.725 -0.3365  0.0516  0.0102
  171POPC   GL1 2416   1.620   8.759   5.067  0.1794  0.2914 -0.0627
  171POPC   GL2 2417   1.235   8.683   5.063  0.0856  0.2858 -0.0668
  171POPC   C1A 2418   1.427   8.840   5.505 -0.0258  0.3867  0.1925
  171POPC   D2A 2419   1.386   8.819   5.878  0.2959 -0.1558  0.1753
  171POPC   C3A 2420   1.693   8.641   6.187 -0.2374 -0.0894  0.0190
  171POPC   C4A 2421   2.011   8.300   6.437  0.1359  0.0002 -0.0222
  171POPC   C1B 2422   1.058   8.470   5.459 -0.0830  0.0772 -0.2929
  171POPC   C2B 2423   0.918   8.189   5.722  0.0395  0.1328  0.3660
  171POPC   C3B 2424   0.919   7.959   6.068  0.0735  0.1711  0.1653
  171POPC   C4B 2425   0.838   7.799   6.490 -0.1317 -0.1956 -0.0750
  172POPC   NC3 2426   7.476   1.332   4.188  0.0344  0.2980  0.0374
  172POPC   PO4 2427   7.168   1.636   4.452  0.1202 -0.0802  0.2236
  172POPC   GL1 2428   7.333   1.820   4.751 -0.1501 -0.0194  0.0220
  172POPC   GL2 2429   7.590   1.865   4.971  0.0022  0.0407  0.0546
  172POPC   C1A 2430   7.071   1.888   5.192 -0.0729 -0.3455  0.0656
  172POPC   D2A 2431   6.996   1.869   5.637  0.2316 -0.0254 -0.0574
  172POPC   C3A 2432   7.113   2.221   5.930 -0.0800 -0.1661 -0.0496
  172POPC   C4A 2433   7.136   2.515   6.182 -0.1590  0.1787  0.1190
  172POPC   C1B 2434   7.508   1.599   5.189 -0.1435  0.6134  0.3650
  172POPC   C2B 2435   7.474   1.379   5.638  0.1039  0.4049 -0.1142
  172POPC   C3B 2436   7.537   1.324   6.070  0.0528 -0.1530  0.1101
  172POPC   C4B 2437   7.837   1.437   6.327  0.2301 -0.2323  0.0251
  173POPC   NC3 2438   5.759   5.828   4.837  0.0169  0.0847  0.2532
  173POPC   PO4 2439   6.128   5.870   4.731  0.2480  0.0242  0.2194
  173POPC   GL1 2440   6.094   5.773   5.233 -0.3357 -0.1327 -0.0193
  173POPC   GL2 2441   6.392   5.803   5.260 -0.1252  0.0168  0.1604
  173POPC   C1A 2442   5.881   5.672   5.538 -0.0065 -0.2860  0.1308
  173POPC   D2A 2443   5.942   5.816   5.931  0.2826 -0.1157  0.0603
  173POPC   C3A 2444   5.755   5.561   6.202  0.1474  0.1266  0.0140
  173POPC   C4A 2445   6.047   5.382   6.482  0.3070  0.1677 -0.4093
  173POPC   C1B 2446   6.301   6.006   5.626 -0.0238  0.2768  0.2261
  173POPC   C2B 2447   6.376   6.059   6.068 -0.3167 -0.1488 -0.3328
  173POPC   C3B 2448   6.396   5.678   6.101 -0.1173  0.0130 -0.1254
  173POPC   C4B 2449   6.580   5.496   6.423 -0.0504 -0.4083 -0.1698
  174POPC   NC3 2450   5.081   2.936   3.505 -0.0499 -0.0795 -0.0621
  174POPC   PO4 2451   4.839   3.357   3.778 -0.3135 -0.0216 -0.0647
  174POPC   GL1 2452   4.658   3.673   4.036  0.0717  0.1033 -0.2131
  174POPC   GL2 2453   4.388   3.876   3.964 -0.2209 -0.2807 -0.1369
  174POPC   C1A 2454   4.325   3.721   4.473 -0.0881  0.1454  0.1564
  174POPC   D2A 2455   3.903   3.698   4.621 -0.1879 -0.2735  0.0409
  174POPC   C3A 2456   3.760   3.737   5.051  0.2749  0.1898 -0.2741
  174POPC   C4A 2457   3.513   3.983   5.305 -0.0682 -0.1462  0.3261
  174POPC   C1B 2458   3.946   4.010   4.266  0.1407 -0.0633  0.0668
  174POPC   C2B 2459   3.811   4.194   4.725  0.0682  0.3349 -0.0222
  174POPC   C3B 2460   3.924   4.479   4.976  0.1548 -0.0644 -0.1452
  174POPC   C4B 2461   3.678   4.788   5.199  0.0682 -0.1482  0.0211
  175POPC   NC3 2462   0.537   6.142   4.127  0.3847  0.1540  0.1401
  175POPC   PO4 2463   0.713   6.656   3.925  0.5546  0.2972 -0.0295
  175POPC   GL1 2464   0.650   6.708   4.490 -0.0796  0.3962  0.1809
  175POPC   GL2 2465   0.701   6.527   4.664  0.0770  0.2002  0.0915
  175POPC   C1A 2466   0.823   6.939   4.862 -0.1254  0.1612 -0.1661
  175POPC   D2A 2467   1.238   6.967   5.045  0.0351 -0.2222 -0.0007
  175POPC   C3A 2468   1.384   6.774   5.435  0.1880  0.0477  0.0149
  175POPC   C4A 2469   1.817   6.637   5.450 -0.2730 -0.1528  0.2101
  175POPC   C1B 2470   0.680   6.393   5.045 -0.1825 -0.2216  0.0504
  175POPC   C2B 2471   0.707   6.479   5.424 -0.2483 -0.1577  0.1460
  175POPC   C3B 2472   0.726   6.520   5.887  0.0886  0.0983 -0.2351
  175POPC   C4B 2473   0.900   6.564   6.346  0.2445  0.0016 -0.0417
  176POPC   NC3 2474   7.086   0.025   4.589 -0.3180 -0.0861  0.0622
  176POPC   PO4 2475   6.698   0.269   4.503  0.0751  0.1038 -0.2299
  176POPC   GL1 2476   6.813   0.304   5.007  0.0508  0.0421  0.0935
  176POPC   GL2 2477   6.829   0.659   5.177 -0.4384  0.1194 -0.2813
  176POPC   C1A 2478   6.759   0.153   5.391 -0.0781  0.3001  0.1227
  176POPC   D2A 2479   6.971  -0.102   5.678  0.3152 -0.2233 -0.0534
  176POPC   C3A 2480   7.379   0.033   5.684  0.1890  0.0009 -0.0558
  176POPC   C4A 2481   7.717  -0.055   5.848  0.0187 -0.1899  0.1819
  176POPC   C1B 2482   6.865   0.543   5.616 -0.1212 -0.1885 -0.1905
  176POPC   C2B 2483   7.009   0.347   6.010 -0.0389  0.1001 -0.1211
  176POPC   C3B 2484   7.248  -0.064   6.143  0.2664  0.2668 -0.1053
  176POPC   C4B 2485   7.501  -0.210   6.358  0.0467 -0.0828 -0.0859
  177POPC   NC3 2486   1.951   3.773   3.516  0.0409  0.0471  0.0666
  177POPC   PO4 2487   2.008   3.388   3.283 -0.2320  0.1962  0.0750
  177POPC   GL1 2488   2.190   3.388   3.714 -0.6018  0.0185  0.2631
  177POPC   GL2 2489   2.374   3.058   3.730 -0.0329 -0.1242  0.2222
  177POPC   C1A 2490   2.191   3.657   4.029  0.2162 -0.2471 -0.1003
  177POPC   D2A 2491   1.997   4.012   4.330  0.3597  0.4044 -0.2385
  177POPC   C3A 2492   1.825   4.431   4.160  0.1816 -0.1010  0.2982
  177POPC   C4A 2493   1.469   4.705   4.223 -0.2661  0.1122 -0.2626
  177POPC   C1B 2494   2.395   2.762   4.109 -0.1527  0.1550 -0.2053
  177POPC   C2B 2495   2.714   2.551   4.427  0.2323  0.2656 -0.0516
  177POPC   C3B 2496   2.972   2.532   4.895 -0.1362 -0.0165  0.0986
  177POPC   C4B 2497   3.292   2.571   5.234 -0.0092 -0.0485  0.1407
  178POPC   NC3 2498   4.160   3.020   3.594 -0.2792 -0.2806  0.1315
  178POPC   PO4 2499   4.204   2.653   3.859  0.0746  0.0501 -0.0903
  178POPC   GL1 2500   4.370   2.923   4.217 -0.2042  0.1773  0.0728
  178POPC   GL2 2501   4.449   3.232   4.112  0.1370  0.0675  0.0273
  178POPC   C1A 2502   4.479   3.115   4.581  0.2512 -0.3120 -0.3590
  178POPC   D2A 2503   4.693   3.132   4.963 -0.0754 -0.5616 -0.2016
  178POPC   C3A 2504   4.500   3.282   5.385  0.0097 -0.1577  0.2664
  178POPC   C4A 2505   4.597   3.433   5.769 -0.2047 -0.0013 -0.0432
  178POPC   C1B 2506   4.040   3.422   4.136  0.1048  0.0917 -0.5567
  178POPC   C2B 2507   3.721   3.630   4.054 -0.2313  0.0169  0.1300
  178POPC   C3B 2508   3.255   3.583   4.056  0.0938  0.0827  0.1389
  178POPC   C4B 2509   2.975   3.515   4.370  0.1218  0.0689  0.0920
  179POPC   NC3 2510   7.655   4.782   4.527 -0.0738 -0.1269  0.2518
  179POPC   PO4 2511   7.643   5.202   4.807 -0.2635 -0.2514  0.0108
  179POPC   GL1 2512   7.776   5.517   5.188 -0.0520  0.0098 -0.2570
  179POPC   GL2 2513   7.857   5.864   5.049 -0.1746  0.0247  0.1841
  179POPC   C1A 2514   7.917   5.624   5.622 -0.0555  0.0105  0.2267
  179POPC   D2A 2515   7.876   5.683   6.111  0.1307 -0.2879  0.2031
  179POPC   C3A 2516   8.043   5.385   6.345 -0.1690  0.0038  0.1186
  179POPC   C4A 2517   8.167   5.173   6.708 -0.2056  0.0556 -0.1764
  179POPC   C1B 2518   8.081   6.062   5.398  0.3617 -0.2045  0.1440
  179POPC   C2B 2519   8.072   6.119   5.850  0.0126 -0.2084  0.1421
  179POPC   C3B 2520   8.188   6.091   6.245 -0.0420 -0.0153 -0.0193
  179POPC   C4B 2521   8.583   6.121   6.571 -0.0523  0.1224 -0.1153
  180POPC   NC3 2522   3.516   5.352   3.349  0.3735 -0.0077  0.3743
  180POPC   PO4 2523   3.773   5.534   3.664 -0.1022  0.0505 -0.0785
  180POPC   GL1 2524   3.569   5.297   4.047 -0.0731 -0.1427  0.1044
  180POPC   GL2 2525   3.466   5.602   4.294 -0.1223 -0.0849 -0.0459
  180POPC   C1A 2526   3.036   5.315   4.155 -0.0863 -0.1154  0.1874
  180POPC   D2A 2527   2.788   5.031   4.380  0.0114 -0.4516  0.1133
  180POPC   C3A 2528   3.038   4.744   4.714 -0.1069 -0.2123 -0.2592
  180POPC   C4A 2529   3.156   4.657   5.135  0.1018  0.0708 -0.1146
  180POPC   C1B 2530   3.706   5.361   4.608 -0.1823  0.0253  0.0250
  180POPC   C2B 2531   3.741   5.354   5.051  0.2011 -0.2218 -0.0795
  180POPC   C3B 2532   3.645   5.534   5.521 -0.3224 -0.1102 -0.1129
  180POPC   C4B 2533   3.447   5.787   5.777  0.0969 -0.1378  0.1464
  181POPC   NC3 2534   3.967   9.264   4.323 -0.1584  0.1196 -0.0846
  181POPC   PO4 2535   4.182   9.466   4.675 -0.1330 -0.2518  0.2401
  181POPC   GL1 2536   4.365   9.550   5.085  0.0531 -0.0319  0.0447
  181POPC   GL2 2537   4.592   9.444   5.362  0.3200 -0.2428 -0.3130
  181POPC   C1A 2538   4.101   9.445   5.531 -0.0282 -0.0096  0.0645
  181POPC   D2A 2539   3.998   9.053   5.607 -0.1061 -0.1133  0.0184
  181POPC   C3A 2540   4.146   8.888   6.036  0.1581  0.0065  0.1202
  181POPC   C4A 2541   4.262   8.643   6.407 -0.1200  0.1310  0.1182
  181POPC   C1B 2542   4.456   9.190   5.791 -0.0254  0.0368 -0.0980
  181POPC   C2B 2543   4.614   8.990   6.111  0.1307  0.1923 -0.0216
  181POPC   C3B 2544   4.826   9.068   6.522  0.0305 -0.1067  0.1430
  181POPC   C4B 2545   4.887   9.293   6.871 -0.2029  0.0366 -0.0312
  182POPC   NC3 2546   0.509   9.426   4.430 -0.0778 -0.1570  0.3113
  182POPC   PO4 2547   0.580   9.838   4.650  0.2871  0.0737  0.0894
  182POPC   GL1 2548   0.548   9.824   5.072 -0.0043 -0.0271  0.2019
  182POPC   GL2 2549   0.540  10.074   5.215 -0.0032 -0.0109 -0.0364
  182POPC   C1A 2550   0.573   9.518   5.377 -0.0048  0.1894  0.3816
  182POPC   D2A 2551   0.576   9.301   5.765 -0.1708 -0.1670  0.2347
  182POPC   C3A 2552   0.447   9.626   6.018 -0.1118 -0.1163 -0.1818
  182POPC   C4A 2553   0.561   9.798   6.402 -0.0535 -0.1288 -0.0465
  182POPC   C1B 2554   0.598   9.997   5.639  0.0171  0.3247 -0.3017
  182POPC   C2B 2555   0.477  10.122   6.020  0.3218 -0.0044 -0.0755
  182POPC   C3B 2556   0.603  10.387   6.440  0.1927  0.0425 -0.3066
  182POPC   C4B 2557   0.841  10.275   6.731 -0.4349  0.1413 -0.0982
  183POPC   NC3 2558   9.257   9.031   4.359 -0.2399 -0.0432  0.0038
  183POPC   PO4 2559   9.665   8.852   4.496  0.1561  0.0953 -0.1033
  183POPC   GL1 2560   9.750   8.723   4.989 -0.2369 -0.2646 -0.1067
  183POPC   GL2 2561   9.868   8.491   5.133  0.0322  0.1532  0.0462
  183POPC   C1A 2562   9.688   8.931   5.435  0.2481  0.0935  0.0552
  183POPC   D2A 2563   9.639   8.882   5.891  0.1654 -0.1823  0.3383
  183POPC   C3A 2564   9.505   8.460   6.098 -0.0453 -0.1544  0.3882
  183POPC   C4A 2565   9.539   8.083   6.263  0.0433 -0.1635  0.0433
  183POPC   C1B 2566   9.800   8.458   5.608 -0.1670 -0.2330  0.2168
  183POPC   C2B 2567   9.596   8.065   5.754  0.0878  0.1467 -0.0355
  183POPC   C3B 2568   9.288   7.686   5.964 -0.0257 -0.2609 -0.1539
  183POPC   C4B 2569   9.302   7.286   6.263  0.0273  0.0227  0.0951
  184POPC   NC3 2570   3.690   9.578   4.824  0.3992 -0.0061 -0.3018
  184POPC   PO4 2571   3.191   9.563   4.896 -0.2711  0.2218  0.2444
  184POPC   GL1 2572   2.991   9.538   5.160  0.3404  0.0356  0.2454
  184POPC   GL2 2573   2.676   9.638   5.154  0.1641  0.0812 -0.0563
  184POPC   C1A 2574   2.881   9.428   5.573 -0.1226 -0.0055 -0.1166
  184POPC   D2A 2575   2.999   9.687   5.930  0.0522 -0.0242  0.2879
  184POPC   C3A 2576   2.950   9.660   6.306  0.0493 -0.0785 -0.4173
  184POPC   C4A 2577   2.958   9.881   6.725 -0.0880  0.4414  0.0816
  184POPC   C1B 2578   2.482   9.650   5.670  0.4013  0.0108  0.0233
  184POPC   C2B 2579   2.466   9.606   6.071 -0.0146  0.0491  0.1366
  184POPC   C3B 2580   2.556   9.947   6.429  0.0793  0.1545 -0.0483
  184POPC   C4B 2581   2.736  10.313   6.554 -0.3290 -0.0118  0.3021
  185POPC   NC3 2582   5.084   1.811   4.023  0.1214 -0.2199 -0.1663
  185POPC   PO4 2583   4.722   1.904   4.294  0.2479 -0.0106  0.1968
  185POPC   GL1 2584   4.526   2.001   4.635 -0.2804  0.0313  0.0227
  185POPC   GL2 2585   4.840   2.200   4.718  0.2245  0.0713 -0.1208
  185POPC   C1A 2586   4.451   1.982   5.013  0.2789  0.2472 -0.0389
  185POPC   D2A 2587   4.447   2.039   5.410 -0.1517  0.3478 -0.2493
  185POPC   C3A 2588   4.446   1.841   5.787 -0.0426  0.1872  0.3806
  185POPC   C4A 2589   4.276   1.565   6.029  0.0248 -0.1802  0.1555
  185POPC   C1B 2590   4.844   2.188   5.250  0.0056  0.2037  0.0494
  185POPC   C2B 2591   4.914   2.061   5.654  0.0209  0.0319  0.3736
  185POPC   C3B 2592   4.700   2.240   5.994 -0.0978 -0.1177  0.1020
  185POPC   C4B 2593   4.458   2.469   6.226  0.1458  0.1326 -0.1601
  186POPC   NC3 2594   2.975   7.612   4.404 -0.4249  0.0194 -0.3419
  186POPC   PO4 2595   2.977   7.200   4.214 -0.1263 -0.1075  0.2180
  186POPC   GL1 2596   2.697   7.237   4.585  0.1691  0.1632 -0.0720
  186POPC   GL2 2597   2.741   7.404   4.934 -0.1056  0.1764 -0.0575
  186POPC   C1A 2598   2.428   7.024   4.811 -0.1986  0.1087 -0.1135
  186POPC   D2A 2599   2.248   7.030   5.221  0.4709  0.0538  0.1642
  186POPC   C3A 2600   2.307   6.671   5.405  0.1590 -0.0075 -0.1171
  186POPC   C4A 2601   2.306   6.400   5.707 -0.0558 -0.0547  0.0521
  186POPC   C1B 2602   2.660   7.656   5.313 -0.1865 -0.1603  0.0908
  186POPC   C2B 2603   2.719   7.986   5.543 -0.5077 -0.0707 -0.1852
  186POPC   C3B 2604   2.927   8.017   6.009  0.0203  0.4947 -0.0531
  186POPC   C4B 2605   2.865   7.854   6.409 -0.0464  0.2512  0.0884
  187POPC   NC3 2606   7.711   0.464   4.645  0.2576  0.1739 -0.0595
  187POPC   PO4 2607   8.145   0.280   4.583 -0.2130 -0.2230  0.0217
  187POPC   GL1 2608   8.088   0.289   5.108 -0.0870  0.0528  0.0437
  187POPC   GL2 2609   7.736   0.290   5.123  0.2049 -0.0741 -0.0268
  187POPC   C1A 2610   8.286   0.415   5.567  0.0235  0.0765 -0.1857
  187POPC   D2A 2611   8.290   0.503   5.923  0.0314 -0.2627 -0.1650
  187POPC   C3A 2612   7.956   0.437   6.049  0.0052 -0.0327 -0.0170
  187POPC   C4A 2613   7.583   0.344   6.358  0.2061 -0.1548  0.0487
  187POPC   C1B 2614   7.748   0.392   5.505 -0.1564 -0.3248 -0.1228
  187POPC   C2B 2615   7.525   0.511   5.883  0.0314 -0.0262 -0.4036
  187POPC   C3B 2616   7.352   0.773   6.214 -0.1092 -0.0927 -0.3776
  187POPC   C4B 2617   7.498   1.115   6.494 -0.1484  0.0471  0.0940
  188POPC   NC3 2618   5.684   2.505   4.189 -0.1698 -0.2183 -0.2125
  188POPC   PO4 2619   5.817   2.813   3.951 -0.1557 -0.0790 -0.0047
  188POPC   GL1 2620   5.791   3.071   4.345 -0.2023  0.0785  0.1217
  188POPC   GL2 2621   6.069   3.122   4.557  0.0085 -0.0276 -0.0286
  188POPC   C1A 2622   5.591   3.088   4.781  0.0664  0.1719  0.0386
  188POPC   D2A 2623   5.354   3.041   5.186  0.0761 -0.2032 -0.2218
  188POPC   C3A 2624   5.445   2.852   5.573  0.1097 -0.1553 -0.0704
  188POPC   C4A 2625   5.327   2.665   5.952 -0.3697  0.1500 -0.1674
  188POPC   C1B 2626   5.983   2.829   4.916  0.0161  0.0898 -0.0948
  188POPC   C2B 2627   5.646   2.593   5.205  0.0789  0.2971  0.2192
  188POPC   C3B 2628   5.272   2.372   5.465 -0.2525 -0.0281  0.3416
  188POPC   C4B 2629   4.908   2.563   5.590  0.0957 -0.0613 -0.0355
  189POPC   NC3 2630   0.391   8.537   4.693 -0.4819  0.0952  0.4219
  189POPC   PO4 2631   0.360   9.068   4.754  0.0312 -0.3468  0.0546
  189POPC   GL1 2632   0.406   8.938   5.165  0.1886  0.1407  0.0862
  189POPC   GL2 2633   0.196   9.287   5.230 -0.1125 -0.2647 -0.0551
  189POPC   C1A 2634   0.427   8.874   5.610  0.1346  0.1522 -0.0084
  189POPC   D2A 2635   0.367   8.714   6.052  0.1305  0.0485  0.2305
  189POPC   C3A 2636   0.126   8.796   6.409  0.1070  0.1075 -0.0059
  189POPC   C4A 2637  -0.017   8.470   6.584  0.1707 -0.2463 -0.0748
  189POPC   C1B 2638   0.111   9.277   5.686 -0.0680  0.3764  0.1736
  189POPC   C2B 2639   0.195   9.213   6.111 -0.0500  0.0329  0.1235
  189POPC   C3B 2640   0.428   9.172   6.382 -0.1782 -0.2314  0.2902
  189POPC   C4B 2641   0.225   9.137   6.751 -0.1329 -0.1052  0.0392
  190POPC   NC3 2642   6.296   4.666   4.750 -0.2080  0.3298  0.2847
  190POPC   PO4 2643   6.337   5.061   4.683  0.2157 -0.0189  0.0902
  190POPC   GL1 2644   6.373   5.002   5.125  0.0121 -0.1557 -0.0329
  190POPC   GL2 2645   6.440   5.299   5.132 -0.3803 -0.0027  0.2384
  190POPC   C1A 2646   6.109   4.942   5.494  0.1339 -0.0404 -0.3907
  190POPC   D2A 2647   5.966   4.714   5.785 -0.3681  0.2084  0.1764
  190POPC   C3A 2648   5.694   4.363   5.665 -0.2214 -0.1064  0.0688
  190POPC   C4A 2649   5.348   4.112   5.919  0.4155 -0.4231  0.2470
  190POPC   C1B 2650   6.658   5.081   5.462 -0.0713 -0.1888  0.0694
  190POPC   C2B 2651   6.406   5.024   5.836 -0.2139  0.1193 -0.3566
  190POPC   C3B 2652   6.203   4.977   6.172 -0.1335 -0.1043  0.1248
  190POPC   C4B 2653   6.077   4.651   6.361 -0.1907 -0.0412  0.1825
  191POPC   NC3 2654   0.513   5.239   4.016  0.0486 -0.0066  0.2631
  191POPC   PO4 2655   0.365   5.679   4.186 -0.0931  0.0675 -0.0432
  191POPC   GL1 2656   0.824   5.686   4.369  0.2196 -0.0064  0.0007
  191POPC   GL2 2657   1.051   5.612   4.099 -0.1011  0.2735  0.1027
  191POPC   C1A 2658   1.027   5.790   4.798  0.0604 -0.2941 -0.1898
  191POPC   D2A 2659   0.728   5.606   5.019  0.5602  0.3344 -0.0607
  191POPC   C3A 2660   0.691   5.532   5.432 -0.1475  0.0189 -0.1032
  191POPC   C4A 2661   0.604   5.107   5.645  0.0408  0.0152  0.1513
  191POPC   C1B 2662   1.376   5.628   4.441  0.1372 -0.0848  0.0228
  191POPC   C2B 2663   1.770   5.331   4.559 -0.0865 -0.2242  0.0374
  191POPC   C3B 2664   1.824   5.080   5.014 -0.1421  0.1052 -0.1520
  191POPC   C4B 2665   1.554   4.969   5.226  0.0573 -0.0366 -0.1335
  192POPC   NC3 2666   0.863   9.435   4.813 -0.2969  0.0115  0.1864
  192POPC   PO4 2667   1.314   9.487   4.819  0.1110 -0.0014  0.0371
  192POPC   GL1 2668   1.526   9.319   5.169  0.0856  0.5658  0.1082
  192POPC   GL2 2669   1.112   9.179   5.181  0.1881 -0.0997 -0.0772
  192POPC   C1A 2670   1.798   9.132   5.409  0.0078 -0.1552 -0.2916
  192POPC   D2A 2671   1.861   8.969   5.817 -0.0447  0.0836 -0.1131
  192POPC   C3A 2672   2.108   9.231   6.147  0.1012 -0.2674  0.1191
  192POPC   C4A 2673   2.107   9.543   6.469 -0.1512 -0.0525 -0.0404
  192POPC   C1B 2674   0.882   8.929   5.376 -0.0612 -0.1874 -0.2087
  192POPC   C2B 2675   0.791   8.731   5.823 -0.1326  0.0004  0.1983
  192POPC   C3B 2676   0.855   8.557   6.155 -0.1558 -0.0872 -0.0827
  192POPC   C4B 2677   0.899   8.285   6.498  0.2178 -0.1005 -0.1702
  193POPC   NC3 2678   9.342   2.041   4.183 -0.0275 -0.1164 -0.0072
  193POPC   PO4 2679   9.850   2.082   4.305  0.0021 -0.0423 -0.0642
  193POPC   GL1 2680  10.031   2.228   4.748  0.0605 -0.0232 -0.0786
  193POPC   GL2 2681  10.342   2.275   4.853  0.0733 -0.1836  0.2379
  193POPC   C1A 2682  10.031   2.475   5.168  0.0869 -0.0386 -0.0518
  193POPC   D2A 2683   9.898   2.356   5.628 -0.4258  0.4388  0.0337
  193POPC   C3A 2684  10.152   2.006   5.851 -0.1431 -0.4282  0.3547
  193POPC   C4A 2685  10.210   1.793   6.255 -0.2404 -0.1772  0.0247
  193POPC   C1B 2686  10.710   2.173   4.976  0.4204 -0.1648 -0.2126
  193POPC   C2B 2687  10.980   2.150   5.307  0.0102  0.0531  0.3039
  193POPC   C3B 2688  11.128   2.019   5.702  0.0464  0.1467 -0.0862
  193POPC   C4B 2689  11.367   2.083   6.085 -0.2500  0.2430 -0.0697
  194POPC   NC3 2690   9.358   4.681   4.038  0.4343 -0.1705 -0.0601
  194POPC   PO4 2691   9.335   4.866   4.368  0.1988  0.0038 -0.0263
  194POPC   GL1 2692   9.444   4.749   4.611 -0.3580  0.0530 -0.2492
  194POPC   GL2 2693   9.296   4.506   4.859 -0.1971 -0.1658  0.3081
  194POPC   C1A 2694   9.510   4.889   4.995 -0.1453  0.1997 -0.0618
  194POPC   D2A 2695   9.422   5.029   5.343 -0.0443 -0.2346 -0.1783
  194POPC   C3A 2696   9.391   4.704   5.629  0.1937  0.2013  0.0337
  194POPC   C4A 2697   9.136   4.441   5.791 -0.1473 -0.1978 -0.2685
  194POPC   C1B 2698   9.058   4.595   5.279 -0.0099 -0.0157  0.5658
  194POPC   C2B 2699   8.951   4.871   5.562 -0.0717 -0.1047  0.1579
  194POPC   C3B 2700   8.635   5.267   5.594  0.0742 -0.1071  0.2171
  194POPC   C4B 2701   8.224   5.227   5.374  0.0628 -0.0940 -0.0229
  195POPC   NC3 2702   6.714   1.512   4.265  0.0025 -0.0233  0.0342
  195POPC   PO4 2703   6.809   1.182   4.422  0.1728 -0.2690  0.0427
  195POPC   GL1 2704   6.909   1.195   4.907 -0.0440 -0.1989 -0.0079
  195POPC   GL2 2705   6.691   1.111   5.028 -0.1817 -0.0297 -0.2513
  195POPC   C1A 2706   6.728   1.576   5.121  0.2600  0.1365 -0.1356
  195POPC   D2A 2707   6.539   1.622   5.476  0.3553 -0.1079  0.0562
  195POPC   C3A 2708   6.131   1.319   5.596 -0.0786 -0.1791  0.0634
  195POPC   C4A 2709   5.693   1.213   5.743 -0.2020  0.0313 -0.0051
  195POPC   C1B 2710   6.560   1.010   5.536 -0.0349 -0.0942 -0.1109
  195POPC   C2B 2711   6.321   0.901   6.026 -0.2517  0.0134  0.3553
  195POPC   C3B 2712   6.024   0.795   6.309  0.0433 -0.0650  0.0097
  195POPC   C4B 2713   5.801   0.368   6.414 -0.2848 -0.1576 -0.1604
  196POPC   NC3 2714   6.080   9.456   4.734 -0.2412 -0.1530  0.2537
  196POPC   PO4 2715   5.616   9.350   4.577 -0.0157 -0.1799  0.1769
  196POPC   GL1 2716   5.657   9.331   4.981  0.1144 -0.3643 -0.1871
  196POPC   GL2 2717   5.928   9.189   5.211  0.2125  0.0145  0.0180
  196POPC   C1A 2718   5.699   9.526   5.427  0.1538 -0.2693 -0.4534
  196POPC   D2A 2719   5.586   9.427   5.810 -0.2372  0.0195 -0.0462
  196POPC   C3A 2720   5.972   9.460   5.939  0.0777 -0.0796 -0.2794
  196POPC   C4A 2721   6.233   9.689   6.186  0.0865 -0.2826  0.2678
  196POPC   C1B 2722   5.917   9.024   5.686  0.0934  0.0795 -0.0614
  196POPC   C2B 2723   6.084   8.956   6.054  0.2244  0.1391  0.1228
  196POPC   C3B 2724   6.205   9.151   6.384 -0.1016  0.1027  0.2018
  196POPC   C4B 2725   6.501   9.365   6.524  0.1224 -0.1815  0.1216
  197POPC   NC3 2726   9.577   8.371   4.456 -0.1577 -0.0640 -0.2259
  197POPC   PO4 2727   9.180   8.549   4.452  0.0532 -0.2906  0.4421
  197POPC   GL1 2728   9.300   8.561   4.934 -0.1575 -0.1832  0.0865
  197POPC   GL2 2729   9.186   8.833   5.060 -0.1750 -0.0691  0.0406
  197POPC   C1A 2730   9.416   8.289   5.281  0.0384  0.0415 -0.0060
  197POPC   D2A 2731   9.788   7.986   5.322 -0.1818 -0.2851  0.0889
  197POPC   C3A 2732  10.040   7.763   5.653 -0.2108  0.3286 -0.2270
  197POPC   C4A 2733  10.411   7.581   5.773  0.4384  0.2448 -0.1995
  197POPC   C1B 2734   9.253   8.687   5.572  0.1209 -0.2347  0.2725
  197POPC   C2B 2735   9.123   8.830   5.969  0.5490 -0.3263 -0.0257
  197POPC   C3B 2736   9.188   8.805   6.345 -0.0240  0.0040  0.1550
  197POPC   C4B 2737   8.962   8.662   6.769 -0.2458  0.0226  0.1468
  198POPC   NC3 2738   6.345   2.677   3.733  0.2040  0.2265  0.2018
  198POPC   PO4 2739   6.219   2.603   4.198 -0.1414 -0.0237 -0.0529
  198POPC   GL1 2740   6.177   2.492   4.600  0.1968  0.1325 -0.1685
  198POPC   GL2 2741   6.428   2.538   4.858  0.2485  0.3049  0.1298
  198POPC   C1A 2742   6.014   2.044   4.823 -0.0530 -0.2812 -0.1147
  198POPC   D2A 2743   5.858   1.770   5.072  0.2389  0.3222 -0.1035
  198POPC   C3A 2744   5.906   1.754   5.429 -0.1387 -0.0624 -0.0202
  198POPC   C4A 2745   5.961   1.698   5.857 -0.0449  0.0111  0.1538
  198POPC   C1B 2746   6.221   2.366   5.266  0.2197  0.0624  0.1639
  198POPC   C2B 2747   5.818   2.220   5.512  0.3100 -0.1394 -0.3139
  198POPC   C3B 2748   5.490   1.909   5.632 -0.1174  0.0452 -0.0135
  198POPC   C4B 2749   5.311   1.637   5.949 -0.0807  0.0813 -0.3358
  199POPC   NC3 2750   1.698   8.292   4.395 -0.0140 -0.2197  0.0431
  199POPC   PO4 2751   1.273   8.244   4.308  0.0093  0.1170 -0.3328
  199POPC   GL1 2752   1.410   8.224   4.835  0.0137 -0.2648  0.2727
  199POPC   GL2 2753   1.109   8.084   4.993  0.0634 -0.2701  0.0107
  199POPC   C1A 2754   1.438   8.231   5.293 -0.0382  0.1141 -0.0028
  199POPC   D2A 2755   1.464   8.332   5.812  0.0335  0.0731  0.1686
  199POPC   C3A 2756   1.801   7.972   6.036 -0.0986  0.3338 -0.1775
  199POPC   C4A 2757   2.126   7.610   6.001  0.0059  0.0521 -0.0736
  199POPC   C1B 2758   1.110   7.837   5.387  0.0928  0.1098 -0.1547
  199POPC   C2B 2759   1.126   7.679   5.690 -0.0968  0.1630  0.1042
  199POPC   C3B 2760   1.107   7.389   5.999  0.1314 -0.3486  0.0400
  199POPC   C4B 2761   1.209   7.179   6.341 -0.4438 -0.0973  0.0053
  200POPC   NC3 2762   6.709   5.170   4.412  0.1298  0.0292 -0.1317
  200POPC   PO4 2763   6.773   4.697   4.624 -0.1105  0.3516 -0.1887
  200POPC   GL1 2764   6.731   4.593   5.011 -0.0870  0.0174 -0.1838
  200POPC   GL2 2765   6.571   4.225   5.140  0.0206 -0.0753  0.2114
  200POPC   C1A 2766   6.595   4.609   5.465 -0.1531  0.0620 -0.0066
  200POPC   D2A 2767   6.772   4.557   5.822 -0.0561  0.2512  0.2002
  200POPC   C3A 2768   6.501   4.611   6.159  0.0017 -0.1738  0.0034
  200POPC   C4A 2769   6.724   5.016   6.321 -0.2232 -0.2403  0.1094
  200POPC   C1B 2770   6.766   4.100   5.467 -0.3010 -0.1831 -0.1110
  200POPC   C2B 2771   6.756   3.985   5.859 -0.1599 -0.3985 -0.2528
  200POPC   C3B 2772   6.769   4.212   6.254 -0.2631  0.1251  0.2589
  200POPC   C4B 2773   6.472   4.316   6.553  0.2802 -0.2465 -0.0117
  201POPC   NC3 2774   4.468   8.540   4.750 -0.4929  0.1424 -0.1966
  201POPC   PO4 2775   4.065   8.358   4.615  0.2930 -0.5248 -0.0405
  201POPC   GL1 2776   3.921   8.394   5.005  0.1251  0.2459  0.1547
  201POPC   GL2 2777   3.857   8.704   5.129  0.1290  0.0108  0.0361
  201POPC   C1A 2778   3.549   8.308   5.310  0.3228  0.0292  0.1096
  201POPC   D2A 2779   3.034   8.400   5.539  0.3346  0.2466  0.2502
  201POPC   C3A 2780   2.651   8.477   5.793 -0.2123 -0.1053  0.4203
  201POPC   C4A 2781   2.218   8.556   6.036 -0.2406 -0.1972 -0.1757
  201POPC   C1B 2782   4.024   8.501   5.545 -0.0687 -0.0976 -0.0606
  201POPC   C2B 2783   3.712   8.247   5.758 -0.5282 -0.3800 -0.0977
  201POPC   C3B 2784   3.676   8.011   6.175  0.0913  0.3032 -0.0985
  201POPC   C4B 2785   3.461   8.074   6.469 -0.1518  0.2789  0.0086
  202POPC   NC3 2786   0.170   3.651   3.632 -0.0352 -0.0131 -0.0317
  202POPC   PO4 2787   0.114   3.410   4.036  0.0862  0.2053 -0.0753
  202POPC   GL1 2788   0.157   3.167   4.504  0.2231 -0.2339 -0.1333
  202POPC   GL2 2789   0.354   3.164   4.803  0.2808  0.0681  0.0437
  202POPC   C1A 2790  -0.044   2.771   4.766 -0.1443 -0.0676 -0.0389
  202POPC   D2A 2791  -0.221   2.527   5.062 -0.2366  0.0619 -0.1832
  202POPC   C3A 2792  -0.125   2.779   5.486  0.2206 -0.0559 -0.1434
  202POPC   C4A 2793   0.155   2.974   5.838  0.0092 -0.1622  0.2333
  202POPC   C1B 2794   0.315   2.978   5.283  0.1314 -0.1507  0.0978
  202POPC   C2B 2795   0.555   2.694   5.662  0.2036  0.0278 -0.2443
  202POPC   C3B 2796   0.474   2.501   6.060  0.0239  0.1575 -0.0923
  202POPC   C4B 2797   0.457   2.361   6.477 -0.4784 -0.0082 -0.2757
  203POPC   NC3 2798   5.883   8.901   4.762 -0.0626  0.0096  0.0121
  203POPC   PO4 2799   6.227   8.985   4.799  0.2284 -0.3091 -0.1878
  203POPC   GL1 2800   6.359   9.302   5.066 -0.2318 -0.1370  0.0665
  203POPC   GL2 2801   6.624   9.441   4.819 -0.0602 -0.2245 -0.0955
  203POPC   C1A 2802   6.398   9.352   5.405 -0.0043  0.0887  0.4656
  203POPC   D2A 2803   6.474   9.516   5.720 -0.2355 -0.2614 -0.1960
  203POPC   C3A 2804   6.557   9.902   5.858  0.0951  0.1709 -0.2069
  203POPC   C4A 2805   6.463  10.162   6.236 -0.2212 -0.1353 -0.0503
  203POPC   C1B 2806   6.914   9.400   5.186  0.1122  0.1406 -0.3267
  203POPC   C2B 2807   6.914   9.123   5.582  0.0705 -0.0821  0.1678
  203POPC   C3B 2808   6.971   8.784   5.919 -0.0487 -0.0598 -0.1445
  203POPC   C4B 2809   7.221   8.484   5.978  0.1377 -0.0403  0.0096
  204POPC   NC3 2810   7.987   2.107   4.383  0.2126 -0.2252 -0.0012
  204POPC   PO4 2811   7.903   1.783   4.569  0.0413  0.2234  0.2647
  204POPC   GL1 2812   8.101   1.512   4.916 -0.2935  0.0840 -0.0584
  204POPC   GL2 2813   7.993   1.441   5.227  0.1591  0.2338  0.2063
  204POPC   C1A 2814   8.279   1.098   5.173 -0.0215 -0.0829 -0.2620
  204POPC   D2A 2815   7.986   0.758   5.373  0.1550 -0.1987 -0.1518
  204POPC   C3A 2816   7.815   0.834   5.737  0.0173 -0.0056 -0.1946
  204POPC   C4A 2817   7.970   1.012   6.095  0.1391  0.3055 -0.0300
  204POPC   C1B 2818   7.893   1.890   5.391 -0.0500 -0.0992 -0.2735
  204POPC   C2B 2819   7.547   1.870   5.608 -0.1255 -0.1177 -0.0999
  204POPC   C3B 2820   7.486   1.839   6.024 -0.2714 -0.0130 -0.1282
  204POPC   C4B 2821   7.382   1.652   6.399 -0.0579 -0.0865  0.2474
  205POPC   NC3 2822   1.534   0.262   4.711 -0.1267 -0.0405  0.0009
  205POPC   PO4 2823   1.814   0.608   4.780  0.0141  0.1002  0.0168
  205POPC   GL1 2824   1.891   0.479   5.090 -0.2984  0.2243 -0.2153
  205POPC   GL2 2825   1.862   0.200   5.174 -0.0365  0.0732 -0.1507
  205POPC   C1A 2826   1.754   0.631   5.536  0.0219 -0.0482  0.1061
  205POPC   D2A 2827   1.625   0.307   5.831  0.0025 -0.0355  0.2782
  205POPC   C3A 2828   1.235   0.106   5.752 -0.0334 -0.2570 -0.0413
  205POPC   C4A 2829   0.945  -0.063   5.926  0.1644  0.0267 -0.1836
  205POPC   C1B 2830   1.649  -0.037   5.469  0.2127  0.0837 -0.1938
  205POPC   C2B 2831   1.401  -0.424   5.686  0.1357 -0.0000  0.0734
  205POPC   C3B 2832   1.053  -0.544   5.878  0.1423  0.1885 -0.0211
  205POPC   C4B 2833   0.964  -0.503   6.322 -0.2077 -0.0757 -0.4115
  206POPC   NC3 2834   5.821   5.837   4.289 -0.1796  0.0831  0.1937
  206POPC   PO4 2835   5.398   5.959   4.405 -0.0548 -0.2638 -0.1866
  206POPC   GL1 2836   5.219   5.916   4.880  0.0828 -0.0572  0.0940
  206POPC   GL2 2837   5.386   6.122   5.042 -0.1329  0.1511 -0.0482
  206POPC   C1A 2838   4.912   5.884   5.228  0.1470  0.2384 -0.0604
  206POPC   D2A 2839   4.979   6.078   5.645  0.0706  0.0684  0.2043
  206POPC   C3A 2840   4.735   6.316   5.884 -0.0541 -0.0848  0.1563
  206POPC   C4A 2841   4.499   6.405   6.197  0.2005  0.0411  0.1855
  206POPC   C1B 2842   5.395   5.970   5.420 -0.0424 -0.3106  0.2010
  206POPC   C2B 2843   5.469   5.710   5.811  0.0478 -0.0142 -0.0894
  206POPC   C3B 2844   5.270   5.294   6.036 -0.1317  0.1044 -0.0625
  206POPC   C4B 2845   5.078   4.820   6.186 -0.1129 -0.1700  0.1785
  207POPC   NC3 2846   5.751   0.353   4.144  0.2275 -0.0567 -0.0557
  207POPC   PO4 2847   5.427   0.661   4.315 -0.1862  0.0250  0.0298
  207POPC   GL1 2848   5.363   0.532   4.749 -0.0883  0.0166 -0.0074
  207POPC   GL2 2849   4.980   0.540   4.650  0.1737  0.3768  0.0403
  207POPC   C1A 2850   5.324   0.331   5.145 -0.2395  0.4183  0.1177
  207POPC   D2A 2851   5.308   0.215   5.541 -0.0796 -0.1213  0.0615
  207POPC   C3A 2852   5.555   0.397   5.726 -0.3290 -0.2127  0.1883
  207POPC   C4A 2853   5.658   0.686   5.958 -0.0621  0.1483 -0.0077
  207POPC   C1B 2854   4.954   0.633   5.039 -0.2016 -0.0454 -0.0375
  207POPC   C2B 2855   4.754   0.656   5.559  0.0415 -0.1629  0.3687
  207POPC   C3B 2856   4.931   0.728   6.021 -0.1220  0.0492 -0.0762
  207POPC   C4B 2857   4.574   0.762   6.313  0.1460 -0.1359 -0.1364
  208POPC   NC3 2858   7.416   7.160   4.222  0.2907 -0.0613 -0.1201
  208POPC   PO4 2859   7.284   7.484   4.506  0.0411 -0.0120 -0.1143
  208POPC   GL1 2860   7.236   7.380   5.020 -0.0727  0.1024 -0.1116
  208POPC   GL2 2861   7.523   7.255   5.155  0.2290 -0.0477  0.0593
  208POPC   C1A 2862   7.234   7.472   5.504 -0.0616 -0.1452 -0.2220
  208POPC   D2A 2863   7.204   7.628   6.046  0.2169  0.1671  0.0887
  208POPC   C3A 2864   7.411   7.369   6.300  0.4362  0.1804 -0.4500
  208POPC   C4A 2865   7.510   7.506   6.700  0.2369 -0.1282  0.0094
  208POPC   C1B 2866   7.511   7.046   5.584 -0.1253 -0.2721 -0.0774
  208POPC   C2B 2867   7.677   7.080   5.972  0.0127 -0.0438 -0.0423
  208POPC   C3B 2868   8.061   7.445   6.047  0.2233  0.0049  0.0860
  208POPC   C4B 2869   8.439   7.494   5.737  0.0547 -0.3972 -0.0872
  209POPC   NC3 2870   3.103   0.355   4.902  0.0045  0.1673  0.0277
  209POPC   PO4 2871   3.596   0.326   4.688 -0.2438 -0.0504 -0.2884
  209POPC   GL1 2872   3.555   0.185   5.162 -0.0664 -0.1394  0.3215
  209POPC   GL2 2873   3.849   0.077   5.281  0.1478  0.2338  0.1239
  209POPC   C1A 2874   3.372   0.230   5.652  0.0631  0.1427  0.0684
  209POPC   D2A 2875   3.117   0.495   5.881 -0.2867  0.1266 -0.2577
  209POPC   C3A 2876   3.217   0.412   6.363  0.0619  0.0436  0.1282
  209POPC   C4A 2877   3.542   0.586   6.548  0.1358  0.0795 -0.4872
  209POPC   C1B 2878   3.928   0.149   5.715  0.2636  0.3440  0.0441
  209POPC   C2B 2879   4.059  -0.191   6.013 -0.0874 -0.2418 -0.1990
  209POPC   C3B 2880   4.266  -0.471   6.326  0.0245 -0.3735 -0.1021
  209POPC   C4B 2881   4.307  -0.639   6.694  0.1366  0.1001  0.0425
  210POPC   NC3 2882   7.036   8.569   4.796  0.0033 -0.0995 -0.2266
  210POPC   PO4 2883   6.784   8.908   4.850 -0.2181  0.0349 -0.1108
  210POPC   GL1 2884   7.181   8.931   5.153  0.0597  0.2203 -0.0341
  210POPC   GL2 2885   7.492   8.897   5.032 -0.0080  0.2050 -0.4220
  210POPC   C1A 2886   7.372   9.273   5.426 -0.1728 -0.0865  0.2126
  210POPC   D2A 2887   7.579   9.234   5.806  0.2711  0.0633 -0.0400
  210POPC   C3A 2888   7.378   9.027   6.163 -0.0345 -0.0005  0.1224
  210POPC   C4A 2889   7.120   8.813   6.366  0.0304  0.0307  0.1447
  210POPC   C1B 2890   7.739   8.935   5.386 -0.2414  0.1141  0.0168
  210POPC   C2B 2891   7.778   8.768   5.869 -0.0711 -0.0351 -0.0434
  210POPC   C3B 2892   8.009   8.768   6.328  0.0163  0.1193  0.0529
  210POPC   C4B 2893   8.330   8.995   6.454 -0.0235 -0.2055  0.2230
  211POPC   NC3 2894   3.990   7.762   4.320 -0.0689  0.2417 -0.0464
  211POPC   PO4 2895   3.948   7.260   4.251  0.0047  0.2889 -0.1344
  211POPC   GL1 2896   3.987   7.264   4.649  0.2160  0.1517 -0.0398
  211POPC   GL2 2897   4.041   6.871   4.769  0.1875 -0.0654 -0.1704
  211POPC   C1A 2898   3.752   7.216   4.993 -0.1569 -0.3823 -0.0672
  211POPC   D2A 2899   3.579   7.079   5.454  0.0653 -0.1096 -0.4529
  211POPC   C3A 2900   3.558   6.686   5.773  0.0311  0.2815  0.2231
  211POPC   C4A 2901   3.150   6.425   5.923  0.1494 -0.0377 -0.2137
  211POPC   C1B 2902   4.061   6.931   5.239 -0.0599 -0.0055 -0.1058
  211POPC   C2B 2903   3.954   6.922   5.703  0.1153 -0.0751 -0.1030
  211POPC   C3B 2904   3.746   6.879   6.142 -0.1891 -0.0383  0.2005
  211POPC   C4B 2905   3.813   6.656   6.530  0.1777 -0.0626 -0.1884
  212POPC   NC3 2906   0.570   3.121   4.111  0.1147 -0.1718 -0.3274
  212POPC   PO4 2907   0.876   2.780   4.210  0.0873 -0.1115 -0.1698
  212POPC   GL1 2908   0.820   2.932   4.548  0.0032 -0.3312  0.0348
  212POPC   GL2 2909   0.953   3.238   4.563  0.0568  0.1263 -0.0676
  212POPC   C1A 2910   0.706   2.775   4.945 -0.2108  0.0038 -0.0250
  212POPC   D2A 2911   0.922   2.647   5.260 -0.3273 -0.1013 -0.3473
  212POPC   C3A 2912   1.185   2.571   5.589  0.0690 -0.2065 -0.0380
  212POPC   C4A 2913   1.336   2.559   5.970  0.0482  0.0549 -0.0853
  212POPC   C1B 2914   0.778   3.413   4.868 -0.2482  0.0101  0.0939
  212POPC   C2B 2915   0.783   3.346   5.263 -0.0841 -0.0285 -0.1030
  212POPC   C3B 2916   0.910   3.113   5.553  0.1992 -0.1340 -0.3752
  212POPC   C4B 2917   0.917   2.783   6.006  0.1840 -0.0103 -0.3664
  213POPC   NC3 2918   5.723   6.372   4.266 -0.0803 -0.0896  0.0636
  213POPC   PO4 2919   5.875   6.305   4.554 -0.2222 -0.0659 -0.3179
  213POPC   GL1 2920   5.916   6.253   5.047 -0.0120 -0.1599  0.0043
  213POPC   GL2 2921   6.143   6.402   5.207 -0.0829  0.0107 -0.2956
  213POPC   C1A 2922   5.822   6.173   5.474  0.1893 -0.1502 -0.0981
  213POPC   D2A 2923   5.507   6.271   5.892 -0.3122  0.0589 -0.0270
  213POPC   C3A 2924   5.212   5.962   6.110  0.0562  0.1816  0.0926
  213POPC   C4A 2925   5.291   5.773   6.376 -0.2048 -0.0406 -0.3899
  213POPC   C1B 2926   6.114   6.529   5.690 -0.0419  0.2399  0.3225
  213POPC   C2B 2927   5.926   6.403   6.085  0.0589 -0.0362  0.3218
  213POPC   C3B 2928   5.573   6.262   6.383  0.0460 -0.1362  0.0871
  213POPC   C4B 2929   5.238   6.183   6.627 -0.0237  0.1109  0.0241
  214POPC   NC3 2930   4.622   6.195   3.323 -0.1308 -0.1859  0.3438
  214POPC   PO4 2931   4.441   6.235   3.812  0.0442 -0.1594  0.2743
  214POPC   GL1 2932   4.245   6.154   4.195  0.1441  0.2584  0.1649
  214POPC   GL2 2933   4.179   5.814   4.368 -0.0152  0.1388 -0.3777
  214POPC   C1A 2934   3.978   6.226   4.535  0.0102  0.1519 -0.1075
  214POPC   D2A 2935   3.759   6.503   4.806 -0.1116 -0.1980 -0.3703
  214POPC   C3A 2936   3.646   6.428   5.219 -0.1236 -0.3139  0.1510
  214POPC   C4A 2937   3.568   6.227   5.661 -0.0527 -0.0640 -0.0057
  214POPC   C1B 2938   4.132   5.370   4.253  0.2701  0.0599 -0.0733
  214POPC   C2B 2939   3.896   4.961   4.197  0.0220 -0.2366  0.1744
  214POPC   C3B 2940   3.566   4.727   4.095 -0.2394 -0.0471  0.0701
  214POPC   C4B 2941   3.273   4.480   3.757 -0.1939  0.2098  0.0559
  215POPC   NC3 2942   0.572   1.904   4.482  0.1713  0.0035 -0.3141
  215POPC   PO4 2943   0.731   2.286   4.350 -0.3174 -0.1204 -0.1077
  215POPC   GL1 2944   1.106   2.517   4.605  0.0852 -0.1836  0.3653
  215POPC   GL2 2945   1.351   2.717   4.443  0.0273  0.1227 -0.1909
  215POPC   C1A 2946   1.363   2.545   4.934 -0.0714  0.2959 -0.0131
  215POPC   D2A 2947   1.651   2.814   5.140 -0.2487  0.0352  0.0634
  215POPC   C3A 2948   1.503   2.962   5.439 -0.2209  0.1738 -0.1387
  215POPC   C4A 2949   1.379   3.003   5.826 -0.2830  0.2157 -0.2372
  215POPC   C1B 2950   1.531   3.061   4.709  0.1681 -0.1536  0.0755
  215POPC   C2B 2951   1.411   3.540   4.708 -0.2390 -0.0257 -0.0164
  215POPC   C3B 2952   1.696   3.900   4.773  0.0790 -0.2228 -0.0426
  215POPC   C4B 2953   1.877   4.388   4.743 -0.0009 -0.2225 -0.2780
  216POPC   NC3 2954   4.703   0.967   3.770 -0.1907 -0.0806 -0.1329
  216POPC   PO4 2955   4.415   0.724   4.019 -0.0975  0.0738 -0.2980
  216POPC   GL1 2956   4.329   0.822   4.482 -0.1501 -0.1829  0.3211
  216POPC   GL2 2957   4.245   0.688   4.737  0.0406 -0.2585 -0.2010
  216POPC   C1A 2958   4.544   0.995   4.953 -0.1471  0.1811  0.1497
  216POPC   D2A 2959   4.943   1.073   5.281 -0.3773  0.0084  0.1694
  216POPC   C3A 2960   5.142   1.004   5.638  0.2331  0.2506 -0.0889
  216POPC   C4A 2961   5.356   1.057   6.071  0.0133 -0.2521  0.0369
  216POPC   C1B 2962   4.437   0.531   5.105 -0.4003  0.2484 -0.0222
  216POPC   C2B 2963   4.313   0.310   5.473  0.0326 -0.1021  0.0631
  216POPC   C3B 2964   4.479   0.003   5.758 -0.0681 -0.2326  0.0086
  216POPC   C4B 2965   4.737  -0.167   6.093 -0.0545  0.0372 -0.0979
  217POPC   NC3 2966   5.667   5.001   3.894 -0.1605  0.0503 -0.0076
  217POPC   PO4 2967   5.624   4.988   4.325  0.0309 -0.1481  0.2598
  217POPC   GL1 2968   5.321   4.731   4.587  0.0307 -0.1872 -0.3748
  217POPC   GL2 2969   5.288   4.964   4.789 -0.0207 -0.1586 -0.0544
  217POPC   C1A 2970   5.212   4.506   4.954 -0.1474  0.0806  0.3495
  217POPC   D2A 2971   5.246   4.417   5.376  0.2212  0.0855 -0.0981
  217POPC   C3A 2972   5.209   4.565   5.791 -0.3281 -0.3056  0.0979
  217POPC   C4A 2973   4.907   4.402   6.103  0.3043 -0.0679 -0.1975
  217POPC   C1B 2974   5.165   4.973   5.139  0.3076 -0.0392 -0.1825
  217POPC   C2B 2975   5.159   5.015   5.588 -0.0622 -0.1099 -0.0617
  217POPC   C3B 2976   4.828   5.096   5.803  0.2306 -0.0282 -0.0722
  217POPC   C4B 2977   4.432   5.088   6.127 -0.2724 -0.1862 -0.0639
  218POPC   NC3 2978   0.127   0.405   4.797 -0.0799 -0.0372  0.0050
  218POPC   PO4 2979   0.102   0.839   4.722 -0.2254 -0.0147  0.3164
  218POPC   GL1 2980   0.118   0.632   5.203  0.0005 -0.3245  0.0032
  218POPC   GL2 2981   0.353   0.896   5.302 -0.2102 -0.0414  0.2732
  218POPC   C1A 2982  -0.159   0.580   5.544 -0.0528  0.0694 -0.0279
  218POPC   D2A 2983  -0.243   0.812   5.878 -0.0626 -0.0062  0.1640
  218POPC   C3A 2984  -0.470   1.205   5.855 -0.0312 -0.0429 -0.2527
  218POPC   C4A 2985  -0.621   1.684   5.672 -0.2434 -0.0470  0.1460
  218POPC   C1B 2986   0.296   0.747   5.661  0.0769  0.1202  0.0847
  218POPC   C2B 2987   0.266   0.858   6.084  0.1904  0.2413 -0.0438
  218POPC   C3B 2988   0.361   1.157   6.463  0.2043  0.3415  0.0510
  218POPC   C4B 2989   0.493   1.533   6.699  0.2019  0.0625  0.1532
  219POPC   NC3 2990   5.423   6.495   4.692 -0.0049 -0.1817  0.0873
  219POPC   PO4 2991   5.712   6.699   4.975  0.2152 -0.2380 -0.2332
  219POPC   GL1 2992   5.714   6.667   5.362  0.0734  0.0022  0.0029
  219POPC   GL2 2993   5.495   6.476   5.377 -0.0312 -0.3560  0.1718
  219POPC   C1A 2994   5.662   6.778   5.754  0.1304  0.1059 -0.0215
  219POPC   D2A 2995   5.444   6.747   6.122 -0.0102  0.4960  0.1505
  219POPC   C3A 2996   5.113   6.472   6.189 -0.0321 -0.1801 -0.1596
  219POPC   C4A 2997   4.820   6.075   6.348  0.0573  0.0861 -0.0191
  219POPC   C1B 2998   5.158   6.550   5.654  0.0125  0.3569 -0.1120
  219POPC   C2B 2999   4.843   6.790   5.886  0.1877 -0.0411  0.0680
  219POPC   C3B 3000   4.313   6.818   6.030 -0.1449  0.0079 -0.4989
  219POPC   C4B 3001   4.102   7.047   6.369 -0.1475  0.0655 -0.0033
  220POPC   NC3 3002   8.542   0.649   4.220  0.0975  0.3285  0.2395
  220POPC   PO4 3003   9.005   0.674   4.387 -0.0995 -0.0448  0.0680
  220POPC   GL1 3004   9.049   0.694   4.798  0.2123 -0.2669 -0.1351
  220POPC   GL2 3005   9.399   0.709   4.929  0.3560  0.0209  0.2736
  220POPC   C1A 3006   9.008   1.027   5.026 -0.0526  0.1259 -0.2889
  220POPC   D2A 3007   9.215   0.940   5.405 -0.0646  0.0543 -0.1953
  220POPC   C3A 3008   9.608   1.048   5.402 -0.1737 -0.2343 -0.0560
  220POPC   C4A 3009   9.803   1.182   5.755 -0.0116  0.1197 -0.0504
  220POPC   C1B 3010   9.341   0.389   5.158 -0.2884  0.0367 -0.2849
  220POPC   C2B 3011   8.986   0.468   5.401 -0.2373 -0.0304 -0.3972
  220POPC   C3B 3012   8.825   0.675   5.708  0.2152  0.0832  0.3172
  220POPC   C4B 3013   8.798   0.945   5.934 -0.0334 -0.1176  0.0205
  221POPC   NC3 3014   5.118   7.038   4.245 -0.0057 -0.4194 -0.0247
  221POPC   PO4 3015   5.425   7.194   4.454  0.1683 -0.0258 -0.2255
  221POPC   GL1 3016   5.330   6.988   4.767  0.1037  0.1518 -0.3931
  221POPC   GL2 3017   5.293   7.211   5.078 -0.0564 -0.0229  0.4259
  221POPC   C1A 3018   5.069   6.774   5.172  0.3857 -0.0970 -0.4068
  221POPC   D2A 3019   4.764   6.901   5.444 -0.2763  0.0415 -0.0838
  221POPC   C3A 3020   4.460   6.741   5.559 -0.0688 -0.0086  0.0249
  221POPC   C4A 3021   4.063   6.468   5.641  0.1449 -0.0339  0.0625
  221POPC   C1B 3022   5.320   7.055   5.535  0.1049 -0.1188  0.0338
  221POPC   C2B 3023   5.241   7.182   5.963  0.2560  0.2913  0.2749
  221POPC   C3B 3024   5.055   7.004   6.292  0.2221 -0.1334 -0.1434
  221POPC   C4B 3025   4.667   6.818   6.367  0.2729 -0.3259  0.1600
  222POPC   NC3 3026   4.348   6.834   4.398  0.0801  0.2387  0.0887
  222POPC   PO4 3027   4.618   7.147   4.539  0.0350  0.1063 -0.2241
  222POPC   GL1 3028   4.681   7.031   4.944 -0.3018 -0.0071  0.0585
  222POPC   GL2 3029   4.483   6.686   5.031  0.0365  0.0395 -0.3537
  222POPC   C1A 3030   4.576   7.285   5.238 -0.3133 -0.1600 -0.4121
  222POPC   D2A 3031   4.461   7.679   5.538  0.1318  0.3023  0.0366
  222POPC   C3A 3032   4.465   7.720   5.986 -0.0757 -0.1188 -0.0516
  222POPC   C4A 3033   4.531   7.297   6.294 -0.0081  0.1756  0.3095
  222POPC   C1B 3034   4.155   6.441   5.105 -0.0062 -0.0762  0.0702
  222POPC   C2B 3035   4.044   6.146   5.285 -0.0711  0.1067  0.0269
  222POPC   C3B 3036   3.981   5.962   5.743 -0.4013 -0.2556  0.0241
  222POPC   C4B 3037   3.900   5.897   6.085 -0.0862 -0.3097  0.1151
  223POPC   NC3 3038   8.028   4.087   4.067 -0.0728  0.2904 -0.0226
  223POPC   PO4 3039   7.877   3.840   4.449 -0.2114 -0.0217 -0.0599
  223POPC   GL1 3040   7.791   3.551   4.797 -0.0134 -0.1609  0.1061
  223POPC   GL2 3041   7.897   3.363   4.987  0.1226 -0.1054  0.0526
  223POPC   C1A 3042   7.746   3.767   5.329  0.5081 -0.2416 -0.3692
  223POPC   D2A 3043   7.627   3.655   5.714 -0.3943  0.0758  0.4116
  223POPC   C3A 3044   8.042   3.667   5.966  0.1731 -0.0468 -0.1699
  223POPC   C4A 3045   8.435   3.530   5.693 -0.0174  0.3470 -0.0296
  223POPC   C1B 3046   7.543   3.301   5.224  0.1565 -0.0388 -0.1762
  223POPC   C2B 3047   7.365   3.239   5.571  0.3014 -0.0633 -0.0844
  223POPC   C3B 3048   7.072   3.352   5.832 -0.3917  0.4135 -0.2288
  223POPC   C4B 3049   6.744   3.499   6.013  0.0558  0.0794  0.2814
  224POPC   NC3 3050   7.100   7.026   4.520  0.0886  0.0728 -0.4479
  224POPC   PO4 3051   7.299   6.549   4.479 -0.0039 -0.1225 -0.1965
  224POPC   GL1 3052   7.257   6.597   4.903 -0.3698  0.1679 -0.2217
  224POPC   GL2 3053   7.194   6.908   5.100 -0.1800 -0.0542 -0.0473
  224POPC   C1A 3054   7.359   6.394   5.227 -0.1090  0.0328  0.0614
  224POPC   D2A 3055   7.576   6.087   5.435  0.0457 -0.3668  0.0267
  224POPC   C3A 3056   7.532   5.881   5.874 -0.1230  0.3630 -0.1145
  224POPC   C4A 3057   7.634   6.119   6.329 -0.0470  0.1227  0.1148
  224POPC   C1B 3058   7.068   6.732   5.533 -0.0511  0.4285  0.0323
  224POPC   C2B 3059   6.877   6.676   5.807  0.1623  0.2245  0.0219
  224POPC   C3B 3060   6.843   6.799   6.139 -0.0440  0.2866  0.0049
  224POPC   C4B 3061   6.770   6.685   6.662  0.3105  0.0151  0.0448
  225POPC   NC3 3062   1.139   4.136   3.202  0.3982 -0.2729 -0.0753
  225POPC   PO4 3063   0.993   3.963   3.677  0.0068 -0.1278  0.0375
  225POPC   GL1 3064   1.209   4.051   3.951 -0.0746  0.2003  0.1206
  225POPC   GL2 3065   1.184   4.308   4.175  0.1150  0.4516  0.1583
  225POPC   C1A 3066   1.505   3.893   4.261  0.0015  0.2762 -0.2262
  225POPC   D2A 3067   1.798   3.500   4.394 -0.0951  0.0618  0.1020
  225POPC   C3A 3068   1.977   3.482   4.744 -0.6117 -0.2420  0.2115
  225POPC   C4A 3069   1.736   3.390   5.110  0.2752 -0.1368 -0.2847
  225POPC   C1B 3070   1.270   4.232   4.630 -0.0700  0.0729 -0.0003
  225POPC   C2B 3071   1.103   4.243   5.148  0.1963  0.2805  0.0569
  225POPC   C3B 3072   1.072   4.223   5.590 -0.4270 -0.1991 -0.1884
  225POPC   C4B 3073   1.100   4.157   6.078 -0.2379  0.0562 -0.2903
  226POPC   NC3 3074   1.614   2.495   3.872 -0.0301  0.1894 -0.1624
  226POPC   PO4 3075   1.563   2.076   3.962  0.0754  0.0112 -0.1661
  226POPC   GL1 3076   1.505   2.293   4.319 -0.1010  0.0935 -0.1177
  226POPC   GL2 3077   1.439   2.096   4.647  0.1912  0.1289  0.1032
  226POPC   C1A 3078   1.785   2.479   4.658  0.2380  0.1985 -0.1416
  226POPC   D2A 3079   2.018   2.480   5.042 -0.2503 -0.1188  0.0108
  226POPC   C3A 3080   2.149   2.644   5.548  0.3512 -0.1304 -0.2548
  226POPC   C4A 3081   2.417   2.524   5.912 -0.3094  0.1183  0.1802
  226POPC   C1B 3082   1.648   2.134   5.048 -0.1424  0.0658  0.0858
  226POPC   C2B 3083   1.836   2.022   5.400  0.1964 -0.1000 -0.0420
  226POPC   C3B 3084   2.055   2.146   5.782  0.0293  0.0181  0.0011
  226POPC   C4B 3085   2.086   2.226   6.215  0.0441 -0.2102  0.1863
  227POPC   NC3 3086   8.313   1.338   3.761  0.1255  0.0562  0.0434
  227POPC   PO4 3087   8.277   1.069   4.097  0.2080  0.1110 -0.1598
  227POPC   GL1 3088   8.359   1.205   4.513 -0.0939  0.0651 -0.1324
  227POPC   GL2 3089   8.552   0.997   4.687  0.0708 -0.4195  0.3806
  227POPC   C1A 3090   8.590   1.408   4.920 -0.2371  0.1836 -0.1639
  227POPC   D2A 3091   8.738   1.457   5.269  0.1795  0.2725  0.1237
  227POPC   C3A 3092   8.549   1.244   5.547  0.0706  0.5761 -0.0550
  227POPC   C4A 3093   8.308   0.941   5.693 -0.0631  0.0853 -0.1025
  227POPC   C1B 3094   8.549   0.736   5.063 -0.1278  0.0337  0.0225
  227POPC   C2B 3095   8.562   0.279   5.131  0.3508 -0.0482  0.0622
  227POPC   C3B 3096   8.567  -0.082   5.449  0.1603  0.2646  0.3857
  227POPC   C4B 3097   8.607  -0.387   5.682  0.0108  0.1522 -0.1277
  228POPC   NC3 3098   6.971   4.686   4.137  0.3079 -0.1067 -0.1215
  228POPC   PO4 3099   7.208   4.924   4.420 -0.0425 -0.2820 -0.0412
  228POPC   GL1 3100   7.293   4.874   4.862  0.1134  0.2884  0.0490
  228POPC   GL2 3101   7.530   4.746   5.090 -0.2446  0.2902 -0.2826
  228POPC   C1A 3102   7.060   4.865   5.271 -0.1905  0.3588  0.1608
  228POPC   D2A 3103   7.055   5.028   5.781  0.2910 -0.0055  0.1588
  228POPC   C3A 3104   6.883   5.382   5.853 -0.1134  0.0171 -0.2613
  228POPC   C4A 3105   6.726   5.797   5.753  0.0672  0.0853  0.0657
  228POPC   C1B 3106   7.670   4.350   5.346  0.1374 -0.0232  0.0418
  228POPC   C2B 3107   7.498   4.140   5.663 -0.1636  0.0073 -0.2692
  228POPC   C3B 3108   7.489   4.280   6.021  0.1828  0.3668  0.2595
  228POPC   C4B 3109   7.615   4.480   6.407 -0.0989  0.0973  0.0343
  229POPC   NC3 3110   6.803   0.764   4.690 -0.1080  0.2138 -0.2546
  229POPC   PO4 3111   7.165   0.535   4.681 -0.0947  0.4132 -0.3039
  229POPC   GL1 3112   7.305   0.782   5.013  0.2714 -0.1470 -0.0318
  229POPC   GL2 3113   7.635   0.815   5.019 -0.1577 -0.1554 -0.2475
  229POPC   C1A 3114   7.177   1.081   5.282  0.0439  0.0081  0.3012
  229POPC   D2A 3115   6.951   1.298   5.580  0.0313  0.0975  0.0649
  229POPC   C3A 3116   7.045   1.570   5.965  0.4254  0.1094 -0.2297
  229POPC   C4A 3117   6.690   1.703   6.348  0.2560  0.2864  0.1650
  229POPC   C1B 3118   7.668   1.097   5.273  0.3211 -0.1007  0.1512
  229POPC   C2B 3119   7.934   1.312   5.698  0.3814  0.2716 -0.2750
  229POPC   C3B 3120   8.043   1.664   5.801 -0.4692  0.2519 -0.1563
  229POPC   C4B 3121   8.318   1.898   6.184  0.0576 -0.0733 -0.1815
  230POPC   NC3 3122   2.446   0.234   4.310 -0.1737  0.0409  0.0004
  230POPC   PO4 3123   2.700   0.163   4.719 -0.0800  0.1150 -0.0273
  230POPC   GL1 3124   2.611   0.418   5.146 -0.3531  0.3658 -0.0771
  230POPC   GL2 3125   2.376   0.287   5.329  0.1249  0.0938 -0.0849
  230POPC   C1A 3126   2.866   0.271   5.522 -0.0362 -0.2056  0.0815
  230POPC   D2A 3127   2.614   0.375   5.952  0.1045 -0.0854  0.1246
  230POPC   C3A 3128   2.359   0.682   6.064 -0.1074  0.0243  0.0085
  230POPC   C4A 3129   1.923   0.648   6.105 -0.0460  0.0575  0.3351
  230POPC   C1B 3130   2.114   0.277   5.699 -0.0637  0.0963 -0.0001
  230POPC   C2B 3131   2.099   0.170   6.073  0.1302  0.1958 -0.1522
  230POPC   C3B 3132   2.126   0.397   6.482  0.1651  0.1699 -0.3657
  230POPC   C4B 3133   2.015   0.576   6.790  0.2203  0.1671  0.0594
  231POPC   NC3 3134   5.183   5.189   4.320 -0.0499  0.0283  0.0453
  231POPC   PO4 3135   5.326   5.460   4.585  0.1283  0.0076 -0.0868
  231POPC   GL1 3136   5.087   5.421   4.872 -0.3905 -0.0489  0.0384
  231POPC   GL2 3137   5.323   5.470   5.133 -0.0502  0.1497 -0.0471
  231POPC   C1A 3138   4.664   5.413   4.977  0.4041 -0.0765  0.0047
  231POPC   D2A 3139   4.218   5.374   4.839 -0.2076 -0.1729  0.0109
  231POPC   C3A 3140   3.935   5.725   4.837 -0.2455  0.0572  0.2325
  231POPC   C4A 3141   3.586   5.909   5.190 -0.1764  0.2921  0.0589
  231POPC   C1B 3142   5.113   5.521   5.493  0.1056  0.0961 -0.0192
  231POPC   C2B 3143   4.870   5.620   5.847  0.0446 -0.2502  0.0739
  231POPC   C3B 3144   4.819   5.559   6.214 -0.0921 -0.0576  0.1614
  231POPC   C4B 3145   4.980   5.346   6.474 -0.2820 -0.0295 -0.0721
  232POPC   NC3 3146   5.962   3.628   4.504  0.2878  0.0448  0.2783
  232POPC   PO4 3147   5.572   3.863   4.153  0.0118 -0.1587 -0.3898
  232POPC   GL1 3148   5.639   4.006   4.756  0.5583 -0.1255  0.1658
  232POPC   GL2 3149   5.394   4.055   5.040 -0.1933  0.0032 -0.0887
  232POPC   C1A 3150   5.663   3.622   5.015 -0.2945  0.0539 -0.3609
  232POPC   D2A 3151   5.556   3.445   5.382  0.3345 -0.0757  0.0495
  232POPC   C3A 3152   5.369   3.557   5.795  0.0336  0.0367 -0.1043
  232POPC   C4A 3153   5.291   3.679   6.188 -0.1885  0.0824  0.0617
  232POPC   C1B 3154   5.251   3.933   5.494 -0.2514  0.0376  0.0433
  232POPC   C2B 3155   4.950   3.867   5.799  0.1438  0.0407  0.2912
  232POPC   C3B 3156   4.696   3.908   6.139  0.1329 -0.1902 -0.3443
  232POPC   C4B 3157   4.411   4.262   6.287  0.0696 -0.1688 -0.1854
  233POPC   NC3 3158   2.068   5.014   3.276  0.0405 -0.2888  0.1388
  233POPC   PO4 3159   1.920   4.700   3.290 -0.0654  0.4417  0.1724
  233POPC   GL1 3160   1.884   4.607   3.621 -0.1326 -0.2995 -0.0888
  233POPC   GL2 3161   1.983   4.255   3.687  0.1147  0.0929 -0.1891
  233POPC   C1A 3162   1.841   4.853   3.915  0.1834 -0.1143  0.3121
  233POPC   D2A 3163   1.625   5.116   4.146  0.0658 -0.2080  0.0722
  233POPC   C3A 3164   1.200   5.137   4.405 -0.1293 -0.1398 -0.2810
  233POPC   C4A 3165   0.986   4.734   4.590  0.2359  0.3246 -0.3192
  233POPC   C1B 3166   2.257   4.318   3.883  0.1419  0.2102  0.0158
  233POPC   C2B 3167   2.558   4.206   4.284 -0.1703 -0.3009 -0.3461
  233POPC   C3B 3168   2.866   4.074   4.536  0.1391 -0.2189 -0.3782
  233POPC   C4B 3169   3.073   3.857   4.781 -0.2189 -0.0380 -0.1815
  234POPC   NC3 3170   4.642   5.826   4.188  0.2965  0.4249 -0.0815
  234POPC   PO4 3171   4.903   6.098   4.087  0.2739 -0.0854 -0.0738
  234POPC   GL1 3172   4.800   6.229   4.485 -0.0634 -0.1226 -0.2663
  234POPC   GL2 3173   4.449   6.169   4.634 -0.2354  0.0033 -0.0099
  234POPC   C1A 3174   4.799   6.273   4.948  0.0340  0.1210 -0.2953
  234POPC   D2A 3175   4.731   6.388   5.371  0.0151  0.2004  0.0243
  234POPC   C3A 3176   4.451   6.081   5.595  0.0970 -0.1262 -0.1039
  234POPC   C4A 3177   4.419   5.862   5.961  0.0972 -0.1212 -0.1024
  234POPC   C1B 3178   4.404   5.971   5.000 -0.1436 -0.0174 -0.0430
  234POPC   C2B 3179   4.151   5.642   5.264  0.0106  0.2093 -0.2464
  234POPC   C3B 3180   4.288   5.521   5.594  0.1168  0.1602 -0.1014
  234POPC   C4B 3181   3.935   5.420   5.946 -0.2766  0.2043 -0.1870
  235POPC   NC3 3182   6.543   6.322   4.892  0.4097  0.2404 -0.0775
  235POPC   PO4 3183   6.785   6.674   4.716 -0.0121 -0.1427 -0.0405
  235POPC   GL1 3184   6.745   6.542   5.254 -0.2869 -0.0125 -0.0127
  235POPC   GL2 3185   6.765   6.109   5.336 -0.3078  0.2892  0.0439
  235POPC   C1A 3186   6.593   6.340   5.697  0.3466  0.1096 -0.0336
  235POPC   D2A 3187   6.849   6.190   6.008  0.5840 -0.0668 -0.1471
  235POPC   C3A 3188   7.088   6.353   6.352  0.0204 -0.1129  0.1668
  235POPC   C4A 3189   7.338   6.546   6.698  0.0121 -0.2729  0.0888
  235POPC   C1B 3190   7.060   6.183   5.604  0.3245  0.0784  0.1729
  235POPC   C2B 3191   7.309   6.389   5.732  0.1304  0.1384 -0.0468
  235POPC   C3B 3192   7.420   6.662   6.117  0.0616  0.1426 -0.3073
  235POPC   C4B 3193   7.265   6.916   6.382  0.0254 -0.2812  0.0708
  236POPC   NC3 3194   3.123   9.043   4.881 -0.0453 -0.0506  0.0677
  236POPC   PO4 3195   3.550   9.059   4.902  0.0989  0.0662 -0.2036
  236POPC   GL1 3196   3.536   9.387   5.311 -0.1640  0.2145 -0.1134
  236POPC   GL2 3197   3.308   9.202   5.346 -0.1963  0.3015 -0.0363
  236POPC   C1A 3198   3.578   9.540   5.716  0.0129  0.3393  0.0230
  236POPC   D2A 3199   3.452   9.591   6.166  0.0753 -0.3748  0.0917
  236POPC   C3A 3200   3.752   9.554   6.396  0.0467  0.0473  0.0896
  236POPC   C4A 3201   4.006   9.791   6.691  0.3019 -0.3592  0.1763
  236POPC   C1B 3202   3.433   8.804   5.539  0.0012  0.1355 -0.2583
  236POPC   C2B 3203   3.698   8.747   5.893 -0.0908 -0.1604 -0.2447
  236POPC   C3B 3204   3.861   8.487   6.166 -0.3388 -0.2092  0.1367
  236POPC   C4B 3205   3.997   8.246   6.523 -0.4506  0.1700  0.2586
  237POPC   NC3 3206   5.653   8.038   4.575  0.3929 -0.0521 -0.0640
  237POPC   PO4 3207   5.212   8.168   4.505  0.1003 -0.0449  0.3615
  237POPC   GL1 3208   5.317   8.379   4.892 -0.0447 -0.1394 -0.1070
  237POPC   GL2 3209   5.479   8.196   4.999  0.1733  0.1820  0.4488
  237POPC   C1A 3210   5.162   8.553   5.354 -0.1469  0.1684 -0.0683
  237POPC   D2A 3211   4.964   8.583   5.711  0.0669 -0.1152 -0.1843
  237POPC   C3A 3212   5.002   8.491   6.201 -0.0866 -0.1432 -0.1567
  237POPC   C4A 3213   5.265   8.836   6.579 -0.1739  0.1344 -0.3150
  237POPC   C1B 3214   5.473   7.949   5.474  0.1794  0.0533 -0.2282
  237POPC   C2B 3215   5.357   7.626   5.715  0.2263  0.0177  0.1041
  237POPC   C3B 3216   4.990   7.576   6.180 -0.0434  0.0631 -0.1219
  237POPC   C4B 3217   5.182   7.601   6.721  0.5532  0.0425 -0.2016
  238POPC   NC3 3218   3.343   2.938   3.390 -0.2145 -0.5434  0.5611
  238POPC   PO4 3219   3.047   2.620   3.417 -0.2262 -0.1024  0.3002
  238POPC   GL1 3220   3.225   2.579   3.831  0.0999 -0.0033 -0.1411
  238POPC   GL2 3221   3.257   2.926   3.880 -0.1011  0.3346  0.1333
  238POPC   C1A 3222   3.153   2.605   4.220 -0.2864  0.0800  0.1948
  238POPC   D2A 3223   2.946   2.963   4.556 -0.2235  0.0113 -0.1169
  238POPC   C3A 3224   2.977   3.308   4.896 -0.2001  0.0003  0.0242
  238POPC   C4A 3225   3.211   3.514   5.172 -0.3032 -0.0286 -0.1855
  238POPC   C1B 3226   2.828   3.126   4.001 -0.0254 -0.2425 -0.0169
  238POPC   C2B 3227   2.555   3.232   4.218 -0.2017  0.2651  0.1978
  238POPC   C3B 3228   2.182   3.229   4.307 -0.2785 -0.1205 -0.0004
  238POPC   C4B 3229   1.987   3.031   4.598 -0.3538  0.0612  0.0678
  239POPC   NC3 3230   8.378   8.692   4.577  0.2538  0.2366 -0.0252
  239POPC   PO4 3231   8.727   8.446   4.788 -0.2039 -0.0552 -0.0064
  239POPC   GL1 3232   8.866   8.334   5.170  0.0053 -0.1666  0.3924
  239POPC   GL2 3233   8.817   8.597   5.400 -0.1116 -0.4608 -0.2612
  239POPC   C1A 3234   8.626   8.158   5.446  0.3441 -0.0515  0.0569
  239POPC   D2A 3235   8.250   8.019   5.527 -0.3621  0.0380  0.0815
  239POPC   C3A 3236   8.017   7.869   5.795  0.1136 -0.4169 -0.0064
  239POPC   C4A 3237   7.655   7.582   5.806  0.1706 -0.0012  0.3366
  239POPC   C1B 3238   8.584   8.872   5.716 -0.0786  0.1613  0.2212
  239POPC   C2B 3239   8.651   9.093   6.087  0.0605 -0.1125 -0.0151
  239POPC   C3B 3240   8.903   9.421   6.309 -0.2694 -0.1429 -0.0055
  239POPC   C4B 3241   8.860   9.775   6.549  0.1767 -0.0053 -0.2127
  240POPC   NC3 3242   6.621   3.838   4.134 -0.1817  0.0827 -0.2079
  240POPC   PO4 3243   6.456   3.953   4.569 -0.2890  0.1344 -0.2931
  240POPC   GL1 3244   6.223   3.819   4.918  0.2535 -0.0508  0.2574
  240POPC   GL2 3245   6.122   4.168   4.918 -0.1339  0.1228 -0.1500
  240POPC   C1A 3246   6.174   3.714   5.346  0.1419  0.2310  0.1328
  240POPC   D2A 3247   6.318   3.746   5.646  0.0608  0.1292 -0.1332
  240POPC   C3A 3248   6.220   3.530   6.052 -0.0933  0.2414 -0.1553
  240POPC   C4A 3249   6.484   3.296   6.351 -0.1734  0.0271 -0.2863
  240POPC   C1B 3250   5.814   4.023   5.224  0.0037 -0.0851  0.0825
  240POPC   C2B 3251   5.713   3.914   5.720  0.2367 -0.1290  0.2184
  240POPC   C3B 3252   5.811   3.798   6.120  0.2147  0.0162  0.0778
  240POPC   C4B 3253   5.705   3.415   6.352 -0.0552 -0.1172  0.0646
  241POPC   NC3 3254   2.300   9.517   4.561  0.1677  0.0930  0.3945
  241POPC   PO4 3255   1.973   9.184   4.429 -0.2675  0.3196 -0.1361
  241POPC   GL1 3256   2.182   9.014   4.796 -0.2321  0.0379 -0.0223
  241POPC   GL2 3257   2.219   9.150   5.041  0.0339 -0.1144  0.2763
  241POPC   C1A 3258   2.290   8.642   5.091  0.3013 -0.1092  0.3851
  241POPC   D2A 3259   2.165   8.705   5.566  0.0529 -0.3478  0.0822
  241POPC   C3A 3260   1.901   8.386   5.626 -0.0361 -0.2261  0.0341
  241POPC   C4A 3261   1.929   8.023   5.525  0.1482  0.2262 -0.0181
  241POPC   C1B 3262   2.199   9.533   5.241  0.1226 -0.1945  0.0753
  241POPC   C2B 3263   2.014   9.455   5.749 -0.0882 -0.3447 -0.1712
  241POPC   C3B 3264   1.671   9.544   6.013  0.0136  0.1281 -0.2306
  241POPC   C4B 3265   1.322   9.613   6.310 -0.4256 -0.1340 -0.0244
  242POPC   NC3 3266   5.018   4.436   3.421 -0.0187 -0.0073  0.0051
  242POPC   PO4 3267   4.884   4.600   3.703 -0.0159 -0.0038 -0.0549
  242POPC   GL1 3268   4.702   4.836   4.070  0.0750 -0.0293 -0.1235
  242POPC   GL2 3269   4.925   4.805   4.321  0.1672 -0.0308 -0.0798
  242POPC   C1A 3270   4.428   4.963   4.453  0.1804 -0.2744  0.0318
  242POPC   D2A 3271   4.319   4.807   4.906 -0.2137 -0.2634  0.0231
  242POPC   C3A 3272   4.186   5.000   5.259  0.2110 -0.1386  0.2390
  242POPC   C4A 3273   4.305   5.006   5.644 -0.0810  0.0548 -0.1166
  242POPC   C1B 3274   4.834   4.793   4.800  0.1203  0.1430 -0.0858
  242POPC   C2B 3275   4.710   4.922   5.209  0.1039  0.1411  0.1443
  242POPC   C3B 3276   4.843   4.663   5.491  0.1895  0.0807  0.0614
  242POPC   C4B 3277   4.777   4.270   5.638  0.0308  0.2598  0.1738
  243POPC   NC3 3278   7.332   5.733   5.045  0.1440  0.0591 -0.1003
  243POPC   PO4 3279   6.822   5.635   5.021 -0.3316  0.0521  0.1007
  243POPC   GL1 3280   7.010   5.460   5.345  0.0620 -0.1657  0.1575
  243POPC   GL2 3281   7.286   5.276   5.194 -0.3028  0.1650 -0.1672
  243POPC   C1A 3282   7.324   5.460   5.633 -0.3335  0.2961 -0.0385
  243POPC   D2A 3283   7.469   5.428   6.064  0.0690 -0.1348 -0.0207
  243POPC   C3A 3284   7.154   5.819   6.176 -0.5629  0.1827  0.1434
  243POPC   C4A 3285   6.905   5.899   6.416 -0.1016 -0.0255  0.0512
  243POPC   C1B 3286   7.500   5.062   5.547 -0.1455  0.0018 -0.0448
  243POPC   C2B 3287   7.872   5.058   5.762  0.0321  0.1420  0.2535
  243POPC   C3B 3288   8.268   5.195   5.935 -0.0402 -0.1769  0.2630
  243POPC   C4B 3289   8.612   5.362   6.221  0.1190  0.2762 -0.1107
  244POPC   NC3 3290   1.120   0.885   4.202 -0.1245  0.0209 -0.0881
  244POPC   PO4 3291   0.815   1.067   4.294 -0.1712 -0.0414  0.1119
  244POPC   GL1 3292   0.865   1.171   4.621 -0.0382  0.3070  0.1874
  244POPC   GL2 3293   1.146   1.185   4.668 -0.1052  0.2657  0.0835
  244POPC   C1A 3294   0.846   1.238   5.047 -0.0857 -0.2852 -0.1293
  244POPC   D2A 3295   0.790   1.111   5.416 -0.4609  0.2630  0.4135
  244POPC   C3A 3296   0.942   1.289   5.734  0.2044 -0.3743  0.1137
  244POPC   C4A 3297   1.315   1.414   6.007  0.2823 -0.0398  0.2574
  244POPC   C1B 3298   1.247   1.563   4.997  0.2986  0.0074  0.1944
  244POPC   C2B 3299   1.424   1.622   5.440  0.1286  0.2174  0.3532
  244POPC   C3B 3300   1.750   1.704   5.754 -0.1426  0.0851 -0.3157
  244POPC   C4B 3301   1.789   1.632   6.214  0.2080 -0.0131 -0.0530
  245POPC   NC3 3302   9.366   7.337   4.240 -0.0583  0.3483 -0.1716
  245POPC   PO4 3303   9.070   7.630   4.556  0.1785  0.1143 -0.2356
  245POPC   GL1 3304   9.140   7.693   5.009 -0.0399 -0.2382  0.3115
  245POPC   GL2 3305   9.519   7.689   5.064 -0.1293 -0.1523  0.2656
  245POPC   C1A 3306   9.147   7.833   5.408 -0.1441  0.1718  0.3397
  245POPC   D2A 3307   9.111   8.207   5.722 -0.0269  0.0909  0.0034
  245POPC   C3A 3308   8.750   8.406   5.908  0.1453 -0.3058 -0.2185
  245POPC   C4A 3309   8.668   8.634   6.315 -0.3702 -0.0727 -0.2684
  245POPC   C1B 3310   9.584   7.534   5.500 -0.3515  0.0709  0.1678
  245POPC   C2B 3311   9.727   7.477   5.900 -0.0899 -0.0757 -0.1833
  245POPC   C3B 3312   9.706   7.580   6.341 -0.1479 -0.0813 -0.0954
  245POPC   C4B 3313   9.724   7.900   6.688 -0.1746  0.0921 -0.0444
  246POPC   NC3 3314   5.156   0.294   4.244 -0.0040  0.3213 -0.4228
  246POPC   PO4 3315   5.109  -0.029   4.586  0.0760  0.1611 -0.2214
  246POPC   GL1 3316   5.029  -0.046   4.947  0.2361 -0.0067  0.2884
  246POPC   GL2 3317   5.216  -0.334   5.222 -0.3806 -0.1960 -0.0420
  246POPC   C1A 3318   4.847   0.158   5.301  0.1282  0.2853 -0.1907
  246POPC   D2A 3319   4.900   0.266   5.790  0.4376  0.0632  0.0545
  246POPC   C3A 3320   4.453   0.468   5.935 -0.2307  0.0939 -0.0665
  246POPC   C4A 3321   4.059   0.582   5.903  0.0045  0.0183  0.0003
  246POPC   C1B 3322   5.073  -0.202   5.605 -0.2182  0.4469 -0.1695
  246POPC   C2B 3323   5.253  -0.059   6.101  0.1946 -0.0959  0.0411
  246POPC   C3B 3324   5.724  -0.132   6.367 -0.0472 -0.1523  0.0015
  246POPC   C4B 3325   5.952  -0.093   6.663  0.0151 -0.2937  0.1842
  247POPC   NC3 3326   6.914   2.046   4.242  0.1274 -0.0059  0.3535
  247POPC   PO4 3327   6.522   2.206   3.987  0.0955 -0.1011  0.1584
  247POPC   GL1 3328   6.460   2.119   4.475  0.2981 -0.0408  0.0084
  247POPC   GL2 3329   6.695   2.117   4.729 -0.0932 -0.0694 -0.2391
  247POPC   C1A 3330   6.317   1.667   4.758 -0.2428 -0.0065  0.0179
  247POPC   D2A 3331   6.169   1.372   5.096  0.3873  0.2356  0.1385
  247POPC   C3A 3332   5.749   1.299   5.227 -0.1490 -0.0644 -0.0886
  247POPC   C4A 3333   5.330   1.379   5.403  0.0598 -0.1044 -0.0857
  247POPC   C1B 3334   6.556   2.044   5.135 -0.1104 -0.1818  0.0064
  247POPC   C2B 3335   6.459   2.098   5.614 -0.0124 -0.1060 -0.1189
  247POPC   C3B 3336   6.485   1.765   5.898  0.2993 -0.0298 -0.0446
  247POPC   C4B 3337   6.577   1.341   5.938 -0.0297 -0.4117 -0.1847
  248POPC   NC3 3338   9.261   2.804   3.966 -0.2225 -0.2180 -0.2633
  248POPC   PO4 3339   9.020   2.934   4.377  0.1336 -0.2353 -0.1999
  248POPC   GL1 3340   9.170   2.890   4.852 -0.0045  0.3235  0.1454
  248POPC   GL2 3341   9.083   3.127   5.008 -0.1172 -0.0129 -0.2332
  248POPC   C1A 3342   9.104   2.769   5.351 -0.1633 -0.1325 -0.0093
  248POPC   D2A 3343   9.123   2.435   5.711  0.0684  0.1160 -0.0037
  248POPC   C3A 3344   9.512   2.530   5.931  0.1374 -0.1443 -0.0879
  248POPC   C4A 3345   9.743   2.630   6.324 -0.2807 -0.3620  0.0845
  248POPC   C1B 3346   9.085   3.324   5.421  0.0260  0.0414 -0.0570
  248POPC   C2B 3347   9.122   3.544   5.856 -0.3201 -0.2207 -0.0862
  248POPC   C3B 3348   9.267   3.707   6.214 -0.0638 -0.2655 -0.0423
  248POPC   C4B 3349   9.622   3.576   6.562  0.1874 -0.3065  0.0035
  249POPC   NC3 3350   8.349   4.624   4.618 -0.4757  0.3822 -0.1870
  249POPC   PO4 3351   7.954   4.430   4.671 -0.2543 -0.1788 -0.1658
  249POPC   GL1 3352   8.116   4.296   4.932  0.2412  0.2052 -0.1593
  249POPC   GL2 3353   8.039   3.955   4.967  0.1434 -0.3555  0.0569
  249POPC   C1A 3354   8.178   4.268   5.389 -0.1459  0.0796  0.2693
  249POPC   D2A 3355   7.957   4.079   5.681  0.2469 -0.0854  0.0122
  249POPC   C3A 3356   8.041   4.116   6.144 -0.0832  0.0733 -0.1430
  249POPC   C4A 3357   8.130   3.946   6.588 -0.1957  0.0257 -0.3373
  249POPC   C1B 3358   8.254   3.671   5.221  0.2004 -0.1088  0.0787
  249POPC   C2B 3359   8.057   3.346   5.482  0.3386 -0.0584  0.1799
  249POPC   C3B 3360   7.977   3.229   5.833  0.0849 -0.1829 -0.1422
  249POPC   C4B 3361   8.010   3.000   6.253  0.1834 -0.0053 -0.0156
  250POPC   NC3 3362   0.887   8.413   4.649 -0.0494  0.0863  0.2845
  250POPC   PO4 3363   0.686   8.091   4.634  0.3086  0.4106  0.0724
  250POPC   GL1 3364   0.581   8.146   5.011 -0.1140  0.0252 -0.0711
  250POPC   GL2 3365   0.669   8.493   5.137 -0.0308  0.0846  0.2990
  250POPC   C1A 3366   0.633   7.922   5.270 -0.1812  0.2606 -0.0075
  250POPC   D2A 3367   0.485   7.444   5.232 -0.1349 -0.1901 -0.0040
  250POPC   C3A 3368   0.277   7.250   5.583  0.0061 -0.5574  0.2936
  250POPC   C4A 3369   0.301   6.857   5.641  0.1107 -0.1172  0.0725
  250POPC   C1B 3370   0.523   8.374   5.495 -0.0363  0.2258  0.0307
  250POPC   C2B 3371   0.460   8.243   5.839 -0.1134  0.1478  0.3355
  250POPC   C3B 3372   0.297   8.222   6.301 -0.4227 -0.0138 -0.2785
  250POPC   C4B 3373   0.347   8.256   6.725 -0.0366  0.4174  0.0728
  251POPC   NC3 3374   3.302   1.574   4.186  0.1344  0.3361  0.1031
  251POPC   PO4 3375   3.214   1.273   4.588 -0.2488  0.2720  0.2336
  251POPC   GL1 3376   2.937   1.579   4.834  0.1208 -0.0525  0.1679
  251POPC   GL2 3377   2.615   1.553   4.648  0.0275  0.3321  0.5093
  251POPC   C1A 3378   2.947   1.655   5.239  0.0814 -0.0015  0.0513
  251POPC   D2A 3379   2.615   1.780   5.515  0.0740  0.0708  0.1178
  251POPC   C3A 3380   2.622   2.030   5.923 -0.0285 -0.0048 -0.3656
  251POPC   C4A 3381   2.699   2.221   6.199  0.2835  0.3901 -0.1646
  251POPC   C1B 3382   2.543   1.358   5.110 -0.0186  0.1928 -0.1144
  251POPC   C2B 3383   2.714   1.283   5.532 -0.1865  0.1262 -0.2529
  251POPC   C3B 3384   2.901   1.466   5.889  0.0984 -0.0059 -0.1497
  251POPC   C4B 3385   3.208   1.353   6.337  0.1676  0.0081  0.2363
  252POPC   NC3 3386   0.100   4.795   4.302  0.0113  0.3327  0.2698
  252POPC   PO4 3387   0.026   5.269   4.240 -0.0196  0.0557  0.2041
  252POPC   GL1 3388   0.236   5.204   4.623  0.2616 -0.2754 -0.3520
  252POPC   GL2 3389   0.260   5.424   4.760  0.1270  0.0068 -0.1059
  252POPC   C1A 3390   0.416   4.845   4.857 -0.2870 -0.1706 -0.2368
  252POPC   D2A 3391   0.244   4.623   5.232  0.2243 -0.1783 -0.0408
  252POPC   C3A 3392   0.329   4.202   5.292  0.1146  0.0663 -0.1485
  252POPC   C4A 3393   0.406   3.857   5.726 -0.1470 -0.0964  0.0541
  252POPC   C1B 3394   0.185   5.196   5.151 -0.1043 -0.0541  0.0239
  252POPC   C2B 3395   0.127   4.950   5.617  0.1127 -0.0829  0.0461
  252POPC   C3B 3396   0.350   4.785   5.936  0.0715 -0.1935  0.1371
  252POPC   C4B 3397   0.661   5.109   6.164  0.1209 -0.1031  0.0012
  253POPC   NC3 3398   8.083   5.396   4.750 -0.0780  0.5272  0.2690
  253POPC   PO4 3399   8.079   5.036   4.480 -0.0865 -0.0798  0.0094
  253POPC   GL1 3400   8.022   4.874   4.927  0.0336  0.0549 -0.1875
  253POPC   GL2 3401   8.438   5.028   4.876 -0.0358 -0.1514  0.1539
  253POPC   C1A 3402   8.006   4.739   5.383  0.1093  0.2259 -0.2204
  253POPC   D2A 3403   7.867   4.569   5.747  0.0075 -0.0644 -0.0566
  253POPC   C3A 3404   8.057   4.710   6.135  0.1190 -0.0018  0.5456
  253POPC   C4A 3405   8.365   4.888   6.366 -0.0697  0.0678  0.2830
  253POPC   C1B 3406   8.501   4.849   5.389  0.1771 -0.0250 -0.1101
  253POPC   C2B 3407   8.475   4.798   5.800  0.2387  0.2236  0.0311
  253POPC   C3B 3408   8.835   4.871   6.109 -0.1541 -0.3937 -0.0864
  253POPC   C4B 3409   9.135   4.622   6.342 -0.0632 -0.2713  0.2165
  254POPC   NC3 3410   5.041   7.419   4.645  0.0202 -0.2332  0.0611
  254POPC   PO4 3411   5.378   7.695   4.792 -0.2003 -0.3138 -0.0784
  254POPC   GL1 3412   5.679   7.722   5.092  0.2519 -0.1017 -0.1397
  254POPC   GL2 3413   5.906   7.832   4.941 -0.1444 -0.1067 -0.0758
  254POPC   C1A 3414   5.696   7.473   5.401  0.0074  0.1514  0.1633
  254POPC   D2A 3415   5.723   7.344   5.865  0.0377 -0.2229  0.5498
  254POPC   C3A 3416   5.872   7.540   6.202 -0.1605 -0.2376 -0.1010
  254POPC   C4A 3417   6.164   7.823   6.192  0.1405  0.2306 -0.0137
  254POPC   C1B 3418   5.965   7.979   5.378  0.0194  0.0241  0.0576
  254POPC   C2B 3419   5.831   7.916   5.834  0.2463  0.0451  0.1515
  254POPC   C3B 3420   5.428   7.866   6.159  0.0666 -0.0114  0.3226
  254POPC   C4B 3421   5.386   8.345   6.386 -0.1112  0.0584  0.0169
  255POPC   NC3 3422   7.343   3.864   4.468 -0.2733  0.2296 -0.1805
  255POPC   PO4 3423   7.245   3.470   4.282 -0.1649 -0.0585  0.2412
  255POPC   GL1 3424   7.299   3.416   4.759  0.2799  0.1990  0.0477
  255POPC   GL2 3425   7.318   3.632   4.950  0.0273  0.2271  0.0091
  255POPC   C1A 3426   7.049   3.222   5.024  0.0373  0.1027 -0.5395
  255POPC   D2A 3427   6.755   3.156   5.411 -0.0865  0.2484  0.2968
  255POPC   C3A 3428   6.312   3.221   5.546  0.3996  0.2222 -0.4974
  255POPC   C4A 3429   5.875   3.453   5.735 -0.0457 -0.1856 -0.3634
  255POPC   C1B 3430   7.263   3.961   5.096 -0.0716  0.1281  0.0502
  255POPC   C2B 3431   7.145   4.411   5.288 -0.0999 -0.0797 -0.0427
  255POPC   C3B 3432   7.303   4.599   5.704 -0.2141 -0.2662  0.2356
  255POPC   C4B 3433   7.449   4.894   6.040 -0.1406  0.1140 -0.0960
  256POPC   NC3 3434   1.044   5.210   3.322  0.1925  0.0068 -0.1647
  256POPC   PO4 3435   0.979   5.429   3.641 -0.0397 -0.0768  0.0160
  256POPC   GL1 3436   1.345   5.359   3.767  0.2072 -0.0841 -0.1854
  256POPC   GL2 3437   1.517   5.705   3.941 -0.2111  0.1210 -0.1037
  256POPC   C1A 3438   1.754   5.383   3.714 -0.0598  0.0068  0.2686
  256POPC   D2A 3439   2.118   5.295   4.102 -0.3443 -0.0487 -0.0068
  256POPC   C3A 3440   2.548   5.441   4.122  0.0346  0.1893  0.3005
  256POPC   C4A 3441   2.807   5.789   3.999 -0.0186  0.3406  0.3541
  256POPC   C1B 3442   1.897   5.734   4.224 -0.2908  0.0124  0.1530
  256POPC   C2B 3443   2.029   5.741   4.567 -0.0254 -0.0333 -0.1191
  256POPC   C3B 3444   2.351   5.996   4.801 -0.3642 -0.1149 -0.4731
  256POPC   C4B 3445   2.792   5.902   4.954 -0.0555 -0.2522 -0.1117
  257POPC   NC3 3446   5.816   1.795   3.887  0.0336  0.2383  0.0265
  257POPC   PO4 3447   5.524   1.899   4.255  0.1604 -0.4550 -0.0169
  257POPC   GL1 3448   5.335   2.172   4.665  0.1270 -0.0783  0.1638
  257POPC   GL2 3449   5.628   2.375   4.696 -0.1759 -0.1804  0.3355
  257POPC   C1A 3450   5.233   2.497   4.905 -0.2837  0.0054  0.3602
  257POPC   D2A 3451   4.914   2.749   5.120 -0.1061  0.1537 -0.0469
  257POPC   C3A 3452   4.582   2.698   5.233 -0.0877  0.1362 -0.0697
  257POPC   C4A 3453   4.267   2.912   5.075 -0.1741 -0.1891  0.0113
  257POPC   C1B 3454   5.496   2.098   5.084  0.1174 -0.1479 -0.1519
  257POPC   C2B 3455   5.234   1.850   5.190 -0.3531  0.1250 -0.1604
  257POPC   C3B 3456   4.916   1.588   5.387  0.1043 -0.0828 -0.2304
  257POPC   C4B 3457   4.657   1.517   5.084  0.1492 -0.0382  0.0690
  258POPC   NC3 3458   8.992   6.335   4.554  0.2295 -0.2109  0.2013
  258POPC   PO4 3459   8.814   6.021   4.687  0.3147 -0.3000 -0.2382
  258POPC   GL1 3460   8.835   6.189   4.994  0.0070 -0.1318 -0.3389
  258POPC   GL2 3461   8.481   6.296   5.108  0.2853 -0.0159 -0.0322
  258POPC   C1A 3462   8.869   6.098   5.467 -0.2269 -0.0671 -0.0469
  258POPC   D2A 3463   8.969   5.749   5.764  0.0356 -0.0818 -0.1179
  258POPC   C3A 3464   9.309   5.723   6.071  0.1666  0.3453  0.0521
  258POPC   C4A 3465   9.435   5.495   6.289 -0.1849 -0.2129  0.0354
  258POPC   C1B 3466   8.426   6.405   5.534 -0.2617  0.0947  0.2186
  258POPC   C2B 3467   8.402   6.496   5.874  0.1036 -0.3501  0.0228
  258POPC   C3B 3468   8.399   6.549   6.347  0.1309  0.0480 -0.1125
  258POPC   C4B 3469   8.211   6.424   6.773 -0.2908  0.0266 -0.2842
  259POPC   NC3 3470   2.036   7.971   3.825  0.1369 -0.0226 -0.0177
  259POPC   PO4 3471   2.101   7.739   4.152 -0.1787  0.1952 -0.2473
  259POPC   GL1 3472   1.889   7.760   4.536  0.2455  0.0613 -0.0149
  259POPC   GL2 3473   1.597   7.674   4.570  0.1485  0.0378 -0.2377
  259POPC   C1A 3474   1.828   7.930   4.940  0.1269  0.1077 -0.1848
  259POPC   D2A 3475   1.944   8.268   5.052 -0.3352 -0.0983  0.0703
  259POPC   C3A 3476   2.368   8.285   5.474  0.0279 -0.0469 -0.0261
  259POPC   C4A 3477   2.389   8.028   5.887 -0.0107 -0.0446  0.1884
  259POPC   C1B 3478   1.390   7.667   4.957 -0.0685 -0.0086  0.0387
  259POPC   C2B 3479   1.613   7.630   5.431  0.1662 -0.0364  0.0461
  259POPC   C3B 3480   1.623   7.535   5.933  0.1444  0.3164 -0.1063
  259POPC   C4B 3481   1.409   7.620   6.302  0.0507  0.1658  0.2899
  260POPC   NC3 3482   2.742   5.664   2.463 -0.1149  0.1478  0.1340
  260POPC   PO4 3483   2.742   5.634   2.968 -0.5205  0.1880 -0.1370
  260POPC   GL1 3484   2.634   5.534   3.395 -0.3359 -0.0233 -0.0282
  260POPC   GL2 3485   2.499   5.294   3.347  0.3133  0.2229 -0.0062
  260POPC   C1A 3486   2.829   5.377   3.707 -0.0037  0.0294 -0.0734
  260POPC   D2A 3487   3.175   5.139   3.691 -0.1777 -0.0848 -0.3244
  260POPC   C3A 3488   2.892   4.848   3.931 -0.0499 -0.0054  0.3397
  260POPC   C4A 3489   3.004   4.543   4.220  0.2899  0.0242 -0.1000
  260POPC   C1B 3490   2.755   4.981   3.424 -0.0143  0.0373 -0.2692
  260POPC   C2B 3491   2.622   4.625   3.615 -0.3858  0.2155 -0.2265
  260POPC   C3B 3492   2.822   4.196   3.797  0.5531  0.0179 -0.1031
  260POPC   C4B 3493   3.043   4.026   4.074  0.1204  0.1597  0.2826
  261POPC   NC3 3494   9.430   0.428   4.471 -0.0314 -0.2700 -0.2525
  261POPC   PO4 3495   9.460  -0.005   4.678 -0.4196 -0.1100 -0.1824
  261POPC   GL1 3496   9.535  -0.105   5.167  0.2833  0.0780 -0.0824
  261POPC   GL2 3497   9.746   0.110   5.227 -0.1281  0.2202  0.1659
  261POPC   C1A 3498   9.385   0.090   5.613  0.0214 -0.0681  0.1937
  261POPC   D2A 3499   9.205   0.356   5.828 -0.0251 -0.0934  0.3940
  261POPC   C3A 3500   9.226   0.199   6.172  0.3285  0.0368 -0.1459
  261POPC   C4A 3501   9.306  -0.096   6.509 -0.2631  0.0840  0.1054
  261POPC   C1B 3502   9.860   0.187   5.606 -0.4029  0.0728  0.0570
  261POPC   C2B 3503   9.717   0.416   6.012 -0.1295 -0.0089 -0.1480
  261POPC   C3B 3504   9.899   0.440   6.391  0.2117 -0.2595  0.1674
  261POPC   C4B 3505  10.117   0.381   6.767  0.3175 -0.1685 -0.0350
  262POPC   NC3 3506   2.383   1.028   4.573  0.0451 -0.1158  0.0128
  262POPC   PO4 3507   2.384   0.608   4.647  0.1482  0.1551 -0.0230
  262POPC   GL1 3508   2.346   0.828   5.014  0.2210  0.0375 -0.0353
  262POPC   GL2 3509   2.182   0.998   5.163  0.1296 -0.1017 -0.0813
  262POPC   C1A 3510   2.648   0.741   5.493 -0.2973 -0.1561  0.1448
  262POPC   D2A 3511   2.827   0.867   5.870  0.0713 -0.0115  0.0161
  262POPC   C3A 3512   3.195   0.999   6.004  0.0904  0.1332  0.1140
  262POPC   C4A 3513   3.569   0.688   6.033 -0.1581 -0.0753  0.1135
  262POPC   C1B 3514   2.197   0.935   5.614  0.0052  0.1697  0.0539
  262POPC   C2B 3515   2.450   1.190   5.942 -0.4952 -0.1484 -0.3231
  262POPC   C3B 3516   2.581   1.459   6.273  0.1692  0.0628  0.0192
  262POPC   C4B 3517   2.879   1.721   6.495  0.1134  0.1860 -0.0098
  263POPC   NC3 3518   5.141   9.179   4.745  0.0159  0.2097  0.4675
  263POPC   PO4 3519   5.399   8.890   4.905  0.0968 -0.1629 -0.2858
  263POPC   GL1 3520   5.659   8.762   5.231 -0.0769 -0.1800 -0.2433
  263POPC   GL2 3521   5.470   9.030   5.430  0.2113  0.0205  0.1970
  263POPC   C1A 3522   5.630   8.392   5.551  0.2225  0.0278  0.1365
  263POPC   D2A 3523   5.317   8.288   5.876  0.1451  0.2568  0.0171
  263POPC   C3A 3524   4.978   8.066   5.691  0.0630  0.0153  0.1459
  263POPC   C4A 3525   4.529   8.188   5.583 -0.2672  0.0148  0.4432
  263POPC   C1B 3526   5.458   8.824   5.852 -0.1549 -0.1693  0.1589
  263POPC   C2B 3527   5.769   8.502   6.053 -0.0982 -0.0855  0.0981
  263POPC   C3B 3528   5.818   8.154   6.295 -0.0662  0.1129 -0.1442
  263POPC   C4B 3529   6.058   7.933   6.649  0.3030  0.0120 -0.0921
  264POPC   NC3 3530   7.687   9.311   4.132  0.0339 -0.3129 -0.1177
  264POPC   PO4 3531   7.524   9.356   4.491  0.0245  0.4479 -0.0714
  264POPC   GL1 3532   7.418   9.365   4.925 -0.0169  0.0549 -0.2086
  264POPC   GL2 3533   7.334   9.676   5.046 -0.1995 -0.1371  0.2575
  264POPC   C1A 3534   7.759   9.491   5.297 -0.1542  0.3496  0.1914
  264POPC   D2A 3535   8.053   9.741   5.505 -0.0921 -0.1112  0.2691
  264POPC   C3A 3536   8.202   9.607   5.899 -0.0473  0.1400 -0.0390
  264POPC   C4A 3537   8.406   9.458   6.265  0.0164  0.3175  0.0093
  264POPC   C1B 3538   7.239  10.014   5.319  0.2822  0.0713 -0.1305
  264POPC   C2B 3539   7.326  10.386   5.467  0.1008 -0.0554 -0.0214
  264POPC   C3B 3540   7.196  10.724   5.821 -0.1863  0.1561 -0.0689
  264POPC   C4B 3541   6.817  10.673   6.022  0.0733  0.0044 -0.0733
  265POPC   NC3 3542   4.669   9.496   4.596  0.0847  0.0722  0.0127
  265POPC   PO4 3543   4.605   9.001   4.608 -0.0161 -0.1188  0.0177
  265POPC   GL1 3544   4.566   9.119   5.009 -0.3825 -0.1963 -0.2569
  265POPC   GL2 3545   4.398   9.013   5.217 -0.2381 -0.1318  0.0357
  265POPC   C1A 3546   4.931   9.042   5.362  0.1986 -0.2189  0.1283
  265POPC   D2A 3547   4.949   9.059   5.689  0.0521  0.0963  0.1948
  265POPC   C3A 3548   5.173   9.130   6.088  0.2861  0.1358  0.0887
  265POPC   C4A 3549   5.600   9.152   6.208  0.0001 -0.2280  0.0456
  265POPC   C1B 3550   4.483   8.773   5.528  0.1568  0.2669  0.2804
  265POPC   C2B 3551   4.493   8.549   5.948 -0.0912 -0.0348 -0.0379
  265POPC   C3B 3552   4.617   8.140   6.193 -0.1786 -0.1663 -0.1357
  265POPC   C4B 3553   4.983   8.061   6.421  0.0860  0.1754  0.1662
  266POPC   NC3 3554   9.199   4.379   4.415 -0.1186  0.1166  0.0044
  266POPC   PO4 3555   8.743   4.412   4.313 -0.0588 -0.1187  0.1812
  266POPC   GL1 3556   8.784   4.254   4.750  0.0025  0.1081  0.0570
  266POPC   GL2 3557   8.673   4.552   5.029  0.0855  0.0944 -0.1822
  266POPC   C1A 3558   9.077   4.130   5.135  0.0240 -0.0493  0.1644
  266POPC   D2A 3559   8.812   3.836   5.471  0.0860 -0.0430 -0.1782
  266POPC   C3A 3560   8.890   4.012   5.955 -0.0880 -0.4177  0.1968
  266POPC   C4A 3561   9.039   4.155   6.295 -0.3207 -0.1832  0.1025
  266POPC   C1B 3562   8.709   4.353   5.473 -0.0350  0.1577  0.1911
  266POPC   C2B 3563   8.440   4.195   5.801  0.0950 -0.0042 -0.3205
  266POPC   C3B 3564   8.475   3.899   6.148 -0.4108  0.2451  0.0030
  266POPC   C4B 3565   8.614   3.668   6.534 -0.3788  0.0904 -0.0395
  267POPC   NC3 3566   4.746   8.340   4.327  0.1122  0.2235  0.3644
  267POPC   PO4 3567   4.391   8.037   4.433  0.1676  0.4249 -0.4168
  267POPC   GL1 3568   4.540   8.017   4.815  0.1382 -0.0203  0.3159
  267POPC   GL2 3569   4.851   8.215   4.808 -0.0888  0.1809 -0.2475
  267POPC   C1A 3570   4.441   8.032   5.129 -0.3031  0.1577  0.0699
  267POPC   D2A 3571   4.050   8.035   5.305  0.1224  0.0694 -0.3163
  267POPC   C3A 3572   4.048   7.867   5.671  0.0741 -0.2655  0.0415
  267POPC   C4A 3573   4.146   8.036   6.093 -0.1137 -0.4463  0.2389
  267POPC   C1B 3574   4.955   8.153   5.159  0.0270  0.2378  0.1896
  267POPC   C2B 3575   4.981   7.683   5.276  0.0111 -0.0529  0.0189
  267POPC   C3B 3576   4.879   7.383   5.642  0.0568 -0.4347  0.1604
  267POPC   C4B 3577   4.495   7.213   5.771 -0.0175  0.0261  0.2598
  268POPC   NC3 3578   1.868   1.895   4.332  0.0860  0.0439 -0.0943
  268POPC   PO4 3579   2.130   1.495   4.531  0.0389 -0.1240 -0.1255
  268POPC   GL1 3580   2.037   1.648   5.023 -0.1588 -0.3478 -0.1101
  268POPC   GL2 3581   1.724   1.540   5.105  0.0670 -0.0263  0.2345
  268POPC   C1A 3582   2.217   1.509   5.444  0.2007  0.0966 -0.2061
  268POPC   D2A 3583   2.235   1.653   5.993  0.3515 -0.0639  0.0748
  268POPC   C3A 3584   2.342   1.845   6.376 -0.5175 -0.2825  0.2156
  268POPC   C4A 3585   2.492   1.735   6.761 -0.0409  0.0013  0.3028
  268POPC   C1B 3586   1.775   1.248   5.455 -0.1946 -0.0149  0.1522
  268POPC   C2B 3587   1.861   1.180   5.859  0.0479 -0.3782 -0.0926
  268POPC   C3B 3588   1.622   1.136   6.270 -0.2361 -0.0854  0.2717
  268POPC   C4B 3589   1.643   0.782   6.454 -0.1383 -0.0130  0.0950
  269POPC   NC3 3590   5.278   3.146   3.962 -0.0607  0.1329 -0.3599
  269POPC   PO4 3591   5.350   2.828   4.221  0.0567 -0.2181 -0.4702
  269POPC   GL1 3592   5.156   2.910   4.586  0.3182 -0.1006 -0.3807
  269POPC   GL2 3593   4.948   3.131   4.334  0.2794  0.3575  0.3336
  269POPC   C1A 3594   4.855   2.729   4.623  0.2666  0.0231 -0.0378
  269POPC   D2A 3595   4.481   2.573   4.789  0.2100  0.0504  0.3052
  269POPC   C3A 3596   4.017   2.810   4.691 -0.0429 -0.4837  0.0742
  269POPC   C4A 3597   3.901   3.102   4.507  0.2478 -0.1790 -0.2808
  269POPC   C1B 3598   4.833   3.521   4.551  0.1159  0.1029 -0.0008
  269POPC   C2B 3599   4.579   3.610   4.948 -0.1227 -0.2532  0.0638
  269POPC   C3B 3600   4.224   3.455   4.967  0.0597 -0.0902 -0.1475
  269POPC   C4B 3601   3.762   3.224   4.972  0.0708  0.1719  0.0749
  270POPC   NC3 3602   8.123   9.469   4.494  0.1645  0.0059  0.1241
  270POPC   PO4 3603   8.388   9.130   4.747 -0.0298 -0.2934 -0.2617
  270POPC   GL1 3604   8.318   9.058   5.143  0.3368 -0.1065  0.2491
  270POPC   GL2 3605   8.480   8.770   5.135 -0.0716 -0.2141  0.1412
  270POPC   C1A 3606   8.165   9.165   5.516 -0.1781 -0.0106  0.3233
  270POPC   D2A 3607   8.162   9.095   5.882  0.1264  0.0182  0.0685
  270POPC   C3A 3608   7.935   9.265   6.213 -0.0185 -0.0838 -0.0693
  270POPC   C4A 3609   8.120   9.461   6.656 -0.2213 -0.0428  0.0607
  270POPC   C1B 3610   8.172   8.541   5.498 -0.2672  0.2190 -0.1459
  270POPC   C2B 3611   8.252   8.398   5.956  0.3043  0.3612  0.1696
  270POPC   C3B 3612   8.461   8.019   5.989 -0.2367 -0.0526 -0.6463
  270POPC   C4B 3613   8.823   7.845   5.833  0.0600 -0.2597 -0.0208
  271POPC   NC3 3614   8.019   6.998   4.342 -0.0937 -0.2362 -0.0674
  271POPC   PO4 3615   8.380   7.046   4.564  0.1739  0.1967 -0.1089
  271POPC   GL1 3616   8.376   6.761   4.832  0.0598  0.0622 -0.1026
  271POPC   GL2 3617   8.644   6.822   5.117  0.1182 -0.0466 -0.2437
  271POPC   C1A 3618   8.190   6.738   5.254  0.3267 -0.0306  0.0162
  271POPC   D2A 3619   7.878   6.518   5.650 -0.2814  0.1378  0.0163
  271POPC   C3A 3620   7.908   6.563   6.065  0.0317 -0.0781 -0.0458
  271POPC   C4A 3621   7.757   6.603   6.473 -0.1463 -0.0877  0.0726
  271POPC   C1B 3622   8.584   6.915   5.580  0.0789  0.1155  0.0379
  271POPC   C2B 3623   8.859   6.876   6.008  0.1191  0.1833 -0.2250
  271POPC   C3B 3624   8.920   6.456   6.311  0.0596 -0.3612  0.1321
  271POPC   C4B 3625   9.165   6.153   5.993  0.3305 -0.1058 -0.0899
  272POPC   NC3 3626   5.868   4.929   4.743 -0.1100 -0.0809  0.2238
  272POPC   PO4 3627   5.781   4.536   4.681  0.1598  0.1258  0.3970
  272POPC   GL1 3628   5.749   4.542   5.105  0.2990  0.0001 -0.0605
  272POPC   GL2 3629   6.091   4.576   5.194 -0.2435  0.0174  0.0480
  272POPC   C1A 3630   5.564   4.796   5.426 -0.0035 -0.0640  0.0828
  272POPC   D2A 3631   5.701   5.173   5.665  0.0306 -0.1539  0.1651
  272POPC   C3A 3632   5.996   5.312   5.881  0.0922 -0.2644 -0.0562
  272POPC   C4A 3633   6.328   5.505   5.681 -0.1917  0.0737 -0.1834
  272POPC   C1B 3634   6.169   4.355   5.500  0.0775 -0.1047 -0.1799
  272POPC   C2B 3635   6.259   4.226   5.876 -0.0429 -0.4144  0.0866
  272POPC   C3B 3636   6.393   3.952   6.227  0.1318 -0.0026  0.2840
  272POPC   C4B 3637   6.681   3.817   6.600 -0.1255  0.2639  0.0441
  273POPC   NC3 3638   4.599   4.301   4.013  0.1712  0.2413  0.0227
  273POPC   PO4 3639   4.903   4.104   4.132 -0.2278  0.0298  0.2520
  273POPC   GL1 3640   4.717   3.997   4.454  0.1189 -0.1860 -0.1042
  273POPC   GL2 3641   4.965   4.239   4.602  0.0766  0.0332 -0.0185
  273POPC   C1A 3642   4.437   4.093   4.797 -0.2526  0.0313 -0.0963
  273POPC   D2A 3643   4.138   4.023   5.199 -0.3011  0.1017  0.1459
  273POPC   C3A 3644   4.095   3.659   5.432 -0.1711  0.0242  0.0746
  273POPC   C4A 3645   4.051   3.139   5.440  0.0488 -0.1182 -0.1027
  273POPC   C1B 3646   4.928   3.968   4.951 -0.5873 -0.0160  0.2261
  273POPC   C2B 3647   5.015   3.501   5.213 -0.1377  0.2053 -0.1256
  273POPC   C3B 3648   5.052   3.152   5.600 -0.1258 -0.0872  0.1465
  273POPC   C4B 3649   5.218   3.152   6.043 -0.0397  0.0855 -0.1431
  274POPC   NC3 3650   8.627   2.592   4.376  0.2001  0.1070  0.0485
  274POPC   PO4 3651   9.010   2.435   4.189 -0.1211 -0.1578  0.1780
  274POPC   GL1 3652   9.006   2.457   4.697  0.0143  0.2968 -0.0896
  274POPC   GL2 3653   9.308   2.292   4.735 -0.1489  0.0456  0.0394
  274POPC   C1A 3654   8.890   2.362   5.140  0.0310  0.1348 -0.0181
  274POPC   D2A 3655   8.751   2.026   5.480  0.1774  0.1487 -0.4004
  274POPC   C3A 3656   8.321   2.109   5.667 -0.1004 -0.0263 -0.1052
  274POPC   C4A 3657   7.952   2.133   5.927  0.1749  0.0845  0.1395
  274POPC   C1B 3658   9.289   2.063   5.192 -0.1779  0.1335  0.1851
  274POPC   C2B 3659   9.481   1.993   5.710  0.1474  0.0146  0.0494
  274POPC   C3B 3660   9.376   1.764   6.150  0.1236 -0.1167  0.1019
  274POPC   C4B 3661   9.282   1.387   6.394 -0.1899  0.0200 -0.1875
  275POPC   NC3 3662   6.248   7.159   4.697  0.0549 -0.0236 -0.0065
  275POPC   PO4 3663   6.722   7.226   4.780 -0.2422 -0.0289  0.0370
  275POPC   GL1 3664   6.464   6.991   5.081 -0.1642 -0.0524  0.3200
  275POPC   GL2 3665   6.124   6.937   5.243  0.0028  0.4100 -0.0803
  275POPC   C1A 3666   6.502   6.867   5.487 -0.3102  0.1652 -0.0323
  275POPC   D2A 3667   6.413   6.917   5.955 -0.1837 -0.0350  0.0720
  275POPC   C3A 3668   6.458   6.501   6.234  0.2939  0.1129  0.2830
  275POPC   C4A 3669   6.580   6.207   6.631  0.0640  0.2374 -0.4454
  275POPC   C1B 3670   6.074   7.027   5.659  0.2137 -0.1641 -0.0581
  275POPC   C2B 3671   5.912   6.997   6.141 -0.2671 -0.0895  0.2369
  275POPC   C3B 3672   5.806   6.803   6.516 -0.1043  0.0450 -0.0235
  275POPC   C4B 3673   5.395   6.671   6.603 -0.0613  0.1859  0.0882
  276POPC   NC3 3674   8.674   7.842   4.854 -0.2632  0.3926  0.1130
  276POPC   PO4 3675   8.223   7.758   4.985  0.0344  0.1515 -0.1381
  276POPC   GL1 3676   7.968   7.622   5.242  0.3180 -0.3913  0.0506
  276POPC   GL2 3677   7.707   7.880   5.378 -0.0767 -0.2224 -0.2785
  276POPC   C1A 3678   7.977   7.346   5.527 -0.0166  0.1884  0.0115
  276POPC   D2A 3679   8.110   6.975   5.780  0.3988  0.1322  0.3499
  276POPC   C3A 3680   8.399   6.988   6.068 -0.1488 -0.1654 -0.0805
  276POPC   C4A 3681   8.672   7.025   6.456 -0.2515 -0.0579 -0.1351
  276POPC   C1B 3682   7.331   8.007   5.503 -0.2488  0.1049 -0.1205
  276POPC   C2B 3683   7.060   8.106   5.681  0.3673  0.2054  0.0160
  276POPC   C3B 3684   6.732   8.280   6.060 -0.4531  0.2807 -0.2173
  276POPC   C4B 3685   6.749   7.952   6.285 -0.2556 -0.1589 -0.2175
  277POPC   NC3 3686   0.058   5.802   4.558  0.3113 -0.0892 -0.0780
  277POPC   PO4 3687  -0.224   6.142   4.526  0.0194  0.0832 -0.0412
  277POPC   GL1 3688  -0.352   6.236   4.949  0.1231 -0.0384  0.0205
  277POPC   GL2 3689  -0.392   6.142   5.255  0.0658 -0.2708  0.1876
  277POPC   C1A 3690  -0.377   6.635   5.178 -0.3234 -0.2820  0.3140
  277POPC   D2A 3691  -0.654   6.830   5.503  0.0443  0.1672 -0.1514
  277POPC   C3A 3692  -0.845   6.508   5.744 -0.1970  0.1485 -0.1093
  277POPC   C4A 3693  -1.037   6.123   6.025  0.0905  0.0416  0.0364
  277POPC   C1B 3694  -0.276   5.933   5.685 -0.3068 -0.1762  0.2114
  277POPC   C2B 3695  -0.101   6.182   6.129  0.2135  0.1099 -0.0484
  277POPC   C3B 3696  -0.136   6.450   6.523  0.1004  0.0157  0.1720
  277POPC   C4B 3697  -0.445   6.370   6.885  0.3369 -0.0408  0.0269
  278POPC   NC3 3698   9.609   1.399   4.399  0.0716  0.2731  0.0001
  278POPC   PO4 3699   9.830   1.728   4.636  0.1975  0.0153  0.1000
  278POPC   GL1 3700   9.707   1.828   5.014 -0.1196  0.2101  0.0856
  278POPC   GL2 3701   9.838   2.010   5.266 -0.0832 -0.2672 -0.1725
  278POPC   C1A 3702   9.618   1.631   5.412  0.2146  0.2835  0.0710
  278POPC   D2A 3703   9.814   1.642   5.911 -0.2107 -0.2499 -0.2029
  278POPC   C3A 3704   9.747   1.349   6.212 -0.1927  0.2500 -0.0470
  278POPC   C4A 3705   9.629   1.039   6.558 -0.2441  0.1157  0.0102
  278POPC   C1B 3706  10.190   1.999   5.343  0.0901 -0.2052  0.1574
  278POPC   C2B 3707  10.500   2.211   5.490 -0.1439  0.0258 -0.0961
  278POPC   C3B 3708  10.641   2.286   5.912  0.0316  0.2380 -0.0752
  278POPC   C4B 3709  10.769   2.497   6.423 -0.0363  0.0575  0.0952
  279POPC   NC3 3710   0.445   1.362   4.594 -0.0206 -0.1261 -0.0140
  279POPC   PO4 3711   0.198   1.285   4.935  0.0400  0.0423 -0.1054
  279POPC   GL1 3712   0.383   1.461   5.212 -0.0280 -0.2003  0.0145
  279POPC   GL2 3713   0.505   1.723   4.964 -0.0895 -0.1437  0.0643
  279POPC   C1A 3714   0.517   1.578   5.622 -0.2768 -0.0655 -0.0363
  279POPC   D2A 3715   0.488   1.302   5.966  0.3059 -0.3643  0.0961
  279POPC   C3A 3716   0.864   1.510   6.171  0.0642  0.0515  0.2945
  279POPC   C4A 3717   1.188   1.536   6.433  0.0624 -0.0504  0.2942
  279POPC   C1B 3718   0.882   1.722   5.276  0.5459  0.2100  0.0270
  279POPC   C2B 3719   0.996   1.799   5.700 -0.1788  0.3647  0.1031
  279POPC   C3B 3720   1.127   1.901   6.127  0.1796  0.0266  0.0020
  279POPC   C4B 3721   1.367   1.974   6.550 -0.0082  0.1496  0.0741
  280POPC   NC3 3722   8.601   9.294   4.304 -0.2280  0.2350 -0.1858
  280POPC   PO4 3723   8.970   9.466   4.416 -0.0778  0.1594  0.3349
  280POPC   GL1 3724   9.000   9.416   4.880 -0.1074  0.2272 -0.0394
  280POPC   GL2 3725   8.732   9.323   5.013 -0.1322  0.1860 -0.4490
  280POPC   C1A 3726   9.008   9.677   5.294  0.2874  0.2376  0.1974
  280POPC   D2A 3727   8.969   9.637   5.793 -0.2460  0.1299  0.0463
  280POPC   C3A 3728   8.731   9.903   6.048 -0.0513 -0.0396  0.0442
  280POPC   C4A 3729   8.723  10.284   6.203 -0.2035 -0.0551 -0.3155
  280POPC   C1B 3730   8.891   9.147   5.359  0.2164  0.0057 -0.3516
  280POPC   C2B 3731   9.302   9.222   5.532  0.0036  0.0782 -0.1891
  280POPC   C3B 3732   9.364   9.336   5.924 -0.5495  0.3666  0.0628
  280POPC   C4B 3733   9.497   9.236   6.300  0.0060 -0.0159  0.2344
  281POPC   NC3 3734   4.068   2.465   3.410 -0.1326  0.3280 -0.2330
  281POPC   PO4 3735   3.693   2.749   3.626 -0.1720  0.4042 -0.2156
  281POPC   GL1 3736   3.744   2.833   4.104  0.0207  0.0077  0.2160
  281POPC   GL2 3737   3.984   2.555   4.284 -0.1129 -0.3127 -0.0012
  281POPC   C1A 3738   3.417   3.030   4.323 -0.0343  0.0576 -0.0141
  281POPC   D2A 3739   3.402   3.419   4.604  0.1988 -0.2204 -0.2325
  281POPC   C3A 3740   3.398   3.835   4.398 -0.0341 -0.0325 -0.1724
  281POPC   C4A 3741   3.461   4.218   4.178 -0.1074 -0.0110 -0.1361
  281POPC   C1B 3742   3.606   2.580   4.505  0.0348  0.2002 -0.0635
  281POPC   C2B 3743   3.431   2.951   4.829  0.2261  0.0174 -0.0091
  281POPC   C3B 3744   3.433   3.071   5.268 -0.1642 -0.0219 -0.0596
  281POPC   C4B 3745   3.595   3.502   5.442  0.0532 -0.0340  0.2881
  282POPC   NC3 3746   7.167   2.961   4.039 -0.1247  0.0016  0.0295
  282POPC   PO4 3747   7.182   2.611   4.254  0.0795  0.1607 -0.0142
  282POPC   GL1 3748   7.230   2.531   4.604 -0.0156 -0.1972 -0.2548
  282POPC   GL2 3749   7.470   2.294   4.776 -0.0340 -0.0338 -0.0845
  282POPC   C1A 3750   7.026   2.363   5.055 -0.0317 -0.0729 -0.1319
  282POPC   D2A 3751   6.901   2.343   5.499 -0.1898 -0.0606 -0.2912
  282POPC   C3A 3752   6.614   2.656   5.533  0.2661 -0.1922  0.1004
  282POPC   C4A 3753   6.405   2.877   5.183  0.1250 -0.1728 -0.1515
  282POPC   C1B 3754   7.475   2.261   5.245 -0.2930 -0.2373  0.2979
  282POPC   C2B 3755   7.442   2.347   5.568 -0.1745  0.1341  0.1412
  282POPC   C3B 3756   7.566   2.402   5.976  0.0339 -0.1850 -0.1636
  282POPC   C4B 3757   7.520   2.329   6.423 -0.0009 -0.3672  0.1322
  283POPC   NC3 3758   3.119   8.489   4.493  0.1117  0.1960  0.1548
  283POPC   PO4 3759   2.858   8.123   4.505  0.2010  0.5014  0.1511
  283POPC   GL1 3760   2.872   7.878   4.927  0.0234  0.1792  0.0508
  283POPC   GL2 3761   3.129   7.701   4.847 -0.2351  0.3210  0.3895
  283POPC   C1A 3762   3.117   8.035   5.257 -0.0557 -0.0197  0.0210
  283POPC   D2A 3763   3.296   7.980   5.652 -0.1955 -0.0423 -0.0167
  283POPC   C3A 3764   3.299   8.431   5.970  0.1249  0.0851 -0.2788
  283POPC   C4A 3765   3.409   8.702   6.330  0.0170 -0.0667  0.0811
  283POPC   C1B 3766   3.181   7.505   5.300 -0.1855 -0.2161 -0.0181
  283POPC   C2B 3767   3.102   7.508   5.715  0.1204  0.0674  0.0864
  283POPC   C3B 3768   3.312   7.620   6.112 -0.1171 -0.0782  0.1205
  283POPC   C4B 3769   3.329   7.626   6.573 -0.1606  0.1815  0.0525
  284POPC   NC3 3770   3.943   1.502   3.920  0.3547 -0.2282 -0.1949
  284POPC   PO4 3771   3.751   1.834   4.247  0.0656  0.1509  0.1354
  284POPC   GL1 3772   3.609   2.036   4.546 -0.3166 -0.0202  0.0084
  284POPC   GL2 3773   3.319   1.885   4.618  0.2307  0.1151 -0.2650
  284POPC   C1A 3774   3.610   2.284   4.914 -0.0928 -0.1106 -0.0611
  284POPC   D2A 3775   3.790   2.702   5.090  0.0062  0.3357  0.1991
  284POPC   C3A 3776   3.663   2.750   5.571 -0.0553  0.0402  0.3325
  284POPC   C4A 3777   3.692   3.085   5.836 -0.0778 -0.0262 -0.1532
  284POPC   C1B 3778   3.428   1.779   5.077 -0.1249  0.1181 -0.0532
  284POPC   C2B 3779   3.576   2.114   5.336  0.3600  0.0497  0.0898
  284POPC   C3B 3780   3.457   2.255   5.756 -0.1489 -0.0859  0.0087
  284POPC   C4B 3781   3.043   2.357   5.801 -0.1856  0.4160 -0.0532
  285POPC   NC3 3782   1.312   5.925   2.973  0.1813  0.1344 -0.2294
  285POPC   PO4 3783   1.705   5.997   3.059 -0.3194  0.0310  0.1451
  285POPC   GL1 3784   1.883   5.869   3.528  0.0098  0.1603  0.0905
  285POPC   GL2 3785   2.176   5.715   3.626 -0.1247  0.0330  0.0915
  285POPC   C1A 3786   1.774   6.111   3.930 -0.0160 -0.1673  0.3381
  285POPC   D2A 3787   1.882   6.475   4.008  0.0410 -0.0228  0.2295
  285POPC   C3A 3788   1.901   6.744   4.375 -0.4252 -0.1924  0.0533
  285POPC   C4A 3789   2.008   6.854   4.849  0.1567  0.0622 -0.2480
  285POPC   C1B 3790   2.296   5.954   4.019 -0.2106 -0.0932  0.4669
  285POPC   C2B 3791   2.256   6.263   4.378  0.1327  0.2120  0.2496
  285POPC   C3B 3792   1.962   6.337   4.637  0.0671 -0.0975  0.1976
  285POPC   C4B 3793   2.014   6.292   5.162 -0.1766  0.0959  0.1408
  286POPC   NC3 3794   2.213   7.385   3.819  0.0578 -0.1036  0.2339
  286POPC   PO4 3795   1.768   7.299   4.074 -0.2549  0.4466  0.0092
  286POPC   GL1 3796   1.834   7.224   4.472 -0.0549  0.0680 -0.1079
  286POPC   GL2 3797   1.621   7.201   4.700  0.4272 -0.2981  0.1052
  286POPC   C1A 3798   2.048   7.363   4.834 -0.1109 -0.0922  0.2064
  286POPC   D2A 3799   2.148   7.534   5.183 -0.3091 -0.0719 -0.0157
  286POPC   C3A 3800   2.362   7.983   5.054  0.3444  0.0279  0.0018
  286POPC   C4A 3801   2.728   8.312   5.130  0.2869  0.2536 -0.1438
  286POPC   C1B 3802   1.681   7.263   5.158 -0.3814 -0.0740  0.0218
  286POPC   C2B 3803   1.971   7.217   5.562  0.0883 -0.2603 -0.3189
  286POPC   C3B 3804   2.318   6.926   5.815 -0.2579  0.0748  0.3208
  286POPC   C4B 3805   2.594   6.752   6.125  0.1693  0.0942  0.1133
  287W        W 3806   3.972   9.262   9.999  0.2519  0.1809  0.1652
  288W        W 3807   0.717   9.658   9.605 -0.4305  0.0322 -0.0740
  289W        W 3808   5.996   8.195   4.196  0.0998 -0.0718  0.0686
  290W        W 3809   1.143   9.181   4.433 -0.1267  0.0310  0.1243
  291W        W 3810   4.263   5.121   0.805 -0.5585  0.1408  0.1472
  292W        W 3811   0.332   3.488  11.216  0.1424 -0.0026 -0.1762
  293W        W 3812   1.984   8.262   2.157 -0.1248  0.1744 -0.5414
  294W        W 3813   3.137   2.290   2.700  0.1893 -0.0171 -0.0271
  295W        W 3814   0.347   5.103   8.953  0.1994  0.0767 -0.2031
  296W        W 3815   7.461   2.538   0.234  0.0194 -0.3264  0.0885
  297W        W 3816   7.485   1.265   1.967 -0.3090 -0.1215  0.3235
  298W        W 3817   2.033   9.492   2.564  0.1004  0.1278 -0.0246
  299W        W 3818   4.852   3.582   1.889 -0.2157  0.1563  0.2480
  300W        W 3819   7.325   2.900  10.974 -0.0218  0.1390 -0.2340
  301W        W 3820   0.601   6.704  11.065 -0.2389  0.0670 -0.1020
  302W        W 3821   1.030   6.787   1.123  0.0196 -0.3160  0.3531
  303W        W 3822   3.128   0.860  10.811 -0.0097 -0.0025 -0.2418
  304W        W 3823   0.879   3.236   0.196  0.1242  0.0689  0.1359
  305W        W 3824   3.853   8.169  11.301 -0.1068 -0.1347 -0.1169
  306W        W 3825   4.488   5.475   3.443  0.4604 -0.0232 -0.3511
  307W        W 3826   2.938   2.756  10.554 -0.1825 -0.2722  0.1922
  308W        W 3827   6.262   2.067   9.191  0.2093  0.1744  0.1847
  309W        W 3828   3.422   8.468  11.446  0.1332  0.3672  0.0364
  310W        W 3829   8.484   4.861  11.793 -0.1167  0.1580 -0.0363
  311W        W 3830   6.481   6.193  10.207 -0.1724  0.2811 -0.0338
  312W        W 3831   7.096   0.435   1.616  0.3437 -0.0197  0.1543
  313W        W 3832   1.918   4.824  11.134  0.2419  0.0447 -0.1722
  314W        W 3833   1.980   6.431   0.068 -0.2605  0.0081  0.1659
  315W        W 3834   0.468   0.335   3.129 -0.0852 -0.1482  0.0595
  316W        W 3835   4.135   0.860   2.599 -0.0076  0.2131  0.0909
  317W        W 3836   2.170   7.271   2.295 -0.1950  0.3240  0.1661
  318W        W 3837   2.715   9.458   3.546  0.1732  0.3400 -0.0818
  319W        W 3838   8.322   6.761   1.363  0.0152 -0.0118  0.0354
  320W        W 3839   7.453   0.992  10.078  0.2382  0.2152  0.0474
  321W        W 3840   7.843   1.231  10.656 -0.2412  0.0030 -0.0491
  322W        W 3841   9.494   5.268   4.712  0.0766 -0.0094  0.2635
  323W        W 3842   2.734   5.912   1.638  0.3812 -0.2146 -0.0125
  324W        W 3843   3.965   9.286   5.104 -0.0599  0.0529 -0.2848
  325W        W 3844   4.505   8.589   3.273 -0.2352  0.4739 -0.1650
  326W        W 3845   2.724   6.461  10.031 -0.0480  0.0238  0.3455
  327W        W 3846   8.887   5.697   3.258 -0.0559  0.2254 -0.1656
  328W        W 3847   5.234   3.813   2.844 -0.2211 -0.0765 -0.1347
  329W        W 3848   8.148   6.618   0.074  0.1471 -0.0494 -0.1717
  330W        W 3849   6.644   2.789  10.460  0.0380  0.1138  0.0572
  331W        W 3850   5.502   6.683  11.803  0.0403 -0.2135  0.1776
  332W        W 3851   4.446   0.619  11.352  0.3221 -0.1228  0.1268
  333W        W 3852   6.526   2.614  11.479  0.0602  0.0575  0.0885
  334W        W 3853   3.498   1.975  11.694  0.0670 -0.2618  0.0276
  335W        W 3854   1.533   8.710  10.862  0.0138  0.1590 -0.1343
  336W        W 3855   7.669   2.002   3.547 -0.3780 -0.0559  0.1210
  337W        W 3856   7.385   7.723   1.595  0.0632  0.1656 -0.2837
  338W        W 3857   5.210   2.641   7.810  0.1526  0.0145  0.1413
  339W        W 3858   3.798   3.071   3.227  0.1475 -0.1910 -0.3149
  340W        W 3859   6.568   6.807  12.182  0.0916 -0.1130 -0.0351
  341W        W 3860   8.942   0.185   2.992  0.0988 -0.2616  0.0804
  342W        W 3861   1.924   7.087  11.247 -0.0913 -0.0601  0.0383
  343W        W 3862   4.863   9.521   0.962 -0.0837  0.0879  0.0746
  344W        W 3863   8.088   7.092  11.698 -0.0063  0.0832 -0.0391
  345W        W 3864   7.007   2.215   3.308 -0.1649  0.1797 -0.0940
  346W        W 3865   0.893   6.849   0.633 -0.1650 -0.1189  0.2090
  347W        W 3866   8.705   7.009   2.897  0.2003  0.1448  0.1253
  348W        W 3867   7.525   9.173   9.723 -0.1491  0.0466 -0.0964
  349W        W 3868   3.174   7.524   1.824  0.1458  0.1536 -0.2243
  350W        W 3869   7.666   1.450  10.231 -0.0427  0.1504 -0.0728
  351W        W 3870   7.744   8.099   0.678 -0.0795 -0.0456  0.1051
  352W        W 3871   3.695   1.509   9.052  0.0922  0.0683 -0.0451
  353W        W 3872   1.181   8.513  12.166 -0.2083 -0.3779 -0.0281
  354W        W 3873   8.135   7.126   9.685  0.1172  0.1316 -0.2863
  355W        W 3874   7.338   4.711   8.059  0.1662 -0.1729 -0.2289
  356W        W 3875   5.551   8.573   4.492 -0.1381  0.2193 -0.2905
  357W        W 3876   2.748   4.890  12.175  0.3615 -0.1469  0.1217
  358W        W 3877   7.284   5.359   1.267 -0.0134  0.0527  0.0077
  359W        W 3878   0.943   1.006   2.327 -0.1223 -0.3374 -0.0953
  360W        W 3879   0.190   8.339   1.825 -0.1850 -0.0339  0.1120
  361W        W 3880   5.884   1.274   3.031 -0.0645 -0.2103 -0.3566
  362W        W 3881   9.414   6.698  10.917 -0.0066 -0.1847  0.2273
  363W        W 3882   1.813   4.249  11.239  0.0730  0.2873  0.1909
  364W        W 3883   5.768   1.758  10.491  0.0248 -0.2521  0.1844
  365W        W 3884   8.457   5.209  10.996  0.0394 -0.3226 -0.2337
  366W        W 3885   2.392   4.630   0.051 -0.4028 -0.0570  0.2490
  367W        W 3886   6.148   8.308  10.275 -0.0033 -0.1533  0.1793
  368W        W 3887   6.557   0.329  10.781  0.0991  0.0120  0.2100
  369W        W 3888   6.591   2.777   8.604 -0.2208 -0.3001  0.0608
  370W        W 3889   4.798   1.995  11.372 -0.2388 -0.4483 -0.3033
  371W        W 3890   6.363   8.829  12.423 -0.0543  0.1725  0.1491
  372W        W 3891   0.920   1.951   1.116  0.4712 -0.1705 -0.1265
  373W        W 3892   0.758   3.964   2.651 -0.3503 -0.1495 -0.0950
  374W        W 3893   0.478   0.144   3.571  0.1437 -0.3358 -0.1966
  375W        W 3894   1.383   5.588  11.250 -0.0074 -0.2747 -0.0965
  376W        W 3895   1.737   2.268   8.776 -0.0121 -0.0122 -0.1324
  377W        W 3896   0.192   4.527   1.312  0.1734  0.4219 -0.0322
  378W        W 3897   4.194   2.949   1.784 -0.1167 -0.0771 -0.2039
  379W        W 3898   9.226   6.604   2.191  0.2769  0.2573 -0.0360
  380W        W 3899   8.854   9.027   9.800  0.0501  0.2305  0.2317
  381W        W 3900   2.892   0.377  12.001 -0.0229  0.2296 -0.0774
  382W        W 3901   0.779   8.508  11.440 -0.0639  0.0111 -0.1699
  383W        W 3902   8.286   3.632   3.283 -0.0444  0.0414 -0.1238
  384W        W 3903   9.704   0.645  10.674 -0.0166  0.0806  0.0064
  385W        W 3904   2.088   0.076  10.902  0.0398 -0.1096  0.0367
  386W        W 3905   8.565   8.967  11.635 -0.0547  0.0387 -0.0229
  387W        W 3906   6.783   4.256   2.063  0.0079 -0.0884 -0.1861
  388W        W 3907   8.859   0.681   2.897  0.1171 -0.1937 -0.2319
  389W        W 3908   1.976   4.523  11.708  0.0509 -0.3122 -0.2116
  390W        W 3909   2.692   6.077   2.126 -0.2663  0.1973  0.1397
  391W        W 3910   0.383   6.277   1.809 -0.0007  0.0111 -0.2422
  392W        W 3911   5.294   8.273   8.619  0.3169  0.0010  0.1398
  393W        W 3912   9.240   6.234   1.494  0.0524  0.3051  0.1408
  394W        W 3913   6.194   1.849   3.112  0.1496  0.0558  0.2233
  395W        W 3914   7.065   5.734   0.403  0.1666  0.0230 -0.0317
  396W        W 3915   4.457   5.324   8.566 -0.2180 -0.0849 -0.0087
  397W        W 3916   3.107   1.171  11.273 -0.0565 -0.1171 -0.2864
  398W        W 3917   6.409   2.716   1.491  0.0037 -0.1517 -0.3367
  399W        W 3918   7.631   0.438  12.176  0.3116 -0.2783  0.0876
  400W        W 3919   2.427   8.232   3.523  0.1719 -0.0895  0.0447
  401W        W 3920   8.897   0.348  11.040  0.1068 -0.2488  0.1961
  402W        W 3921   8.054   2.092   3.857  0.1667 -0.0220 -0.0910
  403W        W 3922   8.980   5.570   0.758 -0.0527 -0.2587 -0.1091
  404W        W 3923   7.176   7.282   1.766 -0.1822  0.3137 -0.0143
  405W        W 3924   8.279   8.995  10.802 -0.0467 -0.2336  0.0272
  406W        W 3925   6.262   6.582   4.342 -0.2882  0.0734  0.1456
  407W        W 3926   6.546   2.634   2.640  0.0468  0.2981 -0.0407
  408W        W 3927   7.892   0.289   1.381  0.0958  0.1426  0.1449
  409W        W 3928   6.460   0.259   2.954 -0.0768 -0.0598 -0.0347
  410W        W 3929   5.937   1.788   1.156 -0.0825  0.1227 -0.0599
  411W        W 3930   4.038   7.977  11.755 -0.2873 -0.1909 -0.1880
  412W        W 3931   9.350   2.282   0.730 -0.2121 -0.2137 -0.2894
  413W        W 3932   5.037   2.480  12.191 -0.0789 -0.0143 -0.2909
  414W        W 3933   2.372   2.617  10.728  0.0898  0.0593 -0.2167
  415W        W 3934   4.588   0.168   9.654 -0.0429 -0.1058  0.1735
  416W        W 3935   4.935   6.443   9.884 -0.2445  0.0172 -0.0491
  417W        W 3936   0.629   7.245   3.766 -0.1642 -0.3637 -0.0591
  418W        W 3937   5.099   1.620   0.621 -0.2148  0.0175 -0.0373
  419W        W 3938   4.502   7.152   1.243  0.0371 -0.1075  0.0528
  420W        W 3939   4.399   9.419  10.518  0.1617  0.1004  0.4700
  421W        W 3940   7.002   2.368   9.680 -0.0638  0.0411  0.0615
  422W        W 3941   6.571   1.512   3.747  0.2917  0.0807 -0.0222
  423W        W 3942   3.996   0.443   3.346  0.0470 -0.1066  0.2448
  424W        W 3943   2.253   5.740  10.762  0.0555  0.1001 -0.4377
  425W        W 3944   7.195   6.235   9.004 -0.1686  0.1459 -0.1256
  426W        W 3945   2.627   2.180   0.194 -0.0830 -0.1390  0.2310
  427W        W 3946   8.367   0.108  12.226  0.0246 -0.0484  0.0489
  428W        W 3947   6.720   3.523  10.664 -0.0299 -0.0238  0.1352
  429W        W 3948   9.361   2.844  11.898  0.0375 -0.1868  0.3004
  430W        W 3949   9.028   4.656   0.933 -0.4536 -0.2508  0.1947
  431W        W 3950   3.692   2.085   0.658 -0.1841 -0.1059  0.3754
  432W        W 3951   8.630   4.367   2.040  0.0006  0.1308  0.1472
  433W        W 3952   1.286   4.253  10.046 -0.1562 -0.0493 -0.1602
  434W        W 3953   2.541   0.571   1.499 -0.1648  0.1599 -0.0930
  435W        W 3954   5.654   7.309  11.810 -0.0214  0.0412 -0.1630
  436W        W 3955   4.979   6.802   1.463  0.1363 -0.0030 -0.1321
  437W        W 3956   9.074   7.166   2.465  0.0499  0.2109  0.0862
  438W        W 3957   4.755   7.567   9.996 -0.0351 -0.2069  0.0751
  439W        W 3958   6.010   9.234   0.865  0.5035 -0.2633  0.1502
  440W        W 3959   4.155   4.269   9.637 -0.0642 -0.2512 -0.1159
  441W        W 3960   3.752   0.717  11.784  0.1736  0.3034  0.0659
  442W        W 3961   4.548   8.624   9.001 -0.0056  0.1460 -0.0964
  443W        W 3962   7.821   4.652   3.705 -0.0018 -0.0926 -0.1229
  444W        W 3963   7.131   2.707   3.152  0.1976 -0.0009  0.0086
  445W        W 3964   2.709   1.714  11.091 -0.0639 -0.1563 -0.1381
  446W        W 3965   4.987   1.220   2.925  0.1579 -0.2023  0.1929
  447W        W 3966   1.434   2.902   9.947  0.0524 -0.0068 -0.1972
  448W        W 3967   8.312   9.557   0.775 -0.0079 -0.0204  0.2706
  449W        W 3968   7.214   4.721   2.850  0.4059  0.1144 -0.2415
  450W        W 3969   1.034   7.437   2.399  0.2722  0.1975 -0.1889
  451W        W 3970   7.258   4.205   2.285 -0.0958  0.1251 -0.0773
  452W        W 3971   3.586   9.196   9.705  0.0476 -0.0759 -0.1189
  453W        W 3972   2.879   3.768   0.984 -0.1425  0.0483  0.1702
  454W        W 3973   8.729   8.559   2.254 -0.0434 -0.0075  0.1582
  455W        W 3974   3.652   7.204   8.649 -0.3521 -0.0748  0.0886
  456W        W 3975   6.336   1.274   0.135 -0.2830  0.0416  0.3321
  457W        W 3976   7.442   6.703   0.795  0.0872 -0.2119  0.0279
  458W        W 3977   8.761   8.264  10.277 -0.1242 -0.3081  0.0160
  459W        W 3978   2.281   9.279   3.724 -0.1017  0.0180 -0.2112
  460W        W 3979   4.604   3.038   8.127  0.0944  0.0299 -0.2206
  461W        W 3980   7.306   9.004  12.189  0.0034 -0.1489 -0.0091
  462W        W 3981   7.840   3.188  11.634 -0.3073 -0.0155  0.2684
  463W        W 3982   9.655   2.942   1.991  0.1202  0.3984 -0.0542
  464W        W 3983   4.517   1.318   3.458 -0.1696  0.3281 -0.0013
  465W        W 3984   1.670   2.296   8.300  0.2261  0.1254  0.0138
  466W        W 3985   3.767   1.677   8.556  0.4402  0.1964 -0.2020
  467W        W 3986   1.636   2.321   9.306  0.0021 -0.2825 -0.0874
  468W        W 3987   4.717   3.979  12.361  0.0348 -0.2506  0.3549
  469W        W 3988   7.411   5.870   1.651 -0.2509 -0.0680 -0.0472
  470W        W 3989   9.236   0.562   1.012  0.1479  0.1008  0.4575
  471W        W 3990   5.538   8.402   3.196  0.0777  0.0486 -0.0089
  472W        W 3991   3.311   2.205   9.695  0.2836  0.2499  0.3643
  473W        W 3992   3.338   4.501   2.037  0.2459  0.1777  0.1915
  474W        W 3993   9.218   0.712   2.276  0.2821 -0.1523 -0.1038
  475W        W 3994   2.843   3.547  11.135 -0.0054 -0.2095 -0.0610
  476W        W 3995   5.130   2.245   0.151 -0.1489 -0.1192  0.0208
  477W        W 3996   9.578   9.177   3.914 -0.2209  0.1838  0.0171
  478W        W 3997   5.789   8.242   8.814  0.1086 -0.1255  0.0865
  479W        W 3998   3.968   2.994   0.713  0.0059  0.1600  0.2181
  480W        W 3999   7.451   7.843   3.169  0.3499  0.1308  0.2680
  481W        W 4000   1.281   6.297   1.165 -0.1166 -0.2984 -0.0561
  482W        W 4001   9.007   1.357   4.575 -0.0192 -0.0755  0.3109
  483W        W 4002   9.375   5.814   3.296  0.0720 -0.0043  0.1953
  484W        W 4003   4.442   1.069   9.811 -0.0703  0.3698 -0.1724
  485W        W 4004   2.360   8.485  11.336  0.2691 -0.0418 -0.0954
  486W        W 4005   4.433   7.545   4.247 -0.1982 -0.3420 -0.0023
  487W        W 4006   4.391   7.456   8.367  0.1581 -0.1105 -0.1433
  488W        W 4007   9.321   0.611  10.316  0.1146 -0.1168  0.1539
  489W        W 4008   2.105   1.255  10.306  0.2932 -0.2758  0.2660
  490W        W 4009   5.442   2.265   0.540 -0.2852  0.0612 -0.0503
  491W        W 4010   1.853   7.308  10.616  0.3008  0.1055 -0.3222
  492W        W 4011   7.942   9.130   2.055 -0.2046 -0.1185  0.0355
  493W        W 4012   2.365   0.105   3.833 -0.1835 -0.0125 -0.0645
  494W        W 4013   7.008   0.897   1.961 -0.0837 -0.3247 -0.0060
  495W        W 4014   0.100   4.963   3.323 -0.2180 -0.4081 -0.2495
  496W        W 4015   9.354   1.481  12.322 -0.0891  0.0813 -0.6339
  497W        W 4016   4.069   3.724  11.538 -0.1641 -0.1600  0.0176
  498W        W 4017   9.646   4.724  10.764 -0.1620 -0.2945 -0.2729
  499W        W 4018   5.133   5.509   2.708  0.1250 -0.1029  0.2367
  500W        W 4019   8.396   9.675   9.257  0.0581 -0.1057  0.0605
  501W        W 4020   8.082   8.424   3.797 -0.1061 -0.0774  0.2119
  502W        W 4021   2.095   8.475   4.027 -0.1993  0.2067 -0.2956
  503W        W 4022   5.023   5.288  10.268 -0.1714  0.3079  0.0397
  504W        W 4023   0.038   3.903   2.081  0.0676  0.4528  0.2714
  505W        W 4024   0.308   1.873   9.612 -0.0354  0.2319 -0.1669
  506W        W 4025   8.879   3.582  11.449 -0.1051 -0.1413 -0.0775
  507W        W 4026   2.161   5.243  11.144  0.4126 -0.1054  0.1298
  508W        W 4027   9.041   3.221   3.913  0.0948  0.1495  0.0552
  509W        W 4028   6.662   4.550  10.901  0.0342 -0.1247  0.0280
  510W        W 4029   5.038   8.365   9.132 -0.1514  0.2182  0.0202
  511W        W 4030   2.457   2.793   9.285 -0.0568 -0.0144 -0.3332
  512W        W 4031   2.835   6.396   3.289 -0.0885 -0.0318  0.1814
  513W        W 4032   4.339   6.202   2.058 -0.1467 -0.0111  0.2964
  514W        W 4033   7.355   7.659   8.821 -0.3003  0.2305 -0.1186
  515W        W 4034   8.308   1.471  11.329  0.1345 -0.0482  0.2445
  516W        W 4035   0.574   9.584   8.750  0.0848  0.1002  0.2333
  517W        W 4036   7.958   5.082   3.924  0.0199 -0.0392 -0.0644
  518W        W 4037   5.885   0.552   4.806  0.4826 -0.1722  0.0104
  519W        W 4038   4.701   4.697   9.199 -0.3546  0.1353 -0.1897
  520W        W 4039   6.403   5.705   1.416  0.2595  0.3192 -0.0963
  521W        W 4040   9.047   3.265   9.363  0.1752 -0.0947 -0.2683
  522W        W 4041   2.021   2.275   4.040  0.0283 -0.1947 -0.2834
  523W        W 4042   0.005   1.779   9.258  0.0122 -0.0961  0.1172
  524W        W 4043   0.116   0.078   4.351 -0.0869  0.1103 -0.0575
  525W        W 4044   0.959   3.926   2.064 -0.2930  0.1407 -0.3021
  526W        W 4045   2.478   3.016  11.889 -0.1278 -0.0437 -0.0043
  527W        W 4046   4.984   2.139   2.709 -0.1925 -0.1051  0.0346
  528W        W 4047   9.297   0.638  11.417  0.2479 -0.1333  0.1040
  529W        W 4048   9.059   4.446  10.092  0.0580  0.0533 -0.1541
  530W        W 4049   4.775   7.175  10.425 -0.1715  0.0293  0.1264
  531W        W 4050   1.321   7.824   1.740 -0.0083  0.0390 -0.1214
  532W        W 4051   6.811   0.474  10.337  0.0300 -0.2824  0.0322
  533W        W 4052   1.683   2.321   2.521 -0.1626 -0.0857 -0.2785
  534W        W 4053   5.569   0.039   9.137 -0.1687 -0.3775 -0.0700
  535W        W 4054   0.254   6.618   9.378 -0.0260  0.0844 -0.0650
  536W        W 4055   4.446   8.960  10.771  0.2118 -0.0058 -0.3204
  537W        W 4056   0.757   2.678   0.237  0.1179 -0.1274 -0.0322
  538W        W 4057   1.291   9.021  12.009 -0.3442  0.2883 -0.1012
  539W        W 4058   6.328   3.218  10.452  0.0603  0.1596 -0.0381
  540W        W 4059   8.043   6.017   1.648  0.2800  0.0544  0.2530
  541W        W 4060   2.038   3.737  11.346 -0.0308  0.0373  0.1005
  542W        W 4061   7.594   9.576   3.709  0.0903 -0.1944 -0.1919
  543W        W 4062   3.270   6.590  10.968  0.0277  0.1761 -0.1903
  544W        W 4063   9.432   9.297   2.368  0.1529  0.3718 -0.2088
  545W        W 4064   3.395   6.461   1.002  0.2439  0.1225 -0.3628
  546W        W 4065   2.773   4.264   9.800 -0.3236 -0.1291  0.1486
  547W        W 4066   8.913   6.561   9.535  0.2711  0.0253  0.2210
  548W        W 4067   5.874   3.300   8.829  0.1202  0.1327 -0.1529
  549W        W 4068   8.737   7.483  11.874  0.3054 -0.2294 -0.1023
  550W        W 4069   3.415   5.148   1.405  0.2902  0.2098  0.0686
  551W        W 4070   0.893   8.745  11.841 -0.0996 -0.3800  0.2387
  552W        W 4071   4.175   1.893   8.095 -0.1026 -0.3287  0.0351
  553W        W 4072   5.800   2.136   9.338  0.0571 -0.0241  0.1389
  554W        W 4073   1.874   6.667   0.849 -0.0300  0.0539  0.4698
  555W        W 4074   1.633   0.203   4.007 -0.3778 -0.1701 -0.2155
  556W        W 4075   7.121   9.300  10.094 -0.1522 -0.0743 -0.1081
  557W        W 4076   2.349   7.945   2.583 -0.0261 -0.1108 -0.1646
  558W        W 4077   1.051   7.453  11.969 -0.1468  0.1339 -0.2922
  559W        W 4078   6.853   8.275   3.933 -0.1882 -0.1027 -0.1259
  560W        W 4079   9.235   5.658   9.584  0.0390 -0.0735  0.1228
  561W        W 4080   8.724   1.384  11.625 -0.0856  0.0685 -0.2360
  562W        W 4081   9.330   5.988   2.264 -0.1712 -0.0306 -0.0496
  563W        W 4082   2.324   4.142   1.894 -0.0221  0.0964 -0.3330
  564W        W 4083   7.951   8.393   8.225  0.0587  0.1821  0.0610
  565W        W 4084   5.235   9.691   2.355  0.1271  0.2808  0.0933
  566W        W 4085   3.098   7.862   4.007  0.5150  0.0886  0.0365
  567W        W 4086   4.166   0.572   1.033 -0.2234  0.1014 -0.0038
  568W        W 4087   8.281   9.531   3.424 -0.0342  0.3096 -0.0528
  569W        W 4088   1.566   6.307  11.432  0.0404 -0.0958  0.1467
  570W        W 4089   1.731   1.104  12.006  0.0232  0.0941  0.0229
  571W        W 4090   2.681   1.233  10.533  0.2422  0.2065  0.2136
  572W        W 4091   9.005   1.884   0.994 -0.3415  0.1202  0.0972
  573W        W 4092   0.119   0.811  10.250  0.1889 -0.1735 -0.2538
  574W        W 4093   0.489   4.070   3.552 -0.0854  0.5028  0.0474
  575W        W 4094   2.035   2.392   1.937 -0.1478  0.1795  0.2654
  576W        W 4095   4.454   8.884   9.496 -0.1543  0.1605  0.0471
  577W        W 4096   7.501   6.105   4.694 -0.3656 -0.0708 -0.0965
  578W        W 4097   0.736   5.269  10.534 -0.0877 -0.2633  0.2109
  579W        W 4098   0.033   8.276   3.881  0.0724 -0.1186  0.1594
  580W        W 4099   5.051   3.456   3.339  0.0403 -0.0151 -0.0310
  581W        W 4100   9.022   2.576   3.149  0.1654 -0.1819  0.0426
  582W        W 4101   5.125   5.024   9.123  0.4415 -0.0091 -0.2803
  583W        W 4102   3.381   5.029   9.653  0.0460 -0.0253  0.1420
  584W        W 4103   3.348   6.358   9.392  0.2879  0.0749 -0.1473
  585W        W 4104   4.499   1.958   2.814 -0.2888 -0.0497 -0.1322
  586W        W 4105   4.729   3.499   2.877  0.1162 -0.1904 -0.3105
  587W        W 4106   8.151   0.592  11.383  0.2998  0.1477 -0.2533
  588W        W 4107   7.716   5.977  11.908  0.2401  0.1879  0.0427
  589W        W 4108   4.776   7.353   8.662  0.1057  0.0304  0.0170
  590W        W 4109   3.246   1.109  10.413  0.1747 -0.1548 -0.1976
  591W        W 4110   5.023   0.458   9.733  0.1192  0.0038  0.1800
  592W        W 4111   2.074   1.054   3.874 -0.2552  0.5711  0.2014
  593W        W 4112   6.432   1.850   2.669 -0.3037 -0.0954 -0.1047
  594W        W 4113   8.727   0.253   0.063 -0.1312  0.0233 -0.1836
  595W        W 4114   9.484   2.579   4.378  0.0430 -0.0066 -0.1348
  596W        W 4115   2.721   1.267   3.326  0.0679  0.3215 -0.0369
  597W        W 4116   3.453   1.248   3.781 -0.0352 -0.1572  0.0559
  598W        W 4117   4.355   6.340   9.929  0.2989  0.2252 -0.1502
  599W        W 4118   8.633   7.693  10.554  0.1273  0.1209 -0.2152
  600W        W 4119   2.161   3.745   0.306 -0.0769 -0.2274 -0.0309
  601W        W 4120   0.308   6.666   2.638 -0.0080 -0.0695 -0.2074
  602W        W 4121   5.003   8.049  10.920  0.0308  0.0297  0.1459
  603W        W 4122   9.089   4.239   3.720 -0.0020  0.1585  0.1669
  604W        W 4123   3.473   2.197   1.193  0.3630 -0.1862 -0.2335
  605W        W 4124   0.354   3.159   1.642  0.2115  0.2263  0.0980
  606W        W 4125   3.059   9.432   4.031  0.0589 -0.2474 -0.1512
  607W        W 4126   7.825   6.800   1.273 -0.0951 -0.0051 -0.1338
  608W        W 4127   5.667   2.943   7.837 -0.1518  0.0158  0.2167
  609W        W 4128   3.616   4.384   3.387  0.0355  0.4240  0.2274
  610W        W 4129   0.943   8.681   3.332  0.0544 -0.0514  0.0383
  611W        W 4130   5.934   1.983  12.167  0.0355 -0.0341  0.4232
  612W        W 4131   0.968   8.762  10.917 -0.0479  0.0567 -0.0707
  613W        W 4132   9.344   4.236   0.158  0.0407  0.3646 -0.0747
  614W        W 4133   9.616   4.535   9.796  0.1017  0.0759 -0.2137
  615W        W 4134   3.606   8.967  11.609  0.1723 -0.0774 -0.1094
  616W        W 4135   9.353   8.759  11.008  0.3421 -0.1494  0.0358
  617W        W 4136   6.957   1.369   3.414  0.3160  0.0918 -0.0449
  618W        W 4137   9.218   9.262  11.283 -0.1746  0.0731 -0.1161
  619W        W 4138   5.329   7.236   3.804 -0.0659  0.2799  0.0162
  620W        W 4139   8.067   1.508   4.204  0.0014  0.0426  0.0203
  621W        W 4140   1.809   5.912   0.458 -0.3196 -0.0412  0.2744
  622W        W 4141   7.343   6.298  11.162 -0.1626 -0.0308  0.1725
  623W        W 4142   4.738   6.463   0.095  0.0678 -0.3495 -0.1749
  624W        W 4143   9.274   2.685  10.553  0.0187  0.0346 -0.4744
  625W        W 4144   4.481   1.751  10.661 -0.0123  0.4203 -0.2951
  626W        W 4145   4.553   2.593  10.453  0.0285 -0.0835 -0.1491
  627W        W 4146   7.759   0.868   0.592  0.0545  0.2142  0.0198
  628W        W 4147   5.150   3.656   4.093 -0.0101 -0.0281 -0.4620
  629W        W 4148   9.592   5.918   1.524  0.2315 -0.0882  0.2868
  630W        W 4149   6.263   0.528   1.283  0.0127 -0.0981  0.2474
  631W        W 4150   2.548   9.507   2.105 -0.0286 -0.0799  0.2031
  632W        W 4151   0.378   3.991  11.392 -0.0596  0.1993  0.1804
  633W        W 4152   8.554   1.942   8.645 -0.1637 -0.0010  0.0495
  634W        W 4153   5.294   2.749  11.697  0.2769  0.0819 -0.0326
  635W        W 4154   7.326   1.279  10.561 -0.0665  0.2834 -0.0437
  636W        W 4155   7.605   8.143   3.996  0.2415 -0.5363 -0.2038
  637W        W 4156   5.286   9.620   9.534  0.0576  0.1202  0.1620
  638W        W 4157   7.830   9.587   8.752 -0.0931 -0.0058  0.0848
  639W        W 4158   4.960   2.079  10.883 -0.1546 -0.1555  0.3793
  640W        W 4159   6.581   5.203   2.871  0.1826 -0.0508 -0.1808
  641W        W 4160   2.181   2.347  10.285 -0.2250 -0.0924 -0.0493
  642W        W 4161   1.092   8.508   0.243 -0.1695 -0.0374 -0.3214
  643W        W 4162   7.819   8.049   8.600 -0.1196 -0.1346  0.0971
  644W        W 4163   1.132   8.255  11.724  0.1247  0.1049 -0.1043
  645W        W 4164   5.229   7.055   0.588  0.4806 -0.1392 -0.1341
  646W        W 4165   5.362   5.140  11.333  0.1334  0.2971 -0.0036
  647W        W 4166   6.302   6.687   8.724 -0.1678 -0.4019 -0.2223
  648W        W 4167   7.024   8.109   4.602 -0.1141  0.1410  0.0134
  649W        W 4168   5.343   4.730   8.784  0.2516 -0.1803 -0.0657
  650W        W 4169   4.645   0.498   0.706 -0.1329  0.2341  0.1253
  651W        W 4170   8.789   9.171   3.492  0.2958  0.4297 -0.1572
  652W        W 4171   3.124   8.889  11.596  0.0296  0.0841 -0.3835
  653W        W 4172   8.470   0.544  11.855 -0.2665  0.2078  0.0114
  654W        W 4173   9.710   2.240  11.547  0.2988  0.1491  0.1706
  655W        W 4174   9.643   1.247   3.359 -0.1600 -0.0693 -0.1855
  656W        W 4175   5.635   0.422   0.688  0.1825  0.2174  0.0473
  657W        W 4176   0.870   5.525   2.982  0.0877 -0.0874  0.3631
  658W        W 4177   4.645   2.612   1.866  0.0651  0.3202 -0.0549
  659W        W 4178   6.013   2.267   0.367  0.2892 -0.1735  0.0946
  660W        W 4179   2.476   7.967  12.178 -0.1611  0.2292 -0.1532
  661W        W 4180   5.355   3.729   9.844  0.1352  0.1294 -0.0483
  662W        W 4181   2.693   6.916   2.513 -0.0976 -0.0132  0.1177
  663W        W 4182   2.432   7.810   9.437 -0.4427  0.1342 -0.2221
  664W        W 4183   3.572   2.387   1.629  0.2478 -0.1881  0.0977
  665W        W 4184   5.682   4.445   0.301 -0.1802 -0.0163  0.1106
  666W        W 4185   5.003   1.690   1.180  0.4280 -0.0287 -0.1760
  667W        W 4186   9.520   1.901  12.074 -0.0892 -0.0195  0.1952
  668W        W 4187   7.839   6.552   4.551  0.0261 -0.3156 -0.2731
  669W        W 4188   6.632   1.883  10.702  0.2955  0.1561 -0.0513
  670W        W 4189   0.999   1.569   1.417 -0.1376  0.2331  0.0206
  671W        W 4190   3.124   7.487  11.138  0.0205 -0.3219  0.0368
  672W        W 4191   6.616   1.382  10.581  0.1969  0.2165  0.1382
  673W        W 4192   2.472   2.177  11.279 -0.1281 -0.2044  0.3402
  674W        W 4193   3.487   1.605   2.851  0.1313 -0.0868 -0.0691
  675W        W 4194   8.823   1.246   1.506 -0.0096 -0.2099 -0.1619
  676W        W 4195   2.314   5.526   1.336 -0.1087 -0.0021  0.4020
  677W        W 4196   5.537   7.482   3.081 -0.0327  0.0983 -0.1676
  678W        W 4197   5.285   9.543   4.168  0.3911  0.2267 -0.2890
  679W        W 4198   5.329   2.080  12.138 -0.0212  0.0248  0.3261
  680W        W 4199   3.870   9.175   3.475  0.2731  0.1163 -0.0746
  681W        W 4200   0.723   8.187   1.001 -0.0546 -0.1775 -0.2892
  682W        W 4201   5.729   3.390   3.891 -0.1987 -0.0940  0.1181
  683W        W 4202   2.075   7.239   0.163  0.1279 -0.1857  0.1889
  684W        W 4203   6.667   4.496  12.222 -0.0117 -0.0850  0.0422
  685W        W 4204   6.514   8.838   3.916  0.2145  0.0283 -0.0166
  686W        W 4205   0.221   1.987   8.357  0.1467  0.1193 -0.0548
  687W        W 4206   8.357   8.548   9.107 -0.0140  0.0621  0.1629
  688W        W 4207   0.633   2.344   1.082 -0.5355  0.2615 -0.0162
  689W        W 4208   1.933   6.127   9.392  0.0035 -0.0935 -0.0406
  690W        W 4209   7.018   8.376   8.741 -0.0520 -0.2479 -0.0811
  691W        W 4210   0.278   9.525   3.963  0.1697 -0.2091  0.3126
  692W        W 4211   9.091   4.330  11.511 -0.0229 -0.0862  0.1313
  693W        W 4212   7.737   7.427   8.424 -0.0773 -0.3364 -0.0817
  694W        W 4213   6.113   3.449   9.687  0.1765  0.0262 -0.0980
  695W        W 4214   6.825   6.568  11.333 -0.4169 -0.0143 -0.2900
  696W        W 4215   8.217   3.178   9.065 -0.0141  0.0821  0.0701
  697W        W 4216   0.959   3.965   0.830 -0.1705 -0.0534  0.0887
  698W        W 4217   1.704   8.727   2.006  0.1120  0.2279  0.0573
  699W        W 4218   6.371   2.220  12.387 -0.0157 -0.0227 -0.0233
  700W        W 4219   8.831   7.397   1.648  0.1539 -0.0455 -0.0965
  701W        W 4220   9.367   9.573   1.793 -0.3106 -0.3323 -0.0782
  702W        W 4221   6.784   5.793   2.078  0.1039  0.2938  0.2856
  703W        W 4222   0.781   0.797   8.211 -0.0649  0.0400 -0.0658
  704W        W 4223   2.549   1.699   2.366 -0.0693  0.2256 -0.1830
  705W        W 4224   0.896   8.172   9.499 -0.0534 -0.0362 -0.0237
  706W        W 4225   6.046   7.270  10.892 -0.1172  0.1517 -0.3906
  707W        W 4226   3.367   1.445   9.440 -0.2817 -0.1454 -0.2362
  708W        W 4227   5.791   6.946   2.350 -0.2852 -0.0303 -0.0325
  709W        W 4228   8.443   8.654   8.368 -0.0782 -0.0049 -0.1323
  710W        W 4229   8.258   3.504   4.658 -0.0466 -0.2003  0.0779
  711W        W 4230   0.848   6.047   2.832  0.0162 -0.1801  0.3021
  712W        W 4231   0.505   8.904   3.292  0.1240 -0.0486 -0.1289
  713W        W 4232   5.719   7.479   3.538  0.3244  0.0032 -0.3010
  714W        W 4233   4.991   1.820   3.556 -0.1604  0.1619  0.1604
  715W        W 4234   8.050   4.898   9.274  0.0602 -0.0349  0.0088
  716W        W 4235   9.650   8.099   9.619 -0.4214  0.0549  0.0686
  717W        W 4236   8.252   4.778   9.748  0.1254  0.1806  0.1543
  718W        W 4237   4.400   5.138   2.287  0.1199 -0.1342  0.1475
  719W        W 4238   0.375   4.186   0.134 -0.2491 -0.0531 -0.1067
  720W        W 4239   2.446   5.282  10.709 -0.2082  0.1030  0.2323
  721W        W 4240   1.256   6.541   1.717  0.0848  0.0022 -0.1723
  722W        W 4241   7.960   1.758   9.297  0.2918  0.3354  0.0634
  723W        W 4242   4.926   3.899   3.674 -0.1684 -0.1664  0.1717
  724W        W 4243   5.011   7.420   1.940 -0.0077 -0.1129  0.2997
  725W        W 4244   8.595   2.213   4.756 -0.2292 -0.1273 -0.1196
  726W        W 4245   5.041   8.027   4.060 -0.4752  0.2376  0.0763
  727W        W 4246   5.397   3.352   4.396  0.1638  0.3509 -0.0224
  728W        W 4247   9.332   1.412   8.683 -0.3366  0.1242 -0.2847
  729W        W 4248   2.317   6.476   9.628  0.2050  0.0267  0.2096
  730W        W 4249   0.102   3.512   9.202  0.0283  0.1900 -0.0840
  731W        W 4250   8.953   5.613   4.078  0.1625  0.1399 -0.2695
  732W        W 4251   4.682   5.194  12.034 -0.6214 -0.2798 -0.1139
  733W        W 4252   7.125   3.598  10.181 -0.1674 -0.0372  0.0874
  734W        W 4253   4.103   2.512   1.581  0.1112  0.0603  0.1082
  735W        W 4254   0.833   4.928   2.372  0.2971  0.0280  0.2007
  736W        W 4255   3.203   8.767  11.073 -0.0876 -0.0285 -0.1840
  737W        W 4256   8.554   0.050   2.474 -0.0396 -0.0376 -0.1605
  738W        W 4257   2.460   6.646  11.624 -0.2329 -0.2640  0.0048
  739W        W 4258   0.695   1.290   2.850 -0.1296 -0.2466 -0.0457
  740W        W 4259   9.245   2.409  11.613  0.2995  0.3020 -0.0268
  741W        W 4260   2.182   7.448  10.986  0.0112  0.0378  0.1324
  742W        W 4261   0.700   5.371   9.145 -0.4634  0.1256  0.2975
  743W        W 4262   7.186   4.298  12.398  0.1611 -0.0021  0.0493
  744W        W 4263   7.887   7.626  10.375  0.1819 -0.1628  0.0765
  745W        W 4264   5.529   3.192  10.907  0.1746  0.1084 -0.2179
  746W        W 4265   4.096   8.875   0.456 -0.3625 -0.2356  0.1870
  747W        W 4266   4.001   7.608   1.314 -0.1352 -0.2199 -0.3564
  748W        W 4267   3.736   3.126   1.141  0.0880 -0.2656 -0.1381
  749W        W 4268   1.362   1.827   0.563  0.1892 -0.0446 -0.3241
  750W        W 4269   7.189   3.248   1.263  0.2556  0.0461 -0.0914
  751W        W 4270   8.778   2.840   1.901  0.1243  0.1794  0.0978
  752W        W 4271   9.085   6.250   8.286 -0.2043  0.0703  0.4180
  753W        W 4272   5.309   5.898   8.810  0.1447 -0.2659  0.0568
  754W        W 4273   4.134   2.724  10.748  0.0898  0.0833  0.0135
  755W        W 4274   2.830   2.719   2.001 -0.1632 -0.0759 -0.1174
  756W        W 4275   4.086   5.629  11.732 -0.0210 -0.4407  0.0735
  757W        W 4276   2.129   4.006   9.090 -0.1684 -0.0183 -0.2061
  758W        W 4277   8.439   9.150   0.523  0.0031 -0.0477  0.0175
  759W        W 4278   2.871   0.705  10.401  0.0089 -0.1983  0.2274
  760W        W 4279   1.462   4.688  10.357 -0.2069 -0.1157  0.1476
  761W        W 4280   7.918   0.093  12.462  0.0437  0.1439  0.4195
  762W        W 4281   0.093   1.742   8.783 -0.2969  0.1017  0.1028
  763W        W 4282   7.670   7.436   9.414  0.1114 -0.1104 -0.0731
  764W        W 4283   5.827   3.006   0.924  0.0848  0.1815  0.2753
  765W        W 4284   1.884   3.293   0.132 -0.0559  0.3831  0.2925
  766W        W 4285   2.813   4.205  10.297  0.1423  0.0599  0.0861
  767W        W 4286   9.716   0.104   2.963  0.1861 -0.3153 -0.1458
  768W        W 4287   7.113   8.812   1.620  0.0974  0.3212 -0.1098
  769W        W 4288   7.195   8.671   3.753 -0.0726 -0.1431  0.0255
  770W        W 4289   4.567   2.351  10.893 -0.0555 -0.2030 -0.2861
  771W        W 4290   0.032   0.333  10.140  0.2774 -0.0650  0.0814
  772W        W 4291   6.709   4.960   3.722 -0.3953 -0.1127  0.0656
  773W        W 4292   5.913   1.462  12.246  0.0908  0.4167  0.0386
  774W        W 4293   8.041   0.121   3.832 -0.4211  0.0102  0.0369
  775W        W 4294   3.940   2.559   2.042 -0.3290 -0.1266  0.1528
  776W        W 4295   6.786   7.130   0.364  0.0911 -0.0264  0.0027
  777W        W 4296   8.019   3.397  10.531  0.1234  0.1711  0.0872
  778W        W 4297   0.559   0.696  10.054 -0.0307  0.0692  0.0705
  779W        W 4298   5.384   5.507   0.861 -0.0394 -0.1049  0.3031
  780W        W 4299   6.297   1.176  11.931  0.1262 -0.0453 -0.2313
  781W        W 4300   0.847   3.459  10.222  0.0057 -0.0081 -0.1253
  782W        W 4301   5.907   3.567   8.382  0.2480  0.2832 -0.1522
  783W        W 4302   9.622   4.814  12.185 -0.0845 -0.3674  0.1800
  784W        W 4303   7.702   8.082   1.333  0.1912 -0.1548  0.0411
  785W        W 4304   6.944   7.532   2.229  0.1055 -0.0538  0.1017
  786W        W 4305   6.690   9.128  11.156 -0.2145 -0.0278 -0.0453
  787W        W 4306   3.627   0.182   9.361 -0.0655  0.0300  0.0385
  788W        W 4307   5.782   0.371   1.157  0.3465  0.2042 -0.0131
  789W        W 4308   6.483   3.176   3.524  0.0068  0.0850  0.1210
  790W        W 4309   5.223   3.813   9.339 -0.2411  0.0080  0.1077
  791W        W 4310   2.401   6.255   0.135  0.0330  0.1135  0.2847
  792W        W 4311   5.044   6.612   8.478  0.0687 -0.0331  0.1724
  793W        W 4312   5.693   2.980   9.231  0.1963  0.1257  0.0008
  794W        W 4313   5.990   1.593   2.655  0.0137  0.0920 -0.2049
  795W        W 4314   2.168   1.515   9.464 -0.1950  0.3025 -0.0581
  796W        W 4315   8.300   6.114   0.288 -0.0811  0.0641 -0.1647
  797W        W 4316   0.725   7.181   2.072 -0.0443 -0.0151  0.0008
  798W        W 4317   1.590   8.692   9.019  0.1734  0.1512 -0.4204
  799W        W 4318   4.990   8.995   0.787  0.2314 -0.0766  0.2943
  800W        W 4319   5.471   6.820  10.386  0.1739 -0.0007  0.0237
  801W        W 4320   5.285   4.974   9.914  0.1488  0.0274  0.1330
  802W        W 4321   3.249   2.976   2.411  0.0142  0.0192 -0.1419
  803W        W 4322   7.945   5.531   0.471  0.3191  0.1083  0.1383
  804W        W 4323   5.121   0.436   0.553 -0.0973 -0.2438  0.3812
  805W        W 4324   6.155   1.376   2.188 -0.1231  0.3223  0.0546
  806W        W 4325   4.407   8.118   3.489  0.2246 -0.0989  0.0716
  807W        W 4326   6.030   2.447  11.390  0.1080  0.1626  0.0777
  808W        W 4327   8.626   7.638   5.340 -0.0944 -0.2723 -0.1088
  809W        W 4328   5.330   7.910  10.580  0.4757 -0.0754 -0.1333
  810W        W 4329   4.715   0.240   3.021  0.2052 -0.1174 -0.1242
  811W        W 4330   2.019   0.519   3.841  0.0042 -0.0237  0.0030
  812W        W 4331   6.026   5.060  11.697  0.0245 -0.0818  0.1861
  813W        W 4332   3.331   0.036  10.626  0.2294 -0.4536 -0.1772
  814W        W 4333   5.155   0.303   9.232  0.2286 -0.1150  0.1106
  815W        W 4334   7.408   7.541  10.109  0.0784  0.0090  0.0150
  816W        W 4335   8.757   2.443   9.205 -0.1616  0.0450  0.0817
  817W        W 4336   3.001   6.818  10.331 -0.1310  0.2945  0.1450
  818W        W 4337   7.778   0.318   2.433  0.1442  0.3698  0.0561
  819W        W 4338   9.497   9.083   1.460 -0.1855  0.1478 -0.0535
  820W        W 4339   2.123   6.906  10.744  0.2820 -0.0387  0.2133
  821W        W 4340   0.057   0.434   3.440 -0.2642 -0.1323  0.1929
  822W        W 4341   9.012   5.094   1.181  0.0297 -0.1459 -0.2001
  823W        W 4342   3.865   9.698   9.750 -0.0053  0.0719  0.0184
  824W        W 4343   7.062   3.442   9.712 -0.0361 -0.5357 -0.0638
  825W        W 4344   7.860   1.117   9.734 -0.3666  0.2361  0.0896
  826W        W 4345   7.688   6.790   5.135  0.3318 -0.0934 -0.2637
  827W        W 4346   0.410   4.598   9.718 -0.1466  0.0192  0.3410
  828W        W 4347   8.951   5.135  11.262  0.0124  0.1531  0.0622
  829W        W 4348   6.503   8.978   2.275 -0.1023  0.0681  0.1294
  830W        W 4349   1.364   4.453  11.424  0.4794  0.2412  0.2177
  831W        W 4350   7.301   1.619   0.461 -0.0982  0.2116 -0.1197
  832W        W 4351   6.446   5.645   9.682  0.0360 -0.0864 -0.2115
  833W        W 4352   7.225   1.749   3.436  0.0332 -0.2389  0.1007
  834W        W 4353   2.842   7.522  12.157  0.1788 -0.0577  0.2029
  835W        W 4354   6.081   1.573  11.721 -0.0229 -0.2679 -0.2014
  836W        W 4355   2.413   5.653  11.794  0.1234  0.1577  0.1289
  837W        W 4356   1.113   4.212  12.122  0.1248  0.2262 -0.1229
  838W        W 4357   1.289   3.567   9.508  0.2277  0.3188  0.0924
  839W        W 4358   5.671   4.794   2.119  0.0653  0.1724  0.0657
  840W        W 4359   8.725   0.682   0.824  0.0834 -0.0338 -0.1689
  841W        W 4360   7.125   8.859   8.907  0.1170  0.1572  0.1795
  842W        W 4361   1.313   5.399   9.809 -0.1078 -0.1801  0.0630
  843W        W 4362   6.473   1.335  11.514 -0.2758  0.0625  0.0493
  844W        W 4363   1.650   9.335   1.262 -0.0670  0.1614 -0.1527
  845W        W 4364   1.068   8.296   1.735 -0.1874  0.1435 -0.2508
  846W        W 4365   2.615   8.858  11.601 -0.1112 -0.1311  0.1349
  847W        W 4366   8.042   6.285   9.423  0.0643 -0.2661  0.0024
  848W        W 4367   0.851   1.715  10.578 -0.0977  0.0531  0.0567
  849W        W 4368   8.358   4.017  11.897  0.3579  0.1746 -0.4016
  850W        W 4369   3.703   7.650   2.169 -0.2614  0.0514 -0.1629
  851W        W 4370   4.668   4.546   2.710  0.1112 -0.1041  0.5179
  852W        W 4371   8.236   1.447   2.958 -0.1956  0.3111  0.2247
  853W        W 4372   4.713   4.441  12.165  0.0251  0.4303  0.2233
  854W        W 4373   7.374   5.878  10.162  0.0739  0.0685  0.3730
  855W        W 4374   7.485   8.156   8.910  0.2622 -0.0367 -0.0763
  856W        W 4375   5.413   3.741   8.502 -0.0340 -0.0154  0.0894
  857W        W 4376   9.209   5.744  11.968  0.0726 -0.2077  0.0120
  858W        W 4377   2.064   6.185   1.198  0.2758 -0.1518  0.2838
  859W        W 4378   1.793   0.978  10.026  0.3751 -0.0879 -0.0653
  860W        W 4379   7.414   0.538  11.108  0.1155  0.1417  0.1053
  861W        W 4380   7.481   2.497   8.046  0.0454  0.0092  0.0218
  862W        W 4381   0.460   7.149   4.636  0.0341  0.0849  0.0434
  863W        W 4382   0.092   8.447   0.481 -0.2148  0.2407 -0.1252
  864W        W 4383   2.520   7.750   8.270  0.0730 -0.2936  0.1108
  865W        W 4384   7.357   0.367   3.112 -0.3966  0.0741  0.2265
  866W        W 4385   2.448   1.107  11.626 -0.2289 -0.1608 -0.1738
  867W        W 4386   2.889   1.014   4.291 -0.1085  0.1669  0.0496
  868W        W 4387   8.525   3.465   9.298  0.1173 -0.2776  0.0585
  869W        W 4388   2.971   7.913   1.617 -0.0447 -0.2095 -0.1547
  870W        W 4389   9.084   0.826  10.937 -0.1862  0.1859  0.1297
  871W        W 4390   6.662   9.201   3.545  0.1160 -0.1828  0.1491
  872W        W 4391   5.798   8.669   4.056  0.2531  0.2260 -0.4466
  873W        W 4392   5.573   9.070   9.526 -0.1445  0.0321 -0.1612
  874W        W 4393   5.641   4.052   9.438 -0.1232  0.1014  0.0973
  875W        W 4394   4.698   7.103   3.986  0.1469  0.2137  0.1145
  876W        W 4395   3.671   9.627   3.420  0.1830 -0.0171 -0.2230
  877W        W 4396   9.165   0.977   8.510 -0.0786 -0.0187 -0.2955
  878W        W 4397   6.223   9.104   3.251  0.0224 -0.0546 -0.4976
  879W        W 4398   9.030   1.969  11.808  0.2382 -0.1747  0.0915
  880W        W 4399   4.496   3.332   0.395 -0.0217 -0.1162  0.2176
  881W        W 4400   6.595   2.947   9.170  0.1044  0.0661  0.1952
  882W        W 4401   2.500   8.940   1.494  0.1599 -0.0955  0.0159
  883W        W 4402   5.698   8.941   1.928  0.0327 -0.4248 -0.1160
  884W        W 4403   4.912   1.016   8.265  0.1197 -0.0682  0.2875
  885W        W 4404   1.915   6.095   9.858 -0.2760  0.0334  0.0637
  886W        W 4405   0.802   6.901   2.588  0.0462  0.0378 -0.1384
  887W        W 4406   4.248   3.135  12.437 -0.1525  0.3797  0.1320
  888W        W 4407   8.021   1.647   9.872  0.2364  0.3114 -0.2104
  889W        W 4408   2.914   8.446   0.394  0.0765 -0.0658  0.0566
  890W        W 4409   5.653   0.737  10.610  0.3344 -0.1349 -0.0793
  891W        W 4410   0.535   3.973   0.549 -0.1022 -0.0542  0.0687
  892W        W 4411   2.625   3.519  10.373  0.0300 -0.2695  0.2935
  893W        W 4412   4.049   1.637   2.883 -0.6421  0.0593  0.1255
  894W        W 4413   1.072   0.938  10.078  0.0145 -0.0431 -0.0009
  895W        W 4414   5.375   3.242   8.651  0.0156 -0.0178  0.0548
  896W        W 4415   6.404   8.433   1.656  0.0987  0.1804 -0.0243
  897W        W 4416   6.664   2.618   3.320  0.2200 -0.3195  0.1433
  898W        W 4417   6.810   1.932   3.665 -0.0523  0.0278 -0.2683
  899W        W 4418   8.411   5.684  10.958 -0.3088 -0.0131 -0.0238
  900W        W 4419   6.322   4.975   0.883  0.1102  0.1457 -0.0175
  901W        W 4420   4.158   7.418  11.708 -0.2734 -0.0630  0.1069
  902W        W 4421   0.872   9.341   1.157  0.0659  0.4084  0.0873
  903W        W 4422   3.385   8.344   0.087 -0.2564  0.0461 -0.4092
  904W        W 4423   7.049   6.193   1.256  0.5320  0.1521  0.0154
  905W        W 4424   7.111   1.885   9.759  0.0550 -0.1228  0.4529
  906W        W 4425   2.405   4.597   9.904 -0.4039 -0.1208  0.2278
  907W        W 4426   1.006   4.561   2.786  0.0008 -0.1557 -0.1167
  908W        W 4427   7.348   4.525   0.933 -0.2168 -0.3129 -0.1344
  909W        W 4428   1.812   2.820   1.806  0.0610 -0.1844 -0.0757
  910W        W 4429   4.689   3.291  10.067  0.0149  0.0731  0.3878
  911W        W 4430   2.391   0.832  10.299 -0.0872  0.1285 -0.0527
  912W        W 4431   4.699   2.160  12.382  0.1452  0.2036  0.0309
  913W        W 4432   6.908   2.268   1.289  0.0180 -0.0848 -0.0929
  914W        W 4433   4.117   6.541   2.460  0.2277 -0.0349 -0.2689
  915W        W 4434   3.247   0.330   0.131  0.0246  0.0949 -0.1798
  916W        W 4435   3.520   9.099   2.405  0.0585  0.0342  0.2008
  917W        W 4436   8.364   9.696   8.680  0.1169 -0.1462 -0.0522
  918W        W 4437   5.739   0.765   0.239  0.0789 -0.4108  0.0290
  919W        W 4438   5.171   9.409   0.504  0.0839 -0.0838 -0.1385
  920W        W 4439   3.017   6.268   0.362 -0.1119 -0.0804 -0.0999
  921W        W 4440   8.611   2.899   9.935  0.0438 -0.0606  0.1516
  922W        W 4441   0.220   5.351  11.457 -0.1478 -0.0977  0.0339
  923W        W 4442   0.964   7.202   3.317 -0.0272  0.2806 -0.2565
  924W        W 4443   2.664   8.960   2.898 -0.0107  0.1482 -0.1185
  925W        W 4444   3.158   0.512  10.022  0.0628 -0.0274  0.5158
  926W        W 4445   3.118   7.164  11.885  0.1380 -0.1568  0.3007
  927W        W 4446   3.360   7.302  12.245  0.0505 -0.1638  0.1077
  928W        W 4447   5.084   2.224  11.745  0.2868 -0.0191 -0.2488
  929W        W 4448   6.843   5.980  11.804  0.0267  0.0053 -0.1022
  930W        W 4449   5.770   0.167   2.136  0.0404  0.2451  0.4055
  931W        W 4450   1.659   1.231   0.807 -0.1153  0.2083 -0.1746
  932W        W 4451   3.941   0.966  11.065  0.2146  0.0824 -0.2795
  933W        W 4452   3.737   8.840   4.403 -0.0773  0.0854  0.1405
  934W        W 4453   7.766   6.673  11.717 -0.0225  0.0749  0.0422
  935W        W 4454   8.811   3.943   4.339 -0.1006 -0.1035  0.3487
  936W        W 4455   6.494   1.350   8.658  0.0506 -0.1014 -0.3374
  937W        W 4456   4.900   1.522  11.465 -0.2808 -0.2573 -0.1100
  938W        W 4457   9.180   5.064   2.026 -0.4730 -0.2511  0.1381
  939W        W 4458   7.084   7.609   0.392  0.3238  0.0356 -0.0019
  940W        W 4459   8.940   8.592   0.197  0.0478  0.2145 -0.1415
  941W        W 4460   2.758   2.460   0.686  0.0003  0.2411 -0.0360
  942W        W 4461   5.992   3.216   3.393 -0.1848 -0.0473  0.0210
  943W        W 4462   1.989   4.590   9.558  0.1025 -0.2612  0.0159
  944W        W 4463   3.311   0.293   1.768 -0.1020 -0.0246 -0.3079
  945W        W 4464   4.289   9.643   9.246  0.2141  0.1919 -0.0121
  946W        W 4465   1.519   1.187  11.429  0.0534  0.2837 -0.4595
  947W        W 4466   1.977   0.283   9.219 -0.3046  0.0835  0.0191
  948W        W 4467   0.535   2.705   9.671 -0.0022  0.0385  0.2423
  949W        W 4468   3.483   3.192  10.709 -0.0316 -0.2752 -0.1513
  950W        W 4469   9.261   2.390   2.167 -0.1197  0.0545  0.0914
  951W        W 4470   2.164   0.462   0.940 -0.0975 -0.2549 -0.0519
  952W        W 4471   2.482   2.788   9.799 -0.1250 -0.0228 -0.1474
  953W        W 4472   7.547   3.696   8.645  0.1623  0.3355  0.5445
  954W        W 4473   2.873   3.147   1.742  0.0128 -0.3945 -0.0512
  955W        W 4474   7.516   5.423   8.841 -0.0972 -0.1044  0.2178
  956W        W 4475   7.822   4.070   9.292  0.0509  0.0285 -0.0341
  957W        W 4476   4.226   0.218   1.929  0.0899  0.0990 -0.4042
  958W        W 4477   4.766   3.369  11.105  0.0284  0.3165 -0.0717
  959W        W 4478   9.696   2.729  11.565  0.0742  0.1954  0.1269
  960W        W 4479   0.503   5.849   9.546  0.0994  0.0886  0.0368
  961W        W 4480   6.679   8.489   9.064 -0.4677  0.3531 -0.0295
  962W        W 4481   1.049   0.699  11.604  0.1710  0.1043 -0.1570
  963W        W 4482   7.124   1.121  12.326 -0.0311  0.1280  0.1621
  964W        W 4483   4.666   1.426   2.011 -0.0514 -0.0972 -0.1675
  965W        W 4484   7.403   8.466   0.866 -0.1411  0.0713  0.3608
  966W        W 4485   7.729   8.864  11.130  0.1848  0.0830 -0.3884
  967W        W 4486   9.501   6.283   3.632 -0.2579  0.0300 -0.0548
  968W        W 4487   3.219   3.181  11.243 -0.0086 -0.0705 -0.0659
  969W        W 4488   4.314   6.732   2.080 -0.0419 -0.0781 -0.1774
  970W        W 4489   3.029   2.356   9.191 -0.0918 -0.0782  0.1513
  971W        W 4490   1.981   2.697   8.594  0.3138 -0.0854  0.3002
  972W        W 4491   5.298   5.154   2.370  0.3186  0.0963  0.2237
  973W        W 4492   1.967   2.849   9.492  0.1398 -0.0445 -0.0068
  974W        W 4493   4.997   7.270   2.992 -0.0720 -0.2436 -0.0520
  975W        W 4494   5.165   1.376   2.155  0.1903  0.2598 -0.2537
  976W        W 4495   8.647   1.163   0.020 -0.2077  0.1160  0.3298
  977W        W 4496   5.029   6.857  11.710 -0.2399 -0.2239  0.0822
  978W        W 4497   0.370   1.339   2.033 -0.2190 -0.3534 -0.1842
  979W        W 4498   5.747   4.350   3.977 -0.0792 -0.1187  0.4849
  980W        W 4499   8.689   7.243   0.441 -0.0014 -0.2728  0.2423
  981W        W 4500   3.645   4.995  10.096 -0.3795  0.2200  0.0406
  982W        W 4501   2.048   7.056   1.723  0.1506 -0.0177  0.2162
  983W        W 4502   9.498   8.460   2.089  0.5481  0.1430  0.0652
  984W        W 4503   1.385   1.225  10.246  0.0406 -0.0171  0.0073
  985W        W 4504   7.316   5.696  11.936  0.3234 -0.2633  0.0013
  986W        W 4505   8.232   7.616  11.761 -0.1768 -0.0445 -0.1074
  987W        W 4506   8.625   2.939   9.360  0.3226  0.2564 -0.1143
  988W        W 4507   7.315   2.647   3.631 -0.0704 -0.1262 -0.0489
  989W        W 4508   6.635   8.067   3.536 -0.0413  0.1208 -0.0583
  990W        W 4509   2.335   5.745   2.722  0.3040 -0.0869  0.2370
  991W        W 4510   7.767   3.038  10.022  0.0828  0.0074  0.1676
  992W        W 4511   6.779   1.654  11.262 -0.1409  0.1730 -0.0728
  993W        W 4512   8.776   2.298  11.356  0.1503 -0.1419  0.1925
  994W        W 4513   5.727   8.859  10.704 -0.1850  0.0835  0.4694
  995W        W 4514   7.669   7.621   4.836  0.2595  0.2689 -0.0355
  996W        W 4515   9.038   7.663   2.239  0.3142 -0.2330 -0.2030
  997W        W 4516   1.940   7.620  11.512 -0.0403 -0.1690 -0.2988
  998W        W 4517   1.427   5.353   9.152 -0.2040 -0.0038  0.1225
  999W        W 4518   2.117   1.862   9.856  0.0651 -0.0554  0.0218
 1000W        W 4519   3.969   6.079   2.365  0.2397  0.2717 -0.0235
 1001W        W 4520   4.624   6.284   9.436  0.0195  0.3521 -0.0548
 1002W        W 4521   8.565   0.321   2.066 -0.1173 -0.0740  0.0261
 1003W        W 4522   7.849   4.495   9.616  0.0920 -0.1254 -0.0794
 1004W        W 4523   5.071   4.279   0.189  0.0518 -0.1296 -0.0524
 1005W        W 4524   6.525   4.835   1.445  0.1235 -0.1862 -0.2231
 1006W        W 4525   7.243   0.528   1.133 -0.1463  0.2233 -0.0061
 1007W        W 4526   7.747   5.671   9.907 -0.3138  0.1359  0.3074
 1008W        W 4527   5.644   8.144  12.183 -0.0015  0.0995 -0.1282
 1009W        W 4528   7.808   4.891   9.947 -0.0576  0.2241  0.0103
 1010W        W 4529   3.028   1.906  11.780  0.1262 -0.0768  0.1855
 1011W        W 4530   2.144   7.593   1.604 -0.0161 -0.1790 -0.3035
 1012W        W 4531   4.969   5.750   1.789 -0.3279  0.2810  0.1644
 1013W        W 4532   7.195   6.491   3.955  0.2664 -0.0375 -0.0689
 1014W        W 4533   0.700   2.208   9.809 -0.0015 -0.1313 -0.2779
 1015W        W 4534   4.008   2.533  10.304  0.2566 -0.0572  0.0680
 1016W        W 4535   6.714   5.404   3.969  0.0624  0.3014 -0.1268
 1017W        W 4536   2.150   0.843  12.067  0.0360  0.0132  0.3077
 1018W        W 4537   4.694   3.427   1.405 -0.0869  0.4236 -0.2582
 1019W        W 4538   3.863   6.808  12.205 -0.1743  0.6002  0.0961
 1020W        W 4539   2.417   1.008   1.264 -0.3360 -0.2480  0.0784
 1021W        W 4540   1.655   4.741   1.706 -0.3697  0.1001  0.2499
 1022W        W 4541   9.609   3.453  12.154  0.1565 -0.0729 -0.1305
 1023W        W 4542   8.473   7.787   1.546  0.1546 -0.3958  0.0295
 1024W        W 4543   7.738   6.416   2.660 -0.3361 -0.0904  0.1000
 1025W        W 4544   1.031   8.844   1.343  0.1646  0.0791 -0.0452
 1026W        W 4545   5.049   5.828  11.884  0.0611 -0.0398  0.0474
 1027W        W 4546   3.355   7.186  10.383 -0.1190 -0.1733 -0.0198
 1028W        W 4547   4.347   1.291  10.276 -0.0702  0.1713  0.2378
 1029W        W 4548   8.987   8.168   2.789  0.0975 -0.2485 -0.0214
 1030W        W 4549   2.544   1.498   0.886  0.4170  0.1093  0.1245
 1031W        W 4550   0.462   5.875   1.388 -0.1735 -0.1526 -0.4046
 1032W        W 4551   0.784   3.061  10.584 -0.0115 -0.3495 -0.2184
 1033W        W 4552   2.935   7.025  11.317 -0.1395 -0.1129  0.0991
 1034W        W 4553   1.249   2.952   1.997 -0.2533  0.3821  0.2290
 1035W        W 4554   6.002   1.840   2.137 -0.1105 -0.2043  0.1060
 1036W        W 4555   3.934   6.964  11.365  0.0151 -0.2812  0.1465
 1037W        W 4556   6.624   8.964  12.015  0.0585 -0.0183  0.0477
 1038W        W 4557   3.114   4.043  11.200  0.0655  0.1583  0.1904
 1039W        W 4558   6.496   8.154   2.568 -0.1642 -0.1921 -0.0701
 1040W        W 4559   4.075   5.987   3.453  0.0807 -0.0368  0.2059
 1041W        W 4560   9.442   8.761   2.476 -0.3963 -0.1231  0.0034
 1042W        W 4561   0.193   1.487  11.110 -0.1063 -0.1812  0.0073
 1043W        W 4562   7.137   0.776  11.571  0.2657  0.0553 -0.2253
 1044W        W 4563   4.563   4.249   0.309 -0.0950 -0.2382  0.0014
 1045W        W 4564   2.411   9.470   2.946  0.0351  0.2467  0.0196
 1046W        W 4565   4.158   1.357  11.950 -0.1849 -0.0419 -0.1329
 1047W        W 4566   3.462   6.408   8.859 -0.1097  0.0077 -0.1972
 1048W        W 4567   2.598   0.866   2.975 -0.0042 -0.2587 -0.0520
 1049W        W 4568   1.016   6.284   3.193 -0.1843 -0.0811 -0.0909
 1050W        W 4569   0.477   7.928   1.493 -0.1128  0.1529 -0.1973
 1051W        W 4570   1.111   6.206   0.635  0.0348  0.0183  0.0845
 1052W        W 4571   9.102   0.054   8.136  0.1519  0.3405  0.2117
 1053W        W 4572   7.344   7.351  12.015 -0.1625  0.0802 -0.1065
 1054W        W 4573   3.415   0.437  12.142 -0.1584  0.1027 -0.2829
 1055W        W 4574   7.368   1.464   0.964 -0.0923 -0.1334  0.2702
 1056W        W 4575   5.273   2.072   1.394  0.2458 -0.0244 -0.2534
 1057W        W 4576   5.315   8.842   3.073  0.1775  0.3746  0.1244
 1058W        W 4577   5.739   2.698   0.504  0.0876  0.0146  0.2592
 1059W        W 4578   2.697   8.465   2.659 -0.2207  0.2137  0.1371
 1060W        W 4579   2.505   7.694  10.618  0.2533  0.0685  0.1230
 1061W        W 4580   4.534   8.176  10.689 -0.0414  0.1545 -0.3317
 1062W        W 4581   0.574   8.761  10.595  0.0348  0.1832  0.1856
 1063W        W 4582   2.160   6.776   0.400 -0.0790  0.2667  0.4119
 1064W        W 4583   8.998   3.450   3.459 -0.1838  0.2405 -0.0810
 1065W        W 4584   3.856   6.696   4.370 -0.2584  0.3494  0.1444
 1066W        W 4585   1.138   7.413  10.932 -0.2342 -0.1053  0.1116
 1067W        W 4586   4.379   6.444  10.600 -0.2748 -0.1981 -0.0593
 1068W        W 4587   4.204   2.219  12.260  0.0932 -0.3663 -0.0123
 1069W        W 4588   9.101   1.554   4.106  0.2391 -0.4709  0.1548
 1070W        W 4589   3.260   5.715  11.845 -0.0075  0.2752 -0.1241
 1071W        W 4590   0.982   5.298  11.138 -0.0960 -0.0888  0.4045
 1072W        W 4591   0.438   3.215   2.704 -0.3325  0.1066 -0.1456
 1073W        W 4592   2.933   8.216   3.613  0.2746  0.0881  0.0772
 1074W        W 4593   5.516   4.973  10.408 -0.2453 -0.3551 -0.3464
 1075W        W 4594   9.194   1.674   9.454  0.0904 -0.0329  0.1199
 1076W        W 4595   8.473   3.593  10.169  0.2315 -0.3141  0.0209
 1077W        W 4596   8.660   4.954   0.344 -0.1235  0.0931 -0.1567
 1078W        W 4597   6.996   2.916  12.140  0.3131 -0.0050 -0.0344
 1079W        W 4598   0.662   6.091  11.652 -0.3378  0.1352  0.2818
 1080W        W 4599   8.590   3.768  11.032 -0.3157  0.0358 -0.1094
 1081W        W 4600   0.778   7.220   1.057 -0.2964  0.2119 -0.1519
 1082W        W 4601   7.162   6.899   3.132 -0.1876 -0.2136  0.1732
 1083W        W 4602   3.911   0.944   4.030  0.1411  0.4204 -0.1645
 1084W        W 4603   6.432   6.764   3.082  0.4492  0.1321  0.1376
 1085W        W 4604   2.048   3.247   1.772 -0.2251  0.1521  0.2375
 1086W        W 4605   4.287   2.022   1.575 -0.0328 -0.3403 -0.1583
 1087W        W 4606   8.818   7.347  12.401  0.0329 -0.1155 -0.3365
 1088W        W 4607   4.738   0.825   8.697 -0.1347  0.1272 -0.0868
 1089W        W 4608   8.273   5.228   2.527 -0.2833  0.0928 -0.2179
 1090W        W 4609   9.595   7.639   4.599  0.0872 -0.1014  0.1335
 1091W        W 4610   3.851   8.910  12.115 -0.2207 -0.0593  0.1740
 1092W        W 4611   8.882   4.308  10.995 -0.0404 -0.2367  0.2646
 1093W        W 4612   8.307   9.006   3.363 -0.1723 -0.4531 -0.1448
 1094W        W 4613   1.472   7.868  11.394  0.1554  0.0020 -0.3828
 1095W        W 4614   4.493   2.360   0.301  0.2850 -0.0105 -0.1195
 1096W        W 4615   3.829   3.631   0.305  0.1575 -0.2272 -0.0415
 1097W        W 4616   9.162   3.462  11.942 -0.3059  0.3766 -0.0948
 1098W        W 4617   0.405   0.040  11.242  0.3375 -0.1364  0.0181
 1099W        W 4618   9.578   0.520   1.422 -0.2187 -0.0816  0.2556
 1100W        W 4619   4.537   7.015   0.590  0.1978 -0.1204 -0.4004
 1101W        W 4620   0.500   3.171  11.919 -0.0203  0.0187  0.0580
 1102W        W 4621   8.672   5.305  10.434  0.0823 -0.2623  0.0686
 1103W        W 4622   2.451   1.319  12.385  0.0385  0.2930  0.1827
 1104W        W 4623   2.556   9.114   9.123  0.4281  0.1330  0.1924
 1105W        W 4624   4.336   9.263   3.397  0.1851 -0.0798  0.1483
 1106W        W 4625   4.314   8.650  12.100  0.2037 -0.0321  0.0679
 1107W        W 4626   5.978   0.797   4.301  0.0676  0.0867  0.0265
 1108W        W 4627   5.070   3.172  11.701  0.0297 -0.2112 -0.1445
 1109W        W 4628   7.133   8.277   0.015  0.2000 -0.1575  0.0055
 1110W        W 4629   5.070   8.180  12.202 -0.3071 -0.1947 -0.1983
 1111W        W 4630   4.674   3.554  10.611  0.1948  0.1590 -0.0109
 1112W        W 4631   9.290   4.896   9.791 -0.1126 -0.0460  0.2260
 1113W        W 4632   2.431   8.369   0.033 -0.1997  0.0818  0.0370
 1114W        W 4633   6.372   0.717  11.127 -0.2203  0.2228  0.1003
 1115W        W 4634   0.478   2.062  11.461 -0.0112  0.1198  0.0639
 1116W        W 4635   0.169   5.715   0.374  0.1903 -0.3382 -0.3066
 1117W        W 4636   8.696   9.061   2.481 -0.1855  0.1930  0.0096
 1118W        W 4637   9.583   0.244   2.180  0.1531 -0.0388 -0.1928
 1119W        W 4638   9.664   1.065  12.376  0.1180  0.1033 -0.0550
 1120W        W 4639   2.359   9.679   9.239 -0.2379  0.0562 -0.1740
 1121W        W 4640   8.409   0.074  11.622 -0.0790 -0.0006  0.0184
 1122W        W 4641   6.548   2.678   0.144 -0.1856  0.0110 -0.0337
 1123W        W 4642   7.284   0.420   2.611  0.0298  0.2608  0.0649
 1124W        W 4643   2.635   2.447  11.707 -0.3469  0.0412 -0.1404
 1125W        W 4644   8.247   8.253  10.003  0.2518 -0.4260  0.0592
 1126W        W 4645   5.445   5.456  10.530  0.2290 -0.2018 -0.1892
 1127W        W 4646   2.078   3.820  12.300  0.0664  0.0376 -0.1636
 1128W        W 4647   5.374   2.664   9.996  0.2551  0.1907 -0.1083
 1129W        W 4648   4.656   1.422   0.215 -0.0120  0.3858 -0.2393
 1130W        W 4649   0.309   6.877   3.581  0.2122  0.3575  0.2926
 1131W        W 4650   3.197   7.659  10.233 -0.0257  0.0656 -0.0872
 1132W        W 4651   6.381   0.912   1.559  0.2171 -0.2447 -0.1882
 1133W        W 4652   6.216   3.657   0.462  0.2528 -0.0234  0.3379
 1134W        W 4653   8.492   9.714   7.811 -0.2170 -0.2347 -0.0960
 1135W        W 4654   0.651   8.325   0.511  0.0932 -0.3471 -0.1955
 1136W        W 4655   2.507   2.723  10.271 -0.2183  0.3251 -0.1172
 1137W        W 4656   7.976   5.051   2.935 -0.0741 -0.1979  0.4568
 1138W        W 4657   2.495   6.646  10.491  0.2768 -0.1117 -0.1513
 1139W        W 4658   3.723   9.480  10.354  0.2447  0.2275  0.3362
 1140W        W 4659   7.558   4.090  11.234  0.1218  0.4812  0.0227
 1141W        W 4660   8.563   3.259   3.156  0.2424  0.1609 -0.1350
 1142W        W 4661   0.685   8.328  11.943 -0.0622 -0.0603  0.0265
 1143W        W 4662   9.278   4.802   0.065 -0.3341 -0.1457 -0.1957
 1144W        W 4663   5.366   9.136  10.467 -0.0154  0.1803 -0.0163
 1145W        W 4664   6.853   4.370  11.759 -0.3383 -0.1033 -0.1341
 1146W        W 4665   6.721   0.714   0.710  0.3456 -0.3407 -0.0888
 1147W        W 4666   1.447   5.603   3.365  0.3253 -0.0218 -0.4031
 1148W        W 4667   7.675   2.429   9.867 -0.1143  0.3372 -0.1384
 1149W        W 4668   4.240   4.851   1.898  0.1854 -0.1477  0.0191
 1150W        W 4669   5.958   2.107   4.313  0.0373  0.2825  0.3453
 1151W        W 4670   5.308   8.302   3.628  0.0418  0.0780  0.0784
 1152W        W 4671   5.018   1.870   8.328 -0.0741 -0.0635  0.1193
 1153W        W 4672   6.718   3.912   8.804  0.5038 -0.0692  0.0514
 1154W        W 4673   8.336   1.442   0.299  0.0797 -0.0591 -0.4184
 1155W        W 4674   0.997   1.958   1.729 -0.0885 -0.0549 -0.1227
 1156W        W 4675   2.424   7.094   1.338  0.1444 -0.0525  0.2249
 1157W        W 4676   3.166   1.689   0.142  0.0442  0.1783 -0.0758
 1158W        W 4677   8.857   0.616   9.991  0.1147 -0.3164  0.2719
 1159W        W 4678   1.721   6.593   3.574  0.0368  0.0821 -0.0306
 1160W        W 4679   3.946   8.134   1.335 -0.0269  0.3917 -0.1638
 1161W        W 4680   1.671   2.248  12.336  0.1297 -0.1417 -0.0377
 1162W        W 4681   5.771   5.514   1.159  0.0524 -0.1300  0.0794
 1163W        W 4682   1.196   2.525  11.743  0.0204 -0.3216  0.0311
 1164W        W 4683   1.752   7.069   0.524  0.3072  0.1562 -0.3715
 1165W        W 4684   0.666   3.057   1.248  0.1181  0.3158  0.2297
 1166W        W 4685   7.737   3.410   9.062 -0.1630 -0.1107 -0.0245
 1167W        W 4686   6.982   4.083   0.877 -0.0457  0.1511  0.1108
 1168W        W 4687   6.934   6.269   0.101  0.3756 -0.0855 -0.3256
 1169W        W 4688   7.232   5.390   4.672 -0.0662 -0.1695  0.0898
 1170W        W 4689   2.448   0.078   2.493 -0.0362  0.0568 -0.1131
 1171W        W 4690   4.872   5.911   9.340 -0.1520  0.1594  0.1490
 1172W        W 4691   4.759   5.060   3.496 -0.1199 -0.3128  0.0640
 1173W        W 4692   4.672   7.423  11.741  0.0623  0.3509  0.1287
 1174W        W 4693   6.487   6.232  10.756 -0.1693  0.0690  0.0288
 1175W        W 4694   6.415   2.893   2.087 -0.0363 -0.1330  0.1165
 1176W        W 4695   7.158   1.453  10.133 -0.1776 -0.0130 -0.1161
 1177W        W 4696   2.991   4.765   1.767 -0.2739 -0.0452  0.1899
 1178W        W 4697   3.534   2.399   9.231  0.2325  0.1402  0.3820
 1179W        W 4698   3.511   9.330   3.939 -0.4176  0.0011 -0.1393
 1180W        W 4699   0.717   1.430  11.380  0.1264  0.3148  0.0570
 1181W        W 4700   7.841   5.283  12.411 -0.2005 -0.1514  0.0453
 1182W        W 4701   4.790   5.058   2.650  0.1776 -0.4513  0.0568
 1183W        W 4702   4.073   8.731   8.699  0.0401 -0.1872  0.0143
 1184W        W 4703   3.548   7.555   3.152 -0.1372 -0.1614  0.0397
 1185W        W 4704   0.869   6.253  10.755  0.1854 -0.3047  0.1168
 1186W        W 4705   3.441   3.646   0.019  0.2492 -0.3654  0.0433
 1187W        W 4706   1.934   2.206   0.854 -0.2286  0.1014 -0.2125
 1188W        W 4707   6.944   8.920   0.665 -0.2489 -0.0632  0.1307
 1189W        W 4708   4.993   7.900  11.684 -0.1459 -0.0869  0.2486
 1190W        W 4709   1.290   1.182   2.944 -0.1546  0.2122  0.0299
 1191W        W 4710   6.126   3.580  10.664 -0.0230  0.0492 -0.1291
 1192W        W 4711   4.066   9.601  12.387 -0.1297 -0.2893  0.1042
 1193W        W 4712   0.908   5.345   0.819 -0.0409 -0.0984  0.1015
 1194W        W 4713   8.234   2.528   0.670  0.1470 -0.2199 -0.2024
 1195W        W 4714   0.357   8.992   2.090  0.1827  0.1782 -0.0723
 1196W        W 4715   2.123   6.304   0.623  0.2156  0.2622  0.1477
 1197W        W 4716   6.379   0.027  10.208 -0.0273  0.1769  0.1509
 1198W        W 4717   4.035   3.277   9.913 -0.1898  0.0030 -0.1814
 1199W        W 4718   1.619   0.803   2.907 -0.3093 -0.1125  0.0605
 1200W        W 4719   2.075   3.380   1.082 -0.2099  0.2407  0.1226
 1201W        W 4720   8.586   2.905   8.837  0.1331  0.0963 -0.0510
 1202W        W 4721   6.253   7.666   9.525 -0.1033 -0.1078 -0.2077
 1203W        W 4722   4.888   4.621   0.523 -0.1118  0.4906 -0.3173
 1204W        W 4723   0.285   0.012  11.843 -0.0604  0.1871 -0.1162
 1205W        W 4724   9.331   8.619   0.530 -0.0449 -0.1326 -0.0495
 1206W        W 4725   7.763   1.325  11.918 -0.0104 -0.0463  0.0837
 1207W        W 4726   9.715   6.718   3.002  0.0111 -0.2941  0.1022
 1208W        W 4727   7.834   6.981   2.574 -0.0999 -0.0999 -0.0484
 1209W        W 4728   4.082   2.683   0.110  0.2504  0.4339 -0.4375
 1210W        W 4729   8.944   6.108  12.160 -0.2018  0.0647  0.2216
 1211W        W 4730   8.871   0.199   4.140 -0.0114  0.1959 -0.0122
 1212W        W 4731   8.743   6.515   1.155 -0.1061 -0.3968 -0.1808
 1213W        W 4732   9.347   5.381   9.198 -0.2616 -0.1104  0.1490
 1214W        W 4733   9.505   3.608   3.379 -0.1176  0.1893 -0.3243
 1215W        W 4734   3.066   1.542   3.058 -0.1691 -0.1867 -0.2151
 1216W        W 4735   2.133   3.514  10.521  0.0482  0.1346 -0.0060
 1217W        W 4736   7.790   4.676   0.776 -0.1017  0.0297 -0.0487
 1218W        W 4737   5.020   1.236  12.287  0.1743  0.2206 -0.1949
 1219W        W 4738   6.447   5.722  10.430 -0.0275 -0.0598 -0.1392
 1220W        W 4739   9.589   9.327   2.963  0.4978 -0.0123  0.0956
 1221W        W 4740   6.840   3.144   8.402  0.1023  0.0574  0.2618
 1222W        W 4741   2.701   4.973  11.305  0.4638 -0.0882  0.3156
 1223W        W 4742   4.101   8.262   4.068  0.0715 -0.2668 -0.2000
 1224W        W 4743   1.529   4.605   0.428  0.0940  0.2231 -0.2637
 1225W        W 4744   2.809   7.917   0.148 -0.1811 -0.0947  0.1703
 1226W        W 4745   4.582   8.789   1.108  0.1017  0.1123 -0.1806
 1227W        W 4746   6.034   6.139  10.873  0.1677  0.2065 -0.2894
 1228W        W 4747   9.189   9.659  11.001  0.0012  0.2137  0.0017
 1229W        W 4748   0.862   8.824  12.385 -0.1222 -0.0831 -0.0392
 1230W        W 4749   8.231   1.553   0.833 -0.1113 -0.3452 -0.2294
 1231W        W 4750   6.126   8.626  11.538 -0.0921  0.0076  0.3387
 1232W        W 4751   5.471   8.194   9.165  0.0357  0.3793 -0.0197
 1233W        W 4752   8.069   8.866   0.027  0.0478 -0.1493 -0.1415
 1234W        W 4753   2.605   7.896   9.989 -0.1111 -0.1806  0.0520
 1235W        W 4754   5.078   7.197  11.254  0.1086  0.0512  0.0903
 1236W        W 4755   0.240   7.406   4.239  0.2478  0.2158 -0.1094
 1237W        W 4756   5.178   6.368   3.004  0.2643  0.2595 -0.0221
 1238W        W 4757   4.834   7.833   4.439  0.0589 -0.1134  0.0167
 1239W        W 4758   8.201   4.063   7.959  0.2819 -0.0204  0.0259
 1240W        W 4759   6.454   1.791   0.361  0.0219 -0.1154 -0.0167
 1241W        W 4760   4.858   5.426  11.598  0.0237 -0.1320  0.0485
 1242W        W 4761   2.985   6.977   8.680  0.0490  0.2408  0.2576
 1243W        W 4762   5.833   1.122  11.868  0.1624 -0.3221  0.1282
 1244W        W 4763   3.906   3.868  12.319 -0.1316  0.2685  0.0070
 1245W        W 4764   1.273   7.774   9.773  0.1561 -0.0397  0.0366
 1246W        W 4765   1.680   8.367  10.052  0.0777 -0.0725 -0.1868
 1247W        W 4766   8.753   4.687  11.420  0.0635  0.0563 -0.0156
 1248W        W 4767   3.786   2.064   2.006  0.2093  0.2237 -0.0216
 1249W        W 4768   8.723   0.156   1.142  0.1513 -0.1241 -0.0745
 1250W        W 4769   6.943   6.947   4.047  0.1087  0.1577 -0.0613
 1251W        W 4770   5.546   7.712   8.810  0.1508 -0.0770  0.2062
 1252W        W 4771   3.176   1.991   3.204 -0.1064 -0.2317  0.4191
 1253W        W 4772   8.853   1.420  11.049  0.1211  0.1793  0.0559
 1254W        W 4773   4.558   1.952   9.611  0.2294 -0.0579 -0.0556
 1255W        W 4774   4.541   1.844   2.343 -0.0262 -0.0290  0.2862
 1256W        W 4775   3.122   2.958   0.331 -0.0449 -0.0495  0.0800
 1257W        W 4776   1.339   6.979   2.313  0.1137  0.2026 -0.1152
 1258W        W 4777   6.570   4.318  11.373 -0.0824  0.1021  0.4449
 1259W        W 4778   0.751   4.135  11.739  0.0901 -0.1554  0.0231
 1260W        W 4779   8.103   6.337   1.208  0.0888 -0.2653 -0.1102
 1261W        W 4780   6.561   4.432   3.733 -0.0889 -0.1734 -0.4700
 1262W        W 4781   6.381   4.797   3.262 -0.1448 -0.1720  0.1506
 1263W        W 4782   3.894   1.831  10.865 -0.0860 -0.3348  0.1016
 1264W        W 4783   1.771   8.714   8.056 -0.0300 -0.2076 -0.0063
 1265W        W 4784   2.998   7.953  11.250  0.0556 -0.1361 -0.1526
 1266W        W 4785   7.039   7.285  12.405  0.0464 -0.2081 -0.1139
 1267W        W 4786   6.254   1.681  11.197 -0.1734  0.4919 -0.0860
 1268W        W 4787   2.827   7.503  11.654  0.1239  0.0388  0.1876
 1269W        W 4788   4.629   0.670   1.233 -0.1419 -0.2028 -0.0028
 1270W        W 4789   0.463   2.642   0.676  0.0547  0.0821  0.0249
 1271W        W 4790   0.688   8.430   2.423  0.4324 -0.0906 -0.2936
 1272W        W 4791   0.329   3.125  10.932 -0.1785  0.1543 -0.0448
 1273W        W 4792   8.408   1.800   4.653 -0.1030  0.2740  0.1188
 1274W        W 4793   9.287   4.398   2.060 -0.0935 -0.2338  0.0027
 1275W        W 4794   2.776   0.209   2.968 -0.2794 -0.1954 -0.0374
 1276W        W 4795   8.551   8.082   2.525 -0.1397 -0.0549 -0.4546
 1277W        W 4796   5.820   7.972   2.833  0.0752  0.6025 -0.1696
 1278W        W 4797   4.409   9.349  11.453 -0.3573 -0.1546  0.3287
 1279W        W 4798   4.579   5.676  11.935  0.1687 -0.0557  0.1924
 1280W        W 4799   1.415   7.155   1.292 -0.1526  0.0091  0.1565
 1281W        W 4800   8.390   8.490  10.595 -0.1506 -0.2127  0.1417
 1282W        W 4801   3.478   8.537  10.459 -0.1996  0.4298 -0.0202
 1283W        W 4802   6.401   9.524   1.117 -0.1553 -0.2284 -0.4288
 1284W        W 4803   3.665   3.429   2.417  0.0133 -0.2376  0.1725
 1285W        W 4804   0.433   7.705  11.375 -0.1614 -0.0805  0.0183
 1286W        W 4805   3.646   5.354   2.841 -0.0743  0.1643  0.1577
 1287W        W 4806   2.589   6.540   0.528  0.0663  0.0847  0.2180
 1288W        W 4807   9.494   5.731   0.811 -0.1363 -0.1811  0.0503
 1289W        W 4808   7.252   5.747   0.995 -0.1065  0.0460 -0.0267
 1290W        W 4809   4.289   8.331  11.083  0.1215 -0.2584  0.0952
 1291W        W 4810   8.142   9.374  12.435 -0.0755  0.0519  0.2942
 1292W        W 4811   0.216   5.244  12.282  0.0351 -0.2090  0.4881
 1293W        W 4812   7.925   1.549   8.832  0.0638  0.1099  0.2140
 1294W        W 4813   9.166   6.457  10.486 -0.3382  0.1052  0.1119
 1295W        W 4814   2.123   8.672   3.529  0.1301 -0.2037 -0.1642
 1296W        W 4815   0.942   2.391   0.706 -0.0755 -0.1485 -0.1128
 1297W        W 4816   6.046   7.602   3.136 -0.0427 -0.4166 -0.2701
 1298W        W 4817   4.467   0.472   3.473  0.0409  0.1950 -0.0533
 1299W        W 4818   7.298   3.262   3.180  0.1201 -0.1628 -0.3119
 1300W        W 4819   6.417   3.754   9.278 -0.3981  0.2327  0.2268
 1301W        W 4820   0.916   2.976  10.098 -0.0838  0.0161 -0.3006
 1302W        W 4821   3.854   8.540   2.746 -0.1011 -0.4679 -0.0605
 1303W        W 4822   3.614   6.860  10.068  0.0564  0.1261 -0.0635
 1304W        W 4823   8.147   0.027   2.207 -0.1085 -0.2489  0.3104
 1305W        W 4824   8.340   8.956   8.834  0.1120  0.0164 -0.0391
 1306W        W 4825   1.209   6.072   9.296  0.0006  0.1927  0.2091
 1307W        W 4826   3.711   5.417   1.772 -0.1748 -0.2739 -0.0932
 1308W        W 4827   5.748   0.499   9.119  0.3336  0.2909  0.3599
 1309W        W 4828   9.504   6.500   9.520 -0.1943  0.0802 -0.2378
 1310W        W 4829   9.604   3.207  11.384 -0.0954  0.5100  0.0376
 1311W        W 4830   0.126   7.027  12.335  0.0055  0.4319 -0.2625
 1312W        W 4831   5.536   1.810   0.330 -0.0637  0.0335  0.0381
 1313W        W 4832   4.247   0.267  11.708 -0.2037 -0.1955  0.0325
 1314W        W 4833   1.792   4.361  10.098 -0.0515  0.1442  0.0313
 1315W        W 4834   4.582   8.243   2.202 -0.0595  0.1064  0.2580
 1316W        W 4835   5.822   1.730   8.973 -0.2728  0.2892 -0.0812
 1317W        W 4836   0.685   7.698   4.241 -0.0599  0.3514  0.2104
 1318W        W 4837   0.321   6.167   0.241 -0.1146 -0.1684 -0.1762
 1319W        W 4838   2.115   7.614  10.326 -0.1329  0.0108 -0.0865
 1320W        W 4839   8.625   7.844  12.177  0.1736 -0.0522 -0.3005
 1321W        W 4840   4.558   4.013   1.633 -0.2028  0.3743  0.2276
 1322W        W 4841   3.123   2.732  12.241  0.1340 -0.4179  0.5717
 1323W        W 4842   7.906   1.019   4.414 -0.0086  0.1918  0.0316
 1324W        W 4843   4.022   9.169   2.130  0.1104 -0.4166 -0.1872
 1325W        W 4844   8.859   7.730   3.433 -0.1477  0.2207 -0.0637
 1326W        W 4845   7.419   2.660   9.513  0.1615 -0.2589  0.0410
 1327W        W 4846   7.865   5.160   2.194  0.0686 -0.0595  0.0708
 1328W        W 4847   7.082   5.892  11.018 -0.0479  0.0796  0.2335
 1329W        W 4848   0.573   6.457   0.658  0.0976  0.0712 -0.1310
 1330W        W 4849   9.246   5.279  12.126 -0.0423  0.0785 -0.2961
 1331W        W 4850   0.745   9.057   9.658  0.1566  0.1493 -0.0015
 1332W        W 4851   4.571   0.577  10.544  0.2605  0.3473  0.1245
 1333W        W 4852   4.793   5.791  12.362 -0.2528 -0.0679  0.1998
 1334W        W 4853   8.362   9.620  10.095 -0.1641  0.0240 -0.4211
 1335W        W 4854   7.747   7.974   2.711  0.2232  0.0991  0.1774
 1336W        W 4855   3.787   0.308  10.611  0.0472  0.6150 -0.3081
 1337W        W 4856   1.397   0.190   3.534  0.1152 -0.0905  0.1610
 1338W        W 4857   5.596   2.135  11.771  0.1124 -0.0174  0.1389
 1339W        W 4858   9.029   7.075   3.359  0.1346 -0.0289 -0.1578
 1340W        W 4859   5.724   7.373  12.355  0.1250 -0.2491  0.2234
 1341W        W 4860   7.065   1.994   2.400 -0.1957  0.1234 -0.0044
 1342W        W 4861   7.922   2.023   7.982  0.2965 -0.4011  0.1183
 1343W        W 4862   8.186   0.885   0.220  0.4398 -0.0277  0.2036
 1344W        W 4863   1.757   1.225   9.138  0.1339 -0.4099  0.2389
 1345W        W 4864   7.399   1.206  11.557  0.2265  0.1947  0.0918
 1346W        W 4865   1.879   9.439   0.318 -0.2551  0.1437  0.0264
 1347W        W 4866   5.480   8.648   8.960  0.6169  0.2613 -0.2810
 1348W        W 4867   4.936   4.366  10.931 -0.1261 -0.2679  0.0357
 1349W        W 4868   5.980   5.364   8.653  0.1350 -0.0026 -0.2709
 1350W        W 4869   5.937   1.177  10.591 -0.0777 -0.0556  0.1057
 1351W        W 4870   5.893   0.782  10.140 -0.2863 -0.2978  0.0200
 1352W        W 4871   0.205   7.302   9.814  0.1971 -0.0105  0.0845
 1353W        W 4872   4.543   4.944  10.423  0.2583  0.0412  0.0806
 1354W        W 4873   6.218   5.093  10.366  0.0864 -0.0599 -0.2408
 1355W        W 4874   5.961   2.114   2.518  0.0266 -0.0721 -0.1596
 1356W        W 4875   7.413   2.467   9.005  0.1242 -0.4830  0.0300
 1357W        W 4876   6.397   1.881   0.916 -0.0169 -0.1160  0.1592
 1358W        W 4877   2.373   5.233   2.292  0.1343  0.1899  0.3796
 1359W        W 4878   1.154   3.550   3.448 -0.2241  0.0240 -0.3048
 1360W        W 4879   1.558   8.261  10.527  0.0752  0.2069  0.0402
 1361W        W 4880   4.353   7.060   3.299  0.1304  0.4925  0.2567
 1362W        W 4881   1.664   8.521   2.531  0.0309 -0.1962 -0.0281
 1363W        W 4882   2.793   9.376   1.598  0.2975  0.0655 -0.1812
 1364W        W 4883   1.209   3.116   9.077  0.1729  0.3726  0.2611
 1365W        W 4884   0.667   6.201   3.566 -0.0629  0.0641  0.0268
 1366W        W 4885   4.264   7.246   9.344 -0.0917 -0.0655  0.1785
 1367W        W 4886   5.396   4.503  10.183  0.2803 -0.6304 -0.2700
 1368W        W 4887   6.514   4.487   2.426  0.1218  0.1919 -0.1033
 1369W        W 4888   0.041   5.304   2.776 -0.3220 -0.1529 -0.1499
 1370W        W 4889   1.922   8.936   2.459  0.2340 -0.1222  0.1847
 1371W        W 4890   2.505   5.014   1.540  0.1859 -0.0986 -0.0167
 1372W        W 4891   8.242   4.612   2.953  0.2983  0.0140  0.0237
 1373W        W 4892   2.615   7.048   3.885  0.1064  0.0876 -0.0088
 1374W        W 4893   5.718   9.124   7.978  0.0180  0.0094  0.2707
 1375W        W 4894   3.480   1.252   0.535 -0.2846  0.0234  0.3986
 1376W        W 4895   0.097   0.036   9.746 -0.1417  0.1408 -0.2041
 1377W        W 4896   1.894   7.141   1.246  0.0793 -0.1274  0.0350
 1378W        W 4897   1.169   2.361   1.268 -0.1732 -0.0384  0.1164
 1379W        W 4898   9.044   1.877  10.882 -0.2696 -0.0256 -0.0754
 1380W        W 4899   6.004   9.503  11.122  0.0532  0.1278  0.0222
 1381W        W 4900   7.030   5.474   3.584  0.3493  0.0164  0.1566
 1382W        W 4901   2.366   2.751  11.227 -0.1848  0.1265  0.2025
 1383W        W 4902   6.374   9.627   4.399  0.0802  0.0624 -0.2764
 1384W        W 4903   8.861   7.286  11.052  0.1616  0.2052 -0.0333
 1385W        W 4904   5.895   5.519   8.042 -0.1201  0.1172  0.2284
 1386W        W 4905   4.753   5.290   4.441  0.1905 -0.0405 -0.1395
 1387W        W 4906   7.648   2.810   8.468  0.0912 -0.0590 -0.0891
 1388W        W 4907   2.917   2.060   2.280 -0.0238  0.0748  0.1306
 1389W        W 4908   4.979   3.629   2.450  0.0411  0.1223  0.0087
 1390W        W 4909   8.867   6.628   3.454 -0.3246 -0.0993  0.3094
 1391W        W 4910   7.887   6.344   0.432  0.0434  0.2132 -0.0499
 1392W        W 4911   0.548   1.156   3.745 -0.1212 -0.1416  0.0834
 1393W        W 4912   7.353   3.248  11.336 -0.1353  0.4628  0.4905
 1394W        W 4913   8.403   0.967   1.713  0.0379  0.1265 -0.0666
 1395W        W 4914   0.992   9.286  12.377  0.0742 -0.1545  0.1467
 1396W        W 4915   8.063   6.071   9.883  0.1418  0.1963 -0.3500
 1397W        W 4916   7.338   9.382   8.824 -0.2747  0.3254  0.1439
 1398W        W 4917   6.790   4.876  11.796  0.1173  0.2231 -0.0063
 1399W        W 4918   9.230   6.151   9.778 -0.0511  0.1927 -0.2861
 1400W        W 4919   8.215   2.251   2.241 -0.2121 -0.0703  0.2103
 1401W        W 4920   8.186   8.290   2.027 -0.5270 -0.0280 -0.1607
 1402W        W 4921   6.191   7.437   0.946  0.0236  0.0532 -0.0339
 1403W        W 4922   6.904   3.781   2.302 -0.0904  0.0377  0.3414
 1404W        W 4923   3.831   2.411   9.720  0.0052 -0.0006  0.1591
 1405W        W 4924   8.923   9.486  12.285 -0.1435  0.1424  0.1515
 1406W        W 4925   0.048   1.312   1.080  0.0440 -0.3220  0.0653
 1407W        W 4926   5.313   1.903  10.507  0.0819 -0.3666  0.2611
 1408W        W 4927   3.648   4.974  11.021  0.2194 -0.4339 -0.0210
 1409W        W 4928   6.014   0.338   7.882  0.1756 -0.0394  0.0166
 1410W        W 4929   5.638   6.898  10.865  0.2498 -0.0222 -0.2593
 1411W        W 4930   5.817   8.383   3.629  0.1985 -0.3521 -0.1932
 1412W        W 4931   1.818   3.114  12.141  0.0735 -0.3089  0.0715
 1413W        W 4932   0.528   5.517  10.974 -0.1715  0.0108 -0.1519
 1414W        W 4933   8.664   1.004   9.103  0.6682  0.0800  0.1987
 1415W        W 4934   7.845   2.473   8.780  0.3721 -0.0003  0.2037
 1416W        W 4935   6.291   2.100   1.864  0.0621 -0.2033  0.2448
 1417W        W 4936   7.809   1.574   1.303 -0.0789 -0.2560 -0.2059
 1418W        W 4937   1.598   6.048   2.106  0.0509 -0.0622  0.0620
 1419W        W 4938   5.145   5.411  12.122 -0.1182 -0.0836 -0.1125
 1420W        W 4939   4.906   6.047   0.319  0.0023 -0.0095 -0.1180
 1421W        W 4940   4.291   3.681  11.127  0.2603  0.1910  0.0036
 1422W        W 4941   9.024   6.751   4.841  0.2116  0.0250  0.2224
 1423W        W 4942   8.220   1.846   1.505  0.0654 -0.1590  0.4810
 1424W        W 4943   4.909   0.692  11.201  0.0044 -0.1809 -0.3558
 1425W        W 4944   6.914   7.665  10.326 -0.1101  0.0005  0.0044
 1426W        W 4945   7.165   9.416   0.085 -0.4583  0.3021 -0.1515
 1427W        W 4946   5.982   4.469  11.558  0.2057  0.0889  0.0768
 1428W        W 4947   7.981   4.592   4.188 -0.1014  0.2386  0.2495
 1429W        W 4948   6.634   3.365   2.104  0.3027 -0.0449  0.2149
 1430W        W 4949   6.426   9.441  10.834 -0.0566 -0.2651  0.0158
 1431W        W 4950   9.011   6.505  11.842  0.0761  0.1157  0.1742
 1432W        W 4951   1.095   5.731   0.464  0.0412  0.0355 -0.0759
 1433W        W 4952   6.958   7.971   3.126 -0.0216 -0.0187  0.0134
 1434W        W 4953   1.037   0.741   3.683 -0.3578 -0.4126 -0.4217
 1435W        W 4954   3.808   6.292  11.316  0.1612 -0.4383  0.0270
 1436W        W 4955   2.913   5.550  12.147 -0.1483 -0.2119  0.1504
 1437W        W 4956   0.587   0.716   3.488  0.6972  0.1625 -0.2420
 1438W        W 4957   1.186   6.642   2.815  0.2088 -0.3374 -0.0470
 1439W        W 4958   5.279   7.175   1.398 -0.1895 -0.0591 -0.2171
 1440W        W 4959   4.943   5.995   0.837 -0.0088 -0.1059 -0.1424
 1441W        W 4960   3.982   2.185   2.536  0.1852  0.3470 -0.0197
 1442W        W 4961   5.768   6.451  11.186  0.1632 -0.3825 -0.0575
 1443W        W 4962   5.510   2.973   2.320 -0.2686  0.1308 -0.3309
 1444W        W 4963   5.667   7.116   8.813 -0.1870 -0.2845  0.1513
 1445W        W 4964   2.513   6.909  10.059  0.0590  0.0384 -0.2169
 1446W        W 4965   7.330   8.030  11.810 -0.0755  0.5166  0.1826
 1447W        W 4966   7.357   4.526  11.540 -0.0039 -0.3555 -0.1544
 1448W        W 4967   4.177   2.802   1.100  0.2123  0.1150  0.0309
 1449W        W 4968   0.996   0.681   9.641 -0.2010  0.0830 -0.2842
 1450W        W 4969   2.674   7.350   9.555  0.1540  0.1136 -0.3422
 1451W        W 4970   1.356   8.675  10.281 -0.0573 -0.2788  0.1599
 1452W        W 4971   7.335   7.912  10.470  0.2755  0.0085  0.1629
 1453W        W 4972   6.733   6.469   4.260 -0.1020 -0.2547  0.2069
 1454W        W 4973   6.724   2.100   9.339 -0.4109  0.1104 -0.1978
 1455W        W 4974   5.481   4.098   1.673  0.1279 -0.0831 -0.2158
 1456W        W 4975   7.823   4.471  11.795 -0.1767  0.1404 -0.0184
 1457W        W 4976   3.152   1.852   1.527 -0.2789 -0.0782  0.2832
 1458W        W 4977   4.523   7.291   2.871 -0.2582 -0.0898  0.1216
 1459W        W 4978   6.626   4.120   0.265  0.0092  0.0789 -0.0488
 1460W        W 4979   6.908   7.686   4.825  0.2061  0.0759 -0.1324
 1461W        W 4980   8.979   6.805   0.276 -0.1710  0.1934 -0.3182
 1462W        W 4981   0.893   4.179   9.140 -0.0801 -0.1186 -0.4802
 1463W        W 4982   0.368   5.602   2.201 -0.0753  0.0918 -0.1084
 1464W        W 4983   1.921   1.568   1.554 -0.1324  0.3538  0.1898
 1465W        W 4984   3.290   5.633   3.826  0.1026 -0.0038 -0.2456
 1466W        W 4985   5.505   5.633   1.614  0.0409  0.3659 -0.1268
 1467W        W 4986   9.402   4.001   2.416 -0.1546  0.0204  0.1593
 1468W        W 4987   8.307   7.666   2.444  0.1095 -0.0015  0.2635
 1469W        W 4988   1.493   2.328   3.000  0.2196  0.0871  0.2775
 1470W        W 4989   0.920   8.026   8.482 -0.1924 -0.1311 -0.0903
 1471W        W 4990   7.486   8.425   1.628 -0.3777 -0.0246  0.2731
 1472W        W 4991   2.944   7.352  10.540  0.2395 -0.1340 -0.1774
 1473W        W 4992   4.878   3.105   0.502  0.0948 -0.1973  0.1225
 1474W        W 4993   9.179   3.361   1.502 -0.1255 -0.1651  0.2189
 1475W        W 4994   8.305   8.139   8.851  0.0376  0.3944  0.1582
 1476W        W 4995   3.349   9.407   9.151  0.2076 -0.4339  0.1623
 1477W        W 4996   0.596   1.819  11.039 -0.1162  0.0590 -0.0708
 1478W        W 4997   4.822   1.385  10.522 -0.2530  0.0277  0.1945
 1479W        W 4998   2.531   3.547  12.380 -0.2767  0.0913 -0.2873
 1480W        W 4999   3.462   8.157  12.106 -0.0780  0.1515 -0.0562
 1481W        W 5000   5.459   7.179   9.327 -0.1833  0.0625 -0.0203
 1482W        W 5001   4.621   0.319  10.945 -0.3974  0.0747 -0.1635
 1483W        W 5002   0.572   5.441   0.326  0.2724  0.2370 -0.0059
 1484W        W 5003   4.864   6.145  10.590  0.1657 -0.2028  0.0352
 1485W        W 5004   2.059   3.165   0.591 -0.0227  0.1494 -0.0447
 1486W        W 5005   0.266   1.585   3.672  0.1381  0.1087  0.2261
 1487W        W 5006   2.848   9.428   9.851 -0.0854  0.0557 -0.1170
 1488W        W 5007   5.077   1.305   3.517 -0.0492  0.0007 -0.1154
 1489W        W 5008   2.999   0.078   1.370 -0.0055  0.0472 -0.2378
 1490W        W 5009   2.070   6.289   2.758 -0.0090  0.3300 -0.1793
 1491W        W 5010   9.462   2.534   1.750  0.2660 -0.2088  0.2749
 1492W        W 5011   4.807   4.791   2.194 -0.0408 -0.2540 -0.3641
 1493W        W 5012   3.101   5.857   9.503 -0.3168 -0.2044 -0.1427
 1494W        W 5013   6.892   2.773   4.863  0.0072 -0.1638 -0.3971
 1495W        W 5014   7.668   5.870   9.291  0.2855  0.1120  0.1170
 1496W        W 5015   8.367   5.570   1.617  0.3391 -0.1196 -0.4033
 1497W        W 5016   5.165   5.005  11.794  0.1732  0.1651 -0.0287
 1498W        W 5017   6.879   7.888  11.368  0.0369 -0.0474 -0.0614
 1499W        W 5018   4.275   8.425   9.884  0.0118 -0.0767 -0.0156
 1500W        W 5019   2.207   5.953   1.616  0.1816 -0.2451  0.1471
 1501W        W 5020   5.174   9.255   2.682 -0.1101 -0.0549  0.0478
 1502W        W 5021   6.536   3.362   7.974  0.0942 -0.1760  0.0909
 1503W        W 5022   1.484   8.642   1.487  0.0563 -0.2452  0.1580
 1504W        W 5023   0.307   2.682   1.506  0.2779 -0.3706  0.3400
 1505W        W 5024   6.177   9.626   3.481  0.1672  0.0252 -0.0120
 1506W        W 5025   8.275   5.647   0.125 -0.0050 -0.0756 -0.0910
 1507W        W 5026   3.708   0.669   1.186  0.0489 -0.1300  0.0778
 1508W        W 5027   3.811   5.236   1.096  0.0438  0.0363 -0.0289
 1509W        W 5028   8.106   6.328   3.512  0.1133  0.0620  0.2662
 1510W        W 5029   9.431   4.917   3.023 -0.1108  0.0021  0.2386
 1511W        W 5030   9.620   1.715   3.400  0.2213 -0.2617 -0.1161
 1512W        W 5031   6.932   4.508   0.654  0.0372  0.1303 -0.0139
 1513W        W 5032   4.162   7.507   3.390 -0.1115  0.0911  0.0453
 1514W        W 5033   1.338   1.368  10.962  0.1185 -0.2915 -0.3782
 1515W        W 5034   1.055   5.029   2.875 -0.1738 -0.3186  0.2114
 1516W        W 5035   9.661   9.641  11.141  0.0767 -0.2580 -0.0682
 1517W        W 5036   8.529   4.400   0.890  0.1756 -0.1410 -0.0426
 1518W        W 5037   0.677   8.578   9.302  0.0533  0.0795  0.0730
 1519W        W 5038   5.822   8.855   3.161  0.3987  0.0562  0.1878
 1520W        W 5039   5.989   4.608   1.154 -0.0173  0.0021  0.0096
 1521W        W 5040   0.249   6.425   3.311  0.2014  0.1247  0.3771
 1522W        W 5041   0.111   0.631   9.751  0.1382 -0.0688 -0.0318
 1523W        W 5042   3.280   2.433   0.801 -0.1121  0.0122 -0.0640
 1524W        W 5043   4.398   1.165   8.465  0.2608 -0.1670 -0.1282
 1525W        W 5044   7.507   5.090   0.917 -0.0328 -0.0288 -0.0494
 1526W        W 5045   9.104   7.424  10.634 -0.0262 -0.1457  0.2151
 1527W        W 5046   2.958   6.147   9.104  0.2342  0.1575  0.2835
 1528W        W 5047   0.412   4.696  12.263 -0.1045 -0.1569  0.1399
 1529W        W 5048   0.091   5.729  10.525 -0.1295  0.1659 -0.0737
 1530W        W 5049   4.815   1.949   0.423  0.3120 -0.2145  0.0880
 1531W        W 5050   5.177   6.339  11.399  0.2179 -0.1257 -0.0845
 1532W        W 5051   0.585   4.969   9.393  0.0851  0.1438 -0.0942
 1533W        W 5052   3.774   6.921   3.873  0.0468 -0.1350 -0.0815
 1534W        W 5053   0.309   9.187   8.802  0.0182 -0.3790 -0.2704
 1535W        W 5054   5.374   3.634   3.663  0.4518 -0.2366  0.0782
 1536W        W 5055   6.284   8.021  12.253 -0.2300 -0.2641  0.1924
 1537W        W 5056   9.652   8.909   8.676  0.4734 -0.0624  0.0390
 1538W        W 5057   8.779   2.421   2.138  0.0886 -0.1032 -0.0255
 1539W        W 5058   4.555   2.638   3.387 -0.0833 -0.0932  0.1175
 1540W        W 5059   8.437   1.885  12.471  0.2050  0.2255 -0.1709
 1541W        W 5060   5.040   0.956   9.712 -0.0979 -0.0041  0.0694
 1542W        W 5061   8.984   5.120   3.123 -0.2000 -0.0670  0.4208
 1543W        W 5062   4.996   0.355   8.757 -0.0940 -0.1309 -0.0001
 1544W        W 5063   8.098   8.530  11.006  0.0794 -0.0876 -0.3059
 1545W        W 5064   1.430   1.067   2.095 -0.0869  0.2569  0.2207
 1546W        W 5065   7.876   1.042  11.401  0.1854 -0.1931 -0.1987
 1547W        W 5066   3.666   4.479   1.091  0.0324  0.1166  0.3123
 1548W        W 5067   6.958   3.875   0.014 -0.0209  0.2580  0.2039
 1549W        W 5068   4.295   3.391  10.328  0.3173  0.1039 -0.0610
 1550W        W 5069   4.122   1.968   9.513  0.0152 -0.4400  0.5555
 1551W        W 5070   8.905   3.010  12.020 -0.1345  0.0430 -0.2125
 1552W        W 5071   1.403   6.782  11.412 -0.0395 -0.0064 -0.2023
 1553W        W 5072   9.466   1.376   4.945  0.4311  0.0663 -0.0128
 1554W        W 5073   3.503   0.148  10.180 -0.1258 -0.0421  0.1614
 1555W        W 5074   0.470   9.482   1.413 -0.0311  0.0101 -0.0381
 1556W        W 5075   2.850   3.159  12.248 -0.0775 -0.2260  0.1065
 1557W        W 5076   1.212   1.919   3.621 -0.2065 -0.2002 -0.0427
 1558W        W 5077   2.517   9.612  10.573  0.2720  0.0467 -0.2256
 1559W        W 5078   8.680   6.474   2.078 -0.0830 -0.1162 -0.0192
 1560W        W 5079   2.525   3.469   3.354  0.1234 -0.0934 -0.1221
 1561W        W 5080   3.682   8.820  10.894 -0.0084  0.2035 -0.1093
 1562W        W 5081   7.075   3.531   1.869 -0.0726 -0.0141 -0.0130
 1563W        W 5082   2.115   2.036   2.307  0.1047  0.0768 -0.0091
 1564W        W 5083   0.093   7.559  10.240  0.2891 -0.1031  0.2417
 1565W        W 5084   2.291   6.028  12.175 -0.1528  0.1431 -0.0105
 1566W        W 5085   5.138   1.091  11.311  0.4211 -0.2634 -0.0821
 1567W        W 5086   3.253   6.908   0.227 -0.1013 -0.1119  0.2159
 1568W        W 5087   6.821   3.040   1.800 -0.0258 -0.1072 -0.1978
 1569W        W 5088   5.390   3.241   0.869  0.2341  0.1194  0.1308
 1570W        W 5089   7.757   1.795   0.687 -0.1440  0.0065 -0.0729
 1571W        W 5090   5.237   9.346   9.981 -0.1909 -0.0360 -0.0653
 1572W        W 5091   7.367   3.754  12.126 -0.0701 -0.1052 -0.2872
 1573W        W 5092   1.209   4.797   9.932  0.3807 -0.2884  0.2458
 1574W        W 5093   3.360   1.348   8.620 -0.0153  0.1077  0.1795
 1575W        W 5094   8.594   6.207   4.110  0.0881  0.0705  0.2392
 1576W        W 5095   6.649   2.935   4.059  0.0549  0.1203 -0.2442
 1577W        W 5096   5.635   9.505   1.298 -0.0794  0.0743 -0.0176
 1578W        W 5097   1.228   7.042  10.549  0.0351 -0.0734 -0.1788
 1579W        W 5098   2.950   2.866   0.785 -0.2997 -0.3665 -0.1288
 1580W        W 5099   3.605   0.754   2.423 -0.1165  0.0015  0.3996
 1581W        W 5100   8.148   5.595   2.803  0.0123 -0.1237 -0.3051
 1582W        W 5101   5.808   5.055   9.048  0.0878  0.0578  0.0639
 1583W        W 5102   9.454   7.446  11.668  0.0302  0.2549  0.0461
 1584W        W 5103   0.978   6.198   2.029  0.1058  0.2390  0.2267
 1585W        W 5104   0.171   7.504  10.992 -0.1745 -0.0051  0.0940
 1586W        W 5105   5.181   0.125  10.983 -0.0218 -0.2184  0.0924
 1587W        W 5106   7.987   7.110   4.965 -0.0733 -0.1440  0.2565
 1588W        W 5107   0.085   2.779   1.035  0.0914  0.1315 -0.0316
 1589W        W 5108   4.814   0.095   2.111  0.3863  0.1260 -0.1605
 1590W        W 5109   7.004   4.365   1.325  0.0498 -0.1467 -0.1579
 1591W        W 5110   9.411   0.996   9.934 -0.0152 -0.0076 -0.0818
 1592W        W 5111   1.164   7.607   8.529 -0.3484 -0.0797 -0.2748
 1593W        W 5112   1.827   1.347  11.082 -0.0379  0.0118 -0.2040
 1594W        W 5113   4.499   7.677   1.208  0.3855  0.3119  0.3393
 1595W        W 5114   0.671   8.476   1.510  0.0437  0.1508 -0.0444
 1596W        W 5115   4.915   8.920   1.819 -0.0996  0.1348 -0.1493
 1597W        W 5116   3.086   0.594   3.848 -0.0523  0.0834  0.2273
 1598W        W 5117   3.857   6.976   3.391 -0.1678 -0.1900  0.1672
 1599W        W 5118   5.990   0.540   2.915  0.1732 -0.1721  0.0899
 1600W        W 5119   6.807   3.434   9.249 -0.3146 -0.3035 -0.0907
 1601W        W 5120   4.961   9.132   1.295 -0.0399 -0.1709  0.3203
 1602W        W 5121   1.641   6.449   0.439 -0.0328  0.1393  0.0195
 1603W        W 5122   3.506   2.923  11.964  0.1424 -0.1380  0.1217
 1604W        W 5123   8.980   6.066   9.292  0.0814 -0.1624  0.0864
 1605W        W 5124   2.380   0.848   1.932  0.1817  0.3592 -0.0351
 1606W        W 5125   1.529   3.307   1.689  0.1346  0.1280  0.1785
 1607W        W 5126   6.420   2.142  11.350 -0.1539 -0.3276  0.0838
 1608W        W 5127   0.857   9.181   4.047  0.1017 -0.0589  0.2288
 1609W        W 5128   1.391   8.164   1.340 -0.0371  0.1858  0.0803
 1610W        W 5129   2.118   0.076   9.707 -0.1620  0.2418  0.1898
 1611W        W 5130   1.012   0.166   4.847 -0.1553 -0.0081  0.1145
 1612W        W 5131   8.518   4.057   9.337  0.0946  0.0143 -0.0827
 1613W        W 5132   0.432   0.452  10.518 -0.1832 -0.0351  0.2413
 1614W        W 5133   4.121   3.159   2.242 -0.0396 -0.0447  0.0690
 1615W        W 5134   0.938   4.503  10.255 -0.1204  0.0427  0.1417
 1616W        W 5135   3.486   4.613   1.602 -0.0131  0.0330 -0.2933
 1617W        W 5136   1.500   3.391   1.157  0.2858 -0.1184  0.1638
 1618W        W 5137   3.563   4.188  12.269  0.0880 -0.1895  0.1113
 1619W        W 5138   7.847   2.233   0.336  0.2727  0.1814  0.1443
 1620W        W 5139   2.290   8.137   4.396 -0.1131  0.2893 -0.0887
 1621W        W 5140   9.427   9.608   9.437 -0.0513  0.1257  0.2659
 1622W        W 5141   4.185   5.105   0.155  0.0728  0.1426 -0.0550
 1623W        W 5142   5.498   1.825   2.479  0.4860 -0.1011 -0.2057
 1624W        W 5143   2.065   8.628  10.313  0.1251 -0.1841  0.1414
 1625W        W 5144   6.361   4.754  11.354 -0.5877 -0.0313  0.1341
 1626W        W 5145   8.365   2.002   9.115  0.1571  0.0906  0.2793
 1627W        W 5146   0.804   4.373  11.199  0.0872 -0.0109 -0.2522
 1628W        W 5147   8.439   3.324   1.039 -0.1844 -0.0473 -0.0713
 1629W        W 5148   9.193   4.315  10.593  0.0171  0.0598  0.2060
 1630W        W 5149   0.439   8.816  12.070  0.1976  0.0555 -0.0132
 1631W        W 5150   6.726   9.428   1.517  0.3002 -0.0223  0.1701
 1632W        W 5151   7.456   4.667   4.044  0.2061 -0.1776 -0.2683
 1633W        W 5152   1.263   4.975   0.704 -0.2507 -0.1335 -0.2210
 1634W        W 5153   0.066   8.860  10.697 -0.0921 -0.0405  0.2678
 1635W        W 5154   1.665   0.308  10.605 -0.1392  0.1384  0.2946
 1636W        W 5155   4.349   3.679  12.091 -0.0474  0.2326 -0.0532
 1637W        W 5156   1.476   5.419   2.856 -0.1403 -0.1998  0.0603
 1638W        W 5157   6.022   1.338   0.917 -0.2745  0.1766  0.1071
 1639W        W 5158   0.030   9.302   9.584 -0.1704  0.2172 -0.0739
 1640W        W 5159   8.112   9.334   3.891  0.0982 -0.2997  0.1799
 1641W        W 5160   2.843   5.252   1.996  0.0605 -0.0490  0.1280
 1642W        W 5161   1.128   3.676   0.422  0.5500  0.2414 -0.3591
 1643W        W 5162   8.147   6.556   4.172  0.0294  0.2063  0.1085
 1644W        W 5163   8.288   1.017  11.121  0.0768 -0.0872 -0.3304
 1645W        W 5164   5.264   8.397  10.074  0.1820  0.1956  0.0582
 1646W        W 5165   5.505   4.138  11.811 -0.1655 -0.0529 -0.2532
 1647W        W 5166   2.794   4.467  11.398 -0.2527  0.0276 -0.0925
 1648W        W 5167   1.188   2.570  11.190 -0.2998 -0.1518 -0.0625
 1649W        W 5168   7.408   9.081   2.335  0.1897 -0.1505 -0.0608
 1650W        W 5169   1.335   4.008   1.249 -0.1888  0.0196 -0.3476
 1651W        W 5170   8.847   9.364   0.762  0.0574  0.1370  0.0778
 1652W        W 5171   0.412   0.293   1.432 -0.3017  0.0461 -0.2157
 1653W        W 5172   8.645   8.863   1.687 -0.0486 -0.1863 -0.3291
 1654W        W 5173   3.391   8.057   2.509  0.4242 -0.0195 -0.0947
 1655W        W 5174   7.666   9.709  10.933  0.1362  0.2853  0.0068
 1656W        W 5175   8.858   8.224   3.570 -0.0364 -0.0512 -0.0701
 1657W        W 5176   0.514   1.208   1.536  0.2243 -0.1338  0.0896
 1658W        W 5177   7.469   9.103   3.730 -0.2695 -0.1339  0.1887
 1659W        W 5178   4.841   7.694  10.515 -0.0771  0.2039 -0.0940
 1660W        W 5179   0.418   8.022   0.256 -0.0365  0.2099 -0.0217
 1661W        W 5180   0.426   1.486  10.677 -0.0524 -0.1386  0.3096
 1662W        W 5181   5.878   2.682   3.446 -0.1430  0.1501  0.1937
 1663W        W 5182   8.515   9.568   0.261  0.0950 -0.2244  0.0930
 1664W        W 5183   2.554   2.233   4.058 -0.2367  0.0113 -0.0991
 1665W        W 5184   4.380   0.187   8.088 -0.1256 -0.1179 -0.0198
 1666W        W 5185   8.955   8.861   1.312 -0.0802 -0.4017 -0.1674
 1667W        W 5186   4.222   0.910   3.606  0.1590  0.0214 -0.3633
 1668W        W 5187   0.409   9.323   9.906  0.1644 -0.2100  0.0463
 1669W        W 5188   0.630   1.884  12.296  0.0238  0.4297  0.2041
 1670W        W 5189   3.016   5.992  10.166  0.0037  0.3811 -0.3193
 1671W        W 5190   6.473   5.104   9.136 -0.6273 -0.1474 -0.1368
 1672W        W 5191   1.693   1.641  10.145  0.0740 -0.3901 -0.1076
 1673W        W 5192   0.785   6.435   2.481 -0.1199  0.2304 -0.0538
 1674W        W 5193   9.666   1.828   2.824 -0.0639 -0.0423 -0.0157
 1675W        W 5194   7.859   0.845   1.954  0.1100  0.1298 -0.0872
 1676W        W 5195   9.510   8.128   0.716 -0.2050  0.1463  0.1202
 1677W        W 5196   4.133   6.540   3.369  0.0464  0.0364 -0.2634
 1678W        W 5197   9.155   0.037   0.883  0.2650 -0.0207  0.1233
 1679W        W 5198   3.397   1.224   2.547  0.0513  0.1224  0.0104
 1680W        W 5199   0.628   3.635   3.977 -0.1590 -0.0358  0.0034
 1681W        W 5200   5.830   4.903  11.264 -0.3162 -0.0329  0.0253
 1682W        W 5201   4.063   3.924   8.567 -0.0428  0.1987 -0.2937
 1683W        W 5202   7.365   7.025  10.253  0.1728  0.0239 -0.2035
 1684W        W 5203   8.029   7.265   1.154  0.0686  0.0958  0.2316
 1685W        W 5204   9.085   1.062   3.231 -0.1094  0.2105 -0.1025
 1686W        W 5205   2.937   6.063  10.984  0.1138 -0.1179  0.3834
 1687W        W 5206   6.088   0.060  12.075 -0.2702 -0.3074 -0.4021
 1688W        W 5207   5.434   5.291   0.354  0.0383 -0.0660 -0.2231
 1689W        W 5208   8.081   5.589   3.778 -0.1502  0.1593  0.2849
 1690W        W 5209   3.903   5.539   0.160 -0.0585 -0.0060 -0.0154
 1691W        W 5210   8.483   0.319   9.722  0.2256 -0.0548 -0.0531
 1692W        W 5211   7.006   7.009   2.235 -0.0099 -0.3501  0.2860
 1693W        W 5212   6.551   8.279  11.487 -0.1721 -0.2337  0.1902
 1694W        W 5213   1.569   4.887   9.350 -0.3422 -0.0497 -0.0227
 1695W        W 5214   4.436   7.877  11.103 -0.2029  0.3528 -0.2925
 1696W        W 5215   7.843   4.565  11.262  0.0118  0.1610  0.0216
 1697W        W 5216   3.663   8.953   2.873 -0.0711 -0.0959  0.1124
 1698W        W 5217   9.603   8.021  10.130 -0.0542  0.1530 -0.3761
 1699W        W 5218   0.785   9.180  10.767  0.1286  0.1011 -0.0187
 1700W        W 5219   1.906   8.033   0.519 -0.1619  0.2732  0.0868
 1701W        W 5220   4.945   8.225  10.440  0.4596  0.1078  0.3079
 1702W        W 5221   0.046   9.330   1.771 -0.4175  0.1466 -0.2052
 1703W        W 5222   7.694   7.523   2.462  0.0612 -0.2954  0.0951
 1704W        W 5223   1.588   6.488   3.095  0.0219  0.0011  0.3966
 1705W        W 5224   8.108   9.271   2.924  0.1629 -0.0656 -0.3558
 1706W        W 5225   7.998   5.037   8.695 -0.0959 -0.1123  0.0828
 1707W        W 5226   7.983   7.700   1.435  0.2534 -0.0963  0.3134
 1708W        W 5227   8.495   2.408  10.244 -0.1253 -0.2357 -0.0882
 1709W        W 5228   6.306   5.529   2.173 -0.2455 -0.0684  0.1614
 1710W        W 5229   2.008   9.258   9.302 -0.1205 -0.0305  0.0265
 1711W        W 5230   7.611   7.067   9.836  0.0148  0.0310 -0.0706
 1712W        W 5231   4.273   1.996  10.120 -0.1301 -0.0924 -0.0422
 1713W        W 5232   8.860   1.115  10.619 -0.1521 -0.3285  0.0067
 1714W        W 5233   4.269   4.217  12.290  0.3466  0.1206  0.2419
 1715W        W 5234   8.807   4.399   8.606 -0.0035 -0.1019  0.2001
 1716W        W 5235   1.295   7.236  12.404  0.2765 -0.3229  0.0945
 1717W        W 5236   0.002   7.521   3.274  0.1344 -0.0441  0.1809
 1718W        W 5237   6.019   5.569  10.313  0.0484  0.0258 -0.1396
 1719W        W 5238   8.082   8.547   8.684  0.0353 -0.0883  0.1965
 1720W        W 5239   2.382   6.482   0.965  0.0585 -0.1221 -0.1801
 1721W        W 5240   9.543   8.691   4.040  0.1940  0.1683  0.0253
 1722W        W 5241   5.661   0.146   4.614 -0.0048 -0.0786 -0.0450
 1723W        W 5242   2.142   5.524   0.376 -0.1154 -0.0406 -0.0377
 1724W        W 5243   0.732   8.914   8.706  0.0660  0.1242 -0.0291
 1725W        W 5244   3.106   7.870  11.888  0.1151 -0.1702 -0.0338
 1726W        W 5245   5.933   0.370   3.688  0.0174  0.2179 -0.2138
 1727W        W 5246   5.540   8.619  12.333 -0.1815  0.0323  0.0879
 1728W        W 5247   6.988   9.702   3.189 -0.0587 -0.3370 -0.2129
 1729W        W 5248   0.731   0.811   1.360 -0.0251  0.0311  0.1146
 1730W        W 5249   6.318   9.343   9.405  0.3765 -0.1650  0.1257
 1731W        W 5250   3.867   3.504   0.798  0.1504  0.3835 -0.1986
 1732W        W 5251   8.063   6.525   1.720  0.0541  0.2389 -0.1485
 1733W        W 5252   7.296   3.057   9.924 -0.0196 -0.3108 -0.2292
 1734W        W 5253   6.426   1.336   2.708 -0.4650 -0.0606 -0.1810
 1735W        W 5254   1.570   7.103   3.629  0.0582  0.1268  0.0699
 1736W        W 5255   0.536   1.564   1.186 -0.2853  0.0642 -0.2800
 1737W        W 5256   2.423   7.197  10.477  0.0783  0.1191  0.0688
 1738W        W 5257   9.201   8.960   0.883  0.0980  0.1869  0.0111
 1739W        W 5258   9.326   0.075  10.093  0.2039 -0.1225  0.0592
 1740W        W 5259   5.402   7.063   3.303 -0.0470  0.0659 -0.1940
 1741W        W 5260   3.378   7.602   9.393 -0.0284  0.0640 -0.1360
 1742W        W 5261   4.499   1.914   1.147 -0.0639  0.0474 -0.1131
 1743W        W 5262   8.004   8.948   9.295  0.0438  0.1398  0.3042
 1744W        W 5263   7.424   3.188   8.737 -0.0828  0.0164 -0.1615
 1745W        W 5264   4.630   9.593   8.857  0.2465 -0.2027  0.2097
 1746W        W 5265   7.090   8.323   9.362 -0.1330  0.0632 -0.0570
 1747W        W 5266   4.744   2.804   3.838  0.2924 -0.2762 -0.0412
 1748W        W 5267   8.453   5.101   3.017 -0.0309  0.0403  0.2920
 1749W        W 5268   8.434   1.028   8.638 -0.2115  0.2501  0.0603
 1750W        W 5269   8.165   8.728   0.678  0.1527  0.2647  0.3396
 1751W        W 5270   8.798   0.128  11.933 -0.1980 -0.0170  0.0500
 1752W        W 5271   5.063   6.824   2.758 -0.5131 -0.1552  0.2147
 1753W        W 5272   4.476   4.464  10.978 -0.2247  0.2378  0.1682
 1754W        W 5273   5.690   6.277   9.857 -0.1377 -0.1949  0.1151
 1755W        W 5274   3.991   9.095  10.528 -0.3635 -0.1344  0.0374
 1756W        W 5275   7.201   1.963   2.909  0.0412  0.3644 -0.2734
 1757W        W 5276   0.798   5.486   1.535  0.0926  0.1235  0.1555
 1758W        W 5277   1.097   1.690  11.248  0.0239 -0.0242 -0.3518
 1759W        W 5278   9.074   0.350   0.484  0.1983 -0.1511  0.1428
 1760W        W 5279   4.631   0.644   1.861  0.3577 -0.2287 -0.0309
 1761W        W 5280   2.633   8.666   3.603 -0.2083 -0.0981  0.0210
 1762W        W 5281   3.235   4.087   1.768 -0.1094 -0.2758  0.0080
 1763W        W 5282   4.994   7.867   2.298  0.2475 -0.1251 -0.1148
 1764W        W 5283   6.451   8.103   3.066  0.0165  0.1442 -0.0446
 1765W        W 5284   3.229   1.295   1.788 -0.1780 -0.0247 -0.2898
 1766W        W 5285   7.394   2.434   1.357 -0.0524  0.1068 -0.0234
 1767W        W 5286   8.191   2.778  11.855  0.0813  0.1886 -0.0154
 1768W        W 5287   7.348   5.274  12.220 -0.0416 -0.1134  0.0990
 1769W        W 5288   0.711   3.128   3.116 -0.0652 -0.1276 -0.1504
 1770W        W 5289   1.110   7.441   9.008  0.1599  0.0651 -0.0712
 1771W        W 5290   5.964   9.347  11.846 -0.3079 -0.3039 -0.1791
 1772W        W 5291   5.013   6.971   9.433 -0.1870 -0.2008 -0.0112
 1773W        W 5292   5.678   5.952  11.216  0.0029 -0.0349  0.1008
 1774W        W 5293   5.185   5.172  10.868  0.0094 -0.0515 -0.3356
 1775W        W 5294   6.167   3.790   1.085 -0.4680 -0.2021 -0.1229
 1776W        W 5295   7.161   4.679  12.037 -0.2088  0.1153  0.1149
 1777W        W 5296   6.455   5.532   4.648 -0.1438  0.0834 -0.2577
 1778W        W 5297   1.585   5.918  12.199 -0.2454 -0.2792  0.2846
 1779W        W 5298   9.680   8.711   9.338 -0.0136 -0.0800  0.1770
 1780W        W 5299   7.214   6.208   0.657  0.0149  0.1618 -0.0291
 1781W        W 5300   0.776   1.576   0.662  0.0793 -0.0090 -0.2216
 1782W        W 5301   8.584   8.393   1.597  0.0653  0.1861  0.2631
 1783W        W 5302   8.658   1.576  12.159  0.0505  0.1231  0.1214
 1784W        W 5303   9.247   1.934   1.387 -0.2208 -0.1356  0.3718
 1785W        W 5304   9.229   0.468  11.920 -0.1403  0.0576  0.1762
 1786W        W 5305   6.227   2.811   0.532 -0.5329  0.0534  0.0016
 1787W        W 5306   3.317   8.688   3.105  0.0774  0.1411 -0.0223
 1788W        W 5307   0.732   8.214  10.972 -0.2003 -0.0707 -0.4172
 1789W        W 5308   5.579   6.601   0.524 -0.2253 -0.1040  0.2164
 1790W        W 5309   5.876   4.640  10.654  0.3132 -0.0362 -0.2369
 1791W        W 5310   9.714   7.871  10.630  0.0684  0.0801  0.0688
 1792W        W 5311   7.450   3.833  10.717 -0.0545  0.2656  0.1590
 1793W        W 5312   7.772   0.085   9.270  0.0941 -0.1217 -0.1180
 1794W        W 5313   0.773   6.004   0.148 -0.1647  0.0938  0.1091
 1795W        W 5314   5.680   7.123   0.410  0.1708  0.3039  0.1656
 1796W        W 5315   5.042   5.792  10.144  0.1702 -0.2394 -0.1453
 1797W        W 5316   4.253   7.876   2.196 -0.0956  0.1462  0.0684
 1798W        W 5317   5.878   7.066   9.631 -0.2814  0.0753 -0.1204
 1799W        W 5318   6.970   9.656   1.868 -0.0415  0.2039 -0.1035
 1800W        W 5319   4.591   7.744   2.574  0.0412 -0.1942 -0.1745
 1801W        W 5320   4.777   0.355   0.105  0.1662  0.1710  0.0839
 1802W        W 5321   0.372   2.031   1.357  0.1366  0.0262 -0.0809
 1803W        W 5322   0.099   2.612   0.033 -0.3834  0.3524  0.0120
 1804W        W 5323   1.663   9.329  12.345 -0.0074 -0.1716  0.1601
 1805W        W 5324   5.659   4.038  12.402  0.0476 -0.0914  0.1576
 1806W        W 5325   5.209   4.488   2.052  0.2833 -0.3630 -0.0728
 1807W        W 5326   4.154   6.364  12.323 -0.1440 -0.0587  0.0148
 1808W        W 5327   4.579   6.424  11.603 -0.1327 -0.5325 -0.3115
 1809W        W 5328   9.096   8.581  12.205 -0.1113 -0.0134 -0.0228
 1810W        W 5329   5.877   1.316   4.123 -0.0410 -0.0988 -0.2129
 1811W        W 5330   9.557   7.126  10.066 -0.0072 -0.0758 -0.0447
 1812W        W 5331   1.430   4.021  10.994 -0.1958  0.2440  0.0772
 1813W        W 5332   9.065   4.848   3.549 -0.1591  0.0912  0.0508
 1814W        W 5333   8.725   4.134  10.464  0.0795 -0.4369  0.1877
 1815W        W 5334   5.792   9.312   3.395  0.1341  0.1180 -0.2049
 1816W        W 5335   8.712   7.488   2.706  0.1361 -0.3216 -0.0376
 1817W        W 5336   3.139   8.629   3.606 -0.0692 -0.0467  0.1248
 1818W        W 5337   0.563   8.908  10.115 -0.0536  0.2378  0.2451
 1819W        W 5338   6.833   2.355   8.558  0.1445 -0.1073  0.0396
 1820W        W 5339   3.289   9.542   1.655 -0.2179  0.0717  0.1218
 1821W        W 5340   2.034   1.544   2.588  0.0490 -0.1185  0.0173
 1822W        W 5341   9.457   8.109   1.194 -0.3354  0.1251  0.3414
 1823W        W 5342   5.865   1.595   3.424 -0.4386  0.2212  0.1612
 1824W        W 5343   8.753   1.864   2.200 -0.0518  0.0036 -0.0191
 1825W        W 5344   2.064   7.983  11.179  0.0183  0.0749 -0.1017
 1826W        W 5345   2.255   0.474  10.680 -0.3510 -0.0302 -0.0282
 1827W        W 5346   3.471   4.136  10.151  0.0610 -0.2601 -0.1011
 1828W        W 5347   4.056   3.715   2.133 -0.0372  0.3487 -0.3121
 1829W        W 5348   2.669   1.220  11.072  0.0866 -0.0742 -0.1149
 1830W        W 5349   5.873   7.904   3.805  0.0792 -0.2259 -0.5401
 1831W        W 5350   3.806   6.815   2.006  0.1400 -0.1519 -0.3381
 1832W        W 5351   9.147   7.320   0.471 -0.1780  0.1709 -0.0034
 1833W        W 5352   8.870   6.116   2.393  0.1625  0.0086 -0.1463
 1834W        W 5353   0.545   9.522   1.932 -0.0741  0.0913  0.0709
 1835W        W 5354   8.512   4.134   3.974  0.1845  0.0407 -0.0371
 1836W        W 5355   5.514   8.181   4.082  0.1700  0.0811 -0.0762
 1837W        W 5356   2.113   9.083   8.850 -0.0710  0.2921 -0.2312
 1838W        W 5357   7.888   8.439   9.099  0.3123  0.3579 -0.4905
 1839W        W 5358   9.462   0.829   9.405 -0.0859  0.2612  0.2715
 1840W        W 5359   4.183   8.524   0.886 -0.2767  0.0158  0.0974
 1841W        W 5360   4.220   1.045   3.065 -0.4309  0.1716  0.3163
 1842W        W 5361   5.215   5.325   1.319 -0.1431  0.1274 -0.1184
 1843W        W 5362   8.292   4.664  11.079  0.0099  0.0847 -0.2218
 1844W        W 5363   6.816   1.878  12.368  0.1838  0.0224  0.2629
 1845W        W 5364   0.048   2.317   3.205 -0.0893  0.3294  0.0326
 1846W        W 5365   5.318   2.759   2.698  0.1404 -0.0983 -0.3721
 1847W        W 5366   9.592   8.487   9.859 -0.0237  0.0482 -0.2124
 1848W        W 5367   6.355   7.376  11.927 -0.0511  0.1933  0.1501
 1849W        W 5368   4.306   5.885   9.505  0.2343 -0.1707  0.0129
 1850W        W 5369   1.136   1.880   4.179 -0.2804  0.0658 -0.0982
 1851W        W 5370   2.498   4.043   0.077 -0.2251 -0.1360 -0.0358
 1852W        W 5371   5.836   0.484  11.440 -0.3727 -0.1696  0.1268
 1853W        W 5372   2.396   1.933   2.787 -0.1607  0.5463 -0.3357
 1854W        W 5373   5.122   4.799   8.301 -0.0305  0.0141  0.1882
 1855W        W 5374   1.076   5.223   0.307  0.0570  0.2205 -0.1256
 1856W        W 5375   8.729   3.187   1.529  0.1952  0.0501 -0.4458
 1857W        W 5376   9.438   4.129   4.066 -0.0918 -0.1632  0.2301
 1858W        W 5377   9.317   5.542   2.936 -0.2640  0.1161  0.0173
 1859W        W 5378   1.531   3.219   8.712  0.3154  0.0485 -0.1728
 1860W        W 5379   4.651   5.856   9.859  0.0694  0.2490  0.3219
 1861W        W 5380   5.673   3.066  12.443  0.0226 -0.2078 -0.0552
 1862W        W 5381   9.041   6.528   3.943 -0.2724  0.0553  0.1429
 1863W        W 5382   8.485   6.001   1.158 -0.0560 -0.0217  0.0106
 1864W        W 5383   6.382   4.505  10.503  0.0293  0.0327 -0.0257
 1865W        W 5384   3.535   6.733   0.585  0.0973 -0.1602  0.3666
 1866W        W 5385   1.606   1.525   4.619 -0.1006  0.2463 -0.0848
 1867W        W 5386   4.898   4.548   8.710 -0.3176 -0.0561 -0.0972
 1868W        W 5387   4.603   2.594   9.434 -0.0431 -0.2031 -0.1053
 1869W        W 5388   5.019   3.361   9.682  0.2173 -0.2007 -0.2167
 1870W        W 5389   5.772   7.649  11.026 -0.1294 -0.0660 -0.2035
 1871W        W 5390   9.121   4.169   9.209 -0.1732 -0.1920  0.4264
 1872W        W 5391   5.593   5.517   4.018 -0.3287 -0.0957 -0.2343
 1873W        W 5392   2.107   9.556   7.802  0.0824  0.0151  0.2011
 1874W        W 5393   6.497   6.769   0.199  0.1392  0.0504  0.3983
 1875W        W 5394   4.116   2.448   0.638  0.1084  0.2979  0.1523
 1876W        W 5395   3.750   0.105   2.991  0.2827 -0.2905  0.0472
 1877W        W 5396   8.419   5.197   3.826  0.1574  0.1488  0.3119
 1878W        W 5397   8.454   2.863   0.394  0.1674  0.0421 -0.0960
 1879W        W 5398   4.082   8.272   3.107 -0.0448 -0.0605  0.3063
 1880W        W 5399   3.424   6.449   1.573  0.3622 -0.1751  0.2040
 1881W        W 5400   3.227   6.062   4.113 -0.1357 -0.1594 -0.0131
 1882W        W 5401   7.100   5.003   1.590 -0.2225 -0.2405 -0.0337
 1883W        W 5402   6.848   1.425   0.142 -0.0471  0.1412  0.0979
 1884W        W 5403   9.101   8.496   0.948  0.0617  0.1388  0.1552
 1885W        W 5404   7.590   1.961  10.155  0.0757 -0.1935 -0.2710
 1886W        W 5405   0.875   2.670   9.310  0.2794  0.0975 -0.0192
 1887W        W 5406   2.255   4.411  11.112 -0.0829 -0.4521  0.0357
 1888W        W 5407   1.577   9.512  10.649 -0.0144  0.0776  0.2264
 1889W        W 5408   0.473   0.795   8.797  0.0009  0.0074 -0.0570
 1890W        W 5409   7.083   4.129  11.354  0.1580 -0.3749  0.1001
 1891W        W 5410   0.984   7.529   1.435 -0.1635 -0.1355  0.2797
 1892W        W 5411   5.195   0.401   2.145  0.0602  0.3332  0.5763
 1893W        W 5412   4.782   3.962   3.198  0.0388  0.2230  0.0134
 1894W        W 5413   7.197   4.177   8.282  0.2402  0.0584  0.0594
 1895W        W 5414   2.998   2.078   0.522 -0.2168  0.2670 -0.1300
 1896W        W 5415   2.615   9.326  11.500  0.3073 -0.2867 -0.0874
 1897W        W 5416   8.339   4.052   4.521  0.1795 -0.0060 -0.3988
 1898W        W 5417   8.081   5.103   1.755  0.2424 -0.0577 -0.1314
 1899W        W 5418   8.284   3.671   2.238 -0.0989  0.2879  0.1421
 1900W        W 5419   4.785   8.746   2.282  0.3858 -0.1075 -0.1027
 1901W        W 5420   1.746   5.732   1.777  0.0298  0.1224  0.0467
 1902W        W 5421   0.631   5.847   0.600 -0.0194  0.0147 -0.2112
 1903W        W 5422   4.169   0.008   3.262  0.2319  0.2899  0.0491
 1904W        W 5423   4.390   0.433   2.342  0.0404 -0.0242 -0.0494
 1905W        W 5424   1.452   0.406   9.470 -0.2941  0.0875  0.2745
 1906W        W 5425   6.903   4.959   9.877 -0.0167  0.0615 -0.1505
 1907W        W 5426   7.107   1.872   8.454 -0.0912  0.2709  0.1030
 1908W        W 5427   8.884   2.150   2.878  0.0277 -0.3580 -0.2331
 1909W        W 5428   3.302   0.517  10.506  0.0165 -0.2776 -0.1223
 1910W        W 5429   7.766   0.955  12.392  0.0537  0.1556  0.1528
 1911W        W 5430   0.589   1.429   3.318  0.1400 -0.1575  0.3780
 1912W        W 5431   7.494   5.523   3.663  0.0882 -0.1095 -0.0847
 1913W        W 5432   2.451   5.138   0.213  0.1353 -0.2255 -0.0437
 1914W        W 5433   8.896   3.335  10.262  0.0283 -0.1283 -0.0125
 1915W        W 5434   4.113   9.032   8.192 -0.2289  0.1019 -0.0455
 1916W        W 5435   3.541   4.760  11.877  0.0813  0.0623  0.0383
 1917W        W 5436   7.982   3.202  12.133  0.1941  0.1034  0.1157
 1918W        W 5437   8.725   8.441   3.125 -0.3460  0.1706 -0.0244
 1919W        W 5438   4.779   9.162  10.108 -0.1830  0.1144  0.1011
 1920W        W 5439   2.864   1.910   2.726 -0.0082 -0.1981 -0.0378
 1921W        W 5440   5.247   4.192   9.679 -0.2262  0.1471 -0.1078
 1922W        W 5441   2.173   8.736   9.838  0.2534  0.1419 -0.0896
 1923W        W 5442   3.075   5.413  11.501 -0.1016  0.1398 -0.0628
 1924W        W 5443   8.705   1.154   0.480  0.0632 -0.0092 -0.1487
 1925W        W 5444   2.606   5.842   9.393  0.0364 -0.2049  0.0214
 1926W        W 5445   4.402   3.212   0.861  0.1448  0.0706 -0.2616
 1927W        W 5446   0.063   2.197   9.018 -0.2112 -0.1623 -0.2104
 1928W        W 5447   5.486   0.644   1.817 -0.0007  0.0162 -0.2472
 1929W        W 5448   7.455   7.305   3.431  0.1816  0.0161  0.3196
 1930W        W 5449   2.539   4.856   1.070 -0.1060 -0.0549 -0.0263
 1931W        W 5450   5.637   8.156  11.514  0.0276  0.2352 -0.4617
 1932W        W 5451   4.977   0.475  10.239 -0.2557 -0.1311 -0.1350
 1933W        W 5452   0.917   1.746   2.882 -0.3781  0.0260 -0.1618
 1934W        W 5453   7.262   6.243  12.152 -0.0880  0.7329 -0.1621
 1935W        W 5454   6.065   1.008  12.329  0.3430 -0.1625 -0.0896
 1936W        W 5455   3.500   9.056  10.406 -0.0424  0.0134  0.0487
 1937W        W 5456   6.525   6.789   2.172 -0.3389 -0.2739  0.0988
 1938W        W 5457   1.434   2.078  11.853  0.1077  0.0207  0.0457
 1939W        W 5458   8.852   1.129   3.690  0.1665 -0.1292 -0.0612
 1940W        W 5459   2.740   9.046  11.104  0.2289  0.0116 -0.0668
 1941W        W 5460   1.019   2.623   9.737 -0.0716 -0.1532  0.1630
 1942W        W 5461   7.517   5.972   8.751  0.1220  0.1014  0.0532
 1943W        W 5462   5.584   7.397   0.824 -0.2377 -0.0194  0.0687
 1944W        W 5463   0.074   7.647   1.512  0.0173  0.2817  0.0168
 1945W        W 5464   8.868   7.025   2.016 -0.0360  0.0751  0.1209
 1946W        W 5465   1.081   7.821   1.036 -0.3114  0.1589  0.0214
 1947W        W 5466   6.864   5.118   4.917 -0.2474  0.0007 -0.0047
 1948W        W 5467   4.549   2.510   0.830  0.0535 -0.0745 -0.2364
 1949W        W 5468   2.598   4.060  11.186 -0.1462  0.2728 -0.0277
 1950W        W 5469   9.579   1.327   9.260 -0.0066  0.2169  0.1547
 1951W        W 5470   0.815   3.018   0.623 -0.1316  0.2054  0.4134
 1952W        W 5471   5.723   8.561  11.844 -0.4451  0.1405 -0.0744
 1953W        W 5472   9.058   6.190   3.182 -0.0104 -0.0185  0.1522
 1954W        W 5473   7.675   2.541   3.266 -0.1687 -0.0358  0.0979
 1955W        W 5474   3.864   7.971   3.400  0.0536  0.2128 -0.3186
 1956W        W 5475   7.227   9.588   2.413 -0.1173 -0.1531  0.0941
 1957W        W 5476   6.493   9.351   1.934 -0.1177 -0.0500  0.0790
 1958W        W 5477   9.217   2.370  12.165 -0.2050  0.0568 -0.2896
 1959W        W 5478   5.988   1.855   0.131 -0.0833  0.1528 -0.1774
 1960W        W 5479   4.262   6.049  11.532 -0.4235  0.0570  0.0373
 1961W        W 5480   2.564   6.045   0.559 -0.0416 -0.0070 -0.0626
 1962W        W 5481   2.497   6.350  10.898 -0.0240 -0.2462  0.1566
 1963W        W 5482   7.601   9.389   8.293  0.0378  0.2253 -0.3347
 1964W        W 5483   1.732   2.208   3.445  0.2575  0.0706  0.0503
 1965W        W 5484   3.219   4.686  11.096  0.1548  0.0605 -0.1768
 1966W        W 5485   8.394   5.195   8.945 -0.0853 -0.0391 -0.2939
 1967W        W 5486   2.185   6.499  10.155 -0.2054 -0.1285  0.1584
 1968W        W 5487   3.654   8.705   0.867  0.1923  0.0996 -0.0813
 1969W        W 5488   4.137   6.367   9.478 -0.0079  0.0686 -0.0407
 1970W        W 5489   1.493   0.610   1.876  0.3517 -0.0153 -0.2093
 1971W        W 5490   8.511   2.828   3.449 -0.1543  0.1585  0.0330
 1972W        W 5491   9.110   3.133  11.515  0.3314  0.0543 -0.1598
 1973W        W 5492   2.128   3.662  10.047 -0.0521  0.2220  0.0077
 1974W        W 5493   9.121   1.236  11.390 -0.0234  0.0802 -0.2437
 1975W        W 5494   1.664   5.366  11.663  0.1055 -0.0221 -0.0084
 1976W        W 5495   4.216   2.830   3.111 -0.0726 -0.0563  0.2848
 1977W        W 5496   4.471   0.221  12.147  0.2620  0.1463  0.0015
 1978W        W 5497   2.932   9.189  10.414  0.1925 -0.0169 -0.0248
 1979W        W 5498   3.006   8.975   4.435 -0.2775 -0.1622 -0.2238
 1980W        W 5499   7.677   5.743   4.065 -0.1407 -0.0507  0.0526
 1981W        W 5500   0.073   5.022   1.299 -0.1393  0.2333  0.2111
 1982W        W 5501   6.315   5.132   1.858 -0.0570 -0.1036 -0.2546
 1983W        W 5502   7.215   0.302   4.136  0.0366 -0.0332  0.1895
 1984W        W 5503   0.199   5.163  10.940  0.3887 -0.1458  0.1344
 1985W        W 5504   5.670   6.690   9.269  0.2663 -0.1903 -0.2436
 1986W        W 5505   6.928   2.754  10.005 -0.0947 -0.0271 -0.3065
 1987W        W 5506   3.955   8.724  10.216 -0.2223  0.1731 -0.0638
 1988W        W 5507   1.719   0.535   0.369  0.0191  0.1926  0.2853
 1989W        W 5508   2.305   6.369   1.853  0.1483  0.0345  0.1473
 1990W        W 5509   4.523   3.638   3.492  0.2945  0.0333  0.3767
 1991W        W 5510   6.286   7.657   1.882  0.0830 -0.0172  0.0805
 1992W        W 5511   1.931   2.794   2.406 -0.4082  0.0611  0.1269
 1993W        W 5512   7.466   0.140   2.078  0.3183  0.0569 -0.0747
 1994W        W 5513   1.453   7.541   3.173  0.0662 -0.3183  0.0249
 1995W        W 5514   6.270   3.318   9.133 -0.2872 -0.1969  0.0334
 1996W        W 5515   3.705   4.367  10.558 -0.0844 -0.2866 -0.3841
 1997W        W 5516   1.085   0.969  11.118  0.2510 -0.2924  0.0928
 1998W        W 5517   8.129   5.625   1.181 -0.3315 -0.1761  0.1170
 1999W        W 5518   6.327   3.264   0.712  0.2889  0.0434  0.0409
 2000W        W 5519   5.403   1.920   8.606  0.1707  0.1419 -0.1124
 2001W        W 5520   3.996   0.832   9.821 -0.2723 -0.1470 -0.1947
 2002W        W 5521   3.331   1.800   1.964 -0.0036  0.4724 -0.2285
 2003W        W 5522   4.700   3.113   1.834  0.0302  0.0343 -0.1396
 2004W        W 5523   1.724   7.589   9.310  0.1845 -0.4249 -0.0047
 2005W        W 5524   4.177   5.308  10.441  0.0303 -0.1753 -0.0326
 2006W        W 5525   8.666   1.534  10.286 -0.0233 -0.0813  0.1473
 2007W        W 5526   6.409   6.864   1.642  0.1734 -0.2902  0.0019
 2008W        W 5527   4.220   4.176  11.269  0.0218 -0.1640  0.1832
 2009W        W 5528   0.148   9.303  12.063 -0.0322  0.4035  0.0395
 2010W        W 5529   6.277   4.036  12.249 -0.2590  0.1758 -0.0118
 2011W        W 5530   0.093   6.629   0.623  0.1689  0.0405  0.2389
 2012W        W 5531   7.588   6.117   8.165  0.2168 -0.1043  0.4547
 2013W        W 5532   3.197   8.014   1.159 -0.2605 -0.2077  0.0521
 2014W        W 5533   3.277   8.174   4.819  0.4853 -0.1692 -0.0861
 2015W        W 5534   9.022   1.010   1.896 -0.2296  0.1139 -0.0091
 2016W        W 5535   0.490   1.947   3.238 -0.0727 -0.1222  0.0400
 2017W        W 5536   1.291   9.600  12.299 -0.0753  0.0809  0.0440
 2018W        W 5537   7.416   7.826   9.290  0.1161  0.1883 -0.0693
 2019W        W 5538   2.369   9.282   0.615  0.1279 -0.0187 -0.1831
 2020W        W 5539   3.930   4.517  11.043 -0.1505 -0.1216 -0.1232
 2021W        W 5540   6.300   8.134   9.213  0.2028 -0.1902 -0.1557
 2022W        W 5541   5.613   0.238  11.901 -0.0828 -0.2485  0.2153
 2023W        W 5542   8.671   1.275   0.967 -0.1458  0.1310 -0.1159
 2024W        W 5543   0.168   5.363   0.702  0.3869 -0.3621 -0.1069
 2025W        W 5544   3.560   0.837   1.914 -0.0866  0.1675 -0.0302
 2026W        W 5545   6.980   3.024   3.547  0.0627 -0.1431 -0.2139
 2027W        W 5546   2.546   3.588   1.318 -0.1730 -0.0656  0.0635
 2028W        W 5547   4.843   2.021  10.407  0.1598  0.2345 -0.2366
 2029W        W 5548   0.382   3.049   0.332 -0.3900  0.3069 -0.1090
 2030W        W 5549   6.572   4.490   1.145 -0.1466 -0.1308 -0.2842
 2031W        W 5550   5.243   2.416   2.341  0.1560  0.0257 -0.1707
 2032W        W 5551   1.464   6.823   4.111 -0.1287 -0.2550  0.0621
 2033W        W 5552   7.571   3.018   2.351 -0.3937  0.2624  0.2482
 2034W        W 5553   7.603   2.658  11.386  0.0756  0.1510  0.0862
 2035W        W 5554   9.696   1.972   2.313 -0.1010  0.1639 -0.0579
 2036W        W 5555   2.119   2.682  12.067  0.0131  0.0668  0.2827
 2037W        W 5556   7.294   1.457   1.553 -0.0344  0.0165 -0.1315
 2038W        W 5557   1.901   2.635   2.880 -0.2098 -0.0166 -0.3287
 2039W        W 5558   0.821   1.079   0.549  0.1323 -0.2437 -0.0558
 2040W        W 5559   2.821   3.777  10.726 -0.1149  0.1396  0.2000
 2041W        W 5560   7.991   1.067   3.333  0.2788 -0.0598  0.2863
 2042W        W 5561   6.479   3.598   0.028 -0.2458  0.0980 -0.0422
 2043W        W 5562   7.008   0.347   2.198  0.0244 -0.0226  0.1646
 2044W        W 5563   6.862   3.655   4.578 -0.1370 -0.3097 -0.0827
 2045W        W 5564   8.150   0.533   0.675  0.3875  0.0237 -0.0488
 2046W        W 5565   1.546   6.822   0.123 -0.2535 -0.3602  0.0859
 2047W        W 5566   2.614   4.252  10.730 -0.0184 -0.2674 -0.0759
 2048W        W 5567   5.709   1.627   8.406 -0.0431  0.2886 -0.2510
 2049W        W 5568   4.122   0.815  10.341  0.1382  0.0579 -0.1851
 2050W        W 5569   5.711   9.207   3.953 -0.0196  0.0387 -0.1191
 2051W        W 5570   3.678   4.077   2.177 -0.0899 -0.1812  0.0683
 2052W        W 5571   1.311   6.892   9.990  0.0561  0.0816 -0.0127
 2053W        W 5572   9.154   4.788   1.615  0.3139  0.0111 -0.0820
 2054W        W 5573   7.671   7.625  11.754 -0.1670  0.3334 -0.1017
 2055W        W 5574   5.788   6.344   1.938  0.0233 -0.1553 -0.0603
 2056W        W 5575   3.374   4.789  10.590 -0.0367  0.0329  0.3549
 2057W        W 5576   3.014   7.671   9.694 -0.1001 -0.1373 -0.3082
 2058W        W 5577   3.483   1.493   1.438 -0.1154  0.0313 -0.2644
 2059W        W 5578   7.028   1.216   3.943 -0.0017 -0.0087  0.3574
 2060W        W 5579   1.784   4.363   9.117  0.1924 -0.1732  0.0109
 2061W        W 5580   6.133   0.587  10.625  0.0666  0.1784  0.1571
 2062W        W 5581   6.222   5.719   8.909  0.2042  0.0029  0.2241
 2063W        W 5582   0.693   9.261  11.920  0.0483  0.0082 -0.0426
 2064W        W 5583   9.598   4.147   3.520 -0.1115 -0.0685  0.1422
 2065W        W 5584   7.060   0.785   3.360 -0.0462 -0.2264 -0.0949
 2066W        W 5585   3.516   4.558   9.827 -0.3880  0.2646  0.1305
 2067W        W 5586   3.426   7.120   3.521  0.0072 -0.2105  0.4567
 2068W        W 5587   5.939   2.237  10.443  0.0662  0.4117  0.1590
 2069W        W 5588   3.390   7.740   3.627 -0.0514  0.3115  0.0242
 2070W        W 5589   3.887   7.927   1.813  0.0405 -0.0382  0.5262
 2071W        W 5590   9.566   4.924   2.335  0.2408  0.1117 -0.2389
 2072W        W 5591   2.078   2.831   0.954  0.4324 -0.0051  0.0473
 2073W        W 5592   6.125   9.102   0.322 -0.4624 -0.0525 -0.0754
 2074W        W 5593   3.425   5.493   9.726 -0.4630 -0.0480  0.0014
 2075W        W 5594   3.474   4.924   0.954  0.0002 -0.0595 -0.1187
 2076W        W 5595   4.800   9.444   1.677  0.1037  0.1886 -0.1436
 2077W        W 5596   0.596   0.255   0.125 -0.0475  0.2603 -0.0746
 2078W        W 5597   7.782   2.174  11.278  0.1311 -0.1858  0.3894
 2079W        W 5598   8.201   5.781  11.607  0.0210 -0.1642 -0.1053
 2080W        W 5599   6.668   4.861   0.510 -0.0963 -0.1358 -0.0520
 2081W        W 5600   5.396   2.662   3.768 -0.3414  0.3112  0.0325
 2082W        W 5601   1.338   0.332   8.414  0.2756 -0.0786  0.1635
 2083W        W 5602   2.556   2.287   9.137 -0.1953  0.0988  0.2525
 2084W        W 5603   3.705   1.558  11.878 -0.4605  0.1156 -0.1327
 2085W        W 5604   7.488   8.476  11.980 -0.2278  0.1611  0.1442
 2086W        W 5605   3.871   9.577   2.422  0.1867  0.0661  0.1775
 2087W        W 5606   6.957   8.017   2.326  0.3662  0.0535 -0.2519
 2088W        W 5607   2.403   1.487   1.470  0.3766  0.0598 -0.1232
 2089W        W 5608   8.146   1.794   3.444  0.0789  0.1363  0.0668
 2090W        W 5609   4.060   6.778   7.772  0.1036 -0.0724 -0.0156
 2091W        W 5610   2.240   4.473   0.935 -0.0270  0.0381  0.1641
 2092W        W 5611   3.274   2.114   4.159  0.2293 -0.1862  0.0835
 2093W        W 5612   9.338   1.729  11.335 -0.0546  0.0311 -0.0533
 2094W        W 5613   1.826   0.849   3.349 -0.0469  0.1243  0.1527
 2095W        W 5614   6.642   3.749   2.933  0.3131  0.2993  0.4136
 2096W        W 5615   6.146   2.933  11.546  0.1505  0.3131  0.0094
 2097W        W 5616   0.709   5.166   8.591 -0.1177  0.3356 -0.0091
 2098W        W 5617   7.218   6.641   1.323  0.2311 -0.1574 -0.1626
 2099W        W 5618   2.763   5.760   1.178  0.0197 -0.0898  0.3183
 2100W        W 5619   5.921   0.614  11.992 -0.4417  0.0281  0.2095
 2101W        W 5620   1.533   6.379   9.102  0.0882 -0.2483 -0.1477
 2102W        W 5621   9.281   3.733   1.980  0.0251  0.3448  0.3262
 2103W        W 5622   6.190   6.183   4.093 -0.2968  0.3915 -0.1553
 2104W        W 5623   7.288   9.603   9.296 -0.1327  0.1617 -0.1503
 2105W        W 5624   5.394   4.734  10.823  0.0143  0.2683 -0.2603
 2106W        W 5625   0.296   8.499   4.218  0.1916  0.0322  0.0735
 2107W        W 5626   8.443   2.482   9.631 -0.0425 -0.0483  0.0283
 2108W        W 5627   9.611   2.716   8.800  0.1225 -0.1905 -0.0632
 2109W        W 5628   7.795   7.587  12.248  0.2746 -0.1536 -0.0177
 2110W        W 5629   6.423   0.753   2.756 -0.0983  0.1406  0.3389
 2111W        W 5630   6.745   4.925  10.326  0.3788 -0.1374 -0.3367
 2112W        W 5631   7.616   4.982  11.398  0.2226  0.2413 -0.1508
 2113W        W 5632   3.699   0.641   2.941 -0.2064  0.2103 -0.1790
 2114W        W 5633   6.654   9.696   3.601  0.0884  0.0612 -0.0980
 2115W        W 5634   2.100   1.348   1.050  0.1588 -0.0576 -0.0896
 2116W        W 5635   8.347   7.324   1.540  0.3184  0.1561 -0.1757
 2117W        W 5636   7.821   9.438  10.015 -0.0668  0.3069  0.1567
 2118W        W 5637   7.858   4.366   3.284  0.1377  0.1120 -0.0226
 2119W        W 5638   6.422   1.476   1.304 -0.0151 -0.0488  0.0657
 2120W        W 5639   9.609   1.816  10.187  0.0830  0.0433  0.1078
 2121W        W 5640   0.095   1.475   8.315 -0.2218 -0.0911  0.1013
 2122W        W 5641   2.169   4.818  12.120 -0.1082  0.0820 -0.1540
 2123W        W 5642   6.031   9.250  10.476  0.2308 -0.1969  0.3322
 2124W        W 5643   3.806   2.285   3.907  0.1663 -0.1922 -0.0261
 2125W        W 5644   4.638   5.157   9.049  0.0759  0.2787 -0.1928
 2126W        W 5645   5.644   6.964   1.848  0.0710  0.4443  0.0147
 2127W        W 5646   9.134   3.492   0.731 -0.3988  0.3035  0.1467
 2128W        W 5647   1.521   7.647   1.209 -0.0761 -0.1289 -0.1381
 2129W        W 5648   7.045   2.584  11.267  0.0923  0.1473 -0.1895
 2130W        W 5649   4.306   5.469   1.805  0.1003 -0.0055 -0.3251
 2131W        W 5650   3.485   3.840  10.560 -0.0336 -0.0349 -0.0683
 2132W        W 5651   3.414   6.724   8.473  0.1962 -0.1557 -0.0704
 2133W        W 5652   2.044   4.550   0.409 -0.0554  0.1494  0.0899
 2134W        W 5653   3.656   2.612   0.453  0.0515  0.2039  0.4086
 2135W        W 5654   0.477   6.132  12.179  0.2844 -0.1412  0.3046
 2136W        W 5655   1.468   9.524  11.276  0.2932  0.3123 -0.1355
 2137W        W 5656   7.141   8.261   1.271  0.4096  0.0604  0.2462
 2138W        W 5657   1.174   8.480   2.353 -0.2282 -0.4514  0.0557
 2139W        W 5658   2.916   1.473   1.405  0.3501 -0.0690 -0.2947
 2140W        W 5659   4.235   8.725   2.272 -0.1857 -0.1364 -0.2180
 2141W        W 5660   0.372   6.717   0.191 -0.0459 -0.1447 -0.0434
 2142W        W 5661   8.727   6.639   9.993 -0.0323 -0.2529 -0.1730
 2143W        W 5662   0.009   7.132   0.373  0.1186  0.1564  0.1108
 2144W        W 5663   6.664   0.580   9.189  0.4003 -0.2960 -0.1738
 2145W        W 5664   7.978   5.866   8.962 -0.3473  0.3191  0.1473
 2146W        W 5665   6.825   7.177   3.474 -0.2602 -0.1096  0.1096
 2147W        W 5666   3.334   1.726  11.246 -0.0656  0.0211 -0.0517
 2148W        W 5667   2.518   0.474  11.656 -0.1530 -0.0241  0.0354
 2149W        W 5668   9.548   6.226   3.074 -0.0641  0.1300  0.3922
 2150W        W 5669   9.558   4.128  11.500 -0.0498  0.1743 -0.0322
 2151W        W 5670   8.023   7.881  11.350  0.0908  0.2732  0.0080
 2152W        W 5671   5.525   1.100   1.600  0.1326 -0.0755 -0.0326
 2153W        W 5672   8.312   8.135   2.995 -0.0140 -0.1394 -0.2568
 2154W        W 5673   7.609   2.823   1.100 -0.1196 -0.0634  0.1111
 2155W        W 5674   2.129   4.900  10.297  0.0393 -0.1513  0.4185
 2156W        W 5675   7.720   6.011   3.589  0.0306  0.1871  0.0664
 2157W        W 5676   7.110   2.858   2.667  0.1707  0.1279  0.1578
 2158W        W 5677   8.713   5.567   1.184  0.0635  0.2556  0.1086
 2159W        W 5678   0.378   3.752   2.387  0.4418  0.0264  0.0589
 2160W        W 5679   5.610   6.885   4.023  0.2719 -0.1277 -0.2701
 2161W        W 5680   8.833   3.678   1.686  0.0617  0.1076 -0.1471
 2162W        W 5681   6.412   9.104  11.565 -0.0964 -0.0952  0.4119
 2163W        W 5682   5.027   0.361   1.592 -0.1536  0.1426  0.0055
 2164W        W 5683   3.209   6.256  11.893 -0.2691  0.0456 -0.3673
 2165W        W 5684   4.142   6.880  11.802  0.1082  0.1105  0.1024
 2166W        W 5685   1.046   7.020   3.843 -0.1511 -0.1851 -0.3022
 2167W        W 5686   8.525   9.391  12.022  0.3265 -0.2566 -0.2044
 2168W        W 5687   5.557   2.405   1.698 -0.1373 -0.2694  0.1298
 2169W        W 5688   9.521   9.439   0.859 -0.2409 -0.1530 -0.0064
 2170W        W 5689   9.478   4.365   1.544 -0.0141  0.3240 -0.0624
 2171W        W 5690   6.786   0.467   3.844  0.1198  0.1020  0.1603
 2172W        W 5691   2.660   4.205   1.020 -0.3584 -0.0846  0.1936
 2173W        W 5692   8.316   3.843  10.640 -0.0634  0.4348 -0.3001
 2174W        W 5693   9.483   0.160  10.587 -0.0584 -0.1398  0.2701
 2175W        W 5694   1.651   8.871   9.939  0.1519 -0.0440 -0.1373
 2176W        W 5695   2.697   9.206   0.016 -0.2175 -0.0133  0.0257
 2177W        W 5696   4.578   3.335   2.297 -0.0565 -0.2906 -0.0050
 2178W        W 5697   0.133   3.322   3.123  0.0952  0.2339  0.0098
 2179W        W 5698   7.009   7.565  11.053  0.2419  0.1036  0.2791
 2180W        W 5699   6.724   7.808  12.416 -0.3345 -0.0467 -0.1235
 2181W        W 5700   1.857   1.330   3.497  0.3151 -0.0232 -0.1034
 2182W        W 5701   6.846   8.502   2.423 -0.0696 -0.1662 -0.0342
 2183W        W 5702   0.149   5.967   3.542 -0.1457 -0.1252  0.1241
 2184W        W 5703   0.690   1.074   9.769  0.0275  0.2022 -0.0982
 2185W        W 5704   0.653   0.145   4.129  0.2687 -0.0978 -0.0995
 2186W        W 5705   7.004   2.936   9.540  0.0544 -0.1434  0.1158
 2187W        W 5706   7.260   5.493   2.311 -0.0127 -0.0992  0.3610
 2188W        W 5707   5.226   8.756   1.181  0.0615  0.2806 -0.1541
 2189W        W 5708   1.755   3.799   2.390 -0.4679  0.2411  0.0361
 2190W        W 5709   6.975   4.645   2.354 -0.0267 -0.0894 -0.0620
 2191W        W 5710   8.462   3.246  11.781  0.0455  0.2371 -0.0323
 2192W        W 5711   4.539   3.062   2.744  0.2426 -0.0168  0.1971
 2193W        W 5712   3.825   1.115   1.523 -0.2641 -0.1730 -0.3284
 2194W        W 5713   0.692   5.778   1.910  0.0909 -0.0038 -0.0783
 2195W        W 5714   9.490   6.408  11.720 -0.2059  0.1957  0.1366
 2196W        W 5715   6.082   7.891   9.992 -0.1326  0.2849 -0.2655
 2197W        W 5716   0.543   6.982   9.620  0.3159 -0.1581  0.1760
 2198W        W 5717   2.369   5.278   2.822  0.1608 -0.0310  0.2144
 2199W        W 5718   9.217   4.687  11.170  0.0244 -0.0905  0.0443
 2200W        W 5719   3.123   6.373  12.358 -0.3191  0.0797 -0.1350
 2201W        W 5720   6.946   1.731   1.211  0.0253  0.3007  0.1072
 2202W        W 5721   6.910   1.063  10.301  0.3208 -0.0185 -0.1114
 2203W        W 5722   4.256   6.929  10.806 -0.1432  0.0105 -0.2297
 2204W        W 5723   2.212   8.718  12.300  0.0201  0.1687 -0.2184
 2205W        W 5724   4.038   0.715   2.127  0.2695  0.1018  0.0874
 2206W        W 5725   8.997   6.717   1.623  0.0859 -0.1697 -0.0982
 2207W        W 5726   0.908   4.192   0.101 -0.2634 -0.0599 -0.0184
 2208W        W 5727   7.865   9.630   1.761  0.1014 -0.0464  0.1414
 2209W        W 5728   4.217   7.684  12.141 -0.0392 -0.2879 -0.0083
 2210W        W 5729   7.000   0.222  12.252 -0.1176  0.2320  0.3470
 2211W        W 5730   6.119   3.935   9.595  0.1361  0.0785  0.0413
 2212W        W 5731   7.987   8.741   4.908  0.1508 -0.2684  0.1642
 2213W        W 5732   6.483   3.099  12.241 -0.1301 -0.1073 -0.1991
 2214W        W 5733   2.230   7.641   1.117  0.0418 -0.1780 -0.1381
 2215W        W 5734   1.274   1.528   0.949 -0.0176  0.1540 -0.1146
 2216W        W 5735   5.527   2.902   1.766  0.0436 -0.1589 -0.2916
 2217W        W 5736   7.303   1.424   3.052 -0.1324 -0.0970  0.0923
 2218W        W 5737   9.204   1.830   0.565  0.0672  0.2304  0.0746
 2219W        W 5738   5.894   7.641   2.140  0.2422 -0.0358 -0.0854
 2220W        W 5739   9.052   0.046   3.709 -0.0651  0.1055 -0.1517
 2221W        W 5740   8.087   8.319   2.508 -0.0444 -0.3239 -0.1621
 2222W        W 5741   0.413   5.612   8.755  0.0548 -0.4363 -0.0194
 2223W        W 5742   6.205   4.137   3.888  0.2007  0.1063 -0.0449
 2224W        W 5743   3.179   1.011   3.461  0.0278  0.0448  0.3014
 2225W        W 5744   8.768   5.748   9.560  0.0589  0.0048  0.1087
 2226W        W 5745   3.616   2.294   3.428 -0.1819  0.1520 -0.0961
 2227W        W 5746   4.084   4.010   2.545 -0.1476  0.0668  0.3087
 2228W        W 5747   2.308   6.183   8.653 -0.4160 -0.5392 -0.0158
 2229W        W 5748   5.361   6.023   0.561 -0.2371 -0.2291  0.2550
 2230W        W 5749   3.597   5.064   0.271 -0.0483  0.0941  0.2751
 2231W        W 5750   6.395   6.900   9.739 -0.0536  0.4414  0.0209
 2232W        W 5751   8.058   7.347   0.564  0.0381 -0.0661  0.0802
 2233W        W 5752   8.025   1.811   2.617 -0.0812  0.0931 -0.3960
 2234W        W 5753   7.567   0.459  10.607  0.0567  0.0436 -0.0386
 2235W        W 5754   0.116   1.110  10.750  0.0134  0.0081  0.0574
 2236W        W 5755   6.572   5.749   3.507 -0.2046  0.1587  0.0726
 2237W        W 5756   1.979   9.625   8.945  0.1299  0.0367  0.1335
 2238W        W 5757   8.676   6.003   0.686 -0.0505  0.1455 -0.1075
 2239W        W 5758   0.355   5.803  11.356 -0.1209 -0.1400 -0.0733
 2240W        W 5759   5.152   6.378   2.529 -0.0901  0.0830 -0.3613
 2241W        W 5760   1.398   4.524  10.908  0.0472  0.1472 -0.0423
 2242W        W 5761   8.500   1.969  11.752  0.2340 -0.1202 -0.0033
 2243W        W 5762   7.487   3.320   2.682 -0.1123 -0.2239 -0.1871
 2244W        W 5763   6.294   6.293   3.586  0.0332 -0.0326 -0.0263
 2245W        W 5764   9.056   5.244   4.461 -0.0022 -0.2381  0.2793
 2246W        W 5765   9.437   7.904   2.205  0.1500  0.2569  0.0277
 2247W        W 5766   1.408   1.113   3.515 -0.0581 -0.0172 -0.1497
 2248W        W 5767   1.775   3.287  10.133 -0.1007 -0.0859  0.0352
 2249W        W 5768   9.564   9.433   8.624  0.3193 -0.2514 -0.3313
 2250W        W 5769   7.363   7.831   2.113  0.4365 -0.2126 -0.1088
 2251W        W 5770   0.564   0.886   2.015  0.0769 -0.3677  0.0775
 2252W        W 5771   9.461   3.751   0.965  0.0052 -0.0122  0.1078
 2253W        W 5772   5.999   8.892   9.593  0.0143  0.0592 -0.1041
 2254W        W 5773   4.683   3.499   0.001  0.0378 -0.0253  0.1662
 2255W        W 5774   8.384   7.783   9.857 -0.1428  0.2431 -0.0501
 2256W        W 5775   6.035   1.242   8.800 -0.0464  0.1581 -0.0188
 2257W        W 5776   4.789   2.748   8.514  0.3183 -0.2625  0.2145
 2258W        W 5777   2.908   3.099  10.132  0.4845  0.0190 -0.2951
 2259W        W 5778   8.358   0.458   1.659  0.1414  0.1379  0.1450
 2260W        W 5779   7.179   1.646  11.587 -0.0699  0.1936  0.2064
 2261W        W 5780   8.143   9.217   1.617 -0.1752  0.4241  0.0208
 2262W        W 5781   2.826   5.579  10.965 -0.2534  0.0858 -0.2381
 2263W        W 5782   8.568   9.675   4.672 -0.3302 -0.0429 -0.1511
 2264W        W 5783   1.585   1.905   9.707  0.0887  0.0802  0.1283
 2265W        W 5784   6.652   0.226  11.936  0.0896  0.2141  0.1196
 2266W        W 5785   7.205   5.056  11.628  0.0066  0.2206 -0.0388
 2267W        W 5786   1.497   6.389  12.280 -0.2942 -0.2483 -0.1502
 2268W        W 5787   1.135   3.704  11.805  0.0601  0.1879  0.0873
 2269W        W 5788   7.655   0.491  11.560 -0.4245 -0.0176 -0.1778
 2270W        W 5789   9.191   6.816   4.348  0.1868  0.1451  0.2283
 2271W        W 5790   8.413   0.199   3.131  0.2221  0.4407  0.0562
 2272W        W 5791   3.054   3.397   9.368  0.0074  0.2426  0.2720
 2273W        W 5792   4.800   9.624   2.631  0.1169 -0.2349 -0.1023
 2274W        W 5793   0.547   9.075   0.641 -0.3057 -0.2350  0.0183
 2275W        W 5794   5.801   1.889  11.349  0.3341 -0.1458 -0.0720
 2276W        W 5795   7.032   0.206   0.751  0.5530  0.5338  0.0632
 2277W        W 5796   6.300   7.042   1.181 -0.3205  0.1203 -0.0359
 2278W        W 5797   6.664   7.286   1.861 -0.0103  0.1353 -0.0537
 2279W        W 5798   0.565   4.716   1.000 -0.1606 -0.1730  0.2450
 2280W        W 5799   6.919   8.792   0.101 -0.1670 -0.0773 -0.1534
 2281W        W 5800   7.672   3.930   1.187 -0.0246 -0.0069  0.1304
 2282W        W 5801   5.219   3.305   2.023  0.0305  0.0399 -0.2935
 2283W        W 5802   9.321   9.345   9.827  0.0779 -0.2663 -0.1651
 2284W        W 5803   1.033   3.889  10.167 -0.0286 -0.2441  0.0810
 2285W        W 5804   0.112   2.840   9.923 -0.2017  0.0957  0.2804
 2286W        W 5805   5.157   3.104  11.235  0.3324 -0.0325 -0.0377
 2287W        W 5806   8.310   7.362  12.135  0.3193  0.1205 -0.2081
 2288W        W 5807   7.061   0.627   9.959 -0.3434 -0.2707  0.2386
 2289W        W 5808   0.814   3.580   2.440 -0.2736  0.2840  0.1194
 2290W        W 5809   7.173   7.881   9.797  0.3497  0.3748 -0.1024
 2291W        W 5810   0.788   3.557   1.040  0.0228 -0.3044 -0.2629
 2292W        W 5811   7.635   5.927   0.497  0.0733 -0.0341 -0.1159
 2293W        W 5812   7.929   4.317   2.658  0.4891 -0.1726 -0.0701
 2294W        W 5813   9.258   7.146   1.584 -0.0766 -0.0590  0.2040
 2295W        W 5814   4.363   4.677   3.762 -0.0224 -0.2290  0.0779
 2296W        W 5815   6.953   3.326   0.776 -0.5954  0.1274  0.2811
 2297W        W 5816   8.457   7.534   4.524  0.0073  0.0839  0.2320
 2298W        W 5817   7.972   4.040  11.606 -0.4237  0.1807 -0.0150
 2299W        W 5818   4.920   9.222   4.318 -0.0884  0.2013 -0.1192
 2300W        W 5819   9.144   5.976   2.747  0.0818  0.0401 -0.2299
 2301W        W 5820   5.075   1.652  11.957  0.0169 -0.0661 -0.2001
 2302W        W 5821   6.758   7.948   9.415 -0.0972  0.3827  0.0230
 2303W        W 5822   3.268   3.444  12.025 -0.3000  0.1914  0.2091
 2304W        W 5823   5.901   4.363   1.833  0.1568  0.1411  0.0406
 2305W        W 5824   2.508   9.630   1.188 -0.0931  0.0135 -0.0535
 2306W        W 5825   1.176   1.980  10.049  0.1450  0.0497 -0.1664
 2307W        W 5826   8.281   1.080   2.169 -0.2545  0.2849 -0.3063
 2308W        W 5827   2.907   2.274   8.706 -0.0137  0.1773  0.1330
 2309W        W 5828   7.921   7.337   8.987  0.2078  0.2712 -0.1107
 2310W        W 5829   1.560   3.543   3.165  0.0629 -0.2009 -0.0883
 2311W        W 5830   9.163   6.939   9.859 -0.2683  0.0998 -0.4416
 2312W        W 5831   4.171   0.588  10.848 -0.0506  0.0170  0.0003
 2313W        W 5832   2.642   3.209  11.421  0.0960  0.0331 -0.5165
 2314W        W 5833   1.914   1.870  11.665 -0.2445  0.0223  0.0862
 2315W        W 5834   5.277   1.826  11.466 -0.4440  0.2764  0.2397
 2316W        W 5835   1.832   6.683  11.603  0.2543  0.2500  0.0724
 2317W        W 5836   0.143   7.682   2.687  0.0150 -0.1413 -0.2336
 2318W        W 5837   3.431   9.474  11.603 -0.0993 -0.2485  0.1863
 2319W        W 5838   6.669   8.896   8.766 -0.0882  0.1106  0.1214
 2320W        W 5839   3.373   5.100   1.941 -0.1083 -0.0984  0.1861
 2321W        W 5840   7.450   9.572   0.563 -0.0048  0.0396 -0.1048
 2322W        W 5841   3.450   8.268   3.413  0.1574  0.4309  0.1572
 2323W        W 5842   1.155   7.487   3.703 -0.0017  0.0233  0.0106
 2324W        W 5843   3.245   4.810   3.333 -0.3325  0.2518 -0.1520
 2325W        W 5844   8.031   6.265   8.126 -0.1585  0.1162  0.0525
 2326W        W 5845   7.301   4.071  10.312  0.4040 -0.1493 -0.0592
 2327W        W 5846   5.811   6.089   3.705  0.3496 -0.0624 -0.1114
 2328W        W 5847   5.479   0.317  10.450  0.0212  0.1253 -0.1787
 2329W        W 5848   2.700   6.133   2.843  0.1877 -0.0777  0.1273
 2330W        W 5849   5.502   2.395  11.352  0.0270 -0.2048  0.0826
 2331W        W 5850   5.728   7.512   9.740  0.4256 -0.1422  0.1135
 2332W        W 5851   6.004   5.529  12.040 -0.0305  0.2239 -0.0975
 2333W        W 5852   5.820   8.050   0.162 -0.3072 -0.0310 -0.0776
 2334W        W 5853   7.157   0.924   1.521  0.0943  0.0564 -0.1787
 2335W        W 5854   9.650   8.024   3.152 -0.0130  0.3712  0.3445
 2336W        W 5855   4.190   3.215   1.395 -0.3186  0.0789  0.1311
 2337W        W 5856   5.282   7.627  12.395  0.1155 -0.2351  0.2670
 2338W        W 5857   6.212   5.565   0.929 -0.1509 -0.4108 -0.0658
 2339W        W 5858   7.502   7.884  11.316  0.2998  0.0061 -0.2128
 2340W        W 5859   3.364   5.044  11.433  0.0025  0.1107  0.0614
 2341W        W 5860   3.562   6.118   8.385 -0.2423 -0.0567  0.0583
 2342W        W 5861   3.453   0.804  11.270  0.1413 -0.0067 -0.1841
 2343W        W 5862   6.997   8.596  12.034  0.1940 -0.0821  0.1304
 2344W        W 5863   2.605   7.386   0.802  0.2328  0.1851  0.1498
 2345W        W 5864   9.125   8.168   0.398  0.0068  0.2796  0.0923
 2346W        W 5865   3.616   3.254   3.771 -0.3837 -0.1558 -0.3427
 2347W        W 5866   9.657   5.816   2.664  0.2587 -0.0079  0.0322
 2348W        W 5867   0.657   8.309   3.493  0.2034 -0.2352  0.0810
 2349W        W 5868   3.154   5.073  10.094 -0.3205  0.0454  0.0041
 2350W        W 5869   4.550   5.759   3.014  0.1762 -0.4069 -0.1268
 2351W        W 5870   9.585   3.028  10.863 -0.0709  0.2143 -0.0755
 2352W        W 5871   1.058   2.115  11.448 -0.0205 -0.0139  0.2048
 2353W        W 5872   3.050   9.589  12.432 -0.1611 -0.1808 -0.0198
 2354W        W 5873   7.693   9.347   9.240 -0.4220  0.2808  0.3111
 2355W        W 5874   2.145   1.629   3.253  0.1169  0.0158  0.1800
 2356W        W 5875   0.118   5.465   3.664 -0.2496  0.1219 -0.2099
 2357W        W 5876   9.042   9.186   1.764 -0.0107 -0.1102  0.0781
 2358W        W 5877   3.294   4.304  11.713 -0.1206 -0.1596 -0.1575
 2359W        W 5878   0.196   9.531   4.802 -0.0746  0.1550  0.1201
 2360W        W 5879   8.213   8.947  11.297  0.0227  0.0431  0.2844
 2361W        W 5880   7.561   8.251   9.619 -0.2999  0.0620  0.0011
 2362W        W 5881   9.382   5.927   0.088  0.2352 -0.0632  0.0868
 2363W        W 5882   3.289   0.598   8.992  0.1821  0.0314 -0.4881
 2364W        W 5883   4.502   7.972  10.205 -0.0426 -0.2271  0.2015
 2365W        W 5884   8.399   4.172   8.858  0.4756 -0.1118 -0.2342
 2366W        W 5885   5.283   3.531   0.497  0.1465 -0.1592 -0.1514
 2367W        W 5886   2.865   9.437   2.592  0.2908  0.2317 -0.2426
 2368W        W 5887   1.511   4.414   9.676 -0.0749 -0.2040 -0.1491
 2369W        W 5888   5.761   4.939   0.198 -0.2469  0.1628 -0.0127
 2370W        W 5889   2.563   4.487   1.482  0.1137  0.0395 -0.1053
 2371W        W 5890   2.916   1.212   3.809  0.1706 -0.1002 -0.3355
 2372W        W 5891   6.643   8.502   0.453  0.1809  0.1580 -0.2800
 2373W        W 5892   2.005   8.203   3.259 -0.2257 -0.1873  0.0756
 2374W        W 5893   8.922   2.622   9.613  0.1041  0.1721 -0.1276
 2375W        W 5894   3.804   8.318   9.946  0.1431 -0.1713 -0.2375
 2376W        W 5895   5.440   1.739  10.050  0.0143  0.0053  0.1165
 2377W        W 5896   7.920   6.995   1.840 -0.1841  0.0124  0.2355
 2378W        W 5897   0.175   2.287   0.862 -0.1746  0.1957 -0.0882
 2379W        W 5898   3.819   5.565  10.179  0.0291  0.1350  0.0923
 2380W        W 5899   6.146   6.687  10.737 -0.2209 -0.0409 -0.0998
 2381W        W 5900   6.487   9.092   4.392  0.0222  0.0575  0.1516
 2382W        W 5901   8.227   9.629   1.279 -0.3620  0.0132 -0.2235
 2383W        W 5902   8.037   8.764   1.753  0.0793 -0.0014  0.1497
 2384W        W 5903   3.736   2.102  10.447  0.0461 -0.0695  0.0338
 2385W        W 5904   6.804   5.552   2.511  0.2740  0.4206  0.2018
 2386W        W 5905   4.515   7.553   4.839  0.0714 -0.1102  0.0203
 2387W        W 5906   5.707   0.315  12.391  0.1437 -0.1296 -0.1609
 2388W        W 5907   4.846   8.550  10.893 -0.0504  0.0718 -0.2396
 2389W        W 5908   3.375   1.921   2.486 -0.0246  0.0030 -0.2870
 2390W        W 5909   5.464   1.298   2.779 -0.2234  0.2390  0.0715
 2391W        W 5910   6.899   7.026   9.422  0.1756 -0.1508  0.0737
 2392W        W 5911   3.411   0.528   3.345  0.0091 -0.3269  0.2791
 2393W        W 5912   6.559   7.286   2.442  0.0155 -0.0417 -0.0014
 2394W        W 5913   8.292   6.136  10.705  0.3476  0.0749  0.1117
 2395W        W 5914   6.799   0.950   0.213  0.0250 -0.1072 -0.6010
 2396W        W 5915   7.834   3.961   2.986 -0.1691  0.0226 -0.3161
 2397W        W 5916   6.506   1.340   3.275 -0.3245 -0.2472  0.1424
 2398W        W 5917   5.508   3.115   3.500 -0.2042 -0.0553  0.0173
 2399W        W 5918   6.027   8.428  12.314  0.1721  0.0358 -0.2677
 2400W        W 5919   6.185   4.629   9.143  0.2790  0.0687 -0.0626
 2401W        W 5920   9.721   2.752   0.499  0.2466 -0.1392  0.0347
 2402W        W 5921   1.491   6.187  10.105 -0.2799 -0.1999  0.1642
 2403W        W 5922   6.931   6.464   2.947  0.1991 -0.1587 -0.0314
 2404W        W 5923   1.198   5.989   2.446 -0.2583  0.0847 -0.0114
 2405W        W 5924   0.531   6.045   4.661  0.2128  0.2748 -0.0775
 2406W        W 5925   3.262   2.786  10.965  0.0196  0.1249 -0.4087
 2407W        W 5926   4.517   7.432   2.129  0.2407  0.3340  0.0138
 2408W        W 5927   5.927   4.481  10.172  0.2104  0.1102  0.1200
 2409W        W 5928   0.341   9.333  11.498  0.0911  0.0915  0.0373
 2410W        W 5929   5.423   3.228  10.029 -0.0627 -0.0264 -0.1337
 2411W        W 5930   6.747   9.508   0.736  0.0269  0.0035 -0.0552
 2412W        W 5931   1.421   4.313   2.610 -0.1233 -0.1344 -0.0367
 2413W        W 5932   5.786   8.037  10.457 -0.2824 -0.3430  0.0222
 2414W        W 5933   5.394   6.071   2.240  0.1021 -0.0321 -0.1913
 2415W        W 5934   1.359   2.701  12.390 -0.0361  0.2643  0.0159
 2416W        W 5935   9.487   5.881  10.171  0.2110  0.1009 -0.1787
 2417W        W 5936   3.307   7.928   0.402 -0.1801 -0.3932 -0.3339
 2418W        W 5937   2.631   0.373   2.041 -0.3656  0.0630 -0.2616
 2419W        W 5938   2.388   5.953  11.211  0.1508  0.2820  0.2287
 2420W        W 5939   5.896   6.992   0.850  0.1894 -0.0420  0.0612
 2421W        W 5940   3.411   1.500   9.948  0.0446 -0.3068 -0.3351
 2422W        W 5941   0.280   2.542  11.160 -0.1312  0.0146 -0.0638
 2423W        W 5942   4.974   8.372   3.185  0.2564 -0.1475  0.0705
 2424W        W 5943   8.852   1.756   1.623  0.1835  0.1418 -0.0397
 2425W        W 5944   6.706   3.301  10.162 -0.1119  0.1068  0.1522
 2426W        W 5945   5.584   3.302   1.348 -0.0546 -0.1703 -0.0922
 2427W        W 5946   3.401   8.649  12.094 -0.0851  0.1357  0.0254
 2428W        W 5947   9.231   2.749   0.850  0.1983  0.4226  0.1427
 2429W        W 5948   6.869   0.061   9.997  0.1398  0.1216 -0.0795
 2430W        W 5949   7.840   3.827   1.886 -0.0959 -0.0433  0.1510
 2431W        W 5950   5.200   0.438  11.524  0.0108  0.1765 -0.2314
 2432W        W 5951   4.269   5.120   9.486  0.0187 -0.1831 -0.1529
 2433W        W 5952   8.616   6.483  12.247 -0.1112 -0.1046  0.2275
 2434W        W 5953   5.748   2.822  11.147 -0.1921  0.1188 -0.5051
 2435W        W 5954   1.470   5.112  11.165 -0.3464  0.1037  0.0414
 2436W        W 5955   1.061   9.681   5.276 -0.0831 -0.2811 -0.0369
 2437W        W 5956   5.722   5.664   9.643  0.1140  0.2384  0.0525
 2438W        W 5957   5.773   5.442  11.302 -0.0356 -0.4241  0.1440
 2439W        W 5958   8.386   9.135   9.954  0.0415 -0.0279 -0.1334
 2440W        W 5959   4.755   1.609   9.172 -0.1837 -0.0758  0.3627
 2441W        W 5960   5.668   9.689   3.819 -0.0249  0.1998  0.1459
 2442W        W 5961   8.144   8.554   3.324 -0.2622  0.1726 -0.2563
 2443W        W 5962   4.361   7.508   1.659  0.2930  0.0376  0.1351
 2444W        W 5963   8.817   0.477  11.516  0.2605  0.0118  0.2748
 2445W        W 5964   9.060   8.284   1.408  0.1203  0.2987  0.1739
 2446W        W 5965   8.885   4.799   4.614  0.0095  0.1966  0.3056
 2447W        W 5966   1.624   8.184  11.033  0.0424  0.4023 -0.1526
 2448W        W 5967   2.567   8.604  10.841 -0.0606  0.4426 -0.0864
 2449W        W 5968   1.462   1.572   3.838 -0.1248  0.0926 -0.1927
 2450W        W 5969   3.664   5.986   1.555  0.0513 -0.0512 -0.0230
 2451W        W 5970   5.566   5.288  11.847  0.2761  0.3084  0.0437
 2452W        W 5971   4.510   8.640   2.732  0.0644  0.0561  0.2095
 2453W        W 5972   7.159   7.907   4.097  0.0519  0.0161  0.3542
 2454W        W 5973   3.735   0.689   8.813 -0.2264  0.3480  0.1294
 2455W        W 5974   6.008   6.000   2.760  0.1591  0.2756  0.2658
 2456W        W 5975   6.200   3.174   3.950  0.0164  0.2835 -0.2231
 2457W        W 5976   6.621   6.378   1.725  0.2611  0.0032  0.2289
 2458W        W 5977   2.048   2.888  10.461  0.2075  0.3915 -0.2700
 2459W        W 5978   8.051   5.246   9.728 -0.1148  0.1326  0.0450
 2460W        W 5979   9.355   1.767   4.603 -0.1025 -0.3713 -0.2628
 2461W        W 5980   8.074   0.065   2.754 -0.0802 -0.1873  0.2623
 2462W        W 5981   4.629   6.416   8.372  0.2011  0.0635 -0.3413
 2463W        W 5982   1.445   6.501   2.206 -0.0492 -0.0718 -0.1066
 2464W        W 5983   7.653   5.727   2.075  0.2268 -0.3987  0.4052
 2465W        W 5984   2.711   5.497   0.463 -0.2394  0.1132  0.0954
 2466W        W 5985   7.762   3.593  11.314 -0.2646  0.4282 -0.5918
 2467W        W 5986   9.642   9.337   4.411 -0.1695  0.0219  0.2402
 2468W        W 5987   6.888   3.450  11.935  0.1634  0.1400 -0.0339
 2469W        W 5988   0.217   0.702   1.730 -0.2506  0.2471 -0.3701
 2470W        W 5989   7.911   5.296  11.830 -0.0253 -0.0255 -0.0947
 2471W        W 5990   3.818   6.654   1.391  0.2219  0.0313 -0.2528
 2472W        W 5991   5.851   5.829  11.701 -0.1652 -0.1874 -0.2925
 2473W        W 5992   6.729   1.680  11.839 -0.0565 -0.2243 -0.3161
 2474W        W 5993   3.136   3.717   8.990 -0.2106  0.1070 -0.1584
 2475W        W 5994   5.098   0.290  12.155 -0.2224 -0.3046  0.0817
 2476W        W 5995   1.426   2.955  11.440 -0.1748 -0.3330  0.1237
 2477W        W 5996   8.541   3.348  10.604  0.0061 -0.0102  0.3907
 2478W        W 5997   8.222   8.066  10.816  0.5407  0.5931 -0.0117
 2479W        W 5998   4.898   1.993   8.825  0.2148  0.2182  0.0415
 2480W        W 5999   2.268   3.903   3.124  0.0439  0.2680 -0.0878
 2481W        W 6000   8.055   2.935   2.570  0.1907  0.2293  0.2666
 2482W        W 6001   7.781   0.517   0.230  0.2737 -0.5175  0.0897
 2483W        W 6002   9.494   4.035   2.980  0.2234  0.0545  0.3226
 2484W        W 6003   4.227   8.184   2.586  0.2227 -0.1255  0.3007
 2485W        W 6004   7.191   2.205   3.871  0.0976 -0.1232 -0.0005
 2486W        W 6005   1.635   0.215  12.128 -0.0416  0.0625 -0.1431
 2487W        W 6006   8.291   6.187  11.261 -0.0640  0.1235  0.1344
 2488W        W 6007   4.996   6.466   0.601 -0.2076  0.1453  0.1382
 2489W        W 6008   4.889   3.115   1.024  0.1361  0.1374 -0.1684
 2490W        W 6009   3.321   1.675  12.129 -0.0543  0.1332 -0.0381
 2491W        W 6010   8.207   1.919   0.489 -0.3164  0.0936  0.0767
 2492W        W 6011   1.392   6.785   0.819 -0.3178 -0.1010  0.1737
 2493W        W 6012   7.960   7.769   8.170  0.5496  0.0360  0.0859
 2494W        W 6013   2.177   8.736   9.250  0.0768 -0.1268  0.1534
 2495W        W 6014   9.265   4.127   9.749  0.0338  0.1327  0.0592
 2496W        W 6015   2.290   4.095   9.893 -0.1892 -0.0329 -0.1523
 2497W        W 6016   6.959   3.922   9.298 -0.0089 -0.1215 -0.0040
 2498W        W 6017   0.628   4.320   1.567  0.3023  0.0148  0.1720
 2499W        W 6018   8.343   4.847  10.640  0.0818 -0.0620  0.0112
 2500W        W 6019   1.177   0.071   9.750 -0.1294 -0.3842  0.2263
 2501W        W 6020   5.391   0.115   0.302 -0.2022  0.1757 -0.0714
 2502W        W 6021   3.211   8.352   0.815 -0.1692  0.1907  0.3411
 2503W        W 6022   5.425   9.178   0.038  0.3127 -0.1608  0.0472
 2504W        W 6023   4.809   9.025  11.110  0.3285 -0.3137  0.0767
 2505W        W 6024   2.453   5.354   0.869  0.0288 -0.1500 -0.2649
 2506W        W 6025   0.930   3.300  12.172  0.1807  0.1522  0.2374
 2507W        W 6026   5.705   0.901   1.008 -0.1583  0.2013  0.1664
 2508W        W 6027   9.295   7.473   3.647  0.2000  0.1818 -0.1729
 2509W        W 6028   1.602   6.665   1.332  0.0252  0.2427  0.0513
 2510W        W 6029   0.162   1.427   2.987 -0.0041 -0.0086  0.0855
 2511W        W 6030   4.002   9.462   3.834 -0.1353 -0.0751  0.1865
 2512W        W 6031   6.836   0.359  11.490  0.2386  0.3518  0.2361
 2513W        W 6032   7.559   3.403   2.014 -0.0314 -0.0272  0.2230
 2514W        W 6033   4.224   5.865  10.326  0.1856  0.1046 -0.2104
 2515W        W 6034   1.530   6.303   9.633 -0.2246 -0.1057  0.1333
 2516W        W 6035   6.088   5.988   9.883 -0.0455  0.2854 -0.0998
 2517W        W 6036   5.362   3.606   1.660  0.2751 -0.3849  0.0501
 2518W        W 6037   4.097   1.887  11.915 -0.2627 -0.3742 -0.1838
 2519W        W 6038   0.318   0.991   3.113 -0.1403  0.0748 -0.0631
 2520W        W 6039   4.374   1.859   0.136  0.0300  0.0665  0.3373
 2521W        W 6040   2.544   0.130  11.197  0.3842  0.2386  0.2648
 2522W        W 6041   5.819   4.993   3.344  0.1440  0.3888 -0.1960
 2523W        W 6042   5.774   3.357   1.810  0.4868  0.1041  0.1778
 2524W        W 6043   7.159   4.123   3.250 -0.0490 -0.0203  0.2620
 2525W        W 6044   0.357   7.974  10.230 -0.1413  0.0982  0.0643
 2526W        W 6045   9.714   1.154   1.590 -0.1583 -0.0118 -0.0616
 2527W        W 6046   4.238   0.173  10.522  0.1266  0.1262 -0.3669
 2528W        W 6047   5.010   6.234   3.604 -0.0588 -0.1028 -0.1497
 2529W        W 6048   1.528   5.002   0.158 -0.0697  0.0084 -0.1828
 2530W        W 6049   6.929   8.588   9.832 -0.0243  0.2259  0.4897
 2531W        W 6050   9.470   3.909  11.944  0.0154  0.0906 -0.2355
 2532W        W 6051   6.043   3.679   3.287  0.2634  0.1729 -0.0289
 2533W        W 6052   2.444   8.196  10.389  0.3289  0.1873  0.1052
 2534W        W 6053   2.985   9.228   9.396 -0.1662  0.0077  0.0770
 2535W        W 6054   5.245   2.987   9.521  0.0173 -0.1776  0.2743
 2536W        W 6055   4.709   8.251  11.348 -0.0501  0.0123 -0.0209
 2537W        W 6056   6.381   4.729   9.960  0.1626  0.1036 -0.0748
 2538W        W 6057   8.863   8.756  10.375 -0.0174 -0.3024  0.0359
 2539W        W 6058   6.364   6.334   0.498 -0.3593 -0.2164  0.2604
 2540W        W 6059   2.470   5.495   1.852 -0.0615  0.1311 -0.1199
 2541W        W 6060   1.676   2.545   1.174  0.0056  0.1378  0.0263
 2542W        W 6061   3.665   8.407   9.497  0.2464 -0.0542 -0.3722
 2543W        W 6062   7.481   3.673   1.579  0.0146  0.3292 -0.0923
 2544W        W 6063   2.099   6.530  11.171 -0.1719 -0.4478  0.0807
 2545W        W 6064   7.213   7.366   9.678 -0.0805  0.2599  0.1737
 2546W        W 6065   6.714   6.331   2.207  0.0972  0.1462 -0.0107
 2547W        W 6066   8.540   2.217   2.547 -0.3313  0.0406 -0.2146
 2548W        W 6067   3.716   4.021   9.717 -0.1517  0.2995  0.1522
 2549W        W 6068   7.726   6.206   2.023 -0.1035  0.1218 -0.1010
 2550W        W 6069   0.138   0.577  12.468 -0.3259 -0.0617  0.1510
 2551W        W 6070   2.892   9.023   3.445  0.1305 -0.0605 -0.1451
 2552W        W 6071   4.474   6.801  10.181  0.1388  0.0956 -0.1168
 2553W        W 6072   5.860   6.704  10.000 -0.2419 -0.0646 -0.1853
 2554W        W 6073   5.361   0.716   9.997  0.2428 -0.3368 -0.2648
 2555W        W 6074   0.935   0.485   4.454  0.3542 -0.2287 -0.0824
 2556W        W 6075   0.171   0.862   3.718 -0.2453 -0.3099  0.0576
 2557W        W 6076   1.130   9.323   9.544 -0.0771 -0.1326  0.1675
 2558W        W 6077   1.782   1.531   0.270  0.4699 -0.0667  0.0876
 2559W        W 6078   5.530   4.528   3.036  0.2452 -0.0396  0.1304
 2560W        W 6079   0.803   0.078   2.323 -0.0164  0.0762  0.1204
 2561W        W 6080   8.903   0.556  10.588 -0.0961  0.0381 -0.1790
 2562W        W 6081   8.746   4.431  11.861 -0.2888  0.1908 -0.1693
 2563W        W 6082   6.305   4.672  11.869 -0.0930  0.0503  0.2711
 2564W        W 6083   4.767   8.371  11.864  0.1592  0.1825  0.0297
 2565W        W 6084   5.168   0.024  11.724  0.1313 -0.0740 -0.3181
 2566W        W 6085   6.134   3.117   0.185 -0.4444 -0.3696  0.1176
 2567W        W 6086   2.812   4.312   2.371  0.0680  0.0580 -0.2080
 2568W        W 6087   8.767   4.858   9.948  0.1389  0.2348 -0.2676
 2569W        W 6088   9.203   6.460  11.292 -0.1053  0.0435 -0.3090
 2570W        W 6089   6.940   9.400  11.517  0.1956  0.1715  0.0239
 2571W        W 6090   6.500   7.889  10.347  0.1062 -0.1305 -0.1884
 2572W        W 6091   4.335   1.211   4.140  0.0211  0.5922 -0.0060
 2573W        W 6092   5.840   0.826   7.986  0.2044 -0.1387 -0.1185
 2574W        W 6093   0.185   3.719   0.281  0.3437  0.2657  0.1709
 2575W        W 6094   6.783   7.801   0.877 -0.0896 -0.2106 -0.2748
 2576W        W 6095   0.695   0.414   1.865 -0.1476  0.0647  0.1561
 2577W        W 6096   5.391   4.185   8.986  0.1333  0.0942  0.2153
 2578W        W 6097   7.010   7.477   9.144  0.3353  0.0701 -0.0349
 2579W        W 6098   1.228   7.201   2.831  0.0571 -0.0318  0.2568
 2580W        W 6099   2.055   8.248  12.145  0.0886 -0.2532 -0.0859
 2581W        W 6100   3.637   7.305  11.111 -0.1871  0.0731 -0.1295
 2582W        W 6101   4.034   5.194  11.309  0.2397  0.0102  0.1843
 2583W        W 6102   3.918   8.808   9.694 -0.2796 -0.2468 -0.2706
 2584W        W 6103   0.244   3.772   0.918  0.2107 -0.2765  0.3298
 2585W        W 6104   3.191   2.191  12.263  0.4551  0.2550 -0.1555
 2586W        W 6105   2.969   1.193   0.540  0.0820 -0.4205 -0.0552
 2587W        W 6106   6.300   0.671   3.811  0.3107 -0.0046  0.2669
 2588W        W 6107   7.991   3.126   0.163 -0.3442  0.1216  0.1785
 2589W        W 6108   7.747   9.044   8.836  0.0098 -0.1422  0.0015
 2590W        W 6109   5.258   5.698   0.049 -0.0234 -0.1078 -0.0370
 2591W        W 6110   1.713   5.512  10.930  0.3078  0.1067 -0.0221
 2592W        W 6111   2.230   5.672   8.579 -0.0426 -0.0823  0.0740
 2593W        W 6112   9.401   2.441   0.264 -0.3168 -0.2236 -0.0327
 2594W        W 6113   7.970   7.976   9.639  0.2293  0.0377 -0.1447
 2595W        W 6114   9.449   7.329   9.123  0.1557  0.0798 -0.1057
 2596W        W 6115   0.517   2.393  12.245  0.2800  0.1309 -0.0006
 2597W        W 6116   4.744   6.982   2.174 -0.0570 -0.1338 -0.1622
 2598W        W 6117   9.165   1.582  10.461 -0.3637  0.1255  0.0152
 2599W        W 6118   2.090   7.819   9.088  0.1768  0.0126 -0.2852
 2600W        W 6119   0.636   5.956   2.400 -0.2503 -0.3577 -0.1767
 2601W        W 6120   2.529   6.206  11.750 -0.1400  0.0868 -0.0471
 2602W        W 6121   1.337   5.421   1.606  0.2497  0.0283  0.1060
 2603W        W 6122   1.975   1.822   3.711  0.1072  0.2857 -0.3711
 2604W        W 6123   6.748   5.886   4.071 -0.0772  0.1135 -0.0295
 2605W        W 6124   3.655   3.295  11.533  0.1040 -0.0299 -0.0748
 2606W        W 6125   8.375   6.326   4.573 -0.3341  0.1494 -0.1018
 2607W        W 6126   2.751   0.363   1.070 -0.1766  0.2859  0.2726
 2608W        W 6127   3.758   1.545   1.925  0.0993 -0.1005  0.3904
 2609W        W 6128   0.775   2.568  11.511  0.2272  0.0173  0.3776
 2610W        W 6129   4.784   5.245   1.985 -0.2719 -0.3099  0.2947
 2611W        W 6130   7.713   8.412   3.071 -0.0420  0.0859 -0.1417
 2612W        W 6131   0.199   9.215   1.057  0.0947 -0.0139  0.3723
 2613W        W 6132   3.462   9.480   2.712 -0.0285  0.2342 -0.2165
 2614W        W 6133   2.500   3.339   9.239 -0.1590 -0.0408 -0.2707
 2615W        W 6134   8.190   9.325  11.592 -0.0974 -0.0587 -0.1060
 2616W        W 6135   5.454   2.394   1.028 -0.0467 -0.1317 -0.3493
 2617W        W 6136   0.173   8.435   3.319  0.0307 -0.1150  0.0815
 2618W        W 6137   3.347   3.297   8.880  0.2181 -0.0327 -0.0091
 2619W        W 6138   2.417   6.309   9.149  0.0116 -0.0065 -0.1176
 2620W        W 6139   3.840   8.423  12.303 -0.1576  0.1330  0.1867
 2621W        W 6140   3.607   0.154   8.834 -0.3266 -0.0840 -0.1616
 2622W        W 6141   7.262   8.577  11.051  0.2704  0.1629  0.2519
 2623W        W 6142   1.864   2.933   3.829  0.0171 -0.2364 -0.0921
 2624W        W 6143   9.231   0.899   0.631 -0.0095  0.1209 -0.2297
 2625W        W 6144   0.573   0.412   9.628  0.1092 -0.4397 -0.2814
 2626W        W 6145   8.976   0.908   1.177  0.1937  0.2039 -0.1267
 2627W        W 6146   5.215   1.653   9.430  0.0635 -0.2204 -0.2226
 2628W        W 6147   0.032   3.510  10.780  0.2854  0.0240  0.0608
 2629W        W 6148   7.626   9.718  11.712  0.1128 -0.2591 -0.1769
 2630W        W 6149   7.367   6.180   2.801 -0.1130 -0.1240  0.0783
 2631W        W 6150   6.412   5.781   2.950  0.1035  0.1644 -0.0040
 2632W        W 6151   9.062   4.113   0.695 -0.1872  0.0310 -0.0491
 2633W        W 6152   4.093   8.855   1.769  0.2479 -0.1396  0.1579
 2634W        W 6153   5.633   9.570  10.717 -0.0018  0.2329 -0.0298
 2635W        W 6154   0.145   7.018  10.853  0.0553  0.0179 -0.2436
 2636W        W 6155   1.394   5.809   1.208 -0.2000 -0.3265  0.0737
 2637W        W 6156   3.815   1.184   9.471  0.1250 -0.2159  0.0009
 2638W        W 6157   7.581   4.497   0.310 -0.0027  0.2330 -0.2550
 2639W        W 6158   3.664   1.891   9.428  0.1021 -0.0531 -0.0066
 2640W        W 6159   5.044   9.554   0.036 -0.1823 -0.2872 -0.4479
 2641W        W 6160   3.566   7.790   9.869 -0.0696 -0.0101  0.1175
 2642W        W 6161   3.808   3.478  11.081  0.0666 -0.0727  0.0339
 2643W        W 6162   7.903   8.918   9.807 -0.0137  0.1054 -0.1306
 2644W        W 6163   3.955   6.793  10.413  0.0527 -0.0952  0.0488
 2645W        W 6164   8.416   2.799  12.320 -0.3260 -0.0952 -0.1600
 2646W        W 6165   7.354   9.056   0.395  0.0064 -0.1267 -0.2078
 2647W        W 6166   9.244   7.731   3.081  0.1167  0.4720  0.0906
 2648W        W 6167   4.882   2.143   0.886  0.2140 -0.3105  0.0406
 2649W        W 6168   8.645   6.431   2.916  0.0772 -0.1561  0.0646
 2650W        W 6169   2.727   8.693   4.759  0.1652 -0.1238  0.0859
 2651W        W 6170   0.342   9.661   0.929 -0.1091  0.2379 -0.1520
 2652W        W 6171   2.367   4.792  10.790 -0.1120  0.2403  0.0717
 2653W        W 6172   5.938   7.461   2.612 -0.0898 -0.0670  0.0125
 2654W        W 6173   9.563   7.369  10.570  0.3497 -0.3160 -0.2542
 2655W        W 6174   4.222   5.877  12.211  0.1524 -0.2744 -0.1136
 2656W        W 6175   9.586   6.398   2.580  0.1957 -0.2359  0.0753
 2657W        W 6176   5.816   1.354   0.263 -0.2178 -0.0430 -0.1257
 2658W        W 6177   5.824   6.986   3.577  0.0787  0.2034  0.1455
 2659W        W 6178   8.704   8.564   0.625  0.1924  0.3105  0.0757
 2660W        W 6179   7.230   5.602  10.585 -0.1687 -0.0335 -0.0182
 2661W        W 6180   3.036   6.670   0.640  0.2432 -0.1595 -0.2851
 2662W        W 6181   7.277   9.568   4.136  0.0778  0.0992 -0.2090
 2663W        W 6182   4.736   1.198   1.205  0.1834  0.1461 -0.1483
 2664W        W 6183   8.259   4.318  10.630  0.0420  0.1500  0.0754
 2665W        W 6184   4.365   4.247   2.960 -0.1431 -0.0496 -0.0540
 2666W        W 6185   6.103   0.634   2.239  0.0405 -0.0579 -0.3413
 2667W        W 6186   4.777   4.883   1.027 -0.1513  0.0601 -0.4627
 2668W        W 6187   5.260   5.773   3.703  0.0991  0.0085 -0.3226
 2669W        W 6188   6.912   9.406  12.111 -0.3341 -0.0101  0.1058
 2670W        W 6189   8.001   0.542   9.460  0.4209 -0.3443  0.1815
 2671W        W 6190   5.290   7.165   0.065 -0.2370  0.0031  0.3367
 2672W        W 6191   9.065   8.108  12.357 -0.3038 -0.0207 -0.2422
 2673W        W 6192   9.072   1.143  12.126 -0.1001 -0.1371  0.1804
 2674W        W 6193   2.243   8.004  11.725 -0.0210  0.2776 -0.1353
 2675W        W 6194   6.582   0.515   1.869 -0.5592  0.2277  0.1070
 2676W        W 6195   1.999   8.451   0.272 -0.0560  0.0475 -0.1130
 2677W        W 6196   8.425   8.608   0.219 -0.2372  0.1212 -0.1944
 2678W        W 6197   4.668   9.684   3.426 -0.2076  0.0309  0.2309
 2679W        W 6198   8.974   2.418   1.144  0.0788 -0.0016  0.3048
 2680W        W 6199   1.277   1.406   4.279  0.2126 -0.0185  0.2850
 2681W        W 6200   0.391   2.630  11.847  0.0110 -0.0600 -0.2915
 2682W        W 6201   4.033   5.867   1.851 -0.0042 -0.1035  0.1391
 2683W        W 6202   9.466   6.405   1.022 -0.0942  0.1955 -0.0707
 2684W        W 6203   9.653   2.451  12.011 -0.0111  0.3415  0.0215
 2685W        W 6204   0.320   1.986  11.944 -0.2351 -0.1857 -0.1052
 2686W        W 6205   1.407   7.904   3.523  0.2424  0.0628 -0.1232
 2687W        W 6206   2.989   7.334   3.727 -0.1601  0.0627 -0.2800
 2688W        W 6207   1.060   3.343   1.387 -0.4630 -0.1108 -0.1641
 2689W        W 6208   1.654   6.820  10.438 -0.2084  0.0058 -0.1232
 2690W        W 6209   1.207   0.763   9.185 -0.1796  0.0352  0.0292
 2691W        W 6210   1.575   8.419   0.538 -0.1502 -0.0679  0.0138
 2692W        W 6211   5.558   7.917   3.382  0.0726 -0.1577  0.1408
 2693W        W 6212   8.880   8.942   4.680  0.2140  0.0038 -0.4043
 2694W        W 6213   5.827   8.169   0.645 -0.3509 -0.0158 -0.2556
 2695W        W 6214   5.813   0.860   3.833  0.1146  0.1114  0.3756
 2696W        W 6215   2.322   3.455   2.321  0.2830 -0.1481  0.6072
 2697W        W 6216   4.826   1.282   4.192 -0.2921 -0.0935  0.1843
 2698W        W 6217   3.994   0.356  12.136 -0.3750 -0.2302  0.3435
 2699W        W 6218   6.763   5.066  10.907 -0.0157  0.2823 -0.1969
 2700W        W 6219   6.414   5.924   2.471 -0.1066 -0.2133 -0.0246
 2701W        W 6220   8.592   9.496   8.293 -0.3193 -0.2036  0.0236
 2702W        W 6221   1.976   7.896  10.687  0.5115  0.0336 -0.1168
 2703W        W 6222   6.645   3.654   0.988  0.1226 -0.0642 -0.1062
 2704W        W 6223   2.129   2.394  11.573 -0.2008 -0.0973 -0.0671
 2705W        W 6224   0.253   4.987   0.292  0.4766 -0.0309 -0.2415
 2706W        W 6225   0.698   9.001   1.762  0.0638 -0.1541  0.2071
 2707W        W 6226   8.634   8.972   0.979  0.0501  0.0879 -0.5386
 2708W        W 6227   8.500   6.946  12.399  0.2997 -0.1879 -0.1145
 2709W        W 6228   4.460   9.221   4.191  0.1973  0.3237 -0.0599
 2710W        W 6229   9.573   7.914  12.196 -0.3451 -0.1653 -0.1410
 2711W        W 6230   0.346   9.359   3.006 -0.1403 -0.0749  0.0096
 2712W        W 6231   6.382   4.392   1.659 -0.3479 -0.2030 -0.0533
 2713W        W 6232   8.433   4.110   7.545  0.0220  0.0076  0.0092
 2714W        W 6233   9.077   8.242   2.291  0.0374 -0.4658  0.0589
 2715W        W 6234   1.296   3.526  10.880 -0.0711  0.1278  0.1177
 2716W        W 6235   4.689   3.982   1.079 -0.1921  0.2412  0.2039
 2717W        W 6236   6.427   7.845  11.750  0.0098 -0.0340 -0.1571
 2718W        W 6237   8.166   8.524  11.624 -0.2469 -0.2754  0.0664
 2719W        W 6238   2.980   0.423   0.642  0.1131  0.0923 -0.4629
 2720W        W 6239   2.555   4.757   2.010  0.3180 -0.0520 -0.1310
 2721W        W 6240   2.050   2.517   3.599  0.0761 -0.1007  0.0883
 2722W        W 6241   2.920   0.017   1.954 -0.1778  0.1923 -0.1244
 2723W        W 6242   1.994   3.150   2.741  0.0895  0.3877 -0.2288
 2724W        W 6243   0.357   3.130   3.526  0.0676  0.1793 -0.1910
 2725W        W 6244   7.640   5.632   4.562  0.0385 -0.0303 -0.0074
 2726W        W 6245   1.532   6.974   1.714  0.0698 -0.1358 -0.3545
 2727W        W 6246   5.228   8.269  11.306 -0.1126 -0.0107  0.1649
 2728W        W 6247   8.741   0.650   3.375  0.0296  0.0259 -0.1603
 2729W        W 6248   1.687   4.854   9.888  0.2874 -0.1257  0.2391
 2730W        W 6249   7.767   8.465  10.009 -0.1737  0.1814 -0.0423
 2731W        W 6250   7.654   2.900   2.898 -0.3449  0.1465 -0.1696
 2732W        W 6251   8.414   4.001   1.208  0.0980 -0.0776 -0.0098
 2733W        W 6252   6.117   9.000  11.023  0.0770 -0.2303 -0.2072
 2734W        W 6253   6.647   5.919   0.625 -0.1377  0.0144 -0.0723
 2735W        W 6254   6.568   3.172   9.723  0.3160  0.1389 -0.0053
 2736W        W 6255   7.908   2.343  11.750 -0.1523  0.3330 -0.2951
 2737W        W 6256   0.286   1.593   4.186 -0.3098  0.0352 -0.0370
 2738W        W 6257   0.287   1.085   4.220 -0.0578  0.1554  0.0742
 2739W        W 6258   1.869   1.985   2.912  0.2554 -0.2374 -0.0277
 2740W        W 6259   1.775   7.130   9.240 -0.1008 -0.1891 -0.0451
 2741W        W 6260   3.495   2.028   8.248 -0.0575 -0.0285 -0.2262
 2742W        W 6261   3.949   0.940   0.772 -0.1361 -0.1228  0.4446
 2743W        W 6262   6.549   5.242   3.375 -0.2879 -0.4791 -0.0464
 2744W        W 6263   9.029   7.572  11.484 -0.3698 -0.0630 -0.1429
 2745W        W 6264   1.332   2.070   2.099  0.1749  0.1765  0.1841
 2746W        W 6265   4.790   8.467  12.475 -0.0180 -0.3505  0.0267
 2747W        W 6266   6.140   0.222   9.762 -0.0917 -0.3659 -0.0840
 2748W        W 6267   3.386   3.671   3.016 -0.0109  0.2194  0.2799
 2749W        W 6268   5.752   6.403   1.150  0.0790 -0.3704 -0.0922
 2750W        W 6269   2.572   3.167   8.744  0.0111 -0.3550 -0.0412
 2751W        W 6270   2.166   3.039   8.916  0.0606 -0.0350 -0.1567
 2752W        W 6271   4.844   9.047   3.106  0.0201 -0.0034 -0.0706
 2753W        W 6272   1.328   2.826   1.477 -0.1183  0.2656  0.1750
 2754W        W 6273   3.682   9.131   0.561  0.0981 -0.1019 -0.0718
 2755W        W 6274   4.137   8.212   8.863 -0.1850 -0.0454  0.0025
 2756W        W 6275   8.914   1.033   9.626 -0.0102 -0.2665  0.4124
 2757W        W 6276   5.113   7.411   9.069 -0.2508 -0.4366  0.2134
 2758W        W 6277   3.434   2.940   0.760  0.0247  0.1358  0.0571
 2759W        W 6278   5.267   7.307  10.264  0.3560 -0.0079 -0.1459
 2760W        W 6279   8.796   3.450   9.765  0.0713 -0.0089  0.1691
 2761W        W 6280   3.520   0.093   1.374  0.0738  0.1747  0.1231
 2762W        W 6281   0.184   6.252   9.868  0.0492  0.1919  0.3031
 2763W        W 6282   3.228   7.795  12.348  0.0731 -0.3395 -0.2696
 2764W        W 6283   4.796   0.713  12.162 -0.1022 -0.2330 -0.0396
 2765W        W 6284   9.274   0.670  12.447  0.1135  0.0607  0.1326
 2766W        W 6285   5.877   8.980  12.380  0.4003  0.0119 -0.1122
 2767W        W 6286   1.828   3.675   9.380 -0.2008 -0.0707 -0.1902
 2768W        W 6287   7.021   6.603   0.455 -0.2659 -0.1858 -0.2082
 2769W        W 6288   3.358   3.231   1.528  0.4063 -0.0815  0.1859
 2770W        W 6289   2.131   8.140  10.013  0.2495 -0.0579 -0.0010
 2771W        W 6290   4.558   3.521  11.547 -0.1517  0.0018  0.0604
 2772W        W 6291   3.342   2.682   1.258  0.0299 -0.0446  0.0317
 2773W        W 6292   1.828   8.002   9.596  0.0797 -0.1416  0.2570
 2774W        W 6293   1.915   8.860   1.525 -0.1083 -0.2773 -0.0117
 2775W        W 6294   5.263   0.199   8.324  0.0171 -0.2267 -0.3130
 2776W        W 6295   5.603   6.117   3.185  0.3375 -0.0593  0.1508
 2777W        W 6296   5.611   6.097   0.148 -0.0576 -0.3088 -0.0140
 2778W        W 6297   5.717   8.628  11.182  0.1186  0.1374 -0.1431
 2779W        W 6298   5.180   7.413  11.706 -0.1601  0.1194  0.1234
 2780W        W 6299   1.921   8.028   1.039  0.0130 -0.0285  0.1095
 2781W        W 6300   2.908   9.401   8.900 -0.1950  0.0922  0.1285
 2782W        W 6301   7.745   3.515   3.291 -0.0368 -0.1836 -0.1388
 2783W        W 6302   8.211   1.048   8.124  0.0138 -0.0414  0.0295
 2784W        W 6303   0.557   8.940   1.176 -0.3173  0.0590 -0.1256
 2785W        W 6304   8.306   5.029  10.143 -0.2560  0.1049  0.0239
 2786W        W 6305   6.541   8.083   2.034  0.0960  0.1390 -0.0857
 2787W        W 6306   1.282   9.522   3.941 -0.1061 -0.3920 -0.1304
 2788W        W 6307   7.814   2.776   0.529  0.1178  0.2310  0.0025
 2789W        W 6308   8.929   6.709   8.442 -0.1759  0.0142 -0.1128
 2790W        W 6309   3.780   8.172   2.253 -0.0658 -0.1217 -0.1815
 2791W        W 6310   6.187   6.647   4.816  0.1408 -0.4889  0.0989
 2792W        W 6311   7.770   6.787   0.400 -0.1158 -0.1701 -0.0561
 2793W        W 6312   2.701   7.187   8.189 -0.0426  0.0333  0.2575
 2794W        W 6313   8.601   9.372  10.677 -0.1625  0.3486  0.1936
 2795W        W 6314   8.728   7.023   1.308  0.0016 -0.2802  0.0235
 2796W        W 6315   8.067   5.539   4.281 -0.1755 -0.4391  0.0248
 2797W        W 6316   6.854   1.550   9.014  0.1293  0.3518 -0.0641
 2798W        W 6317   3.377   2.658   2.985  0.0636  0.1295 -0.2864
 2799W        W 6318   5.466   7.304   2.214  0.1601  0.0735 -0.0291
 2800W        W 6319   2.217   8.913   4.077  0.1433  0.0080 -0.1805
 2801W        W 6320   1.076   3.198   2.701  0.0712 -0.1736  0.0153
 2802W        W 6321   8.488   6.250   1.624  0.0844 -0.2261  0.2899
 2803W        W 6322   0.739   4.177   9.867 -0.4282  0.0891 -0.0337
 2804W        W 6323   0.786   9.391   9.147  0.2879  0.4056 -0.1141
 2805W        W 6324   7.968   6.725  11.250 -0.1854 -0.3086 -0.0933
 2806W        W 6325   5.672   4.526   3.514  0.0816 -0.2799  0.0214
 2807W        W 6326   7.604   5.232   4.272 -0.0086 -0.0700  0.3898
 2808W        W 6327   5.728   5.649   0.217 -0.2534 -0.3247 -0.1653
 2809W        W 6328   0.797   7.359   0.594 -0.0793 -0.1560  0.0996
 2810W        W 6329   7.686   9.381   0.086  0.0239  0.2956 -0.0505
 2811W        W 6330   7.196   7.215   2.597  0.1154 -0.2066  0.0788
 2812W        W 6331   5.792   7.204   4.959 -0.4379 -0.1310  0.2998
 2813W        W 6332   7.324   1.749   2.008 -0.0416 -0.1956 -0.1382
 2814W        W 6333   3.400   6.819  12.158 -0.0793 -0.3682  0.1830
 2815W        W 6334   9.487   7.666  11.184  0.1379 -0.2977  0.0776
 2816W        W 6335   1.998   7.061  10.201  0.0162  0.1079  0.1400
 2817W        W 6336   1.355   5.095   2.445  0.6249 -0.4154 -0.1183
 2818W        W 6337   8.098   2.889   8.670 -0.0968 -0.2982 -0.0099
 2819W        W 6338   5.399   0.053   0.932  0.2314  0.0607 -0.2995
 2820W        W 6339   8.144   6.228   2.978  0.2750  0.0127  0.1231
 2821W        W 6340   2.076   9.667  12.207 -0.0267  0.2839 -0.0636
 2822W        W 6341   1.377   3.350   0.049 -0.5137 -0.1789  0.1200
 2823W        W 6342   5.626   4.890   2.673  0.1541 -0.1100 -0.1668
 2824W        W 6343   2.331   4.410  10.334  0.0649  0.1921 -0.0078
 2825W        W 6344   9.487   2.647   3.432  0.0074 -0.0079 -0.3893
 2826W        W 6345   8.076   6.277  11.910 -0.1040  0.0920  0.0098
 2827W        W 6346   5.051   2.787   2.049 -0.2686 -0.1788  0.1376
 2828W        W 6347   8.035   5.496  11.220  0.1587 -0.1649  0.0234
 2829W        W 6348   2.902   9.375  11.963  0.2141  0.0590 -0.1748
 2830W        W 6349   3.202   6.709   9.734  0.4665 -0.0477  0.0087
 2831W        W 6350   9.540   0.014   0.467 -0.2352 -0.1802 -0.2003
 2832W        W 6351   9.688   3.273   0.135  0.2729 -0.2497  0.0724
 2833W        W 6352   7.207   8.399   4.226 -0.2950  0.2684  0.0237
 2834W        W 6353   0.794   1.732   9.764  0.0389 -0.0894 -0.2327
 2835W        W 6354   2.215   0.175   4.833  0.1371 -0.0984 -0.0111
 2836W        W 6355   7.964   3.406   8.633  0.0847 -0.2080  0.0528
 2837W        W 6356   7.476   1.411   9.748 -0.1749 -0.1208  0.2081
 2838W        W 6357   8.045   2.569  11.115  0.1092 -0.2257 -0.0692
 2839W        W 6358   4.972   6.689  10.361  0.1425 -0.2519 -0.4399
 2840W        W 6359   0.545   7.954   3.107  0.3041 -0.0148  0.0844
 2841W        W 6360   3.841   7.746  10.338  0.0742  0.1222  0.0369
 2842W        W 6361   1.187   7.912  10.983 -0.2931 -0.0749  0.1056
 2843W        W 6362   5.903   6.373  11.675  0.1935 -0.0396 -0.1371
 2844W        W 6363   5.503   2.282  10.258 -0.1539 -0.1452 -0.3922
 2845W        W 6364   6.959   4.853   1.079  0.3074 -0.1010  0.0994
 2846W        W 6365   3.257   6.813   2.516  0.1040 -0.0290 -0.1001
 2847W        W 6366   3.840   6.984   2.469  0.1368  0.0862  0.0693
 2848W        W 6367   9.078   9.221  10.818  0.0222 -0.1417 -0.1268
 2849W        W 6368   7.980   7.234   3.349 -0.0156 -0.2334  0.4811
 2850W        W 6369   3.877   4.115   3.068 -0.1220 -0.0252 -0.0865
 2851W        W 6370   0.186   8.387  12.383 -0.1529 -0.0318 -0.2667
 2852W        W 6371   0.692   8.799   4.326 -0.0387  0.2189 -0.1912
 2853W        W 6372   3.736   4.112   0.251 -0.0325  0.0921 -0.0820
 2854W        W 6373   4.759   6.654   9.103 -0.0145  0.0097  0.1844
 2855W        W 6374   7.295   7.913   0.953 -0.3062 -0.3798 -0.0092
 2856W        W 6375   1.127   9.588   0.814 -0.3793  0.2928  0.0562
 2857W        W 6376   7.216   8.123   3.596  0.2252  0.1523  0.2971
 2858W        W 6377   3.800   5.043  12.303  0.0318 -0.1053  0.0742
 2859W        W 6378   7.853   1.197   1.005  0.2642 -0.0313 -0.0837
 2860W        W 6379   7.627   9.355  11.287  0.1527  0.1151  0.5986
 2861W        W 6380   5.513   7.671   0.358 -0.0418 -0.1639  0.0445
 2862W        W 6381   9.121   5.122  10.191  0.4391 -0.0436 -0.0185
 2863W        W 6382   8.261   2.644   1.825 -0.0978 -0.1549  0.3425
 2864W        W 6383   2.081   9.673   2.051  0.0308 -0.2388  0.0786
 2865W        W 6384   4.861   6.932   0.970  0.1327  0.0169  0.0084
 2866W        W 6385   4.370   0.093   3.819  0.1122 -0.0518 -0.2340
 2867W        W 6386   0.648   4.194   3.110 -0.1838 -0.4493  0.0645
 2868W        W 6387   2.858   9.395   8.290 -0.0905 -0.1816  0.2790
 2869W        W 6388   8.021   5.130   0.873 -0.3389 -0.0059  0.2936
 2870W        W 6389   2.655   1.824   3.292 -0.2567  0.2382 -0.1804
 2871W        W 6390   7.205   7.469  11.556 -0.1298 -0.0040 -0.2164
 2872W        W 6391   9.235   5.599   1.258 -0.0014  0.1954 -0.0373
 2873W        W 6392   9.698   0.075   8.943 -0.2191  0.2865 -0.0786
 2874W        W 6393   5.858   1.583   4.575 -0.2519  0.3690 -0.0720
 2875W        W 6394   6.148   6.390   2.297  0.0965  0.1958  0.1088
 2876W        W 6395   3.547   0.416   0.534 -0.0035 -0.2338  0.0530
 2877W        W 6396   5.981   7.682   0.594 -0.2356 -0.1342  0.1599
 2878W        W 6397   5.712   2.491   2.257 -0.0148  0.1896  0.1186
 2879W        W 6398   6.113   0.389   1.789  0.0910 -0.1893 -0.0177
 2880W        W 6399   6.629   3.432   8.762 -0.1794  0.0507 -0.2809
 2881W        W 6400   1.869   9.565   4.777 -0.1756  0.4176  0.0716
 2882W        W 6401   3.959   2.206   1.153  0.0356 -0.0705 -0.1918
 2883W        W 6402   4.686   7.130   9.084  0.1726  0.1678 -0.2620
 2884W        W 6403   6.867   5.585  11.513 -0.2078 -0.0817  0.2048
 2885W        W 6404   5.023   3.920   1.465  0.2658 -0.3091 -0.1267
 2886W        W 6405   4.811   5.452   0.957 -0.0997  0.0500  0.0261
 2887W        W 6406   6.149   0.885  11.611  0.0397 -0.3088  0.2180
 2888W        W 6407   8.673   3.128   8.420 -0.0236  0.0329 -0.0520
 2889W        W 6408   5.745   0.837   8.666 -0.1609  0.0827  0.1801
 2890W        W 6409   8.514   6.231   9.661  0.1534 -0.0075  0.0946
 2891W        W 6410   7.423   3.690   9.417 -0.1628 -0.0896  0.0892
 2892W        W 6411   0.575   4.079  10.429  0.1050 -0.2643  0.0646
 2893W        W 6412   7.420   2.172   4.321  0.1308  0.1544  0.4138
 2894W        W 6413   0.532   1.581   8.633 -0.0818 -0.4497  0.1799
 2895W        W 6414   3.082   1.420  10.843 -0.0846  0.0563  0.0372
 2896W        W 6415   7.253   8.634   2.079 -0.3247  0.0756  0.0107
 2897W        W 6416   7.556   7.353  10.635 -0.1755 -0.0838  0.1408
 2898W        W 6417   1.694   7.863  10.093 -0.0422  0.1305 -0.0099
 2899W        W 6418   6.185   6.360   1.512 -0.2676  0.3098 -0.0332
 2900W        W 6419   1.702   2.602   0.562  0.0609  0.1896 -0.1430
 2901W        W 6420   3.150   8.994   9.796  0.1753 -0.3131 -0.1036
 2902W        W 6421   7.626   6.727   4.139 -0.0103  0.0990  0.3473
 2903W        W 6422   9.232   1.926   3.687  0.0565 -0.1827  0.0218
 2904W        W 6423   8.533   1.161   3.321 -0.0865 -0.0585  0.0070
 2905W        W 6424   5.712   4.112   9.951 -0.1323 -0.0152 -0.2378
 2906W        W 6425   1.178   5.890   9.803  0.0892 -0.3433 -0.2995
 2907W        W 6426   2.595   8.670   0.775  0.1673 -0.1115  0.2453
 2908W        W 6427   3.061   1.489   9.065 -0.0221 -0.0072  0.2629
 2909W        W 6428   5.326   7.684   4.308 -0.1740 -0.1565  0.0381
 2910W        W 6429   6.051   9.646   9.075  0.2052  0.0429 -0.1021
 2911W        W 6430   6.521   7.128  11.180 -0.0088  0.1015  0.1155
 2912W        W 6431   4.981   9.265   9.554  0.0036 -0.2461  0.1462
 2913W        W 6432   5.550   5.356  10.024  0.2312  0.0886 -0.0324
 2914W        W 6433   7.146   1.665   3.956  0.2965 -0.2558  0.3319
 2915W        W 6434   6.995   6.822  12.452 -0.1536  0.1417 -0.0717
 2916W        W 6435   0.251   8.824   9.688 -0.0148 -0.1121 -0.1732
 2917W        W 6436   3.789   3.534   1.443 -0.1495  0.3553 -0.0511
 2918W        W 6437   0.761   9.659  12.161  0.0165 -0.1910 -0.0159
 2919W        W 6438   5.931   3.931   2.428  0.1551  0.0335  0.2822
 2920W        W 6439   9.001   1.791   8.475  0.0814  0.2879 -0.0073
 2921W        W 6440   7.335   3.647  11.603  0.0392 -0.1245 -0.0385
 2922W        W 6441   4.668   3.022  11.480  0.0986  0.1849 -0.1086
 2923W        W 6442   4.601   8.677  10.456 -0.0400 -0.0599 -0.0101
 2924W        W 6443   0.001   4.845  11.279 -0.2953 -0.1227 -0.0955
 2925W        W 6444   3.982   4.976  11.862 -0.1733 -0.1654 -0.0276
 2926W        W 6445   7.077   7.637   3.458  0.1404 -0.0161 -0.0423
 2927W        W 6446   8.633   5.832   1.950 -0.3245 -0.0097 -0.4855
 2928W        W 6447   6.427   9.546  11.409  0.0771  0.0218  0.2093
 2929W        W 6448   7.881   7.502   9.852  0.3065  0.3084 -0.2666
 2930W        W 6449   1.081   0.280   3.958 -0.0465  0.0588  0.1004
 2931W        W 6450   8.503   2.488   3.014  0.0445 -0.2574 -0.2432
 2932W        W 6451   3.007   0.842  11.721 -0.3710 -0.1596 -0.0911
 2933W        W 6452   2.841   6.909  10.784  0.1848  0.0537  0.3346
 2934W        W 6453   9.445   8.850  11.569  0.1233 -0.3689 -0.1229
 2935W        W 6454   8.799   0.173   9.041  0.2097 -0.2183  0.0874
 2936W        W 6455   7.080   9.476   3.647  0.1654  0.2025 -0.0244
 2937W        W 6456   1.499   5.183   1.152  0.1368  0.2399  0.1774
 2938W        W 6457   9.586   6.155   0.489 -0.0703 -0.0039 -0.2042
 2939W        W 6458   0.018   2.043   1.805 -0.1775 -0.1323  0.1311
 2940W        W 6459   4.837   8.570   1.464 -0.1153 -0.2760 -0.2089
 2941W        W 6460   5.614   1.531   1.984  0.1870 -0.1835 -0.2451
 2942W        W 6461   1.820   0.128   8.263  0.2441  0.0859  0.0845
 2943W        W 6462   8.533   5.255   2.040 -0.1628 -0.1124  0.0413
 2944W        W 6463   6.722   4.718   8.849 -0.0547  0.1115 -0.2170
 2945W        W 6464   4.761   1.386   9.612  0.1709 -0.1354  0.1973
 2946W        W 6465   8.584   4.885   3.487  0.0993 -0.4341 -0.1630
 2947W        W 6466   9.674   3.420   1.771  0.6173 -0.2364 -0.0195
 2948W        W 6467   7.610   7.016   4.690  0.2268 -0.0771  0.0618
 2949W        W 6468   6.919   9.339   9.640 -0.1464  0.0496 -0.3530
 2950W        W 6469   5.279   9.211   3.411 -0.3043 -0.2256  0.0192
 2951W        W 6470   2.260   8.499   1.268  0.2940 -0.3216 -0.0300
 2952W        W 6471   7.515   4.345   1.484  0.0133  0.2004  0.0779
 2953W        W 6472   2.819   2.398   9.638  0.0385  0.3720  0.0399
 2954W        W 6473   1.856   5.715   1.262  0.0037 -0.3669  0.0489
 2955W        W 6474   2.536   4.192   2.823 -0.2376  0.0871  0.1109
 2956W        W 6475   9.386   0.381   3.866 -0.3043 -0.1197  0.0917
 2957W        W 6476   2.312   1.648   8.943  0.2791 -0.2443  0.1140
 2958W        W 6477   0.791   0.089   1.152 -0.1287 -0.1296 -0.1128
 2959W        W 6478   4.520   4.434   1.340 -0.0647 -0.0236 -0.1900
 2960W        W 6479   1.207   4.431   1.647 -0.0479 -0.3358  0.0989
 2961W        W 6480   4.364   8.027   1.561  0.3237  0.0422  0.1000
 2962W        W 6481   3.759   7.433   3.734  0.1740  0.0914 -0.1019
 2963W        W 6482   6.417   3.661   3.671 -0.0369 -0.3812 -0.0060
 2964W        W 6483   7.463   3.045   4.421 -0.0766 -0.0946 -0.0419
 2965W        W 6484   0.146   5.723  12.292 -0.0799 -0.0687 -0.0469
 2966W        W 6485   1.246   6.558  11.788  0.0646  0.3334  0.0263
 2967W        W 6486   6.228   3.146   1.691  0.0526  0.0453  0.3516
 2968W        W 6487   8.861   9.648   1.631 -0.4580  0.0261  0.1986
 2969W        W 6488   0.099   0.780   0.741  0.0535 -0.0911 -0.1580
 2970W        W 6489   5.214   5.261   3.782  0.1489  0.1254  0.1359
 2971W        W 6490   3.364   7.395   1.331 -0.2828  0.0095  0.2723
 2972W        W 6491   1.338   6.063  11.048  0.0840 -0.0669  0.1604
 2973W        W 6492   0.543   2.431   2.300  0.1801 -0.2476 -0.1952
 2974W        W 6493   6.180   8.670   4.378  0.0569 -0.1356  0.0894
 2975W        W 6494   1.560   0.208  11.071 -0.1861  0.1996  0.0136
 2976W        W 6495   3.724   3.982   0.885  0.2719  0.1595 -0.0616
 2977W        W 6496   5.575   7.444   1.730 -0.1536  0.1396  0.0033
 2978W        W 6497   4.308   7.655  10.561  0.2631  0.0977  0.1777
 2979W        W 6498   5.773   3.957   8.694 -0.0277  0.1833  0.0319
 2980W        W 6499   5.252   8.836  10.871  0.1190 -0.1908  0.2742
 2981W        W 6500   2.468   3.937  11.990 -0.2221  0.1872 -0.4098
 2982W        W 6501   5.492   7.027   9.903  0.1883 -0.3735  0.1351
 2983W        W 6502   6.659   0.843  11.564  0.0859  0.0548 -0.0054
 2984W        W 6503   0.741   3.759  12.107  0.3156  0.0259 -0.1834
 2985W        W 6504   8.786   8.808  10.877 -0.2636  0.1500 -0.0455
 2986W        W 6505   8.028   2.244   1.711  0.2402 -0.2652 -0.0845
 2987W        W 6506   4.830   9.646   9.276  0.2330 -0.0159  0.4018
 2988W        W 6507   9.021   6.037   3.662 -0.3118  0.0873  0.0455
 2989W        W 6508   6.468   0.105   1.631  0.0256 -0.4520 -0.3423
 2990W        W 6509   5.014   1.847   9.865 -0.2836 -0.2253 -0.1164
 2991W        W 6510   6.461   0.679   4.305  0.1935 -0.2571 -0.0311
 2992W        W 6511   4.177   1.520   1.032 -0.1270  0.0183 -0.0331
 2993W        W 6512   0.524   1.661   1.694 -0.0495 -0.2792 -0.2457
 2994W        W 6513   6.451   4.801   4.103 -0.1418 -0.1146  0.1633
 2995W        W 6514   5.044   4.013   1.944  0.2556  0.0841  0.2985
 2996W        W 6515   7.777   7.531   1.918 -0.1441  0.1152 -0.0564
 2997W        W 6516   0.715   2.642   3.219  0.4246 -0.0327  0.1400
 2998W        W 6517   7.116   8.153   1.808 -0.0432  0.1368 -0.0062
 2999W        W 6518   1.762   7.271   2.711  0.2533 -0.1809 -0.1992
 3000W        W 6519   8.378   0.474   9.195 -0.0443 -0.1782 -0.0364
 3001W        W 6520   7.146   8.858   2.884  0.0038  0.0168 -0.1098
 3002W        W 6521   1.557   0.933  10.833  0.1493 -0.0473  0.3069
 3003W        W 6522   6.113   8.054   3.375 -0.1315 -0.0427 -0.2647
 3004W        W 6523   1.040   6.041  10.346 -0.1983  0.0392 -0.0066
 3005W        W 6524   2.707   3.770   9.885 -0.1400 -0.0682  0.2416
 3006W        W 6525   6.563   7.572   0.341  0.0983  0.2338 -0.1642
 3007W        W 6526   2.960   3.394   3.042  0.0069 -0.0773 -0.2985
 3008W        W 6527   7.756   7.104  12.118 -0.3160  0.1365  0.2866
 3009W        W 6528   8.147   4.478   8.468 -0.0561  0.4518  0.2212
 3010W        W 6529   5.841   4.904  12.139 -0.0650 -0.1870  0.0375
 3011W        W 6530   1.958   4.869   1.327  0.1750 -0.1646 -0.3378
 3012W        W 6531   1.019   2.442   1.989  0.3189  0.0847 -0.0679
 3013W        W 6532   6.101   5.338   9.880 -0.0133  0.2067 -0.0203
 3014W        W 6533   7.227   9.130   9.296  0.0846 -0.0704  0.1962
 3015W        W 6534   0.518   0.319   8.905  0.0487  0.2767  0.0627
 3016W        W 6535   9.323   9.347  10.374 -0.0583  0.1194  0.2786
 3017W        W 6536   5.293   8.949   2.152  0.1034  0.0904 -0.1416
 3018W        W 6537   8.068   3.382   0.637 -0.1922 -0.3240  0.1382
 3019W        W 6538   7.346   3.653   0.305 -0.0319  0.0063  0.0398
 3020W        W 6539   6.172   5.695   0.447 -0.0917 -0.0102  0.2362
 3021W        W 6540   6.869   1.601   0.660 -0.0645  0.0700  0.1858
 3022W        W 6541   7.863   8.116  11.770 -0.1471  0.1822 -0.0927
 3023W        W 6542   2.950   4.653   0.962 -0.3878 -0.1533 -0.0118
 3024W        W 6543   5.383   8.303   2.693 -0.2244  0.2250 -0.3612
 3025W        W 6544   5.088   4.256   2.941  0.1054 -0.0366  0.0018
 3026W        W 6545   5.600   4.653   9.740 -0.0867 -0.2009  0.0002
 3027W        W 6546   8.019   2.112  10.763  0.3313 -0.1557  0.1454
 3028W        W 6547   4.567   1.055   1.606  0.0048  0.2066  0.1602
 3029W        W 6548   6.063   5.496   1.774  0.3315  0.0838  0.1776
 3030W        W 6549   2.414   1.957  11.719  0.1449 -0.1007  0.3127
 3031W        W 6550   6.200   7.935   4.527  0.1021 -0.1237 -0.0196
 3032W        W 6551   3.795   7.825   2.625  0.2347  0.2214 -0.0283
 3033W        W 6552   1.267   9.595   3.034 -0.0741 -0.1745  0.1137
 3034W        W 6553   6.986   7.112  11.804  0.0707  0.4927 -0.1704
 3035W        W 6554   5.597   0.041   3.334 -0.0471  0.0120 -0.3817
 3036W        W 6555   6.784   6.503   9.963 -0.0635 -0.2343 -0.0422
 3037W        W 6556   1.901   4.473  10.653 -0.0312 -0.4381 -0.0868
 3038W        W 6557   8.086   8.876  10.302  0.0082 -0.0085  0.0972
 3039W        W 6558   0.105   4.882   0.781  0.1112  0.3089 -0.3958
 3040W        W 6559   5.891   8.594   1.544 -0.1100  0.2907  0.5310
 3041W        W 6560   6.270   2.246   8.625 -0.1047  0.0099  0.0829
 3042W        W 6561   4.255   9.478   1.720  0.3084 -0.2096 -0.1216
 3043W        W 6562   4.605   5.311  10.792 -0.1651 -0.0455 -0.0467
 3044W        W 6563   7.076   2.623   1.671  0.2696 -0.2111  0.0303
 3045W        W 6564   5.411   6.597   1.531 -0.2021 -0.0594  0.0022
 3046W        W 6565   1.219   7.668   0.456 -0.2560  0.0270  0.3655
 3047W        W 6566   2.962   8.752   0.031 -0.1039  0.1772 -0.1267
 3048W        W 6567   8.436   6.430   0.791  0.3285  0.2117  0.1473
 3049W        W 6568   2.898   8.796  12.047  0.0986 -0.2218  0.1056
 3050W        W 6569   8.268   0.332   0.221  0.2572 -0.2146  0.0033
 3051W        W 6570   2.428   3.152   1.458  0.2548  0.0288  0.0925
 3052W        W 6571   5.887   2.356   1.276  0.1972  0.0650 -0.1261
 3053W        W 6572   7.450   5.445  11.523  0.0226  0.1468  0.0932
 3054W        W 6573   6.016   0.034   1.411 -0.1337 -0.2026  0.0651
 3055W        W 6574   5.151   6.042  11.042  0.1067  0.1023 -0.2087
 3056W        W 6575   5.401   0.677  11.030  0.1451  0.0713 -0.3940
 3057W        W 6576   5.940   8.549   9.243  0.1921  0.0328  0.1698
 3058W        W 6577   9.365   9.098   8.327  0.2364  0.0343 -0.0695
 3059W        W 6578   2.510   7.144   8.657  0.0765  0.0615 -0.2568
 3060W        W 6579   8.698   2.832   4.836  0.0726 -0.1898 -0.1736
 3061W        W 6580   8.864   4.664   2.832  0.0710  0.1277 -0.1542
 3062W        W 6581   6.176   8.484   0.305 -0.0068  0.0826 -0.0010
 3063W        W 6582   8.864   7.320   9.217  0.1306 -0.0787 -0.1423
 3064W        W 6583   6.510   7.463  10.761  0.0207  0.0746 -0.1881
 3065W        W 6584   8.800   3.929   2.149  0.4111 -0.0041 -0.0634
 3066W        W 6585   5.117   7.931   8.961 -0.0466 -0.0011 -0.3523
 3067W        W 6586   8.138   7.704   8.640  0.1660 -0.1629  0.0474
 3068W        W 6587   6.216   1.606   1.740 -0.0010  0.3614  0.2690
 3069W        W 6588   1.971   0.352  10.180 -0.2170  0.0970 -0.4801
 3070W        W 6589   2.863   6.298   0.897  0.1585 -0.2786 -0.0330
 3071W        W 6590   0.445   1.276  12.418 -0.2357 -0.1835 -0.0597
 3072W        W 6591   1.293   7.843   9.301 -0.3781  0.0984  0.4425
 3073W        W 6592   7.349   3.717   2.955  0.1517  0.2021  0.0946
 3074W        W 6593   5.286   3.652  11.067 -0.2410  0.4048 -0.5320
 3075W        W 6594   5.090   1.632   2.653 -0.0680  0.0247 -0.1369
 3076W        W 6595   1.781   1.742  12.128  0.1704 -0.0982 -0.2679
 3077W        W 6596   7.151   5.056  10.559 -0.2922 -0.0686  0.2174
 3078W        W 6597   3.523   1.273   0.028 -0.0406 -0.1950  0.1623
 3079W        W 6598   3.583   3.759   1.795 -0.1368  0.1418  0.1338
 3080W        W 6599   5.264   1.205  11.849  0.0258 -0.1960  0.0971
 3081W        W 6600   3.456   6.941   4.254  0.0189 -0.0736  0.0969
 3082W        W 6601   6.265   1.736   4.228 -0.0578  0.2805 -0.0611
 3083W        W 6602   7.584   7.144   0.836  0.0263 -0.2592  0.0485
 3084W        W 6603   5.803   6.227  12.141 -0.3073  0.4635 -0.0190
 3085W        W 6604   4.122   7.783   3.793  0.2761 -0.0157  0.1413
 3086W        W 6605   4.794   9.273   3.673  0.2455  0.0788  0.2192
 3087W        W 6606   0.140   1.648  12.339  0.0005  0.0002  0.0461
 3088W        W 6607   2.866   9.445  10.846 -0.0883  0.2907 -0.0507
 3089W        W 6608   7.831   3.988   9.810 -0.1205  0.1646  0.0665
 3090W        W 6609   8.234   7.276   2.774 -0.2018 -0.1119 -0.1568
 3091W        W 6610   0.691   8.456   2.992 -0.1123  0.0331 -0.1138
 3092W        W 6611   2.873   8.980   3.947  0.1200  0.1542  0.2646
 3093W        W 6612   8.174   6.751  12.064 -0.0537 -0.0241 -0.1848
 3094W        W 6613   4.548   7.549   0.110 -0.5136  0.1652 -0.1788
 3095W        W 6614   4.299   8.393  11.673 -0.1363 -0.0669  0.3424
 3096W        W 6615   7.773   5.196   1.303  0.0482 -0.0788  0.0979
 3097W        W 6616   9.118   1.931  10.058  0.0253 -0.2740  0.2514
 3098W        W 6617   6.600   4.228   2.979 -0.1646  0.0181 -0.4262
 3099W        W 6618   3.210   5.604   2.837 -0.0389  0.2457 -0.1270
 3100W        W 6619   2.525   9.667  12.232 -0.1745  0.1269  0.1009
 3101W        W 6620   3.310   4.311   2.457 -0.2068  0.1611  0.3168
 3102W        W 6621   0.133   1.745  11.556  0.2883 -0.0839 -0.1210
 3103W        W 6622   8.818   5.579  12.317 -0.0270  0.0047  0.1090
 3104W        W 6623   9.230   1.427   1.186 -0.2217 -0.3524  0.0460
 3105W        W 6624   8.741   4.712  10.425 -0.0103 -0.0384 -0.0473
 3106W        W 6625   3.512   4.382   0.572  0.3056 -0.0089  0.0615
 3107W        W 6626   4.711   4.827  11.707  0.1811 -0.3787  0.0887
 3108W        W 6627   9.178   1.061   9.079  0.0897 -0.3027  0.0652
 3109W        W 6628   5.511   8.809   2.605  0.0600 -0.3553 -0.1340
 3110W        W 6629   4.514   6.525   0.507 -0.1024 -0.0329  0.4231
 3111W        W 6630   0.473   3.655   2.925  0.1381  0.1577  0.4702
 3112W        W 6631   3.530   5.318  10.609 -0.2496  0.0090  0.3338
 3113W        W 6632   8.988   0.276   2.514  0.4775 -0.2516 -0.1957
 3114W        W 6633   0.678   9.550   0.379 -0.3362  0.1032 -0.0597
 3115W        W 6634   0.779   1.547   4.203 -0.0493 -0.3179  0.2729
 3116W        W 6635   8.685   8.049  10.865 -0.0234 -0.1152 -0.1618
 3117W        W 6636   7.569   4.212   4.233  0.3121 -0.1423  0.1592
 3118W        W 6637   1.166   8.400   9.131 -0.0361 -0.1318 -0.4696
 3119W        W 6638   6.407   1.037   1.058 -0.1019 -0.1560  0.1205
 3120W        W 6639   3.691   8.957   8.931  0.1972  0.1390 -0.0271
 3121W        W 6640   9.247   8.422  10.233 -0.3371 -0.1941 -0.2627
 3122W        W 6641   9.421   6.875  11.534 -0.2118 -0.1146  0.1239
 3123W        W 6642   3.579   2.137   2.887 -0.0536 -0.1232  0.0361
 3124W        W 6643   5.276   8.206   1.202 -0.0827 -0.0944  0.3350
 3125W        W 6644   1.815   5.315   9.460  0.3015  0.0838  0.1234
 3126W        W 6645   2.240   0.877  11.215 -0.1279  0.1111  0.1699
 3127W        W 6646   2.591   2.734   3.319  0.0630 -0.1033 -0.0977
 3128W        W 6647   4.515   1.404   2.888  0.1340  0.0133  0.3628
 3129W        W 6648   0.930   3.440   1.855 -0.0680  0.0522 -0.2240
 3130W        W 6649   3.532   2.842   1.990  0.1264 -0.0404  0.1875
 3131W        W 6650   0.915   7.487   8.116 -0.0709  0.3203 -0.0415
 3132W        W 6651   2.629   1.419   9.290 -0.3048 -0.2806 -0.0809
 3133W        W 6652   3.668   2.032  12.232 -0.2314  0.1589  0.0789
 3134W        W 6653   2.792   0.781   9.648  0.0385 -0.3284  0.2533
 3135W        W 6654   3.351   5.895  12.312 -0.0489  0.1642  0.0122
 3136W        W 6655   3.270   8.616   2.547 -0.1068 -0.1613  0.1122
 3137W        W 6656   9.394   1.422  10.971 -0.0771  0.0304 -0.0274
 3138W        W 6657   3.438   6.948   1.516  0.0081  0.3900 -0.0367
 3139W        W 6658   6.903   5.963  10.529 -0.1998 -0.2631  0.4455
 3140W        W 6659   4.691   4.352  11.461  0.2324  0.0003  0.2733
 3141W        W 6660   9.311   7.114   4.724 -0.4684 -0.1241 -0.2120
 3142W        W 6661   9.331   1.901   8.895  0.0920  0.1801  0.0268
 3143W        W 6662   0.488   3.180  10.051 -0.1175 -0.2659  0.1119
 3144W        W 6663   2.554   2.317   2.155  0.2369 -0.0147 -0.1435
 3145W        W 6664   9.620   0.869  11.162 -0.4771  0.0347  0.1513
 3146W        W 6665   0.611   6.472   2.968 -0.0135 -0.0192  0.1964
 3147W        W 6666   4.719   2.350   2.297  0.0545  0.0595 -0.2116
 3148W        W 6667   7.624   9.075   0.877 -0.0048  0.0509 -0.0277
 3149W        W 6668   4.298   0.150   0.213 -0.1109  0.1075 -0.0514
 3150W        W 6669   3.504   8.615   4.765 -0.0992  0.4921 -0.1801
 3151W        W 6670   5.639   3.647  10.229 -0.0738 -0.0419  0.0694
 3152W        W 6671   6.145   4.461   2.965 -0.1306 -0.0230  0.3496
 3153W        W 6672   8.472   0.858   9.566  0.0170 -0.1151  0.0146
 3154W        W 6673   6.397   5.128  12.102 -0.2164  0.0119  0.0312
 3155W        W 6674   5.920   2.977   2.056 -0.0198 -0.1955 -0.2083
 3156W        W 6675   3.184   9.095   2.766 -0.2700  0.2433  0.0450
 3157W        W 6676   5.858   5.663  10.767 -0.1231  0.3076  0.1328
 3158W        W 6677   7.818   7.734  10.902 -0.3667  0.0852  0.1630
 3159W        W 6678   2.142   9.088   2.023 -0.2516 -0.2041 -0.0745
 3160W        W 6679   7.390   4.205   9.461  0.1364 -0.1388  0.0993
 3161W        W 6680   3.841   1.741  11.402  0.0795  0.1505  0.0892
 3162W        W 6681   6.496   6.394  11.633  0.2697  0.3108 -0.0418
 3163W        W 6682   5.187   3.778   0.067  0.2946 -0.1035 -0.0987
 3164W        W 6683   2.926   2.365   1.196 -0.3201  0.1987  0.0622
 3165W        W 6684   5.567   6.653   2.947 -0.2081  0.4537  0.3265
 3166W        W 6685   0.324   9.632   9.246 -0.2107  0.1336  0.0990
 3167W        W 6686   8.136   9.159   0.987  0.0230 -0.2596 -0.2642
 3168W        W 6687   4.732   3.174   8.776  0.2063  0.3314  0.3683
 3169W        W 6688   6.778   6.962   2.736 -0.1673  0.3674  0.0582
 3170W        W 6689   2.713   1.653   0.430 -0.0776  0.1754 -0.1251
 3171W        W 6690   1.993   0.779   4.357 -0.0666 -0.1836 -0.1499
 3172W        W 6691   8.625   7.389   3.744  0.2093 -0.1629 -0.1214
 3173W        W 6692   0.851   2.028   2.229  0.2697  0.1653  0.0400
 3174W        W 6693   0.411   4.748   2.099  0.3430  0.2753  0.3185
 3175W        W 6694   6.532   2.459   9.011 -0.1038 -0.1958  0.2740
 3176W        W 6695   9.061   7.439   8.278  0.2463  0.0811  0.0584
 3177W        W 6696   5.668   5.294   2.049 -0.0513  0.0990  0.0506
 3178W        W 6697   2.514   1.090   8.664  0.0671 -0.3227  0.1533
 3179W        W 6698   9.621   4.029   0.545  0.0850 -0.1642 -0.4824
 3180W        W 6699   7.593   1.995   8.968 -0.6385 -0.0660 -0.3207
 3181W        W 6700   7.520   1.741  10.695  0.0842  0.0230 -0.1314
 3182W        W 6701   6.100   0.014  10.626 -0.0584  0.3898  0.0850
 3183W        W 6702   0.492   4.439  10.806 -0.0727 -0.2038  0.0062
 3184W        W 6703   0.593   0.707   3.982 -0.0852  0.0661  0.3602
 3185W        W 6704   4.412   6.101   0.175 -0.0646 -0.0344 -0.4536
 3186W        W 6705   8.903   6.942  11.456 -0.2046 -0.0793 -0.0578
 3187W        W 6706   8.031   0.265  11.891  0.1914 -0.2218 -0.1003
 3188W        W 6707   3.878   7.348  12.314  0.0063 -0.1714  0.3064
 3189W        W 6708   5.176   9.627   1.406 -0.2553  0.0408 -0.2134
 3190W        W 6709   8.078   5.827   3.271 -0.1255  0.2530  0.1015
 3191W        W 6710   3.835   6.733   2.919  0.0802 -0.0960  0.0346
 3192W        W 6711   6.965   2.602   9.184 -0.0071 -0.1106 -0.3309
 3193W        W 6712   2.501   5.676   0.037  0.0599  0.1465  0.1265
 3194W        W 6713   9.579   9.242   9.108  0.0141  0.1134  0.0490
 3195W        W 6714   8.065   0.530   3.421  0.0389 -0.3006 -0.3875
 3196W        W 6715   1.545   2.965   2.948  0.0505  0.0355  0.0121
 3197W        W 6716   2.634   2.840   0.245  0.2432 -0.1521  0.2249
 3198W        W 6717   0.879   5.148   9.745 -0.0750 -0.1340 -0.0322
 3199W        W 6718   4.541   9.436   2.997  0.0506 -0.2877  0.1138
 3200W        W 6719   3.879   2.526   2.902 -0.0172 -0.0632 -0.1380
 3201W        W 6720   5.532   1.243   8.747  0.3617  0.2571 -0.1836
 3202W        W 6721   9.389   7.531   1.913 -0.0982  0.0746  0.0321
 3203W        W 6722   8.341   7.585   0.138  0.0083  0.3041  0.3771
 3204W        W 6723   4.617   1.598   0.818  0.0870 -0.0834 -0.2611
 3205W        W 6724   4.513   9.027   1.525  0.1236  0.1364  0.0563
 3206W        W 6725   6.672   7.440  11.507  0.1204 -0.4475  0.2671
 3207W        W 6726   6.370   8.699   2.688  0.0478  0.1359 -0.0421
 3208W        W 6727   8.219   4.020  10.187  0.1444 -0.0422 -0.0442
 3209W        W 6728   4.304   3.825   0.217 -0.4409  0.6342 -0.1375
 3210W        W 6729   9.444   6.610   4.658 -0.1394  0.0069  0.0254
 3211W        W 6730   1.230   1.525   9.841 -0.0495  0.0235  0.4040
 3212W        W 6731   3.753   8.693   3.315 -0.0565  0.1472  0.1716
 3213W        W 6732   3.794   5.759  10.683 -0.0778 -0.0226  0.0365
 3214W        W 6733   4.907   0.289   1.100  0.3169 -0.2253  0.6007
 3215W        W 6734   4.764   8.367   3.760  0.2078  0.3058  0.1978
 3216W        W 6735   1.170   3.017  10.966  0.1206  0.1673  0.0810
 3217W        W 6736   8.997   0.016  10.556 -0.3106  0.2662 -0.2554
 3218W        W 6737   7.094   6.027   8.389 -0.2208  0.0653  0.1774
 3219W        W 6738   5.830   9.638   9.529 -0.1316 -0.0328 -0.0486
 3220W        W 6739   1.857   6.281   8.753 -0.0349 -0.0647  0.1676
 3221W        W 6740   7.198   7.798  12.245  0.1268  0.1214 -0.1019
 3222W        W 6741   6.539   6.067   4.491  0.2048  0.4072  0.3923
 3223W        W 6742   5.760   8.974   1.229 -0.2216  0.1794 -0.1030
 3224W        W 6743   4.660   7.609   9.095  0.0322  0.0830  0.0084
 3225W        W 6744   4.452   6.648  12.134 -0.0712 -0.3055 -0.1069
 3226W        W 6745   5.545   3.397   9.508 -0.2485 -0.1626  0.3042
 3227W        W 6746   3.479   6.108  11.012 -0.3071  0.0002 -0.0047
 3228W        W 6747   1.520   3.407   2.666 -0.0298  0.0025 -0.1421
 3229W        W 6748   6.280   4.183   3.361 -0.0458  0.2884  0.2197
 3230W        W 6749   3.329   9.606   2.233 -0.1242 -0.2221  0.1126
 3231W        W 6750   3.981   6.332  10.256 -0.0623 -0.3641 -0.0737
 3232W        W 6751   4.998   2.642   0.978 -0.1564  0.3225 -0.1477
 3233W        W 6752   3.201   0.509   9.514 -0.0968 -0.1299 -0.1331
 3234W        W 6753   4.635   4.648   3.203  0.2716 -0.0279  0.2352
 3235W        W 6754   4.855   6.118   8.838  0.0612  0.0994 -0.1309
 3236W        W 6755   3.454   0.143   3.875 -0.0296  0.0576  0.2156
 3237W        W 6756   8.027   7.918   3.929 -0.2049  0.2197  0.4267
 3238W        W 6757   7.344   0.041   1.378 -0.3016 -0.0948  0.2932
 3239W        W 6758   4.957   3.071   2.549  0.3659 -0.2189  0.1013
 3240W        W 6759   3.009   3.464   0.128  0.0643  0.2604 -0.0932
 3241W        W 6760   2.119   8.392  10.802  0.0943  0.1819  0.1625
 3242W        W 6761   4.934   8.320   0.454 -0.0781  0.0721 -0.1530
 3243W        W 6762   7.390   2.292  11.614 -0.0508 -0.0411  0.2097
 3244W        W 6763   5.051   0.668   2.966 -0.1261  0.2744 -0.1302
 3245W        W 6764   3.157   9.320   1.249 -0.0816 -0.0138  0.0591
 3246W        W 6765   2.771   0.191   3.507 -0.1375  0.0591 -0.1144
 3247W        W 6766   2.005   8.252   2.725  0.1978 -0.3975 -0.0552
 3248W        W 6767   1.596   9.109  11.632 -0.2490 -0.0125  0.1111
 3249W        W 6768   7.503   2.433  10.949  0.4291 -0.0420  0.0739
 3250W        W 6769   2.706   1.549  11.661  0.2234  0.1851 -0.1478
 3251W        W 6770   7.864   0.093   3.222 -0.0453 -0.2657  0.3655
 3252W        W 6771   9.485   6.808  12.055  0.1314  0.1619  0.0444
 3253W        W 6772   8.754   4.959   8.738  0.0168 -0.0088 -0.1479
 3254W        W 6773   7.354   4.979  10.149  0.4375 -0.0366  0.1953
 3255W        W 6774   5.173   8.504   4.123 -0.2320  0.1031  0.1902
 3256W        W 6775   5.124   2.505  10.522  0.1310 -0.2477  0.0972
 3257W        W 6776   2.584   9.488   4.098  0.0239 -0.0869 -0.0471
 3258W        W 6777   1.157   7.333   1.900 -0.1987  0.3610  0.0739
 3259W        W 6778   7.665   8.089  12.248  0.0059 -0.2998 -0.1506
 3260W        W 6779   4.635   2.822  10.975  0.1398 -0.2441 -0.1130
 3261W        W 6780   3.768   5.543  12.131  0.0948  0.1771 -0.3782
 3262W        W 6781   5.689   8.131  10.950  0.1982  0.1898 -0.1377
 3263W        W 6782   1.807   3.723   1.370 -0.0603 -0.1569  0.1197
 3264W        W 6783   7.597   5.290  10.702 -0.0964 -0.1452  0.0039
 3265W        W 6784   9.143   3.913  11.215 -0.0453 -0.1294 -0.3609
 3266W        W 6785   3.167   4.760   0.499  0.2515 -0.0127 -0.0167
 3267W        W 6786   8.277   9.240   2.427 -0.0221 -0.2304  0.0306
 3268W        W 6787   2.412   4.096   0.564 -0.2860 -0.2751 -0.1436
 3269W        W 6788   3.665   7.694  12.030 -0.0097  0.1952  0.2112
 3270W        W 6789   9.656   4.779   1.808  0.1221 -0.0658  0.2291
 3271W        W 6790   7.842   6.763   9.312 -0.0158  0.2285 -0.1762
 3272W        W 6791   0.631   2.214   2.842 -0.0668  0.0627  0.0468
 3273W        W 6792   2.100   6.688   1.373  0.0799 -0.2278  0.0704
 3274W        W 6793   6.535   5.354   0.073  0.2312  0.1254  0.4290
 3275W        W 6794   4.212   6.102  11.027 -0.2512 -0.1371  0.0562
 3276W        W 6795   0.100   5.547   1.147  0.0696 -0.1193 -0.0517
 3277W        W 6796   1.466   8.276   2.005  0.2084  0.1707  0.1739
 3278W        W 6797   6.123   8.877  11.943 -0.1198  0.2276 -0.0224
 3279W        W 6798   5.352   0.551   1.194 -0.0788  0.2384  0.5324
 3280W        W 6799   1.177   5.742   1.962  0.0425  0.0643  0.0910
 3281W        W 6800   6.003   0.097   0.832 -0.0274 -0.0445  0.0280
 3282W        W 6801   2.483   1.104   2.384 -0.2045 -0.1178 -0.1251
 3283W        W 6802   5.448   2.521   9.196 -0.1625  0.0602 -0.0943
 3284W        W 6803   0.760   3.432   9.198 -0.2093 -0.4291 -0.0176
 3285W        W 6804   4.640   5.169   9.921  0.1392 -0.0787  0.1420
 3286W        W 6805   7.886   5.984  10.938  0.3625  0.2019 -0.1128
 3287W        W 6806   6.957   9.110   2.460 -0.1650 -0.0335  0.0648
 3288W        W 6807   6.704   1.693   9.597  0.0756 -0.0828  0.0046
 3289W        W 6808   3.529   1.371   3.304  0.2333 -0.1215  0.2390
 3290W        W 6809   0.928   8.021  11.374 -0.2715 -0.2010 -0.2416
 3291W        W 6810   4.216   7.749   9.088  0.4462  0.2665 -0.2669
 3292W        W 6811   7.813   1.831   1.786 -0.1154  0.2362 -0.5520
 3293W        W 6812   4.699   4.336   2.210 -0.0425  0.4883 -0.1199
 3294W        W 6813   1.576   9.126   2.770  0.1803 -0.1804  0.2779
 3295W        W 6814   4.039   8.202  10.382  0.0032 -0.2299 -0.1186
 3296W        W 6815   8.158   8.760   7.911 -0.0030  0.1117  0.1797
 3297W        W 6816   5.607   6.070   9.321  0.3818  0.0270 -0.0634
 3298W        W 6817   9.602   1.742   3.954  0.1142 -0.1121 -0.4644
 3299W        W 6818   6.872   6.019   3.201 -0.0208 -0.0486  0.0297
 3300W        W 6819   8.089   9.416  10.437 -0.2486 -0.0845  0.1788
 3301W        W 6820   0.599   3.478   0.589 -0.0065  0.0296  0.1220
 3302W        W 6821   8.844   2.974   2.392  0.0460 -0.3146  0.0843
 3303W        W 6822   5.869   3.820   1.830 -0.3464  0.0496 -0.1429
 3304W        W 6823   4.893   7.852   9.516  0.1366 -0.0079 -0.4299
 3305W        W 6824   7.727   5.561   0.898  0.0284  0.2238 -0.1702
 3306W        W 6825   1.846   6.602   1.817 -0.3657  0.2553  0.1068
 3307W        W 6826   9.613   1.299  11.452  0.1642  0.3600  0.0236
 3308W        W 6827   8.711   1.698   0.644  0.2349  0.0444  0.0981
 3309W        W 6828   8.155   9.338   9.015  0.2769  0.2477  0.1288
 3310W        W 6829   9.339   3.644   9.350  0.0364 -0.0316  0.0206
 3311W        W 6830   6.377   8.895   9.151  0.3791 -0.3686 -0.0742
 3312W        W 6831   6.846   7.222   5.322 -0.2532  0.1807  0.1055
 3313W        W 6832   5.797   7.353   1.231 -0.0663  0.1045 -0.1381
 3314W        W 6833   3.306   6.411  10.108  0.3287 -0.2567  0.2948
 3315W        W 6834   7.666   3.021   3.406 -0.3861  0.3733  0.0670
 3316W        W 6835   0.227   4.132   2.698 -0.1610 -0.1308  0.0791
 3317W        W 6836   1.839   6.791  12.186  0.0520  0.2011  0.1224
 3318W        W 6837   7.686   4.689   2.941  0.0670  0.2934 -0.1728
 3319W        W 6838   1.932   7.730   3.057 -0.0158  0.3770 -0.1007
 3320W        W 6839   7.759   9.089  12.138 -0.1222  0.0007  0.2277
 3321W        W 6840   0.475   7.444   3.267 -0.2280  0.1120  0.0990
 3322W        W 6841   5.872   0.837  11.087 -0.2389 -0.0750 -0.0350
 3323W        W 6842   2.025   4.851   2.256  0.3169  0.0619 -0.0830
 3324W        W 6843   4.702   9.212   0.379 -0.3464 -0.1175 -0.1449
 3325W        W 6844   5.788   7.493   4.073  0.1017 -0.2784  0.1039
 3326W        W 6845   9.313   8.623   8.999  0.1393 -0.1731 -0.1995
 3327W        W 6846   8.251   2.982  11.367  0.0527  0.0213  0.2046
 3328W        W 6847   8.644   9.510   9.715 -0.1102 -0.0339 -0.0162
 3329W        W 6848   8.523   4.081   5.127 -0.2597 -0.1497  0.1880
 3330W        W 6849   7.373   9.318  11.810  0.0520 -0.0106  0.1042
 3331W        W 6850   4.477   1.024  10.868 -0.1013 -0.0028 -0.0507
 3332W        W 6851   3.283   4.861  12.377  0.0662  0.1772 -0.2078
 3333W        W 6852   6.504   7.299  12.386  0.1712 -0.0418 -0.2075
 3334W        W 6853   8.178   3.645  12.166  0.1542 -0.0256  0.1244
 3335W        W 6854   9.061   7.358   9.698 -0.1459  0.0347 -0.0827
 3336W        W 6855   3.731   5.561   8.966 -0.0590 -0.0512 -0.0884
 3337W        W 6856   3.744   1.762   1.047 -0.1907 -0.0628  0.0604
 3338W        W 6857   0.964   6.090   1.495 -0.0251  0.1799 -0.1331
 3339W        W 6858   8.958   5.408  10.853 -0.0139  0.2514 -0.1586
 3340W        W 6859   0.414   3.447  12.353  0.2285 -0.0342  0.0021
 3341W        W 6860   8.155   2.646  10.015 -0.0330 -0.1743 -0.4210
 3342W        W 6861   4.243   4.253   2.036  0.0184  0.0267  0.1603
 3343W        W 6862   4.280   7.361   9.870 -0.0515  0.0881 -0.0619
 3344W        W 6863   6.854   8.673  10.729 -0.0993  0.0288  0.0184
 3345W        W 6864   0.783   2.528   1.540  0.1768  0.0084  0.0960
 3346W        W 6865   2.254   0.406   2.848  0.0183 -0.3277 -0.1368
 3347W        W 6866   5.100   0.987   4.634 -0.3029 -0.1617 -0.0021
 3348W        W 6867   6.311   0.068   2.138 -0.0936  0.0679  0.3360
 3349W        W 6868   1.716   7.600   0.324  0.0202 -0.1027  0.2705
 3350W        W 6869   2.820   3.194   2.251  0.0838 -0.1802  0.1544
 3351W        W 6870   1.942   3.972  10.395 -0.2222  0.2386 -0.1526
 3352W        W 6871   6.441   8.619  11.093  0.0845 -0.0623  0.0570
 3353W        W 6872   7.251   6.008   3.793 -0.0273  0.1575  0.0300
 3354W        W 6873   2.434   1.188   0.453 -0.0136 -0.1096 -0.4879
 3355W        W 6874   5.147   9.364  11.084 -0.0464  0.5374 -0.0444
 3356W        W 6875   6.059   8.780  10.143  0.3837  0.1748  0.1918
 3357W        W 6876   5.348   6.207   3.945 -0.1450  0.0315  0.1766
 3358W        W 6877   2.956   0.613   3.206 -0.1249  0.2029 -0.0357
 3359W        W 6878   5.615   7.281  11.317  0.1525 -0.0233 -0.2321
 3360W        W 6879   1.059   9.299   8.707  0.0278 -0.2873  0.0045
 3361W        W 6880   8.789   2.078  12.231  0.1041  0.1302 -0.1702
 3362W        W 6881   3.098   3.769  10.295  0.1012 -0.0226  0.0130
 3363W        W 6882   7.005   0.765   4.226  0.1830  0.2642 -0.0536
 3364W        W 6883   7.405   4.043   9.003 -0.0397 -0.1640  0.2529
 3365W        W 6884   9.195   5.771   1.790 -0.1976  0.1596 -0.3480
 3366W        W 6885   5.241   2.425   8.757  0.0534  0.1619  0.3971
 3367W        W 6886   4.300   6.306   9.012 -0.0768 -0.1969  0.6487
 3368W        W 6887   6.386   0.050  12.476 -0.2567  0.0046  0.4502
 3369W        W 6888   5.356   1.602   3.241  0.1278  0.0802  0.1559
 3370W        W 6889   6.992   4.210   4.287  0.2218 -0.0372 -0.1293
 3371W        W 6890   1.523   5.616   0.747 -0.0904  0.2807 -0.0045
 3372W        W 6891   1.991   5.621  12.394  0.1479  0.1484 -0.0367
 3373W        W 6892   3.065   2.110  11.334  0.0180  0.1012 -0.0022
 3374W        W 6893   8.074   1.906  11.558 -0.0564  0.0246 -0.1395
 3375W        W 6894   8.704   4.420   3.290  0.4083 -0.0590 -0.1250
 3376W        W 6895   2.258   1.796   0.033  0.0153 -0.1026  0.0175
 3377W        W 6896   0.623   6.554  10.028  0.2094  0.2481  0.0877
 3378W        W 6897   0.224   8.814   1.608  0.0751  0.0313  0.1063
 3379W        W 6898   2.646   0.755  10.895 -0.5935 -0.2678  0.0282
 3380W        W 6899   8.206   7.660   3.554 -0.3246 -0.0639  0.0004
 3381W        W 6900   4.119   2.094   3.079  0.3851  0.1571  0.0925
 3382W        W 6901   6.561   9.256  10.268 -0.1415  0.3457 -0.0617
 3383W        W 6902   4.702   7.859  12.099  0.4013  0.1682 -0.2684
 3384W        W 6903   5.549   4.396  11.248  0.6374 -0.0743 -0.0703
 3385W        W 6904   6.885   3.937  11.998  0.1087 -0.0256  0.0031
 3386W        W 6905   0.252   5.785  10.009  0.2747  0.4836 -0.2614
 3387W        W 6906   8.854   5.332   3.592 -0.2745  0.4350  0.1251
 3388W        W 6907   6.391   0.484   5.317  0.1555  0.2968  0.1877
 3389W        W 6908   1.507   8.571  11.790 -0.0255 -0.0654  0.0050
 3390W        W 6909   5.945   9.192   8.416 -0.0146  0.0279 -0.0433
 3391W        W 6910   7.524   2.287   1.878 -0.1149 -0.1949 -0.0250
 3392W        W 6911   1.468   2.763   9.435 -0.3040 -0.0389  0.1928
 3393W        W 6912   2.495   8.085   0.982 -0.2991 -0.1343 -0.0486
 3394W        W 6913   5.346   4.059  10.319 -0.2723  0.1570 -0.3955
 3395W        W 6914   7.091   1.592  10.875 -0.0334 -0.1906 -0.1095
 3396W        W 6915   3.661   1.741   0.254 -0.2336  0.3238 -0.1746
 3397W        W 6916   8.231   4.537   7.881 -0.1526 -0.0010  0.1843
 3398W        W 6917   1.516   8.115   0.162  0.0899  0.0243 -0.0303
 3399W        W 6918   0.015   8.257  11.886 -0.5145 -0.1167  0.0948
 3400W        W 6919   6.651   3.203   0.292  0.0180 -0.0195  0.0412
 3401W        W 6920   3.992   9.521  10.816  0.0715 -0.1751 -0.0807
 3402W        W 6921   0.076   2.972  12.115  0.1898  0.0042  0.1412
 3403W        W 6922   7.066   2.091  11.984 -0.1766  0.1922 -0.0141
 3404W        W 6923   4.096   8.609  10.675  0.0888  0.1725  0.0611
 3405W        W 6924   9.240   8.404  11.657  0.2314 -0.1132  0.1529
 3406W        W 6925   1.739   6.634   9.960  0.0979 -0.0130 -0.1099
 3407W        W 6926   8.154   4.618   1.935 -0.2908 -0.2565  0.1655
 3408W        W 6927   8.037   6.884   3.793 -0.0820  0.0625  0.0566
 3409W        W 6928   7.589   8.977  10.232 -0.2056  0.3825  0.1006
 3410W        W 6929   6.936   0.717  12.102 -0.2101 -0.2568  0.1392
 3411W        W 6930   8.057   4.378   1.054 -0.2174 -0.4425 -0.2803
 3412W        W 6931   5.342   8.017   0.735  0.2825 -0.1748  0.0068
 3413W        W 6932   9.323   2.090  10.550 -0.0359  0.1522 -0.0842
 3414W        W 6933   7.725   6.517  12.222  0.0982  0.3023 -0.2649
 3415W        W 6934   1.293   5.226  10.713 -0.3666  0.0141 -0.0906
 3416W        W 6935   5.993   6.569   3.821 -0.0439 -0.3638  0.1314
 3417W        W 6936   6.214   6.618   1.018 -0.0075  0.3032  0.2354
 3418W        W 6937   6.549   9.506   3.092 -0.2618 -0.1385 -0.1614
 3419W        W 6938   3.343   6.886   9.017 -0.0330  0.4089  0.0462
 3420W        W 6939   1.953   5.156   0.087  0.0011  0.0976 -0.0743
 3421W        W 6940   8.985   9.397   9.374  0.0952 -0.1505 -0.0359
 3422W        W 6941   9.167   6.062   4.135  0.2201  0.0486 -0.4125
 3423W        W 6942   9.666   0.758   4.139  0.3398  0.1984 -0.0008
 3424W        W 6943   8.568   4.105   0.421 -0.2324  0.1439  0.0868
 3425W        W 6944   5.167   7.031  10.711  0.1240  0.3749 -0.1765
 3426W        W 6945   4.467   5.523   0.155 -0.0557  0.1185  0.3021
 3427W        W 6946   2.740   0.219   0.281 -0.1272 -0.3738 -0.0246
 3428W        W 6947   2.799   6.512  11.268 -0.0600 -0.0022 -0.0639
 3429W        W 6948   6.057   2.561   1.819 -0.0983  0.1722 -0.2551
 3430W        W 6949   2.782   6.027  12.213 -0.1795  0.2966 -0.4733
 3431W        W 6950   6.536   4.333   9.161  0.3521  0.2480 -0.1025
 3432W        W 6951   4.430   6.068   2.561  0.1741  0.0429 -0.1340
 3433W        W 6952   6.036   7.800   8.938  0.1848  0.0355  0.2070
 3434W        W 6953   1.910   2.850  11.503 -0.0715 -0.1025  0.3133
 3435W        W 6954   1.477   1.546  11.820 -0.0881 -0.2546 -0.0327
 3436W        W 6955   0.300   1.319   0.444 -0.0440 -0.1687  0.1026
 3437W        W 6956   2.762   6.817   9.602  0.2255 -0.4601  0.1624
 3438W        W 6957   7.733   5.508   2.553 -0.0329 -0.1834 -0.1189
 3439W        W 6958   5.597   4.214   2.713  0.0005 -0.0554  0.0180
 3440W        W 6959   1.879   3.621   0.703  0.1103 -0.0947  0.4282
 3441W        W 6960   7.465   4.826   1.363 -0.0412 -0.0069  0.0699
 3442W        W 6961   6.628   0.959   9.889  0.0987  0.3101  0.1229
 3443W        W 6962   0.444   1.023   2.529  0.0195 -0.2938 -0.0504
 3444W        W 6963   8.768   4.501   9.092 -0.3638 -0.2551  0.1099
 3445W        W 6964   8.510   5.392  11.480  0.0905  0.0387  0.1814
 3446W        W 6965   8.326   4.715   8.864  0.0003  0.0503  0.0288
 3447W        W 6966   2.354   3.631  10.937 -0.0492 -0.0997  0.3066
 3448W        W 6967   5.872   2.196   0.822  0.0222  0.0862 -0.1781
 3449W        W 6968   1.739   1.360  10.608 -0.5938  0.1207 -0.0252
 3450W        W 6969   6.468   4.054   0.742  0.0954 -0.0628  0.0868
 3451W        W 6970   4.658   3.087   3.231  0.2054 -0.1539 -0.0614
 3452W        W 6971   7.309   4.799   9.003 -0.1427 -0.0924 -0.1380
 3453W        W 6972   2.474   0.090   1.686  0.0116  0.0928  0.2349
 3454W        W 6973   0.169   2.266   2.637 -0.5807  0.0830  0.2234
 3455W        W 6974   7.315   4.450   4.603  0.1271 -0.1358 -0.0362
 3456W        W 6975   1.225   8.739   4.061 -0.0700 -0.1183  0.0998
 3457W        W 6976   2.682   4.328  12.197  0.1862  0.1175 -0.1405
 3458W        W 6977   9.460   8.493   0.076 -0.4386  0.0527 -0.0764
 3459W        W 6978   8.171   7.833   1.933 -0.1807  0.1148 -0.3339
 3460W        W 6979   6.389   3.216  10.924 -0.1313  0.1069  0.0666
 3461W        W 6980   0.379   3.239   2.211  0.0969  0.0937  0.0902
 3462W        W 6981   9.204   8.042   9.853 -0.2858 -0.0687  0.3494
 3463W        W 6982   8.697   6.783   9.015  0.3573 -0.0719 -0.0737
 3464W        W 6983   1.657   3.228   9.629 -0.1009 -0.1152 -0.2504
 3465W        W 6984   2.985   4.796   2.381 -0.0026  0.0858  0.1684
 3466W        W 6985   0.348   0.554   4.377  0.0833  0.0691  0.0915
 3467W        W 6986   0.599   0.408  12.051 -0.1719  0.0017 -0.0964
 3468W        W 6987   5.202   4.550   9.309  0.1344  0.1049  0.5567
 3469W        W 6988   1.850   0.238   2.613 -0.4169  0.0257 -0.0677
 3470W        W 6989   4.329   2.361   9.801 -0.1833 -0.0224  0.0602
 3471W        W 6990   6.152   9.297   9.966  0.1701  0.0957  0.1004
 3472W        W 6991   1.975   1.400   8.685  0.3585 -0.0476 -0.2253
 3473W        W 6992   6.442   2.335  10.507 -0.1319  0.1338 -0.2725
 3474W        W 6993   3.449   1.094  12.028  0.0282  0.2781  0.3260
 3475W        W 6994   6.753   8.565   1.325 -0.0387 -0.0811 -0.0915
 3476W        W 6995   0.367   8.552  11.023  0.3250  0.0988  0.2912
 3477W        W 6996   7.179   5.237  11.123  0.1145  0.2562 -0.5567
 3478W        W 6997   5.186   0.283   3.398 -0.0688  0.0834  0.0060
 3479W        W 6998   1.524   1.848  11.376 -0.1593 -0.1686 -0.1251
 3480W        W 6999   5.226   7.522  10.877 -0.2815 -0.0401 -0.1788
 3481W        W 7000   9.455   5.914   9.202  0.0947  0.2162  0.0050
 3482W        W 7001   2.876   5.548   8.356 -0.2883 -0.1410  0.2615
 3483W        W 7002   0.379   5.183   2.401 -0.1503  0.0285  0.2743
 3484W        W 7003   8.682   0.677   0.270  0.1169 -0.1268 -0.2488
 3485W        W 7004   2.806   8.129   9.552 -0.3096 -0.1625  0.0249
 3486W        W 7005   4.079   1.520   1.492 -0.1325  0.0081 -0.0349
 3487W        W 7006   0.264   1.268   8.863 -0.3771 -0.0268  0.0528
 3488W        W 7007   7.980   6.678   0.816 -0.2828 -0.0542 -0.0335
 3489W        W 7008   2.875   8.458  11.326  0.0096 -0.1364  0.1120
 3490W        W 7009   0.822   0.242   0.640  0.1206 -0.0337  0.0594
 3491W        W 7010   0.254   9.048   4.125 -0.0567  0.3391 -0.0180
 3492W        W 7011   8.302   3.651  11.475 -0.1979  0.1308 -0.1138
 3493W        W 7012   7.121   6.187   9.884 -0.0465 -0.2531 -0.2469
 3494W        W 7013   8.201   2.999   1.408  0.2579  0.0714 -0.1272
 3495W        W 7014   5.982   8.903   8.835 -0.0894  0.1755  0.0442
 3496W        W 7015   6.131   6.449   9.622  0.1939  0.0694  0.2074
 3497W        W 7016   8.837   2.031   3.908  0.0622 -0.0555 -0.0854
 3498W        W 7017   9.463   9.039   3.420 -0.0895 -0.2613  0.0387
 3499W        W 7018   0.529   6.768  11.521 -0.4349  0.1174  0.1234
 3500W        W 7019   9.379   9.722   2.660  0.0571 -0.0034  0.2544
 3501W        W 7020   1.104   6.834  12.204 -0.1852  0.2681  0.1004
 3502W        W 7021   2.423   3.935  10.423 -0.1620 -0.0990 -0.0995
 3503W        W 7022   5.112   7.513   0.983 -0.1211 -0.1182 -0.0151
 3504W        W 7023   2.935   6.385   1.658  0.0851  0.0112  0.0475
 3505W        W 7024   1.877   2.284  10.652 -0.1049 -0.0920  0.0976
 3506W        W 7025   6.940   4.407   9.812  0.0646 -0.4249 -0.3723
 3507W        W 7026   6.629   0.016   9.506 -0.2762 -0.1204  0.0778
 3508W        W 7027   2.369   7.690   2.097  0.0360  0.0394  0.3079
 3509W        W 7028   2.462   6.472   2.446 -0.1148  0.2510 -0.2735
 3510W        W 7029   3.868   7.281  10.651  0.0419  0.0220 -0.0912
 3511W        W 7030   6.567   8.337   4.340  0.0657 -0.2161  0.0745
 3512W        W 7031   4.749   3.068   9.297 -0.1741  0.0490 -0.0781
 3513W        W 7032   2.953   7.204   9.990  0.2395  0.1830 -0.1203
 3514W        W 7033   2.400   9.181   2.515 -0.1016  0.2210  0.2618
 3515W        W 7034   6.069   6.738   1.952  0.1167  0.2307 -0.0188
 3516W        W 7035   0.366   8.636   0.877 -0.0164  0.2243 -0.2358
 3517W        W 7036   4.370   9.678  10.073 -0.0144  0.0403  0.0350
 3518W        W 7037   6.598   1.446  10.044  0.0290  0.0253  0.2012
 3519W        W 7038   3.903   2.882  11.615  0.3689  0.0459  0.0187
 3520W        W 7039   3.097   1.590   3.576 -0.2528  0.3125  0.1737
 3521W        W 7040   1.395   9.014   2.281 -0.3455 -0.0578  0.1697
 3522W        W 7041   0.876   7.056   1.611 -0.0726  0.0668 -0.1369
 3523W        W 7042   5.491   9.074  11.980 -0.1355 -0.0093  0.2806
 3524W        W 7043   2.661   8.614   4.230 -0.2965 -0.0890  0.2864
 3525W        W 7044   5.540   2.781  10.423 -0.0353 -0.0896  0.2375
 3526W        W 7045   6.762   1.421   8.168 -0.1863 -0.2090  0.0621
 3527W        W 7046   6.375   2.546  10.031 -0.0555 -0.0217 -0.1882
 3528W        W 7047   6.152   0.336   4.430  0.0854  0.1556  0.1613
 3529W        W 7048   2.854   0.641   8.651  0.0944 -0.1865 -0.1236
 3530W        W 7049   4.937   7.668  11.215  0.4987  0.1190 -0.5380
 3531W        W 7050   7.969   8.381   0.173  0.1010 -0.2097 -0.2952
 3532W        W 7051   5.353   0.908   0.611  0.0949 -0.2853 -0.1802
 3533W        W 7052   3.031   1.224   0.031 -0.1148 -0.1344  0.0308
 3534W        W 7053   6.173   0.612   0.819  0.0389 -0.1744 -0.2213
 3535W        W 7054   7.922   9.187   0.492 -0.0406 -0.0762 -0.0943
 3536W        W 7055   7.421   6.506   0.234 -0.0606  0.5223  0.0499
 3537W        W 7056   5.753   2.222   8.807  0.2791 -0.0264  0.2014
 3538W        W 7057   6.941   2.139   0.803  0.0464  0.2212  0.0164
 3539W        W 7058   5.615   7.343  10.616 -0.0708 -0.2842  0.0992
 3540W        W 7059   1.330   0.199   2.473  0.1900  0.2498  0.0741
 3541W        W 7060   5.729   7.902   1.059  0.0628  0.1910  0.0217
 3542W        W 7061   0.224   2.856   3.055  0.2997  0.0456 -0.0239
 3543W        W 7062   9.209   3.556   2.878 -0.0618 -0.0673 -0.0534
 3544W        W 7063   2.525   1.304   4.178 -0.5448  0.0594  0.4120
 3545W        W 7064   1.067   8.980  10.072  0.2295  0.2190 -0.0951
 3546W        W 7065   8.022   4.243   1.614  0.1605 -0.4973  0.0705
 3547W        W 7066   9.707   5.733   1.959 -0.2069 -0.0320  0.0159
 3548W        W 7067   3.755   0.058   4.290  0.0123 -0.1677  0.0989
 3549W        W 7068   4.491   1.018   0.834 -0.0869  0.0840  0.0899
 3550W        W 7069   2.385   8.820   0.299  0.1084  0.0423 -0.0518
 3551W        W 7070   4.408   1.771   3.319 -0.2313 -0.1932 -0.0822
 3552W        W 7071   2.887   2.710  11.365  0.2010  0.1900  0.3047
 3553W        W 7072   1.528   2.646  10.403 -0.0662 -0.4503 -0.0781
 3554W        W 7073   7.085   4.379   3.670  0.0059 -0.1945 -0.0082
 3555W        W 7074   7.614   4.134   4.848 -0.1890  0.0297  0.0053
 3556W        W 7075   9.255   3.472  11.016 -0.1328  0.2558 -0.2952
 3557W        W 7076   5.144   3.059   3.032  0.2148  0.0522 -0.1793
 3558W        W 7077   7.919   3.776  10.904 -0.0494  0.2270  0.1143
 3559W        W 7078   2.101   3.949   1.011  0.0824 -0.3166  0.1077
 3560W        W 7079   9.054   8.580   9.763  0.1924 -0.1594 -0.0090
 3561W        W 7080   9.244   4.672   8.880  0.1955  0.0948 -0.1751
 3562W        W 7081   5.054   4.790  10.444  0.0800 -0.0232 -0.4478
 3563W        W 7082   8.158   3.120   3.941  0.2236  0.1371 -0.1704
 3564W        W 7083   7.935   6.114  12.404 -0.0467  0.1144 -0.1985
 3565W        W 7084   3.401   8.431   1.239  0.0295 -0.1588 -0.0821
 3566W        W 7085   3.835   3.989  10.926 -0.0998 -0.1480  0.1748
 3567W        W 7086   4.676   2.113   8.080  0.1899 -0.1618  0.0091
 3568W        W 7087   6.630   0.521   3.316 -0.1162 -0.0730 -0.3015
 3569W        W 7088   8.594   0.828  10.317  0.2858  0.0286  0.2718
 3570W        W 7089   3.736   6.072   9.317  0.2327  0.0107 -0.1679
 3571W        W 7090   6.817   9.219   4.036 -0.0733 -0.2257  0.0057
 3572W        W 7091   5.252   7.435   9.780 -0.1879  0.0283 -0.0402
 3573W        W 7092   6.203   0.758   8.937  0.1462 -0.3364 -0.1342
 3574W        W 7093   1.474   6.823   9.505  0.0147  0.1363  0.1053
 3575W        W 7094   9.064   9.471  11.797 -0.0971  0.0784 -0.0600
 3576W        W 7095   6.950   2.507  11.802 -0.0365 -0.1704 -0.0192
 3577W        W 7096   2.131   3.336   9.637 -0.0443 -0.1965 -0.0739
 3578W        W 7097   1.069   7.909   3.988 -0.3100  0.1407 -0.0902
 3579W        W 7098   6.744   8.720  11.511  0.1299  0.2359  0.1702
 3580W        W 7099   7.490   7.420   0.117 -0.1456  0.1950  0.0866
 3581W        W 7100   8.342   6.889   0.456  0.1450 -0.3453 -0.1943
 3582W        W 7101   6.808   0.897   2.401 -0.1089  0.2618  0.1647
 3583W        W 7102   5.560   2.336   2.791  0.0515  0.1523 -0.0806
 3584W        W 7103   5.619   1.143   3.407 -0.0086  0.0475 -0.2045
 3585W        W 7104   6.184   3.010   2.505 -0.0837 -0.1012 -0.2578
 3586W        W 7105   2.235   3.952   2.499  0.0775  0.0625 -0.2551
 3587W        W 7106   6.207   6.377   9.047 -0.2244  0.0545 -0.1435
 3588W        W 7107   7.544   1.458  12.447 -0.0519  0.1083  0.0026
 3589W        W 7108   2.027   9.365  10.639 -0.1087  0.0515  0.2920
 3590W        W 7109   7.983   3.952   3.574 -0.2009  0.1157 -0.0520
 3591W        W 7110   6.763   4.774   1.919  0.3324  0.3176 -0.2515
 3592W        W 7111   2.804   6.593   2.117  0.0939  0.2043 -0.2311
 3593W        W 7112   4.301   0.562   0.003 -0.2025 -0.1694 -0.0778
 3594W        W 7113   0.758   1.497   2.344 -0.0166  0.1303  0.1033
 3595W        W 7114   8.569   4.002  12.360 -0.0312  0.1826 -0.0552
 3596W        W 7115   3.614   2.569  12.346 -0.0325 -0.0817  0.1690
 3597W        W 7116   2.860   6.655   1.269 -0.0475  0.1940 -0.1618
 3598W        W 7117   0.671   4.985   3.599  0.0106  0.0236 -0.0869
 3599W        W 7118   0.683   5.086   0.011 -0.2200  0.0494 -0.0307
 3600W        W 7119   5.445   1.277  10.703 -0.0198 -0.2478  0.1767
 3601W        W 7120   7.293   6.813  10.752 -0.0645 -0.1173 -0.0244
 3602W        W 7121   0.941   6.745   2.105 -0.0138 -0.4140  0.2083
 3603W        W 7122   7.721   4.298  10.774  0.0077 -0.0851 -0.2734
 3604W        W 7123   6.144   7.632   0.063 -0.0353  0.0724 -0.0370
 3605W        W 7124   7.151   1.169   9.154 -0.3542 -0.0660  0.0691
 3606W        W 7125   3.082   8.620  10.145 -0.1377 -0.1592 -0.1617
 3607W        W 7126   8.260   8.756   1.287  0.1213  0.0253 -0.1031
 3608W        W 7127   9.383   1.373   2.848 -0.3692 -0.0764 -0.0378
 3609W        W 7128   7.177   9.074   3.333  0.1595 -0.2905  0.1404
 3610W        W 7129   0.842   2.031   0.236 -0.1539 -0.4666  0.1649
 3611W        W 7130   5.796   3.008   9.752  0.0587  0.1899 -0.1524
 3612W        W 7131   3.369   0.958   1.380  0.0960  0.0837 -0.2090
 3613W        W 7132   7.721   5.901   1.242  0.0701  0.2521  0.4421
 3614W        W 7133   8.641   6.962  11.852  0.1388 -0.1188 -0.0766
 3615W        W 7134   2.895   5.300  10.555  0.1611  0.2222  0.0606
 3616W        W 7135   8.858   1.896   9.087 -0.3371 -0.3185  0.1842
 3617W        W 7136   2.935   3.292   1.226 -0.1054 -0.0141 -0.1341
 3618W        W 7137   3.210   8.340   4.035  0.1994  0.0932  0.0138
 3619W        W 7138   8.739   3.761   3.055  0.0428 -0.2005 -0.1356
 3620W        W 7139   9.220   7.765   0.885 -0.1000  0.3346 -0.2245
 3621W        W 7140   7.043   9.324   2.892  0.1709 -0.0138 -0.1565
 3622W        W 7141   2.183   6.872   2.646 -0.1883  0.0443  0.2795
 3623W        W 7142   9.703   1.532   9.685 -0.0358  0.0059 -0.1148
 3624W        W 7143   6.033   4.576   8.283  0.1437 -0.1039  0.1974
 3625W        W 7144   2.968   3.356   0.618  0.1959 -0.0144 -0.0411
 3626W        W 7145   0.469   0.454   0.963  0.0284 -0.2096  0.1028
 3627W        W 7146   9.484   0.934   1.152  0.1029  0.1826 -0.1721
 3628W        W 7147   7.167   2.084  10.703  0.1018 -0.1940  0.0014
 3629W        W 7148   0.901   1.530   0.153 -0.4726  0.2850 -0.3091
 3630W        W 7149   8.599   3.719   0.756 -0.0583 -0.1828  0.0082
 3631W        W 7150   1.518   8.428   3.334  0.0512 -0.0273 -0.0648
 3632W        W 7151   8.138   4.997  11.462 -0.0909 -0.3645 -0.0925
 3633W        W 7152   8.320   6.890  10.226  0.1176 -0.1013  0.0658
 3634W        W 7153   4.572   0.189   1.556 -0.1170 -0.1382 -0.1554
 3635W        W 7154   3.809   2.861   9.907 -0.4255  0.0553 -0.3885
 3636W        W 7155   8.501   7.301  11.428 -0.2036  0.0016 -0.1439
 3637W        W 7156   8.865   7.746   0.206 -0.0926 -0.3295 -0.0376
 3638W        W 7157   3.835   3.503   9.467  0.1698  0.3935 -0.0796
 3639W        W 7158   8.823   8.111   4.366  0.1147 -0.0786  0.1693
 3640W        W 7159   8.933   6.796  10.925  0.4904 -0.2230  0.0058
 3641W        W 7160   6.924   6.073   2.609  0.0363  0.2194 -0.0657
 3642W        W 7161   4.922   7.380   2.460  0.1757  0.1400 -0.3104
 3643W        W 7162   3.109   0.068  11.231 -0.4146  0.3497 -0.1534
 3644W        W 7163   8.961   1.125  10.146 -0.3698  0.2983  0.0845
 3645W        W 7164   1.400   9.670   8.044 -0.1958 -0.0819  0.2235
 3646W        W 7165   4.179   0.536   0.569 -0.1451 -0.0703  0.0040
 3647W        W 7166   7.220   9.476  10.878 -0.1421 -0.3469 -0.2979
 3648W        W 7167   0.917   0.371   3.421 -0.3599  0.0239  0.0274
 3649W        W 7168   9.412   5.715   3.761  0.1127 -0.0847 -0.1568
 3650W        W 7169   6.766   7.786   1.690 -0.0849  0.4329 -0.0899
 3651W        W 7170   6.346   7.852   3.996 -0.0987 -0.0892 -0.2419
 3652W        W 7171   8.170   3.743   9.000 -0.1015  0.2732  0.0055
 3653W        W 7172   4.296   5.212   2.847  0.1399 -0.0020 -0.2129
 3654W        W 7173   3.779   7.118   1.198  0.0256 -0.0318 -0.0720
 3655W        W 7174   0.133   1.319  10.273  0.0643 -0.2303 -0.1422
 3656W        W 7175   9.073   7.820  10.987  0.0175 -0.0506  0.3682
 3657W        W 7176   4.093   4.497   3.410 -0.0350  0.3063  0.0847
 3658W        W 7177   4.883   7.072   3.514 -0.3189 -0.2443  0.2325
 3659W        W 7178   4.860   9.710  10.002 -0.2054  0.2099 -0.0950
 3660W        W 7179   0.550   3.378   8.404  0.0334 -0.1113  0.2142
 3661W        W 7180   2.280   4.799  11.441  0.1349 -0.0102 -0.2069
 3662W        W 7181   4.463   7.712   0.550 -0.2127  0.1341  0.4761
 3663W        W 7182   7.684   6.249   4.145 -0.1483 -0.0613  0.1929
 3664W        W 7183   8.056   0.567   4.162  0.2785  0.0352 -0.2518
 3665W        W 7184   2.108   7.924   0.082  0.0454  0.0791  0.0513
 3666W        W 7185   9.461   6.219  10.921  0.1907  0.1932 -0.1951
 3667W        W 7186   9.180   8.175   3.231 -0.1528 -0.3843  0.2230
 3668W        W 7187   1.461   5.538   2.332 -0.3342 -0.1652  0.2874
 3669W        W 7188   2.209   1.041  10.760  0.1007  0.0096 -0.0407
 3670W        W 7189   8.411   5.328  12.016  0.3021  0.1135  0.0302
 3671W        W 7190   5.411   8.969   4.338 -0.1425 -0.0315  0.1452
 3672W        W 7191   9.425   1.119  10.423 -0.2832 -0.1661  0.2736
 3673W        W 7192   0.464   1.785  10.263  0.0043  0.0519 -0.3067
 3674W        W 7193   8.885   6.886   0.774 -0.1749 -0.2178  0.0877
 3675W        W 7194   1.504   7.868   0.807  0.0650  0.1151  0.0010
 3676W        W 7195   6.102   7.256  11.478 -0.5289 -0.2720  0.0419
 3677W        W 7196   7.697   1.634  11.394 -0.1910 -0.0130 -0.1882
 3678W        W 7197   4.116   3.990   3.555  0.2545 -0.2156 -0.3212
 3679W        W 7198   8.228   4.113  11.141 -0.1760  0.2934 -0.1898
 3680W        W 7199   0.625   4.121   4.135 -0.0592 -0.0134  0.3021
 3681W        W 7200   8.201   4.445   9.245 -0.0315  0.2036  0.0839
 3682W        W 7201   6.204   2.471   2.295 -0.0163 -0.6316 -0.0936
 3683W        W 7202   0.178   1.102   9.714 -0.0718  0.2771 -0.1450
 3684W        W 7203   4.852   8.030   1.409 -0.0625  0.3648  0.3320
 3685W        W 7204   9.558   1.928   0.949  0.1034  0.0348 -0.1548
 3686W        W 7205   8.354   4.548  10.157 -0.1542  0.0113 -0.2482
 3687W        W 7206   2.253   7.644   0.552 -0.3105  0.1585  0.3064
 3688W        W 7207   0.237   0.871   1.265  0.2080 -0.1271  0.0262
 3689W        W 7208   6.479   2.326   0.565  0.0743  0.0236 -0.4968
 3690W        W 7209   4.690   5.145   0.460  0.2014 -0.1748 -0.1115
 3691W        W 7210   7.677   7.932  10.040  0.0481  0.1732  0.2715
 3692W        W 7211   2.378   0.470   9.418 -0.0527  0.1188 -0.0398
 3693W        W 7212   3.895   3.576  10.595 -0.1024  0.0143  0.0006
 3694W        W 7213   6.969   6.897   0.968 -0.0498  0.1558 -0.2519
 3695W        W 7214   6.199   7.320  10.000  0.3637 -0.1174  0.0816
 3696W        W 7215   0.649   9.017  11.211 -0.2081  0.0771  0.1837
 3697W        W 7216   3.872   1.669   2.441  0.0991 -0.5365  0.1817
 3698W        W 7217   3.618   4.585   0.154 -0.0476  0.0092  0.0299
 3699W        W 7218   5.571   8.345   8.126  0.1111  0.1903 -0.0394
 3700W        W 7219   7.788   0.896   2.487  0.4637  0.4529 -0.1111
 3701W        W 7220   0.990   3.669   2.979  0.5467  0.1679 -0.1186
 3702W        W 7221   6.804   5.932   1.570  0.1950 -0.3465 -0.2714
 3703W        W 7222   8.513   5.716   2.471 -0.0615 -0.0246  0.1573
 3704W        W 7223   1.102   5.175  10.185  0.4508 -0.0293 -0.1017
 3705W        W 7224   4.989   6.339  11.879  0.2048 -0.3940 -0.2378
 3706W        W 7225   5.872   2.078   9.927 -0.0501  0.1267 -0.2736
 3707W        W 7226   6.949   6.494  11.858 -0.0521  0.4571 -0.1398
 3708W        W 7227   5.405   5.592  11.019  0.3270 -0.2870 -0.4400
 3709W        W 7228   1.517   9.538   4.380 -0.0999 -0.1829 -0.2367
 3710W        W 7229   5.659   9.220   2.357  0.0910  0.0105  0.3732
 3711W        W 7230   7.643   2.860  11.940 -0.4436 -0.1153 -0.0674
 3712W        W 7231   7.857   1.805   0.114  0.0547  0.2663  0.0668
 3713W        W 7232   4.685   8.646   9.998 -0.3642  0.0804  0.0767
 3714W        W 7233   7.334   3.757   0.850  0.0996  0.4871 -0.2734
 3715W        W 7234   7.137   3.259   2.298  0.4645 -0.0154  0.0906
 3716W        W 7235   0.918   1.249  12.154 -0.3069  0.0020 -0.2026
 3717W        W 7236   0.165   7.770   1.970 -0.0929  0.0857 -0.1460
 3718W        W 7237   5.332   0.724   8.983 -0.0042  0.3012 -0.1934
 3719W        W 7238   7.525   0.424   9.602  0.0502  0.1384 -0.2501
 3720W        W 7239   5.435   0.719  12.005  0.0720 -0.2190 -0.2203
 3721W        W 7240   7.104   1.162   0.543 -0.0406 -0.1649  0.1078
 3722W        W 7241   8.404   6.965   1.921 -0.0517  0.2954  0.4147
 3723W        W 7242   5.985   2.312   3.805  0.1797 -0.1241  0.1111
 3724W        W 7243   9.286   2.133   2.579  0.0932 -0.2643  0.1884
 3725W        W 7244   7.751   8.594   2.182  0.0638  0.3223 -0.2138
 3726W        W 7245   9.635   3.153   2.702  0.3709  0.1300 -0.1767
 3727W        W 7246   8.532   1.923  10.037  0.4542 -0.3096 -0.0504
 3728W        W 7247   5.052   0.747   3.462  0.3443 -0.0079  0.1863
 3729W        W 7248   8.760   5.803  10.473 -0.1875  0.1483 -0.0055
 3730W        W 7249   8.962   2.495   0.533  0.4098  0.0480  0.0668
 3731W        W 7250   9.147   5.893  11.093  0.2569  0.0262 -0.1957
 3732W        W 7251   9.129   3.907   3.321 -0.1625 -0.0957 -0.1874
 3733W        W 7252   3.015   1.105   9.352 -0.1429 -0.1678 -0.1095
 3734W        W 7253   9.111   9.198   2.781 -0.0309  0.0540  0.1711
 3735W        W 7254   1.977   8.979   0.587  0.0364  0.2173  0.0932
 3736W        W 7255   0.416   8.318   9.714  0.2386  0.1505  0.0218
 3737W        W 7256   9.467   7.309   0.966  0.0020 -0.0136  0.1093
 3738W        W 7257   7.488   4.841  10.881 -0.1042  0.0738  0.1781
 3739W        W 7258   6.579   4.125   9.688  0.0459 -0.1585  0.0774
 3740W        W 7259   8.846   7.783  10.107  0.0129 -0.1088 -0.2309
 3741W        W 7260   5.817   9.037  11.521  0.0731 -0.1253  0.0760
 3742W        W 7261   7.853   9.342   3.355  0.1714 -0.0943 -0.0439
 3743W        W 7262   8.556   2.659  11.080 -0.0625  0.0716  0.1140
 3744W        W 7263   8.235   3.425  11.053 -0.1844  0.2544 -0.1752
 3745W        W 7264   0.192   2.090   3.614  0.0692  0.3064 -0.2681
 3746W        W 7265   6.663   1.167  12.240  0.0456  0.0966 -0.1308
 3747W        W 7266   1.735   1.744   0.910 -0.2053  0.2960 -0.0453
 3748W        W 7267   2.730   2.659   3.821 -0.1424  0.3281  0.4512
 3749W        W 7268   0.506   7.591   9.073  0.0978 -0.1444  0.0668
 3750W        W 7269   7.458   4.245   2.833 -0.2311  0.0054  0.2537
 3751W        W 7270   9.330   8.771   7.861 -0.1848 -0.0566 -0.0085
 3752W        W 7271   4.621   9.109   2.658 -0.2019 -0.0285 -0.0782
 3753W        W 7272   0.457   1.753   2.721  0.2225 -0.1538  0.1408
 3754W        W 7273   3.423   5.083   8.810 -0.1754 -0.3614 -0.0465
 3755W        W 7274   6.553   2.128  11.883 -0.2104  0.1940  0.1242
 3756W        W 7275   5.443   6.152  11.783  0.0833  0.2443  0.0858
 3757W        W 7276   0.953   9.629   3.628 -0.2752 -0.2415  0.1611
 3758W        W 7277   6.478   8.854   0.808  0.1317  0.1856 -0.0643
 3759W        W 7278   9.649   5.111  10.502  0.0146  0.3008  0.1505
 3760W        W 7279   7.358   6.092  10.663  0.1959 -0.0796  0.1925
 3761W        W 7280   1.646   4.862  11.566 -0.1831 -0.1061 -0.0786
 3762W        W 7281   9.458   2.987  10.117 -0.2288  0.0779  0.1655
 3763W        W 7282   9.410   4.538   2.689  0.1287  0.0085  0.3809
 3764W        W 7283   8.407   0.811   3.682  0.3904  0.0033  0.2072
 3765W        W 7284   0.426   7.937  12.241 -0.1445  0.0914 -0.1027
 3766W        W 7285   4.071   6.165   1.376 -0.2711 -0.1709  0.4151
 3767W        W 7286   2.352   1.782   4.122  0.2768  0.2082  0.1382
 3768W        W 7287   6.549   6.978   4.342 -0.2793  0.2670 -0.4223
 3769W        W 7288   9.222   7.110   8.731 -0.2066  0.0408 -0.1534
 3770W        W 7289   5.069   2.619   1.525  0.0217 -0.1475 -0.2060
 3771W        W 7290   3.369   5.787  11.389  0.0059 -0.2296  0.0203
 3772W        W 7291   5.025   5.680  10.649 -0.3223  0.1763 -0.2896
 3773W        W 7292   5.117   3.199   1.533  0.3726  0.1988  0.2461
 3774W        W 7293   1.547   2.524   2.113 -0.3844 -0.1549 -0.1478
 3775W        W 7294   0.193   8.380   2.821 -0.2439 -0.0259 -0.2995
 3776W        W 7295   6.876   3.065  11.374 -0.0908  0.1457 -0.1228
 3777W        W 7296   9.701   8.107   4.843  0.3155 -0.2513  0.1112
 3778W        W 7297   3.587   8.144   2.955 -0.2669  0.1406 -0.1260
 3779W        W 7298   2.145   9.258  11.733 -0.0400  0.0010  0.1062
 3780W        W 7299   2.540   7.697  11.253  0.0496 -0.0225 -0.0207
 3781W        W 7300   3.701   0.057  11.178 -0.1614  0.2938  0.0597
 3782W        W 7301   0.727   6.483  12.441  0.1039 -0.0353 -0.1760
 3783W        W 7302   3.604   9.070   1.742  0.2156 -0.0161  0.0675
 3784W        W 7303   1.459   2.386   9.832 -0.1715  0.1706  0.1555
 3785W        W 7304   0.873   1.719  11.789  0.0071 -0.2924  0.2322
 3786W        W 7305   0.764   5.559  10.065 -0.2273  0.0155  0.2002
 3787W        W 7306   6.734   4.066   3.475 -0.1650  0.3214  0.1108
 3788W        W 7307   3.191   7.625   2.352  0.0398 -0.1341  0.1112
 3789W        W 7308   1.296   8.510   1.002  0.0536 -0.1000  0.0037
 3790W        W 7309   6.511   5.006   2.433  0.0390  0.0295  0.1514
 3791W        W 7310   9.283   1.997   0.037  0.0128  0.2679 -0.2564
 3792W        W 7311   7.457   9.389   1.882  0.0147 -0.1768 -0.0514
 3793W        W 7312   4.520   8.625   1.888 -0.4140 -0.2121 -0.0274
 3794W        W 7313   1.987   5.366  10.539 -0.1853 -0.1369 -0.0121
 3795W        W 7314   4.165   1.120   1.876  0.0419 -0.2014 -0.2184
 3796W        W 7315   6.634   9.238   0.207  0.1014 -0.2392  0.1139
 3797W        W 7316   1.986   6.787   3.118  0.1796  0.2414  0.0823
 3798W        W 7317   0.602   5.708   3.673  0.1104 -0.1211 -0.2339
 3799W        W 7318   0.533   5.246   1.088 -0.2194 -0.0713 -0.0711
 3800W        W 7319   1.709   3.343  11.171  0.1464  0.0505 -0.1461
 3801W        W 7320   8.993   0.122   9.614 -0.1317  0.3888  0.1423
 3802W        W 7321   8.530   4.843   9.339 -0.1687 -0.1503  0.0995
 3803W        W 7322   2.199   1.682   0.508  0.0994 -0.0471 -0.0559
 3804W        W 7323   1.951   5.952  10.427 -0.1784 -0.1535 -0.0413
 3805W        W 7324   1.591   9.336   0.760  0.0627  0.2052  0.2244
 3806W        W 7325   1.273   0.954   0.730  0.1207  0.0325  0.1000
 3807W        W 7326   0.113   7.183  11.391  0.1772  0.0672  0.0360
 3808W        W 7327   6.639   0.463   9.694  0.1040  0.2919  0.1418
 3809W        W 7328   0.277   0.238   0.521 -0.0504  0.1251  0.0004
 3810W        W 7329   0.756   6.492  11.938  0.2449 -0.1116  0.2799
 3811W        W 7330   5.170   1.721   1.803 -0.2972 -0.0111  0.0666
 3812W        W 7331   7.293   8.999   4.140 -0.1373 -0.0363  0.1530
 3813W        W 7332   1.545   2.408   1.622 -0.0032  0.1116  0.1165
 3814W        W 7333   7.153   1.579  12.100  0.3161  0.4658 -0.0102
 3815W        W 7334   5.647   5.497   2.520 -0.1402  0.0101 -0.0065
 3816W        W 7335   3.920   4.742   9.622  0.0274  0.0938  0.1243
 3817W        W 7336   1.692   1.819  10.834  0.1346  0.1466  0.0049
 3818W        W 7337   2.372   7.057  12.304 -0.0623 -0.0486  0.0116
 3819W        W 7338   1.055   4.756   0.273 -0.2066  0.2654  0.0825
 3820W        W 7339   1.914   1.091   1.674 -0.2285 -0.4059 -0.2190
 3821W        W 7340   1.308   3.385   9.964  0.3557  0.0075 -0.0214
 3822W        W 7341   5.324   4.164   3.774  0.1870 -0.0248 -0.2002
 3823W        W 7342   1.121   0.273  11.958 -0.0820  0.0061 -0.1825
 3824W        W 7343   3.634   6.021   1.058  0.0497  0.0620  0.0626
 3825W        W 7344   2.399   9.036   3.329  0.0087  0.0908 -0.3493
 3826W        W 7345   5.894   5.314   5.050  0.3519  0.3074 -0.0277
 3827W        W 7346   3.788   4.306  11.737  0.1208  0.2056 -0.3011
 3828W        W 7347   6.176   7.196   2.125 -0.0616  0.0931  0.0995
 3829W        W 7348   3.796   6.822  10.907  0.1085  0.1415  0.1305
 3830W        W 7349   9.091   2.835  11.147  0.0562 -0.1480 -0.1515
 3831W        W 7350   9.560   7.041   9.533  0.0184  0.0793  0.0418
 3832W        W 7351   9.397   6.318  12.180 -0.0497  0.4533  0.3481
 3833W        W 7352   8.869   7.204   4.361 -0.0187  0.0937  0.0249
 3834W        W 7353   8.809   5.457   2.817 -0.2991 -0.0864  0.3098
 3835W        W 7354   9.713   4.532   0.108 -0.1043 -0.2107 -0.4414
 3836W        W 7355   0.383   2.301   0.320  0.1425  0.3869  0.1613
 3837W        W 7356   2.157   2.323   3.139 -0.1941 -0.1433 -0.1059
 3838W        W 7357   9.328   7.111  12.453 -0.0556 -0.0061 -0.0616
 3839W        W 7358   7.721   2.891   9.055  0.0542 -0.2142 -0.0163
 3840W        W 7359   3.160   7.713   2.828 -0.0155 -0.2456 -0.5050
 3841W        W 7360   1.935   3.897  11.813 -0.0346 -0.0903  0.0328
 3842W        W 7361   7.989   8.387   1.037 -0.0240  0.0014  0.1700
 3843W        W 7362   8.817   3.848   9.007  0.1265 -0.2719 -0.2525
 3844W        W 7363   8.396   7.012   0.928 -0.0136  0.0174  0.2887
 3845W        W 7364   6.889   1.957   0.341 -0.0749  0.3300 -0.0122
 3846W        W 7365   1.892   9.378   8.453 -0.0820  0.0025  0.1978
 3847W        W 7366   5.794   9.213   9.123  0.0724  0.3659  0.0596
 3848W        W 7367   1.655   3.584  12.162  0.3400 -0.0528 -0.2259
 3849W        W 7368   8.905   1.954   4.427  0.0300  0.1934 -0.0602
 3850W        W 7369   1.291   9.667   1.360  0.3715  0.3998 -0.0201
 3851W        W 7370   8.520   5.278   4.415 -0.0671  0.0842 -0.1493
 3852W        W 7371   5.486   3.622   8.967 -0.1518 -0.1393  0.1135
 3853W        W 7372   0.296   7.800   9.699 -0.1790  0.0520  0.0409
 3854W        W 7373   3.591   7.757   1.038 -0.1490 -0.1754 -0.1118
 3855W        W 7374   2.972   5.790   0.184 -0.1810  0.1465 -0.0026
 3856W        W 7375   6.643   3.134   2.529 -0.2592  0.1899 -0.0387
 3857W        W 7376   1.317   7.513   4.198  0.0630 -0.2068 -0.2148
 3858W        W 7377   2.126   0.841   0.120  0.0821 -0.0338 -0.0308
 3859W        W 7378   7.394   8.720   9.811 -0.0928 -0.2193  0.1977
 3860W        W 7379   8.603   9.284   1.394 -0.0050  0.1422 -0.1124
 3861W        W 7380   5.542   0.843  11.499  0.0968 -0.2871  0.2679
 3862W        W 7381   2.514   5.400   9.641  0.0878 -0.0874 -0.0373
 3863W        W 7382   2.951   2.297   1.754 -0.2363 -0.0496  0.1282
 3864W        W 7383   4.967   2.619   3.002  0.0513  0.1228 -0.1390
 3865W        W 7384   6.774   7.104   8.872 -0.0193 -0.2105  0.0259
 3866W        W 7385   5.347   3.942   1.024 -0.0758  0.1160  0.2138
 3867W        W 7386   2.762   5.674   9.964  0.2992  0.0498  0.4017
 3868W        W 7387   5.443   1.556   3.718  0.2333 -0.0298  0.1707
 3869W        W 7388   2.222   5.646  10.162  0.1915  0.0715 -0.0273
 3870W        W 7389   6.278   4.382   8.736  0.1466  0.2064 -0.1879
 3871W        W 7390   6.237   4.134   2.053 -0.1787 -0.0670  0.1263
 3872W        W 7391   8.877   6.687   2.543 -0.0302  0.0963 -0.1232
 3873W        W 7392   2.279   0.022   3.281 -0.0721 -0.2028 -0.2646
 3874W        W 7393   4.637   0.222   4.840  0.0626  0.0121 -0.1636
 3875W        W 7394   9.321   2.660   8.382  0.1763  0.0313 -0.1974
 3876W        W 7395   0.484   3.913  10.925 -0.1279 -0.2425  0.0704
 3877W        W 7396   1.036   4.241  10.687  0.1682 -0.3631  0.3144
 3878W        W 7397   2.671   0.812   0.138 -0.1493  0.1171 -0.1779
 3879W        W 7398   0.582   7.515  10.118 -0.0412  0.0756  0.1830
 3880W        W 7399   6.564   0.864  10.655  0.0778  0.0167 -0.1651
 3881W        W 7400   8.504   9.119   9.431  0.0443 -0.3453  0.0691
 3882W        W 7401   7.216   4.569   1.844  0.0969 -0.0083 -0.3033
 3883W        W 7402   9.437   3.293   4.232 -0.2336  0.2071 -0.0192
 3884W        W 7403   8.030   7.341  11.260  0.0306  0.0014  0.0060
 3885W        W 7404   2.075   8.873  10.819  0.1472  0.0089 -0.0195
 3886W        W 7405   4.235   6.799   9.058 -0.0750  0.1012 -0.0824
 3887W        W 7406   8.666   5.450   0.372 -0.1397 -0.3078 -0.2969
 3888W        W 7407   0.705   2.824  11.082  0.4140  0.1714 -0.0201
 3889W        W 7408   5.195   9.623   8.812 -0.3804  0.3381  0.0799
 3890W        W 7409   7.780   2.064   1.302  0.0773  0.1739 -0.1441
 3891W        W 7410   5.506   3.615  11.688  0.1082  0.2036  0.1330
 3892W        W 7411   4.876   9.292  10.624 -0.1081 -0.0413 -0.0391
 3893W        W 7412   5.054   1.356  10.054 -0.2362 -0.0591 -0.1610
 3894W        W 7413   4.314   7.026   2.462 -0.0832  0.3965 -0.0483
 3895W        W 7414   0.401   0.731   0.401  0.2655 -0.0643 -0.1281
 3896W        W 7415   2.400   0.543   3.387  0.0106 -0.1626  0.0003
 3897W        W 7416   3.818   4.812   3.668 -0.0247  0.1178  0.4232
 3898W        W 7417   6.629   3.679   9.718 -0.1387  0.1687  0.1366
 3899W        W 7418   6.176   4.693   2.099 -0.1588 -0.2119  0.1972
 3900W        W 7419   6.016   6.049  10.360 -0.2173 -0.0651 -0.0424
 3901W        W 7420   5.088   2.419   4.070 -0.1540 -0.2597  0.1587
 3902W        W 7421   1.112   0.243  11.413  0.2043 -0.2684  0.0125
 3903W        W 7422   8.383   0.079   4.218  0.3016  0.5804 -0.3439
 3904W        W 7423   6.182   1.770   8.677  0.0824 -0.0333  0.1690
 3905W        W 7424   3.414   5.616   1.356 -0.0924 -0.0199  0.1025
 3906W        W 7425   3.655   5.803   3.142 -0.3701  0.0631 -0.0344
 3907W        W 7426   5.182   5.629   2.190  0.0078  0.0942 -0.1387
 3908W        W 7427   7.776   3.090  11.158  0.2972  0.0040  0.2610
 3909W        W 7428   2.241   1.897   1.799  0.0931 -0.2731 -0.0842
 3910W        W 7429   0.154   4.351   1.827  0.1392 -0.1161 -0.1047
 3911W        W 7430   3.452   0.327   2.662  0.4555 -0.2656 -0.0125
 3912W        W 7431   9.004   3.136  10.760 -0.0624  0.0763 -0.2766
 3913W        W 7432   7.029   6.132   4.784  0.1963  0.1102 -0.0486
 3914W        W 7433   4.561   5.815   0.600  0.1063  0.1601  0.0967
 3915W        W 7434   0.721   0.851   9.299 -0.0979 -0.1534 -0.3704
 3916W        W 7435   4.345   0.128   0.862 -0.0500  0.1036 -0.1323
 3917W        W 7436   2.006   7.116  11.783 -0.0962 -0.3428  0.2677
 3918W        W 7437   5.205   9.077   3.907  0.2401  0.1569  0.0161
 3919W        W 7438   2.889   1.107  10.036  0.2092  0.0662 -0.1206
 3920W        W 7439   5.833   1.960   1.612 -0.1806  0.0425 -0.1171
 3921W        W 7440   1.701   4.188   1.688  0.3107  0.0650  0.0873
 3922W        W 7441   7.424   7.943   0.219  0.1064 -0.0033  0.1139
 3923W        W 7442   6.366   8.192   0.747  0.2711 -0.0617  0.0660
 3924W        W 7443   4.280   4.946  10.889 -0.0087 -0.1279 -0.2529
 3925W        W 7444   2.421   8.178   0.451  0.2919 -0.0731 -0.0962
 3926W        W 7445   2.467   3.128  10.583 -0.1466  0.1305 -0.1480
 3927W        W 7446   4.652   3.873   9.675 -0.0499 -0.2123 -0.3008
 3928W        W 7447   3.005   3.327  10.645 -0.0600  0.0528 -0.1637
 3929W        W 7448   3.285   7.087  10.895  0.1535 -0.0067 -0.0670
 3930W        W 7449   9.389   0.537   2.743  0.0907 -0.2185  0.0431
 3931W        W 7450   1.177   7.926   2.245  0.2271 -0.1003  0.1158
 3932W        W 7451   6.587   0.418   2.379  0.2364  0.2412  0.2306
 3933W        W 7452   0.305   8.022   0.735 -0.1131 -0.0576 -0.1795
 3934W        W 7453   0.715   0.717   0.008  0.1560  0.2210 -0.0024
 3935W        W 7454   4.132   9.160   2.603 -0.1170 -0.2746 -0.2139
 3936W        W 7455   4.413   6.742   2.839 -0.1830 -0.1006 -0.0273
 3937W        W 7456   3.181   8.753   2.067  0.0644 -0.0123  0.0653
 3938W        W 7457   6.603   2.188   2.294  0.4522 -0.1011  0.2014
 3939W        W 7458   0.304   8.635   8.965 -0.0463  0.0028  0.2156
 3940W        W 7459   8.665   5.012   2.486 -0.1961 -0.0191  0.0579
 3941W        W 7460   7.238   8.845   1.144 -0.0294 -0.1989 -0.3928
 3942W        W 7461   2.614   8.160  10.975 -0.1143 -0.0569  0.5248
 3943W        W 7462   8.148   6.578   9.834  0.2842 -0.0648  0.1253
 3944W        W 7463   9.132   2.801   1.409  0.0344 -0.3877 -0.1584
 3945W        W 7464   3.698   6.315   3.225 -0.2027 -0.2402  0.0234
 3946W        W 7465   0.770   7.832   0.564 -0.0856 -0.1478 -0.0201
 3947W        W 7466   6.259   0.351   8.317 -0.0114  0.1185 -0.0933
 3948W        W 7467   6.205   1.598  10.654  0.1298 -0.0166 -0.3321
 3949W        W 7468   5.100   2.265   1.848  0.0187  0.1991  0.3486
 3950W        W 7469   5.515   8.787   3.623  0.0520  0.1009 -0.0953
 3951W        W 7470   5.422   1.619  12.342  0.2002  0.1157  0.1481
 3952W        W 7471   3.967   6.357   0.404 -0.2483 -0.2349 -0.0714
 3953W        W 7472   8.205   2.988  10.812  0.2762 -0.1168  0.0788
 3954W        W 7473   2.920   0.541  11.257  0.0079 -0.0573  0.1416
 3955W        W 7474   6.827   0.004   0.284  0.3629 -0.0895 -0.1260
 3956W        W 7475   3.344   7.448  11.561 -0.2579  0.1443 -0.2147
 3957W        W 7476   1.834   8.901   0.091 -0.0447 -0.0677 -0.0120
 3958W        W 7477   1.917   0.807  11.598 -0.0862 -0.0397 -0.0519
 3959W        W 7478   4.672   3.960   2.640  0.3127  0.0769  0.1454
 3960W        W 7479   9.632   1.066   0.376  0.1584 -0.0999  0.0264
 3961W        W 7480   5.693   4.517   9.289  0.0007 -0.4605  0.3317
 3962W        W 7481   2.053   6.103  11.561  0.1259 -0.3072  0.0113
 3963W        W 7482   2.615   0.360   8.204  0.1066  0.0847  0.0254
 3964W        W 7483   0.004   3.684   4.477 -0.3364 -0.1826  0.0258
 3965W        W 7484   9.617   4.240   1.048  0.0250  0.4131 -0.0032
 3966W        W 7485   5.694   0.028   2.603 -0.3193  0.3279  0.2826
 3967W        W 7486   4.598   8.091   9.130  0.4262 -0.2225  0.1422
 3968W        W 7487   6.599   6.276  12.170  0.1157  0.0015 -0.0904
 3969W        W 7488   8.002   5.428   9.172  0.1011  0.0701  0.0579
 3970W        W 7489   3.427   5.706   8.609 -0.2397  0.3324  0.1592
 3971W        W 7490   2.944   5.485   1.512  0.3338 -0.2419 -0.2144
 3972W        W 7491   9.314   1.514  11.869  0.0910 -0.0034  0.0441
 3973W        W 7492   1.848   9.104   3.412  0.1695 -0.2546 -0.0652
 3974W        W 7493   2.432   0.806   4.133 -0.0222  0.0795  0.0587
 3975W        W 7494   8.831   0.191   8.554  0.0350  0.0910  0.0250
 3976W        W 7495   9.027   2.933   3.496  0.0184  0.1575 -0.3286
 3977W        W 7496   0.879   9.717   1.647  0.0216 -0.0346  0.5356
 3978W        W 7497   4.583   1.621  10.016  0.1653 -0.0396  0.2390
 3979W        W 7498   1.613   8.345   3.862 -0.2535 -0.0188 -0.1042
 3980W        W 7499   2.509   1.523   3.715 -0.1254 -0.0876 -0.0528
 3981W        W 7500   4.953   5.944   2.596  0.0318  0.0242 -0.1989
 3982W        W 7501   0.015   5.787   9.617 -0.2813 -0.1297  0.0859
 3983W        W 7502   8.744   1.806  11.342 -0.0653  0.0923 -0.2880
 3984W        W 7503   6.590   3.945   1.375  0.0506  0.2474 -0.2674
 3985W        W 7504   2.500   2.253   3.510  0.1202 -0.1556  0.0029
 3986W        W 7505   6.675   6.159   9.041  0.0138  0.0041  0.2206
 3987W        W 7506   3.302   5.393   9.264  0.0354 -0.6330 -0.1423
 3988W        W 7507   4.248   5.607   9.897 -0.1615 -0.0839 -0.0954
 3989W        W 7508   6.456   0.212   0.874  0.2009  0.4698  0.0158
 3990W        W 7509   3.451   5.694   0.362 -0.0202 -0.1296 -0.0383
 3991W        W 7510   3.538   6.400   2.329 -0.0212 -0.1455  0.1856
 3992W        W 7511   8.700   3.426   2.609  0.0327 -0.0780  0.4174
 3993W        W 7512   7.202   9.268   1.468  0.0503  0.4154  0.3856
 3994W        W 7513   2.833   7.972   2.588 -0.3186 -0.1742 -0.0924
 3995W        W 7514   7.079   8.350  11.493 -0.0290  0.3286 -0.0663
 3996W        W 7515   3.641   6.340  12.133 -0.0307 -0.1219  0.3266
 3997W        W 7516   3.253   0.855   0.321 -0.6334 -0.0474  0.6239
 3998W        W 7517   3.043   4.771  11.709 -0.1960 -0.2053  0.1374
 3999W        W 7518   9.123   1.455   8.085 -0.1597 -0.2338  0.3507
 4000W        W 7519   7.776   3.657  11.819  0.1163  0.3062 -0.0538
 4001W        W 7520   4.198   1.499   0.466  0.1043  0.1962  0.0378
 4002W        W 7521   9.102   1.658   3.163  0.1884 -0.0796  0.1289
 4003W        W 7522   4.631   2.417   4.257  0.1057 -0.1561 -0.1247
 4004W        W 7523   8.565   0.236   0.579 -0.1336 -0.0208 -0.0799
 4005W        W 7524   4.331   8.509   1.444  0.1273  0.0012  0.0896
 4006W        W 7525   1.482   3.661  10.373  0.3254 -0.2320 -0.0602
 4007W        W 7526   0.229   7.873   3.532  0.2840 -0.0963 -0.2906
 4008W        W 7527   3.793   5.957   4.076  0.0250  0.1885  0.3646
 4009W        W 7528   6.205   0.736   9.624 -0.0802 -0.1567 -0.3530
 4010W        W 7529   9.163   6.936  10.417 -0.1296 -0.0582 -0.2537
 4011W        W 7530   3.873   0.534  11.259 -0.0163  0.2195  0.3003
 4012W        W 7531   7.275   0.173  10.271  0.0621  0.1940  0.2636
 4013W        W 7532   7.537   4.601   2.381 -0.1818 -0.0298  0.2647
 4014W        W 7533   1.497   9.230   8.995  0.1490  0.0205 -0.4548
 4015W        W 7534   6.862   7.395   4.280 -0.2217  0.0948  0.2611
 4016W        W 7535   6.215   0.524  12.397  0.0539  0.1381  0.5272
 4017W        W 7536   0.746   2.284  10.532  0.1042 -0.0289 -0.1340
 4018W        W 7537   4.082   0.244   8.983 -0.1197  0.1233  0.0511
 4019W        W 7538   8.274   3.896   8.462 -0.1758  0.1084  0.2891
 4020W        W 7539   6.218   3.624   2.167 -0.2225 -0.2265 -0.0913
 4021W        W 7540   1.264   3.196  10.454 -0.1940  0.1926 -0.1274
 4022W        W 7541   0.568   0.492  11.489 -0.1049 -0.0899 -0.1366
 4023W        W 7542   4.258   9.669   4.239 -0.2353 -0.3078 -0.4440
 4024W        W 7543   6.339   0.604  10.136 -0.2711 -0.2031 -0.0104
 4025W        W 7544   6.266   4.936   8.681  0.1298  0.2312 -0.0821
 4026W        W 7545   4.557   3.840   2.146  0.6265 -0.2979 -0.1557
 4027W        W 7546   8.435   1.732   9.592 -0.1947 -0.4646  0.4127
 4028W        W 7547   8.986   5.191   4.995 -0.2826 -0.0628  0.2447
 4029W        W 7548   0.067   6.642  11.298 -0.2772  0.0909 -0.0880
 4030W        W 7549   1.263   1.126   1.621 -0.0905  0.3708  0.3227
 4031W        W 7550   6.653   8.319  12.387 -0.0722  0.1710  0.0612
 4032W        W 7551   6.552   6.156   1.242  0.3556 -0.2210 -0.1539
 4033W        W 7552   8.920   4.742   2.237 -0.1007 -0.0853  0.6443
 4034W        W 7553   1.193   2.026   2.606  0.3874  0.0955  0.1213
 4035W        W 7554   1.114   8.187   0.610  0.1792  0.1707 -0.0330
 4036W        W 7555   6.683   2.144   9.911  0.3624  0.3428  0.2671
 4037W        W 7556   3.141   6.069   1.255 -0.0373  0.0129 -0.1611
 4038W        W 7557   5.665   5.419   3.493 -0.2190  0.1192 -0.1528
 4039W        W 7558   2.037   1.821  10.480 -0.1414  0.0200  0.2363
 4040W        W 7559   2.563   4.845   3.058  0.2813  0.1416  0.0181
 4041W        W 7560   6.781   1.272   1.585  0.2660 -0.1068 -0.1199
 4042W        W 7561   7.270   2.473   0.852  0.0007  0.1294  0.0766
 4043W        W 7562   8.142   8.201   1.507  0.0144  0.0291 -0.0935
 4044W        W 7563   8.606   4.862   1.760  0.2651 -0.2819  0.0774
 4045W        W 7564   3.175   0.541   1.323 -0.0128 -0.0985  0.1629
 4046W        W 7565   6.789   6.459   8.619  0.1453  0.1705  0.0611
 4047W        W 7566   8.783   2.080   0.292  0.2268 -0.2756 -0.1108
 4048W        W 7567   4.031   8.540   7.994  0.1921 -0.2001 -0.0971
 4049W        W 7568   5.917   3.656   9.206 -0.1964 -0.0972 -0.0797
 4050W        W 7569   6.488   8.341  10.691  0.2615  0.4592 -0.2879
 4051W        W 7570   7.596   8.706   0.016 -0.0878 -0.0241  0.1553
 4052W        W 7571   2.817   5.057   0.654  0.0563 -0.3009  0.0988
 4053W        W 7572   4.445   8.793  11.320  0.3604  0.1498  0.3632
 4054W        W 7573   7.705   2.197  12.261 -0.0617 -0.0802 -0.2988
 4055W        W 7574   2.019   2.017  11.178  0.1194  0.1285 -0.2196
 4056W        W 7575   3.507   3.847  11.906 -0.3775  0.0186 -0.0877
 4057W        W 7576   4.696   2.930   0.077 -0.0710 -0.7547  0.1184
 4058W        W 7577   6.207   0.897   3.225  0.2872  0.0259  0.0897
 4059W        W 7578   1.024   7.519  10.418 -0.0969  0.2477 -0.1980
 4060W        W 7579   8.855   8.251  11.316  0.4993 -0.1119  0.0315
 4061W        W 7580   9.624   8.013   0.265  0.0731 -0.2239 -0.1129
 4062W        W 7581   0.765   6.572   1.638  0.0713  0.2671  0.2909
 4063W        W 7582   3.142   2.751   1.657  0.1131  0.0879 -0.1769
 4064W        W 7583   8.134   2.027   0.969 -0.2829  0.0267  0.0515
 4065W        W 7584   0.105   0.104   1.792 -0.1244 -0.2250 -0.1388
 4066W        W 7585   8.843   0.658  12.262 -0.3389  0.3138 -0.0130
 4067W        W 7586   8.077   8.509   9.542 -0.1780  0.1520 -0.0291
 4068W        W 7587   9.469   2.587   2.873  0.0359 -0.1887 -0.1004
 4069W        W 7588   2.656   3.781   2.279  0.0658 -0.1569 -0.3435
 4070W        W 7589   6.026   8.383   9.738 -0.2530  0.0819  0.3671
 4071W        W 7590   1.032   9.006   2.710 -0.1027 -0.1311 -0.0510
 4072W        W 7591   4.132   8.901   3.085  0.2273 -0.4438  0.1101
 4073W        W 7592   5.271   6.688   0.133  0.0415 -0.2147  0.1555
 4074W        W 7593   1.286   1.363   0.438 -0.1371  0.2341  0.0570
 4075W        W 7594   3.256   4.994   2.845 -0.1729  0.2777  0.3562
 4076W        W 7595   4.953   7.490   0.414 -0.0615 -0.2181 -0.4976
 4077W        W 7596   4.178   4.167   1.105 -0.0811  0.0258  0.1753
 4078W        W 7597   0.465   3.465  10.510  0.0299 -0.0015  0.4066
 4079W        W 7598   3.290   0.029   9.737  0.1471  0.2992 -0.1953
 4080W        W 7599   0.727   6.045   9.934  0.1720  0.2636  0.2476
 4081W        W 7600   6.332   0.379  11.580  0.1088 -0.1595 -0.2691
 4082W        W 7601   7.122   3.583   8.811  0.1137 -0.1338  0.2381
 4083W        W 7602   2.468   1.613  10.059  0.0120 -0.1483  0.0415
 4084W        W 7603   8.265   7.916  10.321  0.2815 -0.1437  0.2458
 4085W        W 7604   0.672   0.559   2.515 -0.1769 -0.0071 -0.1791
 4086W        W 7605   3.422   2.808  11.463 -0.1965 -0.1886  0.0973
 4087W        W 7606   5.620   2.215   0.043 -0.0770 -0.0299 -0.0216
 4088W        W 7607   3.298   6.350  11.449  0.1666  0.0745 -0.0209
 4089W        W 7608   2.934   7.444   0.219 -0.0419 -0.0362  0.1343
 4090W        W 7609   1.288   9.655   1.888 -0.0336 -0.2170  0.1386
 4091W        W 7610   5.253   3.768   4.630  0.1797 -0.2145 -0.1813
 4092W        W 7611   2.498   9.047  12.044  0.2440 -0.0473  0.0573
 4093W        W 7612   0.219   2.724   2.521  0.2571 -0.1842 -0.1024
 4094W        W 7613   6.122   5.202   3.644  0.0466 -0.1885 -0.0388
 4095W        W 7614   1.097   4.808  11.231 -0.1245  0.0729 -0.0551
 4096W        W 7615   3.678   6.458   9.793  0.1305 -0.2368  0.0189
 4097W        W 7616   6.391   7.711  11.193 -0.0928  0.2679  0.3831
 4098W        W 7617   8.010   6.587   2.258 -0.1812 -0.3233  0.0078
 4099W        W 7618   0.023   7.645   9.302 -0.1624  0.0477  0.0422
 4100W        W 7619   3.509   2.357  10.099 -0.0630 -0.1248 -0.0979
 4101W        W 7620   2.635   7.478   2.449 -0.1088 -0.0415  0.1035
 4102W        W 7621   5.085   4.247   7.974  0.2490  0.1523 -0.2719
 4103W        W 7622   6.193   5.457   2.631  0.5393 -0.3075  0.1072
 4104W        W 7623   3.940   0.909  12.263  0.1787  0.2064 -0.2966
 4105W        W 7624   1.083   1.263  11.686  0.0569  0.2319 -0.0736
 4106W        W 7625   1.581   6.258   2.653 -0.0192  0.4207 -0.1344
 4107W        W 7626   7.335   4.771   9.616 -0.1419  0.0693  0.1244
 4108W        W 7627   4.096   4.506   0.196  0.1415 -0.1753  0.2800
 4109W        W 7628   4.219   5.368  12.211 -0.0307 -0.1498  0.0951
 4110W        W 7629   4.304   2.767  11.863  0.3552 -0.1315  0.1447
 4111W        W 7630   2.270   0.031  11.722  0.1284 -0.0439 -0.2380
 4112W        W 7631   5.981   0.285   8.720  0.1340  0.1042  0.0924
 4113W        W 7632   5.930   1.066   2.553 -0.1201  0.0972 -0.0471
 4114W        W 7633   0.159   9.559   2.277 -0.4042  0.2360 -0.1731
 4115W        W 7634   8.889   1.511   9.778 -0.2434 -0.2656 -0.3783
 4116W        W 7635   0.995   9.295   2.112 -0.1763  0.0927  0.0793
 4117W        W 7636   8.666   1.082   7.976 -0.0072  0.0498 -0.2135
 4118W        W 7637   6.388   3.591  12.044 -0.0711  0.1521 -0.2766
 4119W        W 7638   1.321   8.725   4.591 -0.0989 -0.0928  0.1834
 4120W        W 7639   8.182   5.619   2.105  0.4471 -0.2220 -0.0742
 4121W        W 7640   6.983   3.038   8.883  0.3144  0.1728  0.2434
 4122W        W 7641   6.272   8.534   3.334  0.1371  0.3286  0.1983
 4123W        W 7642   8.367   7.998   1.114  0.1384 -0.0373 -0.1089
 4124W        W 7643   5.897   3.846  11.930  0.0340  0.0089 -0.1725
 4125W        W 7644   6.673   0.970   3.650  0.0315  0.0798 -0.1654
 4126W        W 7645   2.188   9.252  12.410 -0.1416 -0.0860 -0.0335
 4127W        W 7646   6.903   1.223  11.809 -0.3683 -0.1385 -0.1050
 4128W        W 7647   4.115   0.354   9.497 -0.1137 -0.0028 -0.2032
 4129W        W 7648   3.187   8.321  10.833  0.0686 -0.2152  0.0378
 4130W        W 7649   6.683   6.636   1.273  0.1639 -0.1703  0.1974
 4131W        W 7650   5.068   2.973  12.202  0.0793 -0.2121 -0.1843
 4132W        W 7651   3.499   1.061   9.050  0.3411 -0.1407  0.1410
 4133W        W 7652   9.507   5.276   9.636  0.0397  0.0784 -0.1261
 4134W        W 7653   3.054   8.543   9.621 -0.0752 -0.1788 -0.1905
 4135W        W 7654   1.687   8.202   9.097 -0.2529 -0.0114 -0.0444
 4136W        W 7655   8.745   1.165   2.837  0.1415  0.0302 -0.3199
 4137W        W 7656   6.528   7.171  10.362  0.0390 -0.4365  0.1515
 4138W        W 7657   5.855   9.482   0.089 -0.1835 -0.1778  0.4486
 4139W        W 7658   4.130   5.603   0.925  0.0992  0.5925 -0.0123
 4140W        W 7659   1.867   8.684   2.939  0.1812  0.0192 -0.0269
 4141W        W 7660   2.195   2.647   0.503 -0.0098  0.5361  0.0190
 4142W        W 7661   8.492   4.493   0.086  0.1256 -0.0029  0.0150
 4143W        W 7662   0.500   1.331   9.384 -0.1712 -0.0908 -0.2176
 4144W        W 7663   4.881   4.098   8.439  0.2383 -0.0487 -0.2312
 4145W        W 7664   7.719   8.126   1.927 -0.0914 -0.3210 -0.0358
 4146W        W 7665   8.487   1.500   1.889  0.1437  0.0443 -0.3108
 4147W        W 7666   5.567   4.626   1.618 -0.0112 -0.3903  0.2666
 4148W        W 7667   8.681   6.534  10.535 -0.2750  0.2969 -0.2421
 4149W        W 7668   9.041   5.534   2.330 -0.3677 -0.0209  0.2158
 4150W        W 7669   4.314   1.565   8.886  0.3298  0.0139 -0.0435
 4151W        W 7670   8.710   1.442   9.309 -0.0383 -0.2964 -0.3294
 4152W        W 7671   9.224   1.024   4.025  0.1558  0.1005  0.1557
 4153W        W 7672   4.519   9.378   9.692 -0.2553  0.1376  0.1300
 4154W        W 7673   5.197   8.339   2.221 -0.3232 -0.1548 -0.2895
 4155W        W 7674   5.356   8.234   0.144 -0.0208  0.1916  0.1104
 4156W        W 7675   5.025   7.723   8.497  0.1649 -0.0476  0.0662
 4157W        W 7676   8.674   8.927   3.043  0.2715 -0.2079 -0.2397
 4158W        W 7677   8.812   1.997  10.458  0.0516  0.0642 -0.1253
 4159W        W 7678   7.486   9.450  10.437 -0.0036  0.1621  0.3191
 4160W        W 7679   0.003   9.546  10.181 -0.3201 -0.0397  0.1698
 4161W        W 7680   5.703   5.671   2.996 -0.3468 -0.0293 -0.0326
 4162W        W 7681   6.163   9.211   1.403 -0.0970  0.1584 -0.1918
 4163W        W 7682   5.659   9.552  10.196 -0.2058  0.0485 -0.0909
 4164W        W 7683   5.281   9.250   9.127 -0.0035 -0.0205  0.0845
 4165W        W 7684   8.319   8.857   4.014  0.1354 -0.0384 -0.0744
 4166W        W 7685   0.520   6.777   1.100 -0.2494 -0.1457 -0.4351
 4167W        W 7686   8.596   0.281   3.717 -0.1789 -0.2564 -0.0336
 4168W        W 7687   2.972   1.289  12.021  0.1576 -0.0926  0.0111
 4169W        W 7688   8.408   5.180   1.338 -0.2435  0.0138 -0.0463
 4170W        W 7689   6.401   1.599  12.255 -0.1157 -0.1665 -0.0667
 4171W        W 7690   6.424   7.625   1.361 -0.0015  0.2657  0.0268
 4172W        W 7691   1.419   7.409  10.130 -0.3269 -0.2875  0.0165
 4173W        W 7692   0.032   8.875   0.174 -0.0497 -0.1422 -0.0354
 4174W        W 7693   5.111   3.404  10.667  0.1992 -0.0722 -0.0812
 4175W        W 7694   6.763   8.476   2.958  0.0274  0.1470  0.1144
 4176W        W 7695   8.594   9.559   3.866 -0.0107 -0.3489 -0.1233
 4177W        W 7696   3.699   0.605  10.239  0.4075  0.0365 -0.0132
 4178W        W 7697   5.383   7.750   1.372  0.0294 -0.1242 -0.2222
 4179W        W 7698   7.251   2.906   0.635 -0.0688 -0.1576  0.2036
 4180W        W 7699   4.684   4.811   0.096  0.1936  0.0777  0.1895
 4181W        W 7700   5.588   3.729  10.713  0.1267 -0.0517  0.2216
 4182W        W 7701   1.130   1.527   3.377  0.1023 -0.1303  0.1547
 4183W        W 7702   6.917   5.020  12.294  0.4607  0.1147 -0.0891
 4184W        W 7703   7.566   7.562   1.147  0.0842  0.0115  0.0173
 4185W        W 7704   2.262   8.662   4.504  0.0659  0.3071  0.1487
 4186W        W 7705   1.392   3.602   9.055  0.3775  0.1822 -0.0823
 4187W        W 7706   2.831   5.115   2.680  0.2183  0.0703 -0.1293
 4188W        W 7707   3.830   9.417   1.356 -0.1529  0.1800 -0.2813
 4189W        W 7708   6.000   9.098   4.345  0.5323 -0.1680  0.0642
 4190W        W 7709   9.464   6.509  10.049  0.0954 -0.0904 -0.0208
 4191W        W 7710   7.524   1.688   2.592 -0.0132  0.1570  0.1095
 4192W        W 7711   1.089   4.918   3.920  0.0872  0.1460  0.0126
 4193W        W 7712   7.546   2.359   2.758 -0.0394 -0.2380 -0.3361
 4194W        W 7713   1.489   4.001   3.562 -0.2886  0.1928 -0.0567
 4195W        W 7714   3.645   8.532   3.822  0.0312  0.0564 -0.3498
 4196W        W 7715   5.129   8.793   9.309 -0.1577  0.1553 -0.3623
 4197W        W 7716   1.617   5.135   2.079  0.0115 -0.1193  0.1637
 4198W        W 7717   4.633   5.873   8.441 -0.0324 -0.2751  0.1375
 4199W        W 7718   1.780   3.033   1.375  0.1845  0.1160 -0.0298
 4200W        W 7719   8.260   3.634   0.220 -0.2256  0.0214  0.0764
 4201W        W 7720   1.745   9.200  11.113  0.0143 -0.0024  0.3752
 4202W        W 7721   4.575   2.259   3.785  0.1417 -0.0240 -0.2473
 4203W        W 7722   1.071   1.096  10.573  0.5183 -0.1489 -0.0460
 4204W        W 7723   5.100   2.517   9.524 -0.0410 -0.2408 -0.0022
 4205W        W 7724   4.241   6.883   0.141  0.0655 -0.0119 -0.1879
 4206W        W 7725   4.336   1.035   0.334 -0.3579 -0.0124  0.1226
 4207W        W 7726   1.516   8.111  12.062 -0.1675 -0.0451  0.0656
 4208W        W 7727   6.307   3.146   8.430  0.3146 -0.1331  0.0702
 4209W        W 7728   7.914   4.399  10.220 -0.0952 -0.2205  0.1178
 4210W        W 7729   0.204   0.541   2.739  0.2356 -0.1889 -0.0459
 4211W        W 7730   9.058   4.933   9.294 -0.3865 -0.1650 -0.2134
 4212W        W 7731   9.294   0.156   1.349  0.3364  0.1192 -0.0592
 4213W        W 7732   4.195   6.090   0.864  0.2193 -0.0425 -0.1091
 4214W        W 7733   0.342   2.591   9.065  0.2175  0.0535  0.1078
 4215W        W 7734   2.255   7.391   9.293  0.0738 -0.0568  0.0841
 4216W        W 7735   0.079   5.219   1.980  0.1949 -0.0700 -0.1483
 4217W        W 7736   7.288   1.308   7.786  0.0810  0.0215 -0.0659
 4218W        W 7737   1.586   2.786  10.919  0.5062  0.2239  0.2658
 4219W        W 7738   4.698   4.869   1.656  0.0023 -0.0810  0.0421
 4220W        W 7739   4.341   9.015  10.090 -0.0390  0.1474  0.0243
 4221W        W 7740   2.142   4.063  10.846 -0.0619  0.0971  0.2384
 4222W        W 7741   1.693   9.260   3.937 -0.0415  0.2858 -0.1954
 4223W        W 7742   5.563   3.097  11.951  0.3559  0.0479 -0.0684
 4224W        W 7743   4.336   3.798   3.063 -0.1297 -0.0398 -0.3114
 4225W        W 7744   2.676   6.907   0.921 -0.4950 -0.1540 -0.1686
 4226W        W 7745   2.254   7.470   2.839 -0.1402  0.1632  0.1152
 4227W        W 7746   4.169   3.823   9.263  0.0762 -0.0929 -0.1633
 4228W        W 7747   2.610   9.037   1.952 -0.3210 -0.1825  0.0548
 4229W        W 7748   5.817   3.366   2.384 -0.2881 -0.1831 -0.0915
 4230W        W 7749   4.561   1.540   1.494 -0.1236  0.1183 -0.2722
 4231W        W 7750   5.208   1.575   8.895  0.0273 -0.1027  0.3457
 4232W        W 7751   1.212   8.389  11.199  0.2233 -0.0738 -0.4251
 4233W        W 7752   1.369   4.351   0.822  0.3928 -0.1638  0.1120
 4234W        W 7753   7.691   7.611   4.172 -0.0727  0.0897  0.2767
 4235W        W 7754   9.356   2.806   2.411 -0.2042 -0.1750 -0.2587
 4236W        W 7755   8.685   8.677   3.615  0.1568  0.0542 -0.0624
 4237W        W 7756   4.101   7.889   0.906  0.0617 -0.2819  0.0914
 4238W        W 7757   3.837   0.214   0.929  0.1424 -0.1321 -0.2352
 4239W        W 7758   2.218   5.060   9.772 -0.0238  0.0802 -0.2829
 4240W        W 7759   5.134   5.871   3.101  0.1795 -0.3203  0.0262
 4241W        W 7760   7.115   3.916   3.924  0.2809  0.2841  0.1381
 4242W        W 7761   9.047   4.385   1.307  0.2192 -0.0252  0.1033
 4243W        W 7762   8.220   7.466   4.068 -0.3039  0.1729 -0.0354
 4244W        W 7763   2.878   1.489   9.707 -0.0439 -0.1034 -0.0068
 4245W        W 7764   3.697   1.200  11.476  0.0755  0.1523  0.1480
 4246W        W 7765   6.009   3.376  11.805  0.1890 -0.1835  0.0818
 4247W        W 7766   2.426   6.059   9.899 -0.0168 -0.0894 -0.1360
 4248W        W 7767   3.839   8.462   0.429  0.1629 -0.0486 -0.1662
 4249W        W 7768   9.056   2.403   3.597 -0.1025 -0.0602 -0.4279
 4250W        W 7769   6.912   4.145   4.785 -0.1045 -0.0139 -0.0300
 4251W        W 7770   6.006   4.835   1.623 -0.0720 -0.2224  0.4726
 4252W        W 7771   4.540   5.531   2.607  0.2288  0.1314  0.0143
 4253W        W 7772   5.115   6.712   3.774  0.1588  0.1062  0.0729
 4254W        W 7773   4.918   8.419   0.952 -0.1016 -0.0994  0.0856
 4255W        W 7774   2.452   3.621   1.836  0.2865  0.1721  0.1583
 4256W        W 7775   9.332   4.367  12.142 -0.0143  0.1289  0.0622
 4257W        W 7776   0.595   6.702  10.557  0.1421 -0.1319 -0.2556
 4258W        W 7777   5.633   1.628  11.888  0.0673  0.1737 -0.2895
 4259W        W 7778   4.624   1.503  11.059 -0.1500  0.1520 -0.2900
 4260W        W 7779   9.223   3.388   2.422 -0.0825  0.1758 -0.1679
 4261W        W 7780   1.334   7.334   9.469  0.1527  0.1589  0.2308
 4262W        W 7781   0.433   0.087   2.689  0.0476  0.1510 -0.1864
 4263W        W 7782   7.792   8.619  10.576  0.6442 -0.2471 -0.0610
 4264W        W 7783   7.902   0.073   0.920  0.2647 -0.2035  0.1952
 4265W        W 7784   5.872   2.600  10.107 -0.1506  0.2180 -0.2633
 4266W        W 7785   5.900   5.983   1.556 -0.1333  0.0412  0.0847
 4267W        W 7786   8.793   7.931   9.059 -0.0219  0.0485  0.0992
 4268W        W 7787   7.605   5.199   1.759  0.0331 -0.3359  0.0081
 4269W        W 7788   5.173   9.604   3.679  0.2267 -0.2485  0.2493
 4270W        W 7789   8.577   5.511   9.957  0.1552  0.2004 -0.1631
 4271W        W 7790   0.729   3.706   0.139  0.0548  0.0751 -0.0537
 4272W        W 7791   3.817   3.114   0.264  0.0949  0.3980 -0.0876
 4273W        W 7792   7.570   8.946   1.709 -0.0798 -0.2048  0.0845
 4274W        W 7793   0.109   0.422   8.595 -0.1493  0.1083  0.0297
 4275W        W 7794   1.905   0.829   1.269 -0.1791 -0.0124  0.0487
 4276W        W 7795   3.809   8.490  11.753 -0.0157  0.2598 -0.1858
 4277W        W 7796   3.695   8.412   1.771 -0.2805  0.1356  0.3518
 4278W        W 7797   9.440   5.191  11.028 -0.0148 -0.3310 -0.0051
 4279W        W 7798   5.482   0.873   9.429  0.0536 -0.1748 -0.1996
 4280W        W 7799   1.862   1.434   4.106  0.1471  0.0349 -0.2295
 4281W        W 7800   8.525   8.640   9.952  0.1412 -0.0692  0.0008
 4282W        W 7801   7.863   7.109  10.285  0.0631 -0.5376 -0.0639
 4283W        W 7802   8.855   7.794   1.262  0.1143 -0.2267  0.5115
 4284W        W 7803   6.981   1.193  11.272  0.4001  0.3985  0.0955
 4285W        W 7804   5.839   5.142  10.754  0.0661  0.1778 -0.2673
 4286W        W 7805   7.752   3.895  10.348  0.3143  0.0281 -0.0787
 4287W        W 7806   2.590   7.054  11.834 -0.1489 -0.0770  0.1743
 4288W        W 7807   4.698   6.236  11.054  0.2131  0.0594  0.0666
 4289W        W 7808   1.896   0.778  10.462 -0.0662  0.0664  0.2082
 4290W        W 7809   4.247   5.739   3.895 -0.0815  0.0684 -0.1120
 4291W        W 7810   3.473   9.299   4.434 -0.0375 -0.1990  0.1959
 4292W        W 7811   1.611   2.700   3.329 -0.2049 -0.0908 -0.3368
 4293W        W 7812   7.547   7.622   0.635 -0.2029 -0.0089 -0.1254
 4294W        W 7813   3.899   4.896  10.550 -0.1319 -0.1223  0.2200
 4295W        W 7814   0.768   7.776   3.585 -0.1005 -0.1902  0.1468
 4296W        W 7815   0.332   7.099  10.267  0.1840  0.4414 -0.0164
 4297W        W 7816   6.170   2.469  11.963 -0.3066 -0.0169 -0.3950
 4298W        W 7817   2.593   3.624   2.768  0.0114  0.0415  0.1452
 4299W        W 7818   3.050   4.973   9.218 -0.1492  0.0248  0.0550
 4300W        W 7819   0.883   1.382   1.869 -0.0170  0.0933  0.0398
 4301W        W 7820   7.729   2.030   2.276 -0.0363  0.0277 -0.2008
 4302W        W 7821   7.977   5.930   2.453 -0.0810 -0.0464  0.2645
 4303W        W 7822   6.131   4.419  11.048 -0.0413  0.3350 -0.1433
 4304W        W 7823   0.121   8.476  10.302  0.3092 -0.1470 -0.1125
 4305W        W 7824   6.794   5.723   1.107  0.0262 -0.0421  0.0281
 4306W        W 7825   2.363   9.424  11.023 -0.3333  0.0369  0.2640
 4307W        W 7826   1.092   1.814  12.218 -0.2367 -0.0108 -0.0854
 4308W        W 7827   8.123   2.833   3.049  0.0141 -0.0450  0.1030
 4309W        W 7828   4.776   4.375  10.437 -0.1672 -0.1218  0.2854
 4310W        W 7829   2.664   0.202   8.827  0.1509 -0.1401  0.1019
 4311W        W 7830   1.938   7.743  12.118  0.0487 -0.1781 -0.1529
 4312W        W 7831   1.650   6.523  10.999  0.2222  0.0386 -0.0465
 4313W        W 7832   5.025   8.669   2.705 -0.1526 -0.4430 -0.1141
 4314W        W 7833   3.703   8.438   8.988  0.0718 -0.1122 -0.1068
 4315W        W 7834   7.093   9.416   8.186 -0.2399 -0.0721 -0.0805
 4316W        W 7835   4.650   7.075   1.711 -0.3893  0.0521  0.1007
 4317W        W 7836   2.938   5.015   1.316  0.4876 -0.1256 -0.1024
 4318W        W 7837   0.045   8.919   0.693 -0.2810 -0.2107  0.0783
 4319W        W 7838   5.839   0.730   1.495 -0.0477 -0.1238  0.1322
 4320W        W 7839   7.957   7.881   9.146 -0.0791  0.2173 -0.0271
 4321W        W 7840   9.367   0.809   3.618 -0.0751  0.1904 -0.1168
 4322W        W 7841   2.885   0.945   1.239 -0.2072  0.0412  0.2853
 4323W        W 7842   9.525   4.209  10.195 -0.0651  0.0665 -0.1569
 4324W        W 7843   7.662   6.414   8.975 -0.2936 -0.1394  0.0541
 4325W        W 7844   9.230   1.408   3.616  0.4408 -0.1994  0.1225
 4326W        W 7845   5.945   1.695   7.909  0.0435 -0.1972 -0.1531
 4327W        W 7846   3.784   7.755   0.489  0.1925 -0.3713  0.0089
 4328W        W 7847   0.504   3.973   9.342  0.0188  0.2469 -0.0974
 4329W        W 7848   5.941   8.374   4.864 -0.1072  0.0947  0.0166
 4330W        W 7849   2.911   7.632   1.128 -0.0534 -0.0029 -0.2955
 4331W        W 7850   1.402   6.137   3.512 -0.0747 -0.4113  0.2029
 4332W        W 7851   5.574   4.238  10.783 -0.0668 -0.0454  0.1144
 4333W        W 7852   8.927   5.243   9.699  0.1112  0.2062  0.6610
 4334W        W 7853   7.551   3.382  10.863  0.2225 -0.1466 -0.1625
 4335W        W 7854   9.056   6.035  11.576 -0.1074 -0.1499 -0.0209
 4336W        W 7855   4.324   5.116   1.302  0.2194  0.1363  0.1138
 4337W        W 7856   2.526   8.072   9.011  0.1424 -0.0480  0.0990
 4338W        W 7857   7.042   2.179   1.965  0.0233  0.1345 -0.1713
 4339W        W 7858   2.365   2.868   1.947 -0.0582  0.2469 -0.0418
 4340W        W 7859   7.949   1.403   2.368 -0.0359 -0.0903 -0.2550
 4341W        W 7860   6.422   1.292   9.520 -0.0763 -0.4478 -0.0066
 4342W        W 7861   5.807   8.398   1.084  0.1637  0.0006 -0.1640
 4343W        W 7862   1.561   7.018   3.138 -0.2397 -0.0634  0.1772
 4344W        W 7863   0.471   1.118   8.429 -0.1302 -0.2601  0.1477
 4345W        W 7864   4.280   1.339   2.414  0.1181  0.1158  0.0466
 4346W        W 7865   5.283   0.663   0.057  0.0370  0.0935  0.0681
 4347W        W 7866   1.015   7.014  11.698  0.2940  0.0492  0.0376
 4348W        W 7867   8.670   2.131   3.367 -0.0932  0.2663 -0.0845
 4349W        W 7868   2.937   7.086  12.361  0.0331 -0.2306  0.0287
 4350W        W 7869   2.029   5.487   2.064  0.0750  0.4619  0.2313
 4351W        W 7870   6.322   8.810  10.624 -0.0498  0.0548  0.0062
 4352W        W 7871   8.455   2.106   4.274  0.3795  0.2835 -0.0962
 4353W        W 7872   6.140   1.237   3.681 -0.1817 -0.1340 -0.0334
 4354W        W 7873   8.145   0.601   2.259 -0.0318  0.2233 -0.1156
 4355W        W 7874   7.533   3.568   9.899 -0.1742 -0.1449  0.2850
 4356W        W 7875   8.839   1.362   8.809  0.0582 -0.0089  0.0986
 4357W        W 7876   0.160   8.128   2.324 -0.4356 -0.0522 -0.2690
 4358W        W 7877   2.035   7.304   3.323 -0.2264  0.0220  0.0425
 4359W        W 7878   9.591   9.353  10.768 -0.2232  0.1838  0.2784
 4360W        W 7879   8.975   8.669   2.678  0.1195  0.0399  0.4924
 4361W        W 7880   2.428   6.108  10.472  0.1633 -0.2288  0.2450
 4362W        W 7881   9.503   4.525   0.630  0.4028  0.1300 -0.3690
 4363W        W 7882   0.947   1.055   3.350 -0.1194 -0.2535  0.1783
 4364W        W 7883   7.671   6.447  10.849 -0.1344  0.1649 -0.0713
 4365W        W 7884   6.217   9.304  12.295  0.0205  0.0124 -0.1255
 4366W        W 7885   7.255   4.885   0.559 -0.0541 -0.4074 -0.1016
 4367W        W 7886   8.753   5.693  11.838  0.0098  0.3527 -0.0191
 4368W        W 7887   0.701   8.725   3.816 -0.0296 -0.0109 -0.2234
 4369W        W 7888   6.903   8.302   0.844 -0.3150 -0.0379  0.2569
 4370W        W 7889   4.520   0.353   8.627  0.0762 -0.0638  0.0208
 4371W        W 7890   3.807   6.023   0.050  0.1770  0.0046  0.3067
 4372W        W 7891   9.141   1.124   2.490 -0.1812 -0.1515 -0.4756
 4373W        W 7892   2.253   9.351   1.588  0.1496 -0.0210 -0.0235
 4374W        W 7893   8.501   2.419   3.791  0.0807  0.1332  0.0514
 4375W        W 7894   8.833   6.124  10.056 -0.0807  0.2967  0.0261
 4376W        W 7895   1.259   9.662   9.192  0.2577  0.2978  0.1933
 4377W        W 7896   0.960   6.419  11.273 -0.0127  0.2026 -0.0884
 4378W        W 7897   7.413   0.134   0.151  0.1216  0.0857 -0.0183
 4379W        W 7898   2.223   0.917   9.478  0.3065  0.0714 -0.1257
 4380W        W 7899   6.090   4.453   9.643  0.0660  0.2438 -0.1241
 4381W        W 7900   4.470   9.219   0.875 -0.1240 -0.0418 -0.1535
 4382W        W 7901   3.520   9.524   0.937  0.0986  0.3559 -0.1752
 4383W        W 7902   9.019   6.398   0.616  0.2957 -0.3500  0.1504
 4384W        W 7903   4.691   3.925  11.132  0.2374 -0.0221  0.1024
 4385W        W 7904   7.282   7.764   2.666 -0.0453 -0.3063  0.0210
 4386W        W 7905   0.215   6.195   2.275  0.0243  0.0014 -0.1163
 4387W        W 7906   4.950   6.816  12.188  0.3305 -0.0110 -0.0195
 4388W        W 7907   6.100   5.866   3.345 -0.1736 -0.0292 -0.0256
 4389W        W 7908   9.631   7.415  12.108 -0.1591 -0.1529 -0.3453
 4390W        W 7909   0.139   6.491  12.229 -0.0506  0.0495 -0.1624
 4391W        W 7910   5.610   3.180  11.463  0.0346 -0.1961  0.1309
 4392W        W 7911   9.550   6.578   0.150 -0.0221 -0.0915 -0.0987
 4393W        W 7912   6.178   7.211   0.509  0.1496 -0.1240 -0.2927
 4394W        W 7913   3.288   6.144   1.981  0.0744 -0.0763 -0.2486
 4395W        W 7914   0.012   6.805   1.053  0.3276 -0.2765 -0.0602
 4396W        W 7915   8.658   8.668   9.474 -0.0905  0.2269 -0.1121
 4397W        W 7916   5.032   0.935   1.993  0.0735  0.2671 -0.1036
 4398W        W 7917   0.181   8.791   3.704 -0.0988 -0.1250  0.1982
 4399W        W 7918   6.366   1.545   9.109  0.1394 -0.2544 -0.0065
 4400W        W 7919   8.543   8.396   4.014  0.1109 -0.1412  0.0184
 4401W        W 7920   8.140   3.174   3.431 -0.3071  0.2048 -0.0719
 4402W        W 7921   3.662   7.993   3.965 -0.3390 -0.0612 -0.1711
 4403W        W 7922   3.245   3.840   2.205 -0.2898 -0.0447  0.1174
 4404W        W 7923   0.118   2.440   9.542  0.4084 -0.1205 -0.0680
 4405W        W 7924   5.585   8.026   2.345 -0.0884 -0.2280  0.4244
 4406W        W 7925   4.725   3.641   9.200 -0.5040 -0.2322 -0.2132
 4407W        W 7926   4.200   2.189  10.648  0.0740 -0.3012  0.0902
 4408W        W 7927   0.451   1.740   0.277 -0.0573 -0.0327  0.2227
 4409W        W 7928   6.219   2.911   8.867  0.1436  0.0168 -0.1447
 4410W        W 7929   3.141   5.880   0.755 -0.0590 -0.1117 -0.4065
 4411W        W 7930   5.397   7.742   9.366  0.1475 -0.1140 -0.0800
 4412W        W 7931   9.443   5.203   0.977  0.1680 -0.0631  0.2315
 4413W        W 7932   4.314   2.215   2.069 -0.0883  0.0857  0.4001
 4414W        W 7933   2.144   8.459   0.767  0.0721  0.3566 -0.0124
 4415W        W 7934   5.520   4.514  12.281  0.2119 -0.3923 -0.0819
 4416W        W 7935   2.471   2.350   1.702 -0.3132 -0.1246 -0.1081
 4417W        W 7936   8.087   2.042   8.682 -0.1078 -0.1472  0.2201
 4418W        W 7937   1.024   8.129   3.247  0.1304 -0.1429 -0.0368
 4419W        W 7938   3.726   3.678  10.112 -0.3625  0.0718 -0.1645
 4420W        W 7939   3.883   6.371   1.868  0.0220 -0.0043  0.4223
 4421W        W 7940   5.907   7.750  12.043 -0.2873  0.0229  0.0487
 4422W        W 7941   4.793   2.633  11.726  0.1160  0.1082 -0.3113
 4423W        W 7942   1.331   0.110  10.275 -0.2422 -0.1470 -0.2000
 4424W        W 7943   4.130   7.074   1.558 -0.2945 -0.2691 -0.0383
 4425W        W 7944   3.043   1.566   2.390  0.1309 -0.0495  0.0071
 4426W        W 7945   0.841   2.815  11.961 -0.0065  0.1152 -0.0912
 4427W        W 7946   6.700   0.799   8.627 -0.0036  0.1591  0.0690
 4428W        W 7947   0.222   6.416   3.800 -0.1622  0.2809  0.1076
 4429W        W 7948   8.003   3.273   2.917 -0.0962  0.0256  0.2648
 4430W        W 7949   1.580   8.762   3.698  0.1256  0.0869 -0.1071
 4431W        W 7950   6.584   2.597   9.608 -0.0258  0.0998  0.1226
 4432W        W 7951   0.215   9.402   0.495  0.3556  0.0611  0.1651
 4433W        W 7952   1.895   4.104   9.572  0.1630  0.0094  0.1010
 4434W        W 7953   8.848   8.843   4.151  0.0375  0.2574  0.2351
 4435W        W 7954   4.581   3.061  10.512  0.2210 -0.2102 -0.1312
 4436W        W 7955   7.442   3.294  11.976  0.0671  0.2149 -0.1396
 4437W        W 7956   8.018   5.999   0.776  0.0228  0.1700 -0.1626
 4438W        W 7957   6.022   3.969  10.981 -0.1270 -0.2370  0.1574
 4439W        W 7958   4.316   3.813   0.713 -0.0568 -0.0165  0.0732
 4440W        W 7959   2.252   8.256   9.420  0.0330 -0.1184  0.1670
 4441W        W 7960   6.496   2.698  10.922  0.5714 -0.0647 -0.3415
 4442W        W 7961   6.038   8.892   3.672 -0.2768  0.4318  0.1390
 4443W        W 7962   3.280   5.370   2.380 -0.1920  0.0886 -0.2030
 4444W        W 7963   0.938   5.670  11.549 -0.1807  0.1773  0.0259
 4445W        W 7964   2.916   7.743   9.219  0.1795 -0.2334  0.3224
 4446W        W 7965   8.444   3.293  12.397 -0.0681  0.3594 -0.1817
 4447W        W 7966   4.815   4.686  10.043 -0.1338  0.1919  0.2649
 4448W        W 7967   7.286   6.911   3.667 -0.2655  0.1293 -0.1090
 4449W        W 7968   9.323   9.681   4.140  0.1271 -0.3476  0.0541
 4450W        W 7969   8.472   1.549   2.508 -0.2843 -0.0631 -0.3026
 4451W        W 7970   7.695   7.272   1.519  0.0032 -0.1457  0.2230
 4452W        W 7971   6.929   2.763   2.205  0.1052 -0.0874 -0.0983
 4453W        W 7972   7.153   6.347   1.736  0.0439  0.1147  0.1221
 4454W        W 7973   8.862   2.086   9.634  0.0160  0.0095  0.2560
 4455W        W 7974   6.193   0.361   9.295 -0.1751  0.2814  0.1071
 4456W        W 7975   6.135   5.399   3.161  0.3530  0.4084  0.1431
 4457W        W 7976   5.491   6.867   1.093  0.2322 -0.2126  0.1417
 4458W        W 7977   5.551   4.209   2.198 -0.3950  0.0739  0.0173
 4459W        W 7978   7.379   1.951   1.010  0.2717  0.0135 -0.0212
 4460W        W 7979   2.613   8.304   8.066 -0.0597  0.1707  0.2538
 4461W        W 7980   2.394   3.934   3.624 -0.1278  0.0649  0.1378
 4462W        W 7981   0.732   4.987   0.570 -0.1150  0.0208 -0.2216
 4463W        W 7982   9.216   0.114  11.463 -0.2039  0.0452 -0.1616
 4464W        W 7983   7.940   5.073  10.974 -0.1395  0.0560 -0.0465
 4465W        W 7984   4.760   0.849   0.188  0.0216 -0.1703  0.2581
 4466W        W 7985   5.633   8.151   1.558  0.0060 -0.0491 -0.0907
 4467W        W 7986   8.903   0.589   9.408  0.2334  0.1704 -0.3553
 4468W        W 7987   9.164   8.127   4.799  0.0628  0.1138 -0.0585
 4469W        W 7988   5.500   2.666  12.209 -0.1319  0.2363 -0.1411
 4470W        W 7989   3.061   3.513  11.555 -0.0708 -0.0956  0.2211
 4471W        W 7990   7.907   7.763   0.294 -0.1763 -0.3227  0.1771
 4472W        W 7991   2.288   4.170  11.552 -0.0322  0.1810  0.2490
 4473W        W 7992   9.268   8.905  10.042 -0.3250 -0.1821 -0.1569
 4474W        W 7993   2.461   6.874  11.155  0.0549  0.2721  0.0016
 4475W        W 7994   1.184   5.077  12.302  0.0507 -0.1524  0.2402
 4476W        W 7995   0.944   1.659   4.662  0.2372 -0.0660  0.0406
 4477W        W 7996   2.866   7.819   0.646 -0.0075 -0.2558 -0.3898
 4478W        W 7997   6.480   4.332   4.266 -0.1084  0.1015 -0.4120
 4479W        W 7998   9.082   5.625  10.067  0.1351 -0.0526 -0.0168
 4480W        W 7999   6.293   1.052  10.296 -0.1340  0.2875  0.0541
 4481W        W 8000   7.275   7.145   1.267 -0.3949  0.3718  0.0927
 4482W        W 8001   6.975   1.512   2.645 -0.0869  0.0278 -0.0672
 4483W        W 8002   2.021   0.178   0.599  0.0557 -0.1696  0.3730
 4484W        W 8003   5.006   5.203   0.071 -0.2046  0.2594 -0.3252
 4485W        W 8004   5.707   3.787   1.323 -0.0200 -0.0446  0.2108
 4486W        W 8005   1.330   1.629  10.557 -0.0010  0.1790  0.3466
 4487W        W 8006   5.527   3.494   3.200  0.1555  0.1330 -0.0244
 4488W        W 8007   8.393   0.894   1.156 -0.1014  0.0425  0.0906
 4489W        W 8008   3.410   3.803   9.409 -0.0115 -0.1415 -0.0357
 4490W        W 8009   1.319   9.373   0.315  0.1750  0.1131 -0.0229
 4491W        W 8010   3.385   7.945   8.917  0.3429  0.0323 -0.1729
 4492W        W 8011   5.393   0.426   3.799  0.2418 -0.3777 -0.1810
 4493W        W 8012   4.319   3.477   1.813 -0.3263  0.3433  0.1295
 4494W        W 8013   8.526   7.406   3.230  0.2239  0.1552 -0.0527
 4495W        W 8014   2.522   3.696  11.521 -0.2950  0.0772 -0.0143
 4496W        W 8015   8.979   2.434  10.856 -0.0661  0.1000  0.0811
 4497W        W 8016   0.321   3.906  11.922 -0.2914  0.0952 -0.0847
 4498W        W 8017   7.766   8.764   1.319 -0.2390  0.0440  0.1131
 4499W        W 8018   9.144   5.995   0.501  0.2326  0.1637  0.2033
 4500W        W 8019   7.888   0.382   1.927  0.0917  0.2965 -0.1424
 4501W        W 8020   3.167   6.354   3.706  0.1629  0.0685 -0.3333
 4502W        W 8021   5.399   6.143   1.678 -0.0239  0.1223  0.0446
 4503W        W 8022   4.711   7.372   9.539  0.0744 -0.0130  0.0103
 4504W        W 8023   7.329   6.471  10.313  0.0855  0.1394  0.1629
 4505W        W 8024   7.768   5.274  10.246  0.0765  0.1842  0.0022
 4506W        W 8025   7.306   6.704  11.503  0.1485  0.3586 -0.4119
 4507W        W 8026   4.053   5.637   1.421  0.0482  0.1151 -0.0551
 4508W        W 8027   8.291   0.418   1.139  0.1261 -0.1008 -0.1621
 4509W        W 8028   6.169   7.879  10.770 -0.2908  0.2165 -0.1693
 4510W        W 8029   8.292   3.058  10.292 -0.1710  0.2405  0.1497
 4511W        W 8030   2.677   9.020   8.624 -0.3519 -0.0632  0.2169
 4512W        W 8031   0.045   2.942   8.351 -0.0435 -0.2719 -0.1048
 4513W        W 8032   8.436   5.481   3.274 -0.1497 -0.5270 -0.2333
 4514W        W 8033   0.972   6.877   9.478 -0.1370 -0.0572 -0.1975
 4515W        W 8034   1.786   1.733   9.019 -0.1690  0.2063  0.1371
 4516W        W 8035   4.841   7.931   0.860 -0.0001  0.2415  0.1396
 4517W        W 8036   4.332   1.473   9.397  0.0808 -0.0046 -0.0585
 4518W        W 8037   6.787   1.763   3.122  0.0188 -0.0906  0.0476
 4519W        W 8038   0.335   2.222  10.190 -0.4360 -0.0571 -0.0519
 4520W        W 8039   0.199   8.294   1.251 -0.2386  0.0376  0.1800
 4521W        W 8040   0.730   2.935   8.914 -0.2557  0.0215 -0.0465
 4522W        W 8041   0.107   1.491   2.435 -0.2671  0.2617  0.2613
 4523W        W 8042   3.998   1.705  10.389  0.3770  0.3122  0.1102
 4524W        W 8043   9.516   7.637   9.770  0.0270  0.0194  0.4023
 4525W        W 8044   0.627   5.203   2.003 -0.0603 -0.1548 -0.0556
 4526W        W 8045   5.582   1.355   0.694  0.2485  0.0819 -0.1198
 4527W        W 8046   6.024   6.537   2.731  0.0729 -0.0559  0.2547
 4528W        W 8047   7.021   4.466   9.277  0.0352 -0.0279  0.1010
 4529W        W 8048   0.693   5.202  11.543 -0.2338  0.1200 -0.4230
 4530W        W 8049   2.730   8.439   1.810  0.1122 -0.1845 -0.1989
 4531W        W 8050   4.749   9.724   0.427  0.0406  0.0693 -0.2461
 4532W        W 8051   4.798   5.742   4.652 -0.0339  0.1533  0.1503
 4533W        W 8052   4.016   9.480   0.898 -0.0347  0.1546 -0.0057
 4534W        W 8053   0.180   6.150   9.288  0.1951  0.1485  0.1152
 4535W        W 8054   6.389   2.192   3.504  0.3338 -0.0251  0.0417
 4536W        W 8055   4.882   7.887   0.103 -0.3473 -0.0191  0.2628
 4537W        W 8056   9.530   0.590   8.954  0.1758  0.0099  0.1503
 4538W        W 8057   0.439   1.823   2.166  0.1694  0.1397 -0.2847
 4539W        W 8058   7.686   8.685   0.467 -0.5082 -0.2421 -0.1171
 4540W        W 8059   7.430   8.248   2.350  0.2110 -0.0179 -0.2555
 4541W        W 8060   3.981   7.842  10.915 -0.2547  0.3756 -0.0285
 4542W        W 8061   2.191   2.698   1.437  0.0490  0.2540  0.1522
 4543W        W 8062   1.447   9.388   3.454 -0.0265 -0.1103 -0.2387
 4544W        W 8063   1.806   0.739   9.183 -0.0176 -0.2726 -0.1540
 4545W        W 8064   5.727   2.810   8.762 -0.1522  0.2688 -0.0849
 4546W        W 8065   3.845   9.505   9.113  0.0143  0.1202  0.1947
 4547W        W 8066   0.133   3.493  11.714  0.1046 -0.0540 -0.1415
 4548W        W 8067   4.943   7.326  12.210  0.0773  0.0707  0.1447
 4549W        W 8068   2.932   0.206   2.475  0.0374  0.0582 -0.0565
 4550W        W 8069   8.379   9.689   1.764  0.0166 -0.3474  0.1077
 4551W        W 8070   8.964   7.315   0.985  0.1000  0.2767  0.0354
 4552W        W 8071   0.038   7.686   1.025 -0.0704 -0.0464  0.0498
 4553W        W 8072   0.037   1.296  11.973 -0.0444  0.0748 -0.1816
 4554W        W 8073   0.257   4.430  11.624  0.0617  0.0892  0.2665
 4555W        W 8074   6.981   2.247   8.072 -0.0323 -0.1530  0.0640
 4556W        W 8075   4.557   1.695  12.146  0.0821 -0.1324  0.2272
 4557W        W 8076   0.069   3.415  10.151 -0.0352 -0.4444 -0.1872
 4558W        W 8077   6.342   7.088   3.409 -0.2863  0.1877  0.0722
 4559W        W 8078   6.546   7.632   3.234 -0.1852  0.0588  0.1649
 4560W        W 8079   6.602   4.646   9.502 -0.0110  0.0129 -0.1545
 4561W        W 8080   3.010   1.542  10.282  0.3079 -0.0597 -0.1033
 4562W        W 8081   0.680   8.375  10.184 -0.1661 -0.1750  0.2662
 4563W        W 8082   1.621   3.810   9.831 -0.0027 -0.1267  0.0693
 4564W        W 8083   5.292   4.989   1.877 -0.1790  0.1776 -0.2792
 4565W        W 8084   5.805   4.130   3.185  0.0089 -0.1639  0.1835
 4566W        W 8085   9.458   4.698   1.202  0.2431  0.1343 -0.1619
 4567W        W 8086   7.592   1.827   4.058 -0.0054 -0.0735  0.0683
 4568W        W 8087   2.950   0.709   1.753  0.2476 -0.0000 -0.1827
 4569W        W 8088   2.276   3.091  12.372 -0.3621  0.1081  0.1430
 4570W        W 8089   1.643   1.748   3.340  0.0627  0.0271  0.0642
 4571W        W 8090   8.626   8.431   1.091 -0.0837 -0.0116 -0.1133
 4572W        W 8091   1.111   8.940   9.182 -0.0400  0.0572 -0.0429
 4573W        W 8092   5.915   6.767   1.407 -0.2747 -0.0607 -0.1808
 4574W        W 8093   0.187   3.920   4.065 -0.1875 -0.0834  0.1485
 4575W        W 8094   4.260   8.740   4.268  0.1374  0.4208 -0.2618
 4576W        W 8095   4.405   3.411   9.492 -0.1422  0.0219 -0.1036
 4577W        W 8096   1.308   4.751   2.077  0.2598 -0.3067  0.1041
 4578W        W 8097   6.850   4.551   3.262  0.0705 -0.2369 -0.1712
 4579W        W 8098   6.246   6.007  11.905 -0.1381  0.0508  0.0602
 4580W        W 8099   3.571   5.980   3.614 -0.1656 -0.1512  0.1791
 4581W        W 8100   5.427   1.857   0.861 -0.0690 -0.0750  0.1816
 4582W        W 8101   7.371   6.789  12.019 -0.1539 -0.4108  0.2298
 4583W        W 8102   6.795   5.845  10.054 -0.2139  0.0841 -0.0637
 4584W        W 8103   4.252   1.950   0.679  0.3652  0.1655  0.0727
 4585W        W 8104   5.919   4.364  12.044  0.0359  0.2622  0.0433
 4586W        W 8105   5.162   0.949  10.455 -0.0719 -0.1344 -0.1599
 4587W        W 8106   4.179   6.570  11.137 -0.4095 -0.1629  0.1601
 4588W        W 8107   2.672   8.947   9.940 -0.1162 -0.0159  0.0172
 4589W        W 8108   2.879   3.135   3.531  0.2720  0.2083 -0.0133
 4590W        W 8109   0.595   4.597   0.300  0.4130  0.2348  0.1625
 4591W        W 8110   1.085   2.468  10.185  0.1417  0.0276  0.2677
 4592W        W 8111   9.039   9.307   3.962  0.1264 -0.1903  0.2225
 4593W        W 8112   5.349   8.388  10.702  0.2331 -0.1170 -0.0507
 4594W        W 8113   2.791   4.314   1.859 -0.0501 -0.2027 -0.6635
 4595W        W 8114   0.765   0.738   3.013  0.0127  0.1132 -0.0933
 4596W        W 8115   4.745   5.401   3.895  0.0147  0.1447  0.2540
 4597W        W 8116   0.033   4.266  10.684 -0.2245  0.2211 -0.0135
 4598W        W 8117   8.635   4.096  11.465 -0.2585 -0.3271 -0.1990
 4599W        W 8118   3.426   6.934  11.349 -0.1433  0.1959  0.1176
 4600W        W 8119   7.130   0.258  10.763 -0.0779 -0.1825  0.0357
 4601W        W 8120   2.920   2.902   9.569  0.5404  0.0958 -0.3232
 4602W        W 8121   2.628   2.641  12.255  0.1595  0.3091  0.1584
 4603W        W 8122   4.467   2.432   2.822  0.0617 -0.0134 -0.0419
 4604W        W 8123   0.670   7.183  10.736  0.2614 -0.1387  0.0337
 4605W        W 8124   1.223   2.189   8.630 -0.0551  0.1659 -0.2102
 4606W        W 8125   6.778   9.686  11.082 -0.0011  0.5163  0.3056
 4607W        W 8126   3.611   8.808   0.088 -0.0599 -0.1706  0.2363
 4608W        W 8127   8.518   8.125   0.256 -0.1667  0.1149  0.1442
 4609W        W 8128   2.435   3.640   0.755 -0.0014 -0.1549  0.2412
 4610W        W 8129   6.401   4.340   7.996 -0.3568  0.0767  0.0397
 4611W        W 8130   2.152   8.678  11.767  0.0369  0.0988 -0.1607
 4612W        W 8131   6.265   1.897   9.645  0.0234  0.1137 -0.0026
 4613W        W 8132   8.464   6.997   4.061  0.1075 -0.1171 -0.0668
 4614W        W 8133   1.983   5.299   1.032 -0.3472 -0.6143 -0.1198
 4615W        W 8134   8.905   3.874   9.534  0.0272  0.0956  0.4802
 4616W        W 8135   3.641   9.306  11.157  0.0418 -0.0439  0.2389
 4617W        W 8136   8.282   5.093   0.108 -0.0967 -0.2476  0.1003
 4618W        W 8137   5.063   8.713   4.556 -0.0805 -0.2912 -0.1132
 4619W        W 8138   2.872   4.570   0.133 -0.1357 -0.2244 -0.0822
 4620W        W 8139   8.669   4.729   1.223 -0.0347  0.4754  0.0947
 4621W        W 8140   4.368   1.591  11.544  0.2223  0.2148 -0.2177
 4622W        W 8141   2.566   1.916   9.464 -0.0495 -0.1481 -0.0376
 4623W        W 8142   1.057   4.716   3.373  0.0213  0.0837  0.0954
 4624W        W 8143   7.856   4.854  10.546  0.2122 -0.1531 -0.1037
 4625W        W 8144   4.304   8.478   0.198  0.0568  0.2064  0.2074
 4626W        W 8145   3.695   7.583   9.015 -0.0262 -0.2059  0.0143
 4627W        W 8146   9.434   2.131   9.712 -0.2277  0.1170  0.1329
 4628W        W 8147   3.237   5.296   0.509 -0.0276  0.2746 -0.2125
 4629W        W 8148   5.038   3.669  11.507 -0.1638  0.1385 -0.0885
 4630W        W 8149   6.882   2.124  11.505 -0.2085  0.2371  0.0895
 4631W        W 8150   9.688   9.091  11.216 -0.0286  0.1066  0.2444
 4632W        W 8151   9.374   0.953   4.494 -0.1553 -0.2670  0.1316
 4633W        W 8152   4.722   5.320   3.067  0.1158 -0.2974  0.0555
 4634W        W 8153   4.502   9.078   2.032  0.1595 -0.2603  0.0640
 4635W        W 8154   0.587   3.651   4.460 -0.0254 -0.2487 -0.0304
 4636W        W 8155   6.600   5.936   0.081  0.1527 -0.3047  0.2438
 4637W        W 8156   9.549   0.541   0.367  0.0948 -0.4573 -0.2184
 4638W        W 8157   9.071   6.373   0.094 -0.0440 -0.2028  0.3252
 4639W        W 8158   4.059   7.240   2.026 -0.0117 -0.1183 -0.0312
 4640W        W 8159   0.248   7.260   1.897 -0.1380 -0.2434 -0.4320
 4641W        W 8160   1.856   0.590  10.974 -0.0905 -0.3125  0.1440
 4642W        W 8161   0.375   8.240  10.658 -0.4533  0.0492  0.3480
 4643W        W 8162   7.684   9.341   1.286 -0.5121  0.1416 -0.1896
 4644W        W 8163   5.160   0.854   2.539 -0.0222  0.2856  0.0387
 4645W        W 8164   5.876   7.516   4.559 -0.0732 -0.2436 -0.2424
 4646W        W 8165   5.803   1.544  10.970 -0.1252 -0.0762  0.1621
 4647W        W 8166   8.682   5.872  11.358 -0.0936  0.0642  0.0893
 4648W        W 8167   9.717   7.379   2.273 -0.0220  0.0391  0.1410
 4649W        W 8168   0.908   4.652  12.278 -0.1247  0.1110 -0.2533
 4650W        W 8169   6.693   9.523   2.332 -0.4823 -0.0952 -0.1233
 4651W        W 8170   8.329   5.522   0.756 -0.1253 -0.2764 -0.2523
 4652W        W 8171   8.080   4.903  12.132  0.2262 -0.1410  0.1964
 4653W        W 8172   3.045   5.484   8.854  0.1307 -0.0551  0.3277
 4654W        W 8173   4.015   5.441   3.197  0.3034  0.2225 -0.0880
 4655W        W 8174   9.654   1.733  10.693 -0.0507  0.2085 -0.1624
 4656W        W 8175   1.632   1.158   2.521  0.0168  0.1396 -0.0766
 4657W        W 8176   1.034   0.072   0.190 -0.2174  0.0789  0.0363
 4658W        W 8177   6.924   5.693   4.518  0.0128  0.1745 -0.5074
 4659W        W 8178   7.851   8.963   2.527 -0.2028 -0.4659  0.0402
 4660W        W 8179   3.228   9.723  11.972 -0.1583 -0.0051 -0.2227
 4661W        W 8180   6.908   8.153   5.176 -0.1460  0.2584  0.2829
 4662W        W 8181   3.889   3.641   2.900 -0.1974  0.0906 -0.1968
 4663W        W 8182   2.876   8.941   2.412  0.1882  0.3714 -0.0814
 4664W        W 8183   2.601   1.931   1.411 -0.1785  0.3689 -0.0329
 4665W        W 8184   0.019   6.730  10.375 -0.1710  0.0258  0.1925
 4666W        W 8185   2.067   0.429   1.802  0.0634 -0.0249 -0.0309
 4667W        W 8186   6.644   6.030  11.223  0.1396  0.1019 -0.1353
 4668W        W 8187   1.901   9.597   3.630 -0.1951  0.0026 -0.1773
 4669W        W 8188   3.594   4.579   2.908 -0.0882  0.0162  0.2401
 4670W        W 8189   3.802   4.778   0.639 -0.2163  0.0143  0.0398
 4671W        W 8190   3.717   1.232   4.375 -0.0192  0.1859  0.1517
 4672W        W 8191   7.531   0.616   1.628  0.0261 -0.1450 -0.1332
 4673W        W 8192   7.238   5.537   4.118 -0.1632  0.2093  0.1585
 4674W        W 8193   3.736   2.571   0.917 -0.0144 -0.0417 -0.1503
 4675W        W 8194   7.742   9.485   2.379 -0.4529  0.1879 -0.2443
 4676W        W 8195   8.091   9.406   9.571 -0.1946  0.0816 -0.4880
 4677W        W 8196   8.113   4.103   0.030  0.1430  0.1877  0.1348
 4678W        W 8197   7.847   6.272  11.477 -0.0507 -0.0221  0.3626
 4679W        W 8198   5.187   6.413   9.378 -0.0887 -0.3440 -0.3942
 4680W        W 8199   2.759   7.229   9.081  0.2150 -0.2928 -0.2083
 4681W        W 8200   4.389   7.793   9.523  0.0347 -0.0048 -0.0481
 4682W        W 8201   7.090   6.545   2.410 -0.0676  0.1715 -0.0529
 4683W        W 8202   7.482   8.669   9.313 -0.2323 -0.2753  0.0331
 4684W        W 8203   1.933   7.662   2.486  0.2338 -0.0055  0.1817
 4685W        W 8204   7.575   3.794   3.994 -0.0208  0.1328 -0.1099
 4686W        W 8205   1.531   7.021  10.967 -0.1236  0.4179  0.2354
 4687W        W 8206   3.768   8.245   0.876  0.2138  0.0937  0.0914
 4688W        W 8207   3.207   4.174   1.050  0.0534  0.2236 -0.0041
 4689W        W 8208   7.266   0.329  11.838  0.3754  0.0725  0.3212
 4690W        W 8209   2.881   4.016  11.674  0.2964  0.1520 -0.4528
 4691W        W 8210   0.141   9.330   3.471  0.2822  0.0268  0.1220
 4692W        W 8211   8.953   4.963   4.070 -0.0708  0.1566  0.0325
 4693W        W 8212   5.180   8.251   9.547 -0.1345  0.0202 -0.2705
 4694W        W 8213   8.131   5.346  10.609  0.6022 -0.1202 -0.3559
 4695W        W 8214   7.836   0.572   2.953  0.1703  0.4047  0.0693
 4696W        W 8215   9.350   7.988   4.304  0.0137  0.2044 -0.2963
 4697W        W 8216   6.711   5.553  11.061  0.2073  0.0890  0.1185
 4698W        W 8217   7.849   6.637  10.286 -0.0991 -0.2852 -0.1693
 4699W        W 8218   2.733   1.686  12.198 -0.0770  0.0143 -0.4863
 4700W        W 8219   7.612   6.308   1.500 -0.1601 -0.2566 -0.0098
 4701W        W 8220   9.179   9.533   3.246  0.0524  0.0229  0.2227
 4702W        W 8221   5.212   2.901   8.270 -0.3572  0.0489 -0.0414
 4703W        W 8222   6.450   8.466  11.945 -0.2653 -0.0199  0.1921
 4704W        W 8223   5.178   8.764   0.356  0.6055 -0.0589 -0.2644
 4705W        W 8224   5.965   8.730   0.745  0.1138  0.2379  0.2340
 4706W        W 8225   0.224   0.924   9.267 -0.0391 -0.0450  0.2323
 4707W        W 8226   2.687   2.724   1.451 -0.1610 -0.1038 -0.0909
 4708W        W 8227   8.840   3.104   0.203  0.2592 -0.0988 -0.1683
 4709W        W 8228   7.968   1.350   1.875 -0.1224 -0.0800  0.4217
 4710W        W 8229   5.999   4.145   1.406 -0.0474  0.1617 -0.1919
 4711W        W 8230   9.336   7.603   0.052  0.2088 -0.0972 -0.0302
 4712W        W 8231   4.853   8.241   2.581  0.1402 -0.2134 -0.3277
 4713W        W 8232   6.745   3.803  11.535  0.0208 -0.0937 -0.4013
 4714W        W 8233   9.650   0.308   0.933 -0.0465 -0.3396  0.2835
 4715W        W 8234   5.287   4.707   4.003 -0.1810 -0.2548  0.0665
 4716W        W 8235   4.922   3.632   8.743  0.0068 -0.1331 -0.3692
 4717W        W 8236   6.992   2.395   2.712 -0.1921 -0.0826 -0.3884
 4718W        W 8237   4.720   9.627  11.875 -0.1026 -0.3785  0.0192
 4719W        W 8238   4.636   1.471   4.631  0.0103  0.1730  0.2590
 4720W        W 8239   6.031   4.631   4.234 -0.1333 -0.2390 -0.0569
 4721W        W 8240   8.180   6.012   3.940  0.0121 -0.0645  0.1122
 4722W        W 8241   8.049   4.654   0.099  0.2939  0.4244 -0.0634
 4723W        W 8242   7.432   9.683   9.833  0.0216  0.1761 -0.2503
 4724W        W 8243   1.508   0.566   4.323  0.2227 -0.0097  0.0304
 4725W        W 8244   8.581   3.282   0.611  0.3505 -0.0156  0.0967
 4726W        W 8245   0.400   0.973  11.194  0.0011  0.1400  0.2328
 4727W        W 8246   6.031   3.427  11.260  0.0366  0.0089  0.2707
 4728W        W 8247   8.910   9.037  11.959 -0.0144  0.1507  0.2146
 4729W        W 8248   5.984   2.551   9.123  0.6065 -0.0238  0.0293
 4730W        W 8249   0.662   8.069   1.946 -0.1355 -0.2077  0.4758
 4731W        W 8250   0.312   3.158   0.852 -0.0167  0.1444 -0.3152
 4732W        W 8251   3.352   7.612   8.486 -0.0695 -0.0781 -0.0229
 4733W        W 8252   9.665   8.694  12.080 -0.2317 -0.0000 -0.0602
 4734W        W 8253   3.781   9.582   1.920 -0.0666  0.0876  0.0872
 4735W        W 8254   2.464   4.314   9.400  0.0428 -0.1256 -0.2308
 4736W        W 8255   6.595   8.978   1.577 -0.0378  0.3219  0.0352
 4737W        W 8256   5.028   1.296   1.622  0.1397 -0.0543 -0.3999
 4738W        W 8257   8.560   6.296   9.087 -0.2262  0.2307  0.0997
 4739W        W 8258   2.690   0.801   0.773  0.0590  0.1264  0.0394
 4740W        W 8259   5.349   6.495   8.899 -0.2353 -0.3038 -0.4106
 4741W        W 8260   0.748   1.280   8.951 -0.1330  0.2225  0.2991
 4742W        W 8261   5.414   5.260   8.814  0.0350 -0.4524 -0.0716
 4743W        W 8262   6.004   0.051  11.579  0.1971  0.3078  0.1886
 4744W        W 8263   7.594   1.841  11.886 -0.2041 -0.1030  0.1444
 4745W        W 8264   3.424   3.168   2.895 -0.3192  0.3877 -0.1049
 4746W        W 8265   5.080   1.119   8.822 -0.1696 -0.0273  0.1453
 4747W        W 8266   6.830   0.061   2.725 -0.1421  0.1791 -0.0135
 4748W        W 8267   7.571   7.360   2.938  0.0613  0.4000 -0.1918
 4749W        W 8268   8.670   9.218  11.183 -0.1622  0.2535  0.0594
 4750W        W 8269   7.022   4.042   2.727  0.3374 -0.2312  0.0853
 4751W        W 8270   7.943   1.569  10.970 -0.0360  0.0658  0.0327
 4752W        W 8271   4.098   0.206   4.747 -0.0595 -0.0842  0.2215
 4753W        W 8272   5.633   5.176   9.555 -0.0261  0.1523 -0.2731
 4754W        W 8273   0.938   0.543  10.487  0.1338  0.0042  0.0357
 4755W        W 8274   5.061   8.799  10.349  0.1529 -0.1972 -0.0230
 4756W        W 8275   4.907   6.314   1.517  0.0648 -0.0185 -0.1678
 4757W        W 8276   3.850   7.133   9.085 -0.0126 -0.0109 -0.1587
 4758W        W 8277   4.886   7.483   1.460 -0.0364  0.0342  0.0883
 4759W        W 8278   0.742   0.084  11.684 -0.0794  0.3676  0.0415
 4760W        W 8279   6.954   6.390  10.794 -0.3033  0.0361  0.0653
 4761W        W 8280   5.752   9.484   8.724  0.0800 -0.3040 -0.2855
 4762W        W 8281   8.349   8.185  11.264 -0.2250 -0.0785  0.2441
 4763W        W 8282   2.714   3.458  11.901  0.0125  0.2043 -0.4338
 4764W        W 8283   7.765   2.656   1.634  0.0559 -0.0735  0.0088
 4765W        W 8284   1.559   4.127  12.309 -0.3962 -0.1161 -0.0358
 4766W        W 8285   0.966   4.387   1.184  0.0960  0.0163  0.1127
 4767W        W 8286   6.138   7.545  10.431  0.1691 -0.1212 -0.0303
 4768W        W 8287   6.929   5.003   9.343  0.1497  0.0793 -0.0861
 4769W        W 8288   6.188   0.242  11.122  0.1373 -0.1711 -0.1496
 4770W        W 8289   6.778   1.834   1.725 -0.1323 -0.3858 -0.2627
 4771W        W 8290   5.155   7.506   3.421 -0.1269 -0.0207  0.1175
 4772W        W 8291   1.861   7.492   0.800  0.0902 -0.0494 -0.2731
 4773W        W 8292   5.167   1.270   0.981  0.0778 -0.2440 -0.1505
 4774W        W 8293   2.372   0.515   0.449  0.1092  0.0721 -0.0048
 4775W        W 8294   0.489   2.220   1.801  0.0955 -0.0301  0.0918
 4776W        W 8295   2.511   5.266  10.149 -0.1138 -0.0157  0.2623
 4777W        W 8296   0.100   3.893  10.399  0.2158 -0.1361  0.0371
 4778W        W 8297   4.246   9.530  11.927 -0.1618  0.0194  0.4209
 4779W        W 8298   6.330   2.624   1.018  0.2386  0.1792  0.3636
 4780W        W 8299   9.367   3.876   1.457 -0.1843  0.2987  0.0881
 4781W        W 8300   3.640   8.370   4.329  0.2622 -0.1370 -0.0745
 4782W        W 8301   6.863   0.587   2.892 -0.3728  0.2391 -0.3530
 4783W        W 8302   5.498   1.471   1.274 -0.1283  0.2353  0.0565
 4784W        W 8303   5.271   4.723   0.291  0.1753  0.2539 -0.0040
 4785W        W 8304   8.720   8.501   8.762  0.0876  0.3022  0.0293
 4786W        W 8305   5.333   9.282   0.987  0.1625  0.2734 -0.1486
 4787W        W 8306   5.001   3.909  10.709 -0.1265 -0.0708 -0.1537
 4788W        W 8307   9.395   1.374   0.717 -0.5172 -0.1341  0.2189
 4789W        W 8308   5.049   8.715  12.131 -0.1263  0.0726  0.1917
 4790W        W 8309   0.133   7.605   0.105  0.1538  0.3572  0.0347
 4791W        W 8310   2.468   5.485   7.967 -0.0173  0.2495 -0.0437
 4792W        W 8311   3.828   6.326  10.737 -0.2290 -0.1601 -0.0629
 4793W        W 8312   9.357   3.366  10.490 -0.0526 -0.2006  0.1563
 4794W        W 8313   2.339   0.621   8.921  0.3820 -0.1967  0.2589
 4795W        W 8314   1.229   7.137   0.413  0.3813  0.3953 -0.2003
 4796W        W 8315   4.573   1.685   3.850  0.0286  0.1605  0.2096
 4797W        W 8316   4.966   8.780   3.577 -0.4450  0.0375 -0.3140
 4798W        W 8317   3.271   5.565  10.235 -0.3246 -0.3344  0.2090
 4799W        W 8318   0.847   5.434   2.473  0.1157 -0.1930 -0.0270
 4800W        W 8319   4.797   3.827   0.380  0.1682  0.1199 -0.0127
 4801W        W 8320   4.961   6.748  11.087  0.3760 -0.1361 -0.2087
 4802W        W 8321   7.342   4.180  11.859 -0.3952 -0.1652  0.2275
 4803W        W 8322   7.286   1.054   4.591 -0.3255 -0.2068 -0.2438
 4804W        W 8323   4.887   5.617   8.960 -0.1404  0.2944 -0.0739
 4805W        W 8324   5.915   7.087   3.086  0.1265 -0.3751 -0.0458
 4806W        W 8325   4.206   9.349   0.353 -0.0681  0.1690  0.2181
 4807W        W 8326   8.587   7.805  11.437 -0.3070 -0.1363 -0.3383
 4808W        W 8327   8.487   2.112   1.821  0.0548 -0.3586  0.2942
 4809W        W 8328   1.468   2.836   2.478  0.2066 -0.1924 -0.1331
 4810W        W 8329   2.621   6.006   3.591  0.1373  0.5197  0.0206
 4811W        W 8330   2.330   7.551  11.928 -0.0969  0.1985  0.1588
 4812W        W 8331   8.048   3.070   2.002 -0.0553  0.0976  0.0838
 4813W        W 8332   8.311   2.343   0.177  0.0883 -0.2371 -0.1203
 4814W        W 8333   1.150   2.104   9.494  0.0964 -0.4094 -0.0702
 4815W        W 8334   9.123   6.400   8.833 -0.1982 -0.1130  0.1837
 4816W        W 8335   5.524   1.403  11.458  0.3383 -0.0408  0.0375
 4817W        W 8336   8.953   1.586   0.212  0.1619 -0.0633  0.1925
 4818W        W 8337   3.648   5.362  11.687  0.4753  0.1181  0.1267
 4819W        W 8338   0.466   7.529   2.309 -0.0763  0.0124 -0.3896
 4820W        W 8339   7.257   6.013   2.192  0.1401  0.1203 -0.0642
 4821W        W 8340   3.337   0.260   0.949  0.0263  0.1471 -0.4323
 4822W        W 8341   6.659   5.227   1.100 -0.0580 -0.1618 -0.0178
 4823W        W 8342   6.354   8.017   0.241 -0.0216 -0.5588  0.2007
 4824W        W 8343   4.458   1.093  12.290  0.0566 -0.2920  0.1285
 4825W        W 8344   3.234   7.440   8.938  0.3194 -0.2006  0.1379
 4826W        W 8345   0.586   2.007   3.993 -0.0045  0.0338  0.0523
 4827W        W 8346   3.125   4.505  12.147 -0.1500  0.0843  0.1082
 4828W        W 8347   2.590   4.596   0.566 -0.4121  0.1683 -0.2719
 4829W        W 8348   0.390   9.062   9.273 -0.4551  0.0877 -0.3567
 4830W        W 8349   6.795   0.001   4.090  0.1150  0.1041 -0.5777
 4831W        W 8350   6.770   6.251   3.746 -0.0961 -0.1452  0.0770
 4832W        W 8351   8.521   0.655  10.842  0.2222 -0.1076  0.0710
 4833W        W 8352   8.732   2.788  10.512  0.1375 -0.1320 -0.0274
 4834W        W 8353   9.447   7.973   3.589  0.1789 -0.2062 -0.1107
 4835W        W 8354   8.656   4.849  12.306 -0.0998  0.1646  0.0236
 4836W        W 8355   7.204   9.070  11.203  0.3018  0.1008  0.3674
 4837W        W 8356   1.250   2.867   3.782  0.0019  0.2495 -0.0709
 4838W        W 8357   8.410   6.682   9.435  0.0153  0.0679  0.0322
 4839W        W 8358   7.708   0.568  10.096 -0.2005  0.0227 -0.2194
 4840W        W 8359   8.261   1.031   0.736 -0.1206 -0.1413  0.1641
 4841W        W 8360   4.027   6.988   9.698  0.2226  0.4972  0.1553
 4842W        W 8361   9.042   5.112   0.665  0.0312  0.0567  0.0208
 4843W        W 8362   3.649   4.126   1.416  0.1330 -0.0973 -0.3417
 4844W        W 8363   3.433   6.028   9.858 -0.0646  0.2426  0.1964
 4845W        W 8364   6.024   2.354   3.059  0.1824 -0.0833 -0.0861
 4846W        W 8365   7.480   5.286   9.737  0.2394 -0.4656  0.0600
 4847W        W 8366   1.024   8.440  10.594 -0.3327 -0.1423  0.0474
 4848W        W 8367   0.517   3.781   1.927 -0.0663 -0.0525 -0.1972
 4849W        W 8368   9.523   2.396   3.857  0.1708 -0.0289  0.3858
 4850W        W 8369   9.192   4.940  10.669  0.1686 -0.1999  0.0473
 4851W        W 8370   5.769   2.100   3.387 -0.1465  0.1732 -0.0617
 4852W        W 8371   3.682   2.639  10.702  0.1042  0.2847 -0.1968
 4853W        W 8372   5.848   4.757   0.697 -0.2054  0.3058  0.0121
 4854W        W 8373   9.100   3.393  12.401 -0.3042  0.3008  0.1151
 4855W        W 8374   0.455   6.993   2.993 -0.1289 -0.1473 -0.1720
 4856W        W 8375   6.232   8.514   8.862  0.0033 -0.0355  0.3749
 4857W        W 8376   2.836   7.798   2.081  0.0432  0.0694  0.0148
 4858W        W 8377   2.057   4.782   2.769  0.0398  0.0998 -0.5347
 4859W        W 8378   0.707   0.749  10.876 -0.1337 -0.0057 -0.2187
 4860W        W 8379   5.540   1.098  12.302 -0.0341  0.3546 -0.2551
 4861W        W 8380   3.478   9.675   8.208  0.0235 -0.1400 -0.1977
 4862W        W 8381   4.370   0.546   2.960 -0.0452  0.0748 -0.1106
 4863W        W 8382   7.366   6.738   2.716 -0.1127  0.0650  0.0213
 4864W        W 8383   2.526   0.363  10.289  0.0764 -0.2553 -0.1610
 4865W        W 8384   4.029   3.940   1.675 -0.1583  0.0520 -0.0407
 4866W        W 8385   4.209   7.171   3.783  0.1341  0.0783 -0.0731
 4867W        W 8386   4.540   5.801  10.774  0.0245  0.0268  0.1175
 4868W        W 8387   2.920   8.331  12.310 -0.4864  0.4795  0.1753
 4869W        W 8388   8.202   2.999   4.933 -0.1172  0.0058 -0.0909
 4870W        W 8389   8.254   7.546   9.417  0.3070 -0.0133  0.0712
 4871W        W 8390   5.560   4.737  11.640 -0.0359 -0.0597 -0.0715
 4872W        W 8391   4.599   1.105  11.358 -0.2261 -0.0762 -0.1485
 4873W        W 8392   3.585   2.545   2.515 -0.0259 -0.2233  0.0558
 4874W        W 8393   1.982   5.469   3.117 -0.2108 -0.0217  0.0033
 4875W        W 8394   0.100   7.968   8.825 -0.0814 -0.1010 -0.0237
 4876W        W 8395   9.698   4.158   9.459 -0.1704 -0.1037 -0.3446
 4877W        W 8396   0.494   5.361   3.311 -0.0756  0.2100  0.0009
 4878W        W 8397   1.973   0.283   4.393  0.0045 -0.0209 -0.0167
 4879W        W 8398   7.327   7.915   4.961  0.2280  0.2851  0.0571
 4880W        W 8399   4.079   6.402  11.811 -0.1410  0.1059 -0.0078
 4881W        W 8400   3.756   1.822   3.265  0.0584 -0.0416  0.1304
 4882W        W 8401   5.603   7.676  10.211  0.2995 -0.3039  0.3653
 4883W        W 8402   3.143   4.597   9.545  0.1750  0.4219 -0.3760
 4884W        W 8403   4.704   1.946   1.846  0.1362 -0.2189  0.2067
 4885W        W 8404   1.545   4.920   2.960  0.2046 -0.1783 -0.0113
 4886W        W 8405   1.039   9.689   4.388 -0.0324 -0.0868 -0.0804
 4887W        W 8406   3.752   8.696   2.190  0.2082  0.3263 -0.0865
 4888W        W 8407   7.411   7.268   2.169  0.2235 -0.1610 -0.0881
 4889W        W 8408   4.830   8.166   9.904  0.0013 -0.0378 -0.0853
 4890W        W 8409   4.548   7.970   3.982  0.0148 -0.1293 -0.1231
 4891W        W 8410   3.948   7.680   8.573  0.0558  0.3082 -0.3253
 4892W        W 8411   0.873   4.485   0.703  0.0760 -0.0458 -0.1811
 4893W        W 8412   5.072   0.859   1.456  0.1753  0.3910  0.0512
 4894W        W 8413   0.179   8.021  11.097 -0.2909 -0.0519  0.0409
 4895W        W 8414   6.251   9.543   0.478 -0.2848 -0.3283 -0.0929
 4896W        W 8415   0.777   1.688   3.680  0.2001 -0.0435  0.0444
 4897W        W 8416   5.432   2.154   3.821 -0.1730  0.0135  0.0807
 4898W        W 8417   3.834   4.782  11.449 -0.0998  0.3245 -0.2567
 4899W        W 8418   4.631   5.460   9.527 -0.0294  0.0772  0.1642
 4900W        W 8419   7.562   9.260   2.866 -0.2480 -0.2931  0.3248
 4901W        W 8420   1.148   0.402   1.496 -0.0381  0.2737 -0.0103
 4902W        W 8421   6.009   5.636   3.814 -0.4219  0.0947  0.1020
 4903W        W 8422   3.254   5.706  10.768 -0.2889  0.1700  0.0159
 4904W        W 8423   7.863   5.592   1.603 -0.1007  0.1447  0.0168
 4905W        W 8424   9.171   6.625   2.932 -0.0547 -0.1806  0.2631
 4906W        W 8425   7.776   0.630   1.031 -0.1895 -0.2573  0.1917
 4907W        W 8426   8.075   0.784   4.809 -0.0653 -0.0066 -0.1367
 4908W        W 8427   8.923   9.459   2.221  0.1925 -0.1434  0.0039
 4909W        W 8428   8.880   5.351   9.161 -0.0905  0.0187 -0.0711
 4910W        W 8429   5.390   9.133   1.529 -0.2062 -0.0488 -0.0095
 4911W        W 8430   8.180   6.155   2.105 -0.0738  0.0287  0.0764
 4912W        W 8431   2.821   0.516   9.154  0.2540  0.0415  0.0009
 4913W        W 8432   4.205   9.094  12.380 -0.2267  0.0359 -0.2361
 4914W        W 8433   9.050   7.703   4.049  0.1665  0.2125 -0.0100
 4915W        W 8434   0.001   0.463  11.947 -0.0979  0.0624 -0.0287
 4916W        W 8435   2.504   6.284   1.391  0.0510 -0.1010 -0.1724
 4917W        W 8436   9.679   8.382  10.783 -0.0059  0.3329  0.0611
 4918W        W 8437   5.399   9.432   1.924 -0.0218  0.2251  0.0847
 4919W        W 8438   2.375   6.518   3.031  0.0111  0.0167 -0.0413
 4920W        W 8439   4.398   1.975   9.043 -0.0626 -0.1025 -0.2624
 4921W        W 8440   5.205   6.443   1.088  0.0668  0.0194  0.0324
 4922W        W 8441   5.040   8.183   8.057  0.3710 -0.0223  0.2351
 4923W        W 8442   0.942   4.545   9.515 -0.1461 -0.1015  0.2223
 4924W        W 8443   2.929   1.186   2.721 -0.2872  0.1345  0.0082
 4925W        W 8444   2.162   8.682   8.498  0.2324 -0.2152  0.1498
 4926W        W 8445   8.241   4.443  12.099  0.0364  0.2547  0.0018
 4927W        W 8446   9.590   9.379  11.601  0.2874 -0.0662  0.0785
 4928W        W 8447   2.542   8.684  10.324  0.4024  0.1773  0.4164
 4929W        W 8448   0.506   2.791   1.951 -0.1982  0.1788 -0.1821
 4930W        W 8449   5.846   1.074   9.741  0.1196  0.1806  0.2822
 4931W        W 8450   7.725   2.305   0.798  0.0737  0.2680 -0.0307
 4932W        W 8451   3.032   8.908   1.619 -0.1451  0.0191  0.0062
 4933W        W 8452   6.564   5.395   0.602  0.1836 -0.0851 -0.0025
 4934W        W 8453   6.222   5.237  11.244 -0.0843 -0.3925 -0.1667
 4935W        W 8454   2.777   7.787   3.660  0.4040  0.0600  0.2843
 4936W        W 8455   8.529   7.508   1.984 -0.2138 -0.4587 -0.2510
 4937W        W 8456   7.737   3.201   1.551 -0.0214  0.0581 -0.0149
 4938W        W 8457   1.178   4.925   8.770 -0.3946  0.0769  0.1777
 4939W        W 8458   0.939   3.136  11.579 -0.0139  0.1178  0.0661
 4940W        W 8459   5.704   3.910  11.398 -0.0744 -0.0478 -0.0928
 4941W        W 8460   6.928   0.877   9.494  0.3756 -0.0392 -0.2112
 4942W        W 8461   6.357   8.499   2.187  0.0566 -0.1529  0.2327
 4943W        W 8462   9.564   4.623   3.549 -0.0237 -0.2005 -0.1481
 4944W        W 8463   1.186   3.311   0.791 -0.2622  0.1557 -0.0911
 4945W        W 8464   0.456   4.168   1.078  0.0709 -0.1978 -0.1718
 4946W        W 8465   1.737   5.217   0.576 -0.2349  0.1448  0.0843
 4947W        W 8466   2.382   3.794   9.485 -0.1225  0.0572  0.0168
 4948W        W 8467   4.374   4.767  11.329  0.3626  0.0644 -0.3901
 4949W        W 8468   1.640   2.351  11.467 -0.1532  0.0144  0.2129
 4950W        W 8469   6.317   1.453   8.228  0.0342  0.0299 -0.0349
 4951W        W 8470   6.642   3.809   1.847 -0.0900  0.0424  0.1152
 4952W        W 8471   1.646   0.136   9.864  0.1503  0.3682 -0.1137
 4953W        W 8472   5.165   4.106  11.338 -0.3981 -0.2086 -0.3029
 4954W        W 8473   2.736   1.151   1.711 -0.0746 -0.0588 -0.0158
 4955W        W 8474   9.328   7.545   2.618 -0.1190  0.0565 -0.1542
 4956W        W 8475   1.232   3.473  11.359  0.0583 -0.1150  0.0413
 4957W        W 8476   6.967   2.417   0.327 -0.0719 -0.2136  0.0700
 4958W        W 8477   1.496   1.922   1.319 -0.3756 -0.1548  0.1065
 4959W        W 8478   4.859   9.321   2.264 -0.0226  0.2429 -0.0362
 4960W        W 8479   7.376   0.953   9.567 -0.1252 -0.0813 -0.0962
 4961W        W 8480   3.463   8.960   3.623  0.1561 -0.0665 -0.2176
 4962W        W 8481   0.870   9.518  11.169  0.0962  0.0354 -0.1382
 4963W        W 8482   9.521   8.615   1.612  0.2062 -0.0381 -0.0015
 4964W        W 8483   9.515   5.456   2.382  0.2154 -0.1209  0.4867
 4965W        W 8484   6.851   0.110   1.205 -0.1637 -0.1598  0.1989
 4966W        W 8485   7.217   5.167   8.305  0.0330  0.0483 -0.5666
 4967W        W 8486   9.364   3.677   0.273 -0.1297 -0.1498 -0.1627
 4968W        W 8487   6.538   2.206   2.995 -0.1822 -0.1376 -0.4015
 4969W        W 8488   7.712   3.878   2.446 -0.0604 -0.0379 -0.0936
 4970W        W 8489   4.398   7.207  12.138 -0.1206  0.0157 -0.0797
 4971W        W 8490   1.021   9.346   8.009  0.4372 -0.4054  0.0529
 4972W        W 8491   4.571   5.821   1.105 -0.1090 -0.0206 -0.1034
 4973W        W 8492   7.198   8.054  10.965  0.3560  0.0921  0.0570
 4974W        W 8493   1.522   2.256  10.975 -0.1690  0.1729 -0.1735
 4975W        W 8494   8.281   2.235  12.115 -0.0957 -0.0229 -0.1250
 4976W        W 8495   0.221   7.973   4.416 -0.3381  0.1616 -0.3400
 4977W        W 8496   0.430   6.224  10.369 -0.2900 -0.1004  0.2170
 4978W        W 8497   0.531   4.242   2.172  0.3627 -0.0374  0.1253
 4979W        W 8498   9.389   8.495   3.548  0.0994 -0.0615  0.3399
 4980W        W 8499   4.164   6.647   3.954  0.2322  0.0692  0.1336
 4981W        W 8500   7.184   8.521   0.434 -0.0445  0.1899 -0.0606
 4982W        W 8501   6.771   0.640   1.247 -0.0309 -0.2713  0.1115
 4983W        W 8502   4.883   0.754   4.230 -0.0950 -0.0584 -0.2534
 4984W        W 8503   2.511   8.426  11.981 -0.0038  0.0415 -0.3457
 4985W        W 8504   1.168   8.672   8.728 -0.0530 -0.0895  0.0792
 4986W        W 8505   2.367   1.397   2.009 -0.1300 -0.0537 -0.0292
 4987W        W 8506   3.548   7.403   2.624 -0.1840 -0.1825 -0.1331
 4988W        W 8507   3.682   5.962  11.761 -0.0627 -0.0482  0.2417
 4989W        W 8508   4.897   2.612   0.458 -0.0308 -0.0192  0.2426
 4990W        W 8509   3.911   9.345   3.024 -0.0744 -0.0129 -0.0300
 4991W        W 8510   3.712   7.257   0.714 -0.2168  0.2196 -0.0834
 4992W        W 8511   4.009   1.380   3.406 -0.0532  0.2637  0.3834
 4993W        W 8512   1.077   2.103   3.142 -0.1881  0.0710  0.1646
 4994W        W 8513   5.547   4.980   1.055 -0.1235  0.0308  0.0896
 4995W        W 8514   7.718   2.892  10.633  0.1819 -0.2450  0.0567
 4996W        W 8515   2.528   9.103   4.417  0.1151 -0.2046 -0.1694
 4997W        W 8516   6.850   3.415   3.883  0.2044  0.1045  0.0047
 4998W        W 8517   7.500   6.805   1.693 -0.0106 -0.2168  0.0304
 4999W        W 8518   1.164   0.972   0.059  0.0326  0.1950  0.0193
 5000W        W 8519   3.602   0.656   3.779 -0.0771 -0.1554 -0.0623
 5001W        W 8520   4.151   8.950   4.780  0.2089 -0.1127 -0.0252
 5002W        W 8521   8.808   2.487   0.003 -0.0244 -0.2574 -0.0371
 5003W        W 8522   2.603   0.608   2.515 -0.0666 -0.0161  0.0751
 5004W        W 8523   4.550   8.143   3.026  0.0616 -0.0320  0.1620
 5005W        W 8524   7.312   0.092  11.328 -0.0504 -0.0004 -0.1662
 5006W        W 8525   3.000   6.388   2.516  0.3801  0.4946 -0.0570
 5007W        W 8526   8.599   1.747   1.178  0.2402 -0.1954 -0.0087
 5008W        W 8527   8.629   3.990   3.539 -0.0744 -0.3537  0.0492
 5009W        W 8528   9.491   2.470  11.145  0.1983 -0.2872 -0.3135
 5010W        W 8529   1.796   3.687  10.827 -0.1532 -0.3385 -0.1613
 5011W        W 8530   6.238   3.643   1.571 -0.0384 -0.1539 -0.1764
 5012W        W 8531   6.635   8.119   9.879  0.1710 -0.3701 -0.0265
 5013W        W 8532   4.066   8.736   9.194  0.4631  0.1338  0.4453
 5014W        W 8533   5.743   0.423   8.304  0.2337 -0.0821  0.3027
 5015W        W 8534   3.810   3.299   1.911 -0.2383 -0.2467  0.3126
 5016W        W 8535   2.956   3.894  12.200 -0.2269 -0.0744 -0.0671
 5017W        W 8536   4.632   7.692   3.177  0.1627 -0.1080  0.1671
 5018W        W 8537   2.953   5.364   9.635 -0.0030  0.0486  0.1372
 5019W        W 8538   3.071   0.653   8.143 -0.3890  0.1663 -0.0150
 5020W        W 8539   4.179   7.406  11.039 -0.0398  0.3486 -0.0225
 5021W        W 8540   4.228   0.729   8.748  0.1737 -0.0831 -0.1734
 5022W        W 8541   9.017   0.592   8.895  0.1815 -0.1021  0.4357
 5023W        W 8542   6.381   6.273   3.075 -0.2097 -0.0641 -0.1809
 5024W        W 8543   1.003   4.989   1.111  0.2231  0.2320 -0.0643
 5025W        W 8544   3.878   7.277  10.114  0.2821 -0.2084 -0.0761
 5026W        W 8545   3.363   6.139  10.540  0.2222  0.3495 -0.0636
 5027W        W 8546   2.163   5.188  11.726  0.1493 -0.1045  0.0624
 5028W        W 8547   6.370   5.545  11.686 -0.2540 -0.0538 -0.1605
 5029W        W 8548   2.114   5.681   9.662 -0.0934 -0.0281  0.3041
 5030W        W 8549   2.928   2.905   2.994  0.3116 -0.0393 -0.1111
 5031W        W 8550   5.169   5.026   0.781 -0.2873 -0.2047 -0.0384
 5032W        W 8551   7.353   4.629  10.485  0.0154 -0.0524  0.1277
 5033W        W 8552   3.322   1.707   0.672  0.2234  0.1276 -0.3565
 5034W        W 8553   2.704   8.126  11.630  0.0866 -0.2248 -0.0109
 5035W        W 8554   2.815   8.552   3.184  0.0311  0.0843  0.1575
 5036W        W 8555   7.342   8.386  10.586  0.0861 -0.3439  0.0550
 5037W        W 8556   7.474   5.426   0.320 -0.1348  0.3786 -0.1862
 5038W        W 8557   5.958   1.478   9.399 -0.0114 -0.1868 -0.2208
 5039W        W 8558   2.220   1.179   9.039 -0.0961 -0.0428  0.1604
 5040W        W 8559   0.613   1.063  11.710  0.1174  0.2013 -0.0247
 5041W        W 8560   3.870   3.551   3.408  0.0358  0.1489  0.0754
 5042W        W 8561   6.505   1.270   0.602  0.0761  0.4781 -0.2474
 5043W        W 8562   4.735   0.394  11.750 -0.3179  0.2880 -0.2002
 5044W        W 8563   2.616   0.820   3.689 -0.1586 -0.1223  0.0762
 5045W        W 8564   9.113   8.838   3.739  0.3519  0.0390  0.2366
 5046W        W 8565   1.046   2.317  12.307  0.3649 -0.4953 -0.2132
 5047W        W 8566   2.889   4.805  10.756 -0.0129 -0.0323  0.0416
 5048W        W 8567   7.824   1.511   3.757 -0.0732  0.1391  0.0119
 5049W        W 8568   6.711   2.994  11.796  0.1797 -0.2091  0.0762
 5050W        W 8569   0.530   2.885  12.327 -0.1687 -0.1180 -0.1778
 5051W        W 8570   5.816   3.188  10.486 -0.1377  0.0944 -0.0364
 5052W        W 8571   5.159   3.521   1.189 -0.0957 -0.3554 -0.1301
 5053W        W 8572   5.298   7.900   1.888 -0.1177  0.2070 -0.0020
 5054W        W 8573   8.479   4.517   2.560 -0.3129  0.2513  0.0538
 5055W        W 8574   9.442   5.286   1.623  0.0094 -0.0098 -0.1892
 5056W        W 8575   9.601   5.362   0.100  0.1163 -0.2665 -0.1687
 5057W        W 8576   7.422   2.230   8.540 -0.0102 -0.2423  0.3205
 5058W        W 8577   8.910   4.440  12.345 -0.0507 -0.1097 -0.0851
 5059W        W 8578   5.297   2.813   0.651  0.0324  0.1445  0.2159
 5060W        W 8579   8.150   8.169   7.793 -0.0240  0.0085  0.1288
 5061W        W 8580   8.218   9.444  11.024 -0.1253 -0.0073 -0.0068
 5062W        W 8581   0.282   6.389  11.686 -0.0974  0.0671  0.0594
 5063W        W 8582   1.286   9.180  10.894  0.0857  0.1814  0.2790
 5064W        W 8583   7.218   0.276   3.639 -0.2164 -0.3963  0.3807
 5065W        W 8584   6.992   9.245   4.540  0.1858  0.0237  0.4390
 5066W        W 8585   3.465   7.067   3.001 -0.2098  0.3283 -0.0979
 5067W        W 8586   9.004   6.085   1.018  0.1525  0.2687 -0.2387
 5068W        W 8587   2.681   2.232  10.409 -0.1491 -0.3643  0.0581
 5069W        W 8588   6.834   9.366   8.636 -0.0938  0.2119  0.0680
 5070W        W 8589   9.403   4.266  11.014  0.0889  0.4012 -0.3310
 5071W        W 8590   0.618   3.561   3.432 -0.3683  0.4895  0.2713
 5072W        W 8591   3.179   6.190   2.965 -0.0870 -0.0650 -0.0565
 5073W        W 8592   8.127   4.156   2.223  0.0455  0.0511 -0.0247
 5074W        W 8593   1.279   9.563  11.782  0.0500 -0.1546 -0.2569
 5075W        W 8594   0.387   8.797  11.542  0.3550  0.2217  0.0593
 5076W        W 8595   4.474   9.498   1.270  0.1320  0.2545  0.1280
 5077W        W 8596   6.638   7.271   0.833  0.4349 -0.1428  0.3845
 5078W        W 8597   9.373   5.299   3.375  0.2028  0.1809 -0.1847
 5079W        W 8598   6.864   5.370  11.961 -0.0712 -0.0423 -0.0391
 5080W        W 8599   5.551   2.028   2.058  0.2571  0.0227 -0.3233
 5081W        W 8600   1.689   8.821   4.219 -0.1818  0.0290 -0.0199
 5082W        W 8601   3.828   4.406   2.534  0.1715  0.1983  0.3448
 5083W        W 8602   2.278   7.155   4.265  0.2537  0.1151 -0.0336
 5084W        W 8603   7.286   1.193   2.510  0.0003 -0.0172 -0.2571
 5085W        W 8604   2.775   1.736   1.870  0.0443 -0.0551  0.2629
 5086W        W 8605   7.599   3.385   0.961 -0.1460  0.0155 -0.2368
 5087W        W 8606   2.425   2.079   0.681  0.0715  0.1712  0.3022
 5088W        W 8607   5.624   2.527   8.356 -0.0118 -0.1262  0.2433
 5089W        W 8608   8.397   0.966  11.608  0.0753 -0.0455  0.0150
 5090W        W 8609   1.431   1.527   9.317 -0.0967  0.3797  0.1445
 5091W        W 8610   7.721   5.729  10.502  0.1155  0.3061 -0.0841
 5092W        W 8611   6.725   5.061   8.415 -0.0222  0.0311  0.0293
 5093W        W 8612   1.388   0.384   8.948 -0.0562 -0.0782 -0.1401
 5094W        W 8613   7.386   6.885   9.392  0.0582 -0.0666  0.0841
 5095W        W 8614   1.808   8.530   9.469 -0.0975  0.2878 -0.2110
 5096W        W 8615   5.990   4.112   4.372 -0.2173  0.0101 -0.2132
 5097W        W 8616   1.464   0.674  11.316 -0.1963  0.1077 -0.0056
 5098W        W 8617   8.481   2.287  10.730  0.0261  0.3225 -0.0940
 5099W        W 8618   8.679   4.120   9.983 -0.1257 -0.1128 -0.2684
 5100W        W 8619   8.752   4.547   3.832  0.1302 -0.0226 -0.0380
 5101W        W 8620   5.634   8.648   0.330 -0.0351  0.3854 -0.1502
 5102W        W 8621   0.616   6.985  12.103  0.2887  0.1038  0.0546
 5103W        W 8622   7.284   8.908  10.710 -0.3510 -0.0336 -0.2730
 5104W        W 8623   9.391   0.929  11.788  0.1914  0.0750 -0.0362
 5105W        W 8624   0.496   7.700   1.080  0.1496  0.1675 -0.0209
 5106W        W 8625   5.312   3.986   3.322 -0.1906  0.1710  0.0197
 5107W        W 8626   2.562   8.383   9.939 -0.0411  0.2303  0.2227
 5108W        W 8627   2.057   2.929   3.351  0.2037  0.0796  0.2888
 5109W        W 8628   4.015   1.535   9.817 -0.0979  0.1292  0.0215
 5110W        W 8629   5.924   7.754  11.558  0.0026  0.0546 -0.1265
 5111W        W 8630   0.498   2.666  10.186  0.0154  0.1234 -0.1746
 5112W        W 8631   8.425   0.506   2.683 -0.0514 -0.3189 -0.0857
 5113W        W 8632   7.525   0.029   2.806 -0.2100  0.0775  0.1916
 5114W        W 8633   1.156   3.751  12.335 -0.1184 -0.0965 -0.0925
 5115W        W 8634   7.320   0.867   2.928 -0.0379 -0.1560 -0.0417
 5116W        W 8635   7.495   6.941  12.470 -0.1206  0.0993  0.0763
 5117W        W 8636   6.354   3.509   2.601 -0.0954 -0.0732 -0.0987
 5118W        W 8637   0.636   3.531  11.639 -0.0132  0.0021  0.0321
 5119W        W 8638   0.038   2.013   0.478 -0.1038  0.2818  0.0368
 5120W        W 8639   6.353   9.338   3.918  0.1031  0.0554  0.1407
 5121W        W 8640   9.140   7.133  11.888  0.3160 -0.0343 -0.1651
 5122W        W 8641   8.280   5.700  10.329  0.0787  0.1364  0.0073
 5123W        W 8642   5.418   5.228   3.069  0.0830 -0.2898 -0.0820
 5124W        W 8643   1.691   5.677  10.023  0.0653 -0.0795  0.2641
 5125W        W 8644   1.137   8.210  10.049 -0.1432 -0.0190  0.1563
 5126W        W 8645   3.703   0.806  10.711 -0.0227  0.1032  0.4667
 5127W        W 8646   9.494   1.185   2.098 -0.2089  0.1772  0.1714
 5128W        W 8647   8.585   6.157  11.786  0.1426 -0.2430 -0.1498
 5129W        W 8648   2.990   3.938   2.649 -0.0137  0.1452  0.0332
 5130W        W 8649   8.082   1.701  10.463 -0.0836 -0.0823 -0.2152
 5131W        W 8650   8.599   5.112   0.882  0.0813 -0.1035 -0.4026
 5132W        W 8651   2.320   8.606   3.052  0.3420 -0.3347 -0.2691
 5133W        W 8652   8.310   6.373  10.270  0.0256  0.1262 -0.0015
 5134W        W 8653   6.653   6.799  10.798  0.1701 -0.3218 -0.0533
 5135W        W 8654   6.470   0.715  12.015 -0.1553 -0.0990  0.1878
 5136W        W 8655   7.231   8.588   3.246  0.3874 -0.1483 -0.0015
 5137W        W 8656   0.580   8.549   1.987 -0.0020 -0.1207 -0.0741
 5138W        W 8657   9.489   4.706  11.729  0.0982 -0.1506 -0.1931
 5139W        W 8658   9.668   5.693  11.026 -0.0976 -0.1009  0.0240
 5140W        W 8659   8.679   2.772  11.584  0.0129 -0.1369 -0.0038
 5141W        W 8660   2.989   0.981   2.284  0.0642  0.1796 -0.0440
 5142W        W 8661   3.374   5.903   9.048 -0.2382  0.1109  0.1507
 5143W        W 8662   7.810   0.085  10.352 -0.1734  0.0784 -0.1131
 5144W        W 8663   9.139   5.132   2.556 -0.0098 -0.0508 -0.1704
 5145W        W 8664   3.633   6.907   8.043  0.1232 -0.1777  0.2082
 5146W        W 8665   4.182   7.425   0.892  0.0241 -0.1823 -0.4622
 5147W        W 8666   3.920   3.012  10.413 -0.2352 -0.0459 -0.1113
 5148W        W 8667   9.656   7.746   4.027  0.2070  0.1878 -0.1294
 5149W        W 8668   6.658   6.649   9.109 -0.0532 -0.3063 -0.2337
 5150W        W 8669   1.492   8.887   0.502 -0.1020 -0.1851  0.0382
 5151W        W 8670   3.422   8.795   9.356  0.2466 -0.0353 -0.1263
 5152W        W 8671   5.041   5.886   1.295 -0.0436 -0.0256 -0.2121
 5153W        W 8672   6.838   7.597  11.966 -0.2189 -0.4320  0.2158
 5154W        W 8673   1.091   9.495   2.583  0.1985 -0.1348  0.2552
 5155W        W 8674   8.513   5.792   4.332 -0.1557 -0.0242 -0.3403
 5156W        W 8675   0.650   4.944  10.109  0.3136 -0.3670  0.1881
 5157W        W 8676   7.060   2.091   8.934 -0.0576  0.1855  0.2591
 5158W        W 8677   2.689   5.157  11.732 -0.3443 -0.2762 -0.0497
 5159W        W 8678   6.231   7.537   8.077 -0.2459 -0.1190 -0.3024
 5160W        W 8679   6.258   8.727   1.236 -0.0309  0.1603 -0.1334
 5161W        W 8680   8.918   4.501   0.354  0.3426 -0.0418  0.1654
 5162W        W 8681   1.488   4.189  10.527  0.0654  0.1575  0.0189
 5163W        W 8682   1.411   7.650   2.680 -0.0560  0.2336  0.1808
 5164W        W 8683   7.621   1.904   9.678 -0.1498 -0.1887  0.1943
 5165W        W 8684   2.167   5.952   2.167  0.1467  0.0229  0.3482
 5166W        W 8685   8.240   8.208   0.647  0.1963  0.0191 -0.0285
 5167W        W 8686   1.479   8.043   3.016 -0.0267  0.2814  0.1716
 5168W        W 8687   6.041   2.754  10.645 -0.1453  0.3115 -0.2013
 5169W        W 8688   4.399   9.552   2.279 -0.1666 -0.1569 -0.2602
 5170W        W 8689   5.512   7.157   2.724  0.1789 -0.1129 -0.1700
 5171W        W 8690   0.665   6.970   9.085 -0.0131  0.2732  0.1667
 5172W        W 8691   4.712   5.457   1.482 -0.1028 -0.0415 -0.1644
 5173W        W 8692   3.520   1.229  11.003 -0.1067 -0.0188 -0.2256
 5174W        W 8693   5.597   5.902  10.175  0.1982  0.2526 -0.0356
 5175W        W 8694   2.390   9.615  10.124  0.0678 -0.1115  0.1474
 5176W        W 8695   2.319   4.411   2.314 -0.0058 -0.0902  0.0036
 5177W        W 8696   5.927   7.391   9.260  0.0368 -0.2192  0.0381
 5178W        W 8697   8.815   0.152  10.109 -0.1373  0.1423  0.0514
 5179W        W 8698   3.318   3.596  10.991 -0.1702  0.4905 -0.2355
 5180W        W 8699   1.968   9.606  11.349  0.4077  0.0569 -0.1403
 5181W        W 8700   8.615   2.158   0.764  0.2499  0.1160 -0.4230
 5182W        W 8701   4.785   2.418   9.031  0.5204  0.2266  0.4345
 5183W        W 8702   1.439   4.155   0.335  0.4623  0.1891  0.1470
 5184W        W 8703   9.666   3.831  11.102 -0.0883 -0.0578  0.2835
 5185W        W 8704   8.331   2.051  11.161 -0.0150  0.3871  0.0959
 5186W        W 8705   0.951   4.766  10.743  0.1020 -0.0445  0.3638
 5187W        W 8706   1.101   4.990   9.244 -0.1176  0.4540 -0.1491
 5188W        W 8707   4.650   5.125  11.251  0.0335  0.1123  0.1920
 5189W        W 8708   0.549   0.990  10.495  0.0770 -0.0255 -0.1428
 5190W        W 8709   1.204   2.445   3.437  0.2163  0.2766 -0.2113
 5191W        W 8710   5.941   7.708   1.534 -0.3012 -0.0558  0.5169
 5192W        W 8711   8.095   0.795  10.549 -0.1312  0.0624 -0.1538
 5193W        W 8712   4.691   7.381   0.847 -0.0105 -0.1961 -0.0423
 5194W        W 8713   7.208   2.692   8.611 -0.1874  0.0724 -0.0757
 5195W        W 8714   1.130   6.564   0.260 -0.0936 -0.3154  0.3515
 5196W        W 8715   1.347   8.918   0.029 -0.2148  0.1699  0.0707
 5197W        W 8716   7.226   8.810  11.639 -0.2637 -0.0963  0.0791
 5198W        W 8717   4.548   8.909   8.485  0.1391  0.0086  0.0044
 5199W        W 8718   3.821   0.945   0.297  0.1284  0.0470  0.1084
 5200W        W 8719   2.883   0.308  10.750  0.3519  0.0767  0.0400
 5201W        W 8720   8.089   4.957   3.411 -0.1451  0.0261  0.2190
 5202W        W 8721   4.438   4.238   9.225 -0.0226  0.1239  0.2025
 5203W        W 8722   0.237   6.433   4.356 -0.4629 -0.0230 -0.3458
 5204W        W 8723   1.792   8.167  11.593  0.2792 -0.0784 -0.0322
 5205W        W 8724   2.954   8.138  10.375  0.0575 -0.0612 -0.0333
 5206W        W 8725   3.949   8.659  11.305 -0.0676  0.2782  0.1222
 5207W        W 8726   7.574   5.097   9.334  0.1714 -0.3139 -0.0009
 5208W        W 8727   8.286   4.746   0.631 -0.2099  0.3182  0.1154
 5209W        W 8728   5.608   8.085   9.861  0.2294  0.2670 -0.1135
 5210W        W 8729   6.540   1.709   2.150  0.0873 -0.0249 -0.2723
 5211W        W 8730   7.609   6.845   3.323  0.1989 -0.2527  0.0698
 5212W        W 8731   0.214   5.019  11.833 -0.1407 -0.3423  0.1467
 5213W        W 8732   4.101   7.508   2.484  0.2460  0.1117  0.1573
 5214W        W 8733   7.133   7.392   0.825  0.1056 -0.0207 -0.1639
 5215W        W 8734   5.304   1.411   4.329  0.1817  0.0424 -0.0444
 5216W        W 8735   6.809   8.826   9.392 -0.0795  0.1211  0.1104
 5217W        W 8736   6.337   6.693  10.224  0.4595 -0.0777 -0.0967
 5218W        W 8737   1.208   5.183  11.596 -0.2313  0.4078 -0.0399
 5219W        W 8738   8.980   4.158   1.763 -0.1939 -0.0320  0.0654
 5220W        W 8739   5.710   8.685   8.476 -0.0802  0.0085  0.3638
 5221W        W 8740   8.751   0.928  11.261  0.2231  0.2335 -0.0641
 5222W        W 8741   9.125   0.342   1.892  0.2001  0.0476  0.1009
 5223W        W 8742   1.765   1.463   2.125  0.0894  0.0360  0.0450
 5224W        W 8743   8.608   9.460   2.841  0.0720  0.3194 -0.2889
 5225W        W 8744   0.487   8.823   0.205 -0.0962  0.0577 -0.1303
 5226W        W 8745   4.113   1.405  11.129  0.2044  0.0732 -0.0390
 5227W        W 8746   3.385   0.390  10.977  0.2582  0.1520 -0.0306
 5228W        W 8747   3.882   5.253   9.740  0.2467 -0.1870  0.0273
 5229W        W 8748   9.331   5.484  10.543  0.0090 -0.0583 -0.0675
 5230W        W 8749   1.955   2.771  10.006 -0.2624 -0.4583 -0.0062
 5231W        W 8750   4.505   2.212   8.603  0.0514  0.3541 -0.3786
 5232W        W 8751   0.195   8.625   2.341 -0.0035  0.0698  0.0514
 5233W        W 8752   9.242   1.475   1.701  0.2544  0.2609 -0.4599
 5234W        W 8753   3.799   1.228   2.857 -0.1200  0.0828 -0.2575
 5235W        W 8754   3.070   0.663   2.705 -0.1005  0.2497  0.1563
 5236W        W 8755   4.906   4.162   9.090  0.1745 -0.2302  0.1284
 5237W        W 8756   5.206   3.253   0.104 -0.0186  0.0899 -0.0410
 5238W        W 8757   4.008   4.460   1.581  0.0680  0.0076 -0.1741
 5239W        W 8758   1.890   0.586   9.687  0.2636  0.0878 -0.3294
 5240W        W 8759   1.781   4.298   1.169  0.0545 -0.2185  0.0149
 5241W        W 8760   0.635   5.603  12.351  0.3539  0.0866  0.2751
 5242W        W 8761   5.911   0.967   1.900 -0.0339  0.0129 -0.0773
 5243W        W 8762   2.323   1.562  11.335  0.3983 -0.0161 -0.0490
 5244W        W 8763   7.132   7.369   7.611 -0.0867 -0.1973  0.3447
 5245W        W 8764   4.134   4.955  10.112 -0.3239  0.1212 -0.1838
 5246W        W 8765   6.095   2.048  11.703 -0.1651 -0.1413 -0.0219
 5247W        W 8766   4.098   0.138   1.345  0.1128  0.0075  0.0348
 5248W        W 8767   1.646   6.187   1.537 -0.2207 -0.1634 -0.2293
 5249W        W 8768   7.217   6.394   3.390 -0.1193  0.0465  0.1902
 5250W        W 8769   4.324   6.588   1.630 -0.1193  0.2254 -0.0309
 5251W        W 8770   7.830   0.770  10.978 -0.0443 -0.1983 -0.0120
 5252W        W 8771   0.817   3.651   9.713  0.4303 -0.1857  0.1309
 5253W        W 8772   5.967   9.101   2.792 -0.1601 -0.1159 -0.0396
 5254W        W 8773   7.608   4.075   0.100  0.0913 -0.2281  0.0053
 5255W        W 8774   1.174   4.955   1.634 -0.1517 -0.2762  0.2081
 5256W        W 8775   8.493   6.571   3.741  0.0168  0.0307 -0.0530
 5257W        W 8776   5.520   0.199   1.594  0.3980 -0.0434  0.1315
 5258W        W 8777   7.494   4.349   8.620 -0.3434  0.0183  0.0547
 5259W        W 8778   7.617   8.895   3.195  0.1209  0.2360 -0.2162
 5260W        W 8779   7.232   6.715   9.881  0.0418  0.0589 -0.2356
 5261W        W 8780   1.716   4.944  10.712  0.0913 -0.0603 -0.0071
 5262W        W 8781   7.565   3.010  12.466 -0.2223 -0.2337  0.3266
 5263W        W 8782   6.233   6.935   2.561 -0.1757  0.1467  0.0075
 5264W        W 8783   9.323   1.459  10.000 -0.3451  0.0721  0.0669
 5265W        W 8784   5.522   9.540  12.155  0.1634 -0.0415  0.1463
 5266W        W 8785   6.489   2.410   8.169  0.1012  0.0777  0.0855
 5267W        W 8786   0.346   0.312   2.240  0.3349  0.1071 -0.1945
 5268W        W 8787   4.191   3.247  11.810  0.0486 -0.2928  0.1558
 5269W        W 8788   6.423   0.223   8.894 -0.3927  0.1387 -0.2606
 5270W        W 8789   3.041   5.267   3.203  0.3936  0.0379  0.0255
 5271W        W 8790   3.264   9.110  12.176  0.2253  0.0704 -0.1088
 5272W        W 8791   3.092   9.238   2.045 -0.2587 -0.2427 -0.1924
 5273W        W 8792   7.197   4.430  10.955  0.1917 -0.0081  0.0834
 5274W        W 8793   7.883   3.407   2.430  0.3577 -0.3371 -0.2444
 5275W        W 8794   4.579   9.495  12.409  0.1359  0.3798 -0.2529
 5276W        W 8795   2.836   8.355   1.305 -0.0266  0.0765 -0.0143
 5277W        W 8796   1.593   1.293   1.285  0.0777  0.0904 -0.0028
 5278W        W 8797   0.996   9.209  11.549  0.4100 -0.2035  0.1434
 5279W        W 8798   8.761   2.427  11.905 -0.0323 -0.0549  0.1961
 5280W        W 8799   4.084   9.019   1.108 -0.1740  0.0324 -0.1606
 5281W        W 8800   5.634   0.509   2.479 -0.0541 -0.1146 -0.1221
 5282W        W 8801   6.993   5.283   0.239  0.2373 -0.0337 -0.1080
 5283W        W 8802   5.976   2.631   0.016 -0.0907  0.0750  0.0189
 5284W        W 8803   9.558   6.465   4.132 -0.0891 -0.0559 -0.4954
 5285W        W 8804   3.302   8.206   9.985 -0.3232 -0.1968 -0.2179
 5286W        W 8805   3.938   6.018   9.816 -0.1944  0.0719 -0.0804
 5287W        W 8806   6.120   3.322   1.207 -0.0647 -0.1830 -0.2324
 5288W        W 8807   8.264   0.377  10.285  0.1447 -0.5862  0.0102
 5289W        W 8808   9.225   9.007   0.046  0.1761 -0.1207 -0.1630
 5290W        W 8809   9.705   3.668   2.757 -0.1665  0.4606 -0.0120
 5291W        W 8810   1.933   5.742  11.884 -0.1832  0.1090 -0.1462
 5292W        W 8811   9.237   5.979  10.586  0.3355 -0.3074 -0.1142
 5293W        W 8812   8.578   5.723   3.764  0.0047 -0.0644 -0.0420
 5294W        W 8813   3.371   7.321   4.575  0.0066 -0.2553 -0.1995
 5295W        W 8814   4.692   7.403  10.864  0.1752  0.4035 -0.2868
 5296W        W 8815   7.128   5.405  10.138  0.0427 -0.2837  0.1649
 5297W        W 8816   8.254   8.719   2.251 -0.0500 -0.0496  0.1720
 5298W        W 8817   2.278   8.952   1.069 -0.1922  0.1636  0.0955
 5299W        W 8818   5.927   4.041  10.464 -0.2157  0.1405 -0.0443
 5300W        W 8819   2.908   5.879  11.502  0.0238 -0.0576 -0.0710
 5301W        W 8820   1.444   8.933   3.218 -0.2185  0.0509  0.0392
 5302W        W 8821   2.094   4.555   1.760 -0.1842 -0.1481 -0.2821
 5303W        W 8822   1.027   1.253   3.875  0.0281 -0.4855  0.4659
 5304W        W 8823   7.372   2.097   0.463  0.0709  0.1156 -0.2979
 5305W        W 8824   7.816   7.313   3.835 -0.0329  0.1677  0.2138
 5306W        W 8825   8.802   1.660   3.571 -0.1737 -0.2044  0.1761
 5307W        W 8826   7.090   5.810  12.391 -0.1958 -0.1652  0.1249
 5308W        W 8827   2.576   5.960   8.282 -0.0377  0.1689 -0.1023
 5309W        W 8828   3.217   0.055   3.112 -0.0981 -0.0074 -0.0526
 5310W        W 8829   8.949   2.304   1.625  0.2324 -0.1781 -0.0443
 5311W        W 8830   7.817   2.621   2.189 -0.0657  0.3104 -0.0009
 5312W        W 8831   8.563   8.625  11.315  0.1907 -0.1744  0.0292
 5313W        W 8832   2.219   9.054  11.300  0.0107  0.1262  0.1251
 5314W        W 8833   3.720   9.385  11.999 -0.0597 -0.0952 -0.1088
 5315W        W 8834   0.932   5.972  12.040 -0.3104 -0.0681  0.0041
 5316W        W 8835   8.630   0.432   4.654  0.1369 -0.0780 -0.1131
 5317W        W 8836   6.164   5.435   9.323 -0.2170  0.3135  0.0192
 5318W        W 8837   3.293   6.998   1.024 -0.3627  0.2049  0.3148
 5319W        W 8838   9.244   0.145  12.454  0.1318  0.0505 -0.3852
 5320W        W 8839   6.146   8.196  11.169 -0.3135 -0.1783  0.0072
 5321W        W 8840   9.153   8.337   3.994 -0.0936 -0.0578  0.1642
 5322W        W 8841   5.441   3.701   2.245 -0.0109 -0.2067  0.0904
 5323W        W 8842   1.288   3.540   2.198  0.2748  0.0345  0.3016
 5324W        W 8843   5.474   5.963  10.702  0.0106 -0.0679 -0.0708
 5325W        W 8844   3.860   5.060   2.170  0.1157 -0.4187  0.0980
 5326W        W 8845   2.984   8.704  10.593  0.2172  0.2697 -0.3210
 5327W        W 8846   1.627   0.074   0.115 -0.2500  0.0678  0.0671
 5328W        W 8847   3.528   2.275   8.670  0.1218 -0.4255  0.1054
 5329W        W 8848   9.519   0.010  12.022 -0.3264 -0.1397  0.1876
 5330W        W 8849   9.525   3.105   3.716 -0.1075  0.3751  0.0568
 5331W        W 8850   9.282   7.573  10.177 -0.3013  0.0051 -0.1580
 5332W        W 8851   6.844   3.061  10.844  0.0867 -0.1435 -0.0008
 5333W        W 8852   6.633   8.590  10.246  0.0508 -0.0161 -0.1066
 5334W        W 8853   2.040   9.566   4.143 -0.1181 -0.1461 -0.1378
 5335W        W 8854   6.060   5.359   0.020 -0.1097 -0.1510 -0.0973
 5336W        W 8855   9.709   1.580   1.946 -0.2118 -0.0091  0.1534
 5337W        W 8856   7.040   5.049   3.278  0.2020  0.2901  0.0534
 5338W        W 8857   7.696   6.408   3.188 -0.0369  0.1147 -0.1478
 5339W        W 8858   1.766   9.565  11.816 -0.0424 -0.1869  0.0508
 5340W        W 8859   4.530   6.711   3.619 -0.3232 -0.3161 -0.2802
 5341W        W 8860   8.570   9.250   1.927 -0.0743 -0.0798 -0.2911
 5342W        W 8861   7.067   5.322   0.737 -0.0097  0.0894  0.0356
 5343W        W 8862   7.002   4.360   8.820 -0.1115 -0.2345  0.2610
 5344W        W 8863   9.201   2.248   9.258 -0.1887 -0.3803  0.0697
 5345W        W 8864   8.504   4.765   8.357 -0.2710 -0.0312 -0.1288
 5346W        W 8865   5.193   9.605  10.402 -0.3346 -0.1330 -0.2760
 5347W        W 8866   7.876   5.392   3.305  0.1094  0.2455  0.0298
 5348W        W 8867   7.285   3.188   9.233  0.0936  0.2996 -0.0206
 5349W        W 8868   8.626   2.886   3.900 -0.3795  0.1709  0.1252
 5350W        W 8869   6.111   3.683   4.044  0.1328  0.0753 -0.1741
 5351W        W 8870   2.455   1.115   9.912  0.4558 -0.1039  0.0514
 5352W        W 8871   8.704   6.488  11.313 -0.0491 -0.0362  0.2379
 5353W        W 8872   0.568   2.036   0.711 -0.1548 -0.0329  0.2615
 5354W        W 8873   3.107   7.119   9.407 -0.1548  0.0614  0.1612
 5355W        W 8874   4.239   8.159  12.190  0.0796 -0.3349  0.1146
 5356W        W 8875   0.227   4.196   9.926 -0.1932 -0.4010  0.2157
 5357W        W 8876   3.205   9.212   0.736  0.1739  0.0928  0.0062
 5358W        W 8877   4.259   4.501  10.475 -0.4940 -0.2699  0.1972
 5359W        W 8878   5.933   3.299   2.833  0.0225 -0.1173 -0.2519
 5360W        W 8879   3.508   7.492   0.225  0.0315 -0.0440 -0.0295
 5361W        W 8880   2.447   7.390  10.008  0.1999 -0.0999  0.0651
 5362W        W 8881   0.343   9.318  10.871  0.0567  0.0781  0.0845
 5363W        W 8882   5.226   5.917   9.723 -0.1426 -0.1462  0.0161
 5364W        W 8883   4.063   7.381   0.330 -0.0964 -0.0557 -0.0685
 5365W        W 8884   8.114   2.554  10.561  0.3021 -0.1278 -0.0794
 5366W        W 8885   8.539   7.128   2.383 -0.1365 -0.1933  0.0651
 5367W        W 8886   9.261   8.598   8.482  0.1891 -0.0911 -0.2837
 5368W        W 8887   3.273   7.584   0.742  0.2330 -0.0178  0.2192
 5369W        W 8888   7.532   0.911   8.113  0.2142  0.4894  0.2937
 5370W        W 8889   4.737   8.984  12.413 -0.0191 -0.0428 -0.0258
 5371W        W 8890   0.299   5.330  10.321  0.2704 -0.2096  0.1690
 5372W        W 8891   8.985   3.563   8.192  0.0497  0.2021 -0.0795
 5373W        W 8892   4.094   1.983   3.667 -0.1254 -0.0266  0.1336
 5374W        W 8893   0.616   0.337   8.436 -0.1480  0.0292  0.0842
 5375W        W 8894   7.098   8.785  10.273  0.0549 -0.0370 -0.1777
 5376W        W 8895   2.910   7.130   1.334 -0.2461  0.2392  0.4275
 5377W        W 8896   2.181   3.426  12.015  0.1083 -0.1507 -0.0592
 5378W        W 8897   3.282   8.102   9.451  0.1181 -0.0715 -0.0016
 5379W        W 8898   1.707   3.271   2.200 -0.0686  0.1754 -0.0653
 5380W        W 8899   1.321   8.854  11.294 -0.0262 -0.1157 -0.2948
 5381W        W 8900   7.407   4.907   0.063  0.2149  0.0070  0.1144
 5382W        W 8901   2.786   2.300   3.101  0.1165 -0.1535 -0.1108
 5383W        W 8902   0.791   8.382   8.807 -0.1042 -0.0711  0.2481
 5384W        W 8903   4.230   3.037   9.138 -0.1096 -0.0686 -0.1464
 5385W        W 8904   1.601   1.015   0.254 -0.0826  0.0556  0.0860
 5386W        W 8905   8.443   2.416   8.764  0.1922 -0.0227 -0.2868
 5387W        W 8906   0.462   9.373  10.389  0.0967 -0.1151 -0.0864
 5388W        W 8907   6.770   7.743   2.683  0.2175 -0.0415  0.0363
 5389W        W 8908   9.362   5.195   3.852  0.2803  0.2747 -0.3128
 5390W        W 8909   7.485   7.276  11.100  0.0140 -0.0756  0.1135
 5391W        W 8910   9.035   0.164   4.644  0.1035  0.3232  0.1308
 5392W        W 8911   6.340   7.709   2.356  0.0336  0.1399 -0.3344
 5393W        W 8912   5.583   5.321  12.345 -0.2641  0.1326 -0.2322
 5394W        W 8913   8.443   0.988  12.106  0.0248 -0.1006 -0.0722
 5395W        W 8914   8.515   7.691   0.620  0.0457  0.0119  0.0398
 5396W        W 8915   1.263   7.344   0.860 -0.0384 -0.0574  0.1741
 5397W        W 8916   4.734   8.493   9.510  0.2165  0.1579 -0.2463
 5398W        W 8917   8.787   7.199  10.102  0.1255  0.0815  0.1769
 5399W        W 8918   4.297   2.714  11.274  0.0196 -0.0006 -0.3554
 5400W        W 8919   4.752   4.396   9.610  0.1326 -0.1593  0.0442
 5401W        W 8920   7.675   6.523   3.678  0.1781 -0.0083 -0.1093
 5402W        W 8921   7.324   6.182  11.659 -0.1071  0.1610 -0.0978
 5403W        W 8922   5.063   1.919   2.229  0.1619  0.2599 -0.1506
 5404W        W 8923   0.641   7.937   8.108 -0.3118  0.3718 -0.3393
 5405W        W 8924   3.900   4.561  12.151  0.2454 -0.4426 -0.1256
 5406W        W 8925   4.803   5.939  11.467 -0.1037  0.0516 -0.2738
 5407W        W 8926   4.976   1.103  10.887 -0.3728 -0.3637  0.1059
 5408W        W 8927   9.173   3.130   1.959 -0.1193 -0.0285 -0.0148
 5409W        W 8928   1.409   1.349  12.342  0.1412  0.3846  0.2072
 5410W        W 8929   2.251   1.545  10.806 -0.0998 -0.0196 -0.2857
 5411W        W 8930   5.170   6.539   4.263 -0.0136  0.1442 -0.0669
 5412W        W 8931   0.948   3.757  10.683 -0.2460  0.1837 -0.1917
 5413W        W 8932   2.507   0.426  12.326 -0.0624 -0.3872  0.0108
 5414W        W 8933   7.557   3.354  10.356  0.1891 -0.0347  0.1351
 5415W        W 8934   9.405   7.930  11.625  0.0523  0.2664  0.0966
 5416W        W 8935   3.741   2.972  11.128 -0.1928 -0.1880 -0.1889
 5417W        W 8936   6.054   9.567   2.960 -0.1691 -0.0557 -0.0508
 5418W        W 8937   1.627   9.172   1.803 -0.0029 -0.0376  0.2687
 5419W        W 8938   2.941   0.072  10.291 -0.1906  0.1345 -0.1127
 5420W        W 8939   4.979   6.982   9.919 -0.4060  0.0836 -0.0652
 5421W        W 8940   1.351   3.772   1.742 -0.0668  0.4331  0.1855
 5422W        W 8941   2.068   2.511   9.153  0.0965 -0.2764  0.1113
 5423W        W 8942   0.417   2.707   4.478  0.0573 -0.2584 -0.2233
 5424W        W 8943   0.113   3.955   1.530 -0.4923  0.0092 -0.5229
 5425W        W 8944   6.123   5.830  12.455 -0.1296  0.2470  0.2499
 5426W        W 8945   3.103   0.238   8.431  0.1947  0.1434 -0.0595
 5427W        W 8946   6.920   9.127   1.968  0.0801  0.1077 -0.4803
 5428W        W 8947   8.461   8.620   2.749 -0.0216  0.3620 -0.0430
 5429W        W 8948   5.534   3.521  12.185  0.1715 -0.3102 -0.0875
 5430W        W 8949   9.141   3.863  10.234 -0.1670  0.3598  0.2255
 5431W        W 8950   1.268   1.250   8.880 -0.3073 -0.0040  0.0370
 5432W        W 8951   6.015   2.962  12.089  0.0870 -0.0968 -0.0078
 5433W        W 8952   5.540   0.114  11.306  0.0562 -0.4089 -0.2581
 5434W        W 8953   9.276   8.244   9.397 -0.0131  0.1437 -0.1092
 5435W        W 8954   8.381   0.235  11.123 -0.0417  0.0142 -0.3658
 5436W        W 8955   5.339   2.028   9.078 -0.2044  0.1125  0.1761
 5437W        W 8956   6.067   1.027   0.528 -0.0493 -0.0194 -0.1423
 5438W        W 8957   9.197   7.202   2.909  0.0118  0.1318  0.3753
 5439W        W 8958   5.386   0.239   2.925  0.2491  0.1677 -0.0074
 5440W        W 8959   8.389   8.119   3.526  0.2341 -0.3105 -0.1308
 5441W        W 8960   4.978   0.847  11.700  0.2045  0.2597 -0.0269
 5442W        W 8961   5.054   5.484   3.415  0.2119  0.2914  0.2223
 5443W        W 8962   0.349   7.497   0.567  0.2101  0.1720 -0.2089
 5444W        W 8963   5.939   8.747   2.339  0.0624 -0.0359  0.1557
 5445W        W 8964   5.857   8.002   9.461  0.0369  0.0766  0.0592
 5446W        W 8965   3.131   0.116   9.012  0.0764  0.1527  0.1751
 5447W        W 8966   1.348   8.239   9.600 -0.1409  0.2878  0.0313
 5448W        W 8967   7.334   1.611   8.833  0.1885  0.2547 -0.1937
 5449W        W 8968   1.134   6.647  10.851 -0.0719  0.0744 -0.1335
 5450W        W 8969   7.672   4.500  12.286 -0.0587 -0.1602 -0.1814
 5451W        W 8970   3.357   2.260   2.152  0.0184 -0.0612  0.0420
 5452W        W 8971   2.367   0.644   9.844  0.1840  0.2242 -0.4606
 5453W        W 8972   0.808   3.355  11.124 -0.1044 -0.1597  0.1953
 5454W        W 8973   5.579   1.208  10.196  0.1220 -0.1409 -0.0877
 5455W        W 8974   9.685   6.258  10.463 -0.0126  0.1564 -0.0463
 5456W        W 8975   6.754   2.779   0.639  0.0134 -0.3775  0.0386
 5457W        W 8976   4.372   4.714   0.537  0.0978  0.1515 -0.1486
 5458W        W 8977   4.914   7.918   3.587  0.0457 -0.5072 -0.0136
 5459W        W 8978   5.280   2.741  10.887 -0.1775 -0.0866  0.2176
 5460W        W 8979   3.530   9.725  12.431 -0.0013  0.0497  0.2305
 5461W        W 8980   7.013   3.359  12.410 -0.0954  0.0794  0.0416
 5462W        W 8981   7.540   8.824   4.569  0.0847 -0.3391 -0.0360
 5463W        W 8982   8.031   0.773   1.450  0.0097  0.1073  0.2859
 5464W        W 8983   0.283   6.751   1.537 -0.0467 -0.1597  0.0928
 5465W        W 8984   1.135   9.246   1.617 -0.1299  0.0559  0.1173
 5466W        W 8985   2.633   7.572   1.590  0.0361  0.1248  0.0256
 5467W        W 8986   3.304   9.204  10.811  0.1533 -0.1101  0.2868
 5468W        W 8987   3.069   7.143   0.585 -0.0999 -0.1111 -0.2029
 5469W        W 8988   0.787   1.383  10.218 -0.4801 -0.0789 -0.1985
 5470W        W 8989   5.964   4.183   0.787 -0.1480 -0.0601 -0.1822
 5471W        W 8990   7.175   5.455   9.240  0.0834 -0.0106  0.2114
 5472W        W 8991   6.048   4.094   0.216  0.2270 -0.1832  0.0590
 5473W        W 8992   0.994   7.303   9.894  0.2398  0.0706  0.1984
 5474W        W 8993   3.797   6.610   9.144 -0.2869  0.0271 -0.4771
 5475W        W 8994   3.643   6.670  11.708 -0.1942 -0.1968 -0.0829
 5476W        W 8995   5.672   1.899   2.953 -0.2158  0.1061 -0.1686
 5477W        W 8996   4.842   6.652   3.246  0.6121 -0.3310  0.2599
 5478W        W 8997   0.427   6.307  11.252 -0.3323  0.0659  0.2558
 5479W        W 8998   2.670   1.728  10.576  0.3756 -0.2165 -0.1231
 5480W        W 8999   1.778   1.287   3.028  0.1497  0.0724 -0.1298
 5481W        W 9000   6.568   7.236   3.904 -0.1698  0.2264  0.0388
 5482W        W 9001   4.715   6.318   2.874  0.1743  0.0143 -0.3248
 5483W        W 9002   2.600   7.043   0.376  0.1074  0.0152 -0.1031
 5484W        W 9003   6.497   3.986   2.504 -0.0208 -0.1834 -0.1484
 5485W        W 9004   4.631   0.884   3.251 -0.3457 -0.0388  0.1894
 5486W        W 9005   3.018   8.255   2.202  0.3675 -0.0913 -0.3410
 5487W        W 9006   3.735   0.932   3.399 -0.2112 -0.1448  0.1884
 5488W        W 9007   4.607   6.144  12.099 -0.0714  0.0284  0.1553
 5489W        W 9008   1.285   1.578   2.306  0.0263 -0.0727 -0.0939
 5490W        W 9009   5.380   2.712   0.179 -0.0963  0.2061 -0.2327
 5491W        W 9010   0.056   2.812   4.084  0.3324  0.1888  0.1778
 5492W        W 9011   6.891   9.164  10.639 -0.1612 -0.1398 -0.1878
 5493W        W 9012   2.290   1.072   3.376 -0.1131  0.1337 -0.3274
 5494W        W 9013   1.483   4.483   3.175  0.0283  0.0409 -0.0516
 5495W        W 9014   3.295   3.317   2.042 -0.3417 -0.0856 -0.1600
 5496W        W 9015   0.626   9.275   2.477 -0.1102  0.0831 -0.3523
 5497W        W 9016   3.723   7.961   0.028  0.1894  0.1947 -0.3257
 5498W        W 9017   8.186   4.706   1.471 -0.0106  0.1096 -0.1915
 5499W        W 9018   7.416   1.089   0.224  0.2587  0.2434 -0.0305
 5500W        W 9019   0.703   2.784   2.694 -0.1861 -0.2044  0.3347
 5501W        W 9020   0.163   4.954   3.811  0.0826 -0.4610 -0.3138
 5502W        W 9021   7.989   0.185   9.830 -0.1354 -0.1949 -0.0200
 5503W        W 9022   3.259   1.933  10.244  0.0677  0.1293  0.2112
 5504W        W 9023   0.456   8.062   9.276  0.0879  0.0890 -0.4680
 5505W        W 9024   1.369   2.123  10.500  0.4301 -0.1647  0.3270
 5506W        W 9025   3.719   9.276   0.022  0.1887  0.0522 -0.1021
 5507W        W 9026   2.892   1.080   8.347  0.0750  0.0306  0.1311
 5508W        W 9027   8.492   2.224   1.314  0.3716 -0.0526  0.1088
 5509W        W 9028   1.156   6.568  10.375  0.0231  0.4098  0.0755
 5510W        W 9029   6.477   8.513   9.551  0.0751 -0.0067 -0.1569
 5511W        W 9030   1.460   0.310   2.979 -0.3171 -0.4274  0.1381
 5512W        W 9031   2.754   2.535   8.259  0.1734  0.0794  0.2421
 5513W        W 9032   6.872   8.765   4.279  0.3847 -0.0370  0.0389
 5514W        W 9033   8.588   9.087  12.446  0.1933 -0.1057  0.4051
 5515W        W 9034   1.538   5.518   0.187  0.2812  0.2193  0.0989
 5516W        W 9035   1.754   7.084   2.127  0.1208 -0.1985  0.2472
 5517W        W 9036   9.069   8.723   3.235  0.0655 -0.0875  0.0055
 5518W        W 9037   9.175   7.636  12.083  0.3051  0.0101  0.3040
 5519W        W 9038   0.848   6.997  10.199  0.2500  0.2298 -0.2050
 5520W        W 9039   0.920   2.217   9.014 -0.0270  0.3378  0.2134
 5521W        W 9040   7.399   5.318   3.115  0.2033 -0.2983  0.2222
 5522W        W 9041   6.290   4.846  10.858 -0.0978 -0.3353  0.2747
 5523W        W 9042   5.608   0.423   9.612  0.1804 -0.1503 -0.2828
 5524W        W 9043   2.552   7.342   3.463 -0.0428  0.0539  0.0804
 5525W        W 9044   0.573   4.510   2.591  0.0871 -0.0244 -0.0419
 5526W        W 9045   1.773   1.416   9.720 -0.2764 -0.1468 -0.0208
 5527W        W 9046   7.668   1.809   8.400  0.2103 -0.0785  0.3537
 5528W        W 9047   7.656   1.112   1.527 -0.0680 -0.0340  0.1970
 5529W        W 9048   5.112   5.650   4.182 -0.0312  0.0594  0.2504
 5530W        W 9049   1.927   5.264   1.604 -0.1669  0.2964  0.0983
 5531W        W 9050   1.918   6.670   9.362 -0.1813  0.1801  0.0021
 5532W        W 9051   9.531   1.581   0.289 -0.0858  0.1185 -0.0228
 5533W        W 9052   1.687   0.558   0.871  0.1134  0.5273 -0.0442
 5534W        W 9053   6.091   4.974   2.810  0.1036 -0.0789 -0.3640
 5535W        W 9054   4.276   3.656   1.225  0.0543  0.1047  0.0971
 5536W        W 9055   8.520   0.133  10.659  0.0913  0.3066 -0.0980
 5537W        W 9056   4.122   2.671   2.460 -0.2810  0.1352 -0.0459
 5538W        W 9057   3.143   9.259  11.271 -0.0032  0.2111  0.2701
 5539W        W 9058   3.044   1.873   1.017  0.2520 -0.2416  0.1421
 5540W        W 9059   1.991   6.927   3.875 -0.0402  0.2133 -0.3788
 5541W        W 9060   7.414   0.694   2.159 -0.2756  0.1246  0.0062
 5542W        W 9061   1.694   6.724   2.598  0.1003 -0.4203 -0.1660
 5543W        W 9062   6.982   3.074   4.484 -0.1468  0.0098 -0.0484
 5544W        W 9063   5.075   3.653  10.245 -0.0632  0.5464  0.2247
 5545W        W 9064   6.728   0.463   0.082 -0.1697  0.1958 -0.2189
 5546W        W 9065   6.904   1.233   1.017 -0.0319  0.0283 -0.1116
 5547W        W 9066   9.725   2.386  10.684  0.0111  0.2233 -0.1939
 5548W        W 9067   0.452   5.665   2.736 -0.3491  0.0981  0.0291
 5549W        W 9068   3.228   4.354  10.728  0.0688  0.2418  0.2209
 5550W        W 9069   3.627   5.712   2.214 -0.0344 -0.0057  0.1441
 5551W        W 9070   4.950   1.732  12.469 -0.0413 -0.1912 -0.1708
 5552W        W 9071   4.072   5.454   2.372  0.2923 -0.1252 -0.1482
 5553W        W 9072   8.539   2.959   2.786 -0.0588 -0.1898 -0.0602
 5554W        W 9073   8.622   3.987   2.632 -0.0410 -0.0826 -0.3423
 5555W        W 9074   8.077   2.979   0.921  0.0396  0.1220  0.1794
 5556W        W 9075   6.123   2.665   8.403 -0.2038  0.1347  0.1240
 5557W        W 9076   0.005   6.710   2.225 -0.2299  0.3644 -0.3762
 5558W        W 9077   0.880   5.820   0.996 -0.0953  0.0076 -0.1063
 5559W        W 9078   3.192   3.602   9.837 -0.3225 -0.0817 -0.0741
 5560W        W 9079   4.108   8.500   3.596 -0.0995 -0.1777 -0.0645
 5561W        W 9080   5.226   6.505  10.743  0.2368  0.0085  0.2870
 5562W        W 9081   0.997   3.351   8.674 -0.1062  0.2100 -0.1698
 5563W        W 9082   7.679   1.243   9.276  0.0396  0.0003  0.2901
 5564W        W 9083   6.667   5.663   9.179  0.1656 -0.0376 -0.1437
 5565W        W 9084   3.495   8.009  11.610 -0.1130  0.0821  0.1491
 5566W        W 9085   6.442   7.266   9.296 -0.3237  0.1909 -0.3421
 5567W        W 9086   5.288   1.299   0.243  0.0395 -0.2833  0.0360
 5568W        W 9087   9.661   3.825   9.928 -0.0238 -0.0083  0.2309
 5569W        W 9088   2.788   4.446   9.085  0.0289 -0.3133 -0.1337
 5570W        W 9089   8.405   8.144   9.341 -0.0632  0.0511  0.2380
 5571W        W 9090   9.257   2.164   3.166 -0.2028  0.0833 -0.2347
 5572W        W 9091   4.745   0.054  10.519 -0.2569 -0.3166  0.1138
 5573W        W 9092   0.570   7.910   2.607  0.1309 -0.2192 -0.1418
 5574W        W 9093   5.881   6.843  11.537  0.1072 -0.0493 -0.0354
 5575W        W 9094   6.852   2.409  12.312 -0.3213 -0.0374  0.0265
 5576W        W 9095   0.492   0.075  10.071 -0.0923 -0.1344 -0.0238
 5577W        W 9096   1.496   7.053  11.886 -0.0845  0.1208  0.1845
 5578W        W 9097   4.763   2.321   1.313  0.3002  0.0271 -0.2301
 5579W        W 9098   8.001   8.989   4.413 -0.3210 -0.2475  0.0317
 5580W        W 9099   6.319   2.250   1.390 -0.2266  0.1651  0.0833
 5581W        W 9100   7.297   0.789   3.790  0.0721  0.2164 -0.1643
 5582W        W 9101   5.379   7.752   3.848 -0.1584 -0.0358 -0.0399
 5583W        W 9102   4.263   0.075   2.740 -0.3282  0.1246 -0.1175
 5584W        W 9103   9.051   3.062   9.869 -0.3815  0.0558 -0.1157
 5585W        W 9104   2.014   0.895   0.625 -0.1620  0.0369  0.1063
 5586W        W 9105   0.828   4.686   1.916  0.1563 -0.0891  0.1080
 5587W        W 9106   8.015   2.417   2.651 -0.0613  0.2169 -0.2278
 5588W        W 9107   1.962   2.528  11.068 -0.2081  0.1495  0.0035
 5589W        W 9108   0.292   5.472   1.637  0.2504 -0.1086 -0.0654
 5590W        W 9109   2.387   6.847   3.453  0.0125  0.1206  0.4381
 5591W        W 9110   8.972   4.174   2.914  0.2635 -0.0331 -0.1150
 5592W        W 9111   2.836   0.152   4.036 -0.1325  0.1044  0.0098
 5593W        W 9112   7.541   7.761   3.694 -0.2561  0.1467 -0.1427
 5594W        W 9113   8.025   0.269   8.874 -0.1808  0.1757  0.0554
 5595W        W 9114   8.104   5.693  12.074  0.2596  0.0689 -0.2952
 5596W        W 9115   6.192   8.884   1.872  0.1662 -0.2088  0.1082
 5597W        W 9116   7.240   5.732   2.763  0.1448  0.0839 -0.1928
 5598W        W 9117   3.312   6.625   3.337 -0.0947 -0.0230  0.3237
 5599W        W 9118   2.533   5.271   8.600 -0.0853 -0.0703  0.2074
 5600W        W 9119   8.169   1.778   2.146  0.1099  0.1670 -0.2529
 5601W        W 9120   1.842   8.966  12.044 -0.2062 -0.3232  0.1008
 5602W        W 9121   1.354   1.971   9.054 -0.0568 -0.0308 -0.1901
 5603W        W 9122   2.959   6.418  10.600  0.0999  0.1134 -0.1270
 5604W        W 9123   3.871   5.894   0.553 -0.1240  0.1090  0.1607
 5605W        W 9124   4.324   4.824  12.241  0.0234  0.1030 -0.0936
 5606W        W 9125   9.270   8.978   9.518  0.2037 -0.2427 -0.1090
 5607W        W 9126   6.998   1.312   9.654 -0.2632 -0.1490  0.1288
 5608W        W 9127   5.476   1.958  11.005  0.1697 -0.1863  0.0702
 5609W        W 9128   3.264   9.399  10.135 -0.2096  0.0505 -0.2473
 5610W        W 9129   5.399   7.809  11.899  0.0299  0.1915 -0.1770
 5611W        W 9130   7.332   5.799   9.690 -0.2419 -0.0451  0.0837
 5612W        W 9131   7.817   8.902  11.639 -0.1065 -0.1709  0.0675
 5613W        W 9132   6.038   8.092   1.866  0.0812 -0.0830 -0.2720
 5614W        W 9133   1.558   4.264  11.821 -0.2262  0.0366 -0.2831
 5615W        W 9134   4.227   0.157  11.182 -0.2437  0.0150 -0.1991
 5616W        W 9135   7.079   0.333   9.489 -0.0900  0.1320 -0.0265
 5617W        W 9136   0.053   8.260   9.187 -0.1736 -0.1861 -0.0109
 5618W        W 9137   5.380   6.794  11.341  0.3062 -0.3055  0.2309
 5619W        W 9138   7.690   8.254  11.000 -0.3117  0.2704  0.2084
 5620W        W 9139   8.870   2.580   2.651 -0.1592  0.0491  0.1007
 5621W        W 9140   8.085   2.126   9.755  0.1718 -0.0105  0.2900
 5622W        W 9141   0.817   5.984  11.147  0.4102 -0.2735  0.1712
 5623W        W 9142   8.103   2.561   1.235  0.0052  0.1649  0.2077
 5624W        W 9143   3.425   7.270   9.799  0.2342 -0.1414 -0.3505
 5625W        W 9144   4.980   2.398   3.533 -0.1397  0.1155  0.3107
 5626W        W 9145   2.803   6.640   0.086  0.1871 -0.2162  0.0299
 5627W        W 9146   4.337   9.188   8.961  0.1274 -0.0357 -0.2108
 5628W        W 9147   6.722   8.657   3.499  0.0204 -0.0079 -0.1139
 5629W        W 9148   1.598   8.053   2.455  0.0078  0.3300  0.1762
 5630W        W 9149   1.480   3.864   0.848  0.4556  0.2445  0.2041
 5631W        W 9150   6.054   5.831   8.474  0.1280 -0.1463  0.0657
 5632W        W 9151   1.493   7.300   8.785 -0.1955 -0.1326 -0.1382
 5633W        W 9152   7.328   3.749   3.498 -0.0760  0.1449  0.1653
 5634W        W 9153   4.168   4.675   1.025  0.1324 -0.0260 -0.0754
 5635W        W 9154   9.427   6.866   2.600 -0.0217  0.2683  0.3046
 5636W        W 9155   8.684   8.177   9.802  0.3658  0.0348  0.2002
 5637W        W 9156   2.422   1.315   2.934 -0.3099 -0.1361 -0.0166
 5638W        W 9157   3.119   3.450   2.525  0.1906  0.0517  0.3351
 5639W        W 9158   7.194   6.074   4.290  0.2366 -0.3599 -0.1864
 5640W        W 9159   1.618   3.500   3.850  0.2406  0.1061 -0.0690
 5641W        W 9160   2.126   3.066  10.940 -0.0387 -0.0362 -0.0331
 5642W        W 9161   2.451   6.874   9.234 -0.0203  0.1982 -0.0727
 5643W        W 9162   6.501   7.960   8.164  0.0064  0.1677 -0.2314
 5644W        W 9163   9.214   6.892   1.143 -0.1391 -0.0959 -0.0811
 5645W        W 9164   2.384   7.269  11.454  0.0286  0.1036 -0.2735
 5646W        W 9165   5.733   3.228   0.447  0.2026  0.1710  0.1602
 5647W        W 9166   7.599   4.236   3.763 -0.2641  0.2052  0.0454
 5648W        W 9167   7.655   2.401   3.934 -0.0228 -0.1630 -0.1926
 5649W        W 9168   8.746   4.810  10.925 -0.1844 -0.3123  0.0810
 5650W        W 9169   6.465   9.471  11.871  0.2474  0.0619 -0.2534
 5651W        W 9170   9.080   8.906   2.166  0.0056 -0.2319 -0.2791
 5652W        W 9171   9.720   7.204   2.836  0.0816  0.0179 -0.2198
 5653W        W 9172   6.056   8.165   2.429  0.1980 -0.1684  0.0708
 5654W        W 9173   3.748   9.413   8.601 -0.4313 -0.0741 -0.2681
 5655W        W 9174   6.916   6.807   1.804 -0.1083 -0.1193  0.2570
 5656W        W 9175   5.127   8.852   9.820  0.0057 -0.0455 -0.2497
 5657W        W 9176   1.690   9.417   2.243  0.0903 -0.0662  0.0686
 5658W        W 9177   3.748   0.203  11.735  0.2574  0.1625  0.0315
 5659W        W 9178   4.986   4.160   0.693  0.0872  0.0567  0.1965
 5660W        W 9179   7.050   3.533  11.142  0.0170  0.0019  0.0568
 5661W        W 9180   5.963   0.976   9.278  0.2563  0.1340 -0.2414
 5662W        W 9181   0.635   0.738   4.802  0.1619  0.1143 -0.0634
 5663W        W 9182   7.450   9.659  12.183  0.1409 -0.0585 -0.0850
 5664W        W 9183   6.694   7.916  10.838  0.1764 -0.2080  0.1854
 5665W        W 9184   7.427   6.306   9.449 -0.2528 -0.0695 -0.0298
 5666W        W 9185   4.365   4.102  11.748 -0.0190 -0.1790 -0.0332
 5667W        W 9186   8.457   5.378   9.446  0.1245  0.1583  0.4474
 5668W        W 9187   1.176   9.313  10.443  0.0622 -0.1739 -0.0787
 5669W        W 9188   1.680   0.207   2.125  0.0054 -0.0358  0.0854
 5670W        W 9189   9.452   3.099   3.175  0.1203  0.2336 -0.3332
 5671W        W 9190   8.020   3.561  10.034  0.3766 -0.1463  0.1435
 5672W        W 9191   8.427   6.032  12.281 -0.0400  0.1852 -0.2808
 5673W        W 9192   0.543   4.835  11.089 -0.1210 -0.1544  0.0080
 5674W        W 9193   8.591   8.363  12.244  0.0715 -0.0069  0.2383
 5675W        W 9194   9.437   3.785   8.362 -0.0626 -0.2405 -0.0901
 5676W        W 9195   7.179   5.429   1.809  0.1148  0.1976  0.1002
 5677W        W 9196   7.287   4.982   2.104  0.1238 -0.3028  0.0804
 5678W        W 9197   5.973   0.259  10.209  0.3669  0.2335 -0.2775
 5679W        W 9198   0.778   7.128   4.254 -0.1010  0.1476  0.1895
 5680W        W 9199   7.658   4.293   2.011 -0.0800  0.0046  0.0553
 5681W        W 9200   5.744   0.324  10.897 -0.2295 -0.0507  0.2146
 5682W        W 9201   3.432   3.137  12.447 -0.0160  0.1163 -0.2306
 5683W        W 9202   7.148   4.146   0.361 -0.1771 -0.2422  0.0215
 5684W        W 9203   7.085   4.055   1.730 -0.1676  0.2671 -0.2265
 5685W        W 9204   0.618   9.305   3.536 -0.0633  0.1634  0.0666
 5686W        W 9205   8.983   3.848   1.119  0.3320  0.2473 -0.1191
 5687W        W 9206   5.429   9.354  11.580 -0.0422 -0.1945 -0.2505
 5688W        W 9207   4.148   1.037  11.514  0.1398  0.0844 -0.1229
 5689W        W 9208   9.246   4.368   3.214 -0.1122 -0.0588 -0.0414
 5690W        W 9209   3.277   9.209   0.235  0.1948  0.0246  0.0635
 5691W        W 9210   3.297   3.819   0.664 -0.0353  0.0740 -0.2880
 5692W        W 9211   2.333   8.667   2.416 -0.0064  0.0459  0.1568
 5693W        W 9212   8.500   7.481   8.899 -0.0214  0.2970 -0.1530
 5694W        W 9213   7.336   5.855   3.278 -0.2495 -0.1728 -0.3760
 5695W        W 9214   6.425   3.708  11.172 -0.0906 -0.2344  0.0227
 5696W        W 9215   8.396   7.600  11.026 -0.2927 -0.3336 -0.1791
 5697W        W 9216   3.972   4.020  10.365  0.0004 -0.1622  0.4274
 5698W        W 9217   0.607   4.282  12.171  0.2058 -0.1209  0.0603
 5699W        W 9218   4.244   0.623   1.566 -0.5556  0.0006  0.1957
 5700W        W 9219   6.426   1.176  11.040 -0.1087  0.1378  0.0033
 5701W        W 9220   7.768   6.891  10.716 -0.0068 -0.2435  0.3307
 5702W        W 9221   7.520   6.791   2.194 -0.0050  0.2444 -0.0851
 5703W        W 9222   4.420   8.891   3.669  0.0225  0.1866  0.0625
 5704W        W 9223   0.130   0.379   9.335  0.3725  0.2197 -0.4254
 5705W        W 9224   8.316   1.360   1.400 -0.1373 -0.1590 -0.0261
 5706W        W 9225   1.109   2.311   3.977 -0.0307  0.1096  0.2377
 5707W        W 9226   1.668   1.843   2.419 -0.3745  0.0313  0.0453
 5708W        W 9227   4.581   5.523  10.289 -0.1853 -0.3290 -0.0402
 5709W        W 9228   7.306   1.675   9.331 -0.0289 -0.3001 -0.0304
 5710W        W 9229   4.577   2.877   1.394 -0.0841 -0.3139 -0.2132
 5711W        W 9230   8.721   3.310   2.033  0.1589 -0.0838  0.1268
 5712W        W 9231   4.620   0.868   2.647 -0.1096 -0.0285 -0.1108
 5713W        W 9232   9.107   2.823   8.861 -0.2834  0.1240  0.0915
 5714W        W 9233   7.498   0.720   4.286 -0.0135 -0.0346  0.3141
 5715W        W 9234   8.669   7.155  10.579  0.0818 -0.0650  0.3022
 5716W        W 9235   8.548   1.622   4.127  0.0547  0.1771 -0.2740
 5717W        W 9236   6.814   1.115   2.936 -0.1452 -0.2538 -0.1209
 5718W        W 9237   3.787   1.975   9.895 -0.2547  0.1111  0.0254
 5719W        W 9238   3.197   9.507   3.534 -0.0095  0.0200  0.2355
 5720W        W 9239   3.876   2.374  11.944  0.1534 -0.4032 -0.0757
 5721W        W 9240   9.293   0.340   3.380  0.1766  0.1522  0.0042
 5722W        W 9241   7.830   1.355   0.370 -0.1367 -0.2652 -0.2074
 5723W        W 9242   5.719   2.396  10.849  0.0969  0.0407  0.1895
 5724W        W 9243   7.420   9.545   3.295  0.0352 -0.2668 -0.0530
 5725W        W 9244   4.736   0.916  10.191 -0.0719 -0.1290  0.0043
 5726W        W 9245   3.208   8.319   1.700 -0.1958 -0.0092  0.4199
 5727W        W 9246   2.482   7.644   8.776  0.1593  0.1107 -0.3302
 5728W        W 9247   7.848   8.033   3.423  0.2163  0.0042 -0.0655
 5729W        W 9248   7.743   9.697   4.760 -0.0844 -0.2446  0.2943
 5730W        W 9249   5.946   8.480   2.895 -0.0349  0.0895 -0.0466
 5731W        W 9250   1.912   1.358  11.650 -0.2189 -0.1870  0.0140
 5732W        W 9251   0.139   7.724  11.801 -0.1033 -0.1608  0.1478
 5733W        W 9252   1.985   4.172   0.127  0.0282 -0.3317 -0.0447
 5734W        W 9253   0.719   6.352   9.502  0.0785  0.0135 -0.1879
 5735W        W 9254   9.350   9.171  12.058 -0.2711  0.2781 -0.1539
 5736W        W 9255   6.284   6.666  11.259 -0.0645  0.1808  0.1811
 5737W        W 9256   6.353   3.670  10.205 -0.0208 -0.3077  0.0678
 5738W        W 9257   1.720   1.940   1.889 -0.0740  0.3198 -0.0689
 5739W        W 9258   8.306   6.754   2.667 -0.2923 -0.1167  0.1275
 5740W        W 9259   3.365   3.435   0.965 -0.1040  0.0705 -0.0835
 5741W        W 9260   5.551   6.513   3.567  0.2762  0.2546 -0.0118
 5742W        W 9261   7.659   0.543   8.619  0.1538  0.0633 -0.1367
 5743W        W 9262   5.684   3.729   2.820  0.0651  0.1010  0.1396
 5744W        W 9263   4.152   5.523  10.911  0.0804  0.2706 -0.3770
 5745W        W 9264   1.676   9.007  10.446  0.1521 -0.0826 -0.1483
 5746W        W 9265   1.889   5.282   2.619 -0.1086 -0.0460 -0.1302
 5747W        W 9266   7.984   7.446   4.562  0.0060  0.1021 -0.0362
 5748W        W 9267   8.206   1.257   9.323 -0.0321 -0.3103  0.2838
 5749W        W 9268   8.435   4.822   4.101 -0.2644 -0.0194 -0.1431
 5750W        W 9269   1.434   1.555   1.755  0.0132 -0.4393  0.1129
 5751W        W 9270   8.543   5.699   9.036  0.2751 -0.2166 -0.1088
 5752W        W 9271   3.081   6.707  11.652 -0.0929  0.0086 -0.0256
 5753W        W 9272   3.203   0.537   2.190 -0.1610  0.1146 -0.1359
 5754W        W 9273   6.077   7.090   4.189  0.3027 -0.1863 -0.1459
 5755W        W 9274   1.007   5.701  10.777  0.1173  0.1976 -0.2380
 5756W        W 9275   6.890   7.152  10.012  0.2039 -0.1405  0.0451
 5757W        W 9276   1.211   5.513  11.929  0.0198  0.0752 -0.0445
 5758W        W 9277   4.294   7.193  10.394 -0.0135  0.0220  0.0311
 5759W        W 9278   5.855   5.393   4.509  0.1598  0.2613 -0.3412
 5760W        W 9279   4.339   0.705  11.913  0.0919 -0.0711  0.0451
 5761W        W 9280   4.637   3.079  12.050 -0.2115 -0.0595 -0.0581
 5762W        W 9281   8.238   8.952  11.976  0.1152 -0.1136 -0.1254
 5763W        W 9282   0.583   7.232  11.196 -0.2883 -0.1052 -0.1522
 5764W        W 9283   5.413   2.529   3.208  0.0025 -0.4823 -0.0505
 5765W        W 9284   1.344   0.824   1.186  0.0065  0.0785  0.0246
 5766W        W 9285   0.375   0.856  12.097  0.0674 -0.1584 -0.0622
 5767W        W 9286   8.967   2.278   8.795  0.1060 -0.1119  0.1231
 5768W        W 9287   7.600   8.461  11.477 -0.0762 -0.0105 -0.1150
 5769W        W 9288   6.484   6.804   0.676  0.0625 -0.4740 -0.2907
 5770W        W 9289   9.709   9.603   1.337 -0.1598 -0.1558 -0.3592
 5771W        W 9290   4.524   4.328   0.811  0.1506  0.0512 -0.2695
 5772W        W 9291   0.222   1.677   0.795  0.0204  0.1381 -0.2710
 5773W        W 9292   3.841   4.943   1.590 -0.1736  0.1006  0.1795
 5774W        W 9293   4.495   7.879   8.681 -0.0503  0.0709  0.2569
 5775W        W 9294   0.217   5.998   0.842 -0.0462  0.0429  0.0189
 5776W        W 9295   3.357   1.000   4.167  0.0429 -0.1014 -0.0852
 5777W        W 9296   6.516   4.864   0.041  0.1513  0.1596  0.0458
 5778W        W 9297   7.689   2.896   3.984 -0.3695  0.3613 -0.2828
 5779W        W 9298   8.385   1.163  10.694  0.3224  0.2038 -0.1102
 5780W        W 9299   5.796   6.073   8.906  0.3519  0.1233  0.2925
 5781W        W 9300   4.827   0.077  11.331 -0.1096 -0.1445 -0.3775
 5782W        W 9301   8.769   0.723   2.398 -0.0385  0.0574 -0.0077
 5783W        W 9302   2.548   6.779   1.682  0.2948 -0.0869  0.1245
 5784W        W 9303   2.737   9.200   1.017 -0.0484 -0.0076  0.2917
 5785W        W 9304   4.859   6.697   4.627  0.0983 -0.3183  0.0883
 5786W        W 9305   2.385   4.406   3.261  0.1404 -0.0875 -0.0431
 5787W        W 9306   0.168   5.554   9.197 -0.2158  0.2074  0.2686
 5788W        W 9307   1.904   9.324   9.785  0.0949  0.1359  0.0581
 5789W        W 9308   7.316   1.961  11.246  0.2244 -0.0133 -0.0868
 5790W        W 9309   3.265   1.463  11.683 -0.0194  0.0212 -0.0117
 5791W        W 9310   6.344   5.392  10.753  0.1514  0.1803 -0.2309
 5792W        W 9311   6.741   3.985  10.233 -0.1346  0.1058  0.0125
 5793W        W 9312   6.567   1.079   9.110  0.0246  0.4044  0.1608
 5794W        W 9313   6.625   2.499   1.858 -0.1284  0.0817  0.0084
 5795W        W 9314   1.639   5.381  12.165  0.2238 -0.1045  0.0472
 5796W        W 9315   2.196   4.307  12.158  0.2419  0.1077  0.4237
 5797W        W 9316   5.519   0.996   2.202  0.0356 -0.0357 -0.2585
 5798W        W 9317   0.438   7.626  10.587 -0.3744  0.3740  0.1039
 5799W        W 9318   8.162   7.251  10.666  0.2127 -0.0196 -0.4308
 5800W        W 9319   8.418   6.964   3.441 -0.2832 -0.1413  0.3241
 5801W        W 9320   2.245   1.648  12.046  0.0190  0.0367 -0.3266
 5802W        W 9321   1.681   7.429   1.661  0.0197  0.0917  0.0616
 5803W        W 9322   6.671   5.350   1.560 -0.1786 -0.4360 -0.2407
 5804W        W 9323   1.176   3.078   3.253 -0.2045 -0.1351  0.0057
 5805W        W 9324   8.975   6.826  12.250 -0.2113 -0.1082  0.2246
 5806W        W 9325   0.221   6.491  10.819 -0.0722  0.1617  0.1306
 5807W        W 9326   8.941   4.293   2.457 -0.0903  0.1313  0.1780
 5808W        W 9327   3.849   5.330   0.622  0.1764  0.2135 -0.1173
 5809W        W 9328   3.819   7.401   9.540  0.1974 -0.1374  0.0991
 5810W        W 9329   2.984   2.490   0.166  0.0557 -0.4785 -0.0741
 5811W        W 9330   8.016   7.695   0.925  0.2672  0.4469 -0.0588
 5812W        W 9331   9.392   5.663  11.486  0.0075  0.2961 -0.0346
 5813W        W 9332   9.576   8.624   1.077 -0.2898 -0.3866  0.3525
 5814W        W 9333   8.331   1.990   2.962  0.1576 -0.0534 -0.0913
 5815W        W 9334   0.761   7.914   9.923 -0.1775 -0.0485 -0.2735
 5816W        W 9335   0.530   4.918   1.516  0.0350 -0.3205 -0.0147
 5817W        W 9336   3.900   4.795   8.745  0.2718  0.0997  0.0603
 5818W        W 9337   1.191   0.688   2.657 -0.0868  0.0813  0.2225
 5819W        W 9338   3.711   1.095  10.214  0.1813 -0.3927 -0.3732
 5820W        W 9339   0.710   7.658  10.973 -0.0334  0.1903  0.0053
 5821W        W 9340   0.159   7.348   3.766 -0.0582  0.1341  0.0591
 5822W        W 9341   3.078   1.839   9.394  0.0640  0.0291 -0.3129
 5823W        W 9342   5.386   3.345   2.705  0.0676  0.2269 -0.2425
 5824W        W 9343   4.190   8.268   9.422 -0.3100 -0.0150 -0.0252
 5825W        W 9344   8.302   7.105   9.196  0.0592  0.0897 -0.5117
 5826W        W 9345   1.999   1.048   2.213  0.0428 -0.0676  0.1020
 5827W        W 9346   2.844   6.320   9.589 -0.1016  0.1769  0.3133
 5828W        W 9347   1.505   3.882  11.465 -0.2430  0.3986  0.0618
 5829W        W 9348   1.098   2.476   2.488  0.0322 -0.4398 -0.2418
 5830W        W 9349   4.449   8.240   0.586 -0.1044 -0.1315 -0.1892
 5831W        W 9350   4.798   3.518   0.790  0.2678 -0.1527 -0.0056
 5832W        W 9351   3.813   3.387  12.223  0.2091 -0.2322  0.2506
 5833W        W 9352   1.138   2.641   2.980 -0.0695  0.0192  0.0565
 5834W        W 9353   9.724   8.475  11.361 -0.0862  0.4554 -0.0088
 5835W        W 9354   1.043   1.236   9.455  0.0549  0.0067 -0.0343
 5836W        W 9355   0.473   7.337   1.453 -0.0606  0.2134  0.1579
 5837W        W 9356   0.762   1.236  10.924  0.2122 -0.1472  0.1025
 5838W        W 9357   2.447   8.075   1.599 -0.0954  0.0490 -0.1248
 5839W        W 9358   6.372   3.298   3.027  0.0228  0.2993  0.0336
 5840W        W 9359   1.470   7.670  12.338 -0.0069  0.0820  0.1934
 5841W        W 9360   1.747   7.132   9.774  0.1229  0.0082 -0.5765
 5842W        W 9361   9.404   0.395  11.031 -0.1466 -0.3858 -0.0121
 5843W        W 9362   6.516   9.251   2.660  0.1005 -0.2046  0.0835
 5844W        W 9363   8.298   8.016   4.416  0.0676  0.2298 -0.1739
 5845W        W 9364   7.931   0.046   0.464 -0.2379  0.0554 -0.2252
 5846W        W 9365   4.010   1.274  10.678  0.1275  0.1180  0.3298
 5847W        W 9366   3.748   2.840   1.543  0.1084 -0.4050  0.0450
 5848W        W 9367   5.420   9.428   8.251  0.2684 -0.0734  0.2041
 5849W        W 9368   6.926   4.716  11.277  0.2124 -0.0833  0.0355
 5850W        W 9369   8.145   5.798   9.489  0.1330  0.0606 -0.1593
 5851W        W 9370   2.092   8.367   8.908 -0.4373 -0.0426  0.1613
 5852W        W 9371   9.293   0.333   9.292  0.0592 -0.0596  0.1856
 5853W        W 9372   7.895   0.940   3.836 -0.0095 -0.0995  0.2771
 5854W        W 9373   2.788   2.394  10.942 -0.1667  0.0652 -0.1575
 5855W        W 9374   0.372   5.998  10.856  0.1887 -0.3773 -0.0616
 5856W        W 9375   0.070   4.301  12.111  0.1383  0.0002  0.0745
 5857W        W 9376   7.403   1.198   3.488 -0.2041 -0.0443  0.2606
 5858W        W 9377   7.629   4.155   0.739 -0.6601 -0.0931  0.0953
 5859W        W 9378   1.265   8.722   9.674 -0.0830  0.1821 -0.0708
 5860W        W 9379   8.279   4.456  11.587 -0.3634  0.2514  0.2080
 5861W        W 9380   9.663   3.919  12.418 -0.0863 -0.2136 -0.2975
 5862W        W 9381   6.151   2.363   9.579 -0.0563 -0.0191  0.2148
 5863W        W 9382   1.820   4.155   0.621  0.2474  0.1414  0.0229
 5864W        W 9383   7.245   0.654  12.474  0.3022 -0.1345 -0.2576
 5865W        W 9384   8.118   1.202  10.225 -0.0569 -0.3786 -0.1216
 5866W        W 9385   9.088   4.786  11.970 -0.1631  0.0445  0.4336
 5867W        W 9386   4.525   6.823   9.619 -0.0317  0.4633 -0.0670
 5868W        W 9387   5.390   7.745  11.335  0.1763  0.3782 -0.5771
 5869W        W 9388   3.801   0.482   1.676 -0.1814  0.0444 -0.2166
 5870W        W 9389   1.420   0.172   0.562  0.3856  0.0585 -0.0596
 5871W        W 9390   5.658   8.517  10.325 -0.1458 -0.1723 -0.1023
 5872W        W 9391   1.596   5.208  10.243 -0.3209 -0.1126 -0.0920
 5873W        W 9392   3.132   5.738   3.319  0.2816  0.2405  0.4162
 5874W        W 9393   3.100   7.940   3.248 -0.1402  0.0412 -0.0468
 5875W        W 9394   1.454   7.305  11.408 -0.0008  0.1862  0.0387
 5876W        W 9395   5.251   2.070   3.170  0.1736 -0.1160 -0.2529
 5877W        W 9396   5.117   4.775  12.219  0.1943 -0.1282 -0.0277
 5878W        W 9397   4.522   4.257   3.507  0.0268  0.2465  0.1385
 5879W        W 9398   1.120   5.240   2.049 -0.0115 -0.0624 -0.1129
 5880W        W 9399   5.528   1.367   9.218  0.0463  0.3101 -0.2316
 5881W        W 9400   6.104   7.244   1.618  0.1094  0.0861  0.3151
 5882W        W 9401   1.234   6.711   3.383 -0.0406 -0.1678  0.1598
 5883W        W 9402   3.465   2.248  11.032  0.2956 -0.1619  0.0303
 5884W        W 9403   5.734   6.443  10.642  0.1554  0.1374  0.0911
 5885W        W 9404   3.113   8.276   2.894  0.1725  0.0909  0.1805
 5886W        W 9405   5.751   3.647   0.835  0.1840  0.2560 -0.0150
 5887W        W 9406   3.289   0.844   0.889 -0.2518  0.3521 -0.0344
 5888W        W 9407   8.393   2.692   2.272  0.1354 -0.3590  0.3874
 5889W        W 9408   8.349   4.118   3.136  0.2401 -0.3091  0.1421
 5890W        W 9409   6.981   4.670   0.172  0.0821  0.0486  0.3816
 5891W        W 9410   8.545   5.962   2.981 -0.2811 -0.2280 -0.1029
 5892W        W 9411   4.159   3.777   9.803  0.0050  0.0629  0.1216
 5893W        W 9412   8.365   6.270   2.529 -0.0941  0.1236 -0.0072
 5894W        W 9413   7.341   2.578   2.334 -0.1349  0.4059  0.1166
 5895W        W 9414   0.401   8.210  11.530 -0.0855  0.3467 -0.0412
 5896W        W 9415   3.807   7.892   9.396  0.0415  0.1613 -0.0727
 5897W        W 9416   1.693   8.499  12.329  0.0918 -0.0545 -0.2942
 5898W        W 9417   8.603   2.681   1.414 -0.0882 -0.0441  0.0726
 5899W        W 9418   7.311   1.951  12.441 -0.0770 -0.0237 -0.1337
 5900W        W 9419   1.608   3.179   3.502 -0.0150 -0.2219 -0.1822
 5901W        W 9420   5.691   3.688   0.258 -0.1393 -0.1145  0.0658
 5902W        W 9421   6.296   4.513   0.580 -0.0509 -0.0791  0.0915
 5903W        W 9422   7.511   8.650   8.065  0.0555 -0.1328  0.0333
 5904W        W 9423   5.974   1.728   0.643  0.0090 -0.1470  0.1587
 5905W        W 9424   0.127   4.963   9.951 -0.0356  0.0415 -0.0059
 5906W        W 9425   8.291   3.464   1.767 -0.0409  0.0553  0.2333
 5907W        W 9426   5.615   9.211  11.069  0.0428 -0.0854  0.3542
 5908W        W 9427   8.084   6.734   3.107  0.1396  0.0414  0.2106
 5909W        W 9428   2.182   1.859   1.119  0.2979  0.0621  0.0771
 5910W        W 9429   3.086   4.440   1.405 -0.0060  0.1425  0.1568
 5911W        W 9430   9.152   2.824  12.429  0.2343  0.2170  0.0020
 5912W        W 9431   0.827   8.566   9.757 -0.1645  0.1719  0.0191
 5913W        W 9432   7.742   2.548   4.433  0.0589  0.0266  0.1202
 5914W        W 9433   4.715   6.549   4.111  0.1069 -0.1031 -0.1287
 5915W        W 9434   4.519   5.975   1.579  0.3157 -0.3043  0.1270
 5916W        W 9435   6.504   8.945   9.861  0.1790  0.0712 -0.2296
 5917W        W 9436   3.054   2.982  11.798  0.1140  0.1924 -0.1613
 5918W        W 9437   9.707   1.017   2.680 -0.0664  0.4644 -0.1337
 5919W        W 9438   4.606   1.171   9.022  0.4282  0.0996 -0.1833
 5920W        W 9439   4.542   9.521  10.986 -0.0813 -0.0262  0.1523
 5921W        W 9440   8.285   3.239   9.768  0.1003 -0.1833  0.1589
 5922W        W 9441   4.706   7.797   1.859 -0.0485 -0.2662  0.1894
 5923W        W 9442   1.852   4.650  12.451  0.2293  0.0207 -0.4581
 5924W        W 9443   9.618   2.479  10.239 -0.1467  0.0176  0.1034
 5925W        W 9444   3.111   0.816  12.319 -0.2195  0.3444  0.2639
 5926W        W 9445   3.243   0.019   4.419  0.5926  0.0577 -0.2089
 5927W        W 9446   6.981   7.206  10.649 -0.0065 -0.0482  0.1967
 5928W        W 9447   5.594   0.601   3.401 -0.3447 -0.2246  0.3698
 5929W        W 9448   4.167   7.791   2.994 -0.1274 -0.2055  0.0630
 5930W        W 9449   0.990   0.252   2.852 -0.0132  0.1458 -0.0726
 5931W        W 9450   1.691   4.919  12.062  0.1531 -0.1469 -0.2522
 5932W        W 9451   3.078   8.393  11.846 -0.0761  0.0959  0.0738
 5933W        W 9452   5.173   2.853   8.933  0.0353  0.0926 -0.0952
 5934W        W 9453   9.330   5.143  11.527  0.2388 -0.0798  0.0101
 5935W        W 9454   7.938   6.315   4.994  0.1698  0.1143  0.1061
 5936W        W 9455   5.350   7.623   2.601 -0.1732  0.2819 -0.2721
 5937W        W 9456   4.079   9.103  11.149 -0.3665 -0.2375 -0.3087
 5938W        W 9457   6.926   5.478   9.658  0.2765 -0.2914 -0.3275
 5939W        W 9458   9.378   4.579   9.342 -0.2441 -0.1138 -0.2056
 5940W        W 9459   4.756   8.773   4.095 -0.4363 -0.1637 -0.0840
 5941W        W 9460   2.528   4.629  11.824  0.1836  0.2811 -0.0734
 5942W        W 9461   7.420   4.606   3.396  0.0055 -0.3710 -0.0000
 5943W        W 9462   6.317   8.335   3.822 -0.3844 -0.0155  0.4156
 5944W        W 9463   4.053   9.557   8.121  0.1384  0.1691 -0.2988
 5945W        W 9464   8.600   6.482   0.257  0.0590  0.0595  0.1815
 5946W        W 9465   9.026   7.863   1.724  0.0148  0.1516 -0.0073
 5947W        W 9466   8.639   1.595   3.130 -0.0766  0.0121 -0.1345
 5948W        W 9467   4.487   3.798  10.184 -0.0345 -0.2826 -0.4682
 5949W        W 9468   1.850   7.869   1.923 -0.1406 -0.3408  0.3475
 5950W        W 9469   4.730   5.844   3.683  0.2318 -0.4569 -0.2119
 5951W        W 9470   2.215   5.781   0.825  0.2689  0.0186 -0.1604
 5952W        W 9471   7.662   6.395   9.853 -0.2348 -0.0813  0.3539
 5953W        W 9472   6.013   3.494  12.366  0.0815 -0.0959  0.0546
 5954W        W 9473   9.126   9.395   1.206  0.1747  0.3635  0.2662
 5955W        W 9474   8.886   0.865  11.787  0.2270  0.0330 -0.3297
 5956W        W 9475   1.179   9.045   0.843 -0.0232 -0.0978  0.0882
 5957W        W 9476   6.246   2.782   3.061  0.3026 -0.0053  0.0949
 5958W        W 9477   9.394   6.847   0.675  0.0138  0.2875 -0.1869
 5959W        W 9478   3.062   8.771   1.034  0.2554 -0.2624  0.1200
 5960W        W 9479   9.614   0.018   3.600  0.2058 -0.0622  0.2429
 5961W        W 9480   0.162   6.776   9.858  0.0903  0.2025 -0.0906
 5962W        W 9481   8.970   1.717   2.667  0.0348 -0.5580  0.2035
 5963W        W 9482   3.379   2.689   9.730 -0.0381  0.0158 -0.0195
 5964W        W 9483   5.816   3.907   3.668  0.2179 -0.0421  0.0451
 5965W        W 9484   1.917   9.555  10.231  0.2389 -0.3179 -0.3545
 5966W        W 9485   5.271   8.302  11.798 -0.0569  0.1189 -0.1613
 5967W        W 9486   3.961   2.157   0.190 -0.0154 -0.1597 -0.1200
 5968W        W 9487   3.757   1.894   1.523  0.1520 -0.0770 -0.5487
 5969W        W 9488   4.024   0.298  10.082 -0.0351  0.0700 -0.2474
 5970W        W 9489   7.775   2.014   3.030 -0.0578 -0.2040  0.0276
 5971W        W 9490   4.236   3.263  10.823 -0.1164  0.0389 -0.1028
 5972W        W 9491   7.058   5.230   8.749 -0.2002 -0.0892  0.0431
 5973W        W 9492   8.019   3.515   9.446  0.0521  0.2893 -0.4281
 5974W        W 9493   1.897   5.519   8.854  0.2369 -0.0662 -0.0269
 5975W        W 9494   3.464   6.681  10.503  0.2316  0.2457  0.1513
 5976W        W 9495   0.055   2.431   2.149  0.1525 -0.2894 -0.1197
 5977W        W 9496   3.097   1.922  10.811  0.3151  0.1567 -0.2394
 5978W        W 9497   2.795   0.036  11.673 -0.0110  0.2091 -0.0123
 5979W        W 9498   9.661   5.456  11.883 -0.2867 -0.2573  0.3082
 5980W        W 9499   3.160   5.901   2.444  0.2856 -0.3745  0.2287
 5981W        W 9500   3.455   3.215   9.739 -0.0618 -0.0078 -0.0052
 5982W        W 9501   2.482   3.140   0.926 -0.0104 -0.0301  0.1913
 5983W        W 9502   1.589   2.980   0.896 -0.6612  0.1244 -0.2285
 5984W        W 9503   0.071   0.781   2.250  0.2546  0.0362  0.1622
 5985W        W 9504   6.930   8.158  10.364  0.1868 -0.0439  0.3887
 5986W        W 9505   6.267   7.541   3.626 -0.0580 -0.2427  0.1146
 5987W        W 9506   1.799   5.817   2.613  0.1672  0.1408 -0.3442
 5988W        W 9507   0.731   9.615   3.118 -0.1313  0.0982  0.2087
 5989W        W 9508   4.162   3.116   8.617 -0.3233  0.0766 -0.0371
 5990W        W 9509   7.823   3.793   0.404 -0.2092 -0.0081 -0.1980
 5991W        W 9510   2.612   0.218   9.815  0.0592 -0.0842 -0.1744
 5992W        W 9511   6.043   0.262   0.307  0.0494 -0.3648  0.1650
 5993W        W 9512   0.194   0.045  10.602  0.0517  0.1948 -0.2902
 5994W        W 9513   3.142   4.039   0.161 -0.0858  0.1789 -0.4733
 5995W        W 9514   4.796   1.293   2.454 -0.1116  0.1438 -0.1411
 5996W        W 9515   5.054   1.737   4.634  0.3987  0.0782  0.0111
 5997W        W 9516   5.766   2.624  11.742 -0.0124 -0.1060 -0.1187
 5998W        W 9517   1.030   7.990   0.119 -0.2011 -0.0752 -0.0047
 5999W        W 9518   6.860   8.058   0.420  0.1343  0.0827  0.0334
 6000W        W 9519   7.615   4.878  11.995  0.3035 -0.0291  0.0872
 6001W        W 9520   3.294   0.418  11.617 -0.0411  0.1101  0.1017
 6002W        W 9521   1.547   6.227  10.604 -0.1025 -0.1790 -0.1519
 6003W        W 9522   7.812   8.080  10.489  0.1959  0.1298 -0.1481
 6004W        W 9523   2.265   2.444   2.609  0.0617  0.1527  0.1328
 6005W        W 9524   7.303   2.185   9.359  0.0714  0.0551 -0.2830
 6006W        W 9525   6.098   5.947   9.358  0.1070 -0.1676  0.3133
 6007W        W 9526   0.721   2.306  11.041  0.1914  0.0401  0.0857
 6008W        W 9527   8.156   1.292  12.319  0.0060  0.2628  0.2588
 6009W        W 9528   1.415   4.666   1.251  0.1678  0.0054  0.3766
 6010W        W 9529   7.631   0.737   9.149  0.0248 -0.0729  0.1178
 6011W        W 9530   3.401   3.359  10.241 -0.3015  0.1100 -0.3068
 6012W        W 9531   7.170   0.827  10.635 -0.1758  0.0326 -0.1302
 6013W        W 9532   6.716   3.419   1.480  0.0459  0.0543 -0.0680
 6014W        W 9533   7.166   2.221  10.208 -0.0433  0.1835  0.3909
 6015W        W 9534   7.640   8.444   3.601 -0.2692  0.0928  0.2338
 6016W        W 9535   6.760   2.979   3.000 -0.1454  0.1984 -0.0955
 6017W        W 9536   1.437   1.680   2.866 -0.2058  0.1386 -0.3734
 6018W        W 9537   9.303   3.496   9.887  0.1093 -0.3967  0.2078
 6019W        W 9538   3.794   1.188   2.282  0.3065 -0.0279 -0.0281
 6020W        W 9539   4.510   2.615  12.271 -0.0956 -0.1907  0.3922
 6021W        W 9540   4.509   7.838  11.631  0.3475 -0.0889  0.0459
 6022W        W 9541   5.069   1.195   9.286 -0.0739 -0.1488  0.0115
 6023W        W 9542   7.199   5.061   3.896 -0.2206  0.1116 -0.0865
 6024W        W 9543   3.036   1.035   8.895  0.2254 -0.2404  0.2032
 6025W        W 9544   4.181   6.165   2.986  0.0793  0.1432  0.0563
 6026W        W 9545   6.760   7.135   1.340  0.0230 -0.2576 -0.1446
 6027W        W 9546   7.683   3.129   9.504 -0.0899 -0.2655 -0.2223
 6028W        W 9547   0.670   7.807  11.805 -0.3046  0.1395  0.2046
 6029W        W 9548   8.177   6.603  10.730 -0.1914 -0.0233 -0.2028
 6030W        W 9549   2.809   8.987   0.533 -0.0916 -0.0323  0.5133
 6031W        W 9550   6.966   6.019   9.416 -0.1160 -0.0367 -0.1363
 6032W        W 9551   7.975   7.157   0.124  0.2690  0.0483 -0.0454
 6033W        W 9552   9.572   5.403  10.085  0.2685  0.5265  0.1678
 6034W        W 9553   3.547   3.832  11.388 -0.4040 -0.0318  0.3939
 6035W        W 9554   5.212   4.631   2.560  0.1547 -0.1068 -0.3649
 6036W        W 9555   2.535   5.464  11.371  0.2271  0.0254 -0.0410
 6037W        W 9556   8.308   7.386  10.151  0.0445  0.1683  0.1741
 6038W        W 9557   5.576   9.403   2.922 -0.0542  0.1494 -0.0348
 6039W        W 9558   3.354   5.390  12.377  0.0218  0.2427 -0.0994
 6040W        W 9559   3.684   1.542   4.788  0.0851  0.1239  0.0821
 6041W        W 9560   3.479   1.894   3.744  0.1573 -0.0757 -0.1765
 6042W        W 9561   1.032   6.999  11.201 -0.0610  0.0525  0.0830
 6043W        W 9562   3.555   6.583   0.084  0.2013 -0.0848 -0.0758
 6044W        W 9563   2.915   7.974   8.660  0.2732  0.0186  0.0516
 6045W        W 9564   2.059   4.300   2.764 -0.1895 -0.0343  0.2247
 6046W        W 9565   8.085   2.150  10.262  0.0285 -0.1066 -0.0925
 6047W        W 9566   6.114   6.016   1.075 -0.1188  0.2815 -0.0160
 6048W        W 9567   5.866   4.955  10.014 -0.0756 -0.1231  0.0459
 6049W        W 9568   4.405   2.876   0.529 -0.1452  0.0303  0.0599
 6050W        W 9569   5.965   1.225   1.372 -0.0532 -0.0848 -0.2556
 6051W        W 9570   3.520   8.969   1.256  0.2267 -0.1330 -0.1633
 6052W        W 9571   7.651   0.456   3.862 -0.2154  0.1055 -0.2891
 6053W        W 9572   1.837   4.367   2.190 -0.1743  0.0462  0.1519
 6054W        W 9573   7.411   0.199   8.896 -0.2615 -0.2520 -0.1089
 6055W        W 9574   2.283   6.568  12.150  0.0791 -0.2110  0.0024
 6056W        W 9575   3.486   4.828   2.394 -0.1106  0.2925  0.2880
 6057W        W 9576   4.683   1.226  11.855  0.0337  0.1405 -0.4053
 6058W        W 9577   8.404   3.961   1.751 -0.0976 -0.3518  0.2408
 6059W        W 9578   2.987   6.983   1.768  0.1285  0.1273  0.1452
 6060W        W 9579   7.473   0.890  11.989  0.1361  0.2817 -0.1300
 6061W        W 9580   4.810   6.148   2.150 -0.1382 -0.0060  0.2644
 6062W        W 9581   2.138   3.278  11.470 -0.0960  0.0043 -0.0413
 6063W        W 9582   4.915   8.272   1.818 -0.3869 -0.0998 -0.0676
 6064W        W 9583   8.595   7.878   3.940 -0.0262 -0.0247 -0.0332
 6065W        W 9584   5.564   4.350   1.192 -0.1478 -0.0060 -0.0516
 6066W        W 9585   5.700   2.927   3.026 -0.2660  0.1980  0.0757
 6067W        W 9586   1.633   4.709   2.507 -0.0073 -0.0622  0.2347
 6068W        W 9587   3.949   0.379   2.568  0.2705  0.0211 -0.1189
 6069W        W 9588   4.990   4.398   1.636  0.0775 -0.3169 -0.1191
 6070W        W 9589   3.685   7.368   1.692  0.1429  0.5214 -0.5440
 6071W        W 9590   9.316   7.639   1.414  0.0609 -0.0985  0.1126
 6072W        W 9591   4.903   1.198   0.586 -0.0786  0.2548  0.2654
 6073W        W 9592   2.357   2.134  10.817 -0.0721  0.0453  0.0895
 6074W        W 9593   8.993   2.420  10.154 -0.1664 -0.0339 -0.0755
 6075W        W 9594   8.394   1.541   8.906 -0.0324  0.1703 -0.1897
 6076W        W 9595   6.574   6.149   9.672  0.0498  0.1827  0.0862
 6077W        W 9596   8.127   0.566  12.286 -0.1891  0.2369 -0.0098
 6078W        W 9597   6.884   6.744  10.380  0.4202  0.2466 -0.0857
 6079W        W 9598   0.474   5.652  11.810 -0.2481  0.2329 -0.0335
 6080W        W 9599   5.120   3.309   9.117 -0.0691  0.0174 -0.0584
 6081W        W 9600   7.593   6.284   1.012 -0.0898 -0.0932  0.1556
 6082W        W 9601   3.123   8.598   5.062  0.1685 -0.0276 -0.0269
 6083W        W 9602   3.852   5.608   9.447  0.0758  0.0204  0.0067
 6084W        W 9603   2.617   7.554   4.043 -0.0604  0.0825  0.2051
 6085W        W 9604   9.479   0.774   1.812  0.0326 -0.1014 -0.2066
 6086W        W 9605   3.659   0.438   9.752  0.2949 -0.3884 -0.3135
 6087W        W 9606   1.861   6.318  11.975  0.4535  0.1100  0.0682
 6088W        W 9607   5.874   9.488   1.822 -0.1249 -0.0255  0.3454
 6089W        W 9608   4.472   8.205   1.114 -0.2298  0.1911  0.4427
 6090W        W 9609   6.567   5.452   8.739  0.0040  0.1396 -0.0159
 6091W        W 9610   2.026   0.397  11.894  0.0495  0.1382  0.5391
 6092W        W 9611   3.695   7.122  11.854 -0.0968 -0.1472 -0.0391
 6093W        W 9612   2.521   9.082  10.686 -0.1079 -0.0443 -0.1811
 6094W        W 9613   8.718   3.614  12.134  0.1547 -0.1528  0.1649
 6095W        W 9614   8.818   4.444   9.606 -0.0874  0.2695 -0.1727
 6096W        W 9615   4.844   2.860   9.851 -0.0886 -0.1023  0.2063
 6097W        W 9616   4.016   7.233   2.909 -0.0446 -0.3131  0.0048
 6098W        W 9617   9.043   7.069   3.893 -0.1789 -0.0464 -0.2158
 6099W        W 9618   7.580   5.041   3.561 -0.1218  0.1487 -0.2222
 6100W        W 9619   0.602   7.397   2.805  0.1392 -0.0389  0.2246
 6101W        W 9620   9.416   2.682   9.745  0.1742  0.0352 -0.0844
 6102W        W 9621   0.271   4.420   0.687  0.1066  0.1546  0.0951
 6103W        W 9622   1.623   3.757   0.155 -0.0269 -0.0609 -0.0745
 6104W        W 9623   9.274   8.012  10.493  0.3557  0.0795 -0.1671
 6105W        W 9624   6.503   6.726   3.885 -0.0291  0.0550 -0.0735
 6106W        W 9625   6.187   8.142   1.288  0.0189 -0.2014  0.1123
 6107W        W 9626   0.845   8.913   4.841  0.0218  0.0358  0.0804
 6108W        W 9627   6.599   6.516   2.609 -0.0720  0.1115 -0.0138
 6109W        W 9628   6.030   5.120   2.312 -0.1951 -0.3097 -0.3340
 6110W        W 9629   1.831   2.807   0.087  0.3757  0.4153  0.0668
 6111W        W 9630   1.429   4.091   2.122 -0.1078 -0.0246 -0.0402
 6112W        W 9631   5.593   5.898   7.964 -0.1718 -0.0282  0.0873
 6113W        W 9632   7.658   5.827  11.405  0.3431  0.1264  0.1453
 6114W        W 9633   4.123   9.239   9.445 -0.1080  0.0097 -0.0092
 6115W        W 9634   0.432   6.778   2.012  0.0764 -0.0139 -0.1605
 6116W        W 9635   9.465   2.721   9.262  0.3556  0.0799  0.1048
 6117W        W 9636   3.344   0.911   9.711  0.0590  0.2129 -0.1550
 6118W        W 9637   3.219   4.210   9.168  0.4044  0.0016 -0.0290
 6119W        W 9638   2.853   0.047   9.433  0.1927  0.0708  0.0596
 6120W        W 9639   3.808   7.668  11.409 -0.1590  0.1713 -0.0706
 6121W        W 9640   7.070   3.763   1.284  0.0363 -0.0660  0.1227
 6122W        W 9641   8.780   8.059   0.783  0.0500 -0.1769 -0.0318
 6123W        W 9642   7.749   4.594   8.971 -0.1732  0.1085 -0.1376
 6124W        W 9643   2.506   2.577   8.763  0.0112  0.2367 -0.0430
 6125W        W 9644   4.531   9.124  11.950 -0.1153 -0.0670  0.2258
 6126W        W 9645   5.891   2.882   1.388 -0.0153  0.1798 -0.2455
 6127W        W 9646   5.041   5.567   0.525  0.2524  0.0031  0.3211
 6128W        W 9647   9.110   3.886  12.334 -0.3073  0.2057 -0.2210
 6129W        W 9648   0.320   1.990  10.676  0.2649 -0.3396  0.3365
 6130W        W 9649   9.045   9.573   0.343  0.2901 -0.0782  0.2494
 6131W        W 9650   5.987   8.473  10.778  0.0318  0.0040  0.1834
 6132W        W 9651   1.944   6.383   2.297 -0.2353  0.0719 -0.0131
 6133W        W 9652   1.504   9.349  10.037 -0.2304 -0.0122 -0.6255
 6134W        W 9653   0.877   3.815   8.827  0.3418  0.0496  0.0652
 6135W        W 9654   2.000   6.440  10.623 -0.0448 -0.3146 -0.1408
 6136W        W 9655   4.177   5.172   3.835  0.2245 -0.1207  0.0666
 6137W        W 9656   3.830   0.449   0.125  0.1463 -0.0875  0.1960
 6138W        W 9657   3.262   3.722   1.362 -0.1176  0.1538  0.4143
 6139W        W 9658   7.757   0.084   4.249  0.2154  0.0814  0.0743
 6140W        W 9659   8.251   9.532   5.108 -0.2662 -0.0370  0.5681
 6141W        W 9660   0.455   2.624  10.690  0.0514 -0.2274  0.0680
 6142W        W 9661   8.839   9.361  10.192  0.0047  0.1759 -0.1130
 6143W        W 9662   6.301   1.061   4.677 -0.3020 -0.2361 -0.0908
 6144W        W 9663   5.287   5.580   9.329 -0.0477 -0.0399 -0.0513
 6145W        W 9664   7.402   3.302   3.767  0.1162 -0.0738 -0.2779
 6146W        W 9665   9.190   6.765   9.214 -0.0266  0.1463 -0.0843
 6147W        W 9666   0.208   4.407   3.961 -0.1805  0.0545 -0.5342
 6148W        W 9667   4.407   4.688   9.745 -0.2548 -0.1116  0.1511
 6149W        W 9668   5.425   6.010   2.701 -0.2076  0.0978 -0.0942
 6150W        W 9669   0.119   4.379  11.164 -0.3100 -0.0402  0.1384
 6151W        W 9670   3.361   8.831   4.128  0.0093 -0.3379 -0.2897
 6152W        W 9671   1.228   0.369   0.957  0.1724  0.1860 -0.1116
 6153W        W 9672   6.193   3.029  10.057  0.1910 -0.2472  0.5110
 6154W        W 9673   2.798   3.791   0.452 -0.1721  0.0307  0.0536
 6155W        W 9674   8.552   3.377   3.729  0.0440  0.0558 -0.2181
 6156W        W 9675   9.600   7.999   8.406  0.2044  0.2529 -0.2510
 6157W        W 9676   9.033   8.407  10.752  0.0849 -0.1239  0.1742
 6158W        W 9677   5.404   2.120   9.679  0.3040  0.1015 -0.0930
 6159W        W 9678   8.608   6.185   3.458 -0.0630  0.3598  0.2702
 6160W        W 9679   8.005   6.028   4.464 -0.2015  0.2177  0.2078
 6161W        W 9680   0.563   2.231   9.354 -0.0041 -0.1027  0.2015
 6162W        W 9681   2.089   1.999   9.353  0.1130 -0.0665  0.1662
 6163W        W 9682   2.880   7.452   8.571 -0.1600  0.1652 -0.1038
 6164W        W 9683   5.098   3.012  10.324 -0.0027 -0.0879  0.0673
 6165W        W 9684   2.417   3.126   2.994 -0.0195 -0.2153 -0.4108
 6166W        W 9685   8.870   6.242  10.877  0.0445  0.0085  0.0186
 6167W        W 9686   4.400   4.033  10.660 -0.0361  0.1610  0.0306
 6168W        W 9687   8.745   5.954   0.197 -0.1887 -0.1539  0.0414
 6169W        W 9688   6.098   7.026   0.015 -0.0699  0.1414 -0.0593
 6170W        W 9689   3.759   7.028   0.180 -0.0283  0.0236  0.0265
 6171W        W 9690   0.064   8.880   3.098  0.2819 -0.0770 -0.3828
 6172W        W 9691   8.771   1.117   4.200 -0.1810 -0.1263  0.1085
 6173W        W 9692   0.894   3.904   1.492  0.2488 -0.5165 -0.1902
 6174W        W 9693   2.671   7.566   3.042 -0.2071  0.0612 -0.2462
 6175W        W 9694   6.034   6.737   0.383 -0.0020  0.0760  0.1623
 6176W        W 9695   1.712   3.437  11.689  0.2729 -0.2689 -0.3375
 6177W        W 9696   5.036   9.260  12.091  0.1701  0.0155 -0.0598
 6178W        W 9697   5.758   4.423   8.736 -0.3096  0.1701 -0.0930
 6179W        W 9698   9.710   4.432   9.034  0.0346  0.1161  0.3802
 6180W        W 9699   0.429   4.870  10.600 -0.1925 -0.3036 -0.2088
 6181W        W 9700   8.389   3.740   9.717  0.0048 -0.1767  0.0389
 6182W        W 9701   3.938   2.339  11.045 -0.0355 -0.3322 -0.1196
 6183W        W 9702   7.495   1.295  11.051 -0.0212  0.4010  0.0511
 6184W        W 9703   0.519   8.872   2.780 -0.2789  0.0870 -0.1089
 6185W        W 9704   4.503   6.858  11.368 -0.0407 -0.1451  0.1204
 6186W        W 9705   0.216   6.377   1.257  0.1314 -0.2456 -0.0559
 6187W        W 9706   1.871   8.657  11.224 -0.0910  0.2027 -0.1082
 6188W        W 9707   8.863   0.544   1.503  0.0629  0.3322  0.1163
 6189W        W 9708   3.059   7.376   3.221  0.0629  0.1394 -0.2530
 6190W        W 9709   2.744   2.609   2.674 -0.2459  0.0699  0.1044
 6191W        W 9710   0.910   0.365   9.994 -0.0240  0.0460 -0.0175
 6192W        W 9711   1.493   4.923   3.464 -0.2085 -0.0841  0.1967
 6193W        W 9712   5.317   8.600   1.722  0.2757 -0.0959 -0.2792
 6194W        W 9713   5.104   9.554   3.075  0.1432  0.1135  0.2787
 6195W        W 9714   5.530   5.706   8.394 -0.1077  0.0371  0.1295
 6196W        W 9715   5.039   4.900   3.051 -0.2425 -0.1132  0.0782
 6197W        W 9716   3.567   6.896   9.500  0.0099 -0.1145 -0.2224
 6198W        W 9717   1.117   0.572   0.416 -0.1862  0.0834  0.2023
 6199W        W 9718   6.359   5.953   1.865 -0.0743  0.2251 -0.3292
 6200W        W 9719   5.835   5.259   0.648  0.2784 -0.1919 -0.1503
 6201W        W 9720   1.081   6.438   9.882  0.0984 -0.2013  0.0479
 6202W        W 9721   9.644   4.306   8.444  0.1945 -0.0567  0.0551
 6203W        W 9722   4.609   0.330   9.108  0.2782 -0.1208 -0.3470
 6204W        W 9723   6.493   3.346  11.535 -0.1575 -0.2056  0.2148
 6205W        W 9724   0.021   0.336  11.419 -0.0639  0.0056 -0.2068
 6206W        W 9725   0.159   3.917   3.194  0.1110 -0.0245 -0.2288
 6207W        W 9726   0.288   3.523   9.711 -0.0834  0.1646  0.3531
 6208W        W 9727   6.148   2.893   9.410 -0.0986  0.0778  0.1033
 6209W        W 9728   0.412   6.980   0.650  0.0851 -0.1362  0.0890
 6210W        W 9729   9.436   8.541   2.962 -0.1779  0.0815  0.1218
 6211W        W 9730   7.901   8.400   4.390  0.1437  0.4018  0.0933
 6212W        W 9731   1.732   9.672   1.622  0.1744  0.2425  0.0826
 6213W        W 9732   6.960   7.385   2.986  0.2178 -0.0137  0.2130
 6214W        W 9733   8.171   8.069  12.356  0.1256 -0.1264 -0.1273
 6215W        W 9734   1.275   0.735   3.202  0.0622 -0.0215 -0.2674
 6216W        W 9735   0.089   9.033  10.195 -0.0203 -0.2762 -0.1639
 6217W        W 9736   6.406   3.958  10.654 -0.2519 -0.0922  0.0217
 6218W        W 9737   5.952   4.476   2.477 -0.0855  0.0406 -0.1599
 6219W        W 9738   8.854   1.804   4.982  0.3682 -0.2544  0.3316
 6220W        W 9739   3.434   2.194   0.220 -0.0997 -0.3076 -0.1965
 6221W        W 9740   6.845   9.694  10.496 -0.1376  0.1662  0.1867
 6222W        W 9741   5.135   1.611  11.004 -0.1276 -0.3474 -0.0326
 6223W        W 9742   4.919   4.107  10.031  0.4333  0.0197  0.2934
 6224W        W 9743   4.604   2.145  11.880  0.1934 -0.4319  0.1858
 6225W        W 9744   3.529   1.636  10.622  0.1309 -0.1713  0.0081
 6226W        W 9745   7.713   1.160   2.858 -0.0477 -0.0128  0.2179
 6227W        W 9746   3.531   7.906   1.534  0.1467  0.2103  0.2609
 6228W        W 9747   1.695   7.607  11.064  0.0042 -0.3169  0.1927
 6229W        W 9748   0.072   5.958  11.803  0.0940 -0.0726  0.0478
 6230W        W 9749   1.401   0.726  10.437  0.2346  0.3180 -0.2035
 6231W        W 9750   9.058   3.038   2.827  0.0471 -0.2785  0.0669
 6232W        W 9751   3.114   5.183  10.996 -0.1906  0.2518  0.1125
 6233W        W 9752   3.382   2.840  10.286 -0.0499  0.2228 -0.1594
 6234W        W 9753   2.810   6.596  12.046 -0.0753  0.0902  0.3118
 6235W        W 9754   7.414   2.671  10.270  0.2854  0.1368 -0.1991
 6236W        W 9755   7.936   3.506   3.744 -0.0756 -0.1328  0.2048
 6237W        W 9756   3.784   2.903   8.791 -0.0205 -0.1211  0.0752
 6238W        W 9757   0.488   8.016   3.891  0.1166  0.0033 -0.2923
 6239W        W 9758   7.336   2.497  12.117  0.0622  0.1005 -0.1400
 6240W        W 9759   5.622   8.989  10.026 -0.1153 -0.0398 -0.2489
 6241W        W 9760   7.208   9.374   0.970  0.0638  0.0133  0.0379
 6242W        W 9761   7.620   0.719   3.415 -0.1608  0.0397 -0.0749
 6243W        W 9762   3.570   3.894   2.645  0.0152 -0.0522 -0.0191
 6244W        W 9763   3.899   6.447   0.885  0.1177 -0.3321 -0.1408
 6245W        W 9764   2.759   1.853   8.929  0.0150 -0.0812  0.4083
 6246W        W 9765   4.343   7.710   7.928 -0.2087  0.0938  0.4240
 6247W        W 9766   6.519   5.150   9.636  0.0941 -0.2200 -0.1707
 6248W        W 9767   0.695   6.301   1.105 -0.1566 -0.2718 -0.1191
 6249W        W 9768   8.904   3.663  10.657 -0.2011  0.0682 -0.2430
 6250W        W 9769   4.865   0.386   3.866 -0.1614 -0.0826  0.2036
 6251W        W 9770   8.177   3.722   2.708 -0.0958 -0.0136 -0.3933
 6252W        W 9771   4.184   2.212  11.532 -0.0960  0.2441 -0.0996
 6253W        W 9772   1.015   4.336   2.297  0.2872  0.0719 -0.0736
 6254W        W 9773   1.345   5.994  11.752 -0.0803 -0.2756 -0.1016
 6255W        W 9774   6.919   0.598  11.084 -0.1953  0.3320  0.0390
 6256W        W 9775   7.757   1.515   3.254 -0.0378  0.0452  0.0703
 6257W        W 9776   1.933   2.381   9.772  0.1337  0.2084  0.3321
 6258W        W 9777   1.385   4.499   3.748  0.0230  0.2173  0.1046
 6259W        W 9778   5.445   4.037   0.499  0.1810 -0.1601 -0.3067
 6260W        W 9779   4.929   8.667  11.507  0.1275  0.0265 -0.1279
 6261W        W 9780   7.526   5.111   2.616  0.0699 -0.0936  0.1476
 6262W        W 9781   7.108   6.741   8.944 -0.3065  0.3100 -0.0187
 6263W        W 9782   4.954   2.516  11.271  0.1524 -0.0293 -0.0864
 6264W        W 9783   0.738   5.271  12.031  0.1636 -0.1024 -0.1652
 6265W        W 9784   5.263   6.264  10.264  0.0095 -0.2462  0.3620
 6266W        W 9785   9.410   3.246   9.033 -0.0987  0.2286  0.2362
 6267W        W 9786   7.895   4.086   8.756 -0.1499  0.2794  0.0341
 6268W        W 9787   2.224   7.072   0.818  0.0379 -0.0618 -0.0772
 6269W        W 9788   3.091   5.383   1.025  0.1279 -0.3915 -0.0939
 6270W        W 9789   1.999   0.348  11.371 -0.0955  0.1310 -0.0552
 6271W        W 9790   4.954   7.515   3.925 -0.1147 -0.3705  0.0545
 6272W        W 9791   1.664   0.428   1.368 -0.1744 -0.2101  0.0231
 6273W        W 9792   1.462   0.785   8.692  0.3030  0.3073  0.1372
 6274W        W 9793   2.007   2.189   1.502  0.0275  0.1436  0.1076
 6275W        W 9794   2.960   4.244   0.574 -0.1357  0.2699  0.0915
 6276W        W 9795   8.201   0.783   9.995 -0.0149  0.1321  0.0781
 6277W        W 9796   4.733   2.186   3.181  0.0152  0.0348 -0.2778
 6278W        W 9797   5.413   4.485   0.704  0.2436 -0.1929 -0.0007
 6279W        W 9798   0.702   6.686   3.383  0.1818  0.0570 -0.0443
 6280W        W 9799   7.365   2.918   1.922  0.1516  0.0435  0.0876
 6281W        W 9800   8.093   4.287   0.600  0.3644  0.2080  0.3799
 6282W        W 9801   5.528   5.780  12.083  0.3502  0.1801 -0.2009
 6283W        W 9802   5.587   6.441   2.471 -0.2095 -0.2685  0.2584
 6284W        W 9803   5.076   0.544  10.721 -0.5410 -0.1685  0.5297
 6285W        W 9804   0.717   0.217  10.935  0.0682  0.2960 -0.0438
 6286W        W 9805   0.191   0.296   3.896 -0.0094  0.1915 -0.1404
 6287W        W 9806   6.682   5.145  11.392 -0.4215 -0.0794  0.0051
 6288W        W 9807   4.702   7.042   0.104  0.1720  0.2435  0.1900
 6289W        W 9808   0.626   9.350   8.296 -0.0961 -0.0291 -0.0989
 6290W        W 9809   7.495   4.365   9.911 -0.2036  0.0639  0.1986
 6291W        W 9810   9.554   7.630   0.512 -0.3611 -0.1459 -0.2856
 6292W        W 9811   4.274   1.955  11.120 -0.0914  0.3400  0.3942
 6293W        W 9812   9.643   6.091  11.349  0.0743  0.1506 -0.0327
 6294W        W 9813   7.261   2.862  11.659  0.0729 -0.2511  0.0769
 6295W        W 9814   8.825   3.683   0.250  0.3756 -0.2104  0.0829
 6296W        W 9815   6.331   1.169   4.138 -0.0885  0.0069  0.0559
 6297W        W 9816   1.261   4.764  11.903  0.0923  0.2816  0.1303
 6298W        W 9817   6.178   6.830   9.232 -0.0156  0.1173  0.0968
 6299W        W 9818   5.924   9.554   4.234 -0.0048 -0.1040  0.0068
 6300W        W 9819   6.055   6.984   8.378  0.1008 -0.2508  0.3846
 6301W        W 9820   0.438   1.117   0.869  0.0108  0.0827  0.2088
 6302W        W 9821   2.465   2.317   1.103 -0.1074  0.0788 -0.0313
 6303W        W 9822   8.914   7.989  11.808  0.0855 -0.0165  0.1117
 6304W        W 9823   6.742   2.250  10.992  0.2468 -0.6018  0.0042
 6305W        W 9824   5.338   5.621  11.531  0.3147  0.0578  0.0840
 6306W        W 9825   5.397   1.310   9.722 -0.3334  0.0321  0.1020
 6307W        W 9826   4.475   0.915   2.196  0.0324  0.0294  0.0696
 6308W        W 9827   3.788   2.906   9.328  0.0426  0.0247 -0.4653
 6309W        W 9828   8.064   1.761  12.123  0.1138  0.0421 -0.0012
 6310W        W 9829   0.243   7.232   1.030  0.0158 -0.2304 -0.1248
 6311W        W 9830   8.852   1.375   2.207 -0.2751 -0.0252  0.0100
 6312W        W 9831   6.994   7.069  11.304  0.0942  0.0790  0.0382
 6313W        W 9832   5.931   7.081  10.323  0.1309 -0.0578  0.0926
 6314W        W 9833   8.076   3.884   0.861 -0.1312  0.1020 -0.1332
 6315W        W 9834   4.538   2.854   2.311 -0.0768 -0.2151 -0.0282
 6316W        W 9835   3.481   6.225   0.476 -0.1106 -0.2327  0.2571
 6317W        W 9836   2.964   2.615  10.059 -0.0084 -0.1323  0.1820
 6318W        W 9837   8.275   4.396   3.598  0.0331 -0.1423 -0.1942
 6319W        W 9838   9.701   6.012   4.075 -0.1875  0.2250  0.1109
 6320W        W 9839   7.780   5.003   0.416 -0.1313 -0.0551  0.1593
 6321W        W 9840   0.426   3.610   1.447 -0.1482  0.0999 -0.1848
 6322W        W 9841   0.631   4.714   3.059  0.2087 -0.3389  0.0035
 6323W        W 9842   6.533   5.692  12.136  0.3531 -0.0711 -0.2344
 6324W        W 9843   3.687   1.255   1.021  0.0651 -0.1060  0.0692
 6325W        W 9844   9.420   7.025   2.040 -0.0543 -0.0766 -0.3951
 6326W        W 9845   7.000   7.927   8.988  0.4000  0.0896  0.0900
 6327W        W 9846   1.669   0.677   2.351  0.0498  0.0798 -0.4069
 6328W        W 9847   7.617   7.122  11.541 -0.3626 -0.0958  0.1126
 6329W        W 9848   6.740   9.281   9.138  0.0876  0.1769  0.0955
 6330W        W 9849   1.915   8.294   1.608 -0.0031  0.2072  0.0655
 6331W        W 9850   6.215   1.847  10.256 -0.1759 -0.1311  0.2492
 6332W        W 9851   6.840   2.566   3.795 -0.0600 -0.2801  0.0040
 6333W        W 9852   2.145   0.482   2.293  0.1316 -0.3308  0.0355
 6334W        W 9853   2.663   0.860  12.081 -0.0354 -0.1175 -0.2588
 6335W        W 9854   2.853   4.022   1.459  0.3470 -0.1452  0.0611
 6336W        W 9855   2.502   3.338   0.375 -0.1350  0.0374 -0.2071
 6337W        W 9856   9.327   7.176  11.028 -0.0439 -0.1103  0.1415
 6338W        W 9857   8.092   3.630   1.335  0.0169 -0.1133  0.0473
 6339W        W 9858   9.456   9.434  12.468  0.1719  0.1061 -0.1442
 6340W        W 9859   0.761   4.672  11.786  0.0661 -0.5090 -0.1210
 6341W        W 9860   2.267   8.612   1.875  0.2097  0.1605 -0.1026
 6342W        W 9861   9.413   3.653  11.538  0.3023  0.1912  0.2966
 6343W        W 9862   1.476   7.736  10.556  0.2691 -0.0963 -0.0490
 6344W        W 9863   4.484   0.512   9.989  0.2791  0.1349 -0.0317
 6345W        W 9864   2.690   5.695  10.476  0.0253 -0.0220  0.2128
 6346W        W 9865   2.388   2.263   9.814  0.0057 -0.3222  0.1460
 6347W        W 9866   7.981   8.471  12.149  0.1791 -0.2748  0.0705
 6348W        W 9867   9.344   8.119   8.912  0.0420  0.3148 -0.1576
 6349W        W 9868   8.844   5.910   1.503  0.1493 -0.0159 -0.1616
 6350W        W 9869   6.776   9.143   1.101  0.0287  0.3962  0.2574
 6351W        W 9870   0.339   7.081   2.411  0.1214 -0.1462 -0.0353
 6352W        W 9871   7.122   2.481   7.654 -0.2508  0.2179  0.0415
 6353W        W 9872   0.383   4.590   3.509  0.2005  0.0738 -0.1258
 6354W        W 9873   4.579   5.749   2.126  0.0537  0.1314 -0.0992
 6355W        W 9874   1.581   0.007   8.716  0.1414 -0.1700  0.3925
 6356W        W 9875   0.845   8.868   2.302  0.0547 -0.0273  0.0726
 6357W        W 9876   1.048   7.912  12.135 -0.0255  0.2901  0.2660
 6358W        W 9877   0.451   1.503  11.943  0.2961  0.1555  0.0485
 6359W        W 9878   6.212   5.742  11.057 -0.1643 -0.1135  0.0167
 6360W        W 9879   8.354   8.108  11.807 -0.0062 -0.1302 -0.0067
 6361W        W 9880   1.043   0.465   2.208 -0.1701 -0.1954 -0.1769
 6362W        W 9881   4.881   5.614  11.130 -0.0754  0.2707  0.2002
 6363W        W 9882   9.156   1.117   0.136  0.1064 -0.0236  0.2554
 6364W        W 9883   8.571   4.402   1.565 -0.1843 -0.1888  0.0594
 6365W        W 9884   3.095   8.840   9.030  0.2713 -0.1811 -0.0683
 6366W        W 9885   9.373   9.245   0.454 -0.1916  0.0841  0.2229
 6367W        W 9886   3.280   8.797   0.498  0.1917 -0.2847  0.0124
 6368W        W 9887   6.193   3.979   2.852  0.2956 -0.1340 -0.0270
 6369W        W 9888   6.531   3.029   1.138 -0.3889  0.2267 -0.0763
 6370W        W 9889   2.680   7.339  11.003 -0.5023 -0.0330  0.2951
 6371W        W 9890   2.028   5.666  11.371 -0.2036  0.2555  0.0439
 6372W        W 9891   5.549   8.546   9.670  0.0390  0.0946 -0.2001
 6373W        W 9892   9.552   6.992   3.943  0.2309 -0.0349  0.1031
 6374W        W 9893   4.173   3.204  11.322  0.0444  0.1650  0.0153
 6375W        W 9894   2.373   5.308  12.179 -0.1017  0.2185  0.4103
 6376W        W 9895   3.438   0.502   4.245 -0.0116 -0.2601  0.2454
 6377W        W 9896   8.789   9.635  11.340  0.0618 -0.1881 -0.1240
 6378W        W 9897   3.323   6.704   1.973  0.1758  0.0244  0.0025
 6379W        W 9898   9.036   6.187   1.917 -0.3202  0.2616 -0.0637
 6380W        W 9899   8.055   0.297  10.768 -0.3763 -0.2044  0.1692
 6381W        W 9900   0.062   4.932   9.380  0.2919 -0.2800  0.0828
 6382W        W 9901   3.520   4.329  11.241 -0.0432  0.0282  0.2529
 6383W        W 9902   1.983   3.828   1.880  0.1873  0.0426 -0.3188
 6384W        W 9903   4.938   2.344   9.995  0.0927 -0.2388  0.2170
 6385W        W 9904   1.598   9.038   9.459  0.0398 -0.3031 -0.1715
 6386W        W 9905   7.711   8.741   4.054 -0.2868  0.2240  0.1648
 6387W        W 9906   2.593   8.079   3.057 -0.2413 -0.2182  0.0549
 6388W        W 9907   6.135   5.186   4.150  0.0415  0.4029 -0.0238
 6389W        W 9908   6.651   8.959   3.046  0.0002 -0.4613 -0.0162
 6390W        W 9909   5.327   8.910  11.387  0.2424  0.1327 -0.2453
 6391W        W 9910   6.312   5.676   4.206 -0.0718  0.0896  0.0816
 6392W        W 9911   3.491   7.607  10.669 -0.2400  0.1069 -0.1601
 6393W        W 9912   2.859   3.965   3.199 -0.0825  0.2526  0.2165
 6394W        W 9913   0.944   0.369   9.200 -0.0141 -0.0802 -0.2888
 6395W        W 9914   3.752   0.313   2.143  0.1396 -0.1708 -0.2445
 6396W        W 9915   6.912   0.022   9.066  0.0396 -0.0835  0.1307
 6397W        W 9916   6.986   2.750   1.113  0.1248  0.1068 -0.0369
 6398W        W 9917   8.784   7.732   9.536 -0.0215 -0.0563 -0.0108
 6399W        W 9918   5.861   6.193   0.556 -0.5896  0.0542  0.0702
 6400W        W 9919   0.769   7.196   8.665 -0.0453 -0.0094  0.0610
 6401W        W 9920   8.627   8.087   1.974  0.1274  0.0692  0.1394
 6402W        W 9921   2.880   0.551   4.455 -0.2488 -0.3133  0.1453
 6403W        W 9922   0.683   7.602   1.823 -0.0791 -0.0142 -0.2345
 6404W        W 9923   8.111   0.876   9.056  0.2551 -0.2286  0.3140
 6405W        W 9924   1.515   7.542   2.165 -0.1385 -0.0729  0.1251
 6406W        W 9925   7.006   5.093   2.572  0.2851 -0.1808  0.0600
 6407W        W 9926   5.346   7.074  12.050  0.1124  0.1213 -0.0284
 6408W        W 9927   1.281   4.546   9.109 -0.2080 -0.1209  0.2241
 6409W        W 9928   6.158   2.111  10.876  0.3323 -0.0272  0.1789
 6410W        W 9929   2.424   7.543   0.038  0.0559 -0.0087  0.1012
 6411W        W 9930   8.838   5.207   8.220  0.1480  0.1684 -0.0755
 6412W        W 9931   4.272   5.009   3.381 -0.1969 -0.2075  0.2413
 6413W        W 9932   9.592   2.958   1.518 -0.0471 -0.4053  0.3524
 6414W        W 9933   6.302   0.132   3.962  0.1840  0.6034 -0.0525
 6415W        W 9934   2.402   9.230   9.662  0.0383  0.2645 -0.1972
 6416W        W 9935   8.935   0.643   3.851  0.0231  0.0687  0.0980
 6417W        W 9936   4.979   4.392   1.141  0.0470  0.0156 -0.0755
 6418W        W 9937   4.072   5.723   2.769 -0.1242 -0.3861  0.0620
 6419W        W 9938   7.379   1.957   1.566 -0.1691  0.0759  0.2047
 6420W        W 9939   4.219   7.881   0.216  0.2714 -0.1891  0.5294
 6421W        W 9940   2.783   8.455   8.508  0.0170  0.0665 -0.0855
 6422W        W 9941   8.136   6.460   8.911 -0.1718 -0.0440 -0.1882
 6423W        W 9942   2.508   8.138   2.166 -0.0738 -0.0853  0.3983
 6424W        W 9943   9.305   3.059   0.412  0.0655  0.2550  0.0468
 6425W        W 9944   0.242   6.151   2.794  0.4258 -0.2848  0.1868
 6426W        W 9945   6.772   3.655   0.459 -0.2896 -0.2802  0.2532
 6427W        W 9946   2.429   2.979   2.531 -0.1564 -0.0205 -0.1713
 6428W        W 9947   3.853   3.001   2.654 -0.2772 -0.0152 -0.0868
 6429W        W 9948   8.956   3.929  11.880  0.1936 -0.1062 -0.3764
 6430W        W 9949   3.583   5.457  11.168 -0.2357  0.1623  0.3596
 6431W        W 9950   4.874   0.436   2.542 -0.2398  0.2181 -0.0277
 6432W        W 9951   4.202   1.731   1.977 -0.0493  0.0690 -0.0095
 6433W        W 9952   8.432   1.299   9.802 -0.1751  0.1308 -0.0635
 6434W        W 9953   0.966   7.505  11.408 -0.1314  0.0164 -0.1219
 6435W        W 9954   0.171   6.022   8.791  0.1171 -0.2595  0.0130
 6436W        W 9955   1.666   9.560   9.454  0.0636  0.0282  0.3190
 6437W        W 9956   8.866   5.345   1.638 -0.2297  0.1689  0.1881
 6438W        W 9957   8.129   2.249   3.396 -0.1310  0.2546  0.2120
 6439W        W 9958   7.711   3.382   4.184 -0.1090 -0.1138  0.2830
 6440W        W 9959   7.950   2.707   9.578  0.2757 -0.3576  0.3377
 6441W        W 9960   7.005   3.392   2.789  0.2486 -0.0022  0.0448
 6442W        W 9961   1.030   8.104   2.659  0.4093  0.0168 -0.0359
 6443W        W 9962   5.550   0.841   2.894 -0.2048  0.4096  0.0619
 6444W        W 9963   1.590   0.282  11.591  0.4050 -0.0969  0.3753
 6445W        W 9964   1.243   0.510  10.898  0.0203  0.3406 -0.0278
 6446W        W 9965   1.763   2.161  10.169  0.1211  0.3281 -0.1993
 6447W        W 9966   3.878   8.114   7.781  0.1878  0.0813 -0.0183
 6448W        W 9967   3.746   8.329   8.496 -0.0334 -0.0180  0.1491
 6449W        W 9968   8.625   6.454   8.119 -0.0836 -0.1557 -0.0396
 6450W        W 9969   6.774   3.537   3.325 -0.0183  0.1666  0.1232
 6451W        W 9970   5.922   1.533   9.893  0.0499  0.1529  0.2185
 6452W        W 9971   6.171   6.559  12.046  0.1463  0.1913 -0.0129
 6453W        W 9972   5.412   8.505   0.765  0.1160  0.1357 -0.4540
 6454W        W 9973   1.384   4.600  12.385 -0.2772 -0.0790  0.0298
 6455W        W 9974   4.958   9.257  11.570  0.0357  0.0199  0.0719
 6456W        W 9975   3.935   2.855  12.166  0.0035 -0.0973  0.4524
 6457W        W 9976   6.984   1.358   2.163  0.2025 -0.1551  0.4025
 6458W        W 9977   7.012   7.588   1.291  0.1900 -0.3916  0.2111
 6459W        W 9978   3.714   8.300  10.857  0.2990 -0.0381  0.0274
 6460W        W 9979   9.467   4.704  10.272 -0.3536 -0.3329  0.1333
 6461W        W 9980   9.362   3.853  10.692 -0.2700 -0.1410  0.1611
 6462W        W 9981   8.440   6.968  11.045  0.1649 -0.4841 -0.0934
 6463W        W 9982   0.937   9.502  10.056  0.2309  0.2292 -0.0956
 6464W        W 9983   5.894   2.637   2.693  0.0754 -0.1436  0.1372
 6465W        W 9984   0.890   2.856   2.253 -0.0513  0.0716 -0.3155
 6466W        W 9985   6.168   6.107  11.369 -0.0397  0.0653 -0.1715
 6467W        W 9986   0.764   0.078  10.471 -0.0513 -0.1425 -0.1784
 6468W        W 9987   2.193   6.299   3.530 -0.0386  0.1185 -0.1022
 6469W        W 9988   5.299   0.180   9.994 -0.0072  0.0488  0.3783
 6470W        W 9989   3.587   6.015   2.685 -0.2269  0.1703  0.1957
 6471W        W 9990   3.885   6.058   8.848  0.0840  0.0382 -0.0126
 6472W        W 9991   1.029   0.765  12.102  0.4741  0.0096  0.1877
 6473W        W 9992   1.254   3.864   2.552  0.0189 -0.2581 -0.0493
 6474W        W 9993   5.378   2.881   1.263  0.3362 -0.0709 -0.1610
 6475W        W 9994   1.881   6.069  11.008 -0.1787  0.2143 -0.1332
 6476W        W 9995   8.019   4.760   2.515  0.1033  0.0934 -0.1309
 6477W        W 9996   3.668   2.376  11.511  0.3343  0.2448  0.0559
 6478W        W 9997   9.131   5.523   0.260  0.1649  0.0709 -0.1156
 6479W        W 9998   2.079   1.057   2.689  0.1724  0.0836  0.1012
 6480W        W 9999   3.327   0.999   3.012 -0.0361  0.2456  0.2451
 6481W        W10000   7.051   2.586  10.618 -0.1343  0.2319  0.0611
 6482W        W10001   3.885   8.929   3.925  0.2504 -0.3104  0.1080
 6483W        W10002   3.934   9.486  11.516  0.0386 -0.3107  0.0112
 6484W        W10003   3.490   7.856  11.077 -0.0831 -0.0658 -0.0577
 6485W        W10004   2.651   2.140  12.116  0.0870  0.1037  0.0608
 6486W        W10005   7.812   6.161  10.315  0.0009  0.4496  0.1991
 6487W        W10006   9.553   0.786   3.141  0.1967 -0.1566  0.1531
 6488W        W10007   0.500   7.456  12.119  0.0322 -0.0478 -0.3410
 6489W        W10008   5.079   5.461   9.761  0.3329  0.0947  0.1043
 6490W        W10009   8.782   3.896   8.509  0.1760 -0.0565  0.2050
 6491W        W10010   3.863   4.573   2.035  0.0611  0.0444  0.0911
 6492W        W10011   9.477   5.083   0.467 -0.2929  0.0839 -0.2618
 6493W        W10012   9.234   1.960   1.905  0.3827  0.1074  0.2513
 6494W        W10013   0.570   7.312  11.653  0.1134 -0.0456  0.1474
 6495W        W10014   6.781   7.661   3.878 -0.3222 -0.0606  0.2764
 6496W        W10015   9.659   8.438   8.692  0.0116  0.3084 -0.1309
 6497W        W10016   1.745   3.205  10.677  0.1554 -0.1641 -0.0452
 6498W        W10017   1.403   0.611   9.966 -0.0968  0.1882 -0.0087
 6499W        W10018   1.224   8.538   2.899  0.1504  0.0564  0.1898
 6500W        W10019   2.613   8.160   3.969  0.1786 -0.0256 -0.0433
 6501W        W10020   8.796   8.480  11.783  0.1275 -0.0531  0.0537
 6502W        W10021   0.995   5.808   3.379  0.1182 -0.3772 -0.2709
 6503W        W10022   1.329   0.454  12.444 -0.1533  0.0955  0.0119
 6504W        W10023   4.778   9.626   4.035 -0.2509 -0.0216  0.0699
 6505W        W10024   1.272   2.827   0.364 -0.1900  0.2445  0.2111
 6506W        W10025   1.633   6.120   0.844 -0.0437 -0.0732 -0.1196
 6507W        W10026   9.664   1.650   1.468  0.0601 -0.0189 -0.0443
 6508W        W10027   0.708   8.356  12.451 -0.0444 -0.1970 -0.2126
 6509W        W10028   0.496   9.256  12.430 -0.2097 -0.0972 -0.1069
 6510W        W10029   2.562   6.994   2.996 -0.4810 -0.1548 -0.0524
 6511W        W10030   1.129   8.761   1.902 -0.0165 -0.1659  0.1396
 6512W        W10031   6.748   6.387   0.822  0.0680 -0.0483 -0.3278
 6513W        W10032   7.868   1.019   8.593  0.2829 -0.0018  0.0225
 6514W        W10033   0.279   0.507  11.026 -0.1898 -0.2376 -0.0405
 6515W        W10034   1.401   0.424   5.167 -0.0799  0.1744 -0.3434
 6516W        W10035   9.691   3.450   2.277  0.2175 -0.4138  0.0426
 6517W        W10036   8.739   5.468   8.683 -0.0376 -0.2659  0.0895
 6518W        W10037   7.613   5.747  12.455  0.1994 -0.2493 -0.0475
 6519W        W10038   2.997   7.212   2.729 -0.0400  0.2791 -0.1023
 6520W        W10039   8.450   7.519   1.068 -0.1138 -0.1578  0.1124
 6521W        W10040   2.615   3.312   9.770  0.0898 -0.1095 -0.1348
 6522W        W10041   7.158   0.665   0.468  0.0114 -0.1987 -0.0232
 6523W        W10042   4.017   4.224   0.616 -0.1031 -0.2607  0.2187
 6524W        W10043   0.484   7.234   0.185  0.1756 -0.0179 -0.2414
 6525W        W10044   2.007   7.571   9.751  0.1398  0.1034 -0.1012
 6526W        W10045   0.982   7.582   3.012  0.2582  0.1737  0.2062
 6527W        W10046   3.186   1.328   1.013 -0.1942 -0.0788 -0.0603
 6528W        W10047   2.857   9.398   3.098  0.2458  0.1954 -0.0304
 6529W        W10048   1.042   5.579   9.399  0.1562 -0.3634  0.0926
 6530W        W10049   1.032   0.809   1.855 -0.0708  0.0693 -0.1810
 6531W        W10050   7.366   0.994   1.044  0.1709  0.2554 -0.1654
 6532W        W10051   6.424   7.272   2.905  0.0909  0.0426 -0.1914
 6533W        W10052   0.225   5.216   8.463  0.0263 -0.1341 -0.0579
 6534W        W10053   3.982   4.273   8.898  0.1276  0.3443  0.0526
 6535W        W10054   6.646   7.598   9.808  0.0418 -0.0152  0.0546
 6536W        W10055   5.964   6.556   3.265 -0.0959  0.2696 -0.1597
 6537W        W10056   0.151   2.104  12.404 -0.0325  0.2088  0.1576
 6538W        W10057   3.285   2.445  11.848  0.0452  0.0506  0.2539
 6539W        W10058   0.963   9.151   3.203  0.2104  0.2406  0.0288
 6540W        W10059   2.741   4.867  10.257  0.2692  0.2652  0.0330
 6541W        W10060   6.222   5.023   0.394  0.1829  0.1865 -0.0988
 6542W        W10061   2.141   0.190   1.354 -0.0861  0.3056 -0.2638
 6543W        W10062   4.874   0.746   7.826 -0.0272 -0.2043 -0.2135
 6544W        W10063   2.305   3.156  10.122  0.3005  0.1059  0.0954
 6545W        W10064   2.199   9.138  10.185  0.3141 -0.0230 -0.1675
 6546W        W10065   9.722   3.926   8.966  0.0696 -0.0015  0.2957
 6547W        W10066   2.817   9.471   0.406  0.0167 -0.0870 -0.0028
 6548W        W10067   2.734   3.026  10.988 -0.1533 -0.1416  0.0450
 6549W        W10068   2.196   6.964   9.660 -0.1910 -0.2966 -0.1504
 6550W        W10069   7.892   2.656  12.367 -0.2603  0.0760  0.4286
 6551W        W10070   5.158   7.843  10.085  0.1669 -0.4929 -0.1055
 6552W        W10071   5.037   3.587  12.035 -0.2399  0.4520 -0.2150
 6553W        W10072   5.314   6.404  12.187 -0.0201 -0.0197  0.1779
 6554W        W10073   2.541   7.722   4.625  0.0097  0.3195  0.1964
 6555W        W10074   9.077   8.583   1.834  0.0276  0.0745  0.3496
 6556W        W10075   6.775   8.541   1.929  0.5080 -0.0458 -0.1171
 6557W        W10076   2.072   9.135   2.919  0.2733 -0.1029 -0.0134
 6558W        W10077   4.982   0.807   0.918 -0.2567  0.2233 -0.1935
 6559W        W10078   5.212   6.957   8.936  0.1089 -0.2422  0.0311
 6560W        W10079   6.659   8.059   1.257  0.2385  0.0813 -0.4662
 6561W        W10080   1.141   7.856   4.556  0.5393  0.0214 -0.3285
 6562W        W10081   3.202   5.660   1.922  0.0616 -0.1974  0.0324
 6563W        W10082   0.560   5.154   2.843  0.0533 -0.1983  0.1200
 6564W        W10083   8.849   5.203  11.803  0.0417  0.2617  0.0504
 6565W        W10084   4.251   3.332   3.117  0.3329 -0.0967 -0.3101
 6566W        W10085   7.932   0.742  11.859 -0.4034  0.1045  0.3009
 6567W        W10086   2.300   3.987   1.428  0.2041  0.1635 -0.0567
 6568W        W10087   8.499   1.697  10.824  0.4611  0.1721  0.2067
 6569W        W10088   0.881   7.948   9.029 -0.3572  0.0729 -0.1621
 6570W        W10089   7.922   8.925   3.674 -0.1759  0.1051  0.0438
 6571W        W10090   6.759   5.252   2.053 -0.0276 -0.3520  0.1284
 6572W        W10091   8.826   8.884   9.043  0.0381  0.1529 -0.2733
 6573W        W10092   4.192   4.684   9.182  0.0874  0.1035 -0.0953
 6574W        W10093   4.899   4.913   9.599  0.2337 -0.1297  0.0402
 6575W        W10094   5.818   5.837   2.084  0.3868 -0.3217 -0.0197
 6576W        W10095   6.192   3.744   8.778  0.0220 -0.2746  0.1280
 6577W        W10096   4.104   7.909   9.934  0.0303 -0.0508  0.1132
 6578W        W10097   3.849   4.964   2.645 -0.1246 -0.0236  0.1436
 6579W        W10098   0.871   7.582   9.437  0.3056 -0.1982  0.0191
 6580W        W10099   5.509   9.015   0.658  0.4963  0.1558 -0.0665
 6581W        W10100   1.675   0.062   0.960  0.1242 -0.1652  0.2799
 6582W        W10101   4.361   5.163  11.655 -0.2180  0.1885 -0.1397
 6583W        W10102   5.118   6.968   1.894 -0.0692  0.1877 -0.1154
 6584W        W10103   1.790   7.302  12.200 -0.3096  0.0552  0.1966
 6585W        W10104   0.339   5.408   9.695 -0.5133 -0.0732  0.1192
 6586W        W10105   9.481   8.035   1.721  0.1978 -0.1390  0.2540
 6587W        W10106   4.861   0.753   9.259 -0.1562 -0.2237  0.0725
 6588W        W10107   6.774   6.706   3.421  0.2054  0.1198  0.4466
 6589W        W10108   8.606   7.237   9.586  0.0671  0.2506 -0.1495
 6590W        W10109   1.475   5.677  10.501  0.0033 -0.0624 -0.1790
 6591W        W10110   9.568   7.055   3.363 -0.1465  0.3164 -0.0108
 6592W        W10111   5.785   6.837   4.525  0.3344  0.1761 -0.1501
 6593W        W10112   4.627   0.238   4.339  0.1810 -0.4684 -0.2361
 6594W        W10113   0.812   7.582   0.016  0.0484 -0.0142 -0.1729
 6595W        W10114   7.270   7.107   0.402 -0.2674 -0.0572 -0.1061
 6596W        W10115   3.930   0.286   3.831  0.0213  0.0554  0.2393
 6597W        W10116   8.324   2.411  11.537  0.0100  0.0112 -0.1966
 6598W        W10117   5.185   4.137  12.208 -0.2102 -0.3577 -0.1757
 6599W        W10118   4.577   7.465   3.602 -0.1498  0.0795  0.0041
 6600W        W10119   1.934   3.620   2.802  0.0856 -0.1579  0.0455
 6601W        W10120   0.948   3.843  11.259 -0.1341 -0.3960 -0.3705
 6602W        W10121   1.138   5.628  12.442 -0.3183  0.0042 -0.0555
 6603W        W10122   5.779   5.750   0.704 -0.0302  0.2397 -0.0400
 6604W        W10123   0.276   2.622   3.567  0.1343  0.0887  0.1580
 6605W        W10124   4.099   9.010  11.710  0.0214 -0.0708 -0.1869
 6606W        W10125   4.054   6.863   0.630 -0.4964  0.1490  0.0925
 6607W        W10126   9.565   8.960   2.007 -0.0279  0.5326  0.0193
 6608W        W10127   7.644   1.405   4.823 -0.0323 -0.1093  0.1502
 6609W        W10128   5.741   4.922   8.605  0.0432 -0.1282  0.1714
 6610W        W10129   2.041   0.344   0.020 -0.1240 -0.0491  0.0670
 6611W        W10130   8.306   8.301   5.024  0.0534  0.0287 -0.1026
 6612W        W10131   4.408   5.596  11.339 -0.0351 -0.0359  0.2647
 6613W        W10132   7.713   5.852   2.928  0.3878  0.0725  0.0466
 6614W        W10133   1.014   8.957   0.378  0.1613 -0.2423 -0.0102
 6615W        W10134   8.712   3.184  11.205  0.2159  0.0620 -0.0705
 6616W        W10135   2.832   1.977   9.964  0.2476 -0.2017 -0.2054
 6617W        W10136   7.964   9.543  11.981 -0.4807  0.1202  0.1543
 6618W        W10137   3.437   3.366   0.446  0.0631 -0.1887  0.0621
 6619W        W10138   1.400   6.064   0.149 -0.1432 -0.2475 -0.1754
 6620W        W10139   8.268   4.249   9.736 -0.0999  0.2685 -0.2306
 6621W        W10140   6.869   8.098  12.002 -0.2204 -0.2453  0.1485
 6622W        W10141   7.921   9.252   4.898 -0.2209  0.0141  0.1026
 6623W        W10142   9.584   2.389   1.271 -0.1190  0.1026 -0.4707
 6624W        W10143   3.240   5.149  11.957 -0.1401  0.0085 -0.1640
 6625W        W10144   6.735   2.498   4.333  0.1802  0.3685  0.3747
 6626W        W10145   6.936   3.984  10.805 -0.1412 -0.1756  0.2667
 6627W        W10146   3.257   2.365  10.557  0.1895  0.0780 -0.1223
 6628W        W10147   7.395   0.986   8.766 -0.0753 -0.0711  0.4624
 6629W        W10148   6.157   0.250   2.565  0.1077  0.1062 -0.2363
 6630W        W10149   2.618   0.969   9.164  0.0954  0.0789  0.0605
 6631W        W10150   1.192   0.020  10.828 -0.0504 -0.0736 -0.0592
 6632W        W10151   0.464   3.004   9.357  0.0440  0.0987 -0.2493
 6633W        W10152   3.523   8.730   9.945 -0.1868  0.1548 -0.1266
 6634W        W10153   0.097   1.988  11.157  0.0661 -0.0949  0.0649
 6635W        W10154   8.953   9.015   0.458  0.4114  0.0452 -0.0086
 6636W        W10155   8.700   6.700   4.417  0.0392 -0.0229  0.0036
 6637W        W10156   6.097   4.639   3.743 -0.2131 -0.0429 -0.0429
 6638W        W10157   9.661   1.262   3.869  0.3206  0.0762 -0.1990
 6639W        W10158   1.584   3.166   0.473 -0.1404  0.2154  0.1759
 6640W        W10159   9.670   3.093   9.568 -0.0367 -0.0891 -0.1477
 6641W        W10160   5.699   1.100   4.582  0.3119 -0.2422  0.0540
 6642W        W10161   1.756   4.080   3.155 -0.3770  0.1550 -0.1793
 6643W        W10162   1.132   8.384   3.719 -0.1817  0.0927  0.3863
 6644W        W10163   7.287   8.278  10.051 -0.0821 -0.2665  0.2183
 6645W        W10164   0.881   8.685   0.796  0.2216  0.2845 -0.2252
 6646W        W10165   6.870   1.788  10.244  0.1902 -0.0504 -0.2719
 6647W        W10166   4.628   8.726   0.551  0.0006  0.1866  0.1268
 6648W        W10167   8.038   8.775   2.913  0.0641 -0.0291  0.0497
 6649W        W10168   8.239   1.426  11.792 -0.1564  0.1179 -0.1743
 6650W        W10169   8.106   7.698   3.017 -0.1439  0.2133  0.0111
 6651W        W10170   2.326   6.815   2.110 -0.0480  0.0708 -0.1037
 6652W        W10171   4.690   6.419   1.044 -0.1846  0.3982 -0.0162
 6653W        W10172   4.929   2.129   9.379  0.0627  0.0559 -0.0331
 6654W        W10173   7.176   3.901   9.831 -0.0989  0.0796  0.0345
 6655W        W10174   0.097   0.831  11.615 -0.0861  0.0801 -0.2572
 6656W        W10175   7.890   8.102   4.787  0.1599  0.0241 -0.3334
 6657W        W10176   9.516   8.037   2.662  0.2267 -0.1232  0.1193
 6658W        W10177   6.336   0.678   0.319 -0.2477 -0.2634  0.1592
 6659W        W10178   2.957   5.136   0.107  0.1861  0.0316  0.1878
 6660W        W10179   0.809   7.997  10.500 -0.0685 -0.0022 -0.1029
 6661W        W10180   7.788   9.186  10.789 -0.2252 -0.0896  0.3719
 6662W        W10181   0.054   4.465   2.372 -0.2373 -0.0277  0.1856
 6663W        W10182   4.895   8.726   5.015  0.0730 -0.2833 -0.0794
 6664W        W10183   0.102   9.121   2.602  0.2508  0.4500  0.4714
 6665W        W10184   9.702   4.332   4.450 -0.2485  0.1171  0.0491
 6666W        W10185   0.382   3.016  11.409  0.1459 -0.0262 -0.1105
 6667W        W10186   1.545   7.579  11.852 -0.3375  0.1091 -0.0767
 6668W        W10187   6.837   4.048   7.956 -0.2367 -0.0630  0.1013
 6669W        W10188   8.667   9.349   8.929 -0.0964 -0.2037  0.0303
 6670W        W10189   7.527   0.348   0.663  0.0538  0.2606 -0.0993
 6671W        W10190   6.043   4.947   9.502  0.1287  0.0283  0.4102
 6672W        W10191   2.963   8.310   9.084 -0.3452 -0.0847 -0.3151
 6673W        W10192   1.941   1.295  12.371  0.0620 -0.2246 -0.0227
 6674W        W10193   6.823   0.230   8.628  0.1973 -0.5129  0.1293
 6675W        W10194   0.445   2.470   4.017 -0.1645  0.2654  0.0977
 6676W        W10195   0.016   3.466   1.244  0.3020 -0.5108  0.1246
 6677W        W10196   6.552   1.135   1.991  0.0032 -0.0618 -0.0773
 6678W        W10197   2.581   8.695   9.498 -0.1734 -0.0774 -0.1312
 6679W        W10198   8.504   3.512   8.727 -0.0953  0.1532  0.0361
 6680W        W10199   9.261   7.743   9.300  0.1515  0.0384  0.1867
 6681W        W10200   7.964   0.017  11.342 -0.1497  0.2286  0.1781
 6682W        W10201   7.667   4.764   1.824 -0.2734 -0.0110  0.1610
 6683W        W10202   2.564   8.629   8.925  0.2365  0.1022 -0.4196
 6684W        W10203   6.091   4.592   0.074  0.0217  0.0245 -0.0034
 6685W        W10204   7.316   9.013   8.468 -0.0643 -0.0304  0.0915
 6686W        W10205   3.644   8.811   8.446 -0.0542  0.0105 -0.0011
 6687W        W10206   1.124   9.003   3.634  0.0626 -0.1547 -0.0531
 6688W        W10207   1.664   2.590  11.943  0.1090  0.3268  0.4217
 6689W        W10208   5.095   7.870   2.926  0.1564 -0.1228 -0.4045
 6690W        W10209   3.719   0.702   9.330  0.1542 -0.0410 -0.0202
 6691W        W10210   6.887   5.531   3.104 -0.0813 -0.1232  0.1044
 6692W        W10211   4.475   9.393   8.325  0.0945 -0.1247 -0.2092
 6693W        W10212   7.544   4.898   8.616 -0.0592  0.0902  0.0001
 6694W        W10213   3.851   8.604   1.343 -0.3643 -0.0986 -0.0119
 6695W        W10214   1.743   4.756   0.859  0.0238  0.1078 -0.3713
 6696W        W10215   5.670   9.451   0.548  0.1698  0.0188  0.2625
 6697W        W10216   0.186   2.973  10.439  0.0887 -0.0168 -0.0259
 6698W        W10217   4.270   3.539   2.616 -0.1989  0.3847 -0.0746
 6699W        W10218   3.532   5.588   0.879 -0.0622  0.0576 -0.0854
 6700W        W10219   0.840   8.341   4.084  0.1163  0.3749 -0.1405
 6701W        W10220   4.236   1.045   1.228  0.0164  0.0660 -0.2493
 6702W        W10221   6.076   8.202  11.785 -0.1782  0.3247 -0.2253
 6703W        W10222   2.972   3.662   1.790  0.1458 -0.0630  0.1684
 6704W        W10223   2.178   4.911   0.638  0.0704  0.0460 -0.1620
 6705ION    NA+10224   8.085   7.312   2.176  0.5102  0.2013 -0.1524
 6706ION    NA+10225   3.507   7.185   2.168 -0.0652  0.2581  0.1705
 6707ION    NA+10226   7.313   7.695   8.210  0.1549 -0.0080 -0.2426
 6708ION    NA+10227   0.779   2.218  11.852  0.3728  0.1249  0.0602
 6709ION    NA+10228   5.750   6.713  12.314 -0.4308  0.1335  0.4388
 6710ION    NA+10229   1.021   9.008   8.310 -0.2197 -0.3059 -0.1048
 6711ION    NA+10230   6.437   6.954  11.655  0.0240  0.0177  0.1915
 6712ION    NA+10231   6.575   5.367  10.125  0.1440 -0.1215 -0.1396
 6713ION    NA+10232   9.342   0.462   9.777  0.2379  0.2900 -0.0524
 6714ION    NA+10233   4.455   4.295  10.098 -0.0389  0.2353  0.1297
 6715ION    NA+10234   1.491   0.680  11.892 -0.4339 -0.2999  0.1752
 6716ION    NA+10235   5.145   4.858   1.358 -0.1103  0.2907  0.0199
 6717ION    NA+10236   1.586   1.069   3.981  0.0670 -0.0171  0.0506
 6718ION    NA+10237   5.106   4.138   2.446 -0.1506 -0.3480  0.1586
 6719ION    NA+10238   7.832   4.074  12.092 -0.2823 -0.0254  0.1737
 6720ION    NA+10239   8.690   1.406   8.310  0.0632 -0.1710  0.0061
 6721ION    NA+10240   9.588   6.398   8.996  0.1798  0.1097  0.3515
 6722ION    NA+10241   2.241   5.940   3.176  0.1889  0.2211  0.1510
 6723ION    NA+10242   4.760   6.588   1.927 -0.0089  0.4915 -0.0925
 6724ION    NA+10243   0.270   2.491   8.512 -0.0008  0.1717  0.1188
 6725ION    NA+10244   6.883   4.394  10.453  0.0679  0.0529 -0.1712
 6726ION    NA+10245   4.250   4.579  11.790  0.1672  0.1742 -0.1616
 6727ION    NA+10246   8.912   3.163   1.077 -0.0338  0.4635  0.2855
 6728ION    NA+10247   8.339   0.754   3.103 -0.2014 -0.1505  0.2410
 6729ION    NA+10248   7.493   8.644   2.601  0.2031 -0.2324 -0.1119
 6730ION    NA+10249   4.146   2.389   9.312 -0.0383  0.1084 -0.1987
 6731ION    NA+10250   7.601   3.260   0.485  0.1140 -0.1052  0.0922
 6732ION    NA+10251   1.060   2.789   1.043  0.0038 -0.0861 -0.1014
 6733ION    NA+10252   0.902   0.706   0.871  0.2072 -0.0923 -0.2652
 6734ION    NA+10253   6.177   5.228   1.350  0.1321  0.3969 -0.0103
 6735ION    NA+10254   0.068   4.417   3.109  0.2324  0.2060  0.0674
 6736ION    NA+10255   2.079   2.177  12.019  0.0242  0.1268 -0.1864
 6737ION    NA+10256   4.357   2.924  10.107  0.0972 -0.1257  0.1704
 6738ION    NA+10257   6.676   4.726   2.834 -0.1211 -0.3166 -0.0046
 6739ION    NA+10258   9.700   3.460   0.645  0.0926  0.0025 -0.0027
 6740ION    NA+10259   9.556   6.266   1.946 -0.0275 -0.1165 -0.1968
 6741ION    NA+10260   5.507   5.971   1.187 -0.4169 -0.2190 -0.3233
 6742ION    NA+10261   4.208   2.116   4.173 -0.1245  0.0174  0.1681
 6743ION    NA+10262   9.541   9.191   4.894 -0.0429  0.1506 -0.1421
 6744ION    NA+10263   5.304   6.857   2.356 -0.1035 -0.3070  0.3142
 6745ION    NA+10264   6.965   6.520   9.512 -0.0033  0.0443  0.1523
 6746ION    NA+10265   1.596   7.886   4.070  0.3119 -0.2184  0.1426
 6747ION    NA+10266   0.173   9.681   0.003  0.0715 -0.0072 -0.2236
 6748ION    NA+10267   4.159   8.298   1.956 -0.1495 -0.1324  0.2067
 6749ION    NA+10268   0.621   5.778  10.484 -0.3352 -0.1220  0.1795
 6750ION    NA+10269   1.012   1.347   8.486  0.1903 -0.0087 -0.0263
 6751ION    NA+10270   7.028   2.888   0.167  0.2004 -0.2330 -0.1319
 6752ION    NA+10271   3.894   5.814  11.278 -0.3572 -0.0907 -0.2518
 6753ION    NA+10272   3.130   6.878   3.891 -0.1687  0.1268 -0.0410
 6754ION    NA+10273   0.861   6.952   0.136 -0.0674 -0.0798 -0.1105
 6755ION    NA+10274   1.803   2.087   0.371  0.0077 -0.1087  0.0005
 6756ION    NA+10275   1.839   0.366   3.416  0.0104 -0.0949  0.0517
 6757ION    NA+10276   8.174   2.692   9.125  0.3920  0.0345 -0.0679
 6758ION    NA+10277   8.997   8.844  11.384  0.4066  0.3872  0.0103
 6759ION    NA+10278   3.030   7.833  10.755  0.0790 -0.2847  0.1642
 6760ION    NA+10279   1.347   2.315   0.266 -0.1058  0.2265 -0.1502
 6761ION    NA+10280   2.588   7.219   1.959 -0.0289 -0.2254  0.1152
 6762ION    NA+10281   5.144   4.476  11.813  0.1662  0.1890 -0.3615
 6763ION    NA+10282   1.084   2.056  10.876 -0.1390  0.0664 -0.1353
 6764ION    NA+10283   3.286   9.688   0.485  0.0460 -0.3335 -0.1227
 6765ION    NA+10284   4.033   1.441  12.467  0.0495  0.2130  0.0145
 6766ION    NA+10285   0.075   5.627   3.170  0.0783  0.0942 -0.0531
 6767ION    NA+10286   5.960   1.251  11.366 -0.1781  0.2231  0.1957
 6768ION    NA+10287   1.970   0.872   8.679 -0.2625  0.2400 -0.1240
 6769ION    NA+10288   0.472   3.768  10.078 -0.1474  0.0266 -0.2822
 6770ION    NA+10289   2.538   0.035   0.716  0.1661  0.0241 -0.0051
 6771ION    NA+10290   9.365   1.594   2.310 -0.0921 -0.0747 -0.0355
 6772ION    NA+10291   4.781   4.836  10.865  0.2347 -0.1488 -0.3062
 6773ION    NA+10292   5.391   4.309   4.306  0.2938 -0.0044 -0.0575
 6774ION    NA+10293   9.723   7.157   1.436  0.0861 -0.2378  0.2093
 6775ION    NA+10294   4.208   4.682   2.921 -0.0044  0.0828  0.0203
 6776ION    CL-10295   4.869   4.013  11.815 -0.0275 -0.0164 -0.0506
 6777ION    CL-10296   3.481   8.068  10.439  0.5236  0.1343  0.1088
 6778ION    CL-10297   0.870   3.001   1.669 -0.0340  0.3874 -0.1107
 6779ION    CL-10298   7.828   2.323   9.280  0.0061 -0.2945  0.0210
 6780ION    CL-10299   9.288   3.721   8.840  0.2891  0.0816  0.3012
 6781ION    CL-10300   7.717   3.568  12.415 -0.2994 -0.1234 -0.1303
 6782ION    CL-10301   3.902   2.037   8.982 -0.1218  0.0238 -0.0991
 6783ION    CL-10302   7.163   0.609   9.057  0.1183 -0.1412  0.1954
 6784ION    CL-10303   3.412   9.235   3.182  0.0396 -0.0006  0.0755
 6785ION    CL-10304   0.209   6.989  11.824 -0.3218 -0.1032  0.2562
 6786ION    CL-10305   6.044   4.133   9.118  0.0735 -0.0256  0.2578
 6787ION    CL-10306   6.174   6.350   0.055 -0.0763 -0.3641 -0.5405
 6788ION    CL-10307   0.793   2.223   3.542 -0.1126  0.0034  0.0422
 6789ION    CL-10308   3.793   5.005   3.170 -0.0838  0.2118 -0.2534
 6790ION    CL-10309   1.505   0.642   3.747  0.1452 -0.1199 -0.0237
 6791ION    CL-10310   1.528   1.028   9.510  0.1589 -0.3603  0.1110
 6792ION    CL-10311   8.229   1.019   2.663  0.0473 -0.1555  0.1501
 6793ION    CL-10312   1.821   9.689   3.045  0.1982  0.1190 -0.1035
 6794ION    CL-10313   4.331   0.858   9.363  0.1292  0.3007  0.1007
 6795ION    CL-10314   7.191   7.370   3.849  0.0081 -0.3094 -0.2798
 6796ION    CL-10315   2.281   7.752   3.452 -0.1079 -0.2312  0.1385
 6797ION    CL-10316   9.329   8.888  10.554 -0.2858  0.1279  0.1393
 6798ION    CL-10317   2.069   9.509   0.925  0.2055 -0.0687  0.0201
 6799ION    CL-10318   5.743   5.594   9.102 -0.2568  0.3224  0.4731
 6800ION    CL-10319   3.390   7.969   1.988  0.2080 -0.0067 -0.1215
 6801ION    CL-10320   0.165   4.791   2.792  0.2110  0.1537 -0.3073
 6802ION    CL-10321   3.152   4.540  10.153  0.0390 -0.0554 -0.0942
 6803ION    CL-10322   1.387   3.006  11.946  0.3379 -0.0693  0.3621
 6804ION    CL-10323   9.190   9.613   8.987 -0.2321 -0.1024 -0.2823
 6805ION    CL-10324   4.244   6.742   1.150  0.1683 -0.0874 -0.0861
 6806ION    CL-10325   8.295   6.622  11.624  0.1370 -0.1425 -0.0453
 6807ION    CL-10326   6.003   7.028  11.988 -0.1408  0.1509 -0.1151
 6808ION    CL-10327   5.097   4.667  11.345 -0.0470 -0.4046  0.2705
 6809ION    CL-10328   1.392   9.334   8.374 -0.0889  0.0918 -0.1272
 6810ION    CL-10329   4.855   1.678   3.096  0.1701 -0.3196 -0.1133
 6811ION    CL-10330   3.003   7.178   2.234  0.1545 -0.2437 -0.0443
 6812ION    CL-10331   3.969   4.447  10.073  0.1195  0.0547  0.1056
 6813ION    CL-10332   7.602   2.296  10.509 -0.2734  0.2009  0.1444
 6814ION    CL-10333   0.922   1.194   1.062  0.1772 -0.0090  0.0725
 6815ION    CL-10334   9.417   3.201   0.990 -0.3019  0.0551 -0.1204
 6816ION    CL-10335   0.933   3.152   9.599 -0.0713  0.1220 -0.1144
 6817ION    CL-10336   1.742   7.575   3.657 -0.2140 -0.2198  0.3438
 6818ION    CL-10337   8.596   2.763   0.907  0.2749  0.2081 -0.4791
 6819ION    CL-10338   6.822   5.383  10.535 -0.1678  0.0452  0.1211
 6820ION    CL-10339   4.616   6.566   2.421 -0.0385 -0.2675 -0.2956
 6821ION    CL-10340   4.313   4.669   2.360  0.2695  0.0624 -0.1832
 6822ION    CL-10341   6.535   7.683   9.034  0.2889 -0.1793  0.0586
 6823ION    CL-10342   0.498   5.921   3.164 -0.0374  0.4665  0.0027
 6824ION    CL-10343   7.259   8.253   2.856  0.2208  0.2113  0.1390
 6825ION    CL-10344   9.484   6.636   1.652  0.0882 -0.1454  0.1154
 6826ION    CL-10345   1.433   1.815   0.083  0.1238  0.0351 -0.0329
 6827ION    CL-10346   7.121   3.123  10.437  0.3046 -0.3345 -0.1840
 6828ION    CL-10347   1.095   2.555  10.679 -0.0287  0.1632 -0.2136
 6829ION    CL-10348   5.268   4.880   3.475 -0.3758  0.0835 -0.1444
 6830ION    CL-10349   0.422   4.546  10.257 -0.3335  0.3531 -0.0595
 6831ION    CL-10350   5.675   2.544   9.633 -0.2783  0.0636 -0.0599
 6832ION    CL-10351   5.241   1.025   3.919  0.0986 -0.2942  0.3259
 6833ION    CL-10352   5.657   5.172   1.521 -0.1674  0.2719 -0.0134
 6834ION    CL-10353   2.149   2.338   0.027  0.1870  0.1296  0.1429
 6835ION    CL-10354   6.124   9.420   2.428  0.0146  0.0466  0.1578
 6836ION    CL-10355   6.222   3.954  11.566  0.0504  0.1591  0.1346
 6837ION    CL-10356   1.414   2.244   0.838  0.1084  0.2968 -0.1146
 6838ION    CL-10357   2.370   9.615   0.205  0.2909 -0.0116 -0.0814
 6839ION    CL-10358   5.259   6.504   2.013 -0.3502  0.2740 -0.1229
 6840ION    CL-10359   6.294   4.165  10.111  0.1420 -0.0674 -0.3425
 6841ION    CL-10360   4.275   2.935   9.628 -0.0515 -0.1589  0.4747
 6842ION    CL-10361   1.711   0.721  12.339 -0.0770  0.0795 -0.1707
 6843ION    CL-10362   9.355   8.204  11.126  0.0365 -0.1767  0.0554
 6844ION    CL-10363   3.761   9.700   0.463 -0.1658 -0.3761 -0.0439
 6845ION    CL-10364   2.973   9.628   0.900  0.0794 -0.2869  0.6976
 6846ION    CL-10365   2.489   4.824   2.532  0.1964  0.1909  0.1166
   9.72604   9.72604  12.47623
