Protein in INSANE! Membrane UpperLeaflet>POPC=1.0 LowerLeaflet>POPC=1.0
12676
    1AU     AUC    1   9.226   1.717   7.236 -0.0059 -0.0158  0.0370
    1AU     AUC    2   9.454   1.550   7.110 -0.0137 -0.0767 -0.0289
    1AU     AUC    3   9.187   1.416   7.198  0.0069  0.0124 -0.0698
    1AU     AUC    4   9.291   1.993   7.276 -0.0189  0.1351  0.1203
    1AU     AUC    5   9.032   1.888   7.385  0.0699  0.0039 -0.0525
    1AU     AUC    6   9.293   1.801   7.513  0.1468 -0.0356  0.0353
    1AU     AUC    7   9.390   1.525   7.407  0.0021 -0.0028 -0.0122
    1AU     AUC    8   9.064   1.883   7.062 -0.0013  0.1141  0.0468
    1AU     AUC    9   9.168   1.617   6.966 -0.0009  0.0244  0.0594
    1AU     AUC   10   8.950   1.633   7.185 -0.1536  0.0184  0.0245
    1AU     AUC   11   9.085   1.562   7.452  0.0019  0.0506 -0.1010
    1AU     AUC   12   9.391   1.859   7.015  0.0511 -0.0218 -0.0313
    1AU     AUC   13   9.517   1.790   7.302  0.0331  0.0333  0.0514
    1AU     AUC   14   9.680   1.364   7.001  0.1219  0.0581  0.0585
    1AU     AUC   15   9.404   1.239   7.072  0.0538 -0.0657 -0.0131
    1AU     AUC   16   9.110   1.141   7.166 -0.0407  0.0577 -0.0392
    1AU     AUC   17   9.318   2.297   7.297  0.0477 -0.0321  0.0561
    1AU     AUC   18   9.074   2.162   7.418 -0.0397  0.0603  0.0502
    1AU     AUC   19   8.829   2.034   7.547  0.0253  0.0221  0.0593
    1AU     AUC   20   9.339   1.892   7.801 -0.0298 -0.0908 -0.0896
    1AU     AUC   21   9.451   1.605   7.698 -0.0644 -0.0250 -0.1437
    1AU     AUC   22   9.538   1.330   7.602 -0.0259  0.0333 -0.1146
    1AU     AUC   23   8.897   2.101   6.891 -0.0704 -0.0069  0.0355
    1AU     AUC   24   9.015   1.817   6.781  0.0413 -0.0289  0.0051
    1AU     AUC   25   9.103   1.528   6.712 -0.0736 -0.0159 -0.0321
    1AU     AUC   26   8.663   1.572   7.121  0.0689 -0.0163 -0.1049
    1AU     AUC   27   8.788   1.508   7.393  0.0175  0.0663 -0.1131
    1AU     AUC   28   8.917   1.423   7.669 -0.0060  0.0355 -0.0338
    1AU     AUC   29   9.538   1.976   6.805 -0.0389 -0.0732 -0.0165
    1AU     AUC   30   9.665   1.922   7.059  0.0417 -0.0104  0.0937
    1AU     AUC   31   9.798   1.870   7.356 -0.1328 -0.0936 -0.0554
    1AU     AUC   32   8.886   1.325   7.133 -0.0206 -0.0377  0.0565
    1AU     AUC   33   9.003   1.283   7.411  0.0745 -0.0285  0.0225
    1AU     AUC   34   9.609   1.661   6.887  0.1123 -0.0171  0.0480
    1AU     AUC   35   9.726   1.616   7.148 -0.0706 -0.1315  0.0674
    1AU     AUC   36   8.730   1.810   7.347  0.0145 -0.0686 -0.0484
    1AU     AUC   37   8.845   1.725   7.601 -0.0043 -0.0741 -0.0900
    1AU     AUC   38   9.451   2.140   7.064  0.0566  0.0322  0.0886
    1AU     AUC   39   9.571   2.107   7.335 -0.0072  0.0757  0.1050
    1AU     AUC   40   9.618   1.349   7.294 -0.0483 -0.0520  0.0517
    1AU     AUC   41   9.339   1.216   7.365  0.0149 -0.0172 -0.0217
    1AU     AUC   42   9.324   2.094   7.565 -0.0303 -0.0799 -0.0271
    1AU     AUC   43   9.069   1.955   7.680  0.1211  0.0073  0.0517
    1AU     AUC   44   9.397   1.442   6.827 -0.0751 -0.0484  0.0008
    1AU     AUC   45   9.119   1.320   6.916  0.0499 -0.0118  0.0058
    1AU     AUC   46   9.124   2.204   7.096 -0.0768 -0.0354  0.0417
    1AU     AUC   47   8.843   2.055   7.206 -0.0982 -0.0314  0.0253
    1AU     AUC   48   9.115   1.663   7.733 -0.0515  0.0476 -0.0312
    1AU     AUC   49   9.251   1.380   7.637  0.1220  0.0228  0.0107
    1AU     AUC   50   8.786   1.842   6.997  0.0332 -0.0179  0.0228
    1AU     AUC   51   8.866   1.546   6.904  0.0039  0.0586 -0.0024
    1AU     AUC   52   9.570   1.885   7.578 -0.0402 -0.0200  0.0149
    1AU     AUC   53   9.676   1.603   7.464  0.0199  0.0438 -0.0382
    1AU     AUC   54   9.225   2.049   6.840  0.0093 -0.0590 -0.0471
    1AU     AUC   55   9.322   1.743   6.739  0.0794  0.0050 -0.1454
    1AU    AUSL   56   8.772   1.167   7.285  0.0158 -0.0368 -0.0455
    1AU    AUSL   57   8.611   1.233   6.877 -0.0252  0.0521 -0.1010
    1AU     AUL   58   8.424   0.933   7.075 -0.0143 -0.0516 -0.0606
    1AU       S   59   8.601   1.008   6.601  0.0080 -0.0651 -0.1002
    1AU     LIG   60   8.296   0.662   6.645  0.3909  0.0678 -0.0039
    1AU     LIG   61   7.876   0.540   6.760 -0.1153  0.0632 -0.2415
    1AU     LIG   62   7.508   0.578   7.080  0.2054 -0.0070 -0.2169
    1AU     LIG   63   7.475   0.641   7.492  0.3120 -0.0699  0.1625
    1AU     LIG   64   7.686   0.343   7.710  0.1654  0.0665  0.4764
    1AU     LIG   65   7.530  -0.001   8.008  0.1736 -0.2373  0.4506
    1AU       S   66   8.339   0.981   7.588  0.0133 -0.5349  0.0639
    1AU     LIG   67   8.188   0.514   7.672  0.0915 -0.4280 -0.3855
    1AU     LIG   68   8.569   0.456   7.850 -0.1991 -0.1834  0.0215
    1AU     LIG   69   8.819   0.731   8.130  0.0059 -0.0195  0.0445
    1AU     LIG   70   8.729   1.153   8.281  0.1651 -0.0469 -0.0487
    1AU     LIG   71   8.795   1.340   8.638 -0.1545  0.3433 -0.1788
    1AU     LIG   72   9.153   1.352   8.960  0.3248 -0.2137  0.2369
    1AU    AUSL   73   8.432   1.367   7.221  0.0365  0.0178 -0.1163
    1AU    AUSL   74   8.545   1.412   7.607  0.0580 -0.0366 -0.0950
    1AU     AUL   75   8.182   1.330   7.209  0.0549  0.0068  0.0437
    1AU       S   76   8.285   1.015   7.555 -0.6707 -0.1452  0.0585
    1AU     LIG   77   7.927   0.884   7.817 -0.1489  0.0249 -0.0972
    1AU     LIG   78   7.528   0.884   7.941 -0.0243  0.2020  0.1392
    1AU     LIG   79   7.173   0.965   7.704 -0.1923  0.1683 -0.2911
    1AU     LIG   80   6.975   0.639   7.526 -0.2618  0.1628 -0.0897
    1AU     LIG   81   6.867   0.342   7.184 -0.0352  0.1321 -0.0684
    1AU     LIG   82   6.806  -0.160   7.234  0.1190 -0.0695 -0.3907
    1AU       S   83   8.091   1.406   7.691 -0.1798 -0.3069  0.1456
    1AU     LIG   84   7.783   1.159   7.482 -0.2233  0.2787 -0.1959
    1AU     LIG   85   7.448   1.171   7.286  0.0060 -0.0968 -0.2337
    1AU     LIG   86   7.181   1.047   7.180  0.0244 -0.4329  0.2530
    1AU     LIG   87   6.832   0.832   6.964  0.1428 -0.1212 -0.0745
    1AU     LIG   88   7.057   0.536   6.729 -0.1982  0.0582  0.1433
    1AU     LIG   89   7.252   0.154   6.909  0.0511 -0.0381  0.0169
    1AU    AUSL   90   8.781   1.086   7.690 -0.0144 -0.0459 -0.0539
    1AU    AUSL   91   9.070   0.888   7.367 -0.0949 -0.0232  0.0806
    1AU     AUL   92   8.722   0.845   7.433  0.0358 -0.0162  0.0732
    1AU       S   93   8.601   0.980   7.849  0.2264  0.2026  0.0142
    1AU     LIG   94   8.271   0.988   8.142  0.2623 -0.0100 -0.5276
    1AU     LIG   95   7.887   1.294   8.155  0.0181 -0.0903  0.2384
    1AU     LIG   96   7.880   1.606   8.214 -0.2473 -0.0467  0.0521
    1AU     LIG   97   8.009   1.891   8.513  0.2715 -0.3887 -0.1808
    1AU     LIG   98   7.950   1.887   8.911  0.1565  0.1030  0.1642
    1AU     LIG   99   8.246   1.923   9.229 -0.1696 -0.0822  0.0416
    1AU       S  100   9.102   0.596   7.264 -0.2552  0.3370 -0.0366
    1AU     LIG  101   8.993   0.226   7.117  0.1600  0.3967  0.1086
    1AU     LIG  102   9.046  -0.214   6.979  0.2622 -0.0616  0.0980
    1AU     LIG  103   9.289  -0.475   6.931 -0.2447  0.2002  0.1309
    1AU     LIG  104   9.578  -0.639   7.276  0.2156  0.0439  0.2993
    1AU     LIG  105   9.763  -0.764   7.641  0.3025  0.4596 -0.1445
    1AU     LIG  106  10.050  -1.111   7.699 -0.1901 -0.0238 -0.1196
    1AU    AUSL  107   9.930   1.483   6.928  0.0250 -0.1817  0.0170
    1AU    AUSL  108  10.065   1.622   7.327 -0.0184 -0.0368  0.0479
    1AU     AUL  109  10.305   1.464   7.025 -0.0297 -0.0028  0.0105
    1AU       S  110  10.305   1.907   6.936  0.0839 -0.4690 -0.1549
    1AU     LIG  111  10.739   1.868   6.912 -0.1220  0.1554  0.1543
    1AU     LIG  112  11.118   1.989   7.046  0.0759  0.1511  0.1889
    1AU     LIG  113  11.450   2.038   7.305 -0.2058  0.3126  0.2611
    1AU     LIG  114  11.624   2.044   7.682  0.4711 -0.0241  0.1998
    1AU     LIG  115  11.861   2.114   8.013  0.2434 -0.1181 -0.0851
    1AU     LIG  116  11.977   2.624   8.181  0.1027  0.0413 -0.0101
    1AU       S  117  10.411   1.226   7.409  0.0859 -0.1411  0.2910
    1AU     LIG  118  10.503   0.935   7.697 -0.3881  0.5281 -0.2241
    1AU     LIG  119  10.646   0.580   7.619 -0.0394 -0.1108  0.1543
    1AU     LIG  120  10.829   0.395   7.363  0.3282  0.2655  0.2500
    1AU     LIG  121  11.155   0.377   7.054  0.1763  0.2982  0.1100
    1AU     LIG  122  11.289   0.224   6.716 -0.1326 -0.1329 -0.2575
    1AU     LIG  123  11.264  -0.166   6.560  0.0464 -0.2616 -0.0341
    1AU    AUSL  124   9.894   1.818   6.679 -0.0606 -0.0666 -0.0251
    1AU    AUSL  125   9.726   1.423   6.582  0.0437 -0.0217 -0.1006
    1AU     AUL  126  10.063   1.458   6.607  0.0238 -0.0721 -0.0415
    1AU       S  127   9.793   1.519   6.220 -0.1698 -0.0162 -0.1337
    1AU     LIG  128  10.063   1.366   5.947 -0.0082  0.0600  0.2152
    1AU     LIG  129  10.417   1.288   6.319 -0.0096 -0.0595  0.2957
    1AU     LIG  130  10.679   1.537   6.535 -0.2308 -0.1249  0.5376
    1AU     LIG  131  11.040   1.779   6.526  0.0784  0.1374  0.1319
    1AU     LIG  132  11.438   1.870   6.694  0.0782  0.0056  0.0253
    1AU     LIG  133  11.926   2.055   6.616  0.0597 -0.3878  0.3845
    1AU       S  134  10.280   1.884   6.729  0.1663  0.2314 -0.3058
    1AU     LIG  135  10.607   2.108   6.543  0.2906  0.0304 -0.0818
    1AU     LIG  136  10.995   2.278   6.638  0.1171 -0.2957 -0.1517
    1AU     LIG  137  11.117   2.507   6.953  0.2524 -0.4008 -0.4821
    1AU     LIG  138  11.304   2.928   6.967 -0.0501  0.0926  0.2883
    1AU     LIG  139  11.569   3.237   6.747 -0.1152 -0.3484  0.0338
    1AU     LIG  140  11.903   3.633   6.794 -0.3108  0.5376 -0.3604
    1AU    AUSL  141   9.829   1.850   7.098 -0.0441  0.0384  0.0271
    1AU    AUSL  142   9.806   2.184   6.859  0.0481 -0.0042  0.0089
    1AU     AUL  143   9.905   2.096   6.563 -0.0292  0.0753 -0.0317
    1AU       S  144  10.136   2.362   6.869  0.0316  0.3991 -0.0671
    1AU     LIG  145  10.603   2.276   7.083 -0.3869  0.2110 -0.1682
    1AU     LIG  146  10.816   2.123   7.392 -0.0542  0.4239 -0.2441
    1AU     LIG  147  11.117   1.757   7.502 -0.1947 -0.0533 -0.2050
    1AU     LIG  148  11.394   1.545   7.248 -0.1489  0.1207 -0.2366
    1AU     LIG  149  11.722   1.496   6.851  0.2484  0.2169 -0.3056
    1AU     LIG  150  11.905   1.419   6.517 -0.2440  0.0566 -0.1982
    1AU       S  151  10.155   1.888   6.924  0.2577  0.1203 -0.0516
    1AU     LIG  152  10.384   1.938   7.403  0.1778  0.4890  0.1879
    1AU     LIG  153  10.655   1.621   7.432  0.0381 -0.1059 -0.0209
    1AU     LIG  154  10.925   1.338   7.195  0.0535 -0.2485 -0.1343
    1AU     LIG  155  11.184   1.376   6.804  0.1117 -0.1826 -0.3024
    1AU     LIG  156  11.424   1.364   6.404 -0.3335  0.1454  0.2038
    1AU     LIG  157  11.388   0.999   6.074  0.1019  0.2136  0.0683
    1AU    AUSL  158   8.527   1.824   7.627 -0.0102 -0.0501 -0.0436
    1AU    AUSL  159   8.753   1.595   7.918 -0.0476  0.0072 -0.0578
    1AU     AUL  160   8.503   1.456   7.896  0.0054 -0.0191  0.0122
    1AU       S  161   8.146   1.682   7.705  0.0204  0.1440  0.1150
    1AU     LIG  162   7.663   1.746   7.817  0.2313  0.2425  0.0936
    1AU     LIG  163   7.398   1.463   7.763 -0.3622  0.1602  0.1586
    1AU     LIG  164   6.931   1.346   7.554  0.0077 -0.1773  0.1795
    1AU     LIG  165   6.720   1.287   7.140  0.3211  0.0032  0.0551
    1AU     LIG  166   6.764   1.241   6.682  0.0314  0.0514  0.4867
    1AU     LIG  167   6.832   1.597   6.333  0.3859 -0.1217  0.1892
    1AU       S  168   8.431   1.814   8.156 -0.1160 -0.4165  0.3487
    1AU     LIG  169   8.056   2.068   8.027 -0.1031 -0.0158  0.0007
    1AU     LIG  170   7.619   2.124   8.140  0.0101  0.0156 -0.1426
    1AU     LIG  171   7.217   2.247   7.922 -0.1940 -0.2206  0.3292
    1AU     LIG  172   7.205   2.564   7.607 -0.1961 -0.1383 -0.0468
    1AU     LIG  173   7.556   2.473   7.302  0.1046 -0.2609  0.1268
    1AU     LIG  174   7.646   2.456   6.845 -0.0783  0.0360 -0.0689
    1AU    AUSL  175   8.701   1.649   7.305 -0.0116 -0.0025  0.0544
    1AU    AUSL  176   8.508   2.163   7.404  0.0502 -0.0398  0.0426
    1AU     AUL  177   8.384   2.039   7.613  0.0244 -0.1359  0.1444
    1AU       S  178   8.099   2.220   7.289  0.2602 -0.1894 -0.1998
    1AU     LIG  179   7.831   2.179   7.571  0.2818 -0.0654  0.1592
    1AU     LIG  180   7.394   2.036   7.516 -0.6768  0.3507  0.1796
    1AU     LIG  181   7.236   1.649   7.239 -0.1178 -0.2841 -0.1735
    1AU     LIG  182   6.992   1.654   6.866 -0.0834 -0.0640  0.2639
    1AU     LIG  183   6.998   2.045   6.582 -0.1465  0.2024  0.2998
    1AU     LIG  184   7.244   2.442   6.524  0.1299  0.2721 -0.0174
    1AU       S  185   8.131   1.589   7.574 -0.0104 -0.2063 -0.0612
    1AU     LIG  186   7.785   1.658   7.320 -0.0747  0.3917 -0.0304
    1AU     LIG  187   7.557   1.958   7.050  0.1230 -0.3504 -0.0647
    1AU     LIG  188   7.147   2.176   7.123  0.2512 -0.1659  0.1277
    1AU     LIG  189   6.733   2.109   7.084  0.0778 -0.0695  0.0483
    1AU     LIG  190   6.282   1.946   7.153  0.0354 -0.0041 -0.0275
    1AU     LIG  191   5.932   2.069   7.044  0.0826 -0.1395  0.0655
    1AU    AUSL  192   9.580   2.318   7.165  0.0139 -0.0100 -0.0003
    1AU    AUSL  193   9.443   2.293   6.722 -0.0575  0.0713  0.0464
    1AU     AUL  194   9.700   2.491   6.831  0.0524 -0.0047 -0.0686
    1AU       S  195  10.156   2.515   7.011 -0.2187 -0.3132  0.3814
    1AU     LIG  196  10.437   2.726   7.020 -0.2398  0.0245  0.1193
    1AU     LIG  197  10.818   3.007   7.043  0.2010  0.1413  0.0974
    1AU     LIG  198  11.069   3.358   7.126 -0.0480 -0.3454  0.2260
    1AU     LIG  199  11.414   3.660   7.005 -0.1861  0.1363 -0.7257
    1AU     LIG  200  11.624   4.083   6.893  0.2704  0.1098 -0.2016
    1AU     LIG  201  11.893   4.517   6.821  0.1069 -0.1757  0.1144
    1AU       S  202   9.362   2.763   6.547  0.0663  0.1194 -0.0198
    1AU     LIG  203   9.159   3.111   6.552  0.2194  0.2236 -0.2428
    1AU     LIG  204   9.054   3.571   6.574 -0.2842  0.1183  0.0146
    1AU     LIG  205   8.873   3.886   6.763 -0.3174 -0.1132  0.0255
    1AU     LIG  206   8.822   4.223   7.032  0.1148 -0.4687  0.0994
    1AU     LIG  207   8.971   4.396   7.441 -0.0858 -0.0409 -0.3423
    1AU     LIG  208   9.191   4.537   7.749  0.1619 -0.2610  0.2110
    1AU    AUSL  209   9.975   2.174   7.278 -0.0568  0.0523  0.0138
    1AU    AUSL  210   9.602   2.458   7.536  0.0314 -0.0422  0.0118
    1AU     AUL  211   9.738   2.581   7.273 -0.0124  0.0516 -0.0238
    1AU       S  212   9.898   2.466   7.690 -0.0206  0.0207 -0.0960
    1AU     LIG  213   9.734   2.879   7.729 -0.1364 -0.1443  0.0873
    1AU     LIG  214   9.502   2.971   7.428  0.1923  0.0672 -0.0902
    1AU     LIG  215   9.264   3.270   7.262  0.2085 -0.1437 -0.0019
    1AU     LIG  216   8.944   3.261   6.993  0.1181  0.0524 -0.0530
    1AU     LIG  217   8.521   3.437   6.886 -0.1936  0.0778 -0.3289
    1AU     LIG  218   8.089   3.403   6.826 -0.0824 -0.4423 -0.0564
    1AU       S  219  10.090   2.323   7.128 -0.2715 -0.4640 -0.0168
    1AU     LIG  220  10.369   2.498   7.447  0.0968 -0.6168 -0.1810
    1AU     LIG  221  10.812   2.646   7.406  0.0193  0.0024  0.2425
    1AU     LIG  222  11.270   2.459   7.438 -0.0855  0.0428 -0.2123
    1AU     LIG  223  11.099   2.176   7.765 -0.1498 -0.0472  0.2321
    1AU     LIG  224  10.734   2.356   7.807 -0.0960  0.2357  0.1342
    1AU     LIG  225  10.441   2.307   8.049  0.0581  0.0605 -0.0989
    1AU    AUSL  226   9.713   1.070   7.560  0.1039  0.0298 -0.0059
    1AU    AUSL  227   9.948   1.229   7.254 -0.0606  0.0509  0.0773
    1AU     AUL  228  10.000   0.989   7.681  0.0056  0.0395  0.0957
    1AU       S  229  10.274   1.051   7.243 -0.2630  0.1706 -0.2228
    1AU     LIG  230  10.593   0.803   7.156  0.1030  0.0773  0.1461
    1AU     LIG  231  11.011   0.867   7.260  0.1429 -0.3488  0.4761
    1AU     LIG  232  11.442   0.654   7.445  0.1408 -0.1201 -0.0485
    1AU     LIG  233  11.882   0.671   7.464  0.2546 -0.0994 -0.0662
    1AU     LIG  234  12.096   0.350   7.294  0.2399 -0.1803  0.0008
    1AU     LIG  235  12.500   0.285   7.170  0.0863  0.0365 -0.1457
    1AU       S  236   9.866   0.706   7.298 -0.0689  0.0539 -0.2688
    1AU     LIG  237  10.203   0.472   7.374 -0.0792 -0.0570 -0.2597
    1AU     LIG  238  10.444   0.067   7.279  0.3114  0.0518  0.0507
    1AU     LIG  239  10.518  -0.363   7.071  0.2836  0.1877 -0.2308
    1AU     LIG  240  10.444  -0.787   6.926  0.4699 -0.3632 -0.3885
    1AU     LIG  241  10.389  -1.238   7.125 -0.1671 -0.4322  0.0369
    1AU     LIG  242  10.476  -1.505   7.444  0.1832 -0.0173  0.0773
    1AU    AUSL  243   9.742   1.053   6.967 -0.0643  0.0528 -0.0271
    1AU    AUSL  244   9.330   0.907   6.911 -0.0191 -0.0211  0.0448
    1AU     AUL  245   9.644   0.782   6.715 -0.0127  0.0635 -0.1197
    1AU       S  246   9.811   0.757   7.162 -0.3120 -0.0877  0.2450
    1AU     LIG  247  10.101   0.569   6.862  0.0435 -0.1513  0.2054
    1AU     LIG  248  10.386   0.251   6.812  0.0801 -0.4640  0.0717
    1AU     LIG  249  10.724   0.056   6.832  0.0995  0.7010  0.1592
    1AU     LIG  250  11.093  -0.200   7.011  0.1271 -0.1128 -0.1033
    1AU     LIG  251  11.350  -0.495   6.973 -0.1779 -0.0500  0.0867
    1AU     LIG  252  11.375  -0.873   6.972 -0.0648 -0.1241  0.1818
    1AU       S  253   9.308   0.764   6.366  0.0062  0.1457  0.0419
    1AU     LIG  254   9.668   0.459   6.339 -0.1531  0.0619 -0.2873
    1AU     LIG  255   9.947   0.267   6.514  0.2267 -0.5249  0.3705
    1AU     LIG  256  10.348   0.030   6.327 -0.4508 -0.0260  0.0404
    1AU     LIG  257  10.625  -0.223   6.184  0.0371 -0.3064  0.1785
    1AU     LIG  258  10.955  -0.289   6.182 -0.1598 -0.0599 -0.4032
    1AU     LIG  259  11.156  -0.573   6.226 -0.3701  0.4397  0.2040
    1AU    AUSL  260   9.427   1.080   7.261 -0.0912 -0.0251  0.0225
    1AU    AUSL  261   9.310   1.014   7.676 -0.0457  0.0246  0.0543
    1AU     AUL  262   9.512   0.822   7.589 -0.0521 -0.0784  0.1069
    1AU       S  263   9.089   0.649   7.629  0.0964 -0.0424 -0.1480
    1AU     LIG  264   8.998   0.307   7.653  0.3198 -0.2107 -0.0708
    1AU     LIG  265   9.068  -0.069   7.625  0.2677 -0.0035  0.1220
    1AU     LIG  266   9.152  -0.501   7.655 -0.1608 -0.0169 -0.1279
    1AU     LIG  267   9.278  -0.958   7.555  0.0581 -0.1148 -0.4510
    1AU     LIG  268   9.342  -0.999   7.017 -0.0219 -0.2064  0.1245
    1AU     LIG  269   9.624  -1.240   6.754 -0.0755  0.0344 -0.0454
    1AU       S  270   9.621   0.640   7.185  0.0639 -0.1356 -0.2208
    1AU     LIG  271   9.448   0.338   6.945 -0.2337 -0.3045  0.1207
    1AU     LIG  272   9.092   0.244   6.643 -0.1704 -0.2318  0.1085
    1AU     LIG  273   8.689   0.114   6.729 -0.3124  0.0805 -0.4663
    1AU     LIG  274   8.300   0.136   6.555  0.1197  0.1374 -0.2051
    1AU     LIG  275   8.157   0.365   6.237  0.2373  0.3633 -0.2686
    1AU     LIG  276   8.359   0.744   6.164  0.0666  0.0657 -0.1617
    1AU    AUSL  277   9.179   2.149   7.965 -0.0139 -0.0272 -0.0174
    1AU    AUSL  278   8.782   2.003   7.903 -0.0061 -0.0215  0.0344
    1AU     AUL  279   9.017   1.991   8.247  0.0847  0.0319  0.0558
    1AU       S  280   8.577   2.108   8.041  0.0321 -0.0825  0.1696
    1AU     LIG  281   8.467   2.452   8.287 -0.1521  0.0908 -0.5664
    1AU     LIG  282   8.052   2.431   8.440  0.5463 -0.2219 -0.1553
    1AU     LIG  283   7.920   2.825   8.668 -0.1358  0.0047 -0.1540
    1AU     LIG  284   7.678   3.241   8.669 -0.0888 -0.2209  0.3912
    1AU     LIG  285   7.702   3.555   8.317  0.1984  0.4437  0.0196
    1AU     LIG  286   7.919   3.853   8.125 -0.1817 -0.2835 -0.0796
    1AU       S  287   9.004   2.469   8.145  0.1985  0.1111 -0.0496
    1AU     LIG  288   9.302   2.583   8.470  0.0587  0.2662 -0.2216
    1AU     LIG  289   9.416   2.612   8.804 -0.2585 -0.0845  0.2266
    1AU     LIG  290   9.499   3.034   8.906  0.1392  0.1312  0.1745
    1AU     LIG  291   9.686   3.360   8.726 -0.1666 -0.3359 -0.1873
    1AU     LIG  292  10.065   3.643   8.758 -0.1665 -0.0586 -0.1424
    1AU     LIG  293  10.286   4.030   8.762  0.1103  0.1073  0.1796
    1AU    AUSL  294   9.257   2.270   7.587 -0.0719  0.0001 -0.0350
    1AU    AUSL  295   9.578   2.149   7.879  0.0185  0.0367 -0.0168
    1AU     AUL  296   9.428   2.423   7.892  0.0897 -0.0224 -0.0413
    1AU       S  297   9.003   2.609   8.041 -0.1522  0.0078 -0.2714
    1AU     LIG  298   9.271   2.938   7.929 -0.1320  0.1676  0.0427
    1AU     LIG  299   9.476   3.380   7.725  0.1782 -0.3317 -0.2826
    1AU     LIG  300   9.598   3.618   7.372  0.3421 -0.0917 -0.2567
    1AU     LIG  301   9.706   3.928   6.999 -0.3916 -0.0508  0.0307
    1AU     LIG  302   9.686   4.371   6.794 -0.2746 -0.3986  0.1780
    1AU     LIG  303   9.496   4.782   7.021 -0.4794 -0.1080  0.2568
    1AU       S  304   9.866   2.409   7.949  0.2245 -0.0957 -0.3730
    1AU     LIG  305   9.642   2.820   8.227 -0.3101 -0.0819  0.1703
    1AU     LIG  306   9.760   3.190   8.212  0.1513 -0.0819 -0.0909
    1AU     LIG  307   9.874   3.593   8.075 -0.2930  0.0347  0.2701
    1AU     LIG  308   9.633   3.831   7.874  0.2404  0.0266  0.2125
    1AU     LIG  309   9.270   3.904   8.044 -0.2337 -0.0331 -0.0737
    1AU     LIG  310   8.890   3.789   8.184  0.1631  0.0935 -0.0228
    1AU    AUSL  311   8.868   2.330   7.689 -0.0073 -0.0778  0.0138
    1AU    AUSL  312   9.049   2.525   7.350  0.0825 -0.0708  0.0089
    1AU     AUL  313   9.166   2.651   7.603 -0.0345 -0.0920 -0.0142
    1AU       S  314   8.642   2.757   7.395 -0.0850  0.2861 -0.2897
    1AU     LIG  315   8.919   3.114   7.604  0.2519 -0.2342  0.1726
    1AU     LIG  316   8.999   3.567   7.685 -0.1220 -0.1366  0.0965
    1AU     LIG  317   9.170   3.943   7.557 -0.3946 -0.0767  0.0141
    1AU     LIG  318   9.454   4.197   7.363 -0.0037  0.0287 -0.1200
    1AU     LIG  319   9.629   4.644   7.492 -0.0534  0.0644  0.2512
    1AU     LIG  320   9.867   4.973   7.407  0.3983  0.0267 -0.3682
    1AU       S  321   8.821   2.470   7.837  0.0730  0.1832  0.1481
    1AU     LIG  322   8.598   2.821   7.915  0.1389 -0.2040  0.3166
    1AU     LIG  323   8.394   3.138   7.651 -0.0846  0.1434  0.3833
    1AU     LIG  324   8.552   3.450   7.410 -0.0771 -0.0865  0.3058
    1AU     LIG  325   8.232   3.786   7.158 -0.0414 -0.1099 -0.2070
    1AU     LIG  326   8.198   4.181   7.204  0.4370  0.1244 -0.0421
    1AU     LIG  327   8.438   4.550   7.414 -0.1912 -0.0627 -0.4172
    1AU    AUSL  328   9.171   1.156   6.594 -0.0160 -0.0487  0.0001
    1AU    AUSL  329   8.947   1.012   6.948 -0.0121 -0.1080  0.0687
    1AU     AUL  330   9.142   0.749   6.777  0.0229 -0.0374  0.0198
    1AU       S  331   9.122   1.061   6.296 -0.1530 -0.1516  0.1490
    1AU     LIG  332   9.066   1.425   6.029  0.1301 -0.3012  0.2487
    1AU     LIG  333   8.833   1.441   5.660  0.0077  0.1429  0.4104
    1AU     LIG  334   8.907   1.606   5.304 -0.0649 -0.1894  0.0320
    1AU     LIG  335   8.670   1.792   5.005 -0.1268 -0.0047 -0.0577
    1AU     LIG  336   8.657   2.180   4.792  0.4562  0.1560 -0.1545
    1AU     LIG  337   8.292   2.321   4.508  0.2398  0.0079  0.3514
    1AU       S  338   8.756   0.967   6.673  0.3326 -0.1888 -0.3112
    1AU     LIG  339   8.718   0.596   6.883 -0.1858 -0.0334  0.1971
    1AU     LIG  340   8.458   0.396   7.145  0.0640 -0.5809  0.2525
    1AU     LIG  341   8.462   0.081   7.432 -0.0916 -0.1547 -0.0251
    1AU     LIG  342   8.675  -0.364   7.576  0.3290  0.0411 -0.1366
    1AU     LIG  343   8.843  -0.640   7.292 -0.2527  0.1033 -0.0665
    1AU     LIG  344   8.807  -1.002   6.986 -0.1448 -0.1249 -0.0350
    1AU    AUSL  345   9.447   1.312   6.858 -0.0230  0.0766  0.0085
    1AU    AUSL  346   9.330   1.503   6.440 -0.0194  0.0014  0.0660
    1AU     AUL  347   9.569   1.176   6.486  0.0965  0.1148  0.0873
    1AU       S  348   9.145   1.045   6.402  0.5174  0.2584 -0.0848
    1AU     LIG  349   8.858   0.605   6.320 -0.1061  0.2995  0.0969
    1AU     LIG  350   9.186   0.297   6.132 -0.0425  0.1001  0.0206
    1AU     LIG  351   9.460   0.015   6.305 -0.2749 -0.1537  0.1983
    1AU     LIG  352   9.696  -0.185   6.496 -0.0126 -0.1022 -0.0551
    1AU     LIG  353   9.619  -0.118   6.931  0.2640  0.1918 -0.0112
    1AU     LIG  354   9.409  -0.125   7.277  0.0592 -0.1553 -0.0639
    1AU       S  355   9.623   1.499   6.092  0.2951  0.1797 -0.1211
    1AU     LIG  356   9.445   1.752   5.803  0.0448  0.3035 -0.3203
    1AU     LIG  357   9.061   1.879   5.746 -0.0757 -0.0445  0.1690
    1AU     LIG  358   8.639   2.019   5.816  0.0788  0.2402 -0.0882
    1AU     LIG  359   8.544   2.484   6.028  0.0452  0.3672 -0.1319
    1AU     LIG  360   8.563   2.784   6.283  0.0412  0.1638 -0.0953
    1AU     LIG  361   8.706   3.189   6.487  0.5600 -0.1404 -0.5396
    1AU    AUSL  362   8.813   2.427   7.012  0.0046  0.0871 -0.0013
    1AU    AUSL  363   9.259   2.526   7.012  0.0052  0.0774 -0.0272
    1AU     AUL  364   9.089   2.797   7.152 -0.0176 -0.0432  0.0080
    1AU       S  365   9.147   2.664   6.722 -0.1160  0.4304  0.0972
    1AU     LIG  366   9.509   2.999   6.903  0.4401 -0.1641  0.2643
    1AU     LIG  367   9.824   3.221   7.136  0.0350  0.2185  0.1688
    1AU     LIG  368  10.084   2.920   7.295  0.4624  0.1047  0.2274
    1AU     LIG  369  10.464   3.055   7.462  0.0157  0.3039 -0.1651
    1AU     LIG  370  10.710   2.998   7.782  0.0123  0.1542 -0.2028
    1AU     LIG  371  11.173   2.742   7.885  0.0418 -0.0420  0.0268
    1AU       S  372   8.655   2.760   7.251 -0.0007  0.1964 -0.1481
    1AU     LIG  373   8.303   3.031   7.167 -0.2623 -0.2134 -0.0286
    1AU     LIG  374   8.007   3.314   7.309  0.0341 -0.0395  0.0868
    1AU     LIG  375   7.633   3.400   7.422 -0.0369  0.0303  0.0579
    1AU     LIG  376   7.249   3.514   7.345  0.4944 -0.3597 -0.1529
    1AU     LIG  377   7.099   3.776   6.959 -0.2218 -0.0167  0.3562
    1AU     LIG  378   6.766   4.086   6.777  0.4177 -0.2692 -0.1223
    1AU    AUSL  379   8.885   2.143   7.326 -0.0252 -0.1067  0.0958
    1AU    AUSL  380   8.606   2.075   7.011 -0.0199  0.0488  0.0425
    1AU     AUL  381   8.513   2.362   7.076 -0.0680  0.0025  0.0976
    1AU       S  382   8.092   2.169   7.034 -0.1198 -0.1851  0.0777
    1AU     LIG  383   8.083   2.618   6.916 -0.3232 -0.2013  0.2591
    1AU     LIG  384   7.904   2.968   6.949  0.0490 -0.1327 -0.0154
    1AU     LIG  385   7.594   3.353   6.933  0.2071  0.4206  0.2735
    1AU     LIG  386   7.648   3.815   7.150  0.0803 -0.1161  0.1420
    1AU     LIG  387   7.706   4.315   7.248 -0.2827 -0.0505 -0.4650
    1AU     LIG  388   7.951   4.579   7.472  0.3228  0.3980  0.0082
    1AU       S  389   8.683   2.626   7.395  0.1555  0.1603 -0.0112
    1AU     LIG  390   8.331   2.512   7.660 -0.0134  0.6237  0.3407
    1AU     LIG  391   7.980   2.794   7.548  0.1849  0.0420 -0.1925
    1AU     LIG  392   7.530   2.935   7.518  0.0585 -0.0912 -0.0567
    1AU     LIG  393   7.070   3.041   7.463 -0.2320  0.3041 -0.1701
    1AU     LIG  394   6.719   3.225   7.190  0.1487 -0.0186 -0.2416
    1AU     LIG  395   6.600   3.438   6.809  0.0566 -0.1067 -0.2778
    1AU    AUSL  396   9.064   1.335   7.989 -0.0007  0.0007  0.0526
    1AU    AUSL  397   9.116   1.771   7.835 -0.0181 -0.0177  0.0460
    1AU     AUL  398   8.930   1.555   8.177 -0.0008 -0.0313 -0.0184
    1AU       S  399   8.564   1.791   8.264  0.0214 -0.4086  0.2684
    1AU     LIG  400   8.586   1.961   8.580  0.4044  0.1518 -0.0294
    1AU     LIG  401   8.351   2.190   8.773  0.1090 -0.3277  0.0639
    1AU     LIG  402   8.425   2.601   8.812 -0.2937 -0.0110 -0.3530
    1AU     LIG  403   8.564   2.883   8.434  0.1866  0.1907 -0.3270
    1AU     LIG  404   8.911   3.048   8.314 -0.1552  0.3159  0.1289
    1AU     LIG  405   9.162   3.107   8.566  0.1938  0.0211  0.0472
    1AU       S  406   9.228   1.200   8.342  0.0627 -0.2866 -0.3646
    1AU     LIG  407   9.262   0.703   8.263 -0.2099  0.1317 -0.4223
    1AU     LIG  408   9.517   0.387   8.102 -0.1125 -0.1961  0.0606
    1AU     LIG  409   9.475  -0.050   7.909 -0.0443 -0.2250 -0.0625
    1AU     LIG  410   9.805  -0.288   7.839 -0.2227  0.0194  0.2764
    1AU     LIG  411  10.044  -0.418   8.142  0.1675 -0.0065 -0.1786
    1AU     LIG  412  10.063  -0.369   8.483 -0.0398 -0.1031  0.2354
    1AU    AUSL  413   9.379   1.688   8.121 -0.0434 -0.1198 -0.0047
    1AU    AUSL  414   9.844   1.446   7.834 -0.0168 -0.0374  0.0209
    1AU     AUL  415   9.732   1.703   8.274  0.0985 -0.0221  0.0059
    1AU       S  416   9.373   1.425   8.310 -0.3127  0.0314 -0.1691
    1AU     LIG  417   9.261   1.684   8.560 -0.1816 -0.2497  0.0737
    1AU     LIG  418   9.080   2.041   8.813 -0.0484  0.0063 -0.3669
    1AU     LIG  419   8.880   2.477   8.778 -0.2319 -0.0436 -0.0010
    1AU     LIG  420   8.896   2.889   8.899  0.3144 -0.0881 -0.0924
    1AU     LIG  421   8.807   3.169   9.370 -0.0350  0.2438  0.0332
    1AU     LIG  422   8.596   3.508   9.188 -0.1203 -0.2293 -0.3322
    1AU       S  423  10.094   1.513   8.061 -0.1021 -0.2843 -0.4887
    1AU     LIG  424  10.242   1.039   8.159 -0.1062  0.1364  0.2224
    1AU     LIG  425  10.323   0.648   8.095 -0.2841 -0.0648  0.0354
    1AU     LIG  426  10.672   0.439   8.160  0.2364  0.1280 -0.1604
    1AU     LIG  427  11.004   0.359   7.971 -0.0303 -0.4075  0.0279
    1AU     LIG  428  11.265   0.052   7.719 -0.1701 -0.3499  0.2990
    1AU     LIG  429  11.540   0.100   7.318  0.1220  0.1915 -0.2200
    1AU    AUSL  430   9.456   1.351   7.847  0.0757  0.0296  0.0119
    1AU    AUSL  431   9.069   1.328   7.587  0.0290  0.0452 -0.0449
    1AU     AUL  432   9.173   1.033   7.905  0.0492  0.0178  0.0879
    1AU       S  433   9.138   0.708   7.349 -0.0549  0.1022  0.5444
    1AU     LIG  434   9.475   0.303   7.500  0.0930  0.2467  0.2270
    1AU     LIG  435   9.898   0.220   7.126 -0.1853  0.1953 -0.0611
    1AU     LIG  436  10.091  -0.145   6.988 -0.3953  0.0281  0.2916
    1AU     LIG  437   9.988  -0.574   7.024 -0.3573  0.1366  0.1063
    1AU     LIG  438   9.913  -1.026   7.183 -0.0640 -0.3408  0.0567
    1AU     LIG  439   9.927  -1.436   7.141  0.1791 -0.2872 -0.0069
    1AU       S  440   9.527   1.190   8.118 -0.3782 -0.6019 -0.0574
    1AU     LIG  441   9.716   0.841   8.094  0.0874  0.0809  0.1771
    1AU     LIG  442   9.903   0.503   7.801 -0.2413  0.0364  0.1039
    1AU     LIG  443  10.180   0.122   7.730 -0.4508 -0.0932 -0.1247
    1AU     LIG  444  10.299  -0.286   7.664  0.1022 -0.2520 -0.1635
    1AU     LIG  445  10.700  -0.451   7.621  0.2928  0.3327 -0.1320
    1AU     LIG  446  11.132  -0.525   7.485  0.4104 -0.0324 -0.1263
    1AU    AUSL  447   8.599   1.646   6.868  0.0647 -0.0570  0.0821
    1AU    AUSL  448   8.966   1.422   6.815  0.0797 -0.0083 -0.0379
    1AU     AUL  449   8.451   1.400   6.753 -0.1004  0.0469 -0.0899
    1AU       S  450   8.352   1.731   6.379 -0.1061 -0.0759  0.1946
    1AU     LIG  451   8.025   1.733   6.023 -0.4193 -0.0666 -0.1465
    1AU     LIG  452   7.588   1.807   5.977  0.0429  0.1605  0.0443
    1AU     LIG  453   7.156   1.783   6.030 -0.0416 -0.1368  0.2337
    1AU     LIG  454   6.725   2.041   6.082  0.1599 -0.1038  0.1152
    1AU     LIG  455   6.746   2.410   6.118  0.0717  0.0199  0.3353
    1AU     LIG  456   6.761   2.847   6.017  0.1932 -0.3841  0.0017
    1AU       S  457   8.662   1.140   6.410 -0.0492 -0.3418  0.0395
    1AU     LIG  458   8.200   1.239   6.374 -0.0409  0.0084 -0.2671
    1AU     LIG  459   7.942   1.111   6.628 -0.0582 -0.1242 -0.4552
    1AU     LIG  460   7.831   0.981   7.001  0.0156  0.0269  0.1720
    1AU     LIG  461   8.013   0.698   7.223  0.2240 -0.1396  0.2065
    1AU     LIG  462   7.978   0.269   7.196  0.2777  0.4119 -0.1288
    1AU     LIG  463   8.078  -0.077   7.010 -0.2722 -0.5687  0.1787
    1AU    AUSL  464   8.719   1.970   6.635 -0.0451  0.0697 -0.0229
    1AU    AUSL  465   8.365   1.807   7.172  0.0385  0.1084  0.0553
    1AU     AUL  466   8.366   1.925   6.789 -0.0063  0.0474  0.0300
    1AU       S  467   8.445   1.995   6.299 -0.2259  0.2804 -0.2062
    1AU     LIG  468   7.947   2.059   6.407  0.4269  0.1794  0.4790
    1AU     LIG  469   7.502   2.018   6.492  0.0274  0.2577 -0.0827
    1AU     LIG  470   7.328   1.688   6.519 -0.3695 -0.0747 -0.3551
    1AU     LIG  471   7.475   1.406   6.834  0.0338 -0.2802 -0.0324
    1AU     LIG  472   7.420   0.953   6.662 -0.1689  0.0869  0.2622
    1AU     LIG  473   7.479   0.627   6.420  0.0117 -0.2464  0.0554
    1AU       S  474   8.158   1.914   7.185  0.3351  0.1445 -0.2518
    1AU     LIG  475   8.012   1.603   6.858  0.0922 -0.1270  0.3723
    1AU     LIG  476   7.849   1.611   6.545 -0.2469 -0.2905  0.0359
    1AU     LIG  477   7.554   1.312   6.292 -0.3995 -0.1833  0.1402
    1AU     LIG  478   7.122   1.230   6.337 -0.0047  0.5496 -0.3879
    1AU     LIG  479   6.948   0.858   6.390  0.1097  0.0704  0.1061
    1AU     LIG  480   7.070   0.481   6.189 -0.1893  0.0245 -0.2718
    1AU    AUSL  481   8.815   1.571   6.481  0.0017  0.0049  0.0993
    1AU    AUSL  482   9.035   2.205   6.526 -0.0685 -0.0634  0.0074
    1AU     AUL  483   8.853   1.853   6.235  0.0399  0.0904 -0.0457
    1AU       S  484   9.022   2.324   6.226  0.1826  0.0292  0.1938
    1AU     LIG  485   9.019   2.730   6.113 -0.0458 -0.4260  0.1522
    1AU     LIG  486   8.860   3.142   5.916 -0.0012 -0.0773  0.1117
    1AU     LIG  487   8.857   3.492   6.073  0.1039 -0.1440 -0.1787
    1AU     LIG  488   9.080   3.873   6.088 -0.2350 -0.1210  0.2588
    1AU     LIG  489   9.490   4.087   5.948 -0.1757 -0.3212  0.1450
    1AU     LIG  490   9.608   4.297   5.624 -0.0374  0.3009 -0.0472
    1AU       S  491   8.510   1.629   6.363 -0.0293  0.0726  0.1293
    1AU     LIG  492   8.518   1.448   5.996  0.1673  0.0497  0.3978
    1AU     LIG  493   8.770   0.984   5.928 -0.4464  0.2528 -0.0783
    1AU     LIG  494   8.883   0.516   5.729  0.2758 -0.0220  0.0147
    1AU     LIG  495   9.196   0.170   5.658 -0.0090  0.1403 -0.2422
    1AU     LIG  496   9.604   0.079   5.746  0.0424  0.2528  0.2422
    1AU     LIG  497   9.935   0.092   6.065  0.0424 -0.0257 -0.3033
    1AU    AUSL  498   9.963   1.836   7.665 -0.0294  0.0134  0.0160
    1AU    AUSL  499   9.692   1.458   7.465 -0.0558 -0.0353  0.0556
    1AU     AUL  500  10.109   1.524   7.583  0.0114 -0.0889 -0.0085
    1AU       S  501  10.264   1.763   7.997  0.0365 -0.3953  0.2088
    1AU     LIG  502  10.556   1.417   7.848  0.2021  0.1950 -0.0747
    1AU     LIG  503  10.887   1.237   7.697 -0.3372 -0.0475  0.0027
    1AU     LIG  504  11.271   1.232   7.745  0.1694 -0.1940  0.0024
    1AU     LIG  505  11.625   1.467   7.737  0.0232  0.0731 -0.0953
    1AU     LIG  506  11.945   1.624   7.496 -0.1013 -0.0156 -0.1311
    1AU     LIG  507  11.922   1.867   7.182 -0.0324 -0.0200 -0.1269
    1AU       S  508  10.099   1.147   7.258  0.2150  0.0578 -0.0816
    1AU     LIG  509  10.214   1.053   6.765  0.3445  0.2577 -0.1821
    1AU     LIG  510   9.973   0.928   6.333 -0.2596 -0.2581  0.2224
    1AU     LIG  511   9.659   0.952   6.088 -0.3108 -0.2583 -0.2850
    1AU     LIG  512   9.482   0.591   5.825  0.1237 -0.3329  0.2123
    1AU     LIG  513   9.553   0.481   5.377 -0.0404  0.1074  0.0593
    1AU     LIG  514   9.282   0.377   4.935 -0.1598 -0.0651 -0.0611
    1AU    AUSL  515   9.577   1.762   7.777  0.0102  0.0251  0.0529
    1AU    AUSL  516   9.664   2.049   7.500  0.0402  0.0503 -0.0339
    1AU     AUL  517   9.828   1.959   7.926  0.0306 -0.0456 -0.0151
    1AU       S  518   9.965   1.430   7.978  0.0684  0.1555 -0.4753
    1AU     LIG  519   9.869   1.277   8.454 -0.1422  0.1428 -0.2137
    1AU     LIG  520   9.586   0.945   8.609  0.2405  0.3198 -0.1451
    1AU     LIG  521   9.375   0.574   8.770 -0.2361 -0.0330 -0.0486
    1AU     LIG  522   9.341   0.266   8.559  0.0233  0.2533 -0.1813
    1AU     LIG  523   9.605  -0.071   8.413  0.0459  0.2637  0.4800
    1AU     LIG  524   9.941   0.076   8.193 -0.1525  0.0524 -0.1968
    1AU       S  525  10.049   2.309   7.725 -0.0849 -0.0095  0.1430
    1AU     LIG  526  10.283   2.764   7.826 -0.1683  0.1209 -0.1381
    1AU     LIG  527  10.229   3.252   7.955 -0.3774 -0.0196  0.0609
    1AU     LIG  528   9.969   3.358   7.605 -0.2920  0.1069 -0.0813
    1AU     LIG  529  10.086   3.700   7.316 -0.1641 -0.2659  0.1254
    1AU     LIG  530  10.370   3.879   6.987  0.0895  0.1635  0.0712
    1AU     LIG  531  10.760   3.685   6.763 -0.0036  0.1804  0.0644
    1AU    AUSL  532   9.429   2.000   6.433  0.1260  0.0645 -0.1477
    1AU    AUSL  533   9.095   2.162   6.913 -0.0455  0.1144  0.0091
    1AU     AUL  534   9.403   2.314   6.501  0.0749 -0.0972  0.0266
    1AU       S  535   9.038   2.658   6.640  0.0357 -0.0497  0.1111
    1AU     LIG  536   8.599   2.789   6.790  0.3668  0.0555 -0.1233
    1AU     LIG  537   8.301   2.997   6.636 -0.0449  0.1300 -0.3805
    1AU     LIG  538   8.055   3.153   6.352 -0.1822 -0.3571  0.0538
    1AU     LIG  539   7.651   3.298   6.336  0.0863 -0.0554 -0.1299
    1AU     LIG  540   7.327   3.355   6.552 -0.3945 -0.3843  0.3885
    1AU     LIG  541   7.048   3.281   6.828 -0.5963  0.1730 -0.2210
    1AU       S  542   9.229   2.154   6.120  0.2749  0.0276 -0.0161
    1AU     LIG  543   9.496   2.571   6.067  0.2138  0.0444 -0.3584
    1AU     LIG  544   9.811   2.879   5.968  0.0869 -0.0846 -0.0141
    1AU     LIG  545   9.979   3.385   6.062 -0.2311 -0.0395 -0.1315
    1AU     LIG  546   9.913   3.867   6.130  0.1150 -0.5595  0.3493
    1AU     LIG  547  10.037   4.148   6.530  0.3487  0.1556  0.0067
    1AU     LIG  548  10.217   4.356   6.907 -0.2631  0.0676  0.1880
    1AU    AUSL  549   9.104   1.806   6.622  0.0800  0.0415 -0.0078
    1AU    AUSL  550   9.509   1.748   6.743  0.0665 -0.0058  0.0237
    1AU     AUL  551   9.279   1.739   6.307  0.0034 -0.0892  0.0046
    1AU       S  552   8.964   2.252   6.364 -0.0306 -0.2606 -0.3839
    1AU     LIG  553   8.512   2.370   6.593  0.1347  0.2409 -0.0388
    1AU     LIG  554   8.092   2.544   6.424 -0.0124  0.3097 -0.0869
    1AU     LIG  555   7.724   2.828   6.512  0.5300  0.0972 -0.1668
    1AU     LIG  556   7.356   2.904   6.759  0.0108 -0.3765  0.1689
    1AU     LIG  557   7.108   2.715   6.988 -0.0574 -0.1430  0.1841
    1AU     LIG  558   6.723   2.612   7.275  0.0705 -0.2997 -0.1722
    1AU       S  559   9.732   1.751   6.205  0.0599  0.0270 -0.4058
    1AU     LIG  560   9.772   2.102   6.049 -0.0117  0.0905  0.0340
    1AU     LIG  561   9.891   2.498   6.319  0.0796 -0.3120 -0.1496
    1AU     LIG  562   9.978   2.851   6.570  0.1832 -0.0084 -0.0221
    1AU     LIG  563   9.695   3.228   6.504  0.3861 -0.0906  0.2336
    1AU     LIG  564   9.501   3.486   6.826 -0.0195  0.0794 -0.0820
    1AU     LIG  565   9.203   3.783   7.103 -0.0820 -0.0647 -0.0751
    2POPC   NC3  566   4.328   8.360   9.359  0.0032  0.0193  0.1688
    2POPC   PO4  567   4.218   8.709   9.168 -0.0999 -0.1643 -0.1242
    2POPC   GL1  568   4.338   8.978   8.733 -0.0077  0.0083 -0.0312
    2POPC   GL2  569   4.513   9.322   8.673 -0.1016  0.0759 -0.2625
    2POPC   C1A  570   4.243   9.087   8.383 -0.3944 -0.0021 -0.1884
    2POPC   D2A  571   4.367   9.097   7.980  0.2549  0.0990 -0.0555
    2POPC   C3A  572   4.463   8.753   7.730 -0.1635  0.1356 -0.4468
    2POPC   C4A  573   4.376   8.432   7.493 -0.1497 -0.0781 -0.3026
    2POPC   C1B  574   4.675   9.342   8.278  0.1871  0.0234  0.0857
    2POPC   C2B  575   4.890   9.493   8.041 -0.0276  0.0280  0.2287
    2POPC   C3B  576   5.215   9.447   7.679 -0.2472  0.1239 -0.0636
    2POPC   C4B  577   5.447   9.387   7.369 -0.2880 -0.0808 -0.0715
    3POPC   NC3  578   6.840   6.822   9.293  0.0700 -0.4387 -0.1307
    3POPC   PO4  579   7.321   6.796   9.380  0.2922 -0.0512 -0.0051
    3POPC   GL1  580   7.513   6.831   8.986 -0.1879  0.0635  0.1516
    3POPC   GL2  581   7.618   7.114   9.027 -0.0040 -0.1933  0.2900
    3POPC   C1A  582   7.552   6.779   8.545 -0.1372  0.0552  0.2235
    3POPC   D2A  583   7.618   6.546   8.195 -0.1221  0.0167 -0.2171
    3POPC   C3A  584   7.723   6.677   7.741 -0.1371  0.4219  0.2336
    3POPC   C4A  585   7.405   6.644   7.451 -0.4244 -0.3088 -0.1267
    3POPC   C1B  586   7.287   7.297   8.811 -0.1645  0.3878 -0.5850
    3POPC   C2B  587   7.164   7.120   8.429 -0.0904 -0.3693  0.4577
    3POPC   C3B  588   7.081   7.220   8.057  0.1854  0.3509 -0.0120
    3POPC   C4B  589   6.998   7.544   7.857  0.1006  0.3684 -0.1102
    4POPC   NC3  590   9.747   7.219   8.954  0.2132  0.0712  0.2252
    4POPC   PO4  591   9.959   6.794   8.986  0.1094  0.1487  0.2757
    4POPC   GL1  592  10.017   6.941   8.619  0.1749  0.3733 -0.0476
    4POPC   GL2  593   9.704   7.122   8.452 -0.1806 -0.1063 -0.3790
    4POPC   C1A  594  10.232   7.067   8.212  0.2269 -0.0847  0.2215
    4POPC   D2A  595  10.627   7.137   8.184 -0.0837  0.0918  0.1127
    4POPC   C3A  596  10.801   7.290   7.910 -0.0874 -0.2465  0.0225
    4POPC   C4A  597  11.099   7.239   7.551  0.0393 -0.2373  0.1858
    4POPC   C1B  598   9.797   7.308   8.042 -0.2932 -0.1568  0.1267
    4POPC   C2B  599   9.914   7.484   7.603  0.2471  0.0222  0.1821
    4POPC   C3B  600   9.754   7.850   7.407 -0.0765 -0.4018  0.0428
    4POPC   C4B  601   9.688   8.340   7.464 -0.1937  0.3988  0.0069
    5POPC   NC3  602   9.064   4.775   9.579 -0.0550 -0.1415 -0.2269
    5POPC   PO4  603   8.740   4.499   9.418  0.1184 -0.0963  0.0072
    5POPC   GL1  604   8.715   4.555   9.054 -0.1058 -0.1237 -0.1478
    5POPC   GL2  605   8.492   4.835   8.747  0.1308  0.0873  0.1943
    5POPC   C1A  606   8.877   4.435   8.661 -0.0670 -0.0982 -0.2487
    5POPC   D2A  607   8.815   4.317   8.282  0.0900  0.0286 -0.0989
    5POPC   C3A  608   8.420   4.048   8.151 -0.2508  0.0804 -0.1624
    5POPC   C4A  609   8.388   3.662   7.843 -0.2120  0.0444  0.1071
    5POPC   C1B  610   8.533   4.695   8.311  0.0067 -0.0731  0.1261
    5POPC   C2B  611   8.722   4.613   7.902  0.1892 -0.1067  0.0179
    5POPC   C3B  612   8.803   4.164   7.814 -0.0648  0.2016 -0.0050
    5POPC   C4B  613   8.652   3.919   7.462 -0.0536 -0.2296 -0.0955
    6POPC   NC3  614   2.236   2.287   8.982  0.0970  0.1985  0.2370
    6POPC   PO4  615   2.411   2.072   9.045  0.4569  0.1769  0.3796
    6POPC   GL1  616   2.454   1.908   8.684  0.0555 -0.1450  0.0554
    6POPC   GL2  617   2.535   1.599   8.851 -0.0770 -0.1550 -0.0194
    6POPC   C1A  618   2.330   1.694   8.280 -0.2536 -0.3590 -0.0561
    6POPC   D2A  619   1.983   1.522   8.113  0.3258  0.0629  0.3113
    6POPC   C3A  620   1.526   1.706   8.214  0.0676 -0.1906 -0.1210
    6POPC   C4A  621   1.051   1.677   7.967  0.0730 -0.1286 -0.0046
    6POPC   C1B  622   2.641   1.330   8.511 -0.3602  0.1390  0.3155
    6POPC   C2B  623   2.513   1.226   7.952  0.0545  0.1222 -0.3139
    6POPC   C3B  624   2.370   1.363   7.508  0.1555 -0.1580 -0.0220
    6POPC   C4B  625   2.645   1.528   7.276  0.2488 -0.0829 -0.2067
    7POPC   NC3  626   2.913   9.990   9.318  0.1252  0.0266 -0.0913
    7POPC   PO4  627   2.568   9.793   9.431 -0.1030 -0.1389 -0.4911
    7POPC   GL1  628   2.504   9.671   9.057  0.2493  0.1303  0.1286
    7POPC   GL2  629   2.627   9.835   8.916 -0.0634  0.1040 -0.1802
    7POPC   C1A  630   2.842   9.503   8.688 -0.0119 -0.3280  0.1331
    7POPC   D2A  631   2.689   9.368   8.385 -0.1700 -0.0186  0.2118
    7POPC   C3A  632   2.896   9.140   8.049 -0.1677 -0.1128  0.2531
    7POPC   C4A  633   3.205   8.785   8.119 -0.3279 -0.1918 -0.3602
    7POPC   C1B  634   2.714   9.998   8.508  0.0408  0.2972 -0.2017
    7POPC   C2B  635   2.971  10.127   8.190 -0.0308 -0.2751 -0.2748
    7POPC   C3B  636   3.311  10.075   7.950 -0.1354  0.0847 -0.0783
    7POPC   C4B  637   3.492   9.665   7.809 -0.2355  0.1089  0.1075
    8POPC   NC3  638   3.723   7.488   9.146 -0.1100 -0.0759 -0.0968
    8POPC   PO4  639   3.911   7.065   9.314  0.3622  0.3133  0.2179
    8POPC   GL1  640   3.971   6.995   8.891  0.0771  0.0022  0.2460
    8POPC   GL2  641   3.705   6.796   8.783 -0.0462  0.0500  0.1384
    8POPC   C1A  642   4.052   7.351   8.579  0.3195  0.3409  0.2173
    8POPC   D2A  643   4.008   7.649   8.258  0.0736 -0.2099  0.0174
    8POPC   C3A  644   4.196   7.636   7.897  0.2579  0.1231  0.1574
    8POPC   C4A  645   3.956   7.769   7.524 -0.0892  0.4469 -0.1994
    8POPC   C1B  646   3.575   6.838   8.339 -0.0028 -0.0744 -0.1594
    8POPC   C2B  647   3.520   7.015   7.952 -0.1943  0.3833  0.0714
    8POPC   C3B  648   3.335   7.074   7.511 -0.5118 -0.0553  0.0395
    8POPC   C4B  649   3.532   7.015   7.137  0.1568  0.0561  0.0849
    9POPC   NC3  650   5.726   3.901   8.934 -0.0722  0.2934 -0.3962
    9POPC   PO4  651   5.391   4.228   8.847 -0.0897 -0.0087  0.3564
    9POPC   GL1  652   5.482   4.437   8.457 -0.0767  0.1457 -0.1840
    9POPC   GL2  653   5.805   4.327   8.390 -0.1290  0.0752  0.0721
    9POPC   C1A  654   5.576   4.678   8.043 -0.1633  0.1213 -0.0646
    9POPC   D2A  655   5.501   5.137   7.982 -0.1615 -0.1539 -0.0425
    9POPC   C3A  656   5.684   5.182   7.551 -0.0022 -0.1016 -0.0892
    9POPC   C4A  657   5.702   5.402   7.152  0.0647 -0.0157 -0.3916
    9POPC   C1B  658   5.475   4.004   8.196 -0.2891  0.1842  0.0042
    9POPC   C2B  659   5.312   3.932   7.732  0.2460 -0.1557 -0.2144
    9POPC   C3B  660   5.298   3.673   7.372 -0.3238 -0.0328  0.0906
    9POPC   C4B  661   4.997   3.579   7.044 -0.2781  0.0946  0.0313
   10POPC   NC3  662   6.429   6.012   9.342 -0.2762 -0.3117 -0.0886
   10POPC   PO4  663   6.521   5.580   9.384 -0.0568  0.1126 -0.1222
   10POPC   GL1  664   6.636   5.448   8.897 -0.0192  0.1198 -0.0865
   10POPC   GL2  665   6.399   5.738   8.798 -0.1255  0.0413  0.0079
   10POPC   C1A  666   6.777   5.363   8.386 -0.0797 -0.3716 -0.1049
   10POPC   D2A  667   6.824   5.183   8.000  0.1710  0.3841  0.2834
   10POPC   C3A  668   7.091   5.432   7.808 -0.0706  0.2079  0.1196
   10POPC   C4A  669   7.086   5.872   7.572 -0.0381  0.1465  0.0782
   10POPC   C1B  670   6.439   5.681   8.381 -0.0109 -0.0844 -0.1784
   10POPC   C2B  671   6.764   5.729   8.101 -0.0260 -0.0157  0.4127
   10POPC   C3B  672   7.161   5.855   8.106 -0.1690  0.0783  0.1595
   10POPC   C4B  673   7.416   6.136   8.485 -0.1394 -0.0734 -0.2175
   11POPC   NC3  674   3.029   8.391   8.956 -0.1441  0.1773 -0.0916
   11POPC   PO4  675   3.390   8.484   9.182  0.4689  0.3874 -0.1066
   11POPC   GL1  676   3.556   8.549   8.798 -0.0919  0.1192  0.3785
   11POPC   GL2  677   3.861   8.704   8.756 -0.4331  0.2504  0.0424
   11POPC   C1A  678   3.601   8.538   8.316  0.0830 -0.0245 -0.0896
   11POPC   D2A  679   3.528   8.438   7.957 -0.3513  0.2663 -0.1309
   11POPC   C3A  680   3.629   8.053   7.934  0.4281  0.0493 -0.0526
   11POPC   C4A  681   3.608   7.497   7.868 -0.1667  0.2798 -0.2901
   11POPC   C1B  682   4.084   8.638   8.426  0.0741 -0.1456  0.0711
   11POPC   C2B  683   4.107   8.581   7.997  0.1157  0.3511 -0.1685
   11POPC   C3B  684   3.983   8.664   7.582  0.0590  0.2154 -0.0463
   11POPC   C4B  685   3.872   8.577   7.101  0.1907  0.1334  0.2833
   12POPC   NC3  686   4.231   2.079   9.196  0.0321 -0.3128  0.0913
   12POPC   PO4  687   4.205   1.759   8.923  0.0002 -0.3143 -0.4842
   12POPC   GL1  688   4.141   1.813   8.549 -0.2037 -0.2251  0.0960
   12POPC   GL2  689   4.420   1.716   8.328  0.3040  0.0169  0.2160
   12POPC   C1A  690   3.952   1.774   8.111 -0.2929  0.1683  0.1169
   12POPC   D2A  691   3.648   1.685   7.682 -0.3918  0.1044 -0.2122
   12POPC   C3A  692   3.540   2.104   7.498 -0.3684  0.1156 -0.0498
   12POPC   C4A  693   3.820   2.339   7.266 -0.1063 -0.2387 -0.1064
   12POPC   C1B  694   4.441   1.967   7.923 -0.0193  0.0498 -0.2819
   12POPC   C2B  695   4.629   2.215   7.575  0.0501  0.1134 -0.0453
   12POPC   C3B  696   5.042   2.384   7.576  0.0743 -0.1706  0.1157
   12POPC   C4B  697   5.319   2.697   7.392  0.2933  0.2954 -0.3077
   13POPC   NC3  698   5.068   6.921   9.563  0.5743  0.0363  0.2102
   13POPC   PO4  699   4.887   6.730   9.288  0.1562  0.1466 -0.0452
   13POPC   GL1  700   5.062   6.747   8.954  0.0982 -0.1136 -0.2341
   13POPC   GL2  701   4.891   6.622   8.761  0.0553  0.2848  0.0164
   13POPC   C1A  702   5.342   6.705   8.678  0.0622  0.0124  0.0803
   13POPC   D2A  703   5.564   6.841   8.319 -0.1529 -0.2348 -0.0206
   13POPC   C3A  704   5.444   7.021   7.848  0.0233  0.1022  0.2300
   13POPC   C4A  705   5.573   7.375   7.631 -0.1807  0.2131  0.3650
   13POPC   C1B  706   4.959   6.590   8.312 -0.1945  0.0097 -0.0633
   13POPC   C2B  707   5.252   6.515   7.997  0.0438  0.3265 -0.0009
   13POPC   C3B  708   5.266   6.484   7.585 -0.2962  0.3009  0.3579
   13POPC   C4B  709   5.586   6.384   7.252  0.1300  0.0317  0.1680
   14POPC   NC3  710   3.871   4.434   9.500  0.0335  0.1010  0.1448
   14POPC   PO4  711   3.860   4.306   9.133  0.4280 -0.2318 -0.1582
   14POPC   GL1  712   3.638   4.249   8.807 -0.3359  0.3422 -0.1809
   14POPC   GL2  713   3.820   3.964   8.641  0.0348  0.2832 -0.1915
   14POPC   C1A  714   3.607   4.324   8.373  0.2032 -0.0744  0.1033
   14POPC   D2A  715   3.469   4.267   7.887  0.2433 -0.1864  0.1065
   14POPC   C3A  716   3.073   4.074   7.697 -0.1127 -0.2046 -0.0083
   14POPC   C4A  717   2.682   3.982   7.658  0.2214  0.2081 -0.0821
   14POPC   C1B  718   3.984   4.078   8.217 -0.1395 -0.1527 -0.1595
   14POPC   C2B  719   3.891   4.073   7.748  0.0335 -0.2288 -0.1500
   14POPC   C3B  720   4.002   4.327   7.403 -0.0077 -0.2554  0.0716
   14POPC   C4B  721   3.977   4.808   7.500  0.0559 -0.0280  0.0803
   15POPC   NC3  722   8.744   9.992   9.710  0.2326 -0.0027  0.1035
   15POPC   PO4  723   9.079  10.204   9.620 -0.2091 -0.1418 -0.0734
   15POPC   GL1  724   9.385  10.225   9.360 -0.0254 -0.0129 -0.0450
   15POPC   GL2  725   9.338  10.508   9.275 -0.1699 -0.0264  0.0018
   15POPC   C1A  726   9.538  10.190   8.943 -0.0122 -0.0374 -0.0156
   15POPC   D2A  727  10.001  10.265   8.705  0.2133  0.0506  0.1465
   15POPC   C3A  728  10.286  10.561   8.957  0.1612  0.0443  0.1995
   15POPC   C4A  729  10.265  10.738   9.356 -0.0427 -0.1203 -0.0339
   15POPC   C1B  730   8.994  10.334   8.968  0.0350  0.0269 -0.0660
   15POPC   C2B  731   8.575  10.338   8.746  0.0539  0.0568 -0.0489
   15POPC   C3B  732   8.529  10.214   8.334 -0.0595 -0.1668 -0.0815
   15POPC   C4B  733   8.740  10.000   8.006  0.0794  0.0202 -0.0496
   16POPC   NC3  734   1.579   0.083   9.626 -0.0455  0.3573 -0.0103
   16POPC   PO4  735   1.402  -0.340   9.652 -0.0921  0.2399 -0.0382
   16POPC   GL1  736   1.472  -0.139   9.217  0.0948 -0.0317 -0.2268
   16POPC   GL2  737   1.511  -0.370   8.922  0.1812 -0.0793  0.2828
   16POPC   C1A  738   1.210   0.017   8.839  0.0621  0.0362  0.0970
   16POPC   D2A  739   1.036   0.210   8.537  0.1685 -0.2307 -0.0590
   16POPC   C3A  740   1.283   0.292   8.232  0.0523 -0.0356  0.0581
   16POPC   C4A  741   1.333   0.492   7.925  0.2274  0.0754 -0.2650
   16POPC   C1B  742   1.695  -0.064   8.580 -0.1149  0.1195 -0.2015
   16POPC   C2B  743   1.704  -0.013   8.121  0.3386  0.2160  0.1878
   16POPC   C3B  744   1.665  -0.071   7.739  0.1839 -0.3187 -0.0760
   16POPC   C4B  745   1.444  -0.385   7.364  0.1992  0.1726 -0.3323
   17POPC   NC3  746   3.630   9.480   9.164 -0.0679 -0.0599 -0.0064
   17POPC   PO4  747   3.361   9.322   9.380  0.3738  0.0790 -0.0221
   17POPC   GL1  748   3.278   9.157   8.969 -0.1049  0.2051 -0.0887
   17POPC   GL2  749   3.193   8.845   8.772  0.2664  0.1515  0.0174
   17POPC   C1A  750   3.188   9.193   8.497 -0.0683  0.1750  0.0706
   17POPC   D2A  751   3.369   9.344   8.102  0.0813 -0.1294  0.0641
   17POPC   C3A  752   3.166   9.307   7.628 -0.3198 -0.3189  0.2669
   17POPC   C4A  753   3.269   9.132   7.281 -0.1218  0.2169  0.1345
   17POPC   C1B  754   2.920   8.690   8.463 -0.1897 -0.0558 -0.1431
   17POPC   C2B  755   2.666   8.709   8.173  0.0473  0.0153  0.2053
   17POPC   C3B  756   2.754   8.665   7.777  0.2288  0.2030  0.2170
   17POPC   C4B  757   2.921   8.727   7.295 -0.0440 -0.4273  0.2409
   18POPC   NC3  758   3.436   1.231   9.066 -0.3714  0.3042  0.1508
   18POPC   PO4  759   3.525   1.079   8.666 -0.0231  0.1779  0.0884
   18POPC   GL1  760   3.222   0.954   8.318  0.1028 -0.2887 -0.2762
   18POPC   GL2  761   3.465   0.766   8.009 -0.0167 -0.1439 -0.1286
   18POPC   C1A  762   2.906   0.792   7.977 -0.0482  0.1322  0.0053
   18POPC   D2A  763   3.091   0.783   7.592  0.0800  0.0496  0.0616
   18POPC   C3A  764   3.084   0.671   7.226 -0.0885  0.0576 -0.0481
   18POPC   C4A  765   3.291   0.517   6.829 -0.2773  0.1733  0.0678
   18POPC   C1B  766   3.560   0.620   7.646 -0.0998  0.2987 -0.2338
   18POPC   C2B  767   3.625   0.804   7.256  0.1644  0.1259  0.2218
   18POPC   C3B  768   3.890   0.919   6.914  0.0763  0.0759  0.0879
   18POPC   C4B  769   4.076   1.116   6.640  0.1737 -0.0551  0.4069
   19POPC   NC3  770   4.702   7.632   9.481 -0.1364  0.3048 -0.4163
   19POPC   PO4  771   4.987   7.904   9.366  0.0501  0.0623 -0.2221
   19POPC   GL1  772   4.774   8.119   9.152  0.1589 -0.1620  0.0808
   19POPC   GL2  773   4.480   7.938   9.127  0.0218 -0.4328  0.2493
   19POPC   C1A  774   4.671   8.148   8.695  0.2405  0.0945  0.1008
   19POPC   D2A  775   4.558   8.186   8.275  0.2012  0.0151 -0.2244
   19POPC   C3A  776   4.636   8.589   8.191  0.1086  0.0327 -0.1535
   19POPC   C4A  777   4.718   8.849   8.530 -0.1612 -0.2670 -0.1589
   19POPC   C1B  778   4.492   7.679   8.812 -0.1575  0.0725  0.1631
   19POPC   C2B  779   4.517   7.695   8.340 -0.0702  0.2597 -0.0046
   19POPC   C3B  780   4.693   7.869   7.999  0.2329  0.0614  0.0476
   19POPC   C4B  781   4.697   8.222   7.808 -0.0519 -0.1428 -0.0979
   20POPC   NC3  782   7.224   9.108   9.127  0.4139  0.1627 -0.2706
   20POPC   PO4  783   7.453   8.784   9.117 -0.2748 -0.0517 -0.0575
   20POPC   GL1  784   7.528   9.027   8.688 -0.1802 -0.1770  0.3004
   20POPC   GL2  785   7.538   9.294   8.854 -0.0588  0.1423  0.0783
   20POPC   C1A  786   7.395   9.134   8.255  0.1205 -0.1827 -0.1725
   20POPC   D2A  787   7.398   9.267   7.802 -0.1163  0.2713 -0.1520
   20POPC   C3A  788   7.718   9.393   7.518  0.2635 -0.1172 -0.0365
   20POPC   C4A  789   7.748   9.507   7.052  0.2335  0.3330 -0.4761
   20POPC   C1B  790   7.794   9.386   8.400  0.1635 -0.1996  0.1550
   20POPC   C2B  791   7.884   9.261   8.016 -0.0522  0.3053 -0.0710
   20POPC   C3B  792   7.979   8.994   7.715  0.2823  0.1630 -0.1095
   20POPC   C4B  793   8.343   8.788   7.709 -0.1989  0.0200 -0.4447
   21POPC   NC3  794   0.693   2.246  10.239  0.1124  0.0322  0.1140
   21POPC   PO4  795   0.690   2.701  10.108 -0.0120  0.1322 -0.0574
   21POPC   GL1  796   0.386   2.566   9.837 -0.2288  0.0961 -0.2795
   21POPC   GL2  797   0.407   2.300   9.619 -0.0378  0.1332 -0.0101
   21POPC   C1A  798   0.232   2.816   9.497  0.1437  0.1397  0.1462
   21POPC   D2A  799   0.259   3.207   9.417 -0.1442 -0.2744  0.0915
   21POPC   C3A  800   0.145   3.328   8.996 -0.0338 -0.1652  0.1544
   21POPC   C4A  801  -0.019   3.246   8.498 -0.1443 -0.0024 -0.0672
   21POPC   C1B  802   0.092   2.473   9.204  0.2496  0.0651  0.0520
   21POPC   C2B  803  -0.214   2.377   9.101 -0.2654  0.0515  0.2424
   21POPC   C3B  804  -0.572   2.656   9.365  0.0074 -0.2185  0.3376
   21POPC   C4B  805  -0.751   3.009   9.769  0.1088  0.2263  0.2022
   22POPC   NC3  806   2.211   3.387   9.274  0.2565 -0.0415  0.4210
   22POPC   PO4  807   2.062   2.976   9.129 -0.2248  0.0908  0.2237
   22POPC   GL1  808   1.956   3.211   8.784 -0.1114  0.0372  0.0069
   22POPC   GL2  809   2.087   3.501   8.744  0.0467 -0.4025  0.0142
   22POPC   C1A  810   1.757   3.141   8.416 -0.0249 -0.0526  0.3118
   22POPC   D2A  811   1.440   3.001   8.073  0.0002  0.2163 -0.0290
   22POPC   C3A  812   1.505   3.132   7.779  0.0160 -0.0535  0.1295
   22POPC   C4A  813   1.306   3.387   7.431  0.0562  0.3763 -0.0624
   22POPC   C1B  814   2.233   3.174   8.427 -0.1721  0.0744  0.1190
   22POPC   C2B  815   2.085   3.012   8.018  0.2896 -0.0194  0.0279
   22POPC   C3B  816   1.920   2.900   7.648  0.2472  0.2880  0.0995
   22POPC   C4B  817   1.913   2.595   7.288  0.2554 -0.0372 -0.1151
   23POPC   NC3  818   0.281   7.844   9.341 -0.2349  0.2013  0.0615
   23POPC   PO4  819   0.080   8.251   9.368  0.0787 -0.0532  0.0472
   23POPC   GL1  820  -0.124   8.103   8.987 -0.1154 -0.0998 -0.0899
   23POPC   GL2  821  -0.439   8.022   8.881 -0.1321  0.1897  0.0457
   23POPC   C1A  822  -0.050   8.052   8.525  0.3059 -0.0874 -0.0469
   23POPC   D2A  823   0.180   7.892   8.214 -0.2394  0.4883  0.1182
   23POPC   C3A  824   0.099   7.519   7.971 -0.3260 -0.2336  0.2593
   23POPC   C4A  825   0.094   7.123   7.706  0.2939  0.2058 -0.0007
   23POPC   C1B  826  -0.675   8.262   8.669 -0.2484 -0.0433 -0.0432
   23POPC   C2B  827  -0.647   8.222   8.254  0.1777  0.1924  0.1068
   23POPC   C3B  828  -0.844   8.414   7.858 -0.1991  0.1112 -0.2299
   23POPC   C4B  829  -0.944   8.258   7.470 -0.1888 -0.1526  0.0057
   24POPC   NC3  830   7.206   7.780   9.239 -0.3334  0.1883 -0.2234
   24POPC   PO4  831   6.833   7.703   9.472  0.0276 -0.1336 -0.0808
   24POPC   GL1  832   6.755   7.661   9.035 -0.0901 -0.0102  0.3545
   24POPC   GL2  833   6.892   8.000   8.861 -0.0489  0.0014 -0.0744
   24POPC   C1A  834   6.982   7.602   8.601  0.2375 -0.0363 -0.0663
   24POPC   D2A  835   7.346   7.577   8.257  0.1258 -0.0344 -0.2074
   24POPC   C3A  836   7.625   7.991   8.262  0.0403  0.0660  0.0649
   24POPC   C4A  837   7.645   8.340   8.220 -0.0355 -0.2108 -0.1439
   24POPC   C1B  838   7.024   8.114   8.487 -0.0134 -0.1948 -0.0973
   24POPC   C2B  839   7.154   8.372   8.193 -0.0450  0.1607  0.0392
   24POPC   C3B  840   7.253   8.422   7.858  0.3522  0.0582 -0.2120
   24POPC   C4B  841   7.082   8.566   7.425 -0.1188  0.2004  0.0528
   25POPC   NC3  842   4.286   6.777   9.390 -0.2294  0.0993  0.0645
   25POPC   PO4  843   4.610   7.112   9.527  0.0210 -0.1395 -0.0894
   25POPC   GL1  844   4.543   7.070   9.044 -0.1857  0.0426 -0.2272
   25POPC   GL2  845   4.394   6.791   8.801 -0.0933 -0.1161 -0.0553
   25POPC   C1A  846   4.851   7.235   8.712 -0.0415 -0.1173  0.0423
   25POPC   D2A  847   5.109   7.066   8.382 -0.1546  0.1804  0.3990
   25POPC   C3A  848   4.937   7.008   7.970  0.3598  0.1879  0.1971
   25POPC   C4A  849   4.894   6.946   7.600 -0.2698 -0.2108 -0.1461
   25POPC   C1B  850   4.578   6.950   8.404 -0.0926  0.1328 -0.1708
   25POPC   C2B  851   4.575   7.273   8.170  0.0968  0.1439  0.1814
   25POPC   C3B  852   4.494   7.193   7.613  0.1184  0.0053  0.0791
   25POPC   C4B  853   4.636   7.019   7.147  0.0894  0.1919 -0.1073
   26POPC   NC3  854   8.141   0.227   9.918 -0.0519 -0.0183  0.3426
   26POPC   PO4  855   8.070  -0.280   9.754  0.1060  0.0626 -0.3991
   26POPC   GL1  856   8.317  -0.028   9.508  0.0803 -0.0303 -0.1367
   26POPC   GL2  857   8.195  -0.100   9.174 -0.0909 -0.1853 -0.1493
   26POPC   C1A  858   8.523   0.253   9.286 -0.0585  0.3541  0.0641
   26POPC   D2A  859   8.604   0.591   8.918 -0.1809  0.0100 -0.1895
   26POPC   C3A  860   8.591   0.937   8.876 -0.0769  0.0300 -0.0741
   26POPC   C4A  861   8.711   1.202   9.153 -0.2829  0.0295 -0.3581
   26POPC   C1B  862   8.212  -0.246   8.757  0.3137  0.1028  0.0551
   26POPC   C2B  863   8.246  -0.366   8.292  0.2535  0.0356  0.0503
   26POPC   C3B  864   8.344  -0.550   7.883  0.1023  0.4035 -0.0589
   26POPC   C4B  865   8.250  -0.800   7.469  0.0421 -0.0283  0.0859
   27POPC   NC3  866   7.072   2.798  10.285 -0.0761  0.2605 -0.1548
   27POPC   PO4  867   7.125   2.685   9.860 -0.0147 -0.0193 -0.0444
   27POPC   GL1  868   7.369   2.901   9.535 -0.1342  0.1122  0.2861
   27POPC   GL2  869   7.148   3.005   9.365 -0.1216 -0.2799 -0.0557
   27POPC   C1A  870   7.490   2.850   9.017 -0.2860 -0.3118  0.0134
   27POPC   D2A  871   7.195   2.713   8.663 -0.1098  0.1267 -0.0655
   27POPC   C3A  872   7.096   2.808   8.247 -0.0025 -0.1166  0.1840
   27POPC   C4A  873   7.276   2.923   7.935  0.1457  0.1888  0.2055
   27POPC   C1B  874   6.856   3.026   8.927  0.0713 -0.3969  0.3476
   27POPC   C2B  875   6.593   3.029   8.536  0.0178  0.5120 -0.0488
   27POPC   C3B  876   6.531   2.904   8.103  0.0467  0.0713 -0.0189
   27POPC   C4B  877   6.779   2.766   7.767 -0.0210  0.2164 -0.2670
   28POPC   NC3  878   3.038   3.345   9.662  0.1087 -0.0871 -0.2229
   28POPC   PO4  879   3.289   3.420   9.196  0.4021  0.2980  0.2921
   28POPC   GL1  880   3.368   3.439   8.722  0.2009  0.0989  0.2316
   28POPC   GL2  881   3.370   3.632   8.613  0.3034 -0.0072  0.2209
   28POPC   C1A  882   3.268   3.110   8.336 -0.1052 -0.3234  0.0240
   28POPC   D2A  883   3.491   2.641   8.169 -0.0953 -0.5205 -0.0258
   28POPC   C3A  884   3.427   2.502   7.819 -0.2324 -0.2733 -0.3561
   28POPC   C4A  885   3.319   2.638   7.483 -0.0111  0.2456  0.0912
   28POPC   C1B  886   3.516   3.671   8.141 -0.1116  0.1891  0.0834
   28POPC   C2B  887   3.457   3.671   7.686  0.2365  0.0560  0.0012
   28POPC   C3B  888   3.410   3.380   7.424 -0.2876 -0.4403  0.1344
   28POPC   C4B  889   3.352   3.116   7.151 -0.0061 -0.0209 -0.0464
   29POPC   NC3  890   1.134   0.066   9.913  0.0692 -0.0679  0.4231
   29POPC   PO4  891   0.899  -0.260  10.097 -0.3276  0.3279 -0.0581
   29POPC   GL1  892   0.812  -0.211   9.649 -0.0760  0.1531 -0.0906
   29POPC   GL2  893   0.712   0.074   9.580 -0.1312  0.4624  0.1428
   29POPC   C1A  894   0.810  -0.278   9.233 -0.0138 -0.1726 -0.0834
   29POPC   D2A  895   0.689  -0.078   8.827  0.3085 -0.3375  0.0188
   29POPC   C3A  896   0.775  -0.192   8.360  0.2630  0.2963 -0.0103
   29POPC   C4A  897   1.089  -0.303   8.069  0.1519  0.0316 -0.1759
   29POPC   C1B  898   0.448   0.225   9.220 -0.2599  0.3194 -0.0768
   29POPC   C2B  899   0.205  -0.125   8.974  0.2784 -0.0540 -0.3121
   29POPC   C3B  900  -0.183  -0.337   9.025 -0.0177  0.5316  0.0242
   29POPC   C4B  901  -0.526  -0.494   8.703 -0.0192 -0.1839 -0.0019
   30POPC   NC3  902   1.988   2.048   9.853  0.1724  0.1317  0.0258
   30POPC   PO4  903   2.034   2.018   9.446 -0.1999  0.0492  0.1998
   30POPC   GL1  904   1.737   2.090   8.969 -0.1605  0.3339  0.0317
   30POPC   GL2  905   1.356   2.281   9.023  0.3149  0.1016 -0.3039
   30POPC   C1A  906   1.469   2.155   8.540 -0.1839  0.0014  0.2707
   30POPC   D2A  907   1.319   2.423   8.137 -0.1854  0.0633 -0.1003
   30POPC   C3A  908   1.507   2.544   7.691 -0.0882  0.2616 -0.1798
   30POPC   C4A  909   1.449   2.778   7.312  0.3362 -0.0386 -0.0357
   30POPC   C1B  910   1.303   1.887   8.961  0.1837  0.0399 -0.1415
   30POPC   C2B  911   1.075   1.509   8.776 -0.0843 -0.0888 -0.0044
   30POPC   C3B  912   0.657   1.467   8.563  0.0099 -0.0410  0.4579
   30POPC   C4B  913   0.361   1.381   8.327 -0.1252 -0.2320  0.0062
   31POPC   NC3  914   2.330   4.959   8.875  0.1093  0.0950 -0.0398
   31POPC   PO4  915   2.686   4.706   8.832 -0.3247 -0.3679  0.1392
   31POPC   GL1  916   2.784   4.751   8.436  0.2362 -0.1100 -0.0987
   31POPC   GL2  917   2.914   4.396   8.400  0.1044 -0.4810 -0.0081
   31POPC   C1A  918   2.505   4.741   8.031 -0.0986 -0.2103 -0.2811
   31POPC   D2A  919   2.234   4.733   7.579  0.0327 -0.0238  0.0944
   31POPC   C3A  920   2.402   4.375   7.194  0.1564  0.0215  0.2121
   31POPC   C4A  921   2.621   4.061   7.130  0.6250  0.0256  0.1815
   31POPC   C1B  922   2.836   4.365   8.023  0.1972  0.5439 -0.1027
   31POPC   C2B  923   2.798   4.417   7.511 -0.0426 -0.1637  0.1577
   31POPC   C3B  924   3.057   4.246   7.161  0.0009 -0.1342  0.0066
   31POPC   C4B  925   3.094   4.180   6.676 -0.2931 -0.4108 -0.1155
   32POPC   NC3  926   0.646   5.098   8.808  0.1336 -0.0712  0.4038
   32POPC   PO4  927   0.777   5.537   8.710  0.1342 -0.0387  0.0885
   32POPC   GL1  928   0.316   5.461   8.570  0.0968 -0.2206  0.1412
   32POPC   GL2  929   0.178   5.599   8.253 -0.3507  0.0056 -0.4040
   32POPC   C1A  930   0.195   5.115   8.163 -0.1416 -0.2030 -0.2013
   32POPC   D2A  931   0.156   4.979   7.673  0.1593 -0.1136 -0.0552
   32POPC   C3A  932   0.362   4.676   7.402 -0.3267 -0.0446 -0.0393
   32POPC   C4A  933   0.403   4.324   7.227  0.0741 -0.0573  0.0270
   32POPC   C1B  934  -0.105   5.429   7.865 -0.2876  0.0036  0.0901
   32POPC   C2B  935  -0.176   5.537   7.377 -0.2261 -0.0557  0.0060
   32POPC   C3B  936  -0.106   5.981   7.270  0.0791 -0.0684 -0.0677
   32POPC   C4B  937   0.206   6.344   7.005 -0.4371  0.3139 -0.0926
   33POPC   NC3  938   6.407   0.012   9.287  0.0694 -0.3775  0.0287
   33POPC   PO4  939   6.841   0.176   9.349 -0.1385 -0.3835 -0.1242
   33POPC   GL1  940   6.896   0.115   8.954 -0.2466 -0.1646  0.4296
   33POPC   GL2  941   7.172   0.086   8.855  0.0509 -0.0952  0.2534
   33POPC   C1A  942   6.819   0.325   8.639 -0.0547  0.1259  0.3382
   33POPC   D2A  943   6.805   0.341   8.268 -0.0053  0.0470 -0.1671
   33POPC   C3A  944   6.600   0.438   7.812 -0.0737 -0.0823 -0.3372
   33POPC   C4A  945   6.244   0.413   7.715 -0.1237 -0.1601 -0.1113
   33POPC   C1B  946   7.207   0.015   8.455  0.0033 -0.2422  0.0869
   33POPC   C2B  947   7.030  -0.094   8.125  0.0934  0.1827 -0.0772
   33POPC   C3B  948   6.967   0.045   7.696 -0.0677  0.1992  0.0701
   33POPC   C4B  949   7.279   0.187   7.443 -0.3865  0.2731 -0.0279
   34POPC   NC3  950   9.751   5.330   9.032  0.0235  0.1694 -0.0692
   34POPC   PO4  951   9.720   5.708   9.052  0.0711  0.2190 -0.2037
   34POPC   GL1  952   9.495   5.731   8.594  0.2347  0.1044 -0.3277
   34POPC   GL2  953   9.393   6.109   8.427 -0.0322  0.0017 -0.0300
   34POPC   C1A  954   9.191   5.658   8.375 -0.0434 -0.0686  0.1358
   34POPC   D2A  955   8.990   5.474   8.039  0.0216 -0.0585  0.0472
   34POPC   C3A  956   9.195   5.155   7.817 -0.5765  0.0848  0.1015
   34POPC   C4A  957   9.222   4.897   7.439  0.4603 -0.0554 -0.2801
   34POPC   C1B  958   9.153   6.398   8.083  0.2504  0.1091 -0.1946
   34POPC   C2B  959   9.121   6.623   7.781 -0.4170  0.4001 -0.0840
   34POPC   C3B  960   8.771   6.760   7.458  0.0720  0.1808 -0.1615
   34POPC   C4B  961   8.825   6.772   7.105  0.3385 -0.3333  0.1237
   35POPC   NC3  962   7.615   6.344   9.539 -0.0845  0.1702 -0.0882
   35POPC   PO4  963   7.869   6.374   9.174 -0.0301 -0.0872 -0.2761
   35POPC   GL1  964   8.035   6.603   8.830 -0.0647  0.0188  0.2937
   35POPC   GL2  965   8.377   6.412   8.595  0.1387 -0.4849  0.3475
   35POPC   C1A  966   8.036   6.873   8.496  0.0538 -0.2164  0.1459
   35POPC   D2A  967   8.141   7.307   8.214 -0.1102  0.3915  0.1036
   35POPC   C3A  968   7.852   7.626   7.970  0.1082  0.2495 -0.3046
   35POPC   C4A  969   7.535   7.581   7.716  0.1559  0.1050  0.1605
   35POPC   C1B  970   8.183   6.471   8.185  0.0268  0.0816  0.0636
   35POPC   C2B  971   8.088   6.304   7.739  0.1524  0.1497  0.1330
   35POPC   C3B  972   7.980   6.545   7.306  0.1896  0.2251 -0.1302
   35POPC   C4B  973   8.021   7.006   7.208  0.1405 -0.0785 -0.0088
   36POPC   NC3  974   9.035   8.671   9.648  0.3119 -0.0506 -0.0456
   36POPC   PO4  975   8.585   8.680   9.623  0.0248 -0.3033  0.0433
   36POPC   GL1  976   8.337   8.866   9.191  0.0957  0.1814  0.0871
   36POPC   GL2  977   8.403   9.178   9.311 -0.0576  0.1548 -0.1188
   36POPC   C1A  978   8.479   8.875   8.824 -0.2260 -0.3514  0.1330
   36POPC   D2A  979   8.564   8.562   8.547  0.1361  0.2162 -0.0776
   36POPC   C3A  980   8.692   8.612   8.089 -0.0572  0.3930  0.2142
   36POPC   C4A  981   8.840   8.482   7.630  0.0654  0.0135  0.0202
   36POPC   C1B  982   8.443   9.441   9.011  0.1413 -0.3084  0.1311
   36POPC   C2B  983   8.448   9.328   8.584  0.1056 -0.1113 -0.4173
   36POPC   C3B  984   8.736   9.028   8.379 -0.0730  0.1165 -0.1779
   36POPC   C4B  985   9.079   8.938   8.120 -0.0637  0.1151  0.0759
   37POPC   NC3  986   4.574   1.502   8.829 -0.0747 -0.1452 -0.0279
   37POPC   PO4  987   4.818   1.683   8.964 -0.3166 -0.2180 -0.1797
   37POPC   GL1  988   5.004   1.695   8.621 -0.4433  0.0837  0.0686
   37POPC   GL2  989   5.314   1.640   8.609  0.0746  0.0844  0.2229
   37POPC   C1A  990   4.920   1.717   8.231  0.0343 -0.0237  0.0588
   37POPC   D2A  991   4.721   1.592   7.817  0.2960 -0.0881  0.0497
   37POPC   C3A  992   4.879   1.713   7.439 -0.0481 -0.0062  0.1553
   37POPC   C4A  993   4.879   2.010   7.180 -0.2687  0.3522  0.2944
   37POPC   C1B  994   5.583   1.924   8.555  0.2356 -0.0303 -0.2164
   37POPC   C2B  995   5.888   2.135   8.483 -0.2322  0.1276 -0.2757
   37POPC   C3B  996   6.465   2.159   8.468 -0.1058  0.0874  0.2038
   37POPC   C4B  997   6.749   2.474   8.622 -0.1154 -0.1931 -0.0403
   38POPC   NC3  998   6.565   3.832   9.277  0.5144  0.2326 -0.1543
   38POPC   PO4  999   6.118   3.732   9.134 -0.0989  0.0680 -0.2913
   38POPC   GL1 1000   6.081   3.658   8.741 -0.3234  0.1343 -0.1948
   38POPC   GL2 1001   6.082   3.408   8.611 -0.1546 -0.0436  0.0081
   38POPC   C1A 1002   6.467   3.571   8.364 -0.1419  0.0169 -0.1943
   38POPC   D2A 1003   6.207   3.398   8.023  0.1473  0.1985  0.3063
   38POPC   C3A 1004   6.419   3.474   7.609  0.0419  0.1646  0.1329
   38POPC   C4A 1005   6.190   3.368   7.249 -0.0254 -0.1962  0.0645
   38POPC   C1B 1006   5.774   3.598   8.351 -0.0727 -0.4860  0.1046
   38POPC   C2B 1007   5.895   3.844   7.940  0.1624 -0.2606  0.0368
   38POPC   C3B 1008   5.830   4.157   7.803  0.1764  0.1072 -0.1050
   38POPC   C4B 1009   5.672   4.511   7.559  0.0912 -0.0982 -0.2249
   39POPC   NC3 1010   5.355   2.969   9.176 -0.0492 -0.1513  0.0890
   39POPC   PO4 1011   5.026   2.653   9.165 -0.1423 -0.3347  0.3989
   39POPC   GL1 1012   5.070   2.426   8.829 -0.1323 -0.1242 -0.1985
   39POPC   GL2 1013   4.933   2.524   8.541  0.1228 -0.0185  0.3372
   39POPC   C1A 1014   5.196   2.126   8.375  0.1294  0.0387 -0.0635
   39POPC   D2A 1015   5.493   1.704   8.119 -0.0790 -0.3290  0.0529
   39POPC   C3A 1016   5.567   1.678   7.753 -0.1293 -0.0766  0.0532
   39POPC   C4A 1017   5.697   1.695   7.392  0.0027 -0.2032  0.1727
   39POPC   C1B 1018   4.741   2.288   8.104 -0.2116  0.2565 -0.5802
   39POPC   C2B 1019   5.070   1.985   7.858  0.1066  0.2279 -0.0711
   39POPC   C3B 1020   5.324   1.991   7.471  0.3459 -0.0670 -0.0022
   39POPC   C4B 1021   5.398   1.899   6.940 -0.1380  0.1035 -0.4738
   40POPC   NC3 1022   6.216   8.239   9.306  0.0367  0.1301 -0.1215
   40POPC   PO4 1023   6.348   7.870   9.280 -0.3497  0.2967 -0.2715
   40POPC   GL1 1024   6.363   8.062   8.870 -0.4075 -0.3708 -0.2142
   40POPC   GL2 1025   6.530   7.833   8.520 -0.0371  0.0302 -0.0621
   40POPC   C1A 1026   6.188   8.243   8.477  0.0996 -0.0065 -0.1564
   40POPC   D2A 1027   6.353   8.050   8.064 -0.0159  0.3663  0.1966
   40POPC   C3A 1028   6.800   7.903   8.099 -0.0962  0.3011  0.0127
   40POPC   C4A 1029   7.204   7.941   7.929 -0.0469 -0.0198 -0.1599
   40POPC   C1B 1030   6.224   7.618   8.228  0.0305  0.1057 -0.1044
   40POPC   C2B 1031   6.354   7.463   7.842 -0.1596  0.3307 -0.1196
   40POPC   C3B 1032   6.570   7.359   7.469 -0.1071  0.1300  0.1260
   40POPC   C4B 1033   6.921   7.332   7.140 -0.0678  0.0441  0.2815
   41POPC   NC3 1034   1.076   8.914   9.886  0.0939 -0.0643  0.2427
   41POPC   PO4 1035   0.818   8.983   9.525 -0.2900 -0.1196 -0.0981
   41POPC   GL1 1036   0.780   9.238   9.115  0.0179  0.0687  0.0089
   41POPC   GL2 1037   0.518   9.007   8.908 -0.0229  0.0097 -0.1952
   41POPC   C1A 1038   0.854   9.613   8.782  0.2161 -0.2833 -0.0146
   41POPC   D2A 1039   1.195   9.843   8.554 -0.3076 -0.2395  0.2629
   41POPC   C3A 1040   1.451   9.649   8.255 -0.1232  0.1665 -0.2900
   41POPC   C4A 1041   1.486   9.595   7.771 -0.0195 -0.1214 -0.2969
   41POPC   C1B 1042   0.477   9.217   8.574  0.1621 -0.0833  0.0644
   41POPC   C2B 1043   0.623   9.083   8.332  0.0147  0.2188  0.0175
   41POPC   C3B 1044   0.838   8.955   7.994 -0.3448  0.1381  0.1355
   41POPC   C4B 1045   1.183   9.106   7.857 -0.2351 -0.1113 -0.0185
   42POPC   NC3 1046   3.811   8.259   9.192  0.0222  0.1487  0.2268
   42POPC   PO4 1047   4.024   7.943   9.321 -0.0881  0.3011 -0.3348
   42POPC   GL1 1048   4.004   7.864   8.914 -0.2783 -0.1214 -0.2639
   42POPC   GL2 1049   3.756   7.698   8.693  0.2046  0.0830 -0.2985
   42POPC   C1A 1050   4.187   7.964   8.599 -0.0133 -0.1470  0.2525
   42POPC   D2A 1051   3.992   8.129   8.242  0.0802 -0.2041 -0.1400
   42POPC   C3A 1052   4.179   8.134   7.821  0.1838  0.1283  0.0692
   42POPC   C4A 1053   3.851   8.209   7.453  0.1751 -0.2259 -0.1771
   42POPC   C1B 1054   3.603   8.060   8.586 -0.1479  0.1341 -0.0951
   42POPC   C2B 1055   3.225   8.268   8.391 -0.0528  0.1067 -0.1283
   42POPC   C3B 1056   3.041   8.309   7.965 -0.5462  0.0492 -0.0540
   42POPC   C4B 1057   3.005   8.286   7.574  0.0059 -0.0182  0.1098
   43POPC   NC3 1058   7.623   9.633   9.691 -0.1417 -0.1039 -0.0470
   43POPC   PO4 1059   7.486   9.574   9.322  0.0422  0.0022 -0.0375
   43POPC   GL1 1060   7.606   9.794   8.997 -0.1773 -0.1426 -0.0709
   43POPC   GL2 1061   7.379   9.830   8.875  0.0116  0.0397 -0.0406
   43POPC   C1A 1062   7.786  10.200   8.871  0.2105 -0.1639 -0.3488
   43POPC   D2A 1063   7.612  10.576   8.636  0.1816 -0.3630 -0.0958
   43POPC   C3A 1064   7.548  10.613   8.218 -0.1597  0.1920 -0.1217
   43POPC   C4A 1065   7.228  10.621   7.905  0.1708  0.1398  0.1901
   43POPC   C1B 1066   7.275   9.619   8.443  0.0349  0.0583  0.0764
   43POPC   C2B 1067   7.498   9.668   8.053  0.1237  0.3461  0.0996
   43POPC   C3B 1068   7.874   9.736   7.879 -0.0172 -0.0412  0.1939
   43POPC   C4B 1069   8.108   9.893   7.477  0.2721  0.1057 -0.1002
   44POPC   NC3 1070   2.728   2.374   9.257  0.0163 -0.1182  0.1833
   44POPC   PO4 1071   2.542   2.730   9.037 -0.1175  0.0864 -0.2943
   44POPC   GL1 1072   2.619   2.417   8.736 -0.1626 -0.1709 -0.0871
   44POPC   GL2 1073   2.872   2.269   8.635 -0.0676 -0.1487 -0.1766
   44POPC   C1A 1074   2.512   2.230   8.348  0.0950 -0.1354  0.1996
   44POPC   D2A 1075   2.154   2.118   8.105 -0.0626  0.4525 -0.1060
   44POPC   C3A 1076   2.178   1.807   7.762  0.1985 -0.0813 -0.3899
   44POPC   C4A 1077   2.248   1.809   7.283  0.0298 -0.1406  0.1790
   44POPC   C1B 1078   3.121   2.271   8.261 -0.0226 -0.0682 -0.2007
   44POPC   C2B 1079   3.069   2.156   7.905 -0.0270  0.0403 -0.1829
   44POPC   C3B 1080   3.035   2.243   7.378  0.0872  0.0541 -0.0376
   44POPC   C4B 1081   3.059   2.527   7.071 -0.0946 -0.1741 -0.3386
   45POPC   NC3 1082   8.119   8.700   9.734 -0.1875  0.1679 -0.0389
   45POPC   PO4 1083   7.900   8.737   9.474 -0.0531 -0.1307 -0.1103
   45POPC   GL1 1084   7.896   8.754   8.947  0.3083 -0.1416  0.0998
   45POPC   GL2 1085   8.035   9.026   8.700 -0.2063 -0.0999  0.1423
   45POPC   C1A 1086   8.052   8.544   8.643 -0.0619  0.2084 -0.0082
   45POPC   D2A 1087   8.125   8.500   8.180 -0.0721  0.6279  0.2758
   45POPC   C3A 1088   7.958   8.488   7.819  0.1925 -0.2192  0.0170
   45POPC   C4A 1089   7.942   8.435   7.370  0.1008  0.0101  0.1868
   45POPC   C1B 1090   8.242   8.949   8.350  0.0393 -0.0133 -0.1317
   45POPC   C2B 1091   8.400   9.180   7.995  0.1163 -0.0690 -0.0133
   45POPC   C3B 1092   8.741   9.105   7.563  0.2935  0.0460  0.1661
   45POPC   C4B 1093   8.993   8.831   7.277  0.1036 -0.0911  0.3038
   46POPC   NC3 1094   3.032   4.364   8.890  0.0393  0.2423 -0.1254
   46POPC   PO4 1095   2.874   3.914   9.042 -0.4915  0.1606 -0.1837
   46POPC   GL1 1096   2.795   3.710   8.679 -0.1264 -0.0645 -0.0141
   46POPC   GL2 1097   2.887   3.370   8.543 -0.2542 -0.0615 -0.0635
   46POPC   C1A 1098   2.515   3.630   8.290 -0.1963  0.0946  0.0703
   46POPC   D2A 1099   2.307   3.669   7.910  0.1459  0.3301  0.0462
   46POPC   C3A 1100   2.097   3.344   7.537  0.1755 -0.1565 -0.0109
   46POPC   C4A 1101   2.080   3.470   7.076  0.1379 -0.1588  0.0026
   46POPC   C1B 1102   2.771   3.175   8.251  0.1158 -0.4005 -0.2017
   46POPC   C2B 1103   2.495   3.206   7.962 -0.2773  0.1796 -0.1742
   46POPC   C3B 1104   2.424   2.966   7.667 -0.0256  0.0269  0.0593
   46POPC   C4B 1105   2.408   3.064   7.239 -0.0683  0.0893  0.1274
   47POPC   NC3 1106   5.861   4.447   8.824  0.5179 -0.2746 -0.0429
   47POPC   PO4 1107   6.077   4.249   9.177 -0.3623  0.0673 -0.0363
   47POPC   GL1 1108   6.177   4.113   8.822 -0.0581  0.2579  0.1217
   47POPC   GL2 1109   6.502   4.002   8.847  0.2647  0.0778 -0.1194
   47POPC   C1A 1110   6.228   4.040   8.331  0.0919 -0.0716  0.1308
   47POPC   D2A 1111   6.418   3.875   7.923  0.0538  0.0045  0.1059
   47POPC   C3A 1112   6.134   3.857   7.468 -0.0990 -0.2139 -0.0861
   47POPC   C4A 1113   5.777   3.761   7.170 -0.4199  0.2614  0.2585
   47POPC   C1B 1114   6.809   3.949   8.507 -0.1836 -0.1821 -0.1645
   47POPC   C2B 1115   6.897   3.758   8.101  0.2077 -0.1050  0.0066
   47POPC   C3B 1116   6.871   3.766   7.647  0.2391  0.2227 -0.1066
   47POPC   C4B 1117   7.035   4.094   7.310  0.1405  0.2346  0.0077
   48POPC   NC3 1118   6.995   1.807   9.826 -0.0741 -0.1126  0.0074
   48POPC   PO4 1119   6.880   1.380   9.618  0.1454  0.1569  0.1297
   48POPC   GL1 1120   6.965   1.565   9.219 -0.0104  0.0294 -0.0178
   48POPC   GL2 1121   6.649   1.461   9.079  0.2672 -0.5264  0.3119
   48POPC   C1A 1122   7.133   1.538   8.757 -0.1698 -0.3182 -0.0774
   48POPC   D2A 1123   7.441   1.734   8.515 -0.5731 -0.4433 -0.1803
   48POPC   C3A 1124   7.272   1.757   8.137  0.1096  0.0646  0.4205
   48POPC   C4A 1125   7.014   1.811   7.725 -0.0136 -0.0515  0.1203
   48POPC   C1B 1126   6.673   1.472   8.608  0.0234 -0.0119 -0.2914
   48POPC   C2B 1127   6.840   1.781   8.352  0.0471 -0.1531 -0.0858
   48POPC   C3B 1128   6.638   1.971   7.937  0.0094  0.2338 -0.3302
   48POPC   C4B 1129   6.785   2.191   7.567  0.1127 -0.1821 -0.1835
   49POPC   NC3 1130   4.292   5.203   9.106  0.1326 -0.0164  0.1134
   49POPC   PO4 1131   4.390   5.547   9.312 -0.1665  0.2549 -0.0476
   49POPC   GL1 1132   4.316   5.605   8.827  0.0260 -0.1628  0.0169
   49POPC   GL2 1133   4.604   5.635   8.670 -0.0063  0.2641  0.2299
   49POPC   C1A 1134   4.048   5.578   8.584  0.1928 -0.0831  0.1183
   49POPC   D2A 1135   3.955   5.354   8.207  0.0855 -0.0783 -0.0371
   49POPC   C3A 1136   3.943   5.073   7.892  0.0796  0.1851 -0.3375
   49POPC   C4A 1137   3.749   4.620   7.980  0.0322 -0.3508  0.2320
   49POPC   C1B 1138   4.774   5.757   8.353  0.1549  0.3500  0.0932
   49POPC   C2B 1139   4.740   5.682   7.881 -0.2414  0.1422  0.1946
   49POPC   C3B 1140   4.645   5.396   7.665  0.0119 -0.1797  0.0413
   49POPC   C4B 1141   4.390   5.056   7.628 -0.2485  0.1338  0.0200
   50POPC   NC3 1142   1.075   4.243   9.426  0.0840 -0.2424 -0.0276
   50POPC   PO4 1143   1.400   4.447   9.090 -0.1854  0.1684 -0.0192
   50POPC   GL1 1144   1.206   4.247   8.747  0.2876 -0.2869 -0.0977
   50POPC   GL2 1145   0.981   4.046   8.795  0.0617 -0.0354  0.2357
   50POPC   C1A 1146   1.349   4.031   8.396 -0.0403  0.1828  0.0306
   50POPC   D2A 1147   1.694   4.047   8.136 -0.1990  0.0828  0.1496
   50POPC   C3A 1148   1.729   4.143   7.737 -0.0323 -0.1038  0.1798
   50POPC   C4A 1149   1.895   4.369   7.328 -0.0024  0.0330 -0.1829
   50POPC   C1B 1150   0.811   3.981   8.433  0.1363 -0.1129 -0.0302
   50POPC   C2B 1151   0.730   3.579   8.159 -0.1659  0.2531 -0.2762
   50POPC   C3B 1152   0.530   3.463   7.791 -0.1340  0.2837 -0.2940
   50POPC   C4B 1153   0.421   3.530   7.400 -0.1959 -0.0151  0.2268
   51POPC   NC3 1154   2.818   4.303   9.592 -0.0360 -0.1710  0.1394
   51POPC   PO4 1155   3.019   4.720   9.278 -0.0769 -0.0901  0.0524
   51POPC   GL1 1156   3.141   4.920   8.852 -0.3240  0.1472 -0.0195
   51POPC   GL2 1157   3.318   4.690   8.588  0.1381 -0.0896 -0.0993
   51POPC   C1A 1158   3.071   5.134   8.435 -0.0841  0.0441 -0.1779
   51POPC   D2A 1159   2.902   5.078   7.973 -0.3427 -0.1301  0.0401
   51POPC   C3A 1160   2.726   4.949   7.556 -0.0466  0.0239  0.1269
   51POPC   C4A 1161   2.453   5.033   7.205 -0.1355 -0.0344  0.2788
   51POPC   C1B 1162   3.323   4.670   8.138 -0.0407  0.1806  0.3293
   51POPC   C2B 1163   3.148   4.719   7.760 -0.0173 -0.0028  0.2161
   51POPC   C3B 1164   3.134   4.861   7.335 -0.2319 -0.1193  0.1198
   51POPC   C4B 1165   2.848   4.770   7.017  0.3497  0.2440  0.0857
   52POPC   NC3 1166   7.769   5.905   9.311  0.0840  0.0024  0.0378
   52POPC   PO4 1167   8.043   5.517   9.408  0.1164  0.0411  0.1555
   52POPC   GL1 1168   7.933   5.552   8.978  0.0755  0.1116 -0.2093
   52POPC   GL2 1169   7.684   5.277   8.788 -0.0743  0.3259 -0.0626
   52POPC   C1A 1170   7.894   5.670   8.483  0.0008  0.1981 -0.3507
   52POPC   D2A 1171   7.556   5.624   8.268 -0.3183 -0.0745 -0.0078
   52POPC   C3A 1172   7.514   5.689   7.773  0.1381 -0.0254 -0.0532
   52POPC   C4A 1173   7.582   5.736   7.333 -0.1283  0.3344  0.1102
   52POPC   C1B 1174   7.730   5.132   8.342 -0.0444 -0.0529 -0.0335
   52POPC   C2B 1175   7.947   4.979   8.001 -0.3394  0.0337 -0.0141
   52POPC   C3B 1176   8.275   4.899   7.717 -0.2416  0.1398 -0.3517
   52POPC   C4B 1177   8.557   5.143   7.502  0.2810 -0.1058 -0.1555
   53POPC   NC3 1178   2.943   7.647   9.312  0.0565 -0.0110  0.2981
   53POPC   PO4 1179   2.693   7.875   8.990  0.4039  0.0082  0.0680
   53POPC   GL1 1180   2.428   7.794   8.574  0.0679  0.0857 -0.2777
   53POPC   GL2 1181   2.402   7.497   8.617 -0.2354  0.3707 -0.1739
   53POPC   C1A 1182   2.315   7.724   8.109 -0.0646 -0.3491 -0.2234
   53POPC   D2A 1183   2.284   7.696   7.611  0.1236 -0.2899 -0.2478
   53POPC   C3A 1184   2.441   7.513   7.269 -0.3688 -0.0259  0.0243
   53POPC   C4A 1185   2.435   7.200   6.941 -0.0111  0.2656  0.3662
   53POPC   C1B 1186   2.388   7.256   8.244 -0.0491 -0.2380  0.0396
   53POPC   C2B 1187   2.419   7.238   7.853 -0.0745  0.0842 -0.2249
   53POPC   C3B 1188   2.545   7.083   7.510 -0.4065 -0.1958 -0.0676
   53POPC   C4B 1189   2.689   6.970   7.248 -0.0193  0.0041 -0.0246
   54POPC   NC3 1190   6.127   3.271   9.119  0.1955  0.0412 -0.2293
   54POPC   PO4 1191   5.705   3.132   8.915  0.1547  0.1707  0.3034
   54POPC   GL1 1192   5.485   2.794   8.683 -0.1586  0.2603  0.1959
   54POPC   GL2 1193   5.588   2.560   8.752 -0.1547 -0.0754  0.0646
   54POPC   C1A 1194   5.173   2.886   8.329  0.1271 -0.0950  0.0123
   54POPC   D2A 1195   4.983   2.671   7.982 -0.0940 -0.2040  0.3719
   54POPC   C3A 1196   4.795   2.874   7.606  0.1737 -0.1852 -0.3814
   54POPC   C4A 1197   4.818   2.864   7.230 -0.2848  0.0148 -0.3721
   54POPC   C1B 1198   5.578   2.605   8.226  0.1725  0.2592 -0.2193
   54POPC   C2B 1199   5.761   2.711   7.870  0.2551  0.0754 -0.4134
   54POPC   C3B 1200   6.127   2.671   7.538 -0.0557  0.1312 -0.1820
   54POPC   C4B 1201   6.286   2.406   7.275  0.0397  0.1310  0.1118
   55POPC   NC3 1202   6.590   4.966   9.075 -0.0312 -0.3292  0.2234
   55POPC   PO4 1203   6.367   4.641   8.978  0.0027  0.1672 -0.1507
   55POPC   GL1 1204   6.381   4.528   8.594 -0.2447 -0.0924 -0.2520
   55POPC   GL2 1205   6.192   4.627   8.510 -0.0243  0.4020 -0.2421
   55POPC   C1A 1206   6.570   4.338   8.197 -0.0675 -0.0158  0.1368
   55POPC   D2A 1207   6.820   4.260   7.814 -0.1157  0.2014 -0.1079
   55POPC   C3A 1208   6.762   4.631   7.442 -0.1041  0.1315 -0.1290
   55POPC   C4A 1209   6.875   4.960   7.290 -0.1346  0.0275 -0.1549
   55POPC   C1B 1210   6.141   4.517   8.110  0.1211  0.0590  0.2792
   55POPC   C2B 1211   6.289   4.372   7.717 -0.1823 -0.1405 -0.1655
   55POPC   C3B 1212   6.517   4.176   7.353  0.1355  0.0700 -0.0968
   55POPC   C4B 1213   6.575   3.787   7.217 -0.1292 -0.0403 -0.0712
   56POPC   NC3 1214   5.546   2.053   9.610 -0.0161  0.0007  0.0089
   56POPC   PO4 1215   6.013   2.112   9.408 -0.2430 -0.0170  0.0492
   56POPC   GL1 1216   6.304   1.933   9.022 -0.1709  0.2230  0.2503
   56POPC   GL2 1217   6.643   1.991   8.927  0.4798 -0.3251  0.2094
   56POPC   C1A 1218   6.232   1.776   8.606 -0.0114  0.2048 -0.0422
   56POPC   D2A 1219   6.301   1.662   8.233 -0.1268 -0.1413  0.1530
   56POPC   C3A 1220   5.961   1.907   8.080 -0.0560  0.1446  0.1588
   56POPC   C4A 1221   5.610   2.168   7.857  0.1559  0.0376 -0.2613
   56POPC   C1B 1222   7.050   2.049   8.707 -0.0553 -0.1117 -0.0128
   56POPC   C2B 1223   7.257   2.249   8.430 -0.1280  0.0087  0.0965
   56POPC   C3B 1224   7.568   2.584   8.268  0.0671 -0.0808 -0.3083
   56POPC   C4B 1225   7.679   2.613   7.870  0.1628  0.0259 -0.3197
   57POPC   NC3 1226   2.589   6.212   9.268  0.1618  0.1427  0.1841
   57POPC   PO4 1227   2.931   6.335   9.007  0.0912 -0.2759  0.6567
   57POPC   GL1 1228   3.082   6.411   8.538 -0.0263 -0.3026 -0.5760
   57POPC   GL2 1229   3.286   6.150   8.518 -0.4161  0.0321  0.0953
   57POPC   C1A 1230   3.115   6.648   8.095 -0.0767  0.3892 -0.1657
   57POPC   D2A 1231   3.359   6.546   7.790 -0.4703  0.0271 -0.1566
   57POPC   C3A 1232   3.417   6.161   7.785  0.5968 -0.1095 -0.1416
   57POPC   C4A 1233   3.479   5.886   7.429 -0.1317  0.0150 -0.0199
   57POPC   C1B 1234   3.559   6.342   8.283 -0.0910  0.0329  0.4035
   57POPC   C2B 1235   3.865   6.567   8.007 -0.0572  0.1626  0.1820
   57POPC   C3B 1236   4.297   6.538   7.912  0.0756 -0.1614  0.0915
   57POPC   C4B 1237   4.716   6.487   7.912 -0.2559 -0.0661 -0.1385
   58POPC   NC3 1238   0.463   6.989   9.470  0.1096  0.1322 -0.1669
   58POPC   PO4 1239   0.658   7.224   9.235 -0.0101 -0.3775  0.0338
   58POPC   GL1 1240   0.607   7.339   8.780 -0.3566 -0.1356 -0.1911
   58POPC   GL2 1241   0.682   7.002   8.614 -0.0885 -0.0344 -0.2490
   58POPC   C1A 1242   0.301   7.472   8.528 -0.2581 -0.1301  0.4803
   58POPC   D2A 1243  -0.157   7.533   8.404  0.0229  0.1158 -0.2622
   58POPC   C3A 1244  -0.538   7.733   8.464  0.2418  0.0064  0.2862
   58POPC   C4A 1245  -1.015   7.863   8.503 -0.0206 -0.1887 -0.1376
   58POPC   C1B 1246   0.904   6.951   8.229 -0.0209  0.0985 -0.0480
   58POPC   C2B 1247   1.140   6.880   7.869 -0.0427  0.0806 -0.0759
   58POPC   C3B 1248   1.115   6.674   7.496 -0.3164  0.2943  0.1443
   58POPC   C4B 1249   0.971   6.248   7.324  0.0399  0.1322 -0.0517
   59POPC   NC3 1250   7.697   8.386   9.187  0.0279  0.0442  0.0077
   59POPC   PO4 1251   7.642   8.004   9.016  0.2932 -0.0617 -0.2239
   59POPC   GL1 1252   7.594   8.489   8.662 -0.2636  0.2215 -0.0896
   59POPC   GL2 1253   7.225   8.552   8.736  0.2233 -0.2202 -0.0984
   59POPC   C1A 1254   7.760   8.808   8.276 -0.1910  0.3092 -0.3218
   59POPC   D2A 1255   7.545   8.797   7.894 -0.0264 -0.3352  0.0726
   59POPC   C3A 1256   7.500   8.768   7.510 -0.0274 -0.0092  0.3228
   59POPC   C4A 1257   7.337   9.073   7.136  0.2519 -0.1231  0.1192
   59POPC   C1B 1258   7.046   8.799   8.400 -0.0970 -0.4984  0.1327
   59POPC   C2B 1259   7.013   8.874   7.846  0.1807  0.3474 -0.0633
   59POPC   C3B 1260   7.025   9.207   7.505 -0.1741 -0.0249  0.1293
   59POPC   C4B 1261   7.323   9.582   7.301  0.1746  0.2057  0.0965
   60POPC   NC3 1262   1.681   3.476   9.062  0.1866 -0.0096 -0.0185
   60POPC   PO4 1263   1.896   3.765   9.322  0.0263 -0.2425  0.1957
   60POPC   GL1 1264   1.814   3.879   8.916  0.0957 -0.2345  0.2030
   60POPC   GL2 1265   1.739   4.130   8.799 -0.1694 -0.1300 -0.2814
   60POPC   C1A 1266   2.113   3.986   8.540  0.2210  0.3262 -0.0054
   60POPC   D2A 1267   2.095   4.286   8.240  0.2137 -0.1457  0.1816
   60POPC   C3A 1268   2.306   4.162   7.920 -0.2243 -0.2764 -0.0647
   60POPC   C4A 1269   2.235   3.958   7.450  0.0667  0.3083  0.0342
   60POPC   C1B 1270   1.727   4.512   8.484  0.0414 -0.1353  0.1003
   60POPC   C2B 1271   1.760   4.678   8.040  0.1108 -0.0629  0.1480
   60POPC   C3B 1272   1.804   4.929   7.795  0.0362 -0.0876  0.3421
   60POPC   C4B 1273   1.581   5.280   7.570 -0.1936  0.2969 -0.2522
   61POPC   NC3 1274   7.513   4.713   9.532  0.3934 -0.1873  0.0557
   61POPC   PO4 1275   7.375   4.982   9.222 -0.0477  0.2343 -0.0371
   61POPC   GL1 1276   7.368   4.897   8.759  0.0539 -0.3097 -0.2989
   61POPC   GL2 1277   7.028   4.946   8.744 -0.0096 -0.0372  0.1944
   61POPC   C1A 1278   7.412   4.702   8.305  0.2717 -0.5186 -0.1489
   61POPC   D2A 1279   7.682   4.617   7.826 -0.2851  0.1042  0.2052
   61POPC   C3A 1280   7.780   4.213   7.818 -0.0881 -0.1146 -0.0020
   61POPC   C4A 1281   7.893   3.859   7.594  0.1212  0.1198  0.0429
   61POPC   C1B 1282   6.885   4.798   8.266 -0.1512  0.0196 -0.2188
   61POPC   C2B 1283   7.012   4.718   7.922 -0.0009  0.2326  0.1893
   61POPC   C3B 1284   7.271   4.717   7.535 -0.0364 -0.2638 -0.0637
   61POPC   C4B 1285   7.396   4.886   7.099  0.0006  0.2112  0.0400
   62POPC   NC3 1286   9.113   7.171   9.199  0.3125 -0.1010  0.4120
   62POPC   PO4 1287   9.406   7.493   9.218 -0.0656 -0.2113  0.1843
   62POPC   GL1 1288   9.290   7.402   8.718  0.1045 -0.0657 -0.0564
   62POPC   GL2 1289   9.199   7.049   8.635  0.1127 -0.2607  0.4529
   62POPC   C1A 1290   9.302   7.310   8.238  0.1576 -0.4208  0.1475
   62POPC   D2A 1291   9.416   7.352   7.737 -0.0287  0.1695  0.2069
   62POPC   C3A 1292   9.217   6.975   7.363 -0.3564  0.0636  0.2371
   62POPC   C4A 1293   9.286   6.544   7.258 -0.1062  0.4204  0.3404
   62POPC   C1B 1294   9.009   6.919   8.191  0.0535  0.0887 -0.3441
   62POPC   C2B 1295   8.930   7.104   7.772 -0.0900  0.1509 -0.3112
   62POPC   C3B 1296   8.795   7.511   7.596  0.2315 -0.1026 -0.2953
   62POPC   C4B 1297   9.183   7.747   7.523 -0.0639  0.1740 -0.0418
   63POPC   NC3 1298   2.980   3.085   8.982  0.2653  0.0330  0.2432
   63POPC   PO4 1299   3.109   2.647   9.069 -0.0784 -0.0173 -0.1796
   63POPC   GL1 1300   3.151   2.742   8.610  0.1635  0.1033  0.1175
   63POPC   GL2 1301   2.801   2.841   8.582 -0.1000 -0.1172  0.0017
   63POPC   C1A 1302   3.035   2.727   8.096 -0.4197  0.2158 -0.1881
   63POPC   D2A 1303   2.906   2.750   7.653  0.2139  0.2334 -0.3966
   63POPC   C3A 1304   2.861   3.098   7.404  0.3043  0.0151 -0.0587
   63POPC   C4A 1305   2.547   3.436   7.501 -0.1823 -0.0366 -0.1922
   63POPC   C1B 1306   2.625   2.727   8.353  0.1125  0.0978  0.2267
   63POPC   C2B 1307   2.518   2.570   7.956  0.3417  0.0202  0.1282
   63POPC   C3B 1308   2.219   2.499   7.688 -0.3026 -0.4582 -0.2964
   63POPC   C4B 1309   1.894   2.167   7.539  0.1618 -0.0610 -0.1293
   64POPC   NC3 1310   9.933   4.427  10.074  0.1671 -0.0509 -0.0317
   64POPC   PO4 1311   9.929   4.501   9.611  0.1686  0.0249 -0.0582
   64POPC   GL1 1312   9.717   4.395   9.439 -0.0425 -0.0824 -0.1214
   64POPC   GL2 1313   9.766   4.272   9.165 -0.1717 -0.2384 -0.2209
   64POPC   C1A 1314   9.438   3.977   9.522  0.0411  0.0543 -0.2782
   64POPC   D2A 1315   9.571   3.553   9.697 -0.2242 -0.2981 -0.1054
   64POPC   C3A 1316   9.608   3.243   9.394  0.1523 -0.1145  0.2261
   64POPC   C4A 1317   9.226   2.970   9.291  0.0259  0.0113 -0.0005
   64POPC   C1B 1318   9.597   4.140   8.891 -0.4556  0.1822  0.4155
   64POPC   C2B 1319   9.306   4.157   8.490  0.1010 -0.4452 -0.1560
   64POPC   C3B 1320   9.469   4.543   8.134 -0.0220  0.2284  0.2626
   64POPC   C4B 1321   9.842   4.311   7.752 -0.1723  0.1992 -0.0187
   65POPC   NC3 1322   3.744   6.035   9.258 -0.3277 -0.1008  0.3581
   65POPC   PO4 1323   4.233   6.019   9.180 -0.0103  0.0130  0.1835
   65POPC   GL1 1324   4.500   6.291   8.847 -0.0742  0.0734  0.0035
   65POPC   GL2 1325   4.337   6.170   8.689  0.1797  0.1565 -0.4136
   65POPC   C1A 1326   4.806   6.203   8.547  0.0608  0.3139 -0.1243
   65POPC   D2A 1327   5.056   6.078   8.112 -0.0475  0.0775  0.0222
   65POPC   C3A 1328   4.895   6.072   7.664 -0.2145  0.4474  0.2289
   65POPC   C4A 1329   4.711   6.340   7.412  0.0431 -0.3115 -0.0490
   65POPC   C1B 1330   4.433   6.130   8.230  0.2141 -0.0797 -0.1149
   65POPC   C2B 1331   4.388   6.012   7.779 -0.1925 -0.2331 -0.1213
   65POPC   C3B 1332   4.539   5.893   7.348 -0.1668 -0.0035  0.1335
   65POPC   C4B 1333   4.795   6.002   7.067 -0.0453 -0.1089 -0.2795
   66POPC   NC3 1334   8.056   2.688   9.779  0.0525 -0.1292 -0.1570
   66POPC   PO4 1335   8.309   2.930  10.090 -0.1497  0.0163  0.0286
   66POPC   GL1 1336   8.581   2.778   9.759 -0.0302  0.0151  0.0052
   66POPC   GL2 1337   8.926   2.961   9.789 -0.3187 -0.1058 -0.3791
   66POPC   C1A 1338   8.783   2.619   9.389  0.1415  0.1199 -0.0047
   66POPC   D2A 1339   9.156   2.443   9.250  0.0009  0.0328  0.4313
   66POPC   C3A 1340   9.543   2.112   9.149 -0.1220  0.1198 -0.2426
   66POPC   C4A 1341   9.920   1.813   9.204  0.0212 -0.0340 -0.1511
   66POPC   C1B 1342   9.222   2.573   9.714 -0.0374 -0.0345 -0.0630
   66POPC   C2B 1343   9.321   2.122   9.655 -0.0907 -0.1556  0.1535
   66POPC   C3B 1344   9.775   2.233   9.554  0.0411  0.3773 -0.1107
   66POPC   C4B 1345  10.133   2.413   9.675 -0.0158  0.1223 -0.0670
   67POPC   NC3 1346   8.194   4.148   9.563 -0.3242 -0.2910 -0.0629
   67POPC   PO4 1347   7.665   4.237   9.560  0.3083 -0.0947 -0.2095
   67POPC   GL1 1348   7.799   4.480   9.141 -0.2847 -0.2316 -0.0012
   67POPC   GL2 1349   8.045   4.263   9.081  0.0203  0.2539  0.1953
   67POPC   C1A 1350   7.878   4.770   8.711  0.0667 -0.1175 -0.4517
   67POPC   D2A 1351   7.993   4.605   8.349  0.1403  0.0465 -0.1404
   67POPC   C3A 1352   8.206   4.486   7.972 -0.1123  0.1482 -0.1593
   67POPC   C4A 1353   8.261   4.154   7.712  0.1684 -0.0743  0.0794
   67POPC   C1B 1354   7.636   4.263   8.752 -0.1322  0.0393 -0.3120
   67POPC   C2B 1355   7.596   4.241   8.353 -0.1320  0.0118  0.1438
   67POPC   C3B 1356   7.401   3.877   8.109 -0.1093 -0.1064 -0.0377
   67POPC   C4B 1357   7.354   3.447   7.855  0.0622  0.1996  0.1586
   68POPC   NC3 1358   9.318   9.526  10.114 -0.0258  0.2409 -0.1105
   68POPC   PO4 1359   8.983   9.608   9.895 -0.1288  0.2534  0.0301
   68POPC   GL1 1360   9.097   9.621   9.508  0.0607  0.4717  0.0166
   68POPC   GL2 1361   9.020   9.856   9.311  0.0502  0.1834  0.0124
   68POPC   C1A 1362   8.954   9.472   9.052  0.2483  0.0925 -0.1935
   68POPC   D2A 1363   9.045   9.232   8.684  0.1740 -0.0808 -0.5747
   68POPC   C3A 1364   9.273   9.390   8.506  0.0927  0.0596 -0.0241
   68POPC   C4A 1365   9.352   9.695   8.218 -0.0885 -0.2431 -0.2096
   68POPC   C1B 1366   8.684   9.904   9.031  0.0328 -0.0349 -0.2480
   68POPC   C2B 1367   8.692   9.817   8.622 -0.2395  0.0903  0.1428
   68POPC   C3B 1368   8.698   9.604   8.285 -0.1735  0.1346 -0.0571
   68POPC   C4B 1369   8.851   9.393   7.950  0.0499  0.0519  0.0757
   69POPC   NC3 1370   0.527   1.873  10.542  0.0065 -0.1653  0.1528
   69POPC   PO4 1371   0.318   1.919  10.210  0.2219  0.0173  0.0853
   69POPC   GL1 1372  -0.075   1.663  10.062  0.0655 -0.1924  0.1540
   69POPC   GL2 1373   0.149   1.595   9.805  0.1546 -0.0816 -0.1150
   69POPC   C1A 1374  -0.503   1.720   9.691  0.2745 -0.0545  0.0960
   69POPC   D2A 1375  -0.804   1.650   9.337 -0.2096 -0.2362 -0.1354
   69POPC   C3A 1376  -1.159   1.934   9.285 -0.3843  0.0893 -0.3299
   69POPC   C4A 1377  -1.503   2.192   9.168 -0.0863  0.2914  0.0402
   69POPC   C1B 1378   0.142   1.812   9.464  0.1009  0.2993 -0.5410
   69POPC   C2B 1379   0.156   2.009   9.130  0.1253  0.0349  0.2918
   69POPC   C3B 1380   0.085   2.175   8.705 -0.2302  0.0832 -0.0378
   69POPC   C4B 1381  -0.138   2.143   8.304  0.0557  0.0365 -0.2131
   70POPC   NC3 1382   8.435   0.740  10.638  0.0789 -0.0329 -0.0417
   70POPC   PO4 1383   8.192   0.626  10.342  0.0004 -0.2442 -0.0627
   70POPC   GL1 1384   8.352   0.858   9.991 -0.2502  0.1909 -0.1251
   70POPC   GL2 1385   8.117   0.774   9.802 -0.2113 -0.1947  0.0368
   70POPC   C1A 1386   8.518   1.188   9.648 -0.1352 -0.3567 -0.0742
   70POPC   D2A 1387   8.272   1.421   9.314  0.1804  0.0247  0.0801
   70POPC   C3A 1388   8.324   1.385   8.889  0.1813  0.0201  0.0664
   70POPC   C4A 1389   8.281   1.425   8.481 -0.0268  0.2595  0.0439
   70POPC   C1B 1390   8.418   0.730   9.436  0.2515 -0.0339  0.0315
   70POPC   C2B 1391   8.767   0.729   9.369 -0.0844 -0.1494 -0.2219
   70POPC   C3B 1392   9.093   0.817   9.073  0.0974  0.0492 -0.1528
   70POPC   C4B 1393   9.046   0.909   8.648 -0.0182 -0.0067  0.0343
   71POPC   NC3 1394   9.764   0.891  10.459  0.1087  0.1745  0.0057
   71POPC   PO4 1395  10.207   0.887  10.449  0.0986 -0.1861  0.0160
   71POPC   GL1 1396  10.053   1.216  10.254  0.1635 -0.1636  0.1424
   71POPC   GL2 1397   9.766   1.385  10.375  0.1327  0.0110 -0.2035
   71POPC   C1A 1398   9.963   1.217   9.815  0.2450 -0.1239  0.0694
   71POPC   D2A 1399  10.020   0.992   9.513  0.0081  0.1344  0.1469
   71POPC   C3A 1400  10.087   1.297   9.218 -0.0395  0.3726  0.0036
   71POPC   C4A 1401   9.758   1.371   8.923 -0.1342  0.1113 -0.2358
   71POPC   C1B 1402   9.567   1.379  10.049  0.5373 -0.4006  0.1482
   71POPC   C2B 1403   9.584   1.223   9.606  0.1984  0.1283  0.3811
   71POPC   C3B 1404   9.576   0.968   9.237  0.1093  0.0294 -0.0846
   71POPC   C4B 1405   9.983   0.866   9.023  0.1094  0.1594 -0.3270
   72POPC   NC3 1406   1.464   5.016   9.233 -0.2107 -0.0563 -0.2930
   72POPC   PO4 1407   1.166   5.226   8.957  0.1478 -0.1163  0.0185
   72POPC   GL1 1408   1.122   5.169   8.523  0.1559 -0.0179  0.2330
   72POPC   GL2 1409   1.264   5.390   8.375  0.0023  0.2616  0.1851
   72POPC   C1A 1410   0.752   5.078   8.209 -0.3221 -0.2704 -0.2029
   72POPC   D2A 1411   0.503   5.426   7.939  0.1701 -0.1329 -0.0368
   72POPC   C3A 1412   0.558   5.931   8.051  0.4889 -0.1627  0.1516
   72POPC   C4A 1413   0.734   6.339   8.216 -0.0967  0.1598  0.0033
   72POPC   C1B 1414   1.467   5.403   8.079  0.0090  0.0610 -0.1173
   72POPC   C2B 1415   1.432   5.750   7.744 -0.0884 -0.1223  0.0588
   72POPC   C3B 1416   1.180   5.872   7.558  0.1019 -0.2528  0.0002
   72POPC   C4B 1417   0.705   5.838   7.473  0.0105  0.0901 -0.1398
   73POPC   NC3 1418   5.802  10.000   9.825  0.0495  0.0444  0.1001
   73POPC   PO4 1419   6.115   9.867   9.451  0.1254 -0.0417  0.0661
   73POPC   GL1 1420   6.012  10.033   9.112 -0.2281 -0.0425  0.2665
   73POPC   GL2 1421   5.881  10.281   9.021 -0.2530 -0.0340 -0.1466
   73POPC   C1A 1422   6.053  10.006   8.691  0.0242 -0.1193  0.1140
   73POPC   D2A 1423   5.931   9.755   8.317  0.0203 -0.0388 -0.2362
   73POPC   C3A 1424   6.042   9.711   7.904  0.1339 -0.0029 -0.1336
   73POPC   C4A 1425   6.117   9.536   7.595 -0.0043  0.1067 -0.0779
   73POPC   C1B 1426   5.559  10.120   8.784  0.1346 -0.1052 -0.2058
   73POPC   C2B 1427   5.482   9.813   8.507 -0.1288 -0.0712  0.2047
   73POPC   C3B 1428   5.418   9.598   8.127 -0.0615 -0.1356 -0.0807
   73POPC   C4B 1429   5.663   9.321   7.927 -0.1697 -0.3416 -0.1121
   74POPC   NC3 1430   6.036   5.714   9.342 -0.0564 -0.0403  0.1283
   74POPC   PO4 1431   5.958   6.042   9.249  0.0651  0.1595 -0.0527
   74POPC   GL1 1432   6.025   6.123   8.830  0.0255  0.2648 -0.2719
   74POPC   GL2 1433   6.306   6.273   8.880 -0.0672  0.0348 -0.0547
   74POPC   C1A 1434   6.006   5.956   8.423 -0.1376  0.3034  0.1778
   74POPC   D2A 1435   6.325   6.131   8.095 -0.0315 -0.1583 -0.4926
   74POPC   C3A 1436   6.436   5.962   7.737 -0.4647  0.2121  0.1650
   74POPC   C4A 1437   6.678   5.920   7.337 -0.1519  0.2045 -0.1233
   74POPC   C1B 1438   6.500   6.161   8.531 -0.0265  0.0541  0.0585
   74POPC   C2B 1439   6.878   6.239   8.384  0.1570 -0.0245  0.1489
   74POPC   C3B 1440   7.161   6.526   8.284  0.3169  0.0446  0.0724
   74POPC   C4B 1441   7.202   6.734   7.987 -0.0754 -0.3137  0.1897
   75POPC   NC3 1442   1.196   0.279  10.361  0.1270 -0.0713  0.0383
   75POPC   PO4 1443   0.943   0.586  10.093  0.1600 -0.1760  0.2865
   75POPC   GL1 1444   0.987   0.465   9.633 -0.1835 -0.0675 -0.2246
   75POPC   GL2 1445   1.116   0.350   9.428  0.1470  0.0236  0.2945
   75POPC   C1A 1446   0.844   0.825   9.366 -0.2368 -0.0937  0.0887
   75POPC   D2A 1447   0.879   1.096   8.993 -0.2110  0.0068  0.2614
   75POPC   C3A 1448   0.579   1.014   8.663  0.1034 -0.1000 -0.4832
   75POPC   C4A 1449   0.151   0.844   8.680 -0.1756 -0.1426 -0.1318
   75POPC   C1B 1450   0.943   0.402   9.043  0.1131 -0.1698  0.2514
   75POPC   C2B 1451   1.058   0.669   8.632 -0.0502 -0.4228  0.1704
   75POPC   C3B 1452   1.065   0.795   8.257  0.1936  0.3570  0.0702
   75POPC   C4B 1453   0.922   0.794   7.767  0.1967 -0.1986  0.0029
   76POPC   NC3 1454   5.226   9.722   9.133 -0.1797  0.0348  0.0877
   76POPC   PO4 1455   4.895   9.525   8.936 -0.2334  0.0608  0.0139
   76POPC   GL1 1456   4.813   9.915   8.685 -0.0344 -0.1636  0.0715
   76POPC   GL2 1457   4.571   9.876   8.484  0.0629 -0.1141  0.3482
   76POPC   C1A 1458   5.048   9.950   8.287  0.0022  0.2289 -0.2214
   76POPC   D2A 1459   5.157   9.933   7.858 -0.1204  0.0660  0.1737
   76POPC   C3A 1460   4.793   9.770   7.565 -0.0721 -0.1626 -0.0471
   76POPC   C4A 1461   4.483   9.958   7.294 -0.1360 -0.1900  0.1387
   76POPC   C1B 1462   4.566  10.084   8.069  0.0983 -0.6401 -0.3971
   76POPC   C2B 1463   4.691  10.250   7.751 -0.0207 -0.0811  0.2705
   76POPC   C3B 1464   4.921  10.231   7.406  0.0511  0.1908 -0.0998
   76POPC   C4B 1465   5.260   9.923   7.302 -0.2265 -0.1072 -0.0886
   77POPC   NC3 1466   1.873   7.645   8.852  0.0614  0.2582 -0.0658
   77POPC   PO4 1467   2.222   7.496   9.081  0.0530 -0.1986 -0.0692
   77POPC   GL1 1468   2.268   7.095   8.876 -0.1619  0.0776  0.2591
   77POPC   GL2 1469   2.036   7.006   8.767  0.1089  0.1666  0.0359
   77POPC   C1A 1470   2.559   6.840   8.507 -0.1147  0.2300 -0.0586
   77POPC   D2A 1471   2.575   6.791   8.022 -0.1177 -0.2198  0.0508
   77POPC   C3A 1472   2.079   6.902   7.908 -0.0048  0.2019  0.3672
   77POPC   C4A 1473   1.773   6.686   7.709  0.1503 -0.1276  0.0015
   77POPC   C1B 1474   1.876   7.013   8.359 -0.0491  0.0472  0.0845
   77POPC   C2B 1475   1.569   7.084   7.929  0.0876 -0.1134  0.0255
   77POPC   C3B 1476   1.471   7.121   7.541 -0.0289  0.0597  0.0578
   77POPC   C4B 1477   1.364   7.339   7.106 -0.3298  0.0200 -0.2808
   78POPC   NC3 1478   5.360   8.155   9.192 -0.0646  0.1078  0.2024
   78POPC   PO4 1479   5.568   8.630   9.205 -0.1494 -0.0445  0.0801
   78POPC   GL1 1480   5.532   8.932   8.741  0.1036  0.0225 -0.2237
   78POPC   GL2 1481   5.418   9.328   8.706  0.4086  0.1581 -0.0703
   78POPC   C1A 1482   5.819   9.252   8.463 -0.1609  0.5640 -0.0666
   78POPC   D2A 1483   6.147   9.225   8.152 -0.0614  0.3267  0.1469
   78POPC   C3A 1484   5.935   9.011   7.655  0.3827  0.1397  0.2272
   78POPC   C4A 1485   5.708   8.520   7.575  0.0820  0.1034 -0.1149
   78POPC   C1B 1486   5.147   9.161   8.471 -0.0011  0.1995  0.0495
   78POPC   C2B 1487   4.968   8.919   8.072  0.1164 -0.2221  0.1499
   78POPC   C3B 1488   4.867   9.060   7.631  0.0750 -0.0856  0.4494
   78POPC   C4B 1489   4.461   9.365   7.526  0.0574  0.3681 -0.2640
   79POPC   NC3 1490   6.107   6.640   9.815  0.0900 -0.0465  0.2976
   79POPC   PO4 1491   6.366   6.881   9.518  0.2784 -0.5286  0.0374
   79POPC   GL1 1492   6.448   6.860   9.003  0.5000 -0.1317 -0.2244
   79POPC   GL2 1493   6.170   7.050   8.914 -0.0734 -0.3526 -0.1181
   79POPC   C1A 1494   6.564   6.629   8.626 -0.0465  0.2844 -0.2828
   79POPC   D2A 1495   6.754   6.816   8.272 -0.0460  0.0932 -0.0079
   79POPC   C3A 1496   6.725   6.484   7.932  0.0519 -0.1886 -0.1194
   79POPC   C4A 1497   7.093   6.309   7.792 -0.4743  0.0602  0.0825
   79POPC   C1B 1498   6.309   7.098   8.535 -0.3350 -0.2501  0.1828
   79POPC   C2B 1499   6.371   7.003   8.070  0.3670 -0.2075 -0.0373
   79POPC   C3B 1500   6.682   6.991   7.772  0.1315 -0.1207 -0.3246
   79POPC   C4B 1501   7.083   7.084   7.569  0.0750  0.1929 -0.0392
   80POPC   NC3 1502   2.923   9.094   9.695  0.0689  0.0019 -0.2252
   80POPC   PO4 1503   2.978   8.842   9.230  0.0300 -0.1006 -0.2846
   80POPC   GL1 1504   2.603   8.818   8.844 -0.3904 -0.1572  0.2381
   80POPC   GL2 1505   2.525   9.056   8.891  0.0747 -0.1043 -0.1906
   80POPC   C1A 1506   2.408   8.955   8.426 -0.2008  0.0429  0.0787
   80POPC   D2A 1507   2.276   9.133   8.019  0.0770  0.4532 -0.0629
   80POPC   C3A 1508   2.338   9.479   8.051  0.0598 -0.1580  0.2057
   80POPC   C4A 1509   2.556   9.865   8.045 -0.0131 -0.0273  0.2733
   80POPC   C1B 1510   2.282   9.453   8.655 -0.0463  0.0573  0.1577
   80POPC   C2B 1511   1.986   9.741   8.325 -0.0933 -0.0415  0.1145
   80POPC   C3B 1512   1.992   9.698   7.778  0.1475 -0.1465 -0.0222
   80POPC   C4B 1513   2.137   9.495   7.536 -0.0620 -0.0236  0.0713
   81POPC   NC3 1514  10.020   4.666   9.128  0.0516 -0.1158 -0.0840
   81POPC   PO4 1515   9.563   4.826   9.245 -0.0441 -0.0257  0.1473
   81POPC   GL1 1516   9.471   4.913   8.859  0.1262  0.3361 -0.0771
   81POPC   GL2 1517   9.852   4.965   8.778  0.2506 -0.0908 -0.1175
   81POPC   C1A 1518   9.242   4.753   8.586  0.1035 -0.3552  0.2075
   81POPC   D2A 1519   9.023   4.765   8.203  0.1577 -0.1580 -0.0847
   81POPC   C3A 1520   8.586   5.112   8.087  0.0714  0.1944  0.3099
   81POPC   C4A 1521   8.548   5.562   7.974  0.1628 -0.1422  0.1391
   81POPC   C1B 1522   9.884   4.787   8.342 -0.0621  0.0687 -0.1048
   81POPC   C2B 1523  10.156   4.651   8.134 -0.2347 -0.1468 -0.2136
   81POPC   C3B 1524  10.332   4.477   7.837  0.2378 -0.1045  0.2133
   81POPC   C4B 1525  10.117   4.529   7.388  0.0725  0.0573 -0.2756
   82POPC   NC3 1526   1.879   9.808   9.362  0.0502  0.0283 -0.3339
   82POPC   PO4 1527   1.999  10.222   9.345 -0.2614  0.1501 -0.1126
   82POPC   GL1 1528   2.181  10.092   8.951 -0.0602 -0.0936 -0.0847
   82POPC   GL2 1529   2.017   9.861   8.894 -0.0026  0.3222  0.1128
   82POPC   C1A 1530   2.211  10.102   8.517  0.0095 -0.0816 -0.2221
   82POPC   D2A 1531   2.135  10.158   7.995  0.2889 -0.0388 -0.1957
   82POPC   C3A 1532   2.330  10.061   7.560 -0.2426 -0.1280  0.2076
   82POPC   C4A 1533   2.743  10.230   7.249  0.0933 -0.2102  0.0524
   82POPC   C1B 1534   1.790   9.500   8.677  0.3355  0.0622 -0.0779
   82POPC   C2B 1535   1.465   9.262   8.614  0.1384 -0.3145 -0.2002
   82POPC   C3B 1536   1.379   8.986   8.315 -0.1011  0.3390 -0.0139
   82POPC   C4B 1537   1.630   8.873   7.884  0.0968  0.0199  0.1750
   83POPC   NC3 1538   4.733   5.855   9.145 -0.3081  0.0939 -0.1781
   83POPC   PO4 1539   4.972   5.796   9.351  0.0186  0.0026 -0.0648
   83POPC   GL1 1540   5.174   5.641   8.972 -0.1268  0.2585 -0.2256
   83POPC   GL2 1541   5.064   5.404   8.745  0.1924 -0.3293  0.0494
   83POPC   C1A 1542   5.303   5.908   8.621 -0.0006 -0.1241 -0.1037
   83POPC   D2A 1543   5.522   5.918   8.160  0.0786 -0.3222  0.3223
   83POPC   C3A 1544   5.437   5.991   7.751  0.1337  0.1066  0.2812
   83POPC   C4A 1545   5.415   5.876   7.356 -0.2313  0.3352 -0.1036
   83POPC   C1B 1546   5.237   4.988   8.499  0.1293 -0.0654  0.1703
   83POPC   C2B 1547   5.109   4.727   8.219  0.3575  0.2690  0.1872
   83POPC   C3B 1548   5.181   4.354   7.905  0.1251  0.0431 -0.1055
   83POPC   C4B 1549   5.029   4.344   7.445 -0.3059  0.0009 -0.1544
   84POPC   NC3 1550   3.299   2.209   8.868 -0.0671  0.0717  0.2544
   84POPC   PO4 1551   3.556   2.494   8.693 -0.2480 -0.2389 -0.2492
   84POPC   GL1 1552   3.780   2.147   8.361 -0.3027  0.1347 -0.2322
   84POPC   GL2 1553   3.529   1.964   8.357  0.0652 -0.1061  0.5319
   84POPC   C1A 1554   3.853   2.245   7.993 -0.0912  0.1143 -0.2546
   84POPC   D2A 1555   4.049   2.119   7.657 -0.0266  0.4670 -0.2799
   84POPC   C3A 1556   4.301   2.531   7.355 -0.1058 -0.1915  0.0124
   84POPC   C4A 1557   4.534   2.348   7.049 -0.2536 -0.2304  0.0314
   84POPC   C1B 1558   3.362   1.770   8.066  0.2622  0.0849 -0.2446
   84POPC   C2B 1559   3.173   1.707   7.691  0.5012  0.1086  0.0268
   84POPC   C3B 1560   3.166   1.733   7.280  0.1736 -0.2368  0.0517
   84POPC   C4B 1561   3.364   2.128   7.036  0.3123  0.1769  0.3246
   85POPC   NC3 1562   8.418   6.328   9.082  0.2638 -0.0490 -0.2000
   85POPC   PO4 1563   8.874   6.272   9.362  0.0093  0.2531  0.2301
   85POPC   GL1 1564   8.890   6.180   8.793  0.4370 -0.0508 -0.1252
   85POPC   GL2 1565   9.188   6.368   8.815 -0.0947  0.0113  0.1876
   85POPC   C1A 1566   8.865   6.057   8.364  0.2732 -0.0158  0.1021
   85POPC   D2A 1567   8.966   5.935   7.939  0.0369 -0.0810  0.0239
   85POPC   C3A 1568   9.028   5.679   7.570 -0.0350  0.1005 -0.1647
   85POPC   C4A 1569   8.954   5.327   7.283  0.0451  0.1017 -0.1054
   85POPC   C1B 1570   8.983   6.542   8.518 -0.1647  0.0686 -0.0604
   85POPC   C2B 1571   8.674   6.522   8.176  0.0150 -0.0896 -0.2305
   85POPC   C3B 1572   8.603   6.488   7.793  0.1646  0.0461 -0.4636
   85POPC   C4B 1573   8.962   6.231   7.586 -0.2045 -0.2918  0.3398
   86POPC   NC3 1574   8.582   7.951   9.251 -0.2093 -0.2175  0.2924
   86POPC   PO4 1575   8.894   7.633   9.207 -0.0355 -0.1241  0.0557
   86POPC   GL1 1576   8.781   7.595   8.872 -0.1063  0.2878 -0.2173
   86POPC   GL2 1577   8.692   7.826   8.672  0.1777  0.3950  0.0570
   86POPC   C1A 1578   8.853   7.346   8.416 -0.0272 -0.1702  0.0168
   86POPC   D2A 1579   9.031   7.624   8.041  0.0421 -0.3534  0.2310
   86POPC   C3A 1580   9.432   7.851   7.930  0.2357  0.0670 -0.1094
   86POPC   C4A 1581   9.871   7.852   7.961  0.1848 -0.0945  0.2196
   86POPC   C1B 1582   8.536   7.711   8.259  0.1817  0.2553 -0.2869
   86POPC   C2B 1583   8.369   7.649   7.862  0.2358  0.2894 -0.4009
   86POPC   C3B 1584   8.186   7.900   7.525 -0.1719  0.0718  0.3539
   86POPC   C4B 1585   8.102   7.998   7.122  0.3997  0.3276 -0.0627
   87POPC   NC3 1586   2.411   5.507   9.250 -0.1586 -0.1715  0.3404
   87POPC   PO4 1587   2.131   5.457   8.864 -0.1648 -0.0537  0.1257
   87POPC   GL1 1588   2.051   5.341   8.501 -0.1542 -0.1488  0.4358
   87POPC   GL2 1589   1.929   5.470   8.187 -0.0929  0.0115 -0.2174
   87POPC   C1A 1590   1.772   5.051   8.323  0.1171 -0.0151 -0.1910
   87POPC   D2A 1591   1.344   4.924   8.229 -0.3274 -0.0924 -0.0753
   87POPC   C3A 1592   1.112   4.959   7.864  0.1419  0.3607  0.2431
   87POPC   C4A 1593   0.656   5.019   7.649 -0.6983  0.0850  0.0818
   87POPC   C1B 1594   1.899   5.635   7.844 -0.2310 -0.0133  0.0582
   87POPC   C2B 1595   1.827   5.637   7.360 -0.0129  0.2265  0.1347
   87POPC   C3B 1596   2.190   5.748   7.002  0.1635  0.1477 -0.3739
   87POPC   C4B 1597   2.455   5.862   6.678  0.0876  0.2430 -0.1018
   88POPC   NC3 1598   6.044   2.454   9.056 -0.3710 -0.0992  0.1301
   88POPC   PO4 1599   5.943   2.751   9.167  0.1681  0.0672 -0.1022
   88POPC   GL1 1600   6.074   2.883   8.676 -0.3369 -0.1207  0.0946
   88POPC   GL2 1601   5.980   2.981   8.335  0.2852  0.0046 -0.0997
   88POPC   C1A 1602   6.276   2.584   8.381 -0.4356 -0.1684  0.0973
   88POPC   D2A 1603   6.079   2.410   8.105 -0.1498  0.1840  0.1102
   88POPC   C3A 1604   6.470   2.412   7.893  0.0319 -0.0747  0.1930
   88POPC   C4A 1605   6.819   2.408   8.145  0.2211  0.0405  0.1394
   88POPC   C1B 1606   5.601   3.134   8.185  0.0183  0.0640  0.0177
   88POPC   C2B 1607   5.287   3.020   7.771  0.1293  0.2700  0.0240
   88POPC   C3B 1608   5.221   3.149   7.304  0.0877  0.4496  0.1764
   88POPC   C4B 1609   5.497   3.376   7.026 -0.0435  0.0324  0.0493
   89POPC   NC3 1610   2.709   7.324   9.002 -0.1789 -0.0036 -0.0083
   89POPC   PO4 1611   3.163   7.286   8.997 -0.0209 -0.2129  0.0266
   89POPC   GL1 1612   3.009   7.216   8.463  0.0108  0.3412 -0.1754
   89POPC   GL2 1613   2.899   7.518   8.444 -0.1215  0.1944 -0.0958
   89POPC   C1A 1614   2.984   7.118   7.946  0.1454  0.1569 -0.1821
   89POPC   D2A 1615   2.965   6.789   7.629 -0.0115  0.2113  0.0789
   89POPC   C3A 1616   3.299   6.628   7.320  0.1561  0.0222  0.4833
   89POPC   C4A 1617   3.292   6.380   6.913 -0.0617  0.1240  0.2131
   89POPC   C1B 1618   3.146   7.552   8.123  0.3232  0.0567  0.0705
   89POPC   C2B 1619   3.252   7.761   7.675 -0.2509  0.2172  0.2843
   89POPC   C3B 1620   3.322   7.997   7.328  0.1076  0.4892  0.0475
   89POPC   C4B 1621   3.561   8.111   7.002  0.0148 -0.1395 -0.1058
   90POPC   NC3 1622   0.175   9.574   9.927  0.1685  0.0727  0.0784
   90POPC   PO4 1623  -0.009   9.193  10.035  0.3285 -0.0958  0.0866
   90POPC   GL1 1624  -0.278   9.269   9.686 -0.2117 -0.1744  0.2065
   90POPC   GL2 1625  -0.602   9.387   9.655  0.3794  0.2267 -0.0061
   90POPC   C1A 1626  -0.279   9.216   9.302  0.1822  0.0075  0.0336
   90POPC   D2A 1627   0.027   9.221   8.903  0.1195 -0.0460 -0.4109
   90POPC   C3A 1628   0.090   8.940   8.626 -0.4073 -0.2336 -0.2462
   90POPC   C4A 1629  -0.092   8.858   8.248 -0.2528 -0.1720 -0.0774
   90POPC   C1B 1630  -0.738   9.613   9.171 -0.1010  0.0832  0.1287
   90POPC   C2B 1631  -1.049   9.852   8.827 -0.1807  0.0727 -0.3131
   90POPC   C3B 1632  -1.138  10.052   8.368  0.2984  0.0682  0.0344
   90POPC   C4B 1633  -1.135  10.415   8.123  0.1192 -0.1568  0.0348
   91POPC   NC3 1634   4.945   0.161   9.570 -0.1490  0.1277 -0.0059
   91POPC   PO4 1635   4.673   0.251   9.156  0.1368  0.1032  0.3822
   91POPC   GL1 1636   4.787   0.339   8.780  0.1412  0.0989 -0.0102
   91POPC   GL2 1637   4.557   0.304   8.412  0.0845  0.3189 -0.1045
   91POPC   C1A 1638   4.977   0.705   8.517 -0.1917 -0.2323  0.0813
   91POPC   D2A 1639   4.696   0.785   8.195  0.1277  0.2391  0.1235
   91POPC   C3A 1640   4.854   0.631   7.792 -0.0501 -0.2124 -0.0759
   91POPC   C4A 1641   5.020   0.519   7.381 -0.2992  0.2927  0.1828
   91POPC   C1B 1642   4.957   0.247   8.215 -0.0796  0.0681 -0.3297
   91POPC   C2B 1643   5.172   0.219   7.815 -0.0336 -0.0929 -0.3346
   91POPC   C3B 1644   5.415   0.146   7.525  0.0621 -0.3089  0.0220
   91POPC   C4B 1645   5.288   0.214   7.091 -0.0155 -0.2336  0.0978
   92POPC   NC3 1646   7.705   0.999   9.935  0.0776 -0.3156 -0.0983
   92POPC   PO4 1647   7.504   0.797   9.639  0.2702  0.0891 -0.0135
   92POPC   GL1 1648   7.553   0.701   9.198  0.0924  0.2889  0.0394
   92POPC   GL2 1649   7.311   0.596   8.940 -0.5846  0.0878 -0.2460
   92POPC   C1A 1650   7.946   0.540   8.979 -0.3590 -0.0636  0.0454
   92POPC   D2A 1651   8.117   0.289   8.656  0.2719  0.2356  0.1796
   92POPC   C3A 1652   7.960  -0.016   8.375 -0.0953  0.0695  0.1883
   92POPC   C4A 1653   7.689  -0.316   8.487 -0.2061  0.0654 -0.1513
   92POPC   C1B 1654   7.649   0.912   8.643 -0.2055  0.0487 -0.3351
   92POPC   C2B 1655   7.864   0.739   8.283 -0.1066  0.2207 -0.0059
   92POPC   C3B 1656   8.081   0.388   8.143  0.2466  0.1220  0.3070
   92POPC   C4B 1657   8.121  -0.038   7.911  0.1891 -0.1806 -0.0417
   93POPC   NC3 1658  10.184   5.514   8.952 -0.1669 -0.1666  0.0043
   93POPC   PO4 1659  10.292   5.164   9.044  0.2893  0.2154 -0.4472
   93POPC   GL1 1660  10.329   4.906   8.669  0.2281 -0.2109  0.1381
   93POPC   GL2 1661  10.164   4.511   8.681 -0.1654 -0.0730  0.2928
   93POPC   C1A 1662  10.580   4.713   8.344 -0.1017 -0.2887  0.0637
   93POPC   D2A 1663  10.908   4.465   8.141 -0.4191 -0.0086 -0.2481
   93POPC   C3A 1664  10.916   4.413   7.724  0.2888 -0.1783  0.1719
   93POPC   C4A 1665  11.198   4.498   7.416  0.1896 -0.0339  0.0016
   93POPC   C1B 1666  10.007   4.282   8.397 -0.1715 -0.1574  0.0062
   93POPC   C2B 1667   9.799   3.940   8.425  0.1933  0.1501 -0.0881
   93POPC   C3B 1668   9.407   3.691   8.478 -0.2650 -0.0277 -0.1721
   93POPC   C4B 1669   9.200   3.423   8.154  0.1922 -0.0343  0.1928
   94POPC   NC3 1670   4.476   4.750   9.333  0.0379 -0.0919 -0.1007
   94POPC   PO4 1671   4.110   4.795   9.239 -0.0703  0.0585  0.2034
   94POPC   GL1 1672   4.120   4.830   8.829  0.2055 -0.4912  0.0419
   94POPC   GL2 1673   3.889   5.107   8.818 -0.0225 -0.2519 -0.0664
   94POPC   C1A 1674   4.054   4.755   8.392 -0.5056  0.0129 -0.2410
   94POPC   D2A 1675   4.293   4.823   8.102  0.1384  0.1174  0.0819
   94POPC   C3A 1676   4.227   4.518   7.810 -0.2733  0.1851 -0.2156
   94POPC   C4A 1677   4.414   3.980   7.863  0.1557  0.2189 -0.3350
   94POPC   C1B 1678   3.659   5.038   8.442 -0.0300 -0.1581 -0.0095
   94POPC   C2B 1679   3.453   5.154   8.047  0.1277 -0.0895  0.0515
   94POPC   C3B 1680   3.237   5.268   7.619 -0.1816  0.2431  0.0945
   94POPC   C4B 1681   3.083   5.620   7.287 -0.0147 -0.0241 -0.1337
   95POPC   NC3 1682   5.490   4.699   9.136  0.0558  0.2772 -0.1940
   95POPC   PO4 1683   5.945   4.838   9.109  0.0244 -0.0499 -0.0273
   95POPC   GL1 1684   6.154   5.140   8.836 -0.0669  0.6124 -0.0662
   95POPC   GL2 1685   6.419   5.124   8.628 -0.2361  0.1247 -0.0118
   95POPC   C1A 1686   6.041   5.450   8.618  0.3886 -0.2351 -0.0148
   95POPC   D2A 1687   6.038   5.523   8.153 -0.0110 -0.0241  0.1811
   95POPC   C3A 1688   6.360   5.434   7.861  0.0607 -0.1487  0.0019
   95POPC   C4A 1689   6.734   5.474   7.475 -0.1402 -0.0463  0.2967
   95POPC   C1B 1690   6.413   4.976   8.281  0.2313  0.2979 -0.0260
   95POPC   C2B 1691   6.535   4.778   7.858  0.3947 -0.1792 -0.3764
   95POPC   C3B 1692   6.447   5.029   7.527 -0.0945 -0.0935  0.1494
   95POPC   C4B 1693   6.140   5.282   7.380  0.0087 -0.4854 -0.0361
   96POPC   NC3 1694   2.257   8.275   9.415 -0.1140 -0.2455  0.0860
   96POPC   PO4 1695   2.501   8.396   9.020 -0.0951  0.3563 -0.2096
   96POPC   GL1 1696   2.635   8.354   8.645  0.4485  0.1024  0.2971
   96POPC   GL2 1697   2.800   8.098   8.552  0.1451  0.0744  0.3211
   96POPC   C1A 1698   2.411   8.272   8.222  0.2228 -0.2598  0.2199
   96POPC   D2A 1699   2.055   8.150   7.816  0.5461 -0.3064 -0.1483
   96POPC   C3A 1700   1.995   8.388   7.538 -0.0126 -0.0626  0.1176
   96POPC   C4A 1701   1.678   8.644   7.408 -0.0016 -0.0978 -0.0677
   96POPC   C1B 1702   2.791   7.939   8.110  0.2197  0.1893 -0.1523
   96POPC   C2B 1703   2.736   7.647   7.833  0.4839  0.4399 -0.1613
   96POPC   C3B 1704   2.939   7.414   7.401  0.3816  0.1322 -0.2714
   96POPC   C4B 1705   2.961   7.269   6.975  0.1162 -0.2509  0.0664
   97POPC   NC3 1706   1.806   6.196   8.924 -0.1714 -0.1332 -0.1348
   97POPC   PO4 1707   1.540   6.628   8.800 -0.0057  0.2772  0.1932
   97POPC   GL1 1708   1.678   6.433   8.381 -0.1685 -0.2768 -0.0581
   97POPC   GL2 1709   1.909   6.133   8.399 -0.1275 -0.1229  0.1248
   97POPC   C1A 1710   1.301   6.513   8.127  0.0911  0.0045 -0.1879
   97POPC   D2A 1711   1.077   6.281   7.804 -0.0571 -0.0104 -0.1136
   97POPC   C3A 1712   0.689   6.327   7.706 -0.2353  0.1762 -0.1326
   97POPC   C4A 1713   0.362   6.188   7.487  0.1165  0.0256  0.1993
   97POPC   C1B 1714   2.175   6.006   8.111 -0.1360 -0.0549 -0.3811
   97POPC   C2B 1715   2.396   5.864   7.771 -0.0418 -0.0674 -0.1634
   97POPC   C3B 1716   2.607   5.881   7.332  0.1493 -0.0553  0.2260
   97POPC   C4B 1717   2.877   5.926   6.977 -0.1182  0.1730  0.0049
   98POPC   NC3 1718   9.287   7.838   9.553  0.1504  0.4006 -0.0367
   98POPC   PO4 1719   9.048   8.185   9.525  0.1447  0.0438 -0.0137
   98POPC   GL1 1720   9.261   8.410   9.138 -0.1438  0.1860 -0.1160
   98POPC   GL2 1721   9.284   8.085   9.062  0.0511 -0.1394 -0.3478
   98POPC   C1A 1722   9.611   8.615   8.975  0.1478  0.3230 -0.1731
   98POPC   D2A 1723   9.927   8.514   8.696  0.2030  0.0276  0.0236
   98POPC   C3A 1724  10.029   8.351   8.188  0.0583 -0.0291 -0.2909
   98POPC   C4A 1725  10.123   8.574   7.815  0.1844 -0.2184 -0.2399
   98POPC   C1B 1726   8.994   8.232   8.776  0.1268 -0.0730  0.1633
   98POPC   C2B 1727   9.067   8.360   8.339  0.2183  0.0317  0.0669
   98POPC   C3B 1728   8.970   8.114   7.912  0.1278 -0.4787 -0.0790
   98POPC   C4B 1729   8.749   8.022   7.549 -0.1377  0.3036  0.0002
   99POPC   NC3 1730   5.584   5.830   9.530  0.1039  0.0114  0.0657
   99POPC   PO4 1731   5.374   6.026   9.288 -0.1597  0.2257 -0.2365
   99POPC   GL1 1732   5.569   6.246   8.956  0.1370 -0.1330 -0.2530
   99POPC   GL2 1733   5.784   6.547   8.934  0.1531 -0.1113  0.1263
   99POPC   C1A 1734   5.675   6.316   8.546  0.1011 -0.0172 -0.1203
   99POPC   D2A 1735   5.743   6.344   8.125 -0.0942 -0.2400 -0.3364
   99POPC   C3A 1736   5.964   5.976   7.855  0.1520 -0.2157 -0.1950
   99POPC   C4A 1737   5.845   5.672   7.607 -0.0678 -0.2630  0.0925
   99POPC   C1B 1738   5.930   6.726   8.646 -0.0909 -0.1820  0.0878
   99POPC   C2B 1739   6.182   6.592   8.302 -0.4501  0.5956  0.2181
   99POPC   C3B 1740   6.256   6.462   7.788 -0.0507 -0.3352  0.1374
   99POPC   C4B 1741   6.457   6.462   7.484 -0.1465  0.3354 -0.2549
  100POPC   NC3 1742   6.960   9.855   9.118 -0.1504 -0.1371  0.1044
  100POPC   PO4 1743   6.878   9.487   9.272  0.0234 -0.1049 -0.1146
  100POPC   GL1 1744   6.897   9.455   8.847 -0.3610 -0.0133  0.0269
  100POPC   GL2 1745   7.012   9.253   8.623 -0.1796  0.2472 -0.1125
  100POPC   C1A 1746   6.794   9.687   8.588 -0.1331 -0.1072 -0.0371
  100POPC   D2A 1747   6.599  10.070   8.516 -0.0418 -0.2633  0.2389
  100POPC   C3A 1748   6.344  10.425   8.588  0.0908 -0.3327 -0.0373
  100POPC   C4A 1749   6.164  10.699   8.784  0.4127  0.2047  0.1119
  100POPC   C1B 1750   6.928   9.270   8.205  0.3698 -0.0533 -0.1251
  100POPC   C2B 1751   6.973   9.640   7.991 -0.2374  0.1533 -0.0685
  100POPC   C3B 1752   7.259   9.859   7.667  0.1130 -0.3568 -0.0606
  100POPC   C4B 1753   7.566   9.954   7.549 -0.2272 -0.1082 -0.1853
  101POPC   NC3 1754   7.080   0.717   9.398  0.1738  0.1369  0.0994
  101POPC   PO4 1755   6.642   0.849   9.457 -0.0947  0.2883 -0.1921
  101POPC   GL1 1756   6.667   0.995   9.064 -0.0671 -0.1653 -0.4714
  101POPC   GL2 1757   6.989   1.062   9.021 -0.1700 -0.0370  0.1964
  101POPC   C1A 1758   6.436   0.891   8.735  0.2327 -0.0821  0.2776
  101POPC   D2A 1759   6.532   0.727   8.376  0.0379 -0.1468  0.3583
  101POPC   C3A 1760   6.291   0.688   8.142 -0.1293  0.0050 -0.0583
  101POPC   C4A 1761   6.171   0.917   7.667 -0.1107  0.0441  0.0853
  101POPC   C1B 1762   7.102   0.880   8.645  0.0211 -0.2617  0.1041
  101POPC   C2B 1763   7.032   0.806   8.140  0.3227 -0.0183  0.3441
  101POPC   C3B 1764   6.710   0.930   7.803 -0.0484 -0.1220  0.3145
  101POPC   C4B 1765   6.493   0.693   7.325 -0.0264 -0.0515  0.1104
  102POPC   NC3 1766   5.425   7.909   9.626 -0.1633  0.1817  0.0008
  102POPC   PO4 1767   5.310   7.549   9.304 -0.0201  0.3936 -0.1228
  102POPC   GL1 1768   5.467   7.553   8.962 -0.1762 -0.3361 -0.1999
  102POPC   GL2 1769   5.743   7.363   8.946  0.2052  0.1676  0.0936
  102POPC   C1A 1770   5.317   7.597   8.509 -0.0080 -0.2235  0.2797
  102POPC   D2A 1771   5.288   7.607   8.086  0.1683  0.2422  0.2363
  102POPC   C3A 1772   5.083   7.913   7.742  0.0775 -0.1451 -0.1746
  102POPC   C4A 1773   4.954   7.961   7.330 -0.3261  0.1759  0.0101
  102POPC   C1B 1774   5.808   7.434   8.545 -0.0735  0.1580 -0.0727
  102POPC   C2B 1775   5.728   7.338   8.175  0.1417 -0.1406 -0.1595
  102POPC   C3B 1776   5.947   7.125   7.849 -0.0446 -0.0487 -0.2134
  102POPC   C4B 1777   6.284   6.959   7.469  0.0569  0.1528  0.0289
  103POPC   NC3 1778   8.240   7.745   9.674 -0.0836  0.1476  0.0274
  103POPC   PO4 1779   8.057   7.920   9.330 -0.0505 -0.1426  0.3067
  103POPC   GL1 1780   8.153   7.960   8.964  0.0379 -0.2479 -0.0100
  103POPC   GL2 1781   8.365   8.194   8.843  0.1272 -0.0072 -0.0389
  103POPC   C1A 1782   8.052   7.997   8.513 -0.1933  0.1958 -0.1248
  103POPC   D2A 1783   8.056   8.022   8.028  0.0585 -0.1848  0.0559
  103POPC   C3A 1784   7.698   8.045   7.676  0.3076 -0.2475 -0.5270
  103POPC   C4A 1785   7.441   8.237   7.382 -0.1375  0.1982 -0.0517
  103POPC   C1B 1786   8.505   8.168   8.262 -0.1592 -0.1562 -0.1020
  103POPC   C2B 1787   8.408   8.249   7.789 -0.0113 -0.2913  0.0185
  103POPC   C3B 1788   8.402   8.391   7.366 -0.1452  0.0968  0.3227
  103POPC   C4B 1789   8.763   8.424   6.926 -0.1736  0.0186  0.0371
  104POPC   NC3 1790   4.379   0.602   8.877  0.1145 -0.0511  0.0011
  104POPC   PO4 1791   4.014   0.356   8.747  0.2604  0.0576 -0.0465
  104POPC   GL1 1792   4.157  -0.083   8.388  0.2030 -0.3223  0.1177
  104POPC   GL2 1793   4.105   0.182   8.177  0.2782  0.2260 -0.1929
  104POPC   C1A 1794   4.071  -0.577   8.496 -0.0750  0.0558  0.2070
  104POPC   D2A 1795   3.830  -0.811   8.077  0.2972 -0.4793 -0.1823
  104POPC   C3A 1796   3.955  -0.669   7.655 -0.2296  0.0124  0.0833
  104POPC   C4A 1797   4.006  -0.744   7.196  0.3050  0.1213  0.1984
  104POPC   C1B 1798   4.263   0.340   7.906  0.0499  0.2241 -0.1746
  104POPC   C2B 1799   4.051   0.667   7.714  0.2118  0.0104  0.1064
  104POPC   C3B 1800   3.809   1.064   7.639  0.0847 -0.0484 -0.3987
  104POPC   C4B 1801   3.399   1.219   7.749 -0.0890 -0.2405  0.0138
  105POPC   NC3 1802   1.726   8.978   9.132  0.0404  0.0769 -0.1046
  105POPC   PO4 1803   2.184   8.805   9.230  0.3195  0.1896  0.0807
  105POPC   GL1 1804   2.111   8.803   8.758 -0.2792  0.2486 -0.0252
  105POPC   GL2 1805   1.760   8.840   8.669  0.2043 -0.0892  0.1621
  105POPC   C1A 1806   2.069   8.534   8.496  0.0063 -0.2218 -0.0101
  105POPC   D2A 1807   1.906   8.098   8.349  0.2258 -0.0850  0.0615
  105POPC   C3A 1808   1.583   7.944   8.105 -0.0292  0.1885  0.2824
  105POPC   C4A 1809   1.563   8.053   7.672 -0.0590 -0.1713  0.1151
  105POPC   C1B 1810   1.899   9.055   8.405 -0.0319  0.0474  0.0815
  105POPC   C2B 1811   1.812   9.278   8.005 -0.2276 -0.0022 -0.1183
  105POPC   C3B 1812   1.760   9.247   7.587 -0.0988  0.1447 -0.0547
  105POPC   C4B 1813   1.469   9.115   7.355  0.1960  0.0739  0.0171
  106POPC   NC3 1814   7.067   5.501   9.651 -0.2041 -0.4025  0.1031
  106POPC   PO4 1815   7.312   5.893   9.557 -0.0248 -0.0067  0.0744
  106POPC   GL1 1816   7.324   6.007   9.122 -0.0903 -0.4624 -0.0369
  106POPC   GL2 1817   7.474   5.768   8.956 -0.2873  0.1790 -0.1341
  106POPC   C1A 1818   7.271   6.409   8.812  0.0136 -0.0952 -0.2466
  106POPC   D2A 1819   7.013   6.805   8.845 -0.0346 -0.1245 -0.3179
  106POPC   C3A 1820   6.777   7.168   8.725  0.4653  0.2216  0.1775
  106POPC   C4A 1821   6.675   7.331   8.296 -0.2220 -0.1151 -0.1539
  106POPC   C1B 1822   7.213   5.424   8.635  0.0657  0.0537 -0.0542
  106POPC   C2B 1823   7.245   5.239   8.217  0.0577  0.0237 -0.2244
  106POPC   C3B 1824   7.477   5.168   7.813 -0.1086  0.3367  0.1712
  106POPC   C4B 1825   7.799   5.080   7.506  0.2376 -0.1593 -0.0410
  107POPC   NC3 1826   4.679   2.932   8.829  0.0249 -0.1695  0.0211
  107POPC   PO4 1827   4.627   3.268   9.071 -0.3908  0.0893  0.2039
  107POPC   GL1 1828   4.556   3.366   8.679  0.1817 -0.4128 -0.4154
  107POPC   GL2 1829   4.795   3.236   8.442  0.0398 -0.1737 -0.0194
  107POPC   C1A 1830   4.603   3.645   8.278  0.3031 -0.2251  0.0949
  107POPC   D2A 1831   4.897   3.821   8.028  0.1460 -0.2431  0.4065
  107POPC   C3A 1832   4.913   3.533   7.697 -0.0755 -0.0119  0.1700
  107POPC   C4A 1833   4.695   3.339   7.335 -0.2245  0.1124  0.1936
  107POPC   C1B 1834   5.154   3.371   8.148 -0.1000  0.1990  0.2389
  107POPC   C2B 1835   5.477   3.486   7.863 -0.0559 -0.0744 -0.1031
  107POPC   C3B 1836   5.744   3.202   7.583 -0.0141  0.0737 -0.2915
  107POPC   C4B 1837   5.770   2.908   7.188 -0.1053 -0.0932  0.0092
  108POPC   NC3 1838   8.192   1.879  10.037 -0.1340  0.1006  0.3003
  108POPC   PO4 1839   7.771   1.831   9.825 -0.2895 -0.2767 -0.2380
  108POPC   GL1 1840   7.793   1.518   9.436  0.2536 -0.0455  0.1183
  108POPC   GL2 1841   7.838   1.117   9.445 -0.2389 -0.1826  0.1719
  108POPC   C1A 1842   7.615   1.271   9.032  0.1038  0.3223  0.0910
  108POPC   D2A 1843   7.810   1.374   8.620 -0.1464 -0.2368  0.0255
  108POPC   C3A 1844   7.451   1.289   8.327  0.0808 -0.2019 -0.2913
  108POPC   C4A 1845   6.993   1.344   8.058  0.0288  0.1935  0.1965
  108POPC   C1B 1846   8.062   1.018   9.066 -0.1981  0.0421 -0.0387
  108POPC   C2B 1847   8.188   0.791   8.624 -0.2300  0.3213 -0.1259
  108POPC   C3B 1848   8.461   0.568   8.408  0.1322 -0.0770 -0.3159
  108POPC   C4B 1849   8.891   0.427   8.536  0.0750 -0.0053 -0.1070
  109POPC   NC3 1850   3.032   6.630   9.371  0.0186  0.1147  0.0217
  109POPC   PO4 1851   3.434   6.413   8.959  0.1087  0.2800 -0.1865
  109POPC   GL1 1852   3.789   6.303   8.739 -0.7439  0.2372  0.2008
  109POPC   GL2 1853   3.790   5.982   8.762 -0.1732 -0.1100  0.2702
  109POPC   C1A 1854   4.087   6.480   8.419 -0.0129 -0.0325  0.4271
  109POPC   D2A 1855   4.131   6.859   8.368  0.1891  0.0430  0.1520
  109POPC   C3A 1856   4.197   7.019   7.906 -0.1381 -0.1006 -0.0634
  109POPC   C4A 1857   3.893   7.025   7.635  0.0166 -0.1775 -0.0473
  109POPC   C1B 1858   3.959   6.016   8.348  0.3596  0.0019 -0.2016
  109POPC   C2B 1859   3.944   5.983   8.018  0.2116  0.1256  0.2521
  109POPC   C3B 1860   3.950   6.267   7.582  0.0589 -0.1556  0.1846
  109POPC   C4B 1861   3.803   6.606   7.280  0.0930  0.2979  0.2051
  110POPC   NC3 1862   0.324   5.919   8.812 -0.3948 -0.0887 -0.1523
  110POPC   PO4 1863  -0.159   5.910   8.601 -0.0611  0.0507 -0.2181
  110POPC   GL1 1864  -0.297   5.938   8.173 -0.3243  0.0337  0.1310
  110POPC   GL2 1865  -0.568   5.750   8.132  0.2697 -0.0442  0.2997
  110POPC   C1A 1866  -0.205   5.992   7.740  0.1449 -0.1873  0.3956
  110POPC   D2A 1867   0.273   5.690   7.575 -0.1949 -0.1881 -0.0274
  110POPC   C3A 1868   0.321   5.305   7.336 -0.1305 -0.0451  0.1194
  110POPC   C4A 1869   0.117   5.134   7.072 -0.0271 -0.0930 -0.0522
  110POPC   C1B 1870  -0.709   5.565   7.809 -0.3756  0.0182 -0.0132
  110POPC   C2B 1871  -0.647   5.316   7.432  0.1885  0.1361 -0.2819
  110POPC   C3B 1872  -0.806   5.297   7.047 -0.2085 -0.4307  0.0604
  110POPC   C4B 1873  -1.029   5.313   6.759 -0.0857 -0.2154 -0.0545
  111POPC   NC3 1874   1.139   7.019   8.941 -0.1066  0.4885  0.0374
  111POPC   PO4 1875   1.128   7.398   8.947 -0.0817 -0.1181 -0.2549
  111POPC   GL1 1876   1.138   7.355   8.545  0.2412  0.0903  0.4342
  111POPC   GL2 1877   0.948   7.435   8.344 -0.0275  0.0285 -0.1288
  111POPC   C1A 1878   1.552   7.439   8.296  0.2637 -0.2299 -0.0805
  111POPC   D2A 1879   1.886   7.568   8.355  0.1821 -0.5092  0.2372
  111POPC   C3A 1880   1.906   7.490   7.921 -0.0096  0.1475  0.1002
  111POPC   C4A 1881   1.727   7.581   7.475  0.0907  0.0839 -0.1362
  111POPC   C1B 1882   1.120   7.519   7.876  0.0178 -0.0593  0.1821
  111POPC   C2B 1883   1.243   7.764   7.420 -0.2072 -0.0491 -0.2794
  111POPC   C3B 1884   1.264   7.878   6.985  0.0512 -0.0556 -0.1814
  111POPC   C4B 1885   1.568   7.962   6.684  0.1671  0.0620 -0.1272
  112POPC   NC3 1886   3.561   2.542   9.185  0.2814 -0.5832  0.1586
  112POPC   PO4 1887   4.036   2.607   9.184  0.0645 -0.2241  0.0979
  112POPC   GL1 1888   4.305   2.362   8.820  0.4443 -0.0214 -0.0791
  112POPC   GL2 1889   4.453   2.615   8.587 -0.0935  0.0122  0.0541
  112POPC   C1A 1890   4.285   2.233   8.282 -0.0645  0.1484 -0.3129
  112POPC   D2A 1891   4.360   2.520   7.861 -0.1847  0.4731  0.0658
  112POPC   C3A 1892   3.890   2.679   7.632 -0.0088  0.3112 -0.1700
  112POPC   C4A 1893   3.842   2.823   7.224 -0.1576  0.0696 -0.0248
  112POPC   C1B 1894   4.596   2.819   8.227 -0.0008  0.2119  0.2760
  112POPC   C2B 1895   4.688   3.200   7.964 -0.0283  0.0128  0.1185
  112POPC   C3B 1896   4.418   3.477   7.729  0.0187  0.0543  0.1621
  112POPC   C4B 1897   4.301   3.656   7.365  0.3052 -0.0080 -0.2521
  113POPC   NC3 1898   0.870   3.833   9.266 -0.2166  0.0604  0.2332
  113POPC   PO4 1899   0.592   4.187   9.115  0.1180 -0.2429  0.3296
  113POPC   GL1 1900   0.603   4.406   8.713 -0.0041  0.0264  0.0592
  113POPC   GL2 1901   0.835   4.675   8.591 -0.1203  0.0987 -0.3055
  113POPC   C1A 1902   0.340   4.187   8.316 -0.0040 -0.0851 -0.3503
  113POPC   D2A 1903   0.510   4.030   7.982  0.0572 -0.0989  0.3817
  113POPC   C3A 1904   0.591   3.990   7.554 -0.0080  0.0931  0.0097
  113POPC   C4A 1905   0.913   3.651   7.478 -0.2205  0.1603 -0.0107
  113POPC   C1B 1906   1.127   4.542   8.386 -0.1121  0.0906  0.2758
  113POPC   C2B 1907   1.273   4.392   7.909  0.4210 -0.1049  0.0710
  113POPC   C3B 1908   1.443   4.570   7.648 -0.0172 -0.3542 -0.0234
  113POPC   C4B 1909   1.440   4.549   7.223  0.1528  0.0668  0.2567
  114POPC   NC3 1910   0.413   1.281  10.030 -0.0788  0.0016  0.2250
  114POPC   PO4 1911   0.732   1.547  10.095 -0.0731  0.2618  0.1345
  114POPC   GL1 1912   0.700   1.392   9.592 -0.3600  0.0457  0.2066
  114POPC   GL2 1913   0.281   1.191   9.582 -0.1607  0.0050  0.1816
  114POPC   C1A 1914   0.466   1.420   9.238  0.2435 -0.1007 -0.0356
  114POPC   D2A 1915   0.272   1.371   8.849  0.1115 -0.0607 -0.1329
  114POPC   C3A 1916  -0.005   1.670   8.638  0.2689  0.1442  0.2299
  114POPC   C4A 1917  -0.337   1.954   8.725  0.1863 -0.2762 -0.1287
  114POPC   C1B 1918   0.313   0.943   9.260  0.3193 -0.2889  0.0640
  114POPC   C2B 1919   0.503   0.693   9.014 -0.1886  0.2809 -0.0823
  114POPC   C3B 1920   0.543   0.465   8.681 -0.0524 -0.4245 -0.0483
  114POPC   C4B 1921   0.339   0.196   8.567 -0.0940 -0.0380 -0.1100
  115POPC   NC3 1922   3.522   0.519   8.822 -0.1069 -0.3468 -0.0442
  115POPC   PO4 1923   3.826   0.807   9.021  0.0995 -0.1749  0.1246
  115POPC   GL1 1924   4.104   0.932   8.626 -0.0624 -0.4202  0.1506
  115POPC   GL2 1925   4.127   1.310   8.454 -0.3788  0.1598  0.5235
  115POPC   C1A 1926   4.224   0.795   8.182  0.1853  0.3949  0.1540
  115POPC   D2A 1927   4.383   0.997   7.780  0.0636  0.1891 -0.1143
  115POPC   C3A 1928   4.517   0.634   7.451 -0.2390  0.2199 -0.2953
  115POPC   C4A 1929   4.390   0.213   7.420 -0.1385 -0.0954  0.1679
  115POPC   C1B 1930   4.092   1.350   8.006  0.2402  0.1435 -0.2915
  115POPC   C2B 1931   4.297   1.587   7.591 -0.0234 -0.1104 -0.2206
  115POPC   C3B 1932   4.502   1.515   7.168  0.1343 -0.2221 -0.2862
  115POPC   C4B 1933   4.577   1.296   6.901 -0.2097 -0.0038 -0.2564
  116POPC   NC3 1934   2.230   0.454   9.163  0.0816 -0.1094  0.0475
  116POPC   PO4 1935   2.600   0.122   9.143 -0.0619 -0.0412 -0.0698
  116POPC   GL1 1936   2.467   0.297   8.757  0.1489 -0.0344 -0.0075
  116POPC   GL2 1937   2.650   0.367   8.512  0.0982  0.1124  0.1902
  116POPC   C1A 1938   2.160   0.465   8.457 -0.0586 -0.2783  0.0097
  116POPC   D2A 1939   1.891   0.466   8.245 -0.0974  0.0042 -0.0765
  116POPC   C3A 1940   1.932   0.472   7.892  0.0676 -0.2854  0.2303
  116POPC   C4A 1941   2.260   0.334   7.687 -0.3957 -0.3654  0.1837
  116POPC   C1B 1942   2.597   0.300   8.067 -0.1511  0.0443  0.0742
  116POPC   C2B 1943   2.769   0.107   7.721  0.2173 -0.4164 -0.0127
  116POPC   C3B 1944   2.888  -0.206   7.619 -0.1040 -0.0237  0.1302
  116POPC   C4B 1945   2.870  -0.531   7.280  0.1194 -0.0523  0.5237
  117POPC   NC3 1946   0.816   6.212   9.053 -0.1908 -0.2290 -0.1650
  117POPC   PO4 1947   0.504   6.379   8.871  0.0105  0.2018  0.0974
  117POPC   GL1 1948   0.354   6.658   8.460  0.0792 -0.0220  0.0800
  117POPC   GL2 1949  -0.004   6.545   8.261  0.1462  0.0032  0.0758
  117POPC   C1A 1950   0.429   6.673   7.953  0.1375  0.2459 -0.3463
  117POPC   D2A 1951   0.567   6.816   7.594  0.0794 -0.3950  0.1588
  117POPC   C3A 1952   0.652   6.659   7.247  0.0080 -0.2027 -0.2009
  117POPC   C4A 1953   0.979   6.604   6.937  0.1446 -0.2898  0.0357
  117POPC   C1B 1954   0.152   6.284   7.925  0.2185  0.1525 -0.4458
  117POPC   C2B 1955   0.135   6.644   7.478  0.2177  0.0301  0.0046
  117POPC   C3B 1956   0.151   6.795   7.121 -0.1464  0.1656 -0.0309
  117POPC   C4B 1957  -0.095   6.666   6.750  0.1366  0.0168  0.1007
  118POPC   NC3 1958   8.840   9.173   9.661  0.0123  0.0380  0.0308
  118POPC   PO4 1959   9.171   9.090   9.806  0.1197 -0.1668 -0.0869
  118POPC   GL1 1960   9.208   9.002   9.304 -0.0081 -0.4720  0.0604
  118POPC   GL2 1961   8.904   8.962   9.139 -0.0097  0.1576 -0.3156
  118POPC   C1A 1962   9.406   9.170   8.983  0.1454 -0.3700 -0.0451
  118POPC   D2A 1963   9.742   9.129   8.780  0.0486  0.1661  0.1134
  118POPC   C3A 1964   9.787   9.308   8.425 -0.0613  0.2130 -0.1547
  118POPC   C4A 1965   9.451   9.267   8.029 -0.0411 -0.0618 -0.0505
  118POPC   C1B 1966   8.996   8.727   8.784  0.2047 -0.0915 -0.1218
  118POPC   C2B 1967   9.330   8.807   8.597 -0.1379  0.1764  0.1132
  118POPC   C3B 1968   9.576   8.758   8.126 -0.0055 -0.0073 -0.1561
  118POPC   C4B 1969   9.622   8.805   7.690  0.1556 -0.1229  0.3219
  119POPC   NC3 1970   1.047   3.257   9.647  0.1156  0.1244  0.3341
  119POPC   PO4 1971   1.196   3.495   9.162 -0.1483  0.0293  0.2525
  119POPC   GL1 1972   1.251   3.660   8.726 -0.0349 -0.0876 -0.2118
  119POPC   GL2 1973   1.050   3.496   8.606 -0.1042 -0.1157 -0.1140
  119POPC   C1A 1974   1.628   3.623   8.460 -0.2454  0.0127  0.1653
  119POPC   D2A 1975   1.917   3.559   8.183  0.1428  0.0930 -0.1963
  119POPC   C3A 1976   1.743   3.580   7.737  0.3623  0.0635  0.0424
  119POPC   C4A 1977   1.641   3.764   7.286 -0.1078 -0.0632  0.1245
  119POPC   C1B 1978   1.240   3.451   8.251 -0.0434 -0.0596 -0.0982
  119POPC   C2B 1979   1.310   3.681   7.983 -0.3175  0.0317  0.0412
  119POPC   C3B 1980   1.073   3.947   7.798  0.2704  0.1458 -0.0874
  119POPC   C4B 1981   1.278   4.092   7.462  0.3465 -0.0086  0.2959
  120POPC   NC3 1982   5.881   4.927   9.706  0.2223 -0.1627 -0.0656
  120POPC   PO4 1983   5.695   5.272   9.354  0.0228  0.0898  0.0622
  120POPC   GL1 1984   5.615   5.216   8.930  0.0813  0.0671 -0.0505
  120POPC   GL2 1985   5.696   4.924   8.711  0.2276 -0.1681  0.0463
  120POPC   C1A 1986   5.527   5.397   8.527  0.0792 -0.2148 -0.2087
  120POPC   D2A 1987   5.214   5.480   8.234  0.1905 -0.1180 -0.1275
  120POPC   C3A 1988   5.341   5.531   7.754  0.0299 -0.0193  0.0314
  120POPC   C4A 1989   4.988   5.656   7.448  0.1012 -0.2628  0.0503
  120POPC   C1B 1990   5.906   5.049   8.366  0.1776 -0.2249  0.4407
  120POPC   C2B 1991   6.025   4.964   7.935 -0.1069 -0.0455 -0.1193
  120POPC   C3B 1992   6.047   4.797   7.471 -0.2210  0.1036  0.0427
  120POPC   C4B 1993   5.872   4.875   7.016  0.2078  0.3659 -0.2705
  121POPC   NC3 1994   4.311   0.956   9.307 -0.2393 -0.1550  0.0326
  121POPC   PO4 1995   4.409   1.082   8.984 -0.0830 -0.1364  0.1865
  121POPC   GL1 1996   4.638   1.030   8.653 -0.0672 -0.1423  0.4143
  121POPC   GL2 1997   4.966   1.129   8.739  0.0525 -0.1710  0.2835
  121POPC   C1A 1998   4.559   1.229   8.187  0.0327 -0.0614  0.2720
  121POPC   D2A 1999   4.949   1.162   7.878 -0.0430 -0.0815  0.3164
  121POPC   C3A 2000   5.207   1.372   7.659 -0.3686  0.3172  0.2440
  121POPC   C4A 2001   5.261   1.498   7.225 -0.0975  0.0064  0.1444
  121POPC   C1B 2002   5.073   1.218   8.357 -0.3705 -0.1073 -0.0840
  121POPC   C2B 2003   5.463   1.132   8.036  0.0871  0.3111 -0.2612
  121POPC   C3B 2004   5.729   1.246   7.633  0.1390 -0.0995  0.1392
  121POPC   C4B 2005   6.144   1.322   7.289 -0.2027  0.1773 -0.2630
  122POPC   NC3 2006   8.780   5.491   9.100 -0.2246  0.0967 -0.1004
  122POPC   PO4 2007   8.432   5.743   9.119  0.0236  0.0767  0.0151
  122POPC   GL1 2008   8.422   5.949   8.796 -0.0545  0.2118 -0.0522
  122POPC   GL2 2009   8.094   6.046   8.845 -0.5245 -0.2951 -0.0691
  122POPC   C1A 2010   8.313   5.948   8.382 -0.2385  0.0916 -0.0876
  122POPC   D2A 2011   8.450   6.058   7.987  0.1445 -0.2188  0.0690
  122POPC   C3A 2012   8.499   5.881   7.586 -0.0906 -0.0778  0.2730
  122POPC   C4A 2013   8.721   5.820   7.127 -0.0005 -0.1114 -0.2310
  122POPC   C1B 2014   7.889   6.198   8.554 -0.0296  0.1830 -0.0525
  122POPC   C2B 2015   7.713   6.072   8.114 -0.2670 -0.3025  0.1416
  122POPC   C3B 2016   7.628   6.145   7.678 -0.0842 -0.1493 -0.3196
  122POPC   C4B 2017   7.543   6.223   7.280  0.2369  0.2425 -0.0530
  123POPC   NC3 2018   8.357   7.532   9.137 -0.0053 -0.3005  0.0834
  123POPC   PO4 2019   8.595   7.163   9.017  0.0105 -0.0447  0.2318
  123POPC   GL1 2020   8.432   7.179   8.700 -0.0591  0.1288  0.2953
  123POPC   GL2 2021   8.327   7.458   8.662  0.3246  0.1650 -0.1025
  123POPC   C1A 2022   8.559   6.963   8.393  0.0509 -0.0230  0.1564
  123POPC   D2A 2023   8.486   6.951   7.996 -0.1043  0.2562  0.0289
  123POPC   C3A 2024   8.108   6.990   7.779  0.0425 -0.4668  0.1489
  123POPC   C4A 2025   7.945   7.433   7.484 -0.3292 -0.1302 -0.2647
  123POPC   C1B 2026   7.907   7.431   8.726  0.3583  0.2122  0.0102
  123POPC   C2B 2027   7.659   7.238   8.462 -0.0213 -0.0802 -0.1755
  123POPC   C3B 2028   7.660   7.127   8.012 -0.1452 -0.2721  0.2534
  123POPC   C4B 2029   7.589   7.107   7.497  0.2198 -0.1269  0.2516
  124POPC   NC3 2030   7.357   3.449   9.605  0.1850 -0.0513 -0.1326
  124POPC   PO4 2031   7.003   3.646   9.401  0.1335  0.2412  0.0824
  124POPC   GL1 2032   6.931   3.541   8.999 -0.0273 -0.0412 -0.0093
  124POPC   GL2 2033   6.589   3.444   8.834  0.0534  0.3101 -0.1635
  124POPC   C1A 2034   7.256   3.329   8.855 -0.3721 -0.0747 -0.0466
  124POPC   D2A 2035   7.583   3.389   9.190  0.0450 -0.2272 -0.1841
  124POPC   C3A 2036   7.942   3.105   9.132  0.0064 -0.2358 -0.0687
  124POPC   C4A 2037   8.342   3.030   9.086 -0.0424  0.0459 -0.1955
  124POPC   C1B 2038   6.970   3.462   8.456  0.0914 -0.1131 -0.0732
  124POPC   C2B 2039   7.297   3.231   8.335 -0.0239 -0.1104 -0.0274
  124POPC   C3B 2040   7.657   3.048   8.136 -0.0862 -0.3482 -0.2121
  124POPC   C4B 2041   7.922   3.223   7.864 -0.0126 -0.2699 -0.2339
  125POPC   NC3 2042   5.486   0.896   9.806  0.0018 -0.0209 -0.1610
  125POPC   PO4 2043   5.176   0.602   9.542  0.0653 -0.1378 -0.4132
  125POPC   GL1 2044   5.210   0.411   9.247 -0.0567  0.2089  0.2364
  125POPC   GL2 2045   5.418   0.234   9.245  0.1099  0.1753 -0.0413
  125POPC   C1A 2046   5.241   0.284   8.734  0.2153 -0.0362  0.0379
  125POPC   D2A 2047   5.425   0.154   8.304 -0.0773 -0.0737  0.1075
  125POPC   C3A 2048   5.614  -0.119   8.037 -0.0170 -0.0826 -0.1413
  125POPC   C4A 2049   5.596  -0.393   7.705 -0.0897 -0.0646 -0.0091
  125POPC   C1B 2050   5.654   0.484   8.905 -0.0261 -0.0111 -0.0276
  125POPC   C2B 2051   5.716   0.430   8.511 -0.4721 -0.0898 -0.0145
  125POPC   C3B 2052   5.923   0.164   8.330 -0.0499 -0.2635  0.1896
  125POPC   C4B 2053   6.291   0.129   8.110  0.0636  0.1158  0.2580
  126POPC   NC3 2054   4.122   3.545   8.982 -0.0323 -0.1179  0.0237
  126POPC   PO4 2055   3.845   3.347   8.746 -0.3114 -0.3581 -0.0693
  126POPC   GL1 2056   3.902   3.146   8.417  0.4160  0.2802  0.1622
  126POPC   GL2 2057   4.214   3.137   8.299 -0.0034 -0.2961 -0.2368
  126POPC   C1A 2058   3.680   3.088   7.968 -0.2229  0.1241  0.1258
  126POPC   D2A 2059   3.191   3.150   7.819  0.1313 -0.1727 -0.1723
  126POPC   C3A 2060   2.904   3.557   7.923 -0.1579  0.0024  0.0876
  126POPC   C4A 2061   2.951   3.865   8.156  0.1966 -0.1191  0.0962
  126POPC   C1B 2062   4.212   3.017   7.872  0.1322  0.4620 -0.1309
  126POPC   C2B 2063   4.312   3.004   7.445 -0.2363  0.1625 -0.0677
  126POPC   C3B 2064   4.346   3.070   7.003 -0.0622  0.0205  0.0332
  126POPC   C4B 2065   4.608   2.902   6.691  0.0432  0.1810 -0.3454
  127POPC   NC3 2066   3.126   5.178   9.359  0.2046  0.1068  0.1961
  127POPC   PO4 2067   2.849   5.613   9.310 -0.1825 -0.3420 -0.1127
  127POPC   GL1 2068   3.081   5.507   8.938 -0.1960 -0.0562 -0.1450
  127POPC   GL2 2069   3.418   5.352   8.908 -0.2942 -0.1183  0.0007
  127POPC   C1A 2070   3.061   5.694   8.476 -0.2959  0.0070  0.0991
  127POPC   D2A 2071   2.653   5.694   8.235  0.0944  0.2942 -0.0097
  127POPC   C3A 2072   2.376   5.307   8.108 -0.1227  0.0579  0.1130
  127POPC   C4A 2073   2.214   5.302   7.568  0.2092  0.0280 -0.2793
  127POPC   C1B 2074   3.539   5.617   8.611 -0.1027  0.1541  0.0754
  127POPC   C2B 2075   3.485   5.800   8.255  0.0891 -0.1002 -0.2207
  127POPC   C3B 2076   3.671   5.605   7.808 -0.0734  0.1883  0.1276
  127POPC   C4B 2077   3.737   5.280   7.515 -0.2779  0.2056  0.2853
  128POPC   NC3 2078   0.204   3.567   9.759  0.1929  0.0862  0.1368
  128POPC   PO4 2079   0.649   3.559   9.578 -0.0336 -0.0695 -0.2101
  128POPC   GL1 2080   0.707   3.347   9.228 -0.0557  0.2306  0.0398
  128POPC   GL2 2081   0.620   3.560   8.923 -0.1003  0.2102 -0.0926
  128POPC   C1A 2082   0.810   3.119   8.922  0.2575 -0.0982 -0.1614
  128POPC   D2A 2083   0.554   3.250   8.523  0.0671 -0.1540  0.0052
  128POPC   C3A 2084   0.410   2.961   8.239 -0.2695 -0.0119  0.2782
  128POPC   C4A 2085   0.591   2.611   8.235  0.1263  0.1150 -0.1921
  128POPC   C1B 2086   0.428   3.754   8.652 -0.0993 -0.0076 -0.1027
  128POPC   C2B 2087   0.193   3.607   8.286 -0.0110  0.0506  0.2029
  128POPC   C3B 2088   0.137   3.706   7.892  0.1297 -0.2859 -0.3044
  128POPC   C4B 2089   0.076   4.056   7.598  0.2176  0.1101  0.0674
  129POPC   NC3 2090   6.094   9.369   9.367 -0.2026 -0.1932  0.2953
  129POPC   PO4 2091   5.772   9.584   9.165 -0.1724 -0.1034 -0.1426
  129POPC   GL1 2092   6.159   9.503   8.822  0.1762  0.1328 -0.0123
  129POPC   GL2 2093   6.374   9.245   8.850 -0.0180 -0.0019  0.3973
  129POPC   C1A 2094   6.357   9.515   8.465  0.1941 -0.2414 -0.1649
  129POPC   D2A 2095   6.450   9.790   8.151  0.3392 -0.2109  0.4030
  129POPC   C3A 2096   6.509  10.024   7.774 -0.1564 -0.2784 -0.0218
  129POPC   C4A 2097   6.453  10.375   7.400 -0.0380  0.0886  0.0446
  129POPC   C1B 2098   6.149   8.919   8.598  0.0323  0.1225 -0.1366
  129POPC   C2B 2099   6.103   8.718   8.277 -0.2375 -0.0604  0.2131
  129POPC   C3B 2100   6.212   8.533   7.835 -0.0004 -0.0732 -0.1769
  129POPC   C4B 2101   6.032   8.107   7.665  0.1126  0.1794  0.4319
  130POPC   NC3 2102   5.235   8.830   9.539 -0.2599 -0.1222 -0.2144
  130POPC   PO4 2103   5.081   8.599   9.210  0.2012 -0.1658 -0.0686
  130POPC   GL1 2104   5.219   8.434   8.803  0.3238 -0.0119 -0.4198
  130POPC   GL2 2105   5.199   8.171   8.700  0.1414  0.1083 -0.0519
  130POPC   C1A 2106   5.265   8.617   8.383  0.2261  0.0635  0.2373
  130POPC   D2A 2107   5.091   8.455   8.023 -0.2586  0.1176 -0.0133
  130POPC   C3A 2108   5.014   8.564   7.605 -0.1193  0.0665 -0.1257
  130POPC   C4A 2109   4.775   8.559   7.280  0.0756 -0.1745 -0.1511
  130POPC   C1B 2110   5.239   8.047   8.230 -0.0510 -0.2987 -0.0885
  130POPC   C2B 2111   5.528   8.031   7.915  0.1622  0.1826 -0.0739
  130POPC   C3B 2112   5.561   8.043   7.490 -0.1940 -0.0689 -0.2973
  130POPC   C4B 2113   5.678   7.968   7.087  0.2691  0.2762 -0.1260
  131POPC   NC3 2114   0.506   0.402   9.877  0.0947  0.4176  0.1769
  131POPC   PO4 2115   0.398  -0.047   9.914 -0.3100  0.0304 -0.2128
  131POPC   GL1 2116   0.305  -0.130   9.467  0.0375  0.2231  0.1391
  131POPC   GL2 2117   0.294  -0.406   9.504  0.0849 -0.1928 -0.0405
  131POPC   C1A 2118   0.025   0.038   9.402  0.1534  0.3274 -0.0216
  131POPC   D2A 2119  -0.313   0.107   9.303 -0.1442 -0.0975 -0.1630
  131POPC   C3A 2120  -0.431   0.446   9.002 -0.3032  0.1112 -0.0517
  131POPC   C4A 2121  -0.293   0.522   8.576 -0.2725 -0.1165  0.0011
  131POPC   C1B 2122   0.338  -0.633   9.041  0.1136 -0.1869  0.2526
  131POPC   C2B 2123   0.391  -0.490   8.553 -0.1943 -0.4177 -0.0740
  131POPC   C3B 2124   0.342  -0.286   8.168  0.1576  0.0433  0.3472
  131POPC   C4B 2125   0.498   0.060   7.833 -0.1663  0.1648 -0.1727
  132POPC   NC3 2126   8.823   4.344  10.153 -0.1955 -0.0357  0.0286
  132POPC   PO4 2127   8.627   4.225   9.819  0.0227  0.0113 -0.2217
  132POPC   GL1 2128   8.833   3.992   9.421 -0.0990 -0.3277  0.1643
  132POPC   GL2 2129   8.503   3.994   9.221 -0.1574 -0.1974  0.0307
  132POPC   C1A 2130   8.915   3.863   8.915 -0.0649  0.2136  0.1412
  132POPC   D2A 2131   8.661   3.961   8.626  0.1309  0.0614  0.1192
  132POPC   C3A 2132   8.365   3.641   8.411 -0.1870 -0.0397 -0.1266
  132POPC   C4A 2133   8.576   3.321   8.179  0.2087 -0.0811 -0.1082
  132POPC   C1B 2134   8.174   3.781   9.056 -0.2341  0.0486 -0.0123
  132POPC   C2B 2135   8.113   3.440   8.772  0.0698 -0.0511 -0.0317
  132POPC   C3B 2136   8.120   3.132   8.387 -0.0259 -0.1155 -0.1967
  132POPC   C4B 2137   8.129   2.805   8.049  0.1490  0.4679 -0.4998
  133POPC   NC3 2138   0.493   8.699   9.360  0.1321 -0.0339  0.0938
  133POPC   PO4 2139   0.583   8.219   9.384  0.0027  0.0141 -0.2985
  133POPC   GL1 2140   0.510   8.271   8.998 -0.3517  0.0446 -0.1209
  133POPC   GL2 2141   0.205   8.453   8.807 -0.1100  0.0226 -0.1466
  133POPC   C1A 2142   0.630   8.168   8.538  0.1920  0.1731 -0.0187
  133POPC   D2A 2143   0.718   7.840   8.238  0.1309  0.0369  0.1314
  133POPC   C3A 2144   0.660   7.823   7.871  0.0243 -0.2240  0.2346
  133POPC   C4A 2145   0.663   7.722   7.468  0.3955  0.2022  0.2676
  133POPC   C1B 2146   0.294   8.513   8.354 -0.0989 -0.1129 -0.0368
  133POPC   C2B 2147   0.366   8.823   7.964  0.0169 -0.0391  0.0141
  133POPC   C3B 2148   0.454   9.084   7.616 -0.2800 -0.4246  0.1300
  133POPC   C4B 2149   0.122   9.370   7.386 -0.0235  0.0556 -0.0847
  134POPC   NC3 2150   1.275   7.785   9.241 -0.0113  0.3454  0.1337
  134POPC   PO4 2151   1.621   8.064   8.999 -0.0012 -0.5409 -0.0594
  134POPC   GL1 2152   1.492   8.432   8.745 -0.0438  0.2011 -0.0939
  134POPC   GL2 2153   1.264   8.501   8.746 -0.2955  0.2377 -0.2452
  134POPC   C1A 2154   1.604   8.480   8.332  0.4218 -0.0316 -0.0620
  134POPC   D2A 2155   1.671   8.438   8.009 -0.0931  0.0693 -0.1860
  134POPC   C3A 2156   1.300   8.516   7.756 -0.0619 -0.1490  0.0818
  134POPC   C4A 2157   1.224   8.370   7.316  0.1035 -0.1215 -0.0198
  134POPC   C1B 2158   1.170   8.205   8.315  0.0422  0.3326 -0.2183
  134POPC   C2B 2159   1.081   8.070   7.917 -0.0293 -0.0551 -0.1499
  134POPC   C3B 2160   0.891   8.229   7.625 -0.3396  0.0456 -0.0546
  134POPC   C4B 2161   0.740   8.669   7.575  0.0191  0.2775  0.0792
  135POPC   NC3 2162  10.163   2.959  10.137 -0.0202 -0.0260  0.5007
  135POPC   PO4 2163  10.062   3.441  10.076 -0.1894 -0.0071 -0.2252
  135POPC   GL1 2164  10.011   3.163   9.690 -0.0679  0.1605 -0.1544
  135POPC   GL2 2165   9.992   3.484   9.461 -0.2139  0.0343 -0.1312
  135POPC   C1A 2166  10.026   2.972   9.221 -0.0388 -0.0455 -0.0054
  135POPC   D2A 2167   9.926   2.803   8.811  0.0095 -0.1250 -0.1525
  135POPC   C3A 2168   9.846   2.442   8.623 -0.1176  0.1730 -0.1753
  135POPC   C4A 2169   9.507   2.103   8.369 -0.0414 -0.0893 -0.1495
  135POPC   C1B 2170   9.750   3.715   9.159 -0.1093 -0.1096  0.0786
  135POPC   C2B 2171   9.352   3.737   9.024  0.2042  0.3140  0.2683
  135POPC   C3B 2172   9.093   3.376   8.967  0.0572 -0.1150  0.2390
  135POPC   C4B 2173   8.839   3.485   8.559 -0.1085 -0.2468 -0.0515
  136POPC   NC3 2174   1.652   2.307   9.472 -0.0257  0.0960 -0.1781
  136POPC   PO4 2175   1.356   2.221   9.737 -0.0064  0.2898 -0.0887
  136POPC   GL1 2176   1.111   1.976   9.402 -0.2094 -0.2373  0.1153
  136POPC   GL2 2177   0.822   2.276   9.196 -0.3825  0.1047 -0.0824
  136POPC   C1A 2178   0.779   1.795   9.328  0.0498 -0.3936  0.0148
  136POPC   D2A 2179   0.691   1.831   8.874  0.0588  0.1384 -0.1874
  136POPC   C3A 2180   0.987   2.011   8.557 -0.1546 -0.0237  0.2638
  136POPC   C4A 2181   0.932   2.173   8.278  0.1572 -0.3802 -0.1990
  136POPC   C1B 2182   0.625   2.664   9.120  0.1828  0.0724  0.2887
  136POPC   C2B 2183   0.381   2.929   8.917  0.1436 -0.0165 -0.0176
  136POPC   C3B 2184   0.203   2.727   8.646 -0.0554  0.1699 -0.3850
  136POPC   C4B 2185  -0.089   2.675   8.285  0.1721  0.3072  0.1068
  137POPC   NC3 2186   1.145   9.413   9.605  0.0456  0.0329 -0.1102
  137POPC   PO4 2187   1.302   9.026   9.403 -0.0712 -0.4303 -0.0492
  137POPC   GL1 2188   1.178   8.958   8.952  0.0320 -0.1329 -0.0557
  137POPC   GL2 2189   0.937   8.747   9.000  0.0663  0.1409 -0.2824
  137POPC   C1A 2190   1.016   9.120   8.650 -0.2657 -0.0969  0.1922
  137POPC   D2A 2191   1.025   9.437   8.251  0.1236  0.1705 -0.0897
  137POPC   C3A 2192   0.562   9.469   8.064  0.1710  0.0883 -0.0384
  137POPC   C4A 2193   0.138   9.387   7.917 -0.0930  0.1404  0.0472
  137POPC   C1B 2194   0.764   8.677   8.548 -0.3935  0.2145 -0.0000
  137POPC   C2B 2195   0.727   8.476   8.176 -0.0858  0.1058 -0.0385
  137POPC   C3B 2196   0.427   8.360   7.860  0.1988  0.0088  0.1076
  137POPC   C4B 2197   0.105   8.091   7.751  0.3533  0.1724  0.1852
  138POPC   NC3 2198   3.434   0.627   9.753 -0.0498 -0.1711  0.2229
  138POPC   PO4 2199   3.366   0.724   9.311  0.2335  0.1208  0.0957
  138POPC   GL1 2200   3.141   0.778   8.872  0.1546  0.0622  0.1382
  138POPC   GL2 2201   2.992   0.437   8.812 -0.1554  0.2587  0.1943
  138POPC   C1A 2202   2.770   0.851   8.501  0.1903 -0.0404 -0.0490
  138POPC   D2A 2203   2.476   0.771   8.213  0.0474  0.2710  0.1378
  138POPC   C3A 2204   2.307   0.798   7.754  0.0307  0.0315  0.0829
  138POPC   C4A 2205   2.167   0.819   7.323  0.1304 -0.1607 -0.0664
  138POPC   C1B 2206   3.108   0.434   8.354 -0.1823 -0.1229  0.2016
  138POPC   C2B 2207   3.157   0.371   7.931  0.3158 -0.1248 -0.0209
  138POPC   C3B 2208   3.206   0.217   7.513  0.0415 -0.2547  0.1178
  138POPC   C4B 2209   3.454  -0.090   7.427  0.1194  0.4713  0.3268
  139POPC   NC3 2210   1.708   6.408   9.362 -0.0796 -0.1195  0.0947
  139POPC   PO4 2211   2.096   6.393   9.270  0.2161 -0.1465  0.4049
  139POPC   GL1 2212   2.195   6.531   8.827 -0.4588  0.2205 -0.0156
  139POPC   GL2 2213   2.469   6.337   8.732 -0.0668 -0.1122 -0.4374
  139POPC   C1A 2214   2.135   6.566   8.344  0.2026 -0.1034 -0.0386
  139POPC   D2A 2215   2.294   6.401   7.922 -0.0309  0.1427 -0.0396
  139POPC   C3A 2216   2.755   6.265   7.625 -0.1943 -0.0082 -0.1973
  139POPC   C4A 2217   3.019   6.094   7.454 -0.1901  0.0156  0.0241
  139POPC   C1B 2218   2.595   6.283   8.378 -0.2371 -0.1845  0.0219
  139POPC   C2B 2219   2.923   6.109   8.089  0.1312 -0.2202 -0.0637
  139POPC   C3B 2220   3.091   5.729   7.858  0.0007  0.2831  0.2108
  139POPC   C4B 2221   2.755   5.462   7.638  0.1182  0.0573 -0.1418
  140POPC   NC3 2222   1.814   2.588   9.107  0.1527  0.0159 -0.0136
  140POPC   PO4 2223   1.539   2.987   9.285 -0.0049  0.1282  0.1487
  140POPC   GL1 2224   1.397   3.011   8.886  0.1193  0.0077  0.0797
  140POPC   GL2 2225   1.440   2.747   8.715  0.0289  0.0798 -0.0999
  140POPC   C1A 2226   1.110   3.027   8.519  0.0743  0.0786  0.0633
  140POPC   D2A 2227   0.920   3.131   8.221  0.3064  0.3446 -0.0817
  140POPC   C3A 2228   0.981   3.263   7.833 -0.1067 -0.1864 -0.0480
  140POPC   C4A 2229   0.960   2.997   7.454  0.0794 -0.3770  0.0915
  140POPC   C1B 2230   1.046   2.561   8.712 -0.1671 -0.2748 -0.1918
  140POPC   C2B 2231   0.621   2.367   8.713 -0.0832  0.0221  0.2288
  140POPC   C3B 2232   0.476   1.997   8.457  0.0871 -0.0071  0.2068
  140POPC   C4B 2233   0.551   1.859   8.046 -0.4205  0.1008  0.0618
  141POPC   NC3 2234   5.276   1.470   9.059  0.2002 -0.0404  0.0524
  141POPC   PO4 2235   5.615   1.708   9.256 -0.0559  0.3318  0.2407
  141POPC   GL1 2236   5.827   1.643   8.914  0.0108  0.0745  0.6889
  141POPC   GL2 2237   6.148   1.421   8.987  0.1420 -0.0435 -0.1240
  141POPC   C1A 2238   5.846   1.485   8.421  0.2757  0.2618  0.1438
  141POPC   D2A 2239   5.934   1.372   8.075  0.2105  0.0327 -0.2116
  141POPC   C3A 2240   6.071   1.592   7.739  0.4059 -0.1177 -0.0115
  141POPC   C4A 2241   6.122   2.114   7.692 -0.2346 -0.0380 -0.1231
  141POPC   C1B 2242   6.216   1.275   8.632 -0.2507  0.0164  0.0467
  141POPC   C2B 2243   6.450   1.174   8.175 -0.1101  0.0960 -0.0291
  141POPC   C3B 2244   6.518   1.425   7.839  0.1828  0.0268 -0.2785
  141POPC   C4B 2245   6.533   1.690   7.541  0.1181 -0.0414 -0.0891
  142POPC   NC3 2246   4.784   5.315   9.153 -0.0419 -0.0179  0.0403
  142POPC   PO4 2247   4.681   4.948   8.957 -0.0273 -0.1044  0.1684
  142POPC   GL1 2248   4.639   4.970   8.540 -0.0215 -0.0161  0.1855
  142POPC   GL2 2249   4.339   5.117   8.536  0.1383 -0.2987  0.4820
  142POPC   C1A 2250   4.702   5.073   8.139 -0.1027 -0.2373 -0.2448
  142POPC   D2A 2251   5.052   5.100   7.887 -0.0942 -0.2319  0.0846
  142POPC   C3A 2252   5.228   4.777   7.671  0.0440 -0.2157 -0.3055
  142POPC   C4A 2253   5.327   4.824   7.248 -0.3314  0.1624  0.0573
  142POPC   C1B 2254   4.405   5.455   8.145  0.2528  0.1010  0.0310
  142POPC   C2B 2255   4.195   5.538   7.795  0.1492 -0.1492 -0.0341
  142POPC   C3B 2256   4.076   5.703   7.434 -0.2979 -0.2962 -0.1264
  142POPC   C4B 2257   3.770   5.559   7.110 -0.0606  0.0069  0.1481
  143POPC   NC3 2258   4.872   3.581   9.394 -0.1229 -0.2593  0.2308
  143POPC   PO4 2259   4.508   3.743   9.166 -0.1336  0.2770  0.3652
  143POPC   GL1 2260   4.413   3.859   8.716  0.2757 -0.3789 -0.2352
  143POPC   GL2 2261   4.151   3.622   8.474 -0.0088  0.1898  0.0198
  143POPC   C1A 2262   4.519   4.130   8.385 -0.2865  0.0864  0.0393
  143POPC   D2A 2263   4.647   4.428   8.113 -0.2303  0.0138  0.3048
  143POPC   C3A 2264   4.740   4.709   7.737  0.2872  0.1293 -0.0722
  143POPC   C4A 2265   4.788   5.035   7.387 -0.2214 -0.1007 -0.0937
  143POPC   C1B 2266   3.982   3.567   7.975 -0.0533  0.0080  0.0295
  143POPC   C2B 2267   3.861   3.436   7.614  0.0720  0.0372 -0.0821
  143POPC   C3B 2268   3.753   3.728   7.287  0.2933 -0.2080 -0.1915
  143POPC   C4B 2269   4.020   3.955   7.031  0.0064 -0.2610 -0.0780
  144POPC   NC3 2270   1.224   5.708   8.769  0.0523  0.0391  0.0752
  144POPC   PO4 2271   1.663   5.797   8.603 -0.0006  0.3203  0.2038
  144POPC   GL1 2272   1.502   5.925   8.213 -0.2466  0.2797  0.1753
  144POPC   GL2 2273   1.078   5.847   8.153  0.0959  0.3649  0.0250
  144POPC   C1A 2274   1.652   6.202   7.924  0.0294  0.0312 -0.1010
  144POPC   D2A 2275   1.510   6.367   7.492  0.2876  0.2087  0.1566
  144POPC   C3A 2276   1.498   6.060   7.229  0.0991  0.1929 -0.0319
  144POPC   C4A 2277   1.393   5.657   7.140  0.0744 -0.1062 -0.1593
  144POPC   C1B 2278   1.012   5.516   7.911  0.0271 -0.1536  0.2484
  144POPC   C2B 2279   1.065   5.323   7.524 -0.0453 -0.4533 -0.2801
  144POPC   C3B 2280   1.126   4.964   7.336 -0.0062 -0.0917  0.0205
  144POPC   C4B 2281   1.181   4.810   6.908 -0.0466 -0.3599 -0.0737
  145POPC   NC3 2282   9.041   2.394  10.453 -0.1807 -0.1839 -0.1397
  145POPC   PO4 2283   8.774   2.089  10.398 -0.1667  0.2216  0.2334
  145POPC   GL1 2284   8.714   1.983   9.852 -0.0905 -0.3177 -0.0790
  145POPC   GL2 2285   8.543   1.758   9.658 -0.2698 -0.0282 -0.1295
  145POPC   C1A 2286   8.509   2.294   9.600  0.2829  0.0872  0.5049
  145POPC   D2A 2287   8.219   2.623   9.336  0.1141  0.0397  0.0273
  145POPC   C3A 2288   8.010   2.457   8.990  0.2579  0.1258  0.0596
  145POPC   C4A 2289   7.562   2.326   8.852  0.2920 -0.2864  0.1824
  145POPC   C1B 2290   8.914   1.529   9.559  0.2142 -0.0397  0.0343
  145POPC   C2B 2291   9.071   1.097   9.551 -0.0724  0.0865  0.0851
  145POPC   C3B 2292   9.270   0.685   9.559 -0.0854  0.0922 -0.1633
  145POPC   C4B 2293   9.709   0.558   9.553 -0.0868 -0.1371  0.1622
  146POPC   NC3 2294   9.346   6.518   9.376 -0.0744  0.1922 -0.0606
  146POPC   PO4 2295   9.438   6.785   9.005 -0.0116 -0.0189 -0.0943
  146POPC   GL1 2296   9.518   6.659   8.560 -0.1629  0.1069  0.5057
  146POPC   GL2 2297   9.778   6.419   8.480 -0.1498  0.0179 -0.0854
  146POPC   C1A 2298   9.539   6.831   8.079 -0.2072  0.2032 -0.0325
  146POPC   D2A 2299   9.882   6.836   7.853 -0.2349 -0.1595  0.0383
  146POPC   C3A 2300   9.902   6.478   7.631  0.0895  0.3414  0.2650
  146POPC   C4A 2301   9.858   6.465   7.227 -0.1452  0.1737  0.1789
  146POPC   C1B 2302   9.706   6.358   8.041 -0.0692  0.0705  0.2440
  146POPC   C2B 2303   9.511   6.057   7.772 -0.1429 -0.1968  0.1716
  146POPC   C3B 2304   9.439   6.082   7.417  0.2281 -0.0737 -0.0136
  146POPC   C4B 2305   9.195   5.815   7.117 -0.3480  0.1480  0.1835
  147POPC   NC3 2306   6.603   9.074   9.243  0.0599 -0.0601 -0.1142
  147POPC   PO4 2307   6.944   8.672   9.176  0.1069  0.1660 -0.3290
  147POPC   GL1 2308   6.762   8.866   8.816 -0.0218  0.0248  0.0822
  147POPC   GL2 2309   6.717   8.541   8.621  0.0693 -0.1384  0.2084
  147POPC   C1A 2310   6.598   9.069   8.454  0.1305 -0.3614 -0.1514
  147POPC   D2A 2311   6.528   8.922   8.070  0.0333 -0.0990  0.1126
  147POPC   C3A 2312   6.596   9.328   7.802 -0.1440 -0.0052 -0.2240
  147POPC   C4A 2313   6.646   9.545   7.543  0.1983  0.0065 -0.2792
  147POPC   C1B 2314   6.645   8.457   8.250 -0.1957 -0.0709  0.0205
  147POPC   C2B 2315   6.689   8.349   7.757  0.0895 -0.0900  0.0611
  147POPC   C3B 2316   6.900   8.113   7.520 -0.3421  0.1478  0.0105
  147POPC   C4B 2317   7.123   7.713   7.455 -0.1280  0.1939  0.0488
  148POPC   NC3 2318   6.831   4.061   9.729  0.1934  0.0189 -0.0640
  148POPC   PO4 2319   7.053   4.132   9.346 -0.1049  0.2844  0.1575
  148POPC   GL1 2320   7.001   4.043   9.010  0.2584 -0.3453 -0.2392
  148POPC   GL2 2321   6.838   4.382   8.879 -0.2884 -0.0169 -0.1507
  148POPC   C1A 2322   7.270   3.831   8.734  0.1299  0.1223 -0.0253
  148POPC   D2A 2323   7.758   3.799   8.787 -0.1456  0.0055 -0.1153
  148POPC   C3A 2324   8.055   4.051   8.568 -0.3031  0.2827  0.0508
  148POPC   C4A 2325   8.327   4.373   8.682 -0.2254 -0.2139 -0.0571
  148POPC   C1B 2326   7.116   4.373   8.590  0.1296  0.1264 -0.2008
  148POPC   C2B 2327   7.121   4.248   8.214  0.0288 -0.1919  0.0550
  148POPC   C3B 2328   7.318   4.246   7.776  0.4697 -0.4650  0.0275
  148POPC   C4B 2329   7.393   3.915   7.607  0.2286  0.0088 -0.1696
  149POPC   NC3 2330   3.700   1.538   8.637 -0.1080 -0.0738  0.1894
  149POPC   PO4 2331   3.376   1.682   8.921  0.0197 -0.1005  0.1659
  149POPC   GL1 2332   3.116   1.816   8.577  0.1221  0.2518 -0.1417
  149POPC   GL2 2333   3.194   1.506   8.440  0.1997  0.0728 -0.0195
  149POPC   C1A 2334   2.824   1.764   8.209 -0.0523 -0.1102  0.1108
  149POPC   D2A 2335   2.700   1.764   7.775  0.2517 -0.0413 -0.0189
  149POPC   C3A 2336   2.522   2.127   7.561  0.0090 -0.1506  0.2224
  149POPC   C4A 2337   2.505   2.564   7.248  0.3853  0.0306  0.0441
  149POPC   C1B 2338   2.999   1.333   8.081  0.0909  0.0390 -0.0400
  149POPC   C2B 2339   2.907   1.301   7.637 -0.0384  0.0510 -0.3634
  149POPC   C3B 2340   2.671   0.957   7.417 -0.1007  0.1557 -0.2383
  149POPC   C4B 2341   2.707   0.513   7.425 -0.1267 -0.1262 -0.0176
  150POPC   NC3 2342   6.390   1.276   9.455 -0.1626 -0.0717  0.0762
  150POPC   PO4 2343   6.118   0.943   9.330 -0.3476  0.2349 -0.4842
  150POPC   GL1 2344   5.986   0.942   8.950  0.1376  0.0852  0.1457
  150POPC   GL2 2345   5.668   1.163   8.826  0.2423  0.0630  0.0196
  150POPC   C1A 2346   5.979   0.872   8.456 -0.2427 -0.1112  0.1519
  150POPC   D2A 2347   5.815   0.747   8.076 -0.0745  0.0542 -0.3134
  150POPC   C3A 2348   5.679   0.354   7.863  0.0789  0.1168 -0.2073
  150POPC   C4A 2349   5.957   0.043   7.567  0.0921  0.0560 -0.0936
  150POPC   C1B 2350   5.472   0.895   8.478  0.1495 -0.0819  0.0500
  150POPC   C2B 2351   5.315   0.607   8.116  0.2136 -0.2220 -0.0776
  150POPC   C3B 2352   5.365   0.746   7.758 -0.0500 -0.1380 -0.1212
  150POPC   C4B 2353   5.713   0.564   7.460 -0.1258 -0.1277  0.2927
  151POPC   NC3 2354   2.267   1.298   9.248  0.0535 -0.1628 -0.1318
  151POPC   PO4 2355   2.035   0.967   9.095  0.3043 -0.1974  0.3595
  151POPC   GL1 2356   2.045   1.268   8.733  0.0642 -0.1675  0.0042
  151POPC   GL2 2357   2.169   1.106   8.575 -0.0473 -0.0378 -0.1022
  151POPC   C1A 2358   1.699   1.324   8.422  0.0450 -0.1194 -0.0274
  151POPC   D2A 2359   1.280   1.204   8.433  0.1178 -0.0399 -0.2864
  151POPC   C3A 2360   0.855   1.247   8.194  0.0861  0.4986  0.1746
  151POPC   C4A 2361   0.592   0.934   8.157 -0.1944 -0.0336  0.1040
  151POPC   C1B 2362   1.981   0.996   8.114  0.3478  0.1745 -0.1879
  151POPC   C2B 2363   1.952   1.192   7.634 -0.2889 -0.0679 -0.0385
  151POPC   C3B 2364   1.880   1.314   7.164  0.1473 -0.1931  0.0508
  151POPC   C4B 2365   2.042   1.092   6.773  0.3849  0.1465  0.0086
  152POPC   NC3 2366   8.274   5.136   9.604 -0.2948 -0.0808 -0.0936
  152POPC   PO4 2367   8.397   5.179   9.136 -0.2698 -0.2195 -0.1648
  152POPC   GL1 2368   8.392   5.418   8.752 -0.2835  0.1607  0.0324
  152POPC   GL2 2369   8.660   5.542   8.615  0.5047  0.1806  0.3602
  152POPC   C1A 2370   8.241   5.373   8.322 -0.2473 -0.1635  0.1391
  152POPC   D2A 2371   8.008   5.507   7.998  0.1838  0.0173 -0.0839
  152POPC   C3A 2372   8.048   5.815   7.792 -0.1228  0.1380  0.3080
  152POPC   C4A 2373   8.043   5.959   7.332  0.1282  0.1279 -0.0294
  152POPC   C1B 2374   8.962   5.248   8.534 -0.0581  0.1163  0.0673
  152POPC   C2B 2375   9.369   5.223   8.462  0.1651 -0.1937  0.0238
  152POPC   C3B 2376   9.567   5.172   8.139  0.1171  0.0474  0.1251
  152POPC   C4B 2377   9.837   4.928   7.889 -0.2060 -0.1773 -0.1546
  153POPC   NC3 2378   4.506   9.192   9.167 -0.2179  0.0236  0.0623
  153POPC   PO4 2379   4.088   9.306   9.026 -0.0067 -0.3412  0.1142
  153POPC   GL1 2380   3.764   9.251   8.731 -0.1108  0.3535 -0.2614
  153POPC   GL2 2381   3.553   9.530   8.700  0.0020  0.3322  0.3809
  153POPC   C1A 2382   3.713   9.021   8.367 -0.0983 -0.0335 -0.1103
  153POPC   D2A 2383   3.749   8.908   7.962  0.0625  0.2068  0.0680
  153POPC   C3A 2384   3.417   8.877   7.724 -0.0723  0.0581  0.2008
  153POPC   C4A 2385   3.394   8.561   7.513  0.2564 -0.1011 -0.0800
  153POPC   C1B 2386   3.197   9.703   8.426 -0.0126 -0.1401  0.2216
  153POPC   C2B 2387   3.028   9.681   7.970 -0.0223  0.5200  0.0300
  153POPC   C3B 2388   2.728   9.458   7.745 -0.1997 -0.0980 -0.1370
  153POPC   C4B 2389   2.532   9.146   7.639 -0.0632 -0.1184  0.3872
  154POPC   NC3 2390   3.759   0.353   9.245 -0.0395  0.2729  0.2479
  154POPC   PO4 2391   3.554  -0.014   9.133 -0.1433 -0.1752  0.1538
  154POPC   GL1 2392   3.613  -0.057   8.614 -0.2514  0.3682 -0.1545
  154POPC   GL2 2393   3.523   0.193   8.392 -0.0794  0.3698 -0.0721
  154POPC   C1A 2394   3.678  -0.340   8.240 -0.1802 -0.1441  0.1857
  154POPC   D2A 2395   3.821  -0.168   7.914  0.0318 -0.0020  0.0026
  154POPC   C3A 2396   4.225  -0.234   7.706 -0.0529 -0.0826  0.2737
  154POPC   C4A 2397   4.454  -0.555   7.925 -0.1982 -0.0251  0.0744
  154POPC   C1B 2398   3.617   0.265   8.039  0.1846  0.1235  0.1370
  154POPC   C2B 2399   3.866   0.218   7.638 -0.1336 -0.1676 -0.0619
  154POPC   C3B 2400   3.993  -0.035   7.337 -0.0047  0.1770  0.2791
  154POPC   C4B 2401   4.149  -0.119   6.913  0.1699  0.0557 -0.0570
  155POPC   NC3 2402   6.679   8.197   9.290 -0.0513 -0.3225 -0.1411
  155POPC   PO4 2403   6.387   8.630   9.067 -0.1916  0.2033 -0.3347
  155POPC   GL1 2404   6.028   8.505   8.887 -0.0190  0.2187 -0.0402
  155POPC   GL2 2405   5.824   8.207   9.016 -0.0831 -0.2107 -0.0768
  155POPC   C1A 2406   5.710   8.424   8.574 -0.1390  0.0831 -0.2927
  155POPC   D2A 2407   5.733   8.405   8.168 -0.0583  0.1756 -0.1105
  155POPC   C3A 2408   5.509   8.818   7.992  0.0287  0.1265 -0.0633
  155POPC   C4A 2409   5.392   8.902   7.601  0.0333  0.0321  0.0662
  155POPC   C1B 2410   5.883   7.916   8.690  0.0397  0.2848  0.0568
  155POPC   C2B 2411   5.782   7.847   8.294 -0.2114  0.2674 -0.2550
  155POPC   C3B 2412   5.929   7.671   7.790  0.1054  0.0297  0.1567
  155POPC   C4B 2413   6.109   7.637   7.350  0.0172  0.1842 -0.0447
  156POPC   NC3 2414   1.486   0.856   9.971 -0.0163  0.4286  0.1230
  156POPC   PO4 2415   1.472   0.412   9.919 -0.1348 -0.0563  0.0414
  156POPC   GL1 2416   1.553   0.575   9.455  0.4265 -0.1505 -0.3905
  156POPC   GL2 2417   1.509   0.345   9.089  0.0153  0.0601  0.2733
  156POPC   C1A 2418   1.273   0.878   9.170 -0.1261 -0.3801  0.0219
  156POPC   D2A 2419   1.604   1.078   8.841  0.1252  0.0234  0.1521
  156POPC   C3A 2420   1.609   1.532   8.840 -0.0225  0.1907  0.1972
  156POPC   C4A 2421   1.888   1.856   8.507 -0.4239  0.1909 -0.0132
  156POPC   C1B 2422   1.536   0.504   8.660 -0.0776 -0.0925 -0.3299
  156POPC   C2B 2423   1.563   0.816   8.380 -0.0673  0.5181  0.1865
  156POPC   C3B 2424   1.525   0.982   7.870 -0.0568  0.1404  0.0041
  156POPC   C4B 2425   1.472   1.153   7.406  0.0696  0.4077  0.0657
  157POPC   NC3 2426   6.212   6.335   5.704  0.1681 -0.1613 -0.1369
  157POPC   PO4 2427   5.835   6.523   5.606  0.0676  0.0897  0.0433
  157POPC   GL1 2428   5.896   6.761   6.019  0.2442  0.0977 -0.0484
  157POPC   GL2 2429   5.961   6.480   6.133  0.2265 -0.1331  0.2928
  157POPC   C1A 2430   5.824   6.889   6.420 -0.0610  0.0571  0.0443
  157POPC   D2A 2431   6.080   6.866   6.759 -0.3019 -0.1457  0.0271
  157POPC   C3A 2432   6.443   6.816   6.856 -0.1983  0.3724  0.1223
  157POPC   C4A 2433   6.762   6.828   7.259  0.1676 -0.2626 -0.0972
  157POPC   C1B 2434   5.480   6.528   6.189 -0.1126  0.2707  0.0157
  157POPC   C2B 2435   5.374   6.729   6.503 -0.4080 -0.1249 -0.2805
  157POPC   C3B 2436   5.182   6.860   6.745 -0.0497 -0.0386 -0.4097
  157POPC   C4B 2437   5.098   6.660   7.171 -0.0965  0.0340  0.0653
  158POPC   NC3 2438   8.217   9.486   4.664  0.1381  0.0108 -0.0188
  158POPC   PO4 2439   8.244   9.556   5.051  0.1418 -0.0764 -0.2782
  158POPC   GL1 2440   8.145   9.648   5.487  0.2328 -0.3749 -0.2001
  158POPC   GL2 2441   7.861   9.417   5.469  0.3027  0.2270 -0.2675
  158POPC   C1A 2442   8.233   9.568   5.888 -0.0732 -0.0048  0.0531
  158POPC   D2A 2443   8.403   9.649   6.198 -0.0968  0.0797 -0.3624
  158POPC   C3A 2444   8.553  10.007   6.225  0.0651  0.0251  0.0399
  158POPC   C4A 2445   8.658  10.344   6.104 -0.0363 -0.1898 -0.0258
  158POPC   C1B 2446   7.659   9.208   5.845  0.1099  0.0746  0.0490
  158POPC   C2B 2447   7.677   9.006   6.301 -0.2085  0.0472 -0.3068
  158POPC   C3B 2448   7.762   9.024   6.717 -0.1648  0.0176  0.2025
  158POPC   C4B 2449   7.982   8.992   7.108  0.0603  0.0420 -0.0857
  159POPC   NC3 2450   7.615   7.739   5.603 -0.1421  0.1767 -0.2666
  159POPC   PO4 2451   7.648   8.007   5.229  0.0456 -0.2621 -0.2140
  159POPC   GL1 2452   7.728   8.258   5.698 -0.0544 -0.1893  0.2504
  159POPC   GL2 2453   7.650   8.556   5.775 -0.0473  0.0701  0.2557
  159POPC   C1A 2454   7.621   8.151   6.157 -0.1439 -0.0837  0.2698
  159POPC   D2A 2455   7.574   7.979   6.532 -0.3542  0.0004 -0.0656
  159POPC   C3A 2456   7.624   8.158   6.904 -0.0472  0.0409  0.2691
  159POPC   C4A 2457   8.066   8.428   6.899 -0.1937  0.0834  0.1333
  159POPC   C1B 2458   7.877   8.610   6.085  0.2039 -0.0698 -0.0985
  159POPC   C2B 2459   8.135   8.768   6.406  0.1554 -0.0304  0.2079
  159POPC   C3B 2460   8.342   8.880   6.746 -0.0578  0.0556 -0.0020
  159POPC   C4B 2461   8.518   8.882   7.189 -0.2003  0.1206  0.5472
  160POPC   NC3 2462   1.312   0.117   4.437 -0.0689 -0.1952 -0.2600
  160POPC   PO4 2463   0.835   0.126   4.489  0.2515 -0.2075 -0.1512
  160POPC   GL1 2464   0.508   0.199   4.804  0.1593  0.5960 -0.0001
  160POPC   GL2 2465   0.471   0.530   4.709  0.0215 -0.1201 -0.1852
  160POPC   C1A 2466   0.150   0.082   4.997  0.1446  0.3036  0.1905
  160POPC   D2A 2467  -0.201  -0.290   4.963 -0.1541 -0.1517 -0.1003
  160POPC   C3A 2468  -0.248  -0.670   5.187  0.1420 -0.1314  0.1179
  160POPC   C4A 2469  -0.282  -1.015   5.327  0.0061  0.2485 -0.3356
  160POPC   C1B 2470   0.204   0.591   4.954  0.0683 -0.0022 -0.1371
  160POPC   C2B 2471   0.122   0.751   5.310  0.0052  0.2018 -0.1284
  160POPC   C3B 2472  -0.243   0.704   5.486 -0.1619 -0.2046 -0.1639
  160POPC   C4B 2473  -0.484   1.034   5.626  0.0744 -0.0855 -0.0636
  161POPC   NC3 2474   3.111   4.189   4.571 -0.1258  0.2477  0.0256
  161POPC   PO4 2475   3.006   4.196   5.037  0.0889  0.3345 -0.0726
  161POPC   GL1 2476   3.127   4.353   5.532 -0.0956 -0.1226 -0.0153
  161POPC   GL2 2477   3.395   4.636   5.477 -0.3657 -0.0757 -0.1178
  161POPC   C1A 2478   2.976   4.353   5.923  0.2694  0.0661  0.0756
  161POPC   D2A 2479   2.718   4.390   6.230 -0.1485  0.2377  0.1034
  161POPC   C3A 2480   2.677   4.819   6.345  0.1123  0.2550  0.2950
  161POPC   C4A 2481   2.568   5.175   6.579 -0.2396  0.2144  0.1127
  161POPC   C1B 2482   3.348   4.789   5.878  0.0720 -0.1890  0.1105
  161POPC   C2B 2483   3.446   5.014   6.216 -0.2745  0.1457  0.0535
  161POPC   C3B 2484   3.538   4.894   6.639  0.2737 -0.1371  0.2750
  161POPC   C4B 2485   3.373   4.561   6.902 -0.2678 -0.0690  0.1135
  162POPC   NC3 2486   5.461   1.990   4.512  0.3089 -0.3319  0.0776
  162POPC   PO4 2487   5.655   1.761   4.887 -0.1064  0.1843  0.0250
  162POPC   GL1 2488   5.822   1.909   5.293  0.1274  0.1046  0.0600
  162POPC   GL2 2489   5.849   2.191   5.448  0.0033  0.2738 -0.1782
  162POPC   C1A 2490   5.835   1.606   5.614 -0.2063  0.0202 -0.2957
  162POPC   D2A 2491   6.012   1.650   5.962 -0.4953  0.2816 -0.0150
  162POPC   C3A 2492   5.676   1.497   6.232  0.0895 -0.0048 -0.1430
  162POPC   C4A 2493   5.337   1.538   6.646 -0.1528  0.0912  0.5185
  162POPC   C1B 2494   5.675   2.157   5.832 -0.0732 -0.1681  0.0330
  162POPC   C2B 2495   5.732   2.000   6.250  0.0210  0.0247 -0.1717
  162POPC   C3B 2496   5.869   1.820   6.630 -0.2369 -0.1463  0.1042
  162POPC   C4B 2497   5.786   1.535   6.936 -0.0488  0.0361 -0.0343
  163POPC   NC3 2498   6.963   1.601   3.851  0.2808 -0.1325  0.1802
  163POPC   PO4 2499   7.199   1.983   3.966  0.1535  0.1119  0.0121
  163POPC   GL1 2500   7.265   2.022   4.407 -0.1646  0.1090  0.4599
  163POPC   GL2 2501   7.480   2.025   4.460 -0.2492 -0.1468  0.0459
  163POPC   C1A 2502   7.238   1.767   4.799 -0.2565  0.3381 -0.1037
  163POPC   D2A 2503   7.137   1.878   5.265 -0.1662  0.0780 -0.1328
  163POPC   C3A 2504   7.412   1.689   5.547 -0.1037 -0.3199 -0.0766
  163POPC   C4A 2505   7.307   1.369   5.835 -0.1624 -0.2317  0.3654
  163POPC   C1B 2506   7.577   2.242   4.860  0.0490 -0.1071 -0.0728
  163POPC   C2B 2507   7.581   2.072   5.244 -0.2729  0.0060 -0.1665
  163POPC   C3B 2508   7.696   2.238   5.651 -0.0447 -0.1234 -0.1526
  163POPC   C4B 2509   8.026   2.252   5.903  0.0123  0.0717 -0.2571
  164POPC   NC3 2510   5.039   6.535   5.080 -0.1052  0.2400  0.1038
  164POPC   PO4 2511   5.017   6.093   5.151 -0.2226 -0.3989 -0.0735
  164POPC   GL1 2512   5.139   6.112   5.584  0.1817  0.5031 -0.1914
  164POPC   GL2 2513   5.373   6.353   5.735 -0.0601 -0.2466  0.1783
  164POPC   C1A 2514   5.304   5.767   5.780  0.0085 -0.1166  0.2052
  164POPC   D2A 2515   5.004   5.512   6.122 -0.1803  0.1417  0.4228
  164POPC   C3A 2516   5.105   5.371   6.521  0.2835  0.0589 -0.0984
  164POPC   C4A 2517   5.384   5.113   6.702 -0.1961 -0.0888  0.0117
  164POPC   C1B 2518   5.197   6.139   6.151  0.1582 -0.1061  0.0818
  164POPC   C2B 2519   5.203   5.877   6.474  0.0344 -0.0463  0.0696
  164POPC   C3B 2520   5.213   5.683   6.941 -0.0054 -0.0466 -0.0138
  164POPC   C4B 2521   5.226   5.281   7.239  0.3149 -0.1543 -0.0871
  165POPC   NC3 2522   6.210   9.592   5.267  0.0230 -0.0034 -0.1878
  165POPC   PO4 2523   6.622   9.460   5.476 -0.0683 -0.1067 -0.1177
  165POPC   GL1 2524   6.436   9.534   5.855 -0.0214 -0.1503 -0.0875
  165POPC   GL2 2525   6.139   9.674   5.895  0.0117 -0.0552  0.1607
  165POPC   C1A 2526   6.697   9.615   6.164  0.1286  0.0324  0.0996
  165POPC   D2A 2527   7.073   9.743   6.356  0.0155 -0.2477  0.1082
  165POPC   C3A 2528   7.178   9.908   6.772  0.1421 -0.0359  0.0016
  165POPC   C4A 2529   7.545   9.989   7.058  0.1259 -0.0044 -0.1708
  165POPC   C1B 2530   6.279   9.971   6.140 -0.0570 -0.2574  0.2035
  165POPC   C2B 2531   6.516   9.912   6.522  0.3295 -0.1702 -0.0207
  165POPC   C3B 2532   6.733   9.768   6.770  0.2155  0.1134 -0.0084
  165POPC   C4B 2533   6.870   9.470   7.051 -0.1973  0.0458 -0.5666
  166POPC   NC3 2534   8.983   6.376   5.439  0.0641  0.2082 -0.0502
  166POPC   PO4 2535   9.314   6.055   5.269  0.0873 -0.0624 -0.2313
  166POPC   GL1 2536   9.275   6.101   5.713 -0.0813  0.2769 -0.0892
  166POPC   GL2 2537   9.242   6.355   5.842 -0.2067 -0.2519  0.1848
  166POPC   C1A 2538   9.167   5.833   6.087 -0.1424  0.3900  0.0837
  166POPC   D2A 2539   9.077   5.542   6.317 -0.0417  0.2423  0.1573
  166POPC   C3A 2540   8.794   5.279   6.376 -0.3589 -0.0255 -0.1686
  166POPC   C4A 2541   8.739   4.998   6.781  0.1102  0.0638 -0.0875
  166POPC   C1B 2542   9.137   6.688   6.179  0.2214 -0.1481  0.1300
  166POPC   C2B 2543   9.075   6.915   6.583 -0.0026 -0.0467  0.1085
  166POPC   C3B 2544   9.075   7.159   6.966  0.0291 -0.0223  0.3202
  166POPC   C4B 2545   8.987   7.472   7.153  0.3349  0.3129  0.1329
  167POPC   NC3 2546   3.132   8.669   5.329 -0.2741 -0.2007 -0.1083
  167POPC   PO4 2547   3.514   8.282   5.399 -0.1346 -0.0636 -0.2588
  167POPC   GL1 2548   3.469   8.502   5.747 -0.1780 -0.3031  0.1862
  167POPC   GL2 2549   3.612   8.249   5.899 -0.2730  0.3667 -0.3350
  167POPC   C1A 2550   3.204   8.448   6.177  0.2976  0.3093  0.1887
  167POPC   D2A 2551   2.890   8.557   6.574 -0.2512 -0.1202 -0.0052
  167POPC   C3A 2552   2.935   8.901   6.789 -0.2688 -0.0965 -0.1560
  167POPC   C4A 2553   2.768   9.185   7.099 -0.1184  0.2027 -0.1537
  167POPC   C1B 2554   3.982   8.215   6.221  0.1163 -0.0523  0.0913
  167POPC   C2B 2555   4.160   8.239   6.653  0.0489 -0.0041 -0.0889
  167POPC   C3B 2556   4.350   8.459   6.985  0.1106  0.0332 -0.1443
  167POPC   C4B 2557   4.465   8.931   7.166 -0.3686  0.0508  0.0269
  168POPC   NC3 2558   1.034   3.638   4.997  0.2505 -0.2522 -0.4383
  168POPC   PO4 2559   1.405   3.802   5.051  0.0680  0.1165 -0.0528
  168POPC   GL1 2560   1.298   4.015   5.415  0.0205 -0.2474  0.2818
  168POPC   GL2 2561   1.570   3.787   5.581  0.3242 -0.2158 -0.2765
  168POPC   C1A 2562   0.896   4.011   5.656  0.1703  0.0778 -0.0242
  168POPC   D2A 2563   0.527   4.178   5.739 -0.1882 -0.3196 -0.0694
  168POPC   C3A 2564   0.478   4.172   6.135  0.4306 -0.1154 -0.0348
  168POPC   C4A 2565   0.405   4.143   6.624  0.2575 -0.2616 -0.0035
  168POPC   C1B 2566   1.216   3.773   5.881 -0.0546  0.2486 -0.0115
  168POPC   C2B 2567   1.007   3.424   5.967  0.0158  0.1677  0.3292
  168POPC   C3B 2568   0.986   3.182   6.294  0.1581  0.0015 -0.2758
  168POPC   C4B 2569   0.890   2.813   6.501 -0.0378  0.2916  0.1986
  169POPC   NC3 2570   2.098  10.024   5.419 -0.1478 -0.2888 -0.1521
  169POPC   PO4 2571   2.302   9.585   5.351 -0.1711 -0.2480 -0.3717
  169POPC   GL1 2572   2.175   9.620   5.773 -0.1034 -0.0421  0.0993
  169POPC   GL2 2573   1.758   9.533   5.741  0.1679  0.4174 -0.1878
  169POPC   C1A 2574   2.373   9.552   6.124  0.0830 -0.1455  0.0718
  169POPC   D2A 2575   2.468   9.940   6.486  0.0512  0.0326 -0.2257
  169POPC   C3A 2576   2.798   9.850   6.818 -0.1674 -0.0634  0.0313
  169POPC   C4A 2577   3.146  10.036   7.040  0.0536 -0.1260 -0.2832
  169POPC   C1B 2578   1.451   9.739   6.019  0.1556 -0.0283 -0.0906
  169POPC   C2B 2579   1.401   9.638   6.450 -0.2149 -0.0882 -0.3309
  169POPC   C3B 2580   1.553   9.611   6.756 -0.2670 -0.0440 -0.1849
  169POPC   C4B 2581   1.747   9.469   7.106  0.0596 -0.4215  0.2103
  170POPC   NC3 2582   1.483   2.806   4.430  0.0527  0.1793 -0.1642
  170POPC   PO4 2583   1.619   3.065   4.770  0.2625 -0.3158 -0.2571
  170POPC   GL1 2584   1.370   3.052   5.202 -0.1221  0.2004  0.0143
  170POPC   GL2 2585   1.624   2.885   5.325 -0.0553  0.3083 -0.1678
  170POPC   C1A 2586   1.240   3.109   5.646  0.1362  0.1065 -0.1371
  170POPC   D2A 2587   1.151   2.813   5.924 -0.0160  0.1856  0.0117
  170POPC   C3A 2588   0.817   2.488   6.044  0.0027  0.3235  0.0695
  170POPC   C4A 2589   0.364   2.322   6.090  0.0470  0.0048 -0.1098
  170POPC   C1B 2590   1.660   2.916   5.780  0.3162  0.1010 -0.2688
  170POPC   C2B 2591   1.464   3.005   6.303 -0.1274  0.0642 -0.1024
  170POPC   C3B 2592   1.539   2.750   6.735 -0.0725  0.2051 -0.0817
  170POPC   C4B 2593   1.343   2.302   6.855  0.2015 -0.0662 -0.0911
  171POPC   NC3 2594   0.616   6.036   4.928  0.0067  0.0970  0.3856
  171POPC   PO4 2595   0.259   6.256   5.104 -0.5562  0.0174  0.1090
  171POPC   GL1 2596   0.502   6.001   5.463  0.2272 -0.0733  0.1220
  171POPC   GL2 2597   0.181   5.983   5.614  0.2769 -0.0575 -0.1701
  171POPC   C1A 2598   0.565   5.932   5.957  0.0815 -0.0150  0.1527
  171POPC   D2A 2599   0.476   6.138   6.290 -0.1016  0.0430 -0.1616
  171POPC   C3A 2600   0.206   5.960   6.564  0.2176  0.1138 -0.1147
  171POPC   C4A 2601  -0.031   5.742   6.832 -0.2311 -0.1439 -0.0308
  171POPC   C1B 2602   0.030   5.839   6.036  0.3859  0.1116  0.0622
  171POPC   C2B 2603  -0.199   5.567   6.295  0.0508  0.3031  0.0051
  171POPC   C3B 2604  -0.636   5.498   6.584  0.0235  0.1329  0.1433
  171POPC   C4B 2605  -0.851   5.746   6.681 -0.2670 -0.1697  0.0356
  172POPC   NC3 2606   4.268   8.009   5.526 -0.0690 -0.2423 -0.2434
  172POPC   PO4 2607   4.669   8.287   5.300 -0.0761 -0.0491  0.1593
  172POPC   GL1 2608   4.884   8.368   5.728  0.0806 -0.3825  0.2376
  172POPC   GL2 2609   4.781   8.079   5.905 -0.0279 -0.0556 -0.0511
  172POPC   C1A 2610   4.801   8.561   6.120  0.0085  0.2234  0.2701
  172POPC   D2A 2611   4.722   8.931   6.305  0.1994  0.5424  0.1725
  172POPC   C3A 2612   4.970   8.862   6.795  0.1995 -0.0679 -0.5325
  172POPC   C4A 2613   5.076   8.998   7.195  0.1679 -0.0094 -0.4646
  172POPC   C1B 2614   4.503   8.015   6.288  0.0911 -0.2509  0.3074
  172POPC   C2B 2615   4.293   7.768   6.631 -0.0822 -0.0116  0.0018
  172POPC   C3B 2616   3.933   7.566   6.880  0.0757  0.1995 -0.1156
  172POPC   C4B 2617   3.949   7.362   7.229  0.1768  0.2148  0.0145
  173POPC   NC3 2618   3.122   7.399   5.452 -0.1313  0.0317  0.0748
  173POPC   PO4 2619   2.724   7.316   5.531  0.1014  0.3213 -0.2804
  173POPC   GL1 2620   2.463   7.117   5.857 -0.0357  0.3306 -0.2102
  173POPC   GL2 2621   2.202   6.802   5.734  0.0382  0.2889 -0.0422
  173POPC   C1A 2622   2.575   6.842   6.113 -0.0378 -0.0020  0.0464
  173POPC   D2A 2623   2.443   6.521   6.245  0.2232  0.0606  0.2143
  173POPC   C3A 2624   2.242   6.338   6.614  0.0076  0.0695 -0.3335
  173POPC   C4A 2625   2.435   6.230   7.004 -0.0679  0.1615 -0.1818
  173POPC   C1B 2626   2.080   6.885   6.118 -0.2777  0.0793  0.2098
  173POPC   C2B 2627   2.225   6.837   6.598 -0.0604  0.0305  0.0412
  173POPC   C3B 2628   2.235   6.748   7.001  0.0606 -0.3255 -0.0827
  173POPC   C4B 2629   2.294   6.646   7.313  0.0037  0.0595 -0.1590
  174POPC   NC3 2630   3.752   0.874   4.941  0.2147 -0.0845  0.1655
  174POPC   PO4 2631   3.937   1.175   5.356 -0.0238 -0.0427 -0.0415
  174POPC   GL1 2632   4.124   0.978   5.780  0.0797  0.0660 -0.2583
  174POPC   GL2 2633   3.896   0.699   5.887  0.2236  0.1293  0.2124
  174POPC   C1A 2634   4.350   0.622   6.104  0.1167  0.4825 -0.0911
  174POPC   D2A 2635   4.425   0.256   6.409  0.0535  0.0379 -0.0676
  174POPC   C3A 2636   4.234   0.397   6.805 -0.0477 -0.0552 -0.0660
  174POPC   C4A 2637   3.978   0.502   7.179  0.3768 -0.0501  0.0990
  174POPC   C1B 2638   3.462   0.665   5.894 -0.0226 -0.0642 -0.0928
  174POPC   C2B 2639   3.249   0.493   6.285 -0.1786 -0.1379  0.2389
  174POPC   C3B 2640   2.847   0.525   6.561  0.0960  0.0178 -0.2021
  174POPC   C4B 2641   2.649   0.217   6.728 -0.0471 -0.2716  0.0473
  175POPC   NC3 2642   9.784   9.592   4.039 -0.0043 -0.1935  0.2876
  175POPC   PO4 2643   9.606   9.903   4.327  0.2780 -0.0576  0.4744
  175POPC   GL1 2644   9.606  10.099   4.739 -0.0398  0.0209 -0.0856
  175POPC   GL2 2645   9.311  10.101   4.789 -0.1829 -0.0901 -0.0421
  175POPC   C1A 2646   9.740  10.196   5.248  0.3169  0.0913  0.0964
  175POPC   D2A 2647   9.907   9.957   5.586 -0.1108 -0.1010 -0.2684
  175POPC   C3A 2648   9.858   9.578   5.705  0.1601 -0.2286  0.2262
  175POPC   C4A 2649   9.577   9.273   5.778 -0.3492  0.0755 -0.0238
  175POPC   C1B 2650   9.470   9.746   5.049  0.1935  0.0051 -0.0035
  175POPC   C2B 2651   9.286   9.416   5.194 -0.2087  0.0539  0.2641
  175POPC   C3B 2652   9.107   9.111   5.523 -0.0522  0.0042 -0.1397
  175POPC   C4B 2653   9.402   8.829   5.770 -0.0958  0.2496 -0.0731
  176POPC   NC3 2654   7.149   8.638   5.136 -0.3566 -0.0007  0.2593
  176POPC   PO4 2655   7.313   8.433   5.389 -0.2031  0.0435 -0.0093
  176POPC   GL1 2656   7.088   8.556   5.758 -0.0602 -0.0601 -0.2799
  176POPC   GL2 2657   6.781   8.463   5.746  0.1100  0.2453 -0.1170
  176POPC   C1A 2658   7.365   8.579   6.190  0.3090 -0.1724 -0.0115
  176POPC   D2A 2659   7.605   8.537   6.555  0.1029 -0.2888  0.1390
  176POPC   C3A 2660   8.086   8.278   6.433  0.2128  0.0088  0.1932
  176POPC   C4A 2661   8.439   8.400   6.512  0.1114 -0.1501 -0.3635
  176POPC   C1B 2662   6.747   8.521   6.159  0.1225 -0.2091  0.2471
  176POPC   C2B 2663   6.656   8.617   6.619 -0.0209  0.0156  0.2008
  176POPC   C3B 2664   6.751   8.456   7.073 -0.1168  0.1454 -0.1400
  176POPC   C4B 2665   6.576   8.749   7.472  0.1149  0.0250 -0.1721
  177POPC   NC3 2666   2.106   1.976   4.233  0.0811  0.0036  0.1226
  177POPC   PO4 2667   1.887   1.557   4.350 -0.1788  0.0218  0.1890
  177POPC   GL1 2668   1.749   1.446   4.855 -0.0660  0.3023  0.2177
  177POPC   GL2 2669   1.400   1.376   5.043  0.2398  0.0921  0.2591
  177POPC   C1A 2670   1.894   1.425   5.352  0.1135 -0.2111  0.2107
  177POPC   D2A 2671   1.884   1.712   5.711 -0.0385  0.1527  0.0952
  177POPC   C3A 2672   1.556   1.997   5.754 -0.1993  0.1698  0.1047
  177POPC   C4A 2673   1.246   2.364   5.677  0.0152 -0.2402  0.1794
  177POPC   C1B 2674   0.964   1.401   5.164 -0.0025  0.2743 -0.1278
  177POPC   C2B 2675   0.696   1.578   5.397  0.5084 -0.0533  0.3261
  177POPC   C3B 2676   0.644   1.824   5.719 -0.0936 -0.0551  0.3454
  177POPC   C4B 2677   0.474   1.811   6.114  0.0311 -0.2045  0.0880
  178POPC   NC3 2678   2.806   0.464   4.847  0.3813 -0.2910 -0.0222
  178POPC   PO4 2679   3.035   0.797   5.181 -0.0635  0.0867  0.3625
  178POPC   GL1 2680   2.980   0.748   5.577  0.0030 -0.0069 -0.2209
  178POPC   GL2 2681   3.065   0.450   5.686  0.2293  0.1793  0.1503
  178POPC   C1A 2682   3.018   0.930   6.031 -0.0323  0.0805  0.0231
  178POPC   D2A 2683   2.660   1.112   6.294 -0.3061 -0.2154 -0.2161
  178POPC   C3A 2684   2.487   0.842   6.577  0.1829 -0.0375  0.1750
  178POPC   C4A 2685   2.575   0.728   6.978 -0.0539  0.1246  0.2670
  178POPC   C1B 2686   2.798   0.446   6.027  0.0297 -0.3239  0.0139
  178POPC   C2B 2687   2.406   0.339   6.342 -0.0585  0.1612 -0.1055
  178POPC   C3B 2688   2.138   0.144   6.614 -0.1232  0.1795 -0.0136
  178POPC   C4B 2689   1.956   0.115   6.895 -0.0924 -0.0778  0.4333
  179POPC   NC3 2690   9.729   6.005   5.008  0.0262 -0.1857 -0.1214
  179POPC   PO4 2691   9.854   5.611   5.054  0.0172 -0.0542  0.5281
  179POPC   GL1 2692   9.797   5.683   5.426  0.1896 -0.1657  0.0035
  179POPC   GL2 2693  10.122   5.512   5.505 -0.2646  0.3278 -0.3721
  179POPC   C1A 2694   9.562   5.699   5.816 -0.1461 -0.1681  0.1311
  179POPC   D2A 2695   9.616   5.913   6.253 -0.0489 -0.2373  0.0650
  179POPC   C3A 2696   9.434   6.272   6.313 -0.5157  0.0399  0.0577
  179POPC   C4A 2697   9.392   6.198   6.831  0.0921 -0.2200 -0.1600
  179POPC   C1B 2698   9.861   5.338   5.851 -0.2454  0.0928 -0.1027
  179POPC   C2B 2699   9.637   5.098   6.226  0.3177  0.0487 -0.0418
  179POPC   C3B 2700   9.479   4.953   6.575  0.1506 -0.3073 -0.0628
  179POPC   C4B 2701   9.094   4.621   6.819 -0.2308  0.1436  0.0915
  180POPC   NC3 2702   5.290   8.552   5.587 -0.3682  0.2153  0.0505
  180POPC   PO4 2703   5.252   8.096   5.555  0.1730 -0.0041 -0.1451
  180POPC   GL1 2704   5.278   7.798   5.745  0.1149 -0.1986 -0.2213
  180POPC   GL2 2705   5.032   7.584   5.731  0.0730 -0.0398 -0.2756
  180POPC   C1A 2706   5.416   7.520   6.138  0.2076  0.0137 -0.1356
  180POPC   D2A 2707   5.504   7.239   6.521  0.1275 -0.1175 -0.2842
  180POPC   C3A 2708   5.416   7.284   6.944 -0.0083 -0.1882  0.1053
  180POPC   C4A 2709   5.371   7.053   7.313 -0.0517 -0.0534 -0.0956
  180POPC   C1B 2710   4.938   7.667   6.227 -0.0011  0.3368  0.1914
  180POPC   C2B 2711   5.203   7.649   6.555 -0.2019  0.4146  0.1282
  180POPC   C3B 2712   5.217   7.784   6.949  0.1466 -0.2046 -0.2446
  180POPC   C4B 2713   5.334   7.612   7.297  0.0646  0.3478  0.0034
  181POPC   NC3 2714   7.133   6.627   5.404  0.5423 -0.4661 -0.0390
  181POPC   PO4 2715   7.595   6.900   5.376  0.2296 -0.1859  0.0430
  181POPC   GL1 2716   7.426   6.670   5.817 -0.1373 -0.2416  0.4242
  181POPC   GL2 2717   7.202   6.858   5.883 -0.0634  0.0005  0.0705
  181POPC   C1A 2718   7.293   6.511   6.239  0.1306  0.0999  0.3270
  181POPC   D2A 2719   7.465   6.341   6.741  0.0773  0.2606  0.0573
  181POPC   C3A 2720   7.902   6.293   6.906 -0.0363  0.1545  0.3564
  181POPC   C4A 2721   8.250   6.079   6.918 -0.0886 -0.2780  0.0244
  181POPC   C1B 2722   7.257   7.118   6.195 -0.2302 -0.0536  0.2687
  181POPC   C2B 2723   7.232   7.295   6.620  0.1250 -0.0648 -0.0042
  181POPC   C3B 2724   7.148   7.652   6.768 -0.0047 -0.2699 -0.3152
  181POPC   C4B 2725   7.137   8.026   7.050 -0.1787  0.3734 -0.2513
  182POPC   NC3 2726   4.409   7.087   5.543 -0.1717 -0.3312 -0.2294
  182POPC   PO4 2727   4.011   7.348   5.651  0.1322 -0.2381  0.2525
  182POPC   GL1 2728   4.112   7.060   5.963  0.0118  0.0895 -0.0976
  182POPC   GL2 2729   3.980   7.213   6.158 -0.0535 -0.1554  0.0407
  182POPC   C1A 2730   4.400   6.968   6.262 -0.1982  0.3493  0.0837
  182POPC   D2A 2731   4.693   6.819   6.675 -0.1186 -0.1042 -0.2059
  182POPC   C3A 2732   4.594   6.429   6.964  0.1610 -0.1270  0.2130
  182POPC   C4A 2733   4.217   6.240   7.130 -0.1746  0.0365  0.3575
  182POPC   C1B 2734   3.993   7.077   6.467 -0.0347  0.1201 -0.2676
  182POPC   C2B 2735   3.963   6.966   6.797 -0.2985 -0.0277 -0.1063
  182POPC   C3B 2736   4.230   6.753   7.131 -0.2049  0.0369  0.2785
  182POPC   C4B 2737   4.369   6.743   7.480 -0.0169  0.1443  0.0856
  183POPC   NC3 2738   8.101   9.031   5.111  0.0716 -0.0085 -0.2473
  183POPC   PO4 2739   8.366   8.706   5.160 -0.0383 -0.0231  0.3264
  183POPC   GL1 2740   8.173   8.668   5.558 -0.1412 -0.3195  0.1568
  183POPC   GL2 2741   7.995   8.930   5.664 -0.2250 -0.1764 -0.0695
  183POPC   C1A 2742   8.361   8.764   5.982 -0.2148  0.4359  0.1288
  183POPC   D2A 2743   8.641   8.866   6.363  0.1145  0.3872  0.1841
  183POPC   C3A 2744   8.710   9.253   6.462  0.2674 -0.2240  0.1827
  183POPC   C4A 2745   8.697   9.658   6.761  0.1360 -0.0693 -0.1779
  183POPC   C1B 2746   8.101   9.125   6.075 -0.0146  0.0408  0.1703
  183POPC   C2B 2747   8.166   9.285   6.508 -0.1635  0.1527  0.0590
  183POPC   C3B 2748   8.303   9.384   6.920 -0.0375 -0.0562  0.0369
  183POPC   C4B 2749   8.441   9.796   7.138  0.0414 -0.0723  0.0340
  184POPC   NC3 2750   9.042   2.858   3.757 -0.1136 -0.0984 -0.1264
  184POPC   PO4 2751   9.246   2.482   3.570 -0.0972  0.2764  0.0980
  184POPC   GL1 2752   9.182   2.368   3.898 -0.0042 -0.2751  0.2064
  184POPC   GL2 2753   9.373   2.516   4.084 -0.0995 -0.0167 -0.0630
  184POPC   C1A 2754   9.079   1.993   4.101 -0.4166  0.0039  0.2388
  184POPC   D2A 2755   9.399   1.693   4.208 -0.3996  0.0403 -0.2473
  184POPC   C3A 2756   9.294   1.522   4.627  0.1199  0.2943  0.0764
  184POPC   C4A 2757   9.015   1.302   4.921  0.3685 -0.3417  0.1361
  184POPC   C1B 2758   9.215   2.326   4.438  0.2702  0.0885 -0.0630
  184POPC   C2B 2759   9.027   2.450   4.881 -0.1510  0.0804  0.1700
  184POPC   C3B 2760   9.037   2.562   5.256  0.2214 -0.2362  0.1276
  184POPC   C4B 2761   8.898   2.450   5.698  0.2040  0.4898 -0.3918
  185POPC   NC3 2762   5.678   5.867   5.062  0.0886  0.3922 -0.2030
  185POPC   PO4 2763   6.052   5.737   5.043  0.3317 -0.0775  0.2846
  185POPC   GL1 2764   6.080   5.787   5.553  0.0892  0.1647 -0.1613
  185POPC   GL2 2765   5.814   6.050   5.666 -0.1121 -0.1401  0.2346
  185POPC   C1A 2766   5.863   5.607   5.894  0.1291  0.0189 -0.3488
  185POPC   D2A 2767   5.484   5.506   6.207  0.0780  0.0198  0.3446
  185POPC   C3A 2768   5.613   5.631   6.598 -0.0674  0.0141 -0.1539
  185POPC   C4A 2769   5.696   5.957   6.955 -0.0840  0.0212 -0.0362
  185POPC   C1B 2770   5.638   5.978   6.113  0.0405  0.1161 -0.1951
  185POPC   C2B 2771   5.773   6.163   6.473  0.0085  0.0311  0.1193
  185POPC   C3B 2772   5.719   6.455   6.744  0.3811  0.0436  0.1232
  185POPC   C4B 2773   5.616   6.804   6.982  0.1446 -0.3300 -0.1053
  186POPC   NC3 2774   9.711   2.849   3.831  0.0556 -0.0600 -0.2470
  186POPC   PO4 2775   9.402   3.177   3.958  0.2326  0.3141 -0.1881
  186POPC   GL1 2776   9.364   3.351   4.296 -0.2711 -0.0776  0.1258
  186POPC   GL2 2777   9.033   3.452   4.244 -0.1258 -0.0377 -0.2368
  186POPC   C1A 2778   9.249   3.443   4.741  0.1942  0.0517 -0.1258
  186POPC   D2A 2779   9.015   3.577   5.189 -0.3306  0.4635 -0.0279
  186POPC   C3A 2780   9.250   3.339   5.494  0.0591  0.0365 -0.1375
  186POPC   C4A 2781   9.336   3.068   5.845 -0.2956 -0.3246 -0.2039
  186POPC   C1B 2782   8.752   3.472   4.515 -0.0216  0.2097 -0.0095
  186POPC   C2B 2783   8.403   3.652   4.634 -0.0517  0.0024  0.0744
  186POPC   C3B 2784   8.091   3.804   4.893 -0.0244 -0.2540 -0.7097
  186POPC   C4B 2785   7.781   3.482   5.058 -0.0653 -0.3957  0.0744
  187POPC   NC3 2786   1.966   5.702   4.988 -0.1095 -0.0298  0.0960
  187POPC   PO4 2787   1.476   5.670   5.155 -0.2078 -0.1571  0.1811
  187POPC   GL1 2788   1.427   5.283   5.444  0.4950  0.1889  0.0297
  187POPC   GL2 2789   1.092   5.273   5.442  0.4145 -0.2657 -0.3604
  187POPC   C1A 2790   1.314   5.081   5.866 -0.0419  0.2238  0.0825
  187POPC   D2A 2791   1.038   4.990   6.155 -0.3365 -0.0493  0.0901
  187POPC   C3A 2792   1.067   5.213   6.612 -0.2070  0.2615  0.2148
  187POPC   C4A 2793   0.959   5.357   7.051  0.2639  0.0735  0.0179
  187POPC   C1B 2794   0.905   5.512   5.855  0.1733 -0.0465  0.3469
  187POPC   C2B 2795   0.785   5.391   6.215  0.3692  0.1796  0.0699
  187POPC   C3B 2796   0.710   5.703   6.568 -0.1748  0.1092  0.2440
  187POPC   C4B 2797   0.620   6.155   6.771 -0.1634  0.1283 -0.1068
  188POPC   NC3 2798   1.029   2.065   4.246 -0.2941  0.1453 -0.1042
  188POPC   PO4 2799   1.300   2.343   4.401 -0.2195 -0.0059 -0.1312
  188POPC   GL1 2800   1.338   2.212   4.787  0.1434  0.0447  0.2148
  188POPC   GL2 2801   1.206   1.852   4.977 -0.1169 -0.1559 -0.3252
  188POPC   C1A 2802   1.352   2.301   5.178 -0.1463  0.0705  0.1269
  188POPC   D2A 2803   1.728   2.365   5.395 -0.2252 -0.2172  0.1483
  188POPC   C3A 2804   1.799   2.433   5.799 -0.0201  0.0440 -0.0443
  188POPC   C4A 2805   1.821   2.604   6.295  0.0207 -0.0901  0.0693
  188POPC   C1B 2806   1.085   1.930   5.472 -0.0470  0.1224  0.1411
  188POPC   C2B 2807   1.054   1.907   5.951 -0.0228 -0.0138  0.0380
  188POPC   C3B 2808   1.127   2.121   6.275 -0.1746 -0.4233 -0.3989
  188POPC   C4B 2809   1.286   2.530   6.362  0.1851 -0.2000  0.0007
  189POPC   NC3 2810   6.972   4.728   4.958 -0.0487  0.0212 -0.0149
  189POPC   PO4 2811   6.750   4.399   5.110  0.1927 -0.1072 -0.0371
  189POPC   GL1 2812   6.848   4.052   5.357  0.1471 -0.0606  0.0614
  189POPC   GL2 2813   7.219   3.941   5.281 -0.2323  0.2262  0.3558
  189POPC   C1A 2814   6.984   4.242   5.721  0.0844 -0.0598  0.2053
  189POPC   D2A 2815   6.980   4.064   6.050  0.1338  0.0843 -0.0642
  189POPC   C3A 2816   7.129   4.203   6.468 -0.2037  0.0210  0.1511
  189POPC   C4A 2817   7.370   4.261   6.853  0.2701 -0.2144  0.1852
  189POPC   C1B 2818   7.407   3.515   5.377  0.1465  0.4582 -0.0444
  189POPC   C2B 2819   7.450   3.098   5.546 -0.2603  0.1038 -0.0489
  189POPC   C3B 2820   7.747   2.852   5.789  0.3106 -0.0958 -0.2641
  189POPC   C4B 2821   8.083   2.768   5.950  0.2058  0.1094 -0.1364
  190POPC   NC3 2822   9.387   7.193   5.387  0.3191 -0.1823  0.2507
  190POPC   PO4 2823   8.945   7.349   5.156  0.1559  0.0690  0.2858
  190POPC   GL1 2824   8.956   7.285   5.565  0.1740 -0.0095 -0.2411
  190POPC   GL2 2825   8.791   7.537   5.705  0.2474  0.5293  0.4373
  190POPC   C1A 2826   8.653   7.090   5.800  0.1793  0.2571  0.1018
  190POPC   D2A 2827   8.728   6.988   6.210 -0.0410  0.0349 -0.1468
  190POPC   C3A 2828   8.556   6.866   6.648 -0.2164 -0.2515  0.2560
  190POPC   C4A 2829   8.395   6.572   6.942  0.0618 -0.1415 -0.4146
  190POPC   C1B 2830   9.058   7.352   6.080  0.1959  0.0221 -0.3824
  190POPC   C2B 2831   9.185   7.466   6.516 -0.1921 -0.0250 -0.2364
  190POPC   C3B 2832   9.437   7.474   6.872 -0.2578 -0.5469  0.1099
  190POPC   C4B 2833   9.608   7.389   7.236 -0.0044 -0.0567 -0.0281
  191POPC   NC3 2834   6.912   9.724   5.172 -0.0364 -0.1785  0.0643
  191POPC   PO4 2835   6.505   9.979   5.380 -0.0084  0.2722 -0.0568
  191POPC   GL1 2836   6.109  10.152   5.403 -0.1250  0.0473 -0.0069
  191POPC   GL2 2837   5.882   9.994   5.635  0.2754  0.1059  0.0241
  191POPC   C1A 2838   5.970  10.396   5.890 -0.4297 -0.3247 -0.0007
  191POPC   D2A 2839   5.926  10.277   6.306 -0.1452 -0.1311  0.0849
  191POPC   C3A 2840   6.181  10.359   6.522 -0.0328 -0.4581  0.0024
  191POPC   C4A 2841   6.534  10.264   6.882 -0.3517  0.3330 -0.1615
  191POPC   C1B 2842   5.771   9.883   6.088  0.0866  0.0584 -0.4152
  191POPC   C2B 2843   5.858   9.751   6.498  0.2339 -0.2365  0.0056
  191POPC   C3B 2844   5.975   9.981   6.863  0.0647 -0.0981 -0.2433
  191POPC   C4B 2845   5.754   9.931   7.205 -0.0504  0.1731 -0.0158
  192POPC   NC3 2846   6.225   8.640   4.979  0.2424 -0.2961 -0.4400
  192POPC   PO4 2847   6.602   8.638   5.286 -0.0270 -0.1436 -0.1926
  192POPC   GL1 2848   6.490   8.874   5.632 -0.0277  0.2083 -0.1192
  192POPC   GL2 2849   6.251   8.616   5.744 -0.1081  0.1496 -0.2816
  192POPC   C1A 2850   6.618   9.060   6.005  0.0145 -0.4162 -0.1304
  192POPC   D2A 2851   6.666   9.067   6.367  0.0422 -0.3425 -0.0816
  192POPC   C3A 2852   6.886   9.336   6.568  0.0563 -0.1309  0.1033
  192POPC   C4A 2853   7.349   9.391   6.743 -0.3281 -0.2097 -0.0045
  192POPC   C1B 2854   6.232   8.647   6.089  0.5209  0.1091  0.1878
  192POPC   C2B 2855   5.963   8.345   6.300 -0.2948 -0.2324  0.0053
  192POPC   C3B 2856   5.900   8.149   6.666 -0.1874  0.0694 -0.2976
  192POPC   C4B 2857   6.178   7.822   6.840  0.2131 -0.0230 -0.1784
  193POPC   NC3 2858   4.295   3.530   5.269 -0.0469 -0.1731  0.0578
  193POPC   PO4 2859   3.937   3.297   5.141  0.0110  0.0806 -0.2286
  193POPC   GL1 2860   3.898   3.153   5.602  0.0365 -0.2131  0.1032
  193POPC   GL2 2861   3.717   2.906   5.640 -0.3688  0.2410  0.1690
  193POPC   C1A 2862   4.062   2.910   5.961 -0.1456  0.1876  0.0998
  193POPC   D2A 2863   4.483   2.964   6.092 -0.0472  0.0541 -0.1122
  193POPC   C3A 2864   4.469   3.368   6.341  0.0125 -0.0584 -0.1060
  193POPC   C4A 2865   4.678   3.407   6.703  0.1047  0.0116  0.0169
  193POPC   C1B 2866   3.263   2.942   5.819  0.4485 -0.0385 -0.2387
  193POPC   C2B 2867   2.806   2.960   5.925  0.2513 -0.1453 -0.1237
  193POPC   C3B 2868   2.603   2.840   6.221 -0.1997 -0.1019  0.1075
  193POPC   C4B 2869   2.291   2.547   6.303 -0.2687 -0.1250  0.2998
  194POPC   NC3 2870   2.356   6.979   5.284 -0.0017 -0.0586 -0.1802
  194POPC   PO4 2871   2.095   6.592   5.319  0.0670  0.0213  0.0780
  194POPC   GL1 2872   1.890   6.377   5.632 -0.0788 -0.2060 -0.0248
  194POPC   GL2 2873   1.975   6.370   5.967 -0.1261 -0.0832  0.1224
  194POPC   C1A 2874   1.514   6.214   5.841  0.2015 -0.2693 -0.0376
  194POPC   D2A 2875   1.391   6.207   6.217 -0.1352  0.1214  0.0268
  194POPC   C3A 2876   1.607   5.878   6.381 -0.3619 -0.0094 -0.1544
  194POPC   C4A 2877   1.675   5.608   6.786 -0.0387  0.0080 -0.1539
  194POPC   C1B 2878   1.851   6.546   6.350  0.0305  0.2619  0.0393
  194POPC   C2B 2879   1.787   6.609   6.796  0.0663  0.0848  0.0108
  194POPC   C3B 2880   1.858   6.423   7.184 -0.0001  0.1024  0.1474
  194POPC   C4B 2881   1.918   6.099   7.527 -0.1105  0.1951  0.0997
  195POPC   NC3 2882   1.815   9.380   5.252  0.1311  0.1578  0.1174
  195POPC   PO4 2883   1.650   9.846   5.313  0.0901  0.3000 -0.3680
  195POPC   GL1 2884   1.521  10.076   5.526 -0.0900 -0.1011 -0.1293
  195POPC   GL2 2885   1.258   9.921   5.595 -0.2229  0.1405 -0.1530
  195POPC   C1A 2886   1.705  10.223   5.920  0.1421  0.0570 -0.0797
  195POPC   D2A 2887   1.948  10.475   6.200  0.2217  0.0962 -0.0015
  195POPC   C3A 2888   1.922  10.805   6.510 -0.0352 -0.3446  0.0321
  195POPC   C4A 2889   2.021  10.819   6.873 -0.0512  0.2951 -0.0119
  195POPC   C1B 2890   1.099  10.131   5.883  0.1884 -0.1678  0.3030
  195POPC   C2B 2891   1.398  10.253   6.251  0.1355 -0.0769 -0.1603
  195POPC   C3B 2892   1.533  10.503   6.482 -0.0418  0.0607 -0.1346
  195POPC   C4B 2893   1.562  10.678   6.899 -0.1439 -0.1358  0.0413
  196POPC   NC3 2894   4.779   5.249   5.290  0.1187 -0.2888 -0.2125
  196POPC   PO4 2895   4.927   4.800   5.310 -0.1058 -0.1505 -0.0760
  196POPC   GL1 2896   4.821   4.890   5.737 -0.2269 -0.1318  0.1918
  196POPC   GL2 2897   5.087   5.160   5.780 -0.0296  0.3242  0.1847
  196POPC   C1A 2898   4.814   4.978   6.179  0.1962 -0.2525 -0.0131
  196POPC   D2A 2899   4.610   5.253   6.546 -0.1366  0.3356 -0.1788
  196POPC   C3A 2900   4.427   5.113   6.889  0.0264  0.0581 -0.1763
  196POPC   C4A 2901   4.384   5.337   7.270  0.2081  0.2021 -0.0077
  196POPC   C1B 2902   5.594   5.243   5.715 -0.2628  0.3166 -0.1050
  196POPC   C2B 2903   5.999   5.107   5.919  0.1919  0.0360  0.1360
  196POPC   C3B 2904   6.172   5.378   6.300  0.0790  0.0924 -0.0742
  196POPC   C4B 2905   6.073   5.780   6.439 -0.0536 -0.4308 -0.1795
  197POPC   NC3 2906   1.794   4.151   5.183  0.3489 -0.0679  0.0910
  197POPC   PO4 2907   2.044   4.490   5.186  0.2557 -0.0026  0.0625
  197POPC   GL1 2908   1.930   4.686   5.573  0.0407  0.1908  0.1273
  197POPC   GL2 2909   1.860   4.997   5.425 -0.0954  0.0230 -0.4669
  197POPC   C1A 2910   1.662   4.653   5.876  0.0029  0.0424  0.2262
  197POPC   D2A 2911   1.497   4.594   6.193 -0.0043 -0.2437 -0.2336
  197POPC   C3A 2912   1.100   4.569   6.457  0.1652 -0.0073 -0.0231
  197POPC   C4A 2913   0.721   4.566   6.305 -0.0336 -0.2359  0.0507
  197POPC   C1B 2914   1.801   5.162   5.800 -0.2445  0.2653 -0.0755
  197POPC   C2B 2915   1.710   5.050   6.197  0.1604  0.1934 -0.2770
  197POPC   C3B 2916   1.548   5.064   6.668  0.0010 -0.0226  0.1808
  197POPC   C4B 2917   1.541   5.164   7.044  0.0940 -0.0793 -0.0304
  198POPC   NC3 2918   7.177   4.141   4.825  0.2598  0.0821 -0.3944
  198POPC   PO4 2919   6.856   3.915   4.872 -0.0579 -0.1091 -0.0859
  198POPC   GL1 2920   6.793   3.598   5.196  0.0831 -0.2187  0.3534
  198POPC   GL2 2921   6.513   3.690   5.522  0.0461  0.1192  0.2829
  198POPC   C1A 2922   6.970   3.674   5.661 -0.1576  0.1860  0.3139
  198POPC   D2A 2923   7.177   3.341   5.922 -0.0423 -0.0341 -0.3602
  198POPC   C3A 2924   6.970   3.263   6.240 -0.1145  0.4437 -0.2943
  198POPC   C4A 2925   6.816   2.856   6.548 -0.2191 -0.2815  0.1186
  198POPC   C1B 2926   6.536   4.035   5.786 -0.0184 -0.0181  0.0506
  198POPC   C2B 2927   6.523   4.201   6.242 -0.1699  0.1563 -0.1335
  198POPC   C3B 2928   6.360   4.379   6.614  0.1954  0.2006 -0.1515
  198POPC   C4B 2929   6.395   4.573   7.066  0.5482 -0.0580 -0.0340
  199POPC   NC3 2930   6.458   0.955   4.621 -0.0477 -0.2903 -0.2897
  199POPC   PO4 2931   6.089   0.807   4.833 -0.1117 -0.0178  0.0623
  199POPC   GL1 2932   6.186   1.180   5.074  0.3701 -0.2096 -0.0444
  199POPC   GL2 2933   5.982   1.450   5.191  0.0821 -0.0277  0.0324
  199POPC   C1A 2934   6.516   1.459   5.225 -0.1490  0.3429  0.1509
  199POPC   D2A 2935   6.930   1.369   5.521  0.0203  0.1563 -0.0841
  199POPC   C3A 2936   7.261   1.240   5.209  0.2009 -0.2497 -0.1293
  199POPC   C4A 2937   7.435   1.145   4.947 -0.3933  0.3562  0.0918
  199POPC   C1B 2938   6.155   1.189   5.556  0.1756 -0.0047  0.1827
  199POPC   C2B 2939   6.290   1.192   5.980  0.1323  0.3066 -0.1009
  199POPC   C3B 2940   6.447   1.013   6.399 -0.0914 -0.0073 -0.0057
  199POPC   C4B 2941   6.176   1.010   6.844 -0.0735 -0.1866 -0.1289
  200POPC   NC3 2942   4.612   2.114   4.841  0.1679  0.2673  0.2149
  200POPC   PO4 2943   4.575   1.980   5.242 -0.3787  0.1341 -0.2947
  200POPC   GL1 2944   4.761   1.876   5.593 -0.3589  0.0654  0.0230
  200POPC   GL2 2945   4.730   1.650   5.688 -0.2410 -0.3183  0.2432
  200POPC   C1A 2946   4.801   2.098   5.950 -0.0751 -0.0563 -0.1000
  200POPC   D2A 2947   4.765   2.522   6.173 -0.0679  0.0284 -0.1752
  200POPC   C3A 2948   4.993   2.624   6.511  0.3072  0.4077 -0.1583
  200POPC   C4A 2949   5.115   2.359   6.849  0.4236 -0.2383  0.0262
  200POPC   C1B 2950   4.553   1.640   6.020  0.0035 -0.2887  0.0958
  200POPC   C2B 2951   4.420   1.995   6.254  0.0687  0.3924 -0.5046
  200POPC   C3B 2952   4.471   2.377   6.539  0.2292  0.0269 -0.2012
  200POPC   C4B 2953   4.223   2.611   6.790 -0.2060  0.1146  0.0859
  201POPC   NC3 2954   3.414   1.184   5.173  0.0545 -0.2275  0.0870
  201POPC   PO4 2955   3.441   1.550   5.290  0.0648  0.3789 -0.1576
  201POPC   GL1 2956   3.587   1.359   5.640  0.2019 -0.0963 -0.1937
  201POPC   GL2 2957   3.813   1.384   5.824 -0.4221  0.1016 -0.1363
  201POPC   C1A 2958   3.448   1.178   6.080  0.1665  0.1292 -0.1952
  201POPC   D2A 2959   3.215   1.001   6.524 -0.2044 -0.1218  0.0100
  201POPC   C3A 2960   2.777   1.185   6.821  0.1625  0.1265  0.2473
  201POPC   C4A 2961   2.419   1.188   7.021  0.2945 -0.2764 -0.0381
  201POPC   C1B 2962   3.947   1.247   6.176  0.1450 -0.3964 -0.0290
  201POPC   C2B 2963   3.731   1.403   6.515 -0.0956 -0.2021 -0.2155
  201POPC   C3B 2964   3.506   1.249   6.938  0.1762 -0.0529 -0.2899
  201POPC   C4B 2965   3.206   1.191   7.192 -0.1964  0.1365 -0.0239
  202POPC   NC3 2966   4.700   3.870   5.273 -0.0466  0.2803  0.0267
  202POPC   PO4 2967   4.394   4.049   5.376  0.1334  0.2196  0.0009
  202POPC   GL1 2968   4.481   3.881   5.717 -0.0440  0.0249  0.1784
  202POPC   GL2 2969   4.845   3.850   5.849 -0.1869 -0.2579  0.2285
  202POPC   C1A 2970   4.405   3.807   6.127  0.2456  0.2307 -0.1096
  202POPC   D2A 2971   4.132   3.751   6.496  0.3074  0.0113  0.0503
  202POPC   C3A 2972   4.116   3.455   6.741 -0.2995 -0.5071  0.3829
  202POPC   C4A 2973   3.898   2.975   6.747 -0.1874  0.0486  0.0620
  202POPC   C1B 2974   5.036   4.009   6.192 -0.1356  0.2436  0.1921
  202POPC   C2B 2975   5.226   4.156   6.543  0.0552 -0.1850 -0.2733
  202POPC   C3B 2976   4.918   4.186   6.932  0.0265 -0.1212  0.0302
  202POPC   C4B 2977   4.760   4.620   7.140 -0.5360 -0.1249 -0.3566
  203POPC   NC3 2978   3.045   5.186   4.814  0.0890 -0.1006  0.1048
  203POPC   PO4 2979   3.076   5.469   5.174 -0.3444  0.0396 -0.1651
  203POPC   GL1 2980   3.053   5.364   5.599 -0.1345 -0.2836  0.1859
  203POPC   GL2 2981   3.214   5.097   5.541  0.0985  0.1197 -0.0151
  203POPC   C1A 2982   2.887   5.694   5.937  0.2744 -0.2336 -0.1832
  203POPC   D2A 2983   2.670   6.018   6.225  0.1334 -0.2843  0.0228
  203POPC   C3A 2984   2.119   5.942   6.237  0.0584 -0.0811  0.1795
  203POPC   C4A 2985   1.833   5.506   6.179  0.1599 -0.0323  0.1451
  203POPC   C1B 2986   3.395   5.415   5.927  0.0599 -0.2139 -0.0854
  203POPC   C2B 2987   3.258   5.583   6.247  0.1776  0.1315  0.1622
  203POPC   C3B 2988   2.948   5.704   6.553  0.1001  0.3344  0.1865
  203POPC   C4B 2989   2.763   5.374   6.962 -0.0577 -0.5125 -0.0585
  204POPC   NC3 2990   1.277   8.306   5.463 -0.1878 -0.0231  0.1225
  204POPC   PO4 2991   1.549   8.553   5.301  0.0945 -0.0869  0.2254
  204POPC   GL1 2992   1.682   8.502   5.724  0.2415 -0.1414 -0.1077
  204POPC   GL2 2993   1.409   8.644   5.835 -0.0849 -0.1062 -0.2087
  204POPC   C1A 2994   1.777   8.763   6.126  0.0064  0.2204 -0.0594
  204POPC   D2A 2995   1.996   8.862   6.585  0.2964 -0.1073  0.0561
  204POPC   C3A 2996   2.127   9.315   6.753  0.1514  0.0785  0.0596
  204POPC   C4A 2997   2.319   9.448   7.085  0.2796  0.1616 -0.0182
  204POPC   C1B 2998   1.230   8.693   6.195 -0.1298  0.0063  0.2857
  204POPC   C2B 2999   1.037   8.802   6.561 -0.2124 -0.1344  0.3117
  204POPC   C3B 3000   1.153   8.784   6.913 -0.1047  0.1202 -0.0562
  204POPC   C4B 3001   1.017   8.902   7.232  0.0374  0.1914  0.2009
  205POPC   NC3 3002   2.678   4.157   5.410 -0.0505 -0.0273  0.0735
  205POPC   PO4 3003   3.051   3.885   5.428 -0.0776 -0.0516  0.2554
  205POPC   GL1 3004   3.477   3.831   5.747 -0.0468 -0.0040 -0.1474
  205POPC   GL2 3005   3.310   3.790   6.162  0.0839  0.0597  0.0896
  205POPC   C1A 3006   3.881   3.944   6.014 -0.0316  0.2020 -0.0619
  205POPC   D2A 3007   3.801   4.243   6.379  0.3938  0.1357 -0.1856
  205POPC   C3A 3008   3.428   4.481   6.381 -0.0037  0.0382  0.0422
  205POPC   C4A 3009   3.090   4.671   6.547  0.3420  0.2468  0.3044
  205POPC   C1B 3010   3.629   3.795   6.474  0.0012 -0.2563  0.6199
  205POPC   C2B 3011   3.578   4.028   6.845  0.1132 -0.0329 -0.2806
  205POPC   C3B 3012   3.576   4.206   7.214  0.2158 -0.0031  0.2508
  205POPC   C4B 3013   3.498   4.587   7.451  0.0895  0.0045 -0.0272
  206POPC   NC3 3014   0.735   4.868   5.163  0.1782 -0.1467 -0.0747
  206POPC   PO4 3015   0.904   4.476   4.931  0.4070 -0.0424 -0.1049
  206POPC   GL1 3016   1.032   4.482   5.376 -0.2135  0.1070  0.0626
  206POPC   GL2 3017   1.453   4.516   5.451 -0.0934 -0.1442 -0.0381
  206POPC   C1A 3018   0.942   4.488   5.821  0.0101 -0.1210  0.0962
  206POPC   D2A 3019   1.030   4.220   6.109  0.2735 -0.3382  0.1657
  206POPC   C3A 3020   0.896   4.137   6.649  0.2738  0.0900 -0.1374
  206POPC   C4A 3021   0.802   3.994   7.064 -0.4149 -0.1421 -0.0882
  206POPC   C1B 3022   1.456   4.212   5.805 -0.0650 -0.1783 -0.3849
  206POPC   C2B 3023   1.756   3.968   6.013  0.2182  0.1131 -0.1191
  206POPC   C3B 3024   1.967   3.583   6.270  0.0230 -0.0590 -0.1651
  206POPC   C4B 3025   2.232   3.539   6.646  0.0004 -0.2458  0.0157
  207POPC   NC3 3026   1.730   1.111   4.299 -0.0005 -0.3970 -0.1323
  207POPC   PO4 3027   1.515   1.038   4.667 -0.0626  0.4852  0.3934
  207POPC   GL1 3028   1.259   0.874   5.075 -0.0488 -0.1612 -0.4084
  207POPC   GL2 3029   1.194   0.546   5.203 -0.2228  0.0979  0.1206
  207POPC   C1A 3030   0.913   0.979   5.383  0.1452 -0.1975 -0.1763
  207POPC   D2A 3031   0.531   1.021   5.412  0.1675 -0.2016  0.0080
  207POPC   C3A 3032   0.200   0.928   5.805 -0.0706  0.2923  0.0274
  207POPC   C4A 3033  -0.096   0.566   5.973 -0.2525 -0.3949  0.3244
  207POPC   C1B 3034   1.478   0.770   5.493  0.0899  0.1536 -0.2350
  207POPC   C2B 3035   1.571   1.078   5.707 -0.1200 -0.2630 -0.0225
  207POPC   C3B 3036   1.506   1.399   5.970  0.1359  0.0854 -0.2167
  207POPC   C4B 3037   1.509   1.780   6.247 -0.2414  0.1509 -0.3230
  208POPC   NC3 3038   6.529   3.580   4.721  0.0634 -0.1593  0.1334
  208POPC   PO4 3039   6.274   3.556   4.966  0.0582  0.1053 -0.1119
  208POPC   GL1 3040   6.020   3.579   5.362 -0.0143  0.1319  0.0377
  208POPC   GL2 3041   6.082   3.909   5.482 -0.0422  0.0524 -0.2028
  208POPC   C1A 3042   5.752   3.614   5.767 -0.0699 -0.0218  0.1088
  208POPC   D2A 3043   5.327   3.586   5.869  0.0196 -0.0569  0.1327
  208POPC   C3A 3044   5.253   3.429   6.154  0.2613 -0.0357  0.0691
  208POPC   C4A 3045   5.106   3.550   6.447 -0.2730  0.1225  0.0673
  208POPC   C1B 3046   5.988   4.068   5.985  0.0539  0.2229 -0.2457
  208POPC   C2B 3047   5.953   4.125   6.450 -0.1324 -0.1088  0.0878
  208POPC   C3B 3048   5.726   3.959   6.712 -0.0782  0.0107  0.0899
  208POPC   C4B 3049   5.370   3.844   6.860 -0.0692 -0.2476 -0.5595
  209POPC   NC3 3050   8.896   8.792   4.938 -0.0324 -0.4279  0.1103
  209POPC   PO4 3051   8.448   9.007   4.747 -0.1383 -0.2137 -0.1141
  209POPC   GL1 3052   8.658   9.195   5.138 -0.0725  0.2375  0.0578
  209POPC   GL2 3053   8.372   9.238   5.524 -0.1075 -0.0695  0.0348
  209POPC   C1A 3054   8.759   9.578   5.467  0.1014  0.1394 -0.1850
  209POPC   D2A 3055   8.727   9.874   5.740  0.0075 -0.1143 -0.1213
  209POPC   C3A 3056   8.279  10.043   5.770 -0.0652 -0.1967 -0.2129
  209POPC   C4A 3057   8.372  10.538   5.690  0.0559  0.0272  0.2423
  209POPC   C1B 3058   8.652   9.298   5.918  0.0233 -0.4558  0.0252
  209POPC   C2B 3059   9.038   9.530   6.077 -0.0320  0.5040  0.1209
  209POPC   C3B 3060   9.437   9.665   6.133  0.0099 -0.2556  0.2902
  209POPC   C4B 3061   9.692   9.885   6.008  0.3951  0.2119 -0.1534
  210POPC   NC3 3062   9.025   5.676   5.419  0.2053  0.0667  0.2081
  210POPC   PO4 3063   8.649   5.986   5.359  0.0538  0.1583  0.2159
  210POPC   GL1 3064   8.733   6.005   5.744 -0.0374  0.2535  0.2923
  210POPC   GL2 3065   8.636   5.698   5.801 -0.1190 -0.0474 -0.1390
  210POPC   C1A 3066   8.805   6.208   6.160 -0.2311  0.1130  0.0130
  210POPC   D2A 3067   9.008   6.426   6.603 -0.3004  0.3996  0.0079
  210POPC   C3A 3068   8.916   6.247   7.067 -0.2266 -0.4687 -0.0541
  210POPC   C4A 3069   8.553   6.305   7.317 -0.2837 -0.1095 -0.1712
  210POPC   C1B 3070   8.665   5.746   6.197  0.1540  0.2309  0.2538
  210POPC   C2B 3071   8.471   5.664   6.576  0.0360  0.1996 -0.1252
  210POPC   C3B 3072   8.357   5.539   7.030  0.0464  0.0061 -0.4353
  210POPC   C4B 3073   8.055   5.471   7.411  0.2529 -0.1621  0.1049
  211POPC   NC3 3074   2.169   4.964   5.067  0.0423  0.1462 -0.2146
  211POPC   PO4 3075   2.247   5.281   5.212 -0.2306 -0.0686  0.1754
  211POPC   GL1 3076   2.305   5.206   5.585 -0.1310  0.0897  0.0616
  211POPC   GL2 3077   2.522   5.397   5.786  0.2408 -0.0588 -0.1057
  211POPC   C1A 3078   2.281   5.113   6.117 -0.5270  0.1303 -0.0916
  211POPC   D2A 3079   2.034   4.886   6.514  0.1201 -0.2575  0.2388
  211POPC   C3A 3080   2.164   4.533   6.736 -0.1885 -0.2578 -0.0499
  211POPC   C4A 3081   2.607   4.404   6.679  0.6005 -0.1262  0.1976
  211POPC   C1B 3082   2.442   5.558   6.211 -0.4973  0.2442  0.3242
  211POPC   C2B 3083   2.117   5.437   6.544  0.1972  0.3410 -0.3475
  211POPC   C3B 3084   1.982   5.230   6.923  0.0510 -0.0719 -0.1265
  211POPC   C4B 3085   1.913   4.826   7.114  0.2120  0.0022  0.1366
  212POPC   NC3 3086   6.559  10.139   4.403 -0.3378 -0.0171  0.1991
  212POPC   PO4 3087   6.738  10.505   4.563  0.0777  0.0376 -0.0918
  212POPC   GL1 3088   6.637  10.728   4.954 -0.1912 -0.0291 -0.0251
  212POPC   GL2 3089   6.769  10.983   4.982 -0.0809  0.2670  0.0608
  212POPC   C1A 3090   6.551  10.698   5.463  0.0839 -0.1063  0.1275
  212POPC   D2A 3091   6.456  10.343   5.800  0.0245 -0.0080 -0.1529
  212POPC   C3A 3092   6.689  10.266   6.063  0.2133  0.1205  0.0346
  212POPC   C4A 3093   6.908  10.253   6.420  0.3599  0.2368  0.0798
  212POPC   C1B 3094   6.506  11.137   5.305 -0.0926 -0.2309 -0.2030
  212POPC   C2B 3095   6.253  10.916   5.769 -0.0115 -0.1123 -0.2748
  212POPC   C3B 3096   6.259  10.708   6.146  0.0067 -0.2013  0.1268
  212POPC   C4B 3097   6.611  10.685   6.434  0.2395  0.4357 -0.1233
  213POPC   NC3 3098   8.027   2.713   3.635  0.1237  0.4262 -0.0165
  213POPC   PO4 3099   8.016   2.557   3.965 -0.0031 -0.1373 -0.0359
  213POPC   GL1 3100   7.929   2.770   4.234 -0.3019 -0.4229  0.2583
  213POPC   GL2 3101   8.134   3.002   4.246 -0.0142  0.4079  0.1393
  213POPC   C1A 3102   7.928   3.105   4.661  0.0737  0.3251 -0.1159
  213POPC   D2A 3103   8.237   3.294   4.916  0.3015 -0.1536 -0.0595
  213POPC   C3A 3104   8.667   3.278   4.981 -0.0728 -0.1754 -0.0075
  213POPC   C4A 3105   8.873   3.053   5.250  0.1521  0.3309 -0.3201
  213POPC   C1B 3106   8.458   3.090   4.525 -0.2443 -0.1695  0.0567
  213POPC   C2B 3107   8.429   2.798   4.900  0.1227 -0.0908 -0.0344
  213POPC   C3B 3108   8.495   2.464   5.230  0.0117  0.3564  0.1300
  213POPC   C4B 3109   8.754   2.157   5.338  0.0013 -0.2518  0.1158
  214POPC   NC3 3110   2.725   7.813   5.428  0.0004  0.0172 -0.0722
  214POPC   PO4 3111   2.416   7.980   5.599 -0.1173  0.0756  0.0944
  214POPC   GL1 3112   2.148   8.393   5.855 -0.1752  0.0406 -0.1039
  214POPC   GL2 3113   2.219   8.738   5.844  0.1472 -0.0165 -0.1062
  214POPC   C1A 3114   2.144   8.447   6.264 -0.1486  0.0970  0.3258
  214POPC   D2A 3115   1.941   8.204   6.531  0.0036 -0.3086  0.0562
  214POPC   C3A 3116   2.103   7.877   6.728  0.1316  0.1681 -0.3292
  214POPC   C4A 3117   1.915   7.631   7.024 -0.5382  0.1992  0.1298
  214POPC   C1B 3118   2.088   9.164   5.983 -0.4643 -0.0089 -0.0188
  214POPC   C2B 3119   1.912   9.520   6.354  0.1614  0.3390 -0.1166
  214POPC   C3B 3120   2.018   9.821   6.761 -0.2778  0.1827 -0.1925
  214POPC   C4B 3121   2.330  10.018   6.983 -0.1950  0.1490  0.2017
  215POPC   NC3 3122   4.360   4.584   5.302  0.0226 -0.0960  0.2626
  215POPC   PO4 3123   4.286   4.948   5.316  0.3173 -0.4395  0.4476
  215POPC   GL1 3124   4.229   5.048   5.694 -0.1347  0.3050  0.0991
  215POPC   GL2 3125   4.582   5.300   5.843  0.2862 -0.0268 -0.1991
  215POPC   C1A 3126   4.332   4.875   6.126 -0.3368  0.1848  0.1849
  215POPC   D2A 3127   4.603   4.723   6.570 -0.2832  0.0937  0.0526
  215POPC   C3A 3128   4.917   5.032   6.846 -0.1561 -0.3536 -0.1329
  215POPC   C4A 3129   4.790   5.419   7.008 -0.1133  0.1903 -0.0489
  215POPC   C1B 3130   4.560   5.642   6.033 -0.1466  0.3164 -0.2207
  215POPC   C2B 3131   4.201   5.687   6.331 -0.0142 -0.0072 -0.1439
  215POPC   C3B 3132   3.916   5.632   6.602  0.3851  0.0440 -0.2865
  215POPC   C4B 3133   3.533   5.433   6.651 -0.0987 -0.1631 -0.0451
  216POPC   NC3 3134   0.689   0.935   4.418 -0.0905  0.3628 -0.1193
  216POPC   PO4 3135   0.550   1.279   4.381 -0.2406  0.0143 -0.3872
  216POPC   GL1 3136   0.462   1.448   4.693  0.3021  0.1301 -0.1980
  216POPC   GL2 3137   0.193   1.563   4.740  0.3105 -0.1874 -0.3117
  216POPC   C1A 3138   0.460   1.820   5.018 -0.0606  0.5226 -0.2936
  216POPC   D2A 3139   0.250   1.975   5.413  0.2812  0.2026 -0.2085
  216POPC   C3A 3140   0.115   2.327   5.641  0.2229  0.1228  0.3533
  216POPC   C4A 3141  -0.145   2.452   5.851  0.3507 -0.1522 -0.4996
  216POPC   C1B 3142   0.023   1.644   5.134  0.0264 -0.1087  0.0041
  216POPC   C2B 3143   0.211   1.460   5.584 -0.1255  0.0799  0.0130
  216POPC   C3B 3144   0.525   1.346   5.898  0.1026  0.0734 -0.1125
  216POPC   C4B 3145   0.826   1.434   6.109  0.0323 -0.1196 -0.3807
  217POPC   NC3 3146   3.634  10.048   4.790  0.2273  0.1340 -0.0443
  217POPC   PO4 3147   3.580   9.859   5.164  0.3194  0.1245 -0.1091
  217POPC   GL1 3148   3.715  10.029   5.565  0.1596  0.0314 -0.1153
  217POPC   GL2 3149   3.515   9.776   5.756  0.1818 -0.3507 -0.0649
  217POPC   C1A 3150   3.908  10.030   6.027  0.0598  0.1120 -0.1185
  217POPC   D2A 3151   3.947  10.192   6.358 -0.0196  0.1292 -0.2103
  217POPC   C3A 3152   3.912  10.634   6.343 -0.0335  0.0456  0.2500
  217POPC   C4A 3153   3.723  11.056   6.345 -0.0441  0.0671  0.0845
  217POPC   C1B 3154   3.674   9.636   6.194  0.2749  0.0058  0.1596
  217POPC   C2B 3155   3.782   9.835   6.593 -0.0118  0.0641  0.1349
  217POPC   C3B 3156   3.650   9.881   6.984  0.0805  0.1215  0.0133
  217POPC   C4B 3157   3.476   9.632   7.362 -0.2230 -0.1059  0.2626
  218POPC   NC3 3158   8.817   4.613   4.046  0.1146  0.1147  0.0860
  218POPC   PO4 3159   9.118   4.442   4.520  0.0778 -0.1023  0.0521
  218POPC   GL1 3160   9.217   4.443   5.051  0.1436 -0.2847 -0.0552
  218POPC   GL2 3161   9.504   4.588   5.107 -0.3165 -0.2076  0.0070
  218POPC   C1A 3162   9.392   4.060   5.257 -0.0479  0.1127  0.0567
  218POPC   D2A 3163   9.254   3.817   5.614 -0.0345 -0.0473  0.2635
  218POPC   C3A 3164   8.812   3.826   5.602 -0.0183 -0.3590 -0.0574
  218POPC   C4A 3165   8.609   3.432   5.481 -0.2600  0.0109 -0.0857
  218POPC   C1B 3166   9.356   4.775   5.476  0.0048  0.1183 -0.0741
  218POPC   C2B 3167   9.350   4.826   5.965  0.1581  0.1440 -0.0437
  218POPC   C3B 3168   8.982   4.809   6.358 -0.3309 -0.1826 -0.0391
  218POPC   C4B 3169   8.776   4.373   6.524 -0.0153 -0.1042  0.0120
  219POPC   NC3 3170   6.466   7.425   5.454  0.1508 -0.1047  0.1350
  219POPC   PO4 3171   6.872   7.427   5.486  0.1763  0.2842  0.1357
  219POPC   GL1 3172   7.098   7.693   5.836  0.0898 -0.2072 -0.0061
  219POPC   GL2 3173   7.187   8.054   5.708 -0.0820  0.0621 -0.1535
  219POPC   C1A 3174   7.400   7.716   6.167  0.1081  0.1036  0.1793
  219POPC   D2A 3175   7.683   7.435   6.431 -0.1439  0.2419 -0.0054
  219POPC   C3A 3176   7.764   7.600   6.855 -0.1287  0.0085  0.1008
  219POPC   C4A 3177   7.604   7.750   7.220  0.3452 -0.1723 -0.4935
  219POPC   C1B 3178   7.148   8.164   6.086 -0.2786  0.2776  0.1381
  219POPC   C2B 3179   7.109   8.292   6.572 -0.0212  0.0538  0.1988
  219POPC   C3B 3180   7.233   8.518   6.975 -0.1932  0.0028 -0.3929
  219POPC   C4B 3181   7.652   8.648   7.050  0.1978 -0.0029 -0.1449
  220POPC   NC3 3182  10.029   0.767   3.747  0.1982  0.0646 -0.0750
  220POPC   PO4 3183  10.398   1.038   4.020 -0.1467  0.1935  0.1918
  220POPC   GL1 3184  10.238   1.081   4.373  0.0323  0.1356 -0.1211
  220POPC   GL2 3185  10.378   0.937   4.612  0.2702 -0.4042 -0.1135
  220POPC   C1A 3186   9.766   0.941   4.425  0.0834  0.2769 -0.1964
  220POPC   D2A 3187   9.354   0.949   4.499  0.4849  0.3776  0.1495
  220POPC   C3A 3188   9.241   1.155   4.167  0.1027 -0.0990 -0.1670
  220POPC   C4A 3189   8.973   1.482   4.228  0.0663 -0.0476  0.1656
  220POPC   C1B 3190  10.027   0.881   4.885 -0.0306  0.2668  0.2173
  220POPC   C2B 3191   9.625   0.919   5.029 -0.0326 -0.0922 -0.0394
  220POPC   C3B 3192   9.205   0.858   5.250  0.1279 -0.2521 -0.0838
  220POPC   C4B 3193   8.806   0.965   5.448  0.2163 -0.1614  0.2783
  221POPC   NC3 3194   6.113   4.344   4.831 -0.0832 -0.2386 -0.0213
  221POPC   PO4 3195   5.804   4.288   5.221 -0.0099  0.1301  0.2776
  221POPC   GL1 3196   5.555   4.280   5.583  0.2252  0.1835  0.0600
  221POPC   GL2 3197   5.418   4.026   5.752  0.1647  0.0567 -0.3658
  221POPC   C1A 3198   5.512   4.367   6.088  0.0947  0.1599  0.1842
  221POPC   D2A 3199   5.653   4.512   6.546 -0.0535 -0.0588 -0.0853
  221POPC   C3A 3200   5.911   4.395   6.887  0.1307 -0.0841  0.2328
  221POPC   C4A 3201   6.012   4.266   7.284  0.1806 -0.3830 -0.0653
  221POPC   C1B 3202   5.529   3.827   6.264  0.1472  0.0183  0.2753
  221POPC   C2B 3203   5.622   3.449   6.579  0.1712  0.2764 -0.1258
  221POPC   C3B 3204   6.033   3.158   6.793  0.0015  0.3072  0.0385
  221POPC   C4B 3205   6.386   2.899   6.963  0.1676  0.0492 -0.0460
  222POPC   NC3 3206   2.694   1.363   4.628 -0.2270  0.1415 -0.1814
  222POPC   PO4 3207   2.668   1.656   4.965  0.4759  0.1873  0.0177
  222POPC   GL1 3208   2.424   1.799   5.231 -0.1675  0.0741  0.0869
  222POPC   GL2 3209   2.363   1.555   5.452  0.0740 -0.1152 -0.0629
  222POPC   C1A 3210   2.002   1.872   5.194  0.4503 -0.3089  0.2891
  222POPC   D2A 3211   1.649   1.848   5.297 -0.2402 -0.1817  0.0155
  222POPC   C3A 3212   1.410   1.555   5.524  0.1053  0.0520 -0.0892
  222POPC   C4A 3213   1.073   1.376   5.627 -0.1363  0.1098 -0.0126
  222POPC   C1B 3214   2.708   1.567   5.666 -0.1842  0.0894 -0.2546
  222POPC   C2B 3215   2.927   1.485   6.018 -0.1046 -0.3300 -0.1195
  222POPC   C3B 3216   3.018   1.469   6.486  0.0411  0.0048 -0.2912
  222POPC   C4B 3217   3.117   1.673   6.817 -0.1547 -0.1735 -0.0301
  223POPC   NC3 3218   5.321   1.371   5.008 -0.1643 -0.3192 -0.0936
  223POPC   PO4 3219   5.316   0.950   5.155  0.0108 -0.2008  0.0357
  223POPC   GL1 3220   5.603   1.088   5.447 -0.1051 -0.0036  0.3048
  223POPC   GL2 3221   5.403   1.279   5.555 -0.3591 -0.4298 -0.1136
  223POPC   C1A 3222   5.769   1.011   5.831 -0.0975 -0.3003  0.2109
  223POPC   D2A 3223   5.935   0.972   6.271 -0.2020 -0.3294 -0.0131
  223POPC   C3A 3224   6.017   1.285   6.475  0.0812  0.0085  0.1602
  223POPC   C4A 3225   6.278   1.561   6.376 -0.2309 -0.1940 -0.0361
  223POPC   C1B 3226   5.331   1.089   6.015 -0.1234  0.3358 -0.3043
  223POPC   C2B 3227   5.456   1.062   6.470  0.2987  0.0995  0.3062
  223POPC   C3B 3228   5.466   1.113   6.905  0.0678 -0.1224 -0.2530
  223POPC   C4B 3229   5.282   1.010   7.338 -0.0326 -0.1038  0.0364
  224POPC   NC3 3230   2.082   0.600   5.001  0.0043  0.3491  0.1899
  224POPC   PO4 3231   2.483   0.840   4.819 -0.1616 -0.0005  0.1312
  224POPC   GL1 3232   2.520   0.857   5.341  0.1258 -0.0437  0.0082
  224POPC   GL2 3233   2.150   0.933   5.463 -0.0317  0.1878 -0.1022
  224POPC   C1A 3234   2.616   1.068   5.807 -0.1926  0.0072  0.1932
  224POPC   D2A 3235   2.409   0.812   6.047 -0.1657 -0.2884  0.0020
  224POPC   C3A 3236   2.076   1.088   6.286 -0.0520  0.1913 -0.0206
  224POPC   C4A 3237   2.349   1.409   6.537 -0.0064  0.1495 -0.3491
  224POPC   C1B 3238   2.116   1.232   5.819  0.1157  0.0245 -0.0630
  224POPC   C2B 3239   2.385   1.452   6.029  0.0600  0.0227 -0.1287
  224POPC   C3B 3240   2.619   1.730   6.326  0.1604  0.0812 -0.1632
  224POPC   C4B 3241   2.610   1.722   6.783 -0.3566  0.0431 -0.2244
  225POPC   NC3 3242   9.849   5.217   4.699  0.2094 -0.0935  0.0239
  225POPC   PO4 3243   9.912   4.795   4.880  0.2675  0.1673 -0.4608
  225POPC   GL1 3244  10.031   4.672   5.336  0.2191  0.2505  0.0541
  225POPC   GL2 3245  10.159   4.360   5.434 -0.3446 -0.1507  0.1496
  225POPC   C1A 3246   9.929   4.719   5.770 -0.0101  0.2857 -0.0257
  225POPC   D2A 3247   9.802   4.443   6.078 -0.0534  0.3511  0.2197
  225POPC   C3A 3248   9.842   4.684   6.456 -0.2538  0.1633  0.1662
  225POPC   C4A 3249   9.998   4.765   6.875 -0.2659  0.0746  0.3741
  225POPC   C1B 3250  10.222   4.150   5.710  0.2280  0.2012 -0.2508
  225POPC   C2B 3251  10.345   3.727   5.968 -0.1538  0.0792  0.1599
  225POPC   C3B 3252  10.412   3.590   6.378 -0.0094  0.0428  0.0485
  225POPC   C4B 3253  10.054   3.577   6.717 -0.0033 -0.0914  0.1470
  226POPC   NC3 3254   8.067   6.267   5.210 -0.3516 -0.0181  0.1267
  226POPC   PO4 3255   8.478   6.438   5.141  0.0529  0.0975  0.1722
  226POPC   GL1 3256   8.513   6.462   5.594 -0.0435 -0.1391 -0.0748
  226POPC   GL2 3257   8.292   6.210   5.652  0.1868 -0.1917  0.1819
  226POPC   C1A 3258   8.517   6.583   5.989  0.1361  0.3867 -0.2541
  226POPC   D2A 3259   8.452   6.439   6.463  0.0562 -0.3478  0.3333
  226POPC   C3A 3260   8.622   6.100   6.584 -0.0475 -0.0321  0.1019
  226POPC   C4A 3261   8.917   5.898   6.644  0.3660 -0.2250 -0.0925
  226POPC   C1B 3262   8.282   6.169   6.020  0.6491  0.1147 -0.1624
  226POPC   C2B 3263   8.082   6.027   6.392  0.1634 -0.1047 -0.2054
  226POPC   C3B 3264   7.963   5.651   6.674 -0.2791 -0.1237  0.0355
  226POPC   C4B 3265   7.880   5.437   6.977  0.2270  0.0978  0.0978
  227POPC   NC3 3266   8.347   0.637   4.043 -0.0320  0.2276 -0.2590
  227POPC   PO4 3267   8.723   0.498   4.149 -0.0783  0.2228 -0.1698
  227POPC   GL1 3268   9.060   0.495   4.449  0.1402 -0.0027 -0.0269
  227POPC   GL2 3269   9.304   0.256   4.424  0.4242  0.0851  0.1270
  227POPC   C1A 3270   8.947   0.688   4.793 -0.3837  0.1041  0.0138
  227POPC   D2A 3271   8.874   0.500   5.210 -0.0863  0.1719 -0.0371
  227POPC   C3A 3272   8.779   0.089   5.456 -0.0482  0.3300 -0.0657
  227POPC   C4A 3273   8.538  -0.153   5.310 -0.1307  0.0664 -0.3036
  227POPC   C1B 3274   9.634   0.469   4.626  0.1146 -0.1725  0.2191
  227POPC   C2B 3275   9.922   0.389   4.990 -0.0253 -0.0979 -0.0004
  227POPC   C3B 3276  10.157   0.243   5.420 -0.1754  0.0092 -0.0824
  227POPC   C4B 3277  10.351   0.023   5.791  0.0600 -0.0362  0.0405
  228POPC   NC3 3278   3.146   6.579   5.109  0.1944  0.5131  0.1714
  228POPC   PO4 3279   2.896   7.006   5.164  0.2631 -0.0671  0.0114
  228POPC   GL1 3280   2.884   6.892   5.663 -0.0568  0.0622 -0.2645
  228POPC   GL2 3281   2.964   7.131   5.953  0.1279  0.0444 -0.2093
  228POPC   C1A 3282   2.818   6.509   5.862 -0.0538  0.1741 -0.1112
  228POPC   D2A 3283   2.709   6.107   5.723  0.1337 -0.1805 -0.2275
  228POPC   C3A 3284   2.258   5.836   5.728  0.2219 -0.1820 -0.0437
  228POPC   C4A 3285   1.878   5.858   5.825 -0.3922 -0.1929  0.1572
  228POPC   C1B 3286   2.618   7.251   6.323 -0.0768  0.3659 -0.3900
  228POPC   C2B 3287   2.519   7.607   6.583 -0.0528  0.4208  0.1378
  228POPC   C3B 3288   2.554   7.823   6.931  0.2583  0.2744 -0.1246
  228POPC   C4B 3289   2.222   7.994   7.199 -0.0617  0.2560  0.0893
  229POPC   NC3 3290   4.547   9.903   5.138  0.0093  0.3331  0.0731
  229POPC   PO4 3291   4.489   9.766   5.553 -0.2057 -0.1034  0.1176
  229POPC   GL1 3292   4.740   9.667   5.865 -0.0393  0.0185  0.1038
  229POPC   GL2 3293   5.052   9.543   5.863 -0.1858 -0.0066 -0.0625
  229POPC   C1A 3294   4.634   9.610   6.318  0.1751 -0.2546  0.1558
  229POPC   D2A 3295   4.445  10.001   6.525 -0.0411  0.2506  0.0470
  229POPC   C3A 3296   4.621  10.302   6.859  0.1312  0.1803  0.0825
  229POPC   C4A 3297   4.737  10.659   6.940  0.1110 -0.0560  0.0910
  229POPC   C1B 3298   5.233   9.700   6.210  0.1222  0.1619  0.0495
  229POPC   C2B 3299   5.403   9.638   6.736  0.1120  0.0566  0.2780
  229POPC   C3B 3300   5.411   9.234   6.919  0.1389 -0.2300  0.3162
  229POPC   C4B 3301   5.591   8.987   7.158 -0.1070 -0.1888  0.2991
  230POPC   NC3 3302   8.780   0.037   4.417 -0.1310  0.0905  0.2348
  230POPC   PO4 3303   8.668  -0.383   4.360  0.0627 -0.2637 -0.0029
  230POPC   GL1 3304   8.798  -0.246   4.852 -0.4185  0.2263  0.2951
  230POPC   GL2 3305   8.810   0.053   4.910 -0.2152 -0.0375 -0.1548
  230POPC   C1A 3306   9.077  -0.275   5.290  0.0617  0.1453 -0.0669
  230POPC   D2A 3307   9.324  -0.325   5.623  0.1825 -0.0125 -0.2136
  230POPC   C3A 3308   9.057  -0.190   6.071 -0.2781  0.0098  0.2827
  230POPC   C4A 3309   9.131  -0.302   6.466 -0.4046  0.0684  0.0222
  230POPC   C1B 3310   8.346   0.251   5.105 -0.0712  0.0373  0.0080
  230POPC   C2B 3311   8.060   0.089   5.377 -0.0564 -0.0064 -0.0993
  230POPC   C3B 3312   7.843   0.087   5.742 -0.0301 -0.2895 -0.1527
  230POPC   C4B 3313   7.676   0.284   6.069  0.2134  0.0589 -0.0614
  231POPC   NC3 3314   1.607   6.682   5.304  0.0103  0.0911 -0.2422
  231POPC   PO4 3315   1.825   6.960   5.416  0.0706  0.1421 -0.0162
  231POPC   GL1 3316   1.631   6.886   5.781  0.1829  0.0583  0.2483
  231POPC   GL2 3317   1.862   7.205   5.841 -0.2917 -0.1507  0.2387
  231POPC   C1A 3318   1.378   6.709   5.972  0.0532  0.1093 -0.0983
  231POPC   D2A 3319   1.264   6.652   6.444  0.0527  0.2636 -0.2461
  231POPC   C3A 3320   1.368   6.871   6.766 -0.1705  0.3444 -0.2466
  231POPC   C4A 3321   1.496   6.801   7.162 -0.0688  0.3485 -0.1450
  231POPC   C1B 3322   2.070   7.413   6.130  0.0819  0.2738 -0.3430
  231POPC   C2B 3323   2.089   7.376   6.589  0.0133  0.1744  0.0042
  231POPC   C3B 3324   1.900   7.109   6.992  0.1822 -0.3048  0.1910
  231POPC   C4B 3325   2.075   7.173   7.460  0.1435 -0.0865 -0.0674
  232POPC   NC3 3326   0.351   4.209   4.955  0.0185  0.2019  0.0213
  232POPC   PO4 3327   0.074   3.907   4.818  0.1066  0.2185 -0.0707
  232POPC   GL1 3328  -0.126   3.857   5.201  0.0823 -0.0539 -0.1265
  232POPC   GL2 3329   0.270   3.869   5.357 -0.0600  0.1258 -0.0889
  232POPC   C1A 3330  -0.353   3.753   5.567  0.0417  0.0289  0.1954
  232POPC   D2A 3331  -0.584   3.566   5.790  0.1136  0.2795  0.0181
  232POPC   C3A 3332  -0.791   3.507   6.199 -0.0516 -0.1200  0.0139
  232POPC   C4A 3333  -0.709   3.857   6.389 -0.0164  0.1101 -0.1633
  232POPC   C1B 3334   0.509   3.576   5.596 -0.0520 -0.3656 -0.0502
  232POPC   C2B 3335   0.639   3.745   6.002  0.0663 -0.0437  0.2101
  232POPC   C3B 3336   0.812   3.749   6.335  0.2459 -0.2315  0.2327
  232POPC   C4B 3337   0.954   3.484   6.632  0.0097  0.1263 -0.3186
  233POPC   NC3 3338   0.176   2.485   3.381  0.0701 -0.0461  0.1852
  233POPC   PO4 3339   0.015   2.788   3.731  0.2843  0.0431  0.1477
  233POPC   GL1 3340   0.124   2.637   4.221 -0.0558 -0.0872 -0.2153
  233POPC   GL2 3341  -0.240   2.482   4.159  0.3872 -0.0057  0.0994
  233POPC   C1A 3342   0.150   2.490   4.701 -0.2102  0.4689 -0.2918
  233POPC   D2A 3343   0.457   2.399   4.928 -0.1295  0.2175  0.2707
  233POPC   C3A 3344   0.758   2.687   5.031 -0.0226  0.1614  0.1569
  233POPC   C4A 3345   0.992   2.689   5.446  0.0009 -0.1484  0.0996
  233POPC   C1B 3346  -0.523   2.177   4.277  0.2152  0.2878  0.3044
  233POPC   C2B 3347  -0.670   2.011   4.627 -0.2571 -0.0601  0.0544
  233POPC   C3B 3348  -0.463   1.834   5.007  0.1594  0.1129 -0.3557
  233POPC   C4B 3349  -0.342   1.629   5.507 -0.2921 -0.0232  0.0929
  234POPC   NC3 3350   1.089   5.834   4.793 -0.0566  0.2111  0.2827
  234POPC   PO4 3351   0.830   5.620   5.200  0.0747 -0.1103 -0.5685
  234POPC   GL1 3352   1.143   5.801   5.501  0.0805 -0.0891  0.0501
  234POPC   GL2 3353   1.068   6.041   5.681 -0.0217 -0.0497  0.1068
  234POPC   C1A 3354   1.390   5.686   5.897  0.2630  0.0564  0.0647
  234POPC   D2A 3355   1.364   5.439   6.271  0.0969  0.1413 -0.0145
  234POPC   C3A 3356   1.215   5.657   6.650 -0.1463 -0.3319 -0.2151
  234POPC   C4A 3357   0.968   5.836   7.003 -0.3164  0.0182 -0.0016
  234POPC   C1B 3358   1.022   5.864   6.131 -0.0098  0.1042  0.0583
  234POPC   C2B 3359   1.077   6.170   6.568  0.3027  0.2016  0.0003
  234POPC   C3B 3360   1.391   6.296   6.803 -0.2204  0.0623 -0.2153
  234POPC   C4B 3361   1.857   6.049   6.774 -0.1185 -0.2205 -0.1421
  235POPC   NC3 3362   6.172   5.138   4.978  0.0382 -0.0259  0.0809
  235POPC   PO4 3363   6.408   4.772   4.868 -0.0008 -0.3486  0.0805
  235POPC   GL1 3364   6.420   4.768   5.269  0.3054 -0.0555 -0.0272
  235POPC   GL2 3365   6.337   4.396   5.348 -0.0340  0.1783 -0.3404
  235POPC   C1A 3366   6.420   5.081   5.591  0.0132 -0.2595 -0.0778
  235POPC   D2A 3367   6.453   5.422   5.906 -0.0395  0.0609 -0.3397
  235POPC   C3A 3368   6.530   5.658   6.295 -0.0526  0.1128 -0.1243
  235POPC   C4A 3369   6.501   5.863   6.674  0.3426  0.1102  0.0524
  235POPC   C1B 3370   6.622   4.590   5.711 -0.2318  0.2569 -0.5699
  235POPC   C2B 3371   6.899   4.617   6.072  0.1264  0.0246 -0.1753
  235POPC   C3B 3372   6.806   4.584   6.589  0.1143  0.0151 -0.3064
  235POPC   C4B 3373   7.023   4.544   6.994 -0.0019 -0.2116 -0.1570
  236POPC   NC3 3374   7.557   2.313   4.058 -0.2909 -0.2551 -0.0424
  236POPC   PO4 3375   7.484   2.620   4.366 -0.0465  0.0249  0.0787
  236POPC   GL1 3376   7.199   2.462   4.617 -0.0320  0.0012 -0.1997
  236POPC   GL2 3377   7.242   2.747   4.818 -0.1936  0.0108  0.2234
  236POPC   C1A 3378   7.062   2.349   5.010 -0.2627  0.1555  0.2843
  236POPC   D2A 3379   7.320   2.498   5.404  0.3404 -0.0676  0.0754
  236POPC   C3A 3380   7.783   2.561   5.273 -0.2817  0.1905  0.0578
  236POPC   C4A 3381   8.104   2.406   4.964 -0.2995  0.2129 -0.0812
  236POPC   C1B 3382   7.579   3.031   5.055  0.1294 -0.0705  0.3149
  236POPC   C2B 3383   7.923   3.015   5.275 -0.1631  0.2082 -0.1228
  236POPC   C3B 3384   8.354   3.003   5.386  0.0883 -0.1894  0.1465
  236POPC   C4B 3385   8.571   2.792   5.615  0.0579  0.2039  0.0558
  237POPC   NC3 3386   4.711   7.816   5.446  0.0358  0.0021  0.4231
  237POPC   PO4 3387   4.399   7.533   5.339  0.0022  0.0668 -0.0561
  237POPC   GL1 3388   4.409   7.636   5.812 -0.0784  0.1680  0.0733
  237POPC   GL2 3389   4.140   7.823   5.959  0.0913 -0.2375 -0.0450
  237POPC   C1A 3390   4.484   7.446   6.240  0.1855 -0.0387 -0.2025
  237POPC   D2A 3391   4.418   7.297   6.695 -0.0972  0.2980 -0.1766
  237POPC   C3A 3392   4.435   7.518   7.081  0.1610 -0.2817 -0.0369
  237POPC   C4A 3393   4.501   7.771   7.491 -0.0561 -0.1255 -0.0909
  237POPC   C1B 3394   3.987   7.689   6.276  0.2585 -0.2450 -0.0715
  237POPC   C2B 3395   3.619   7.454   6.470  0.1216  0.1793  0.2756
  237POPC   C3B 3396   3.407   7.423   6.872  0.1546  0.0050  0.3252
  237POPC   C4B 3397   3.478   7.488   7.308 -0.0971  0.2476  0.0898
  238POPC   NC3 3398   3.129   2.004   5.169  0.4340  0.0928  0.0391
  238POPC   PO4 3399   2.931   2.474   5.217 -0.4578 -0.0705 -0.0385
  238POPC   GL1 3400   2.734   2.540   5.486 -0.0741 -0.0035 -0.1735
  238POPC   GL2 3401   2.674   2.134   5.521 -0.2349  0.0809 -0.0933
  238POPC   C1A 3402   2.587   2.488   5.891 -0.1055 -0.0197  0.0603
  238POPC   D2A 3403   2.671   2.277   6.349  0.0172 -0.1090 -0.2887
  238POPC   C3A 3404   2.397   2.170   6.653  0.2764 -0.4002 -0.2756
  238POPC   C4A 3405   2.056   2.208   6.995 -0.0395  0.1306  0.1957
  238POPC   C1B 3406   2.862   1.991   5.950  0.2469 -0.1241 -0.0405
  238POPC   C2B 3407   3.019   1.945   6.414  0.1759  0.0292  0.2164
  238POPC   C3B 3408   2.867   2.121   6.821  0.0022  0.4239  0.0206
  238POPC   C4B 3409   2.607   2.088   7.105 -0.2686 -0.0720 -0.1838
  239POPC   NC3 3410   8.105   5.782   5.332 -0.1375 -0.1937  0.1190
  239POPC   PO4 3411   7.718   5.963   5.380 -0.0765  0.2163 -0.0618
  239POPC   GL1 3412   7.844   5.857   5.847 -0.1286 -0.2253  0.1818
  239POPC   GL2 3413   8.100   5.695   5.805 -0.1099  0.0502 -0.0086
  239POPC   C1A 3414   7.669   5.691   6.289 -0.0892 -0.0493  0.0126
  239POPC   D2A 3415   7.395   5.466   6.664  0.0067 -0.0879  0.1100
  239POPC   C3A 3416   7.339   5.467   7.012  0.1156 -0.1602  0.0171
  239POPC   C4A 3417   7.266   5.303   7.343  0.0092 -0.3859 -0.0069
  239POPC   C1B 3418   8.203   5.579   6.161  0.2654  0.1942  0.2539
  239POPC   C2B 3419   8.233   5.224   6.420  0.2475 -0.0932  0.2215
  239POPC   C3B 3420   8.239   5.093   6.750  0.0939  0.0426  0.2427
  239POPC   C4B 3421   8.326   4.964   7.113 -0.1411  0.3715  0.4485
  240POPC   NC3 3422   0.494   4.641   4.721  0.0335 -0.2625  0.1229
  240POPC   PO4 3423   0.214   4.682   5.019 -0.1789  0.0058  0.2184
  240POPC   GL1 3424   0.194   4.952   5.482  0.1062 -0.0583 -0.2492
  240POPC   GL2 3425   0.055   5.066   5.709 -0.3201  0.2721  0.1252
  240POPC   C1A 3426   0.276   4.650   5.772 -0.1277  0.1440 -0.2910
  240POPC   D2A 3427   0.077   4.499   6.222 -0.0495  0.0471  0.3014
  240POPC   C3A 3428   0.277   4.714   6.585 -0.0918  0.2002 -0.1591
  240POPC   C4A 3429   0.692   4.576   6.895  0.2202  0.0269  0.1209
  240POPC   C1B 3430  -0.025   4.979   6.165 -0.2252  0.3105  0.0754
  240POPC   C2B 3431  -0.087   5.126   6.504 -0.0412 -0.0918 -0.0825
  240POPC   C3B 3432  -0.315   5.300   6.865 -0.0604  0.4353 -0.2167
  240POPC   C4B 3433  -0.472   5.700   7.079  0.6062 -0.0540 -0.0430
  241POPC   NC3 3434   6.906   0.689   3.947  0.0569 -0.1620  0.0077
  241POPC   PO4 3435   6.913   0.770   4.456  0.3853  0.0701  0.2485
  241POPC   GL1 3436   7.137   0.579   4.630  0.2348 -0.0230 -0.1131
  241POPC   GL2 3437   7.241   0.729   4.829  0.0229 -0.0358 -0.0012
  241POPC   C1A 3438   7.096   0.388   5.160 -0.2699  0.0212 -0.3909
  241POPC   D2A 3439   6.908   0.175   5.512  0.1195  0.0615 -0.1199
  241POPC   C3A 3440   7.198   0.043   5.953  0.1930  0.4067 -0.0318
  241POPC   C4A 3441   7.488  -0.183   6.254  0.1190  0.3074  0.1710
  241POPC   C1B 3442   7.556   0.680   5.131 -0.2017  0.2305  0.0132
  241POPC   C2B 3443   7.823   0.538   5.435  0.0458  0.0122  0.0785
  241POPC   C3B 3444   7.943   0.649   5.783  0.2475  0.4350 -0.1458
  241POPC   C4B 3445   7.879   0.862   6.168  0.0801 -0.1032  0.1066
  242POPC   NC3 3446   3.530   3.431   4.837  0.0036  0.1881 -0.0068
  242POPC   PO4 3447   3.521   3.583   5.207  0.1782  0.0187  0.2065
  242POPC   GL1 3448   3.450   3.349   5.602  0.0216  0.2902 -0.0097
  242POPC   GL2 3449   3.155   3.414   5.690 -0.0092  0.1535 -0.0122
  242POPC   C1A 3450   3.588   3.342   6.005 -0.1503  0.0223 -0.0465
  242POPC   D2A 3451   3.479   3.257   6.543  0.2792  0.1939  0.4948
  242POPC   C3A 3452   3.663   3.431   6.884  0.2462  0.0258  0.3333
  242POPC   C4A 3453   3.965   3.295   7.180 -0.1429 -0.0542 -0.0791
  242POPC   C1B 3454   3.059   3.366   6.120  0.1447 -0.0523  0.0146
  242POPC   C2B 3455   3.069   2.997   6.409  0.0518  0.0640  0.2113
  242POPC   C3B 3456   3.234   2.878   6.754  0.0016  0.4108 -0.3457
  242POPC   C4B 3457   3.541   2.626   6.909  0.0406 -0.1455 -0.1961
  243POPC   NC3 3458   0.428   9.014   5.000  0.2905 -0.0053 -0.3222
  243POPC   PO4 3459   1.002   9.126   4.976 -0.0066  0.3058 -0.0404
  243POPC   GL1 3460   1.157   9.396   5.338 -0.1403 -0.0155 -0.0920
  243POPC   GL2 3461   1.372   9.229   5.579  0.0497 -0.2426  0.0277
  243POPC   C1A 3462   1.001   9.538   5.746  0.0649 -0.1607  0.3871
  243POPC   D2A 3463   0.556   9.434   6.006 -0.0922 -0.2042 -0.2304
  243POPC   C3A 3464   0.309   9.486   6.374  0.1021 -0.0622  0.5271
  243POPC   C4A 3465   0.096   9.822   6.569  0.0587 -0.0829 -0.0829
  243POPC   C1B 3466   1.503   9.202   6.032  0.0839 -0.1006 -0.0321
  243POPC   C2B 3467   1.476   9.082   6.519  0.2456 -0.1052 -0.0075
  243POPC   C3B 3468   1.591   8.983   6.914  0.0690  0.0667 -0.0456
  243POPC   C4B 3469   1.927   8.995   7.163 -0.1155  0.1713  0.2239
  244POPC   NC3 3470   6.235   7.088   5.193  0.0915 -0.0107  0.2981
  244POPC   PO4 3471   6.618   6.955   5.362  0.0054 -0.0370  0.0180
  244POPC   GL1 3472   6.792   7.000   5.678  0.0724 -0.1919  0.0891
  244POPC   GL2 3473   6.710   7.301   5.917 -0.0899 -0.2902  0.1834
  244POPC   C1A 3474   6.816   6.906   6.191  0.2156  0.2415 -0.0264
  244POPC   D2A 3475   6.844   7.027   6.636  0.3518  0.1680 -0.0834
  244POPC   C3A 3476   7.049   6.680   6.868  0.0211 -0.3061 -0.0542
  244POPC   C4A 3477   7.090   6.361   7.227 -0.0482  0.0622  0.1239
  244POPC   C1B 3478   6.855   7.492   6.248 -0.0085 -0.0220 -0.1656
  244POPC   C2B 3479   6.875   7.852   6.381  0.1360 -0.2099  0.1747
  244POPC   C3B 3480   6.758   7.930   6.731 -0.1620  0.0797  0.1775
  244POPC   C4B 3481   6.714   7.752   7.135  0.1898 -0.1039  0.1754
  245POPC   NC3 3482   5.963   2.115   4.744 -0.1487 -0.1911 -0.1192
  245POPC   PO4 3483   5.537   2.326   4.847  0.1987  0.0396  0.0314
  245POPC   GL1 3484   5.404   2.167   5.301 -0.1958 -0.1618  0.0574
  245POPC   GL2 3485   5.324   1.785   5.334 -0.3071  0.1449 -0.1247
  245POPC   C1A 3486   5.232   2.335   5.627  0.2836 -0.0282  0.0963
  245POPC   D2A 3487   5.278   2.305   6.071 -0.2503  0.0813 -0.0062
  245POPC   C3A 3488   5.222   2.053   6.419 -0.0538 -0.1398 -0.2016
  245POPC   C4A 3489   4.841   2.086   6.606  0.1458 -0.0971  0.0178
  245POPC   C1B 3490   5.292   1.783   5.721  0.2788 -0.1001 -0.0706
  245POPC   C2B 3491   5.146   1.696   6.050  0.0515 -0.0241  0.1420
  245POPC   C3B 3492   4.862   1.632   6.408 -0.0377  0.1071 -0.0282
  245POPC   C4B 3493   4.915   1.659   6.848 -0.0032  0.0255  0.0657
  246POPC   NC3 3494   3.910   1.691   5.362 -0.0794 -0.0276  0.2528
  246POPC   PO4 3495   3.595   2.026   5.348 -0.0644  0.0970 -0.0382
  246POPC   GL1 3496   3.255   2.092   5.602 -0.2203 -0.1371  0.0497
  246POPC   GL2 3497   3.198   1.809   5.663  0.0325  0.0298  0.1509
  246POPC   C1A 3498   3.099   2.474   5.818 -0.0703 -0.0692  0.1164
  246POPC   D2A 3499   3.025   2.571   6.165 -0.4541 -0.1461 -0.0254
  246POPC   C3A 3500   2.745   2.616   6.676 -0.0105  0.1907 -0.1521
  246POPC   C4A 3501   2.799   3.034   6.946  0.1333 -0.2042 -0.0759
  246POPC   C1B 3502   3.462   1.652   6.010  0.2235 -0.0256 -0.2295
  246POPC   C2B 3503   3.955   1.781   6.103  0.1443  0.5841  0.0345
  246POPC   C3B 3504   3.997   1.890   6.493 -0.0106  0.1697 -0.1358
  246POPC   C4B 3505   3.976   2.198   6.796  0.2282 -0.0482 -0.4136
  247POPC   NC3 3506   7.460   9.773   4.264 -0.2458  0.0421  0.0231
  247POPC   PO4 3507   7.377   9.675   4.718  0.1725  0.0334 -0.0812
  247POPC   GL1 3508   7.505   9.752   5.154 -0.2299  0.3681 -0.1180
  247POPC   GL2 3509   7.829   9.907   5.106 -0.1192  0.1650 -0.2017
  247POPC   C1A 3510   7.559   9.923   5.603 -0.0246 -0.0188 -0.2255
  247POPC   D2A 3511   7.769   9.694   5.931 -0.0242  0.0908  0.2187
  247POPC   C3A 3512   7.994   9.998   6.213 -0.2023 -0.0420 -0.3151
  247POPC   C4A 3513   7.814  10.253   6.544 -0.0827  0.3639 -0.1407
  247POPC   C1B 3514   7.567  10.310   5.125 -0.1224  0.2948 -0.2001
  247POPC   C2B 3515   7.412  10.422   5.532 -0.0532  0.0107  0.1426
  247POPC   C3B 3516   7.212  10.757   5.667 -0.2462  0.0164 -0.1447
  247POPC   C4B 3517   7.056  11.008   5.379  0.0390 -0.0665 -0.0057
  248POPC   NC3 3518   7.102   2.921   4.372  0.4315 -0.0940  0.0683
  248POPC   PO4 3519   6.735   2.732   4.610 -0.0214  0.0604 -0.1512
  248POPC   GL1 3520   6.681   2.674   5.026 -0.1094 -0.0637  0.2361
  248POPC   GL2 3521   6.443   2.818   5.116 -0.2286  0.3149 -0.2452
  248POPC   C1A 3522   6.762   2.459   5.400 -0.1206 -0.2055 -0.0160
  248POPC   D2A 3523   6.958   2.257   5.686  0.0770  0.3103 -0.2923
  248POPC   C3A 3524   7.249   2.285   6.003  0.1701 -0.0525 -0.1631
  248POPC   C4A 3525   7.643   2.471   6.192  0.2282 -0.1148  0.2691
  248POPC   C1B 3526   6.378   2.797   5.622  0.0143  0.1625 -0.0010
  248POPC   C2B 3527   6.223   2.724   5.990  0.0612 -0.2291  0.4978
  248POPC   C3B 3528   6.289   2.644   6.349 -0.0171 -0.0255  0.1995
  248POPC   C4B 3529   6.476   2.481   6.734 -0.2210 -0.1395  0.2212
  249POPC   NC3 3530   6.880   9.084   5.299  0.0257 -0.1305 -0.1912
  249POPC   PO4 3531   7.251   9.128   5.168  0.2107  0.3504  0.2457
  249POPC   GL1 3532   7.323   9.399   5.511  0.1843 -0.2840 -0.3820
  249POPC   GL2 3533   7.178   9.070   5.682  0.2259 -0.1297  0.0610
  249POPC   C1A 3534   7.241   9.630   5.886  0.1564  0.0721  0.1764
  249POPC   D2A 3535   7.503   9.512   6.310 -0.0415  0.3744  0.1266
  249POPC   C3A 3536   7.869   9.693   6.576 -0.0351  0.0348 -0.2238
  249POPC   C4A 3537   8.253   9.833   6.625  0.0282  0.0469 -0.0773
  249POPC   C1B 3538   7.192   8.989   6.065 -0.0100  0.2155 -0.0049
  249POPC   C2B 3539   7.258   8.974   6.512  0.2094  0.3076  0.3202
  249POPC   C3B 3540   7.050   8.916   6.771  0.2136  0.0732 -0.0396
  249POPC   C4B 3541   6.859   8.950   7.122 -0.1450  0.2155 -0.0225
  250POPC   NC3 3542   5.409   9.468   5.339  0.1410  0.2296  0.0193
  250POPC   PO4 3543   5.370   8.964   5.313  0.3192 -0.0905 -0.1373
  250POPC   GL1 3544   5.457   9.026   5.674 -0.0660 -0.1119 -0.1002
  250POPC   GL2 3545   5.697   8.854   5.823  0.3655  0.1368  0.2216
  250POPC   C1A 3546   5.150   9.101   6.082 -0.0236  0.1847  0.0157
  250POPC   D2A 3547   5.116   9.251   6.444  0.2776 -0.3864 -0.2234
  250POPC   C3A 3548   4.854   9.392   6.680 -0.0321 -0.0837 -0.1272
  250POPC   C4A 3549   4.842   9.841   6.881  0.1817  0.1112  0.0894
  250POPC   C1B 3550   5.830   8.852   6.239 -0.1115  0.2002  0.1945
  250POPC   C2B 3551   6.133   8.727   6.635 -0.0055 -0.0732  0.0062
  250POPC   C3B 3552   6.391   8.962   6.932  0.2972  0.1151 -0.0315
  250POPC   C4B 3553   6.309   9.207   7.319  0.3291 -0.1138 -0.1370
  251POPC   NC3 3554   0.896   7.688   5.474 -0.0941 -0.3522  0.0440
  251POPC   PO4 3555   0.799   8.136   5.462 -0.1435 -0.0041  0.1351
  251POPC   GL1 3556   0.904   7.962   5.891  0.2608  0.1268 -0.2173
  251POPC   GL2 3557   1.139   8.211   5.965 -0.0326  0.2156 -0.1090
  251POPC   C1A 3558   0.696   7.881   6.221 -0.1167 -0.1984 -0.2029
  251POPC   D2A 3559   0.859   7.796   6.606 -0.3872 -0.0860  0.3035
  251POPC   C3A 3560   0.760   7.994   7.061  0.1421  0.1777  0.2198
  251POPC   C4A 3561   0.456   8.190   7.368 -0.1412  0.1419  0.2624
  251POPC   C1B 3562   0.765   8.357   6.218  0.0584  0.1965 -0.1207
  251POPC   C2B 3563   0.481   8.328   6.586 -0.0495  0.1696 -0.2002
  251POPC   C3B 3564   0.173   8.393   6.893 -0.0137  0.1233 -0.0523
  251POPC   C4B 3565  -0.049   8.272   7.226  0.1701 -0.0449 -0.1922
  252POPC   NC3 3566   4.004   7.104   5.205 -0.3261  0.0520  0.0181
  252POPC   PO4 3567   3.641   7.381   5.338  0.1003  0.2046 -0.0431
  252POPC   GL1 3568   3.535   7.296   5.827  0.0273 -0.0811 -0.0813
  252POPC   GL2 3569   3.639   7.536   5.950 -0.5436  0.0111 -0.1023
  252POPC   C1A 3570   3.553   7.007   6.242  0.0548 -0.0030 -0.0238
  252POPC   D2A 3571   3.519   6.870   6.641  0.4459  0.0167  0.0227
  252POPC   C3A 3572   3.130   6.859   6.930  0.0464  0.0925  0.1709
  252POPC   C4A 3573   2.752   6.792   6.709 -0.0987 -0.0182  0.3368
  252POPC   C1B 3574   3.393   7.927   6.200  0.0851  0.1448 -0.2378
  252POPC   C2B 3575   3.211   8.182   6.660 -0.1420 -0.0725 -0.0937
  252POPC   C3B 3576   2.893   8.253   6.971 -0.2820 -0.0576 -0.1789
  252POPC   C4B 3577   2.574   8.351   7.250  0.0080 -0.0275 -0.2356
  253POPC   NC3 3578   2.587   8.508   5.659  0.1014  0.1209 -0.1267
  253POPC   PO4 3579   2.673   8.824   5.519 -0.0509  0.0584  0.3591
  253POPC   GL1 3580   2.591   8.970   5.968  0.0079 -0.0001  0.0889
  253POPC   GL2 3581   2.421   8.827   6.291 -0.0800  0.0174 -0.0657
  253POPC   C1A 3582   2.980   8.861   6.258 -0.0326 -0.0703 -0.0828
  253POPC   D2A 3583   3.393   8.856   6.442  0.1959 -0.2442  0.5915
  253POPC   C3A 3584   3.437   8.949   6.871  0.0842 -0.1717 -0.0018
  253POPC   C4A 3585   3.361   8.646   7.036  0.0611  0.2057 -0.1018
  253POPC   C1B 3586   2.418   8.782   6.762 -0.3695 -0.2773 -0.0145
  253POPC   C2B 3587   2.400   8.788   7.227  0.1308 -0.0106 -0.0919
  253POPC   C3B 3588   2.109   8.872   7.596  0.0938  0.0781  0.1022
  253POPC   C4B 3589   2.065   8.725   7.991 -0.1595 -0.0812  0.0104
  254POPC   NC3 3590   0.619   9.550   4.263 -0.1094  0.1851 -0.2110
  254POPC   PO4 3591   0.375   9.388   4.546 -0.2737 -0.0003  0.0910
  254POPC   GL1 3592   0.317   9.589   4.982  0.0512  0.0015 -0.1971
  254POPC   GL2 3593   0.240   9.342   5.276  0.2109 -0.1786 -0.1607
  254POPC   C1A 3594   0.164   9.863   5.395  0.0566 -0.0563  0.2970
  254POPC   D2A 3595   0.254   9.709   5.739 -0.1812 -0.0467 -0.0194
  254POPC   C3A 3596  -0.014   9.816   5.990 -0.0582  0.0380 -0.0118
  254POPC   C4A 3597  -0.200   9.568   6.320 -0.1045 -0.0276  0.0035
  254POPC   C1B 3598   0.109   9.237   5.735  0.0633  0.2160  0.1788
  254POPC   C2B 3599  -0.120   9.134   6.039  0.2395 -0.1506  0.1277
  254POPC   C3B 3600  -0.323   8.751   6.219 -0.0105 -0.4658 -0.2148
  254POPC   C4B 3601  -0.694   8.593   6.373 -0.0346  0.4789  0.3135
  255POPC   NC3 3602   2.554   2.937   5.275  0.2161 -0.2686  0.3389
  255POPC   PO4 3603   2.615   3.355   5.479 -0.3239 -0.1383  0.0633
  255POPC   GL1 3604   2.576   3.585   5.767  0.1796  0.0417 -0.0461
  255POPC   GL2 3605   2.828   3.878   5.885 -0.0652  0.2197  0.1652
  255POPC   C1A 3606   2.496   3.548   6.167  0.2783 -0.0240 -0.0296
  255POPC   D2A 3607   2.698   3.321   6.490 -0.0186 -0.0165 -0.5063
  255POPC   C3A 3608   2.378   3.010   6.635  0.2221 -0.0379  0.1616
  255POPC   C4A 3609   2.292   2.671   6.789  0.1109 -0.0404  0.1818
  255POPC   C1B 3610   2.841   3.867   6.273 -0.0283  0.0942 -0.0843
  255POPC   C2B 3611   3.040   3.665   6.573  0.2573 -0.0484 -0.0925
  255POPC   C3B 3612   3.172   3.667   6.950  0.1068 -0.0409  0.3814
  255POPC   C4B 3613   2.915   3.696   7.315 -0.2895 -0.0754 -0.2266
  256POPC   NC3 3614   9.774   6.203   5.485 -0.2289 -0.2340 -0.1511
  256POPC   PO4 3615   9.512   6.572   5.428  0.2936 -0.3828 -0.1493
  256POPC   GL1 3616   9.618   6.656   5.773  0.0258 -0.0869 -0.2173
  256POPC   GL2 3617   9.490   6.953   5.827  0.1440  0.1584 -0.1131
  256POPC   C1A 3618   9.664   6.792   6.265 -0.1110  0.0020  0.3783
  256POPC   D2A 3619   9.520   6.639   6.655 -0.0374  0.3006  0.2028
  256POPC   C3A 3620   9.600   6.840   6.995 -0.1351  0.0428 -0.2037
  256POPC   C4A 3621   9.832   6.938   7.314  0.0783  0.0629  0.0924
  256POPC   C1B 3622   9.619   7.280   6.033 -0.2415  0.1664 -0.1678
  256POPC   C2B 3623   9.750   7.315   6.440  0.0365  0.0211  0.3528
  256POPC   C3B 3624   9.944   7.207   6.876  0.1937  0.0892  0.1571
  256POPC   C4B 3625  10.182   7.381   7.144 -0.0147  0.0667 -0.0114
  257POPC   NC3 3626   7.375   5.880   5.037 -0.1861  0.1444 -0.3340
  257POPC   PO4 3627   7.678   5.463   5.141  0.0824 -0.2928 -0.2992
  257POPC   GL1 3628   7.609   5.474   5.582 -0.1115  0.3734 -0.0971
  257POPC   GL2 3629   7.365   5.601   5.631 -0.0343 -0.2949  0.0761
  257POPC   C1A 3630   7.701   5.321   5.973  0.0590 -0.3070 -0.1894
  257POPC   D2A 3631   7.754   5.218   6.414  0.0256 -0.0118 -0.1861
  257POPC   C3A 3632   7.464   5.003   6.612  0.1586  0.1640 -0.0697
  257POPC   C4A 3633   7.363   4.623   6.539 -0.1561 -0.1987  0.0696
  257POPC   C1B 3634   7.258   5.600   5.919  0.1566 -0.2132 -0.1212
  257POPC   C2B 3635   6.993   5.536   6.260  0.1227 -0.1124  0.3067
  257POPC   C3B 3636   6.939   5.598   6.593  0.1036 -0.0093 -0.2257
  257POPC   C4B 3637   7.044   5.832   7.053 -0.1015 -0.4332  0.0126
  258POPC   NC3 3638   8.152   6.726   5.393  0.0494  0.1100  0.0255
  258POPC   PO4 3639   7.842   6.462   5.616 -0.3796 -0.3848  0.4944
  258POPC   GL1 3640   7.983   6.598   5.978 -0.1610 -0.0306  0.0659
  258POPC   GL2 3641   8.120   6.851   5.853 -0.0264  0.0430 -0.2238
  258POPC   C1A 3642   7.921   6.549   6.479  0.1707 -0.1246  0.1674
  258POPC   D2A 3643   8.017   6.803   6.682 -0.1979  0.1397 -0.1459
  258POPC   C3A 3644   7.795   7.142   6.752  0.1427 -0.0690 -0.0615
  258POPC   C4A 3645   7.421   7.278   7.090  0.2975 -0.0299  0.1067
  258POPC   C1B 3646   8.256   6.989   6.220  0.2118  0.0034 -0.0278
  258POPC   C2B 3647   8.279   7.316   6.484  0.0979 -0.2996 -0.0084
  258POPC   C3B 3648   8.301   7.315   6.925  0.2820  0.1729 -0.2303
  258POPC   C4B 3649   8.414   7.339   7.347 -0.0070 -0.2246 -0.0400
  259POPC   NC3 3650   5.759   7.620   4.889  0.0293 -0.1704  0.0641
  259POPC   PO4 3651   5.822   7.362   5.258 -0.1957 -0.0577  0.1941
  259POPC   GL1 3652   5.820   7.236   5.728 -0.2872 -0.0257 -0.1854
  259POPC   GL2 3653   5.547   7.008   5.785 -0.0208  0.1051  0.3717
  259POPC   C1A 3654   5.913   7.299   6.121 -0.2507 -0.0955 -0.3362
  259POPC   D2A 3655   5.911   7.710   6.276 -0.0003 -0.2142  0.0577
  259POPC   C3A 3656   5.518   7.963   6.420  0.1143 -0.0345  0.3232
  259POPC   C4A 3657   5.450   8.285   6.635 -0.2148  0.1539 -0.1398
  259POPC   C1B 3658   5.245   6.946   6.046  0.0246 -0.3068 -0.1958
  259POPC   C2B 3659   4.945   6.767   6.244 -0.0176  0.1345  0.3245
  259POPC   C3B 3660   4.941   6.381   6.548 -0.2026  0.1683 -0.2217
  259POPC   C4B 3661   5.237   6.243   6.846  0.0418 -0.2139 -0.2690
  260POPC   NC3 3662   3.468   2.517   5.237  0.1516  0.1082  0.1182
  260POPC   PO4 3663   3.819   2.620   5.249 -0.3218  0.0248 -0.2037
  260POPC   GL1 3664   3.906   2.352   5.581  0.1717  0.0731  0.0102
  260POPC   GL2 3665   3.674   2.079   5.869  0.3148 -0.0019 -0.0717
  260POPC   C1A 3666   4.166   2.346   5.884 -0.2059  0.1435 -0.6521
  260POPC   D2A 3667   3.999   2.410   6.287  0.0109  0.0232  0.2000
  260POPC   C3A 3668   3.636   2.409   6.477 -0.0649  0.0506 -0.0745
  260POPC   C4A 3669   3.269   2.361   6.603  0.1172 -0.0496 -0.0227
  260POPC   C1B 3670   3.403   2.134   6.103  0.2270  0.0465  0.1250
  260POPC   C2B 3671   3.493   1.893   6.499  0.1811 -0.1239 -0.1067
  260POPC   C3B 3672   3.684   1.753   6.918  0.0822 -0.0251 -0.2558
  260POPC   C4B 3673   4.067   1.535   7.015 -0.0448 -0.0181  0.2887
  261POPC   NC3 3674   8.919   5.514   4.374  0.0389 -0.0665  0.1637
  261POPC   PO4 3675   8.962   5.292   4.809  0.0027  0.2622 -0.1944
  261POPC   GL1 3676   9.093   5.133   5.249  0.0636 -0.0537  0.1122
  261POPC   GL2 3677   8.872   4.778   5.269 -0.1894  0.0802  0.1776
  261POPC   C1A 3678   9.406   5.248   5.584  0.2783 -0.1087  0.1424
  261POPC   D2A 3679   9.149   5.307   5.893  0.0939  0.2291  0.5906
  261POPC   C3A 3680   8.684   5.146   5.873 -0.0771  0.2153 -0.3222
  261POPC   C4A 3681   8.267   4.984   5.966 -0.1411 -0.1489  0.0924
  261POPC   C1B 3682   8.907   4.800   5.694 -0.2287  0.0721  0.1329
  261POPC   C2B 3683   8.619   4.656   6.046  0.3010 -0.2044 -0.0198
  261POPC   C3B 3684   8.486   4.783   6.417 -0.1535 -0.1172 -0.3671
  261POPC   C4B 3685   8.374   4.627   6.776 -0.1284  0.0421 -0.2091
  262POPC   NC3 3686   8.531   1.358   3.628  0.0057 -0.1728 -0.2495
  262POPC   PO4 3687   8.242   1.179   3.811  0.1307 -0.1953 -0.4556
  262POPC   GL1 3688   8.407   1.204   4.211  0.1489 -0.3762 -0.2113
  262POPC   GL2 3689   8.471   1.405   4.295 -0.1402 -0.2648  0.0224
  262POPC   C1A 3690   8.582   0.992   4.569  0.0773  0.0867  0.1967
  262POPC   D2A 3691   8.551   1.089   5.030  0.0426  0.0206  0.2365
  262POPC   C3A 3692   8.357   1.354   5.364  0.0443  0.0348 -0.1621
  262POPC   C4A 3693   8.346   1.712   5.597  0.0833 -0.1846  0.4364
  262POPC   C1B 3694   8.307   1.564   4.673 -0.1793 -0.1021 -0.2616
  262POPC   C2B 3695   8.168   1.936   4.977 -0.5843  0.0730 -0.1511
  262POPC   C3B 3696   8.154   2.147   5.339 -0.1288  0.1380  0.2119
  262POPC   C4B 3697   8.168   2.540   5.553  0.3304 -0.0345  0.0013
  263POPC   NC3 3698   7.996   4.479   4.509  0.0195 -0.2876 -0.3461
  263POPC   PO4 3699   7.938   4.679   4.958 -0.0802  0.2648  0.0003
  263POPC   GL1 3700   7.923   5.016   5.281  0.0390 -0.0498  0.0502
  263POPC   GL2 3701   8.277   4.843   5.367  0.1132 -0.2426 -0.0316
  263POPC   C1A 3702   7.818   4.923   5.718 -0.1184 -0.1297 -0.2241
  263POPC   D2A 3703   7.695   4.813   6.147 -0.1721  0.0383  0.1495
  263POPC   C3A 3704   7.939   4.700   6.514 -0.1111 -0.0359  0.2703
  263POPC   C4A 3705   7.855   4.718   6.979  0.0374  0.1473 -0.2534
  263POPC   C1B 3706   8.484   4.502   5.610  0.0181  0.2168  0.2519
  263POPC   C2B 3707   8.659   4.156   5.979  0.1380  0.2677  0.1977
  263POPC   C3B 3708   8.561   3.930   6.329 -0.0235  0.0049  0.1857
  263POPC   C4B 3709   8.377   3.571   6.370  0.0780  0.1737 -0.0250
  264POPC   NC3 3710   4.395   0.936   5.390  0.1141  0.1248 -0.0363
  264POPC   PO4 3711   4.167   0.639   5.153 -0.0843  0.0357 -0.2362
  264POPC   GL1 3712   4.093   0.491   5.518  0.1168  0.1585 -0.1867
  264POPC   GL2 3713   3.765   0.349   5.487  0.1136  0.1674  0.0361
  264POPC   C1A 3714   4.133   0.268   5.846  0.1712  0.1029 -0.0057
  264POPC   D2A 3715   4.411  -0.074   5.915 -0.0619 -0.0192  0.2055
  264POPC   C3A 3716   4.799  -0.061   6.250  0.1042  0.1927  0.6120
  264POPC   C4A 3717   4.962   0.140   6.535 -0.1413  0.0260 -0.0256
  264POPC   C1B 3718   3.545   0.212   5.838  0.2018 -0.0833  0.0748
  264POPC   C2B 3719   3.417   0.011   6.118  0.2165 -0.2465 -0.0544
  264POPC   C3B 3720   3.223  -0.335   6.415 -0.1359  0.1284 -0.0150
  264POPC   C4B 3721   3.184  -0.866   6.434 -0.0445  0.2167  0.0249
  265POPC   NC3 3722   5.379   4.512   5.135  0.3686  0.0363  0.0237
  265POPC   PO4 3723   5.820   4.770   5.044 -0.1612 -0.3310  0.1972
  265POPC   GL1 3724   5.918   4.731   5.544  0.0513  0.0108 -0.0494
  265POPC   GL2 3725   5.604   4.757   5.756 -0.0031  0.1317 -0.1466
  265POPC   C1A 3726   6.131   4.595   5.898  0.2372  0.2235  0.2720
  265POPC   D2A 3727   6.143   4.653   6.263 -0.2326  0.0596 -0.1571
  265POPC   C3A 3728   6.210   4.822   6.640  0.0033  0.1560 -0.0671
  265POPC   C4A 3729   6.368   5.040   6.999  0.0252 -0.1682 -0.2769
  265POPC   C1B 3730   5.412   4.929   6.197  0.3341 -0.1348  0.3231
  265POPC   C2B 3731   5.762   5.116   6.415 -0.1085 -0.3212  0.1109
  265POPC   C3B 3732   6.044   5.337   6.754 -0.0545 -0.3043 -0.1784
  265POPC   C4B 3733   6.136   5.660   6.987  0.0832  0.1314  0.0939
  266POPC   NC3 3734   0.426  10.100   4.308 -0.0185  0.1285  0.2556
  266POPC   PO4 3735   0.614   9.915   4.654 -0.1532 -0.1190 -0.3448
  266POPC   GL1 3736   0.666   9.992   5.055  0.2854 -0.0354 -0.3388
  266POPC   GL2 3737   0.789   9.789   5.369 -0.0950  0.1416  0.3588
  266POPC   C1A 3738   0.455  10.406   5.386 -0.1590  0.0012  0.0089
  266POPC   D2A 3739   0.398  10.683   5.613 -0.0028 -0.1154  0.0158
  266POPC   C3A 3740   0.340  10.644   6.138  0.1476  0.0592  0.2393
  266POPC   C4A 3741   0.214  10.881   6.464 -0.0296 -0.2126 -0.3198
  266POPC   C1B 3742   0.635  10.045   5.654 -0.0145  0.2381 -0.0009
  266POPC   C2B 3743   0.679  10.376   5.957 -0.0857  0.0270 -0.1879
  266POPC   C3B 3744   0.672  10.453   6.413  0.1735 -0.0460 -0.2058
  266POPC   C4B 3745   0.596  10.753   6.745  0.3011 -0.1652 -0.1794
  267POPC   NC3 3746   8.621   2.143   3.260 -0.1314  0.0767 -0.4437
  267POPC   PO4 3747   8.298   2.250   3.545 -0.0435 -0.2121  0.4968
  267POPC   GL1 3748   8.311   2.086   3.946  0.1502  0.0399 -0.3855
  267POPC   GL2 3749   8.350   1.739   3.930  0.0850  0.0174 -0.2348
  267POPC   C1A 3750   8.061   1.890   4.357 -0.3499  0.1934  0.1382
  267POPC   D2A 3751   7.814   1.587   4.589 -0.0060 -0.0997  0.2325
  267POPC   C3A 3752   7.610   1.574   5.067 -0.1647 -0.2058 -0.1039
  267POPC   C4A 3753   7.871   1.658   5.429  0.2096  0.2079  0.1168
  267POPC   C1B 3754   8.574   1.893   4.318 -0.1808  0.2367 -0.1545
  267POPC   C2B 3755   8.968   1.888   4.605 -0.3198 -0.2325  0.1977
  267POPC   C3B 3756   9.105   1.935   4.958 -0.1273 -0.1660  0.3787
  267POPC   C4B 3757   9.364   1.859   5.351 -0.1251  0.1921  0.1049
  268POPC   NC3 3758  10.192   5.213   5.133  0.1357 -0.1046  0.1192
  268POPC   PO4 3759  10.596   5.203   4.989  0.0296  0.1978 -0.1608
  268POPC   GL1 3760  10.779   5.295   5.400 -0.1664  0.5026  0.1482
  268POPC   GL2 3761  10.639   5.481   5.584  0.1354 -0.1240  0.2638
  268POPC   C1A 3762  10.859   5.041   5.803 -0.2178  0.3158  0.0885
  268POPC   D2A 3763  10.687   5.004   6.211 -0.1754 -0.1565  0.0315
  268POPC   C3A 3764  10.807   5.007   6.661 -0.1192  0.1281  0.0618
  268POPC   C4A 3765  10.818   4.993   7.134  0.1489 -0.2410  0.2866
  268POPC   C1B 3766  10.555   5.450   5.970 -0.0457 -0.1711  0.1491
  268POPC   C2B 3767  10.484   5.451   6.430  0.1460  0.0387 -0.3799
  268POPC   C3B 3768  10.640   5.413   6.877  0.0772  0.0491 -0.2135
  268POPC   C4B 3769  10.561   5.836   7.086 -0.2559  0.0766  0.1427
  269POPC   NC3 3770   6.396   6.026   4.955  0.0557 -0.3285 -0.1580
  269POPC   PO4 3771   6.437   5.996   5.288 -0.2191  0.1751  0.2385
  269POPC   GL1 3772   6.556   5.894   5.732  0.2487 -0.0732  0.1946
  269POPC   GL2 3773   6.368   5.957   6.007 -0.3020 -0.1754  0.1825
  269POPC   C1A 3774   6.873   5.943   6.061  0.0563  0.0062  0.0465
  269POPC   D2A 3775   7.194   6.016   6.210  0.0122 -0.0843 -0.1391
  269POPC   C3A 3776   7.319   5.923   6.530 -0.1371  0.0187  0.0167
  269POPC   C4A 3777   7.602   5.905   6.859  0.0670 -0.1226  0.0779
  269POPC   C1B 3778   6.387   6.187   6.300  0.0190  0.1167  0.0961
  269POPC   C2B 3779   6.252   6.378   6.650  0.1852  0.1925  0.2192
  269POPC   C3B 3780   6.055   6.545   7.141 -0.1834 -0.1869  0.0617
  269POPC   C4B 3781   5.829   6.769   7.463  0.1563 -0.1608 -0.0019
  270POPC   NC3 3782   7.783   5.119   4.798  0.2259  0.2755  0.0007
  270POPC   PO4 3783   7.280   5.041   4.771 -0.2541 -0.0772 -0.0460
  270POPC   GL1 3784   7.454   5.003   5.210  0.0237 -0.0222 -0.2498
  270POPC   GL2 3785   7.562   4.713   5.363  0.0496  0.1307  0.3396
  270POPC   C1A 3786   7.347   5.062   5.663 -0.1460  0.2949  0.0174
  270POPC   D2A 3787   7.267   5.149   6.134 -0.0781  0.2119 -0.1862
  270POPC   C3A 3788   7.012   5.006   6.380 -0.0797 -0.1509 -0.3527
  270POPC   C4A 3789   6.998   5.079   6.822  0.0232 -0.1469 -0.1658
  270POPC   C1B 3790   7.428   4.259   5.530  0.0254 -0.3427 -0.3216
  270POPC   C2B 3791   7.385   3.867   5.799 -0.0830 -0.0459 -0.0107
  270POPC   C3B 3792   7.409   3.773   6.188  0.0151  0.0326  0.1445
  270POPC   C4B 3793   7.520   3.841   6.660 -0.2011  0.3146 -0.1753
  271POPC   NC3 3794   0.060   3.280   3.637  0.0642  0.0560 -0.2191
  271POPC   PO4 3795  -0.274   3.293   4.003 -0.3922  0.0779  0.3004
  271POPC   GL1 3796  -0.410   3.216   4.498  0.1024 -0.0541  0.1221
  271POPC   GL2 3797  -0.497   2.937   4.326  0.1459  0.2920 -0.0791
  271POPC   C1A 3798  -0.610   3.129   4.957 -0.1749 -0.2491 -0.0161
  271POPC   D2A 3799  -0.729   2.867   5.271  0.0254  0.0320  0.1893
  271POPC   C3A 3800  -0.492   2.587   5.549 -0.4389  0.1450  0.0337
  271POPC   C4A 3801  -0.754   2.307   5.674 -0.0627 -0.1525  0.2851
  271POPC   C1B 3802  -0.766   2.772   4.651 -0.1216 -0.3482 -0.0602
  271POPC   C2B 3803  -1.215   2.919   4.733 -0.0981  0.0649  0.0624
  271POPC   C3B 3804  -1.478   2.650   4.533  0.1244 -0.1041 -0.1992
  271POPC   C4B 3805  -1.423   2.335   4.308  0.0272 -0.0681 -0.0471
  272POPC   NC3 3806   0.634   3.011   4.143  0.0266  0.0114 -0.0258
  272POPC   PO4 3807   0.720   3.211   4.476 -0.1066  0.0689  0.2083
  272POPC   GL1 3808   0.623   3.178   4.918  0.0766  0.0370 -0.1042
  272POPC   GL2 3809   0.855   3.195   5.270  0.2065  0.1687 -0.1841
  272POPC   C1A 3810   0.419   2.989   5.322 -0.4735  0.0460  0.0094
  272POPC   D2A 3811   0.496   2.604   5.660 -0.0583 -0.3993 -0.0842
  272POPC   C3A 3812   0.695   2.315   5.485 -0.1679  0.0334  0.0878
  272POPC   C4A 3813   0.855   2.166   5.097 -0.1414  0.0901 -0.1331
  272POPC   C1B 3814   0.713   3.102   5.704 -0.1835  0.1266  0.0945
  272POPC   C2B 3815   0.538   3.235   6.105  0.0054 -0.1330  0.2836
  272POPC   C3B 3816   0.533   3.177   6.509  0.1002  0.3250 -0.0611
  272POPC   C4B 3817   0.147   3.222   6.946  0.1739  0.3405  0.3122
  273POPC   NC3 3818   5.271   2.741   5.087 -0.2659  0.2780 -0.2354
  273POPC   PO4 3819   4.858   2.895   5.009 -0.2054 -0.2726 -0.2750
  273POPC   GL1 3820   5.017   2.911   5.483 -0.3056  0.3436 -0.1263
  273POPC   GL2 3821   4.748   2.894   5.680 -0.2385 -0.0203 -0.1946
  273POPC   C1A 3822   5.421   3.066   5.749  0.2259 -0.2024 -0.1758
  273POPC   D2A 3823   5.706   3.239   6.083 -0.0353 -0.2286 -0.1965
  273POPC   C3A 3824   6.126   3.104   6.277 -0.0565 -0.2260  0.0041
  273POPC   C4A 3825   6.453   3.182   6.374  0.1759  0.1096  0.3361
  273POPC   C1B 3826   5.105   2.731   5.929 -0.1464 -0.0917  0.0715
  273POPC   C2B 3827   5.380   2.922   6.289  0.0688 -0.1875 -0.0732
  273POPC   C3B 3828   5.712   2.862   6.518 -0.1725 -0.0249 -0.0248
  273POPC   C4B 3829   5.963   2.438   6.658 -0.1925  0.0397  0.1080
  274POPC   NC3 3830   1.677   7.491   5.453 -0.2572  0.0586  0.2101
  274POPC   PO4 3831   1.391   7.810   5.495 -0.1726 -0.2853  0.1004
  274POPC   GL1 3832   1.684   7.995   5.825  0.2416 -0.3091 -0.0312
  274POPC   GL2 3833   1.928   7.831   5.815 -0.2475 -0.1095  0.1981
  274POPC   C1A 3834   1.616   8.261   6.170 -0.0792  0.0752 -0.0493
  274POPC   D2A 3835   1.552   8.524   6.545 -0.1286  0.1671 -0.0929
  274POPC   C3A 3836   1.540   8.422   6.938  0.0481 -0.1172  0.0492
  274POPC   C4A 3837   1.672   8.090   7.176 -0.1312  0.0173  0.3419
  274POPC   C1B 3838   1.801   7.777   6.292  0.1563  0.1056 -0.2738
  274POPC   C2B 3839   1.559   7.499   6.535 -0.1749 -0.1554  0.2955
  274POPC   C3B 3840   1.172   7.364   6.659  0.0472  0.0872 -0.0633
  274POPC   C4B 3841   0.895   7.074   6.770 -0.2244  0.0703 -0.1555
  275POPC   NC3 3842   3.768   9.518   4.847  0.1780 -0.0161 -0.3331
  275POPC   PO4 3843   3.555   9.189   5.116  0.0491 -0.2218 -0.3002
  275POPC   GL1 3844   3.593   9.345   5.544 -0.1656  0.3779 -0.1574
  275POPC   GL2 3845   3.485   8.999   5.632  0.0907 -0.2738  0.0800
  275POPC   C1A 3846   3.806   9.219   5.992  0.0059  0.1564 -0.0170
  275POPC   D2A 3847   3.801   9.146   6.480 -0.1643 -0.4152 -0.0060
  275POPC   C3A 3848   3.685   9.406   6.762 -0.0732  0.0129  0.0443
  275POPC   C4A 3849   3.186   9.527   6.922  0.1678  0.2600 -0.3980
  275POPC   C1B 3850   3.323   9.215   5.938  0.2567 -0.1597 -0.1999
  275POPC   C2B 3851   3.116   9.571   6.009 -0.3935  0.3193  0.0508
  275POPC   C3B 3852   2.803   9.621   6.296 -0.2895 -0.4765  0.2229
  275POPC   C4B 3853   2.648   9.411   6.604 -0.2435 -0.0397 -0.3289
  276POPC   NC3 3854   2.767   9.534   5.228  0.1306  0.0871 -0.0678
  276POPC   PO4 3855   2.724   9.920   5.451 -0.4228 -0.1384  0.0130
  276POPC   GL1 3856   2.774   9.938   5.856 -0.2971  0.2040 -0.1436
  276POPC   GL2 3857   2.532   9.982   5.942 -0.1277  0.0932 -0.1827
  276POPC   C1A 3858   2.890  10.143   6.250  0.1316  0.1342 -0.1350
  276POPC   D2A 3859   3.126  10.295   6.598  0.0423 -0.0644  0.1603
  276POPC   C3A 3860   3.494  10.254   6.578 -0.0290 -0.1731 -0.1296
  276POPC   C4A 3861   3.793  10.407   6.774 -0.3809  0.1262  0.1638
  276POPC   C1B 3862   2.125   9.951   6.159  0.1026 -0.1453  0.2776
  276POPC   C2B 3863   1.750   9.992   6.404 -0.1658 -0.2285 -0.2475
  276POPC   C3B 3864   1.567  10.081   6.934  0.4985  0.0030  0.1016
  276POPC   C4B 3865   1.936   9.939   7.301 -0.1130 -0.0976  0.1894
  277POPC   NC3 3866   2.776   0.229   5.284 -0.2515  0.0382 -0.0284
  277POPC   PO4 3867   2.434   0.371   5.212  0.0009  0.1443  0.1878
  277POPC   GL1 3868   2.042   0.345   5.466  0.3063 -0.1910  0.0345
  277POPC   GL2 3869   1.706   0.319   5.405  0.0223  0.3923  0.3664
  277POPC   C1A 3870   1.895   0.607   5.790 -0.1485 -0.0413  0.1869
  277POPC   D2A 3871   1.653   0.746   6.052  0.0377  0.0648 -0.2464
  277POPC   C3A 3872   1.515   0.877   6.531  0.0052 -0.3253 -0.1946
  277POPC   C4A 3873   1.553   1.012   6.954 -0.3081 -0.1208  0.1529
  277POPC   C1B 3874   1.330   0.287   5.667 -0.3231 -0.3337 -0.1471
  277POPC   C2B 3875   1.169   0.487   5.983  0.0639  0.1547  0.1804
  277POPC   C3B 3876   1.092   0.606   6.380 -0.2528  0.2220 -0.2845
  277POPC   C4B 3877   1.069   0.824   6.831 -0.0723 -0.0846  0.2739
  278POPC   NC3 3878   7.610   0.103   4.361  0.2119 -0.3338 -0.0743
  278POPC   PO4 3879   7.953   0.396   4.294 -0.0845  0.0714 -0.1451
  278POPC   GL1 3880   7.948   0.706   4.597  0.0936 -0.0773 -0.0654
  278POPC   GL2 3881   8.026   1.038   4.516  0.3269 -0.1704  0.2852
  278POPC   C1A 3882   8.169   0.730   4.957  0.1375  0.0286  0.1382
  278POPC   D2A 3883   8.373   0.763   5.385 -0.0172  0.0546 -0.0658
  278POPC   C3A 3884   8.271   1.077   5.738 -0.1173 -0.0114 -0.0922
  278POPC   C4A 3885   7.926   1.297   5.813  0.1348  0.2738 -0.0330
  278POPC   C1B 3886   8.006   1.234   4.946 -0.2297 -0.0395 -0.0753
  278POPC   C2B 3887   7.894   1.017   5.409  0.2102  0.1523  0.2186
  278POPC   C3B 3888   7.525   0.931   5.561 -0.1455 -0.0571 -0.0387
  278POPC   C4B 3889   7.416   0.937   6.003 -0.2248  0.2817 -0.3187
  279POPC   NC3 3890   6.469   6.487   5.225 -0.0152 -0.0460  0.0916
  279POPC   PO4 3891   6.763   6.373   5.555 -0.0042  0.0253  0.0706
  279POPC   GL1 3892   6.878   6.435   5.925  0.2454 -0.0702 -0.1190
  279POPC   GL2 3893   6.568   6.585   6.016 -0.1467  0.0529 -0.0166
  279POPC   C1A 3894   6.843   6.346   6.358  0.1600  0.1379  0.0581
  279POPC   D2A 3895   6.907   6.229   6.745 -0.0012  0.0222  0.1274
  279POPC   C3A 3896   6.636   6.272   7.013 -0.0100 -0.0153 -0.1156
  279POPC   C4A 3897   6.209   6.078   7.259  0.0604 -0.0954 -0.0610
  279POPC   C1B 3898   6.371   6.753   6.247  0.0720 -0.0944 -0.0088
  279POPC   C2B 3899   6.387   7.168   6.384 -0.1527 -0.0589 -0.0169
  279POPC   C3B 3900   6.126   7.394   6.652  0.1131 -0.3417  0.1886
  279POPC   C4B 3901   5.731   7.624   6.723  0.2795 -0.0211 -0.0086
  280POPC   NC3 3902   2.585   2.131   4.252  0.2189 -0.0234  0.0055
  280POPC   PO4 3903   2.244   2.333   4.583 -0.0882  0.0745  0.0901
  280POPC   GL1 3904   2.195   2.349   5.099  0.0872 -0.0577  0.1066
  280POPC   GL2 3905   2.199   2.612   5.410  0.3530  0.2837  0.1569
  280POPC   C1A 3906   2.193   2.152   5.581 -0.0449  0.0647 -0.1487
  280POPC   D2A 3907   2.288   2.101   6.008 -0.2401 -0.2361  0.0687
  280POPC   C3A 3908   2.153   1.835   6.331  0.1909  0.0724  0.0724
  280POPC   C4A 3909   2.038   1.733   6.778 -0.0133  0.2084  0.0687
  280POPC   C1B 3910   2.201   2.818   5.895 -0.0336  0.0181 -0.0592
  280POPC   C2B 3911   1.981   3.090   6.267 -0.0781 -0.2251  0.1776
  280POPC   C3B 3912   1.906   3.139   6.663 -0.1129 -0.0782  0.1089
  280POPC   C4B 3913   1.649   3.099   7.088 -0.1908  0.0846  0.1735
  281POPC   NC3 3914   1.046   8.572   5.018 -0.0299 -0.1242 -0.2464
  281POPC   PO4 3915   0.656   8.628   5.222  0.1241  0.0787 -0.1346
  281POPC   GL1 3916   0.594   8.547   5.722 -0.2257 -0.0154 -0.0221
  281POPC   GL2 3917   0.912   8.627   5.825 -0.2643 -0.1198 -0.1562
  281POPC   C1A 3918   0.507   8.784   6.168  0.3469  0.0655  0.0074
  281POPC   D2A 3919   0.476   8.826   6.696 -0.2353  0.0457  0.0583
  281POPC   C3A 3920   0.669   9.170   6.965  0.1147 -0.2850 -0.1436
  281POPC   C4A 3921   0.588   9.408   7.269  0.3135 -0.2471 -0.0891
  281POPC   C1B 3922   0.909   9.050   6.033  0.2210  0.0839 -0.2926
  281POPC   C2B 3923   0.774   9.209   6.418 -0.1686 -0.0672  0.0264
  281POPC   C3B 3924   0.809   9.552   6.681  0.0378 -0.0107  0.1968
  281POPC   C4B 3925   0.604   9.795   6.656 -0.0126 -0.1180 -0.0476
  282POPC   NC3 3926   0.504   7.398   4.525  0.1360 -0.1414  0.1738
  282POPC   PO4 3927   0.440   7.193   5.018  0.2878 -0.1016 -0.1159
  282POPC   GL1 3928   0.393   7.257   5.539 -0.0343  0.2379 -0.7832
  282POPC   GL2 3929   0.123   7.245   5.671  0.2476  0.1067 -0.0893
  282POPC   C1A 3930   0.673   7.256   5.894 -0.0762  0.2173  0.1163
  282POPC   D2A 3931   0.983   6.980   6.151  0.0487  0.3646 -0.0568
  282POPC   C3A 3932   1.398   7.077   6.262  0.2441 -0.7781  0.0823
  282POPC   C4A 3933   1.769   7.052   6.436 -0.0439 -0.0743 -0.3443
  282POPC   C1B 3934   0.025   7.068   6.077 -0.0154  0.3274  0.4485
  282POPC   C2B 3935   0.037   7.109   6.525  0.1344  0.0160  0.0511
  282POPC   C3B 3936   0.368   7.096   6.850 -0.2715  0.0416 -0.0157
  282POPC   C4B 3937   0.457   7.235   7.281 -0.1807 -0.0796  0.1297
  283POPC   NC3 3938   4.799   0.542   5.166 -0.0007  0.3483  0.1835
  283POPC   PO4 3939   4.984   0.729   5.422 -0.0153  0.1245 -0.0084
  283POPC   GL1 3940   5.045   0.700   5.891  0.1827  0.2046 -0.0220
  283POPC   GL2 3941   4.889   0.389   6.018  0.3129 -0.0670  0.3410
  283POPC   C1A 3942   5.284   0.620   6.274  0.3319 -0.1381  0.1135
  283POPC   D2A 3943   5.236   0.563   6.684 -0.2826 -0.0376  0.3060
  283POPC   C3A 3944   5.486   0.649   7.006  0.0526  0.2478 -0.3312
  283POPC   C4A 3945   5.796   0.973   7.205  0.3348 -0.0971  0.0341
  283POPC   C1B 3946   4.808   0.592   6.424 -0.0644 -0.0546  0.2117
  283POPC   C2B 3947   4.539   0.901   6.569  0.1705  0.0071  0.2396
  283POPC   C3B 3948   4.368   0.885   6.977 -0.1077 -0.3650  0.1115
  283POPC   C4B 3949   4.169   1.081   7.312 -0.2971 -0.0666 -0.2580
  284POPC   NC3 3950   6.815   2.228   4.491  0.2916  0.0123  0.3632
  284POPC   PO4 3951   6.422   2.329   4.815 -0.1497  0.2658 -0.0658
  284POPC   GL1 3952   6.277   2.117   5.159 -0.1908 -0.0541  0.3026
  284POPC   GL2 3953   6.312   2.356   5.473  0.0611  0.0856 -0.2521
  284POPC   C1A 3954   6.554   1.881   5.405 -0.1659 -0.2696 -0.2461
  284POPC   D2A 3955   6.502   1.628   5.786 -0.0502 -0.2964  0.0998
  284POPC   C3A 3956   6.801   1.242   5.996 -0.2103  0.2507  0.1735
  284POPC   C4A 3957   6.707   0.788   5.971 -0.1312  0.0869 -0.0195
  284POPC   C1B 3958   6.181   2.176   5.878 -0.0915  0.2765  0.0746
  284POPC   C2B 3959   6.300   2.105   6.320  0.1016  0.1043  0.3406
  284POPC   C3B 3960   6.481   1.933   6.673 -0.0990  0.1204  0.2081
  284POPC   C4B 3961   6.454   1.593   6.830 -0.3314 -0.0316  0.0376
  285POPC   NC3 3962   7.194   5.412   5.159 -0.0212  0.4256  0.1917
  285POPC   PO4 3963   6.720   5.180   5.067 -0.0453 -0.0196 -0.2200
  285POPC   GL1 3964   6.921   4.999   5.400  0.3349  0.3149 -0.0344
  285POPC   GL2 3965   7.069   4.693   5.437  0.1901  0.1525 -0.0948
  285POPC   C1A 3966   6.890   5.055   5.767  0.2937 -0.0682  0.0454
  285POPC   D2A 3967   6.566   4.990   6.127  0.1594  0.1529  0.0550
  285POPC   C3A 3968   6.584   5.243   6.567 -0.0780 -0.0918  0.2445
  285POPC   C4A 3969   6.592   5.462   6.954 -0.0807 -0.1072  0.1862
  285POPC   C1B 3970   7.335   4.577   5.888  0.2230 -0.1911 -0.1452
  285POPC   C2B 3971   7.484   4.327   6.068  0.0375  0.1585 -0.1988
  285POPC   C3B 3972   7.766   4.261   6.391 -0.0889 -0.0696 -0.0476
  285POPC   C4B 3973   7.874   4.239   6.831  0.1257 -0.1631 -0.3939
  286POPC   NC3 3974   4.858   1.092   5.056  0.1310 -0.0828 -0.0180
  286POPC   PO4 3975   4.894   1.280   5.427 -0.0552 -0.1453 -0.2608
  286POPC   GL1 3976   4.806   1.193   5.917  0.0269 -0.0005 -0.4205
  286POPC   GL2 3977   4.669   0.993   5.931  0.0102  0.0782  0.0819
  286POPC   C1A 3978   4.975   1.109   6.316  0.0101  0.1837  0.0175
  286POPC   D2A 3979   5.021   1.153   6.761 -0.0038 -0.3178 -0.0571
  286POPC   C3A 3980   4.945   0.891   6.971  0.2261 -0.1063  0.0669
  286POPC   C4A 3981   4.741   1.091   7.339  0.0064 -0.2493 -0.3101
  286POPC   C1B 3982   4.413   1.254   6.257  0.1288  0.0075  0.1314
  286POPC   C2B 3983   4.395   1.568   6.539  0.0054 -0.1280  0.1922
  286POPC   C3B 3984   4.432   1.837   6.833 -0.0331 -0.1087  0.1396
  286POPC   C4B 3985   4.252   1.973   7.240  0.2108  0.0536  0.2429
  287POPC   NC3 3986   4.627   4.320   4.678  0.2538  0.1242  0.1579
  287POPC   PO4 3987   4.736   4.344   5.134 -0.0853 -0.0141 -0.1616
  287POPC   GL1 3988   4.806   4.371   5.618  0.0063  0.1087  0.1301
  287POPC   GL2 3989   5.101   4.421   5.757  0.1226  0.1592 -0.2041
  287POPC   C1A 3990   4.648   4.291   5.977 -0.1350  0.2736 -0.1401
  287POPC   D2A 3991   4.695   4.288   6.341 -0.0436 -0.0474 -0.0536
  287POPC   C3A 3992   4.736   3.875   6.595 -0.0342  0.0363 -0.1742
  287POPC   C4A 3993   4.537   3.758   7.008 -0.0536 -0.0479  0.1228
  287POPC   C1B 3994   5.076   4.599   6.153  0.0882 -0.0144 -0.2611
  287POPC   C2B 3995   5.145   4.658   6.575 -0.0899  0.2666  0.0436
  287POPC   C3B 3996   5.321   4.488   6.883  0.2951 -0.1164  0.1889
  287POPC   C4B 3997   5.507   4.216   7.153  0.2098 -0.0752  0.1378
  288POPC   NC3 3998   4.538   6.223   5.334 -0.0141  0.2307 -0.1227
  288POPC   PO4 3999   4.637   6.642   5.335 -0.2270  0.0163 -0.1453
  288POPC   GL1 4000   4.460   6.674   5.795 -0.1970 -0.2629 -0.3794
  288POPC   GL2 4001   4.234   6.543   5.795  0.1549 -0.1794  0.0798
  288POPC   C1A 4002   4.409   6.494   6.280  0.4985 -0.3407 -0.1875
  288POPC   D2A 4003   4.225   6.608   6.655 -0.0915 -0.0839 -0.0986
  288POPC   C3A 4004   3.842   6.490   6.802 -0.2571 -0.2357  0.1156
  288POPC   C4A 4005   3.749   6.129   7.054 -0.0380  0.0829 -0.1072
  288POPC   C1B 4006   3.927   6.659   6.213  0.4602  0.2162 -0.1271
  288POPC   C2B 4007   3.581   6.463   6.357 -0.1241 -0.3336  0.0932
  288POPC   C3B 4008   3.194   6.650   6.414  0.1036 -0.1484 -0.3090
  288POPC   C4B 4009   3.088   7.139   6.498 -0.0276  0.2923 -0.0340
  289POPC   NC3 4010   7.971   7.550   4.674  0.0328 -0.1106 -0.2448
  289POPC   PO4 4011   8.057   7.652   5.250 -0.2101 -0.0895  0.1006
  289POPC   GL1 4012   8.071   7.872   5.595 -0.2245 -0.0267 -0.1135
  289POPC   GL2 4013   8.257   7.596   5.787  0.1336  0.2990  0.2337
  289POPC   C1A 4014   8.037   8.011   5.946 -0.2562 -0.0136 -0.1325
  289POPC   D2A 4015   8.041   7.757   6.363  0.0453 -0.1632 -0.0219
  289POPC   C3A 4016   8.344   7.819   6.687 -0.1154 -0.0807 -0.1603
  289POPC   C4A 4017   8.654   7.824   7.085 -0.0284  0.3109 -0.0050
  289POPC   C1B 4018   7.993   7.333   5.998  0.0416 -0.1405  0.1034
  289POPC   C2B 4019   7.742   7.000   6.173 -0.1993 -0.1215 -0.0597
  289POPC   C3B 4020   7.512   6.813   6.550 -0.0075 -0.3735 -0.2450
  289POPC   C4B 4021   7.627   6.734   6.971 -0.1983 -0.1738 -0.1585
  290POPC   NC3 4022   5.369   7.277   5.454  0.0159 -0.1306 -0.3065
  290POPC   PO4 4023   4.944   7.183   5.371  0.1456 -0.2451  0.1363
  290POPC   GL1 4024   4.865   6.946   5.748  0.2096 -0.0668  0.0612
  290POPC   GL2 4025   4.748   7.157   5.979 -0.0585 -0.1991 -0.1967
  290POPC   C1A 4026   4.919   6.520   5.806 -0.0147 -0.0042  0.0443
  290POPC   D2A 4027   4.682   6.195   5.869 -0.0109  0.1554 -0.0630
  290POPC   C3A 4028   4.598   6.025   6.295  0.5021  0.0673  0.1505
  290POPC   C4A 4029   4.721   5.761   6.603 -0.1420 -0.2888 -0.0488
  290POPC   C1B 4030   4.890   7.208   6.411  0.0285 -0.3506  0.1131
  290POPC   C2B 4031   4.863   7.453   6.829 -0.3725 -0.0409 -0.2123
  290POPC   C3B 4032   4.878   7.400   7.287 -0.1012  0.0627  0.0712
  290POPC   C4B 4033   4.911   7.453   7.716 -0.0299 -0.0846  0.0815
  291POPC   NC3 4034   0.474   3.675   4.532  0.1924  0.1228  0.0660
  291POPC   PO4 4035   0.526   3.657   4.927  0.2456 -0.3236  0.1699
  291POPC   GL1 4036   0.179   3.392   4.832 -0.0564  0.0843  0.1215
  291POPC   GL2 4037  -0.136   3.426   4.906  0.0230  0.0638  0.1786
  291POPC   C1A 4038   0.112   3.001   4.989  0.2268 -0.3660 -0.1280
  291POPC   D2A 4039  -0.225   2.824   4.879 -0.1910  0.2872  0.2166
  291POPC   C3A 4040  -0.393   2.525   5.065  0.2470 -0.1561  0.0904
  291POPC   C4A 4041  -0.669   2.279   5.113 -0.1342 -0.1820 -0.0581
  291POPC   C1B 4042   0.102   3.393   5.307 -0.2172  0.0713 -0.0294
  291POPC   C2B 4043   0.213   3.236   5.753  0.1503  0.0931 -0.1509
  291POPC   C3B 4044   0.211   2.796   5.999  0.2332 -0.0056  0.2696
  291POPC   C4B 4045   0.451   2.684   6.537  0.1627 -0.1731 -0.0627
  292POPC   NC3 4046   5.279   0.353   5.200 -0.4178 -0.0282 -0.1764
  292POPC   PO4 4047   5.472  -0.060   5.232  0.1685  0.2319 -0.0612
  292POPC   GL1 4048   5.512   0.104   5.682 -0.2033  0.1461  0.2211
  292POPC   GL2 4049   5.272   0.329   5.708  0.0241 -0.0049  0.1021
  292POPC   C1A 4050   5.406   0.125   6.141  0.2694 -0.2215 -0.4537
  292POPC   D2A 4051   5.544  -0.020   6.545  0.1407  0.1005  0.1007
  292POPC   C3A 4052   5.684   0.201   6.824 -0.0583  0.0046 -0.2788
  292POPC   C4A 4053   6.022   0.215   7.088  0.1679 -0.1381 -0.0837
  292POPC   C1B 4054   5.557   0.562   5.865  0.0461 -0.0524  0.1465
  292POPC   C2B 4055   5.758   0.526   6.348 -0.2188  0.0611 -0.0237
  292POPC   C3B 4056   5.953   0.592   6.744 -0.1802  0.0972  0.0769
  292POPC   C4B 4057   6.374   0.543   6.898  0.1247  0.1433 -0.1097
  293POPC   NC3 4058   9.325   7.212   4.860 -0.1976  0.1452 -0.1315
  293POPC   PO4 4059   9.370   7.584   5.077  0.2446  0.1835  0.1547
  293POPC   GL1 4060   9.567   7.660   5.496 -0.0169  0.1054  0.2469
  293POPC   GL2 4061   9.388   7.550   5.730  0.0181  0.1027 -0.2196
  293POPC   C1A 4062   9.902   7.754   5.790 -0.1306  0.4530 -0.0987
  293POPC   D2A 4063   9.953   7.698   6.255 -0.1494  0.1307 -0.0436
  293POPC   C3A 4064   9.868   7.705   6.751 -0.1418  0.0204 -0.2277
  293POPC   C4A 4065   9.684   8.031   6.923  0.2809 -0.0486  0.0055
  293POPC   C1B 4066   9.495   7.749   6.101 -0.2388 -0.2488  0.2105
  293POPC   C2B 4067   9.392   7.967   6.542 -0.0343 -0.0397 -0.2508
  293POPC   C3B 4068   9.287   8.332   6.823  0.0377 -0.1650  0.3297
  293POPC   C4B 4069   9.438   8.625   7.132 -0.2513 -0.3178  0.0900
  294POPC   NC3 4070   0.318   8.238   5.334  0.0294  0.0622 -0.1451
  294POPC   PO4 4071   0.463   7.816   5.234  0.1418 -0.0366  0.1317
  294POPC   GL1 4072   0.392   7.701   5.723  0.1343  0.2721 -0.2839
  294POPC   GL2 4073   0.278   8.023   5.779  0.1030  0.1626  0.0567
  294POPC   C1A 4074   0.280   7.627   6.154 -0.2124  0.0848 -0.0799
  294POPC   D2A 4075   0.166   7.562   6.587  0.2753  0.1045  0.0033
  294POPC   C3A 4076   0.490   7.592   6.886 -0.1733  0.1324 -0.4175
  294POPC   C4A 4077   0.888   7.496   7.063 -0.2524 -0.2121 -0.1018
  294POPC   C1B 4078   0.235   8.151   6.157 -0.4725 -0.2465 -0.1355
  294POPC   C2B 4079   0.062   8.081   6.554  0.0432  0.0907 -0.1721
  294POPC   C3B 4080   0.117   7.849   6.989  0.1232 -0.0349  0.0060
  294POPC   C4B 4081   0.113   7.782   7.395  0.0603 -0.0373 -0.1505
  295POPC   NC3 4082   0.283   6.713   4.903 -0.0682  0.1094  0.1237
  295POPC   PO4 4083   0.699   6.571   4.853 -0.1038  0.0788 -0.2481
  295POPC   GL1 4084   0.704   6.525   5.236 -0.1413 -0.3680 -0.1543
  295POPC   GL2 4085   0.387   6.696   5.411  0.2120  0.0451  0.0110
  295POPC   C1A 4086   0.717   6.379   5.684 -0.2837 -0.3542 -0.0527
  295POPC   D2A 4087   0.901   6.367   6.146  0.0213 -0.3524  0.2326
  295POPC   C3A 4088   0.697   6.587   6.506  0.3076 -0.1909 -0.2725
  295POPC   C4A 4089   0.303   6.543   6.538  0.1514  0.0660  0.1479
  295POPC   C1B 4090   0.056   6.661   5.625  0.0918 -0.0663 -0.2565
  295POPC   C2B 4091   0.056   6.382   6.012  0.2176  0.4087 -0.2134
  295POPC   C3B 4092  -0.120   6.321   6.427 -0.3537 -0.2120  0.1362
  295POPC   C4B 4093  -0.270   6.174   6.771 -0.0219 -0.0431  0.4255
  296POPC   NC3 4094   9.734   3.671   4.258 -0.0741  0.0563 -0.0485
  296POPC   PO4 4095   9.531   4.053   4.135  0.1873  0.1366 -0.0416
  296POPC   GL1 4096   9.402   3.964   4.561 -0.0838 -0.2524  0.1591
  296POPC   GL2 4097   9.673   3.815   4.813 -0.1282 -0.1798  0.1624
  296POPC   C1A 4098   9.031   3.894   4.823  0.0793  0.0189 -0.0341
  296POPC   D2A 4099   8.567   3.855   5.127  0.1283  0.2262  0.0681
  296POPC   C3A 4100   8.163   3.538   5.343 -0.0957  0.0861  0.1620
  296POPC   C4A 4101   7.836   3.440   5.624 -0.1826  0.0777 -0.0294
  296POPC   C1B 4102   9.660   3.567   5.178  0.0621 -0.1094  0.0604
  296POPC   C2B 4103   9.829   3.224   5.461  0.0111  0.6142 -0.1566
  296POPC   C3B 4104  10.119   2.838   5.463  0.0178  0.0748  0.1965
  296POPC   C4B 4105  10.288   2.575   5.211  0.0779  0.0366  0.0883
  297POPC   NC3 4106   7.380   3.968   4.306  0.2760 -0.0225  0.0887
  297POPC   PO4 4107   7.596   4.142   4.615 -0.1733  0.0611  0.2801
  297POPC   GL1 4108   7.668   4.035   5.026 -0.2261 -0.0696 -0.0287
  297POPC   GL2 4109   7.743   4.302   5.171 -0.0627  0.1120  0.1997
  297POPC   C1A 4110   7.771   3.915   5.445 -0.2863  0.1647  0.0508
  297POPC   D2A 4111   7.849   4.039   5.931 -0.1813  0.0884 -0.1080
  297POPC   C3A 4112   8.015   3.815   6.146 -0.0729  0.1356 -0.1120
  297POPC   C4A 4113   8.021   3.804   6.561 -0.1675 -0.3410 -0.1350
  297POPC   C1B 4114   7.917   4.423   5.577 -0.1330 -0.1138 -0.1345
  297POPC   C2B 4115   8.048   4.516   5.969  0.1981 -0.2918 -0.0586
  297POPC   C3B 4116   8.264   4.313   6.336  0.0891  0.1086  0.0013
  297POPC   C4B 4117   8.374   4.133   6.769  0.2374 -0.0593 -0.0923
  298POPC   NC3 4118   3.907   8.211   5.122 -0.3088  0.1344 -0.1514
  298POPC   PO4 4119   4.071   8.416   5.405 -0.2354 -0.1460 -0.1054
  298POPC   GL1 4120   3.972   8.633   5.765 -0.0513 -0.2728  0.2955
  298POPC   GL2 4121   4.272   8.817   5.876 -0.1219 -0.0075  0.1308
  298POPC   C1A 4122   3.753   8.681   6.139 -0.1205  0.0369 -0.0251
  298POPC   D2A 4123   3.851   8.684   6.524 -0.0153 -0.2470 -0.0085
  298POPC   C3A 4124   3.695   8.393   6.620 -0.2377 -0.0606  0.1352
  298POPC   C4A 4125   3.707   7.922   6.577 -0.0899 -0.0096 -0.5584
  298POPC   C1B 4126   4.299   8.612   6.313  0.4960  0.0286  0.1266
  298POPC   C2B 4127   4.693   8.384   6.622  0.2357 -0.1917  0.1831
  298POPC   C3B 4128   5.024   8.360   6.868  0.4855  0.0190 -0.0709
  298POPC   C4B 4129   5.294   8.306   7.116 -0.0493 -0.0175  0.1136
  299POPC   NC3 4130   9.496   8.078   5.120 -0.0478 -0.1313  0.1412
  299POPC   PO4 4131   9.286   8.397   5.162  0.1073 -0.0603  0.1755
  299POPC   GL1 4132   9.169   8.374   5.538  0.5643 -0.0483 -0.0970
  299POPC   GL2 4133   9.330   8.186   5.639 -0.2435 -0.2285  0.3231
  299POPC   C1A 4134   8.963   8.623   5.924 -0.2620  0.2387 -0.1670
  299POPC   D2A 4135   9.111   9.019   6.163  0.0759  0.0418 -0.0114
  299POPC   C3A 4136   9.543   9.209   6.284  0.0413 -0.1423  0.0311
  299POPC   C4A 4137   9.682   9.475   6.718  0.1154 -0.1541  0.0552
  299POPC   C1B 4138   9.252   8.254   6.084 -0.0133  0.1618 -0.1748
  299POPC   C2B 4139   8.999   8.515   6.436 -0.3187  0.3380 -0.1281
  299POPC   C3B 4140   9.067   8.890   6.666  0.3677  0.2824 -0.0065
  299POPC   C4B 4141   9.164   9.361   6.564 -0.2316 -0.5753 -0.0043
  300POPC   NC3 4142   5.837   7.903   5.792 -0.2212 -0.0000 -0.4037
  300POPC   PO4 4143   5.777   8.357   5.705 -0.1467 -0.2907  0.1554
  300POPC   GL1 4144   5.529   8.396   5.989  0.0736 -0.2312 -0.0700
  300POPC   GL2 4145   5.366   8.227   6.044 -0.3020  0.0026 -0.1937
  300POPC   C1A 4146   5.325   8.649   6.275 -0.0061  0.0872 -0.2792
  300POPC   D2A 4147   5.457   8.766   6.758 -0.1272 -0.1167  0.0045
  300POPC   C3A 4148   5.787   8.475   7.041 -0.1453  0.2981 -0.0467
  300POPC   C4A 4149   6.119   8.541   7.326 -0.1041  0.1717 -0.0570
  300POPC   C1B 4150   5.048   8.145   6.338 -0.0501 -0.0413 -0.0079
  300POPC   C2B 4151   4.820   7.917   6.667  0.2274 -0.1165 -0.3659
  300POPC   C3B 4152   4.570   7.991   7.025  0.0340  0.4274 -0.0607
  300POPC   C4B 4153   4.119   7.970   7.064  0.0520 -0.1595 -0.1067
  301POPC   NC3 4154   8.224   8.207   5.234 -0.2831  0.2377  0.1188
  301POPC   PO4 4155   8.705   8.305   5.128  0.1356  0.0589 -0.1149
  301POPC   GL1 4156   8.621   8.274   5.491 -0.0782  0.0485 -0.0807
  301POPC   GL2 4157   8.563   7.937   5.617  0.0152  0.0186  0.2647
  301POPC   C1A 4158   8.560   8.327   5.965 -0.0311  0.1299 -0.0154
  301POPC   D2A 4159   8.486   7.901   6.190 -0.1749 -0.1692 -0.1494
  301POPC   C3A 4160   8.580   7.560   6.206 -0.0164  0.0951  0.0789
  301POPC   C4A 4161   8.732   7.482   6.600  0.1080 -0.0084  0.3935
  301POPC   C1B 4162   8.915   7.984   5.872  0.1946 -0.0248  0.2715
  301POPC   C2B 4163   9.015   7.855   6.232 -0.0469  0.0418 -0.1109
  301POPC   C3B 4164   8.890   7.951   6.608 -0.0087  0.1071  0.0215
  301POPC   C4B 4165   9.170   7.901   7.075 -0.1712  0.1274  0.1998
  302POPC   NC3 4166   1.153   9.878   5.107  0.0639 -0.0411 -0.1792
  302POPC   PO4 4167   1.430  10.209   4.970  0.0394  0.0686 -0.0043
  302POPC   GL1 4168   1.010  10.386   4.987  0.1428  0.0586  0.0164
  302POPC   GL2 4169   0.983  10.349   5.336 -0.0494  0.0715  0.1984
  302POPC   C1A 4170   0.726  10.725   5.072 -0.0650 -0.1946 -0.6849
  302POPC   D2A 4171   0.587  11.192   4.888 -0.1750  0.0027  0.2877
  302POPC   C3A 4172   0.239  11.358   5.073 -0.0563  0.1160 -0.1279
  302POPC   C4A 4173  -0.207  11.394   5.264 -0.2467 -0.0655  0.0345
  302POPC   C1B 4174   0.910  10.690   5.594 -0.0921 -0.0773  0.2122
  302POPC   C2B 4175   0.704  10.924   5.937 -0.0351  0.3644  0.3057
  302POPC   C3B 4176   0.626  11.159   6.274 -0.0299  0.0113  0.1884
  302POPC   C4B 4177   0.608  11.278   6.706  0.3026  0.0061 -0.0935
  303POPC   NC3 4178   3.895   6.117   4.919 -0.4445 -0.3557 -0.3385
  303POPC   PO4 4179   3.621   6.378   5.226  0.1254 -0.0895 -0.0642
  303POPC   GL1 4180   3.511   5.997   5.539  0.0140  0.2984  0.3085
  303POPC   GL2 4181   3.205   5.877   5.500 -0.4370  0.0224 -0.1553
  303POPC   C1A 4182   3.679   5.812   5.863  0.1387  0.0412  0.0957
  303POPC   D2A 4183   3.674   5.865   6.214 -0.0061 -0.2588  0.1779
  303POPC   C3A 4184   3.577   6.034   6.565 -0.2689  0.1082  0.4344
  303POPC   C4A 4185   3.355   5.841   6.839 -0.0582 -0.0979 -0.0946
  303POPC   C1B 4186   3.227   6.030   6.003  0.4773  0.1671  0.0856
  303POPC   C2B 4187   3.108   6.197   6.376 -0.4718  0.1141  0.2803
  303POPC   C3B 4188   2.827   6.326   6.673 -0.2754  0.0084 -0.4071
  303POPC   C4B 4189   2.839   6.517   7.176  0.0954  0.1513 -0.0209
  304POPC   NC3 4190   6.849   8.222   5.325  0.0331 -0.0188 -0.1045
  304POPC   PO4 4191   6.685   7.859   5.603  0.0928 -0.1026 -0.0743
  304POPC   GL1 4192   6.590   7.922   5.996  0.0285 -0.0159 -0.2635
  304POPC   GL2 4193   6.267   8.133   5.970 -0.0356  0.2188 -0.1069
  304POPC   C1A 4194   6.391   7.695   6.349 -0.1187  0.1302 -0.0029
  304POPC   D2A 4195   6.648   7.472   6.686  0.1597  0.0503  0.2165
  304POPC   C3A 4196   6.411   7.256   7.022 -0.1556  0.0436 -0.0671
  304POPC   C4A 4197   5.872   7.236   7.182 -0.3199 -0.1988  0.3234
  304POPC   C1B 4198   6.423   8.220   6.422 -0.4324  0.2565  0.1055
  304POPC   C2B 4199   6.317   8.306   6.890  0.2741 -0.2579 -0.0996
  304POPC   C3B 4200   6.413   8.136   7.294  0.0875  0.5756 -0.4188
  304POPC   C4B 4201   6.539   7.834   7.651  0.0554  0.2750 -0.2933
  305POPC   NC3 4202   3.442   4.088   5.245  0.1708  0.0575  0.0693
  305POPC   PO4 4203   3.823   4.512   5.254  0.0446 -0.1429 -0.4912
  305POPC   GL1 4204   3.959   4.588   5.632  0.1457 -0.2502 -0.0491
  305POPC   GL2 4205   4.249   4.416   5.748  0.1081  0.0831  0.0564
  305POPC   C1A 4206   3.845   4.694   6.041  0.4696  0.0627  0.2778
  305POPC   D2A 4207   3.978   4.735   6.516  0.0404 -0.2017  0.0998
  305POPC   C3A 4208   3.879   4.581   6.814  0.0434 -0.0970 -0.0927
  305POPC   C4A 4209   4.298   4.673   7.164  0.2295  0.0745  0.2343
  305POPC   C1B 4210   4.230   4.412   6.173  0.3585  0.2387  0.1187
  305POPC   C2B 4211   4.282   4.271   6.635 -0.0325 -0.1121  0.1162
  305POPC   C3B 4212   4.401   4.235   7.019  0.0272 -0.3201  0.2150
  305POPC   C4B 4213   4.519   4.167   7.402  0.4019  0.0954  0.2292
  306POPC   NC3 4214   8.388   4.363   4.138 -0.1763  0.3040  0.1333
  306POPC   PO4 4215   8.536   4.584   4.595 -0.2002  0.0476 -0.2813
  306POPC   GL1 4216   8.322   4.310   4.967  0.0823  0.0759  0.0820
  306POPC   GL2 4217   8.692   4.345   5.108  0.1034 -0.0432 -0.0292
  306POPC   C1A 4218   8.185   4.131   5.287 -0.1076  0.1179  0.0125
  306POPC   D2A 4219   8.355   3.994   5.568  0.0771 -0.0375  0.1010
  306POPC   C3A 4220   8.411   3.683   5.874  0.0767 -0.0898  0.1922
  306POPC   C4A 4221   8.393   3.207   5.930 -0.3351 -0.1042  0.0507
  306POPC   C1B 4222   8.941   4.320   5.454  0.2988  0.0122  0.0808
  306POPC   C2B 4223   9.057   4.372   5.902 -0.1137  0.0864  0.1036
  306POPC   C3B 4224   9.333   4.422   6.402 -0.0234 -0.0255 -0.0620
  306POPC   C4B 4225   9.284   4.137   6.750  0.5616 -0.0986 -0.1434
  307POPC   NC3 4226   3.708   7.861   5.590  0.5361 -0.2941 -0.1456
  307POPC   PO4 4227   3.295   7.818   5.548 -0.0203 -0.1463 -0.0029
  307POPC   GL1 4228   3.059   7.655   5.856  0.0067  0.0652 -0.0236
  307POPC   GL2 4229   3.178   7.507   6.181 -0.2178 -0.1123  0.2172
  307POPC   C1A 4230   2.815   7.869   6.185 -0.0989 -0.4962  0.1375
  307POPC   D2A 4231   2.696   8.122   6.544 -0.0642 -0.1616  0.1476
  307POPC   C3A 4232   2.404   8.263   6.798  0.0916  0.1743 -0.2801
  307POPC   C4A 4233   2.020   8.528   6.943 -0.0975 -0.1064 -0.1627
  307POPC   C1B 4234   3.111   7.712   6.594 -0.0777 -0.0498  0.0589
  307POPC   C2B 4235   3.083   7.781   6.962  0.3199  0.1987 -0.3738
  307POPC   C3B 4236   2.808   7.887   7.317  0.1819 -0.1021 -0.4717
  307POPC   C4B 4237   2.538   8.093   7.713 -0.2006  0.1703  0.0751
  308POPC   NC3 4238   0.073   8.484   4.530  0.3858  0.0713 -0.2350
  308POPC   PO4 4239   0.183   8.555   4.990  0.0043 -0.0693  0.3158
  308POPC   GL1 4240   0.034   8.743   5.238 -0.0637  0.2944  0.1973
  308POPC   GL2 4241   0.269   8.810   5.450  0.1282 -0.0757  0.0768
  308POPC   C1A 4242  -0.326   8.683   5.606  0.1718 -0.2062  0.0244
  308POPC   D2A 4243  -0.469   8.316   5.908  0.1217 -0.0345  0.0366
  308POPC   C3A 4244  -0.302   8.261   6.276 -0.1824 -0.1373  0.1716
  308POPC   C4A 4245  -0.291   8.429   6.640 -0.2784  0.0165 -0.1600
  308POPC   C1B 4246   0.082   8.562   5.919 -0.2009  0.2263  0.1112
  308POPC   C2B 4247   0.121   8.561   6.355  0.1380  0.2606 -0.1258
  308POPC   C3B 4248  -0.016   8.912   6.618  0.2119 -0.2322  0.0898
  308POPC   C4B 4249  -0.023   9.147   6.602 -0.0281  0.0752 -0.0778
  309POPC   NC3 4250   4.458   5.367   4.900 -0.2438 -0.2640 -0.0081
  309POPC   PO4 4251   4.363   5.822   5.023  0.0147 -0.0537  0.1331
  309POPC   GL1 4252   4.247   5.485   5.392 -0.0154  0.2490 -0.0708
  309POPC   GL2 4253   4.305   5.769   5.625  0.0019 -0.0421  0.0424
  309POPC   C1A 4254   3.997   5.429   5.804 -0.2312 -0.2938  0.2354
  309POPC   D2A 4255   3.831   5.309   6.187 -0.2969 -0.1405 -0.1434
  309POPC   C3A 4256   4.028   5.188   6.517 -0.3130  0.1426 -0.2300
  309POPC   C4A 4257   3.950   5.114   6.895 -0.0130 -0.0320 -0.0928
  309POPC   C1B 4258   4.151   6.101   5.930 -0.0125 -0.0035  0.3952
  309POPC   C2B 4259   4.075   6.170   6.263 -0.0204  0.0057  0.1951
  309POPC   C3B 4260   4.241   6.105   6.646  0.2921 -0.1630 -0.1798
  309POPC   C4B 4261   4.332   5.794   6.928 -0.2432 -0.0419 -0.2638
  310POPC   NC3 4262   4.853   3.328   4.683  0.1848  0.0058 -0.0325
  310POPC   PO4 4263   4.757   3.387   5.094  0.0594 -0.0272  0.3999
  310POPC   GL1 4264   4.717   3.304   5.461  0.0973 -0.1185 -0.0834
  310POPC   GL2 4265   4.423   3.302   5.686  0.1658  0.0614  0.2963
  310POPC   C1A 4266   4.809   3.322   5.930  0.0727 -0.2421 -0.1971
  310POPC   D2A 4267   4.941   3.121   6.302  0.0495 -0.3248 -0.0411
  310POPC   C3A 4268   5.071   3.121   6.806 -0.1178  0.2340  0.0592
  310POPC   C4A 4269   5.343   2.791   6.862 -0.0283  0.1993 -0.1658
  310POPC   C1B 4270   4.183   3.389   5.965  0.0984 -0.0523 -0.2581
  310POPC   C2B 4271   3.955   3.266   6.281 -0.0259 -0.0374 -0.3286
  310POPC   C3B 4272   3.616   2.890   6.247 -0.1999  0.3132 -0.0582
  310POPC   C4B 4273   3.647   2.543   5.940  0.0385 -0.3715 -0.1059
  311POPC   NC3 4274   1.534   7.080   5.059  0.1809 -0.1294 -0.0761
  311POPC   PO4 4275   1.314   7.109   5.465 -0.1120 -0.2279  0.2417
  311POPC   GL1 4276   1.250   7.326   5.777  0.2211 -0.4264  0.1105
  311POPC   GL2 4277   1.525   7.518   5.929  0.1858 -0.1706 -0.0730
  311POPC   C1A 4278   1.015   7.443   6.221  0.0294  0.0462  0.2262
  311POPC   D2A 4279   0.668   7.377   6.432  0.3094 -0.4573 -0.1442
  311POPC   C3A 4280   0.493   7.030   6.319  0.3052 -0.1959 -0.1673
  311POPC   C4A 4281   0.473   6.721   5.912  0.0606  0.0788  0.0801
  311POPC   C1B 4282   1.288   7.809   6.255  0.0576  0.1735 -0.0483
  311POPC   C2B 4283   1.151   8.209   6.465 -0.2109  0.3384  0.1611
  311POPC   C3B 4284   1.042   8.325   6.828  0.0721  0.0745 -0.2892
  311POPC   C4B 4285   0.704   8.522   7.110 -0.0146  0.0324 -0.3574
  312POPC   NC3 4286   3.479   5.018   5.181  0.2782 -0.0667 -0.1815
  312POPC   PO4 4287   3.007   4.769   5.155 -0.2818  0.1445 -0.4259
  312POPC   GL1 4288   2.777   4.710   5.578  0.1986 -0.1436 -0.0765
  312POPC   GL2 4289   2.450   4.739   5.579  0.1182 -0.1886 -0.2460
  312POPC   C1A 4290   2.758   5.011   5.916 -0.0761  0.0889 -0.1992
  312POPC   D2A 4291   2.909   5.248   6.224 -0.1192 -0.3326  0.0371
  312POPC   C3A 4292   3.090   5.152   6.514  0.1176 -0.1777 -0.2005
  312POPC   C4A 4293   3.275   5.206   6.972 -0.2907  0.0947  0.2531
  312POPC   C1B 4294   2.168   4.591   5.997  0.1902 -0.3619  0.1588
  312POPC   C2B 4295   2.011   4.370   6.155  0.2808  0.0292 -0.1518
  312POPC   C3B 4296   1.850   4.133   6.547 -0.2463 -0.1703 -0.0262
  312POPC   C4B 4297   1.975   4.010   7.011 -0.1029 -0.0637  0.2008
  313POPC   NC3 4298   7.265   3.478   4.231 -0.1519 -0.2017 -0.0554
  313POPC   PO4 4299   6.880   3.352   4.418 -0.1237  0.2885 -0.0797
  313POPC   GL1 4300   7.019   3.298   4.795  0.4297  0.2364  0.0083
  313POPC   GL2 4301   6.714   3.141   4.918  0.1122 -0.1149 -0.4422
  313POPC   C1A 4302   7.057   3.044   5.217 -0.1607 -0.1916 -0.0931
  313POPC   D2A 4303   6.984   2.862   5.606  0.1507  0.0559 -0.1361
  313POPC   C3A 4304   7.255   2.752   5.897  0.1529 -0.2307  0.1888
  313POPC   C4A 4305   7.311   2.906   6.268  0.2726  0.0730 -0.2955
  313POPC   C1B 4306   6.618   3.172   5.376  0.0998  0.0325  0.0629
  313POPC   C2B 4307   6.686   3.312   5.813 -0.1027 -0.0199 -0.2862
  313POPC   C3B 4308   6.700   3.653   6.143 -0.2044  0.0319 -0.1294
  313POPC   C4B 4309   6.907   3.707   6.454  0.1659  0.1503  0.1280
  314POPC   NC3 4310   1.919   3.802   4.824 -0.1259 -0.1849  0.0239
  314POPC   PO4 4311   2.275   3.992   5.040 -0.0165 -0.2387 -0.0645
  314POPC   GL1 4312   2.278   3.826   5.435 -0.0145 -0.1531  0.0191
  314POPC   GL2 4313   2.133   4.196   5.593  0.0661 -0.2123 -0.3061
  314POPC   C1A 4314   2.035   3.594   5.774 -0.0010  0.3162 -0.0118
  314POPC   D2A 4315   1.637   3.367   5.933 -0.1142 -0.2505  0.1260
  314POPC   C3A 4316   1.385   3.492   6.288  0.0893 -0.1138 -0.2278
  314POPC   C4A 4317   1.273   3.814   6.458  0.2052 -0.1911  0.0684
  314POPC   C1B 4318   2.334   4.037   5.934 -0.1413  0.0372 -0.0551
  314POPC   C2B 4319   2.362   3.964   6.429  0.0139 -0.1319 -0.0389
  314POPC   C3B 4320   2.600   3.890   6.687  0.2417 -0.1416 -0.1115
  314POPC   C4B 4321   2.631   3.517   6.979  0.0651 -0.2835  0.3612
  315POPC   NC3 4322   6.005   2.538   5.101 -0.1666  0.2399 -0.0487
  315POPC   PO4 4323   5.803   2.706   5.300  0.1050  0.1048  0.1103
  315POPC   GL1 4324   5.892   2.918   5.653  0.0132  0.1175 -0.0283
  315POPC   GL2 4325   5.746   2.721   5.845 -0.1038 -0.0186 -0.1550
  315POPC   C1A 4326   6.151   3.321   5.733  0.1333  0.1582 -0.1797
  315POPC   D2A 4327   6.230   3.660   6.044 -0.0848  0.4326 -0.1938
  315POPC   C3A 4328   6.204   3.680   6.556 -0.0112 -0.2333  0.2239
  315POPC   C4A 4329   6.216   3.953   6.963  0.1463 -0.0522 -0.0930
  315POPC   C1B 4330   5.763   2.541   6.194  0.1462  0.1455  0.1231
  315POPC   C2B 4331   5.525   2.430   6.488 -0.0126  0.1108  0.1158
  315POPC   C3B 4332   5.561   2.385   7.011 -0.0732 -0.1551  0.1514
  315POPC   C4B 4333   5.689   2.424   7.418 -0.2981 -0.1889 -0.0232
  316POPC   NC3 4334   0.160   1.532   4.245 -0.2264 -0.1945  0.0107
  316POPC   PO4 4335   0.185   2.067   4.173 -0.0586  0.2369 -0.1330
  316POPC   GL1 4336  -0.040   2.073   4.555  0.3340  0.1019  0.0738
  316POPC   GL2 4337  -0.199   1.757   4.536  0.1453  0.2977  0.2084
  316POPC   C1A 4338  -0.007   2.113   4.990  0.1890 -0.1690  0.0983
  316POPC   D2A 4339  -0.280   2.118   5.425  0.0164 -0.1218 -0.0751
  316POPC   C3A 4340  -0.053   1.849   5.828 -0.2392  0.2589  0.0843
  316POPC   C4A 4341   0.003   1.808   6.277 -0.2148  0.2110  0.2995
  316POPC   C1B 4342  -0.369   1.355   4.780  0.1624 -0.2769  0.0806
  316POPC   C2B 4343  -0.696   1.421   5.130  0.0918  0.0066 -0.1409
  316POPC   C3B 4344  -0.890   1.378   5.498 -0.0625 -0.2383  0.1256
  316POPC   C4B 4345  -0.975   1.037   5.768  0.1983  0.0342 -0.0236
  317POPC   NC3 4346   4.667   9.109   5.034 -0.2346  0.2516 -0.0274
  317POPC   PO4 4347   4.449   9.210   5.380 -0.1376 -0.0867  0.1416
  317POPC   GL1 4348   4.280   9.367   5.758  0.1587  0.1630  0.1198
  317POPC   GL2 4349   3.988   9.610   5.798 -0.0773  0.1686 -0.0276
  317POPC   C1A 4350   4.294   9.213   6.243 -0.2065 -0.1280 -0.1017
  317POPC   D2A 4351   4.385   8.980   6.635 -0.2903  0.0085 -0.0192
  317POPC   C3A 4352   4.037   9.001   6.910  0.3114 -0.3880 -0.2016
  317POPC   C4A 4353   3.760   9.095   7.378  0.0703  0.4786 -0.0483
  317POPC   C1B 4354   4.148   9.693   6.270 -0.1641  0.0194 -0.1229
  317POPC   C2B 4355   4.263   9.555   6.734 -0.1879 -0.2118  0.1216
  317POPC   C3B 4356   4.540   9.478   7.058  0.1238 -0.1175  0.1765
  317POPC   C4B 4357   4.950   9.465   7.196  0.1203 -0.3244  0.2628
  318POPC   NC3 4358   5.696   9.375   4.660 -0.2007  0.0743 -0.1073
  318POPC   PO4 4359   5.846   9.282   5.159  0.1454  0.1350 -0.0828
  318POPC   GL1 4360   5.833   9.452   5.596  0.1840 -0.1164  0.0573
  318POPC   GL2 4361   6.087   9.170   5.672  0.3746  0.0417  0.0410
  318POPC   C1A 4362   5.689   9.371   5.959  0.1557  0.0664  0.1321
  318POPC   D2A 4363   5.617   9.277   6.421  0.0516  0.1642  0.1821
  318POPC   C3A 4364   5.889   9.222   6.758  0.0469 -0.1472 -0.2157
  318POPC   C4A 4365   5.859   9.474   7.099  0.0516  0.1090 -0.0487
  318POPC   C1B 4366   6.110   9.304   6.168 -0.0110  0.0430  0.4341
  318POPC   C2B 4367   6.290   9.431   6.574 -0.3163 -0.2874 -0.0749
  318POPC   C3B 4368   6.316   9.640   6.956 -0.0614 -0.2153  0.1793
  318POPC   C4B 4369   6.312   9.912   7.233 -0.1430  0.0771  0.0664
  319W        W 4370   9.441   8.820   3.561  0.3613 -0.1179 -0.0162
  320W        W 4371   4.473   6.283  10.029  0.0720  0.1352 -0.0538
  321W        W 4372   3.687   5.000  10.185  0.0291  0.3539 -0.2355
  322W        W 4373   6.565   1.478   1.960 -0.0274  0.1107  0.1815
  323W        W 4374   3.531   2.141  13.193 -0.3515  0.2820 -0.0194
  324W        W 4375   6.458   6.397   1.979  0.2402 -0.5200  0.2670
  325W        W 4376   9.800   0.717  13.830 -0.0574  0.2936 -0.2466
  326W        W 4377   6.469   3.733   4.116  0.4717 -0.1072  0.1574
  327W        W 4378   7.582   9.105   1.798 -0.1545 -0.4375 -0.1030
  328W        W 4379   8.804   2.315  13.222  0.0434  0.4357 -0.1572
  329W        W 4380   3.857   0.855  13.409  0.1505 -0.0810  0.1977
  330W        W 4381   4.172   1.123  12.316  0.0979  0.2132 -0.1209
  331W        W 4382   7.441   2.855  13.601  0.2576 -0.0285  0.2364
  332W        W 4383   6.439   1.914  12.111 -0.0450 -0.0620  0.3060
  333W        W 4384   0.311   5.640  11.196  0.1509  0.2203 -0.1932
  334W        W 4385   2.248   6.367   2.590 -0.2366  0.2050 -0.2471
  335W        W 4386   3.376   7.201   4.392  0.0645 -0.1210 -0.3102
  336W        W 4387  10.013   3.713  12.218  0.0597 -0.0111  0.2459
  337W        W 4388  10.098   3.178   0.791  0.2529  0.0923 -0.3398
  338W        W 4389   9.075   3.896   9.956 -0.2904  0.1361 -0.0604
  339W        W 4390   1.085   2.614  12.811  0.1377  0.3300 -0.1220
  340W        W 4391   8.903   4.252  11.033  0.2535 -0.3381 -0.1945
  341W        W 4392   0.926   4.090   9.877  0.1867 -0.4619 -0.1006
  342W        W 4393   6.262   9.114  11.161 -0.0211  0.1074  0.2539
  343W        W 4394   3.046   7.570  13.070 -0.0738 -0.1476 -0.4987
  344W        W 4395   4.511   2.336  11.774 -0.0748  0.2078 -0.0927
  345W        W 4396   5.053   9.412   2.590  0.1398  0.1172 -0.1253
  346W        W 4397   1.833   8.190   9.572 -0.0715  0.1224 -0.1044
  347W        W 4398   2.843   6.777   9.796 -0.1528  0.1748  0.0754
  348W        W 4399   1.733   6.914   4.051 -0.2202 -0.2700 -0.0496
  349W        W 4400   4.200   3.250  12.954  0.2940  0.2401 -0.4508
  350W        W 4401   6.471   5.245   3.320  0.3280 -0.1283 -0.0914
  351W        W 4402   9.796   1.194  13.622  0.0234  0.0051  0.1207
  352W        W 4403   4.865   3.025   9.410  0.0786 -0.2823 -0.0315
  353W        W 4404   7.072   7.173   4.571 -0.2151  0.0121 -0.0622
  354W        W 4405   3.648   8.915   3.043  0.0605  0.1724  0.0621
  355W        W 4406   8.980   2.329   0.492  0.0993  0.1205 -0.0583
  356W        W 4407   2.787   7.204   4.097  0.4641 -0.1938 -0.0839
  357W        W 4408   3.217   9.600   5.403  0.1261  0.1208 -0.0064
  358W        W 4409   2.720   6.303   2.766 -0.1011 -0.0983 -0.0862
  359W        W 4410   0.389   4.548   2.673  0.1649  0.2367  0.2412
  360W        W 4411   4.336   5.826   3.714 -0.1166  0.0407  0.1941
  361W        W 4412   9.040   6.405   3.776  0.0844 -0.1936 -0.0058
  362W        W 4413   1.173   9.223  13.970  0.0560 -0.1425 -0.0692
  363W        W 4414   2.977   9.953   4.994 -0.2231 -0.2356 -0.2703
  364W        W 4415   5.679   1.422  11.672 -0.1860 -0.1765 -0.1237
  365W        W 4416   8.394   3.919  13.965 -0.0926  0.0765  0.2193
  366W        W 4417   4.926   1.433   2.455 -0.0101  0.2832 -0.2045
  367W        W 4418   0.425   1.008  12.435 -0.1597 -0.0508 -0.2228
  368W        W 4419   3.976   9.155  10.939 -0.1995 -0.1702 -0.0982
  369W        W 4420   4.307   9.655   0.879 -0.2558  0.0814 -0.3032
  370W        W 4421   9.871   7.485  12.919  0.0048  0.2513  0.0227
  371W        W 4422   8.859   1.602   3.319 -0.0643  0.0054  0.1014
  372W        W 4423   2.261   5.847   3.481  0.0016  0.2060  0.1472
  373W        W 4424   4.115   1.800   2.813  0.1534  0.0071 -0.1175
  374W        W 4425   7.713   5.349   2.733  0.2297 -0.0553 -0.1426
  375W        W 4426   7.591   9.368  10.642  0.3501  0.2995  0.3436
  376W        W 4427   2.698   7.265  11.707 -0.2519 -0.1683 -0.0195
  377W        W 4428   0.818   3.271   0.981 -0.0881 -0.3603  0.1293
  378W        W 4429   5.218   1.437  11.943  0.1272  0.1043 -0.0074
  379W        W 4430   7.207   4.536  13.560 -0.1367 -0.1227  0.0132
  380W        W 4431   2.400   1.225  13.394  0.2503 -0.1318  0.1843
  381W        W 4432   8.894   8.354   9.978 -0.0398  0.3031 -0.2358
  382W        W 4433   3.013   2.406   4.060 -0.0790  0.1104  0.0035
  383W        W 4434   0.506   5.478   4.281 -0.1288  0.0685 -0.0704
  384W        W 4435   4.790   6.359  11.459  0.3445 -0.0829 -0.1564
  385W        W 4436   3.469   5.150   0.607 -0.0847 -0.2752 -0.0328
  386W        W 4437   4.211   4.275   4.932  0.0092  0.0571 -0.1147
  387W        W 4438   0.188   5.380   2.756 -0.0140 -0.3852 -0.0231
  388W        W 4439   6.079   9.561  11.885 -0.1318  0.0122 -0.0980
  389W        W 4440   2.877   7.397  13.959 -0.3054  0.1692 -0.5644
  390W        W 4441   6.538   6.720   2.927 -0.1779 -0.1180  0.3418
  391W        W 4442   7.323   1.714   9.487 -0.0673 -0.1725 -0.0927
  392W        W 4443   2.916   7.425   3.010 -0.0328  0.2820  0.2042
  393W        W 4444   4.531   1.593   0.211  0.1316  0.2551  0.0740
  394W        W 4445   2.105   7.091  12.816 -0.1172  0.1151  0.4513
  395W        W 4446  10.104   9.916  11.642  0.1240  0.1089 -0.3058
  396W        W 4447   9.664   9.969   1.634  0.1658  0.1260  0.1331
  397W        W 4448   4.487   3.145  11.565 -0.1832 -0.1134  0.1566
  398W        W 4449   4.953   0.210  10.406 -0.0317 -0.0419 -0.1283
  399W        W 4450   8.747   3.844  13.602 -0.0904  0.0185 -0.0762
  400W        W 4451   6.923   9.529  12.996 -0.3255 -0.3182  0.0001
  401W        W 4452   1.379   4.527   0.620  0.2345  0.2502  0.2974
  402W        W 4453   5.100   8.270   1.096  0.3139 -0.1181  0.0459
  403W        W 4454   5.121   7.547  12.185  0.2125 -0.0340  0.0035
  404W        W 4455   6.639   6.652  11.314  0.0858 -0.0324 -0.0355
  405W        W 4456  10.033  10.035   4.040 -0.1317 -0.1939 -0.0163
  406W        W 4457   2.499   3.205   8.871 -0.0590  0.1783 -0.3181
  407W        W 4458   5.057   7.248  13.535  0.2076  0.0025  0.0297
  408W        W 4459   7.467   5.465  13.168 -0.0486 -0.2366 -0.0149
  409W        W 4460   2.326   2.425   0.866  0.0438 -0.1528  0.5197
  410W        W 4461   1.870   1.898  12.592  0.0220 -0.1425 -0.0500
  411W        W 4462   3.679   2.710   9.728 -0.1525  0.0854  0.1129
  412W        W 4463   0.122   3.417   2.286  0.0628  0.0218  0.1846
  413W        W 4464   7.424   6.414  11.295  0.4800  0.4909  0.2458
  414W        W 4465   9.922   5.230   0.818  0.1227 -0.1701 -0.0653
  415W        W 4466   2.100   8.375   9.993  0.1594  0.1603  0.1307
  416W        W 4467   4.392   5.396  13.134 -0.0601 -0.0897 -0.0743
  417W        W 4468   3.629   6.849   2.525 -0.0327 -0.2390  0.0525
  418W        W 4469   1.924   5.282  10.147 -0.2930  0.2577 -0.2731
  419W        W 4470   6.843   6.140  13.439  0.1507  0.0315  0.0884
  420W        W 4471   8.585   4.804   9.855 -0.2492 -0.1959 -0.1737
  421W        W 4472   2.595   4.427   1.862 -0.2024 -0.2927 -0.0759
  422W        W 4473   3.996   5.429   9.606  0.2011 -0.1253  0.1294
  423W        W 4474   7.828   8.456  13.938  0.0364  0.0629  0.0435
  424W        W 4475   2.330   7.370   1.191  0.2334 -0.1107  0.2677
  425W        W 4476   7.789   5.708  10.787  0.2713 -0.1030  0.1889
  426W        W 4477   7.209   5.049   2.060  0.0516 -0.3062  0.0993
  427W        W 4478   6.587   1.395   2.932  0.0001  0.0961 -0.0726
  428W        W 4479   3.904   7.358   2.923  0.6643  0.1591  0.4341
  429W        W 4480   8.046   2.439   0.859  0.2504 -0.1611 -0.0743
  430W        W 4481   0.224   7.184   9.853  0.0549  0.3044 -0.2479
  431W        W 4482   9.316   6.190  10.146 -0.0945  0.0389  0.1237
  432W        W 4483   1.799   3.347  11.668 -0.0085  0.1574 -0.0575
  433W        W 4484   1.675   5.656  11.545 -0.1615 -0.1081  0.0198
  434W        W 4485   5.556   0.932   4.424  0.1999 -0.3047  0.0254
  435W        W 4486   1.783   4.290   0.701 -0.0826 -0.0562  0.0429
  436W        W 4487   7.930   3.027  13.832  0.2038  0.2750 -0.0832
  437W        W 4488   9.927   7.972  11.539  0.0832 -0.1391  0.0462
  438W        W 4489   4.659   8.095  13.730 -0.1425  0.0181  0.3809
  439W        W 4490  10.083   1.251  10.834  0.0379  0.1306 -0.0916
  440W        W 4491   0.720   8.366  11.087 -0.0157  0.0982  0.1828
  441W        W 4492   3.941   4.958  12.530 -0.2399 -0.2428  0.1096
  442W        W 4493   0.339   9.145   3.980 -0.1582  0.2693 -0.0174
  443W        W 4494   5.883   2.252   0.583 -0.2996  0.1848 -0.1498
  444W        W 4495   1.028   4.942  13.048 -0.1810 -0.0885 -0.1163
  445W        W 4496   3.940   3.839   5.071  0.3297 -0.2139 -0.1607
  446W        W 4497   1.563   1.631  13.534 -0.0774 -0.0855  0.1633
  447W        W 4498   7.551   5.431   9.396  0.2922 -0.2576 -0.0703
  448W        W 4499   9.884   8.958   0.552  0.0164 -0.0899  0.0183
  449W        W 4500   5.669   2.065   2.049 -0.0950 -0.0843  0.3125
  450W        W 4501   0.678   3.002  10.986 -0.0496 -0.0677 -0.1634
  451W        W 4502   2.284   0.609   3.183  0.1110  0.2087  0.0935
  452W        W 4503   5.588   4.991   1.980 -0.0497 -0.4723 -0.2093
  453W        W 4504   5.028   1.124  13.629 -0.0585  0.0317 -0.1044
  454W        W 4505   7.115   0.994   1.390 -0.1968 -0.2100 -0.0452
  455W        W 4506   9.160   2.121  13.516  0.1381 -0.1474  0.2049
  456W        W 4507   2.761   3.183  10.553 -0.1646 -0.2204 -0.2892
  457W        W 4508   9.565   8.301   1.297 -0.3738  0.1222 -0.2053
  458W        W 4509   1.877   7.988  10.484  0.0207 -0.1665 -0.0529
  459W        W 4510   5.133   0.058   0.494  0.1544 -0.3243 -0.0371
  460W        W 4511   8.405   2.395  10.103 -0.2990  0.0783 -0.1024
  461W        W 4512   3.184   8.980   1.859  0.3412 -0.0550  0.0361
  462W        W 4513   1.709   2.434   9.965 -0.2156 -0.1497  0.0854
  463W        W 4514   3.772   4.637  12.825  0.0977  0.1650 -0.1340
  464W        W 4515   9.238   9.416  10.930 -0.3618  0.1627 -0.0819
  465W        W 4516   9.701   3.736   1.692  0.0623  0.1436 -0.0662
  466W        W 4517   4.784   3.731   2.091  0.2220 -0.4058 -0.1310
  467W        W 4518   7.655   6.951   4.030  0.5275 -0.0099  0.1698
  468W        W 4519   5.719   6.665   1.511  0.0475 -0.1834 -0.0199
  469W        W 4520   6.092   6.058   9.735  0.0190  0.4536 -0.0155
  470W        W 4521   2.288   7.872   4.362  0.0546  0.1060  0.2829
  471W        W 4522   4.721   1.790   2.172  0.2961  0.0376  0.0495
  472W        W 4523   6.736   8.596  13.297  0.0806 -0.1874 -0.1600
  473W        W 4524   1.396   5.524   2.861  0.0194 -0.3199 -0.1579
  474W        W 4525   3.929   2.663   0.962  0.2200  0.4549  0.0299
  475W        W 4526  10.191   3.288   1.316 -0.1518 -0.0077 -0.0937
  476W        W 4527   0.263   6.926   8.864 -0.3276 -0.3995 -0.0836
  477W        W 4528   7.786   5.528  12.654 -0.0954  0.0295  0.1062
  478W        W 4529   4.294   2.441   1.856 -0.4605  0.1016 -0.2397
  479W        W 4530   9.023   5.207   3.476  0.1368 -0.3036 -0.1735
  480W        W 4531   6.117   9.997   1.872 -0.1913 -0.0243  0.0501
  481W        W 4532   1.257   8.575  10.193 -0.1728 -0.2885  0.3110
  482W        W 4533   9.916   3.546   2.650  0.2068  0.0948  0.2046
  483W        W 4534   0.721   1.558   3.408  0.0250  0.1290 -0.1759
  484W        W 4535   7.993   2.722  10.460  0.0523 -0.3259  0.0027
  485W        W 4536   5.691   8.831  10.492 -0.1973  0.1251  0.0433
  486W        W 4537   5.828   1.241  12.990 -0.0999 -0.1086 -0.0782
  487W        W 4538   6.482   9.883  10.498  0.3442 -0.1284  0.1468
  488W        W 4539   9.878   0.870   0.780 -0.2001  0.1159  0.2339
  489W        W 4540   8.004   4.330   2.097  0.4049  0.0346  0.2562
  490W        W 4541   4.297   5.312   0.209 -0.1143  0.1470 -0.4875
  491W        W 4542   8.979   0.753   0.081  0.0022 -0.3423 -0.0399
  492W        W 4543   7.319   0.994   3.910  0.0686  0.1283  0.1771
  493W        W 4544   7.803   8.969  12.227 -0.1174  0.2895 -0.0554
  494W        W 4545   5.852   7.036  11.351 -0.2299 -0.3504  0.1457
  495W        W 4546   6.867   8.014   2.711  0.4781  0.1912  0.1887
  496W        W 4547   6.398   9.606  12.871 -0.2921  0.2196 -0.1532
  497W        W 4548   9.420   1.653  11.584 -0.1217  0.1001  0.0050
  498W        W 4549   1.257   6.668  12.477 -0.0683 -0.0178 -0.0306
  499W        W 4550   2.862   6.167   3.313  0.1620  0.2010 -0.1753
  500W        W 4551   7.132   0.078   4.266 -0.3662  0.0163  0.2550
  501W        W 4552   5.418   2.279  11.572  0.0424 -0.0360 -0.0535
  502W        W 4553   7.969   6.300  13.098 -0.0740  0.2258  0.1780
  503W        W 4554   2.451   7.710  11.691  0.2612 -0.0701  0.0859
  504W        W 4555   3.246   4.617   4.318  0.0443  0.1348  0.0294
  505W        W 4556   2.741   1.155   9.434 -0.0185  0.0991  0.0888
  506W        W 4557   3.745   6.625  13.354 -0.0366 -0.1053  0.0224
  507W        W 4558   4.443   8.016   9.678 -0.0609  0.0709 -0.3585
  508W        W 4559   7.057   2.233  10.111 -0.0605 -0.0493 -0.2520
  509W        W 4560   6.214   9.955   0.408  0.2285 -0.1531 -0.0501
  510W        W 4561   9.563   8.797  11.574  0.0859 -0.1688 -0.0023
  511W        W 4562   7.726   4.010   3.577 -0.2754  0.0503 -0.0479
  512W        W 4563   1.640   5.450   9.452  0.1542  0.0764 -0.2401
  513W        W 4564   3.385   0.756  12.637 -0.0591 -0.0202  0.0052
  514W        W 4565   0.889   2.323   4.667  0.3638 -0.3023  0.0405
  515W        W 4566   0.540   6.721   1.247 -0.0688  0.3876  0.3623
  516W        W 4567   0.894   6.849   4.470 -0.0589 -0.0823 -0.0514
  517W        W 4568   5.415   0.863   3.726  0.1154  0.0044  0.0223
  518W        W 4569   7.994   0.674   3.665  0.0004  0.0581  0.1400
  519W        W 4570   8.568   3.862   4.211  0.1810 -0.0352 -0.1608
  520W        W 4571   2.745   9.038   3.629 -0.2015 -0.0134 -0.2198
  521W        W 4572   6.555   2.379   3.648 -0.0312 -0.0527 -0.1633
  522W        W 4573   8.982   4.878   1.648 -0.0879  0.2718 -0.3879
  523W        W 4574   8.516   8.189   9.636 -0.0329  0.0526  0.1445
  524W        W 4575   0.292   0.207  11.605  0.1401 -0.1335  0.2214
  525W        W 4576   9.609   6.624  12.387  0.1961  0.2295 -0.2104
  526W        W 4577   1.431   9.869   1.247  0.0761  0.3463  0.0641
  527W        W 4578   4.096   6.282   0.540  0.1038  0.0673  0.1760
  528W        W 4579   5.585   4.644   0.213 -0.0200 -0.0546  0.1534
  529W        W 4580   0.153   4.389  11.774  0.1066 -0.0023  0.1181
  530W        W 4581   7.864   0.016   3.004  0.3444  0.2364 -0.2214
  531W        W 4582   6.897   0.906  12.150 -0.2595 -0.1907  0.1265
  532W        W 4583   8.295   7.558   3.384  0.0543 -0.2174  0.2471
  533W        W 4584   0.504   3.408   3.268 -0.1425 -0.2761  0.0547
  534W        W 4585   3.208   4.825  11.037 -0.1127  0.5506 -0.2770
  535W        W 4586   8.247   3.887   0.994 -0.1138  0.0030 -0.0250
  536W        W 4587  10.032   1.928   1.382 -0.3062  0.1620 -0.0003
  537W        W 4588   0.279   6.546   0.701  0.0097 -0.0762 -0.1311
  538W        W 4589   5.405   0.996  11.758 -0.4397  0.2357  0.0543
  539W        W 4590   2.440   8.103   2.439 -0.0450  0.1523  0.2130
  540W        W 4591   3.698   7.679   1.585 -0.0680  0.1640 -0.2019
  541W        W 4592   8.993   1.100  13.157  0.1758 -0.2468  0.0046
  542W        W 4593   4.581   7.736   3.807 -0.0037  0.1196  0.2358
  543W        W 4594   4.480   6.787   3.833 -0.0661  0.1349  0.0288
  544W        W 4595   5.187   1.187   9.505 -0.1723  0.0742  0.0648
  545W        W 4596   4.628   4.947   2.308 -0.2667  0.0214  0.0834
  546W        W 4597   3.582   3.489  13.707  0.4838  0.0979 -0.0959
  547W        W 4598   3.493   7.803   5.071  0.0963  0.0633 -0.2049
  548W        W 4599   5.195   6.593   1.206  0.1325  0.3217  0.1628
  549W        W 4600   6.853   2.861  11.141 -0.0004  0.0931 -0.3726
  550W        W 4601  10.137   7.008   4.264 -0.0071  0.0497 -0.1207
  551W        W 4602   0.096   4.332   1.311  0.0595  0.1021  0.1022
  552W        W 4603   6.030   2.536  13.075 -0.4931 -0.0363 -0.1090
  553W        W 4604   7.693   8.862  10.671  0.0746  0.2812  0.2323
  554W        W 4605   5.399   0.472  11.724 -0.2035  0.0266  0.3058
  555W        W 4606   3.150   7.149   3.778 -0.1804 -0.0307  0.1911
  556W        W 4607   0.380   5.832   2.883  0.0122 -0.3929  0.0282
  557W        W 4608  10.092   4.257  11.384  0.0349  0.1346 -0.0249
  558W        W 4609   9.955   9.638  10.806 -0.0029 -0.1218 -0.1137
  559W        W 4610   7.069   7.660  10.415 -0.0421  0.1790 -0.3232
  560W        W 4611   9.412   8.311   9.806 -0.0156 -0.1366  0.0491
  561W        W 4612   0.790   9.855   0.425 -0.0197  0.1239  0.0234
  562W        W 4613   9.031   7.982   4.878  0.0110 -0.1469 -0.0956
  563W        W 4614   1.286  10.044   2.240 -0.0714 -0.0789  0.3336
  564W        W 4615   2.743   4.539  12.653 -0.0867 -0.2646  0.2439
  565W        W 4616   1.247   4.236  10.578 -0.1311 -0.0540 -0.2082
  566W        W 4617   6.618   2.741  12.650 -0.0925 -0.0455 -0.0279
  567W        W 4618   4.804   6.508   1.914 -0.0549  0.3168  0.0210
  568W        W 4619   9.420   6.258   0.256  0.0349 -0.1282 -0.1159
  569W        W 4620   6.102   5.520   9.828  0.2926 -0.2764 -0.0968
  570W        W 4621   5.789   0.991   3.023 -0.1893 -0.1975 -0.3155
  571W        W 4622   7.665   7.910  10.060  0.2496  0.0654  0.0236
  572W        W 4623   2.757   5.693   3.568 -0.0985  0.0900 -0.0069
  573W        W 4624   4.300   4.398   0.455  0.0192  0.0614  0.1485
  574W        W 4625   2.199   4.765  12.143 -0.0888  0.1200  0.2174
  575W        W 4626   4.706  10.012  13.535 -0.1660  0.1883 -0.2529
  576W        W 4627   3.912   2.404   0.109  0.1162 -0.1078  0.0335
  577W        W 4628   1.649   3.400   0.749  0.2865  0.1098  0.0978
  578W        W 4629   3.776   0.512  10.129 -0.2409  0.2673  0.2163
  579W        W 4630   8.844   4.549  12.845 -0.2072  0.0459  0.0228
  580W        W 4631   3.911   2.615   4.340 -0.0283  0.0566 -0.0482
  581W        W 4632   2.036   2.622  10.512  0.1041 -0.1161  0.5409
  582W        W 4633   0.702   7.713  13.824  0.0557 -0.0028 -0.2007
  583W        W 4634   9.601   0.227  11.094  0.1521  0.1481 -0.0317
  584W        W 4635   2.130   9.611  10.273 -0.3896  0.0880 -0.2704
  585W        W 4636   2.559  10.126  13.935  0.2165 -0.2041  0.3664
  586W        W 4637   0.138   0.881   9.917  0.1380  0.4155  0.3749
  587W        W 4638   7.558   3.995  11.801 -0.0667  0.0298  0.1435
  588W        W 4639   4.847   4.246   2.314  0.1209 -0.0676  0.1491
  589W        W 4640   1.684   7.953   4.541 -0.0215 -0.1066 -0.0483
  590W        W 4641   5.686   9.077   4.223  0.3010 -0.0515 -0.0270
  591W        W 4642   4.033   2.854  11.419 -0.1532  0.0720  0.0278
  592W        W 4643   3.870   5.617  11.012  0.0868  0.0417  0.1932
  593W        W 4644   6.877   3.142  11.739  0.1835  0.0028  0.0697
  594W        W 4645   4.973   2.797  12.366 -0.2343  0.1409  0.0075
  595W        W 4646   3.200   5.898  11.621  0.0766 -0.3176 -0.0229
  596W        W 4647  10.183   6.984   5.261  0.4521  0.3479  0.1532
  597W        W 4648   4.887   8.422   0.522  0.0371 -0.2116 -0.1086
  598W        W 4649   0.002   4.910   2.602 -0.1017  0.2532 -0.0775
  599W        W 4650   7.883   5.163   0.449  0.1047  0.0936  0.2675
  600W        W 4651   4.823   9.882  11.975  0.1926 -0.3367 -0.0976
  601W        W 4652   2.442   8.650   3.496  0.1370 -0.1424  0.1656
  602W        W 4653   7.190   2.152   2.112 -0.1332 -0.2749  0.1797
  603W        W 4654   1.907   8.580   3.118  0.1625  0.2035 -0.1781
  604W        W 4655   7.639   2.256  10.857  0.0290  0.1000 -0.0284
  605W        W 4656   2.952   2.377   4.558  0.1296 -0.0486 -0.1290
  606W        W 4657   4.206   0.133   3.621  0.0123  0.1203  0.0021
  607W        W 4658   2.530   3.860  13.423  0.0805 -0.2089  0.1598
  608W        W 4659   4.228   7.338   4.780  0.1216  0.3092  0.0147
  609W        W 4660   9.114   2.763   2.078  0.1623 -0.0720  0.2246
  610W        W 4661   5.685   8.757   3.279 -0.1989 -0.1064 -0.0762
  611W        W 4662   9.533   6.734   2.441  0.1769 -0.1291  0.2222
  612W        W 4663   5.050   8.112  12.240 -0.1803  0.3454 -0.1333
  613W        W 4664   2.602   8.808   9.975 -0.0576  0.0972  0.0158
  614W        W 4665   7.486   6.375   4.117  0.2343  0.0836 -0.0899
  615W        W 4666   2.535   4.585   2.459 -0.2253 -0.3141  0.1420
  616W        W 4667   0.148   2.871  12.158 -0.0373 -0.0511 -0.2410
  617W        W 4668   6.637   4.778   3.510  0.0977  0.0566  0.0153
  618W        W 4669   0.744   5.213  13.427 -0.1321  0.3907 -0.0745
  619W        W 4670   9.136   8.150  10.326 -0.1647  0.3329  0.0078
  620W        W 4671   9.487   6.317   2.768  0.1370 -0.1615  0.6491
  621W        W 4672   5.972   5.407   1.322  0.0951 -0.3588  0.1115
  622W        W 4673   7.791   2.045  11.291 -0.0904  0.2550  0.0697
  623W        W 4674   0.621   2.075   1.839 -0.1318  0.2087 -0.1990
  624W        W 4675   1.219   3.119   0.660  0.3859 -0.2428  0.1073
  625W        W 4676   8.252   6.296  12.092 -0.1323  0.1406  0.0407
  626W        W 4677   2.230   4.472  10.245 -0.2445  0.1337 -0.1473
  627W        W 4678   6.430   1.010  10.698  0.0203  0.1339 -0.0877
  628W        W 4679   5.271   9.567   0.893  0.2600  0.2155  0.1063
  629W        W 4680   2.009   6.859   2.639  0.0399 -0.2461 -0.0935
  630W        W 4681   0.283   0.813   2.183  0.3101 -0.0219 -0.1421
  631W        W 4682   0.283   7.958   1.342 -0.1511 -0.1220 -0.2579
  632W        W 4683   2.449   1.638   4.312 -0.2136 -0.0033  0.0552
  633W        W 4684   9.793   8.934   4.942 -0.4744 -0.2002  0.2839
  634W        W 4685   1.038   3.326  12.134 -0.0830 -0.0502 -0.4047
  635W        W 4686   4.994   5.066  12.577  0.3549  0.0726 -0.3554
  636W        W 4687   1.398   4.860  11.742 -0.1935  0.0025  0.1708
  637W        W 4688   2.673   9.954  11.607 -0.1062  0.2287 -0.0075
  638W        W 4689   3.742   2.057   4.389 -0.3740  0.0482  0.0423
  639W        W 4690   1.373   5.112   0.921 -0.1257 -0.0920 -0.3501
  640W        W 4691   4.025   8.332  12.194 -0.1716  0.0766  0.0729
  641W        W 4692   3.935   7.719   0.822  0.2440 -0.0451  0.3062
  642W        W 4693   4.019   8.182   1.173  0.1217  0.2144 -0.2239
  643W        W 4694   7.232   0.413   9.861 -0.0390 -0.0186  0.1080
  644W        W 4695   7.168   3.321   0.270  0.7557  0.0256 -0.3130
  645W        W 4696   1.037   0.785  11.982  0.1418  0.0389 -0.1067
  646W        W 4697   9.461   6.831   3.093 -0.2434  0.1744  0.1060
  647W        W 4698   6.018   6.748   2.941  0.1582  0.1449 -0.2226
  648W        W 4699   1.873   7.840   3.494 -0.4331 -0.0658 -0.0392
  649W        W 4700   4.903   5.016   9.540 -0.2154 -0.3689  0.1116
  650W        W 4701   0.665   5.493   9.654  0.2538  0.3657  0.0961
  651W        W 4702   1.795   2.341  11.935 -0.0761 -0.0167  0.0383
  652W        W 4703   0.799   4.236   2.407 -0.0736 -0.2899  0.0666
  653W        W 4704   0.012   7.655   5.375 -0.1234 -0.0035  0.1373
  654W        W 4705   0.969   9.366  10.091  0.0260  0.0954  0.5461
  655W        W 4706   6.076  10.069   3.310  0.0598  0.0744  0.1687
  656W        W 4707   2.604   0.547   3.841  0.2654  0.3220  0.2030
  657W        W 4708   0.370   7.604   1.716 -0.1023 -0.1605  0.0123
  658W        W 4709   7.034   6.427   4.546  0.0721 -0.0092 -0.0967
  659W        W 4710   9.289   1.495   1.290 -0.0224 -0.1438 -0.3887
  660W        W 4711   7.990   4.100  12.012  0.0135  0.2064  0.4118
  661W        W 4712  10.185   3.649   4.376  0.1501  0.0152  0.1058
  662W        W 4713   6.211   3.779  10.605  0.3438 -0.1742  0.2472
  663W        W 4714   4.372   9.347   1.357 -0.1858 -0.2342  0.1154
  664W        W 4715   9.890   0.311  12.564 -0.0193 -0.1619  0.1323
  665W        W 4716  10.141   6.773  12.269  0.0945  0.2281  0.1549
  666W        W 4717   0.142   3.556   1.738  0.1434 -0.0745 -0.1627
  667W        W 4718   1.891   5.399   1.213  0.0308 -0.1939 -0.2947
  668W        W 4719   4.056   6.000  10.696 -0.0675  0.1798  0.2033
  669W        W 4720   0.386   3.870   2.548 -0.0797  0.0214  0.0785
  670W        W 4721   2.083   4.344  11.794 -0.4451  0.2275  0.5604
  671W        W 4722   0.998   1.929   1.064 -0.1812  0.0283  0.1781
  672W        W 4723   4.717   2.758  13.478 -0.0299 -0.1129 -0.1103
  673W        W 4724   2.325   2.227   0.392 -0.2926 -0.1754 -0.1022
  674W        W 4725   9.771   2.745  10.446 -0.0100 -0.0316 -0.0238
  675W        W 4726   6.489   3.227  11.378 -0.0061  0.1057 -0.1128
  676W        W 4727   2.686  10.142   4.638 -0.1654  0.2772 -0.3403
  677W        W 4728  10.039   3.992   3.988 -0.1433  0.0466 -0.2036
  678W        W 4729   4.558   1.067   0.113 -0.2160  0.2229 -0.4429
  679W        W 4730   2.977   5.608   3.985  0.0596 -0.3459 -0.2051
  680W        W 4731   3.284   6.677   0.103 -0.0841 -0.3173  0.1247
  681W        W 4732   3.392   7.760  12.072  0.1559 -0.1195  0.1085
  682W        W 4733   7.979   8.065   4.783  0.1385 -0.3082 -0.0316
  683W        W 4734   6.935   4.772  10.216 -0.2383  0.0582 -0.0572
  684W        W 4735   4.345   9.676  13.434  0.2250  0.2925 -0.1488
  685W        W 4736   0.720   9.395   0.259  0.1080 -0.2427  0.2944
  686W        W 4737   4.926   5.634   1.622 -0.3706 -0.1474 -0.2159
  687W        W 4738   4.117   1.777   1.393 -0.1554 -0.0658 -0.3656
  688W        W 4739   3.294   1.023   3.474  0.1707  0.1288  0.0919
  689W        W 4740   9.834   5.680   2.154  0.0723  0.2956  0.1192
  690W        W 4741   7.772   9.422   4.845  0.4880 -0.1426  0.0900
  691W        W 4742   4.743   4.108  12.658 -0.4496  0.1003  0.1581
  692W        W 4743   6.121   8.349  11.795 -0.0436  0.2819 -0.1402
  693W        W 4744   0.818   9.056   4.497 -0.1788  0.1612  0.1966
  694W        W 4745   6.982   5.136   3.351  0.1990 -0.0363 -0.0204
  695W        W 4746   1.557   5.823   2.402 -0.2076 -0.1775 -0.4849
  696W        W 4747   0.119   6.398  13.845  0.1078 -0.1209 -0.0053
  697W        W 4748   7.369   2.446   1.658  0.2613  0.1610  0.1093
  698W        W 4749   3.168   9.596   0.105 -0.0808 -0.0807 -0.1527
  699W        W 4750   4.299   5.528  11.439 -0.1208  0.1859 -0.2559
  700W        W 4751   5.231   7.850  11.824  0.0168  0.0356 -0.2288
  701W        W 4752   0.012   8.881   1.738  0.0426  0.0032  0.3075
  702W        W 4753   1.994   0.417   9.702  0.0197  0.1953  0.1550
  703W        W 4754   1.599   5.757  12.067 -0.0079  0.0383  0.0339
  704W        W 4755   1.257   2.701   4.864  0.1713 -0.1475  0.2355
  705W        W 4756   5.585   3.751   3.683 -0.0472  0.1259  0.1031
  706W        W 4757   2.830   4.384   4.169  0.0999 -0.0355  0.1179
  707W        W 4758   7.129   5.060  13.225  0.1153 -0.0357 -0.1624
  708W        W 4759   9.602   3.839   0.198 -0.1207 -0.0244 -0.1269
  709W        W 4760   9.680   3.270  11.272 -0.1777  0.0227 -0.0309
  710W        W 4761   6.521   1.570   9.931 -0.1375 -0.0108  0.0600
  711W        W 4762   2.482   8.169   5.171  0.1971  0.0277  0.2316
  712W        W 4763   1.201   9.098   1.998  0.2103  0.0508  0.0734
  713W        W 4764  10.176   7.638   0.968 -0.2511 -0.0279 -0.1195
  714W        W 4765   2.524   8.268  10.358 -0.3899 -0.1907  0.1682
  715W        W 4766   8.115   2.958   3.225 -0.2691 -0.0562  0.0785
  716W        W 4767   4.150   4.545  11.610 -0.2142  0.3632  0.0895
  717W        W 4768   2.536   5.004  13.027 -0.1512 -0.3626 -0.1198
  718W        W 4769   3.844   2.908   3.047 -0.1018  0.0995  0.2238
  719W        W 4770   0.263   5.716   5.149 -0.2259  0.0243 -0.3546
  720W        W 4771   7.914   8.350   3.159 -0.0414  0.4048 -0.0933
  721W        W 4772   7.682   6.182  13.464  0.0904  0.1735  0.1230
  722W        W 4773   6.191   3.875   9.605 -0.1634 -0.1836 -0.2870
  723W        W 4774   8.968   1.431   0.883  0.2324  0.1961 -0.0590
  724W        W 4775   2.499   5.979  11.708 -0.1469 -0.0612  0.0373
  725W        W 4776   5.213   1.392  10.112 -0.3258  0.2140 -0.1812
  726W        W 4777   9.617   4.706  13.324  0.0450 -0.1373 -0.1965
  727W        W 4778   9.887   7.082   3.267  0.0049  0.2854  0.2615
  728W        W 4779   6.880   5.487   5.545 -0.2986 -0.0917  0.1527
  729W        W 4780   8.846   1.111   3.984 -0.0406 -0.0110 -0.1527
  730W        W 4781   0.972   3.663   3.764 -0.2596  0.3431 -0.2217
  731W        W 4782   9.216   6.182  11.082 -0.1225 -0.1371  0.5259
  732W        W 4783   5.918   3.074   4.385  0.1075 -0.2208  0.1021
  733W        W 4784   0.742   2.885   9.604 -0.1914  0.0856  0.2000
  734W        W 4785   3.885   1.041   9.973 -0.3019  0.2190 -0.1230
  735W        W 4786   4.372   7.682  10.672  0.1125 -0.1079  0.1773
  736W        W 4787   6.783   8.217   4.353  0.0781  0.1248 -0.0344
  737W        W 4788   1.021   1.222   4.713 -0.1203 -0.0078 -0.0502
  738W        W 4789   5.799   3.817  12.436 -0.0176  0.0998  0.2744
  739W        W 4790   4.479   5.920   1.542  0.1270 -0.0327 -0.2015
  740W        W 4791   6.859   3.033  13.364  0.1073 -0.2403 -0.0604
  741W        W 4792   9.183   2.647   2.568  0.0643 -0.1381  0.1865
  742W        W 4793   7.388   2.254  13.752 -0.0269 -0.1349 -0.0001
  743W        W 4794   4.789   6.838   4.231  0.0812 -0.2079 -0.0814
  744W        W 4795   4.763   6.528  12.237 -0.2132  0.1548 -0.1210
  745W        W 4796   4.417   5.081  12.512 -0.2911  0.2519 -0.0868
  746W        W 4797   8.159   7.232  12.706  0.1663  0.0107  0.3099
  747W        W 4798   5.322   5.584   5.274  0.2074  0.1215  0.1529
  748W        W 4799   4.975   6.040  13.403  0.0682  0.1841  0.2279
  749W        W 4800   4.283   6.065  11.385 -0.1585  0.1963  0.1100
  750W        W 4801   6.345   8.102   0.825  0.4166  0.1402 -0.0297
  751W        W 4802   7.354   0.244   9.331 -0.0931  0.1174 -0.0072
  752W        W 4803   2.057   1.004  13.107  0.0660 -0.0427  0.1109
  753W        W 4804   4.179   6.069   3.117 -0.1227 -0.0317 -0.3944
  754W        W 4805   8.990   8.823   0.782  0.3848 -0.2768 -0.1238
  755W        W 4806   1.412   7.679   3.522 -0.0920 -0.0125  0.2343
  756W        W 4807   2.336   0.571  12.025 -0.1123 -0.0517 -0.2874
  757W        W 4808   7.006   1.221  11.761 -0.1451  0.0826 -0.1006
  758W        W 4809   0.438   2.150  11.755  0.0425  0.1126  0.1316
  759W        W 4810   9.612   7.499   1.858 -0.2974 -0.1056  0.1988
  760W        W 4811   4.061   8.662   2.861  0.1456 -0.2023  0.1062
  761W        W 4812   5.339   7.416  13.072 -0.1259 -0.2071  0.4149
  762W        W 4813   7.998   2.352   0.369  0.3290  0.0176  0.0821
  763W        W 4814   4.613   3.355  12.134 -0.1401  0.0793 -0.2135
  764W        W 4815   0.221   2.292  13.122  0.1005  0.0702  0.0136
  765W        W 4816   2.328   4.097   4.379  0.0311 -0.0722 -0.0827
  766W        W 4817   0.646   1.485  13.416  0.0214  0.0595 -0.0463
  767W        W 4818   8.208   5.321   5.564  0.1390 -0.0949 -0.0633
  768W        W 4819   5.506   9.647  10.116 -0.1246 -0.0209 -0.1859
  769W        W 4820   7.469   3.997  10.772 -0.0884 -0.1445 -0.0121
  770W        W 4821   0.649   4.546  10.649 -0.3307 -0.0665  0.0566
  771W        W 4822   6.902   4.854   0.491 -0.1813 -0.5533  0.0399
  772W        W 4823   3.979   5.565   4.569  0.1477  0.0191 -0.4678
  773W        W 4824   6.753   5.350   0.552  0.3949  0.0094  0.1410
  774W        W 4825   3.029   6.798  10.254  0.0399 -0.2234  0.0078
  775W        W 4826   3.941   4.261   4.038  0.0244 -0.1683 -0.0049
  776W        W 4827   3.887   6.396  10.974 -0.1138  0.3530  0.0162
  777W        W 4828   2.981   7.144  13.306  0.2341  0.3397 -0.2539
  778W        W 4829   7.607   4.842   1.856  0.2615 -0.1665 -0.1668
  779W        W 4830   5.594   5.371   9.857 -0.0026 -0.1177 -0.1486
  780W        W 4831   0.818   0.674   3.038 -0.1450  0.0794 -0.1896
  781W        W 4832   4.846   3.884   1.587  0.0505  0.1492 -0.1512
  782W        W 4833   6.909   2.187   1.452 -0.2368 -0.3318 -0.0640
  783W        W 4834   3.241   6.347   9.873 -0.1071 -0.0672 -0.0082
  784W        W 4835   2.672   1.340  12.623 -0.0339 -0.2030 -0.2288
  785W        W 4836   1.185   1.288  12.678  0.0970  0.1798 -0.1105
  786W        W 4837   1.179   3.607   3.243 -0.2959  0.5997 -0.0120
  787W        W 4838   3.724   3.030  12.107  0.0418  0.0487 -0.0946
  788W        W 4839   3.527   2.327  10.651  0.1499 -0.2051 -0.1038
  789W        W 4840   0.169   6.469   4.441  0.5676 -0.0676 -0.1514
  790W        W 4841   1.179   7.491   9.990  0.1524  0.0939 -0.0808
  791W        W 4842   3.146   3.162   2.151 -0.1184 -0.0550  0.3682
  792W        W 4843  10.136   7.528   2.431  0.0049  0.1467 -0.1363
  793W        W 4844   8.528   8.417  12.670 -0.4249 -0.2674 -0.3103
  794W        W 4845   8.729   1.028   0.486 -0.2408 -0.0985 -0.1552
  795W        W 4846   2.723   9.133  10.379  0.3643 -0.3549  0.1648
  796W        W 4847   4.134   0.014  13.494 -0.0569  0.2135  0.2477
  797W        W 4848   7.888   0.173   4.763 -0.3566 -0.1337 -0.1409
  798W        W 4849   3.636   1.934   1.204  0.2460 -0.0790 -0.1078
  799W        W 4850   2.647   0.199   2.784  0.3178  0.1105 -0.1277
  800W        W 4851   2.041   2.259   2.814  0.3030 -0.0002 -0.0268
  801W        W 4852   3.934   3.160   9.794 -0.2528 -0.1862 -0.3786
  802W        W 4853   0.659  10.065  11.686 -0.0017 -0.3142 -0.0403
  803W        W 4854   1.913   7.142  12.243 -0.2148  0.3521  0.1938
  804W        W 4855   7.634   7.167   2.030  0.0764 -0.0290  0.3597
  805W        W 4856   1.686   4.368  10.395  0.1047  0.0475 -0.1721
  806W        W 4857   8.253   3.695  12.168 -0.0284 -0.2180 -0.0474
  807W        W 4858   6.741   4.460  12.827 -0.1894 -0.2370  0.5407
  808W        W 4859   2.219   1.522   2.505  0.1301  0.0923  0.2313
  809W        W 4860   2.070   0.570   0.340 -0.1220  0.0387  0.2400
  810W        W 4861   6.075   3.170   1.418  0.0703  0.0929  0.1715
  811W        W 4862   8.619   5.627   3.145  0.3328  0.0129  0.0445
  812W        W 4863   7.907   8.010   2.732 -0.0711  0.2713  0.1278
  813W        W 4864   0.855   3.580  12.549 -0.3403 -0.0296  0.2248
  814W        W 4865   4.971   4.566   8.721 -0.3168  0.0383 -0.0108
  815W        W 4866   1.016   5.616   9.250  0.0743  0.2019  0.0431
  816W        W 4867   4.145   1.082  11.007  0.0316  0.0737 -0.0453
  817W        W 4868   7.143   4.240  13.148  0.0292 -0.0062 -0.0508
  818W        W 4869   1.870   4.027  10.119 -0.1347  0.0154  0.1265
  819W        W 4870   3.091   3.163   4.787  0.0516  0.1059 -0.1071
  820W        W 4871   7.866   2.356   2.664 -0.2906  0.0601  0.0092
  821W        W 4872   5.276   8.050   0.137 -0.0825 -0.0839 -0.4616
  822W        W 4873   8.963   8.813   2.531 -0.0004  0.1466 -0.3357
  823W        W 4874   4.068   1.695  11.180  0.2710  0.2050 -0.0904
  824W        W 4875   0.588   3.165  12.313  0.1268  0.2449 -0.0896
  825W        W 4876   4.766   6.841   1.402  0.1499 -0.3464  0.0182
  826W        W 4877   3.019   6.716  12.732 -0.2130 -0.0788  0.2631
  827W        W 4878   0.498   7.302   2.590 -0.2396 -0.0986  0.0501
  828W        W 4879   0.639   1.365   3.868 -0.1375 -0.1879  0.0313
  829W        W 4880   5.852   1.817   3.347  0.2403  0.3478 -0.1443
  830W        W 4881   6.707   4.349  10.273  0.1949  0.3024  0.5557
  831W        W 4882   6.385   4.300   9.812 -0.1524  0.1436 -0.1547
  832W        W 4883   6.100   5.059   4.082 -0.0709  0.0069  0.0103
  833W        W 4884   8.996   5.615   9.556  0.0696  0.2676 -0.1449
  834W        W 4885   6.982   9.967  13.268 -0.0931  0.0727 -0.5259
  835W        W 4886  10.067   5.051  10.481  0.1128 -0.0305  0.0665
  836W        W 4887   8.834   6.863  13.204 -0.0612 -0.0303  0.0376
  837W        W 4888   6.678   2.824   4.050  0.2131 -0.0304  0.0478
  838W        W 4889   2.876   2.738  13.893 -0.2012  0.0140  0.0287
  839W        W 4890   8.903   0.827  10.884  0.3223  0.2246  0.2540
  840W        W 4891   8.790   6.949   0.583  0.2102 -0.0055  0.0317
  841W        W 4892   6.858   5.245  11.515 -0.1472  0.1633  0.2686
  842W        W 4893   7.661   7.815   3.866 -0.2745  0.1877 -0.0821
  843W        W 4894   8.204   1.397  13.127  0.0360  0.1074  0.1458
  844W        W 4895   6.962   2.848  13.810 -0.3481 -0.1823  0.1017
  845W        W 4896   4.107   1.624   0.644  0.0399 -0.3684  0.0241
  846W        W 4897   0.480   6.014   0.056  0.1232 -0.1942  0.1641
  847W        W 4898   5.916   4.744  10.563  0.1424  0.0562 -0.2107
  848W        W 4899   9.805   4.749  12.429 -0.0662  0.1665  0.2458
  849W        W 4900   9.573   8.812  10.952  0.0859 -0.1723  0.1299
  850W        W 4901   0.709   9.341   2.848 -0.0314 -0.0371  0.0160
  851W        W 4902   5.802   6.018   3.718  0.1629  0.0301 -0.1618
  852W        W 4903   1.750   1.506   0.029  0.0770  0.1193  0.4799
  853W        W 4904  10.165   8.989   1.236  0.1124 -0.1886 -0.0025
  854W        W 4905   9.827   9.627  10.230 -0.0534 -0.0499  0.1804
  855W        W 4906   7.561   1.931   2.826 -0.1036  0.0233 -0.1254
  856W        W 4907   1.709   7.810   5.060 -0.2661  0.2574  0.1595
  857W        W 4908   2.315   0.032  11.373  0.0421 -0.0514  0.1493
  858W        W 4909   2.671   2.629  13.412  0.1812 -0.1314  0.1671
  859W        W 4910   5.981   3.563   0.485 -0.0928  0.0887 -0.3742
  860W        W 4911   7.222   5.495  11.318  0.0100  0.3457  0.0578
  861W        W 4912   9.199   7.747   4.477  0.0263  0.1360  0.0253
  862W        W 4913   7.446   0.645   3.545  0.4628  0.0758 -0.0621
  863W        W 4914  10.126   0.333  13.632  0.0932 -0.0125 -0.3203
  864W        W 4915   6.396   2.121  13.585  0.1316 -0.1896 -0.2443
  865W        W 4916   1.207   8.918  13.088  0.1477 -0.0720 -0.0091
  866W        W 4917   9.281   9.377  13.491  0.1198 -0.0802 -0.3116
  867W        W 4918   0.294   5.821   3.947 -0.0057  0.0100  0.1682
  868W        W 4919   0.698   0.434   2.040  0.2209  0.0553  0.0893
  869W        W 4920   5.562   5.611   1.074 -0.0933  0.2850  0.2395
  870W        W 4921   7.934   0.669  13.570 -0.2851 -0.1276 -0.0386
  871W        W 4922   6.400   0.169  10.388  0.1902 -0.0601 -0.1144
  872W        W 4923   3.397   9.825  13.725  0.0080 -0.0140  0.0482
  873W        W 4924   0.076   7.159  12.979 -0.3024 -0.0975  0.0732
  874W        W 4925   5.249   8.672   0.809 -0.1176 -0.2529  0.0304
  875W        W 4926   1.103   0.775  12.588  0.1185 -0.0777  0.1586
  876W        W 4927   8.339   8.657  11.485  0.0070 -0.0005  0.3124
  877W        W 4928   7.812   6.916   0.985 -0.5866 -0.0253  0.3649
  878W        W 4929   4.387   7.950   2.435 -0.1538 -0.1736  0.0392
  879W        W 4930   5.853   7.838   0.734 -0.2387 -0.0144  0.1098
  880W        W 4931   6.305   9.992  12.062  0.1210 -0.1102 -0.1776
  881W        W 4932   1.609   3.786  11.545  0.2366 -0.0153  0.0199
  882W        W 4933   8.476   3.285   3.001 -0.2033 -0.0507 -0.1693
  883W        W 4934   8.796   0.709  12.871  0.1516 -0.3067  0.1857
  884W        W 4935   4.983   3.807   4.887 -0.1101  0.0432  0.2308
  885W        W 4936   3.938   7.939  10.639  0.0201  0.2467  0.0848
  886W        W 4937   2.348  10.173   1.894 -0.0071 -0.1592 -0.4277
  887W        W 4938   0.280   9.939   2.558  0.1600  0.1521 -0.1183
  888W        W 4939   4.705   0.831   3.350  0.1517  0.0949  0.7425
  889W        W 4940   4.615  10.061   4.556 -0.2127 -0.2573 -0.1240
  890W        W 4941   0.163   1.971   2.701  0.2121 -0.3336 -0.2163
  891W        W 4942   9.596   1.731   3.421  0.1363 -0.1667 -0.1199
  892W        W 4943   1.762   9.925   3.621 -0.1277 -0.0987  0.2315
  893W        W 4944   2.516   5.277   0.109 -0.0328 -0.2495 -0.0942
  894W        W 4945   0.785   6.075  13.289  0.2092  0.1782 -0.3444
  895W        W 4946   8.867   4.606   0.527 -0.1198 -0.0940 -0.0939
  896W        W 4947   8.373   7.130   1.852  0.2316  0.3155  0.1743
  897W        W 4948   4.194   8.642  10.929 -0.1860  0.0221  0.3095
  898W        W 4949   2.315   7.583  12.640 -0.0754  0.1584  0.2090
  899W        W 4950   8.380   5.946   4.928 -0.3627  0.0370  0.0417
  900W        W 4951   9.444   9.613   1.299 -0.0534  0.0638 -0.2142
  901W        W 4952   0.557   7.621  10.109 -0.1192  0.1450 -0.1334
  902W        W 4953   4.323   9.614  11.699 -0.0883  0.2897  0.0992
  903W        W 4954   4.539   0.167   2.729  0.0176  0.0012 -0.0917
  904W        W 4955   3.358   6.378   0.802 -0.1100  0.2473  0.0504
  905W        W 4956   1.486   4.753   2.357  0.1238  0.1671 -0.1681
  906W        W 4957   8.971   5.124   2.098  0.2259  0.1892 -0.1038
  907W        W 4958   8.445   5.405   4.128 -0.0662 -0.0367 -0.0387
  908W        W 4959   9.074   7.406  13.708  0.3128 -0.3576  0.2849
  909W        W 4960   0.317   8.793  11.655 -0.1835  0.1249 -0.2249
  910W        W 4961   5.297   2.517  12.746  0.2066  0.0664  0.0261
  911W        W 4962   5.703   5.111  10.789  0.0115 -0.2961  0.1821
  912W        W 4963   7.285   2.017  11.213 -0.4207  0.3555 -0.3885
  913W        W 4964   0.194   2.004   2.191 -0.2081 -0.1024 -0.3079
  914W        W 4965   3.340   2.209  11.716  0.0932 -0.0977  0.0769
  915W        W 4966   4.418   8.427  11.438 -0.0774  0.0215 -0.1975
  916W        W 4967   0.293   6.312  12.539  0.1720 -0.0615 -0.2132
  917W        W 4968   4.016   5.071  13.008 -0.0472 -0.1921 -0.0736
  918W        W 4969   9.761   8.115   0.077 -0.0667  0.1428  0.0054
  919W        W 4970   0.019   8.379  11.575 -0.0818  0.0443  0.0689
  920W        W 4971   9.936   3.593   0.630  0.0487  0.0174 -0.3930
  921W        W 4972   1.512   6.446  10.239 -0.1561 -0.2325  0.1002
  922W        W 4973   2.345   5.743   4.418  0.0811  0.0830 -0.0445
  923W        W 4974   7.524   8.616  12.483  0.1102  0.3301 -0.1347
  924W        W 4975   3.890   0.329   9.709 -0.1782 -0.2021 -0.1038
  925W        W 4976   8.262   6.944  11.457 -0.1343  0.3098 -0.0134
  926W        W 4977   9.202   5.386  12.377 -0.0062 -0.1793  0.1692
  927W        W 4978  10.175   1.212  12.617 -0.2558 -0.1776 -0.1725
  928W        W 4979   5.141   9.952  10.394  0.0342 -0.0730  0.0066
  929W        W 4980   0.054   3.767   0.253  0.4345  0.0888  0.2319
  930W        W 4981   1.715   5.454  13.604 -0.0395  0.0240  0.0640
  931W        W 4982   0.695   7.143  10.051 -0.2120 -0.0893  0.0276
  932W        W 4983   4.832   4.865  10.510  0.0425  0.1598  0.1469
  933W        W 4984   7.471   4.162   1.081  0.0303  0.0359  0.0064
  934W        W 4985   2.600   3.353   9.909  0.1044  0.1250 -0.2750
  935W        W 4986   6.230   7.527   4.949 -0.2421 -0.3299  0.3978
  936W        W 4987   0.786   5.780   1.833  0.0966 -0.4210  0.0134
  937W        W 4988   1.285   9.991  11.083  0.2401  0.0523  0.3598
  938W        W 4989   1.887   6.080  13.035  0.3584 -0.2661 -0.0558
  939W        W 4990   7.162   4.952   4.269 -0.0193  0.3703  0.0217
  940W        W 4991   2.031   5.197   3.183 -0.2020  0.0774 -0.1224
  941W        W 4992   2.498   3.152   4.748  0.4002 -0.1808 -0.0283
  942W        W 4993   3.244   9.538   4.883 -0.1889  0.2514 -0.1482
  943W        W 4994   4.373   3.861   1.677  0.3275  0.0912 -0.0325
  944W        W 4995   0.738   5.573   3.218  0.1807  0.1149 -0.2079
  945W        W 4996   3.914   2.849  13.072  0.3989 -0.0271  0.0637
  946W        W 4997   9.390   7.515  12.907  0.0702  0.3628  0.1351
  947W        W 4998   8.676   6.858   5.267 -0.0628 -0.1283 -0.3436
  948W        W 4999   7.137   1.964   3.065 -0.2030  0.3780  0.1304
  949W        W 5000   3.681   1.323  10.992 -0.1914  0.3373  0.0506
  950W        W 5001   0.568   2.218   2.910 -0.0191  0.0023  0.1839
  951W        W 5002   7.685   9.027  11.131  0.0786  0.2175 -0.1869
  952W        W 5003   3.230   9.026   4.413  0.3104 -0.2057 -0.1392
  953W        W 5004   6.260   7.601   5.879  0.0284 -0.0059 -0.2946
  954W        W 5005   9.848   0.537   1.731  0.0087 -0.2972  0.0147
  955W        W 5006   0.451   7.354   0.108 -0.4060  0.0614 -0.0342
  956W        W 5007   8.277   6.986  10.413 -0.2318  0.0795  0.0166
  957W        W 5008   0.911   4.804  12.535  0.4177  0.0205  0.2477
  958W        W 5009   3.836   5.413  11.570  0.0918 -0.2453 -0.2608
  959W        W 5010   0.304   6.182  11.540  0.0926 -0.0390  0.4244
  960W        W 5011   1.686   6.764  13.469 -0.0042 -0.1211 -0.1854
  961W        W 5012   1.133   6.370  11.067  0.2422 -0.0473  0.1879
  962W        W 5013   7.912   3.515  13.808 -0.1756 -0.1488 -0.2447
  963W        W 5014   1.709   2.754   2.318 -0.3631  0.1642  0.0332
  964W        W 5015   7.116   4.093   0.098  0.2696  0.2094 -0.0123
  965W        W 5016   9.489   8.213   3.692  0.1190 -0.0800 -0.1171
  966W        W 5017   4.487   9.180   3.601 -0.0115 -0.2322  0.3638
  967W        W 5018   6.802   2.405  10.513 -0.2750 -0.1218  0.0221
  968W        W 5019   7.388   3.497  10.930  0.2617  0.1186  0.0082
  969W        W 5020   2.885   0.944   0.473 -0.0472 -0.0474  0.2762
  970W        W 5021   4.160   6.520   4.422 -0.3108  0.0159  0.0767
  971W        W 5022   2.543   2.745  11.406  0.0874 -0.0807 -0.1141
  972W        W 5023   1.364   2.567  13.226  0.0722 -0.3782  0.1949
  973W        W 5024   9.082   6.751   0.983 -0.1240 -0.3562  0.0453
  974W        W 5025   1.733   5.386   0.658  0.2760 -0.1099  0.1544
  975W        W 5026   6.785   9.075   2.372  0.2449  0.1924  0.2549
  976W        W 5027   2.695   0.790  11.637 -0.0503  0.1779  0.0068
  977W        W 5028   2.929   4.305  11.723  0.2608  0.0716 -0.1570
  978W        W 5029   1.626   5.555   4.631  0.0749  0.1618 -0.0296
  979W        W 5030   4.240   7.580  11.754  0.0183 -0.3492 -0.3515
  980W        W 5031   5.032   3.366   0.024 -0.0279 -0.0513  0.0050
  981W        W 5032   5.217   7.433   0.135  0.1829 -0.0116  0.1572
  982W        W 5033   3.661   7.493  13.789 -0.0122 -0.0858  0.0779
  983W        W 5034   7.988   4.162  10.424  0.0302  0.1941 -0.2388
  984W        W 5035   9.283   6.740  11.254  0.0688  0.0104  0.0576
  985W        W 5036   6.711   3.817   3.650 -0.0074  0.1390 -0.1947
  986W        W 5037   3.439   9.560   2.577 -0.0703  0.1195 -0.1289
  987W        W 5038   2.955   4.325   3.483  0.3305 -0.0297  0.1574
  988W        W 5039   0.123   8.291   3.528  0.2157  0.2548 -0.0475
  989W        W 5040   5.208   0.567  12.842  0.0850  0.0599 -0.0462
  990W        W 5041   9.644   9.545  13.087  0.2053  0.2756 -0.0453
  991W        W 5042   9.087   4.531  11.387  0.1394  0.0269 -0.2808
  992W        W 5043   4.540   9.089  11.702  0.0977 -0.3506 -0.1327
  993W        W 5044   7.943   3.059   0.927 -0.2861 -0.0965  0.0387
  994W        W 5045   5.629   9.732  13.453  0.0586  0.2363  0.1806
  995W        W 5046   0.042   0.296   1.954 -0.1208  0.0380 -0.1223
  996W        W 5047   5.371   6.990  12.659  0.0286  0.1986 -0.3126
  997W        W 5048   3.411   2.516   2.947  0.0067 -0.1900  0.1555
  998W        W 5049   1.098   4.470  12.915  0.1282  0.0536  0.1372
  999W        W 5050   6.561   9.596   2.397 -0.0310 -0.0411  0.2261
 1000W        W 5051   3.917   6.482  11.467  0.1984  0.1000 -0.1657
 1001W        W 5052  10.112   1.874  12.019 -0.3233  0.0834 -0.1034
 1002W        W 5053   5.229   6.085   4.298 -0.1174 -0.0276  0.0449
 1003W        W 5054   4.299   7.334  13.170 -0.0909 -0.0453 -0.2499
 1004W        W 5055   0.194   2.860  11.194  0.1255 -0.0034 -0.0462
 1005W        W 5056   7.086   0.392  13.012  0.2851  0.1468 -0.3157
 1006W        W 5057   7.287   2.340   3.517 -0.1409 -0.2755 -0.2625
 1007W        W 5058   9.783   0.639   0.329  0.0126 -0.0508  0.1885
 1008W        W 5059   6.698   3.997   0.257  0.1712 -0.1798  0.1889
 1009W        W 5060   6.193   4.656   1.795 -0.4226  0.2471 -0.3105
 1010W        W 5061   8.383   7.270   3.945  0.1211  0.1147  0.1719
 1011W        W 5062   9.818   7.394   5.171  0.0192 -0.0891  0.1055
 1012W        W 5063   8.869   6.460  10.234 -0.0923 -0.0314  0.0287
 1013W        W 5064   3.426   1.230  11.480  0.0482 -0.2310  0.2346
 1014W        W 5065   4.106   0.981   0.403 -0.2161 -0.3112 -0.2417
 1015W        W 5066   2.351   1.601   2.988  0.0943 -0.1178  0.0901
 1016W        W 5067   3.715   7.470   2.028 -0.1109 -0.3121  0.4452
 1017W        W 5068   8.358   3.419   1.991 -0.0004 -0.0440  0.0150
 1018W        W 5069   3.757   7.151   0.189 -0.1685 -0.0032 -0.0968
 1019W        W 5070   8.473   5.408   4.609 -0.1123  0.0638 -0.1166
 1020W        W 5071   6.616   4.300   4.610  0.2338 -0.0218 -0.0435
 1021W        W 5072   4.264   2.568  13.602  0.1084 -0.1493 -0.2614
 1022W        W 5073   8.188   7.737   3.863  0.2174 -0.1533  0.0368
 1023W        W 5074   8.246   5.901  11.426 -0.0110 -0.1624  0.0296
 1024W        W 5075   9.233   0.452   2.026 -0.2860  0.1806 -0.1124
 1025W        W 5076   2.245   4.258  13.443  0.2197  0.0806 -0.0602
 1026W        W 5077   8.147   1.007   3.322 -0.1198 -0.1893 -0.2054
 1027W        W 5078   7.641   9.541   2.847 -0.1370  0.0874 -0.0865
 1028W        W 5079   1.675   2.649   2.903  0.0660  0.2786  0.1650
 1029W        W 5080   2.382   7.409   4.302  0.1397 -0.2156  0.0690
 1030W        W 5081   5.391   3.711   8.604 -0.2049  0.1426 -0.2051
 1031W        W 5082   4.013   1.477   2.205  0.0142 -0.1792 -0.1068
 1032W        W 5083   6.131   1.238   2.251  0.0558 -0.1578  0.3454
 1033W        W 5084   4.182   5.333  12.088 -0.2976 -0.0747 -0.0730
 1034W        W 5085   1.580   1.956   0.842 -0.1544  0.0624  0.3739
 1035W        W 5086   9.026   5.982  13.655 -0.1204 -0.0910 -0.0705
 1036W        W 5087   5.240   8.366   9.850 -0.2366 -0.2084 -0.2971
 1037W        W 5088   7.656   5.517   0.039  0.1038  0.2832  0.0901
 1038W        W 5089   4.053   4.357   0.968  0.1561 -0.0063  0.0377
 1039W        W 5090   6.121   2.687   1.420 -0.0505  0.3679 -0.0564
 1040W        W 5091   6.256   7.879  11.705  0.2149 -0.1968  0.2428
 1041W        W 5092   1.834   3.816   0.972 -0.0244  0.3242 -0.1525
 1042W        W 5093   9.332   2.533  11.874  0.0749 -0.0463  0.2026
 1043W        W 5094   0.789   3.925   3.341 -0.2371 -0.0353  0.1868
 1044W        W 5095   0.627   2.720   4.563 -0.0087  0.2388  0.0389
 1045W        W 5096   4.566   7.787   4.590  0.0993  0.0215 -0.2730
 1046W        W 5097   8.241   5.383  11.689  0.3914 -0.0684  0.1269
 1047W        W 5098   2.884   8.512   3.677 -0.0270  0.0063  0.1231
 1048W        W 5099   0.299   4.924   2.992  0.0827  0.0128  0.0097
 1049W        W 5100   8.861   3.064   3.242  0.2335  0.2459 -0.4146
 1050W        W 5101   3.699   3.740  11.705  0.1149  0.1596  0.1241
 1051W        W 5102   9.897   4.092   4.510 -0.0544 -0.0222  0.1084
 1052W        W 5103   5.608   6.818   3.535  0.1407  0.0065 -0.0047
 1053W        W 5104   5.956   3.116  10.011 -0.1087 -0.0736 -0.1424
 1054W        W 5105   5.269   9.468   0.050  0.1987 -0.0542 -0.1678
 1055W        W 5106   0.901   0.315   2.652 -0.1899 -0.2239 -0.0389
 1056W        W 5107   9.245   3.017  13.491  0.4512  0.1959 -0.1276
 1057W        W 5108   2.963   2.284   0.223  0.0272 -0.2295  0.0320
 1058W        W 5109   3.594   6.841   4.973 -0.0425 -0.2952 -0.0448
 1059W        W 5110   7.465   7.731   1.312 -0.0515  0.1484  0.0102
 1060W        W 5111   5.069   4.253  10.593  0.0531  0.0199 -0.0726
 1061W        W 5112   9.466   2.217   0.643  0.0265 -0.0085  0.1398
 1062W        W 5113   2.623   9.220   3.173  0.2930 -0.0431 -0.1086
 1063W        W 5114   5.323   5.079   3.427 -0.2024 -0.0609 -0.0527
 1064W        W 5115   6.700   9.855   1.330  0.1375  0.0121 -0.1204
 1065W        W 5116   5.649   9.763  11.061  0.2511  0.2828 -0.0684
 1066W        W 5117   0.201   5.268  13.083 -0.3550 -0.0120 -0.0893
 1067W        W 5118   7.600   4.232  11.257 -0.0307  0.2483  0.4767
 1068W        W 5119   1.216   5.090  10.940 -0.2034  0.2944 -0.1514
 1069W        W 5120   0.928   1.588   2.405  0.1142  0.1099  0.1812
 1070W        W 5121   6.794   4.951  12.816  0.0186  0.0447 -0.3348
 1071W        W 5122   1.402   1.653   1.264 -0.1549  0.1512 -0.0145
 1072W        W 5123   5.740   4.519   1.049  0.1004 -0.3643  0.3505
 1073W        W 5124   6.277   4.377   2.216  0.0817  0.0751 -0.0427
 1074W        W 5125   2.393   7.106   4.745  0.0041  0.3376  0.2489
 1075W        W 5126   6.373   7.556   0.703 -0.1808 -0.0337 -0.3091
 1076W        W 5127   3.507   8.303   9.611 -0.3619  0.0199 -0.3351
 1077W        W 5128   8.138   6.985   9.083  0.0889  0.1810  0.2449
 1078W        W 5129   1.071   6.562   1.337 -0.0321 -0.1974 -0.1820
 1079W        W 5130   3.821   9.682  10.191  0.4072  0.0011  0.3861
 1080W        W 5131   2.913   7.112   2.070 -0.0010  0.0336  0.1693
 1081W        W 5132   0.324   3.394   0.007  0.1222  0.0685 -0.0383
 1082W        W 5133   9.158   8.450   3.326  0.1674  0.1191 -0.0653
 1083W        W 5134   0.080   5.569   4.652 -0.3420  0.1189 -0.0259
 1084W        W 5135   2.005   6.032   1.746  0.0693 -0.2836  0.2317
 1085W        W 5136   2.411   6.579   4.851  0.3119  0.0337  0.2950
 1086W        W 5137   0.572   4.433  12.671  0.1282  0.1919 -0.0270
 1087W        W 5138   0.057   9.397   1.704  0.1020  0.0997 -0.1839
 1088W        W 5139   5.937   3.708  11.925 -0.0611  0.3098  0.1938
 1089W        W 5140   5.885   0.280   1.410  0.3168  0.0533 -0.1244
 1090W        W 5141   4.695   3.182  13.109  0.1611  0.2391  0.1068
 1091W        W 5142   7.541   3.980   2.450  0.1080  0.2714 -0.3340
 1092W        W 5143   5.239   6.435   2.989  0.1447 -0.0253  0.0563
 1093W        W 5144   0.484   5.589   9.170 -0.0580  0.0027  0.0744
 1094W        W 5145   4.825   8.308   3.951  0.2251 -0.4354 -0.0378
 1095W        W 5146   5.697   0.955  10.654 -0.0289  0.1236  0.0510
 1096W        W 5147   4.951   1.278   3.423 -0.0029  0.0433 -0.4007
 1097W        W 5148   1.891   6.538   2.225 -0.1267 -0.0929 -0.1742
 1098W        W 5149   2.183   2.716  13.551  0.1335 -0.1190  0.1144
 1099W        W 5150   7.306   5.086  12.683 -0.1267  0.2586 -0.2182
 1100W        W 5151   4.659   8.730  13.611  0.1008 -0.1571 -0.2561
 1101W        W 5152   3.403   5.564  11.303  0.1176 -0.2484 -0.3097
 1102W        W 5153   8.806   4.599   3.131 -0.1417  0.0471 -0.1388
 1103W        W 5154   2.678   3.248   3.835  0.1243  0.1558 -0.1925
 1104W        W 5155   5.614   0.568   3.398 -0.2615 -0.0239 -0.0994
 1105W        W 5156   8.147   9.806  11.538 -0.0551 -0.0734  0.3773
 1106W        W 5157   9.026   2.063   1.329  0.4329 -0.0939 -0.1744
 1107W        W 5158   4.214   9.467   4.001 -0.0319  0.0651 -0.0848
 1108W        W 5159   7.062   0.246   0.067 -0.0529 -0.0720 -0.1111
 1109W        W 5160   0.484   7.063   2.158  0.1411 -0.0307 -0.0767
 1110W        W 5161   3.032   6.553   3.613 -0.3872  0.0998  0.1869
 1111W        W 5162   8.969   3.235  11.679 -0.0534 -0.1075 -0.0826
 1112W        W 5163  10.066   8.887  12.592  0.0195 -0.0038  0.3555
 1113W        W 5164   2.345   4.006  10.023 -0.2846 -0.2804  0.0864
 1114W        W 5165   8.402   2.637  11.518 -0.0661 -0.4618 -0.3008
 1115W        W 5166   1.798   0.674   3.458 -0.0662  0.2311  0.1650
 1116W        W 5167   7.448   2.965   1.711  0.3875  0.2283  0.4068
 1117W        W 5168   1.995   3.270  13.797  0.0337  0.0842 -0.0057
 1118W        W 5169   5.634   5.096   1.052 -0.0914  0.0565 -0.2100
 1119W        W 5170   7.126   7.590   4.791  0.2223 -0.0838 -0.2403
 1120W        W 5171   6.251   7.423   3.961  0.5115 -0.0197 -0.1139
 1121W        W 5172   6.668   4.297  11.284 -0.0066 -0.2575  0.1611
 1122W        W 5173   9.627   5.075   5.211  0.0926 -0.2034  0.3543
 1123W        W 5174   5.184   3.707  11.710  0.1251  0.0346  0.3325
 1124W        W 5175   1.765   7.921  10.956  0.0559 -0.1284  0.0537
 1125W        W 5176   7.784   0.183   0.212 -0.1249  0.1861 -0.2249
 1126W        W 5177   9.822   3.149  12.172  0.0921  0.1850  0.1280
 1127W        W 5178   2.052   5.888   3.930 -0.0487  0.3884  0.1715
 1128W        W 5179   6.356   7.977  10.233 -0.2434  0.1480  0.1138
 1129W        W 5180   4.500   8.681   3.691 -0.4075  0.3881  0.1758
 1130W        W 5181   1.156   2.510  10.101  0.0904  0.0099 -0.1299
 1131W        W 5182   2.857   7.964  10.787  0.2002 -0.0744  0.2249
 1132W        W 5183   6.110   3.139  13.467  0.1694  0.1682  0.0960
 1133W        W 5184   5.551   3.525   1.942 -0.1360 -0.2336 -0.1887
 1134W        W 5185   6.330   6.169  10.508  0.1404  0.2236  0.2212
 1135W        W 5186   9.853   8.585  12.232 -0.1746 -0.2690  0.2172
 1136W        W 5187   1.919   7.064   4.487  0.0621  0.1855 -0.3053
 1137W        W 5188   4.513   0.460  11.704  0.0713  0.1099 -0.0646
 1138W        W 5189   9.717   3.365   3.527 -0.1440  0.1143  0.3145
 1139W        W 5190  10.082   1.779  10.516 -0.1762 -0.0539  0.0994
 1140W        W 5191   6.416   4.507  10.861 -0.1678 -0.1045 -0.0851
 1141W        W 5192   7.382   1.551  12.480  0.1822 -0.2807 -0.0486
 1142W        W 5193   3.246   6.309   2.595  0.1427 -0.0897  0.1356
 1143W        W 5194   8.620   8.473   0.735  0.1977 -0.1840  0.1273
 1144W        W 5195   9.761   6.663  11.320 -0.1478 -0.1037  0.0059
 1145W        W 5196   7.351   2.333  13.218  0.0063 -0.1628  0.2645
 1146W        W 5197   8.866   9.344  11.300 -0.1696  0.0730  0.3655
 1147W        W 5198   8.151   6.101  10.939  0.3414  0.0409 -0.1571
 1148W        W 5199   2.805   4.644   0.844  0.2595 -0.3391 -0.0657
 1149W        W 5200   5.272   3.244   9.604 -0.4704  0.3335 -0.1778
 1150W        W 5201   4.497   1.956  13.765  0.1725  0.0715  0.0478
 1151W        W 5202   9.307   0.307   2.959  0.1121  0.1852  0.0076
 1152W        W 5203   4.439   8.707   5.437  0.1614 -0.0633 -0.1914
 1153W        W 5204   8.800   9.901   2.726 -0.1139 -0.2123  0.1337
 1154W        W 5205   9.215   5.960   9.122  0.1727  0.1634 -0.3626
 1155W        W 5206   5.582   4.733   3.170 -0.1232 -0.1880 -0.1040
 1156W        W 5207   7.352   3.642   4.828  0.0786 -0.1889  0.0278
 1157W        W 5208   8.233   5.988   9.531 -0.1860 -0.0674  0.2189
 1158W        W 5209   9.619   2.638   0.838 -0.0358  0.0787 -0.0515
 1159W        W 5210   9.434   0.382  11.565  0.0223  0.1846 -0.1990
 1160W        W 5211   3.743   0.308  11.987 -0.0026  0.1707 -0.0578
 1161W        W 5212   9.074  10.111   3.635 -0.2999  0.2731  0.0182
 1162W        W 5213   0.047   8.600   0.815  0.0603 -0.1627 -0.3187
 1163W        W 5214   2.143   0.894  13.831 -0.0630 -0.1422 -0.2997
 1164W        W 5215   4.012   3.695   2.604 -0.0426 -0.1201  0.2284
 1165W        W 5216   6.222   7.544   1.171  0.1265 -0.0776 -0.0351
 1166W        W 5217   3.806   1.730   9.238  0.1104  0.0453 -0.1574
 1167W        W 5218   4.188   7.491  11.184  0.0681  0.0641  0.1912
 1168W        W 5219   6.168   1.839  11.376  0.0003 -0.2661  0.1597
 1169W        W 5220   6.302   1.327  12.915 -0.0793 -0.1814 -0.0291
 1170W        W 5221   6.106   3.349   9.590 -0.0577  0.2287 -0.1980
 1171W        W 5222   3.630   8.650   2.545  0.0918 -0.1268 -0.1108
 1172W        W 5223   5.480   3.432  12.708 -0.0424 -0.2369 -0.2162
 1173W        W 5224   8.969   9.729  13.355  0.0930  0.3327 -0.0679
 1174W        W 5225   3.109   9.278   2.260  0.1573 -0.1418  0.0389
 1175W        W 5226   6.229   4.118   4.371 -0.2988 -0.0060 -0.0660
 1176W        W 5227   1.899   7.590   4.241  0.0214 -0.0920 -0.1409
 1177W        W 5228   3.373   2.144   1.991  0.2479  0.3600  0.0326
 1178W        W 5229   5.556   4.214   3.915  0.3173  0.1709  0.4041
 1179W        W 5230   4.378   1.195  10.555  0.2029  0.0716  0.1246
 1180W        W 5231   6.687   7.352  13.480  0.0229  0.2058  0.0288
 1181W        W 5232   9.181  10.156  11.216  0.0020  0.1928  0.2506
 1182W        W 5233   2.786   0.872   9.831  0.3118  0.1367 -0.1337
 1183W        W 5234   8.624   2.489  13.705  0.2841  0.3242  0.2463
 1184W        W 5235   3.001   8.595   4.510 -0.1160  0.2062 -0.0833
 1185W        W 5236   3.860   6.188  11.848  0.0047  0.0083  0.1210
 1186W        W 5237   0.785   9.540   4.943 -0.3161 -0.2423  0.0924
 1187W        W 5238   1.428   8.359   4.201  0.1203  0.0082 -0.1101
 1188W        W 5239   6.692   9.004  12.903  0.1209  0.0561  0.2079
 1189W        W 5240   3.429   0.869  10.199  0.2948 -0.0964  0.0437
 1190W        W 5241   7.457   0.231   2.812 -0.0819  0.1277  0.1155
 1191W        W 5242   3.249   8.355  10.906  0.3649  0.1524 -0.0088
 1192W        W 5243   6.963   4.279   2.928  0.1687  0.0417  0.1505
 1193W        W 5244   1.994  10.055   0.936  0.1490 -0.0487 -0.2329
 1194W        W 5245   8.859   6.770   4.343 -0.3607 -0.3858 -0.0094
 1195W        W 5246   2.538   4.621   5.093 -0.1121  0.2623 -0.0854
 1196W        W 5247   4.770   1.283   9.251 -0.0212 -0.2109  0.0379
 1197W        W 5248   5.200   5.012  10.998 -0.1630  0.1033  0.2052
 1198W        W 5249   9.962   6.144  11.432 -0.1970 -0.0768 -0.0343
 1199W        W 5250   3.317   7.624   4.576 -0.0855 -0.0448  0.1798
 1200W        W 5251   4.570   8.248  13.262  0.1122  0.1282 -0.2814
 1201W        W 5252  10.057   2.804   1.166  0.1368 -0.2886 -0.0279
 1202W        W 5253   7.493   4.832   2.410 -0.2702 -0.0652  0.0746
 1203W        W 5254   4.475   4.097   2.744 -0.0245  0.1290 -0.3464
 1204W        W 5255   7.946   1.471   0.645  0.0987  0.0454  0.0011
 1205W        W 5256   4.177   2.521   0.530  0.0874 -0.0359 -0.0224
 1206W        W 5257   3.960  10.067   3.308  0.0078 -0.0545 -0.0371
 1207W        W 5258   7.036   9.236   4.732  0.0185 -0.1901  0.0829
 1208W        W 5259   1.102   7.999   5.114  0.1226  0.0016  0.0245
 1209W        W 5260   5.789   2.473   9.635 -0.1004  0.1759 -0.0317
 1210W        W 5261   3.095   4.385   2.116 -0.0659  0.1706 -0.2544
 1211W        W 5262   5.950   8.790   1.895  0.2158  0.3568 -0.2057
 1212W        W 5263   2.056   5.173   9.247 -0.1569  0.2756  0.0720
 1213W        W 5264   9.111   5.678  11.153  0.0004  0.4121 -0.3834
 1214W        W 5265   8.966   0.498   0.568  0.0937  0.0777  0.1863
 1215W        W 5266   4.281   3.359   9.449 -0.3065  0.0271 -0.2002
 1216W        W 5267   9.100   8.495   2.169  0.2466  0.2689 -0.1113
 1217W        W 5268   1.500   4.260  12.728  0.2711  0.2034  0.2461
 1218W        W 5269   4.167   2.138   2.327  0.0093  0.0553  0.2071
 1219W        W 5270   8.912   1.500   0.379 -0.2730  0.0864 -0.0023
 1220W        W 5271   1.249   0.575  11.345  0.1899 -0.1654 -0.4336
 1221W        W 5272   2.947   1.338   8.921  0.2339 -0.3418  0.0410
 1222W        W 5273   1.026   9.034  11.989  0.3556 -0.2414  0.2745
 1223W        W 5274   6.009   1.671   9.926 -0.1758  0.0331  0.0699
 1224W        W 5275   7.858   4.154   0.670  0.0092 -0.1843  0.0076
 1225W        W 5276   6.454   1.666   3.329  0.0973  0.1288 -0.0134
 1226W        W 5277   2.128   1.526  12.129 -0.1047 -0.0259 -0.0448
 1227W        W 5278   3.981   4.327   2.362 -0.2154 -0.0705 -0.0267
 1228W        W 5279   1.719   8.553   1.592  0.1251  0.3646 -0.1836
 1229W        W 5280   6.256   2.659   9.584 -0.4044  0.2004 -0.1966
 1230W        W 5281   2.717   0.427   4.340  0.1123  0.0123 -0.0805
 1231W        W 5282   5.249   5.408   9.506 -0.0293  0.1707  0.1916
 1232W        W 5283   7.917   4.066  13.268  0.2049  0.0931 -0.1719
 1233W        W 5284   5.563  10.156   3.446  0.0131  0.0289  0.0161
 1234W        W 5285   0.970   6.568   8.685  0.1715  0.3306 -0.3105
 1235W        W 5286   3.325   3.787   1.955  0.3199  0.1945 -0.1978
 1236W        W 5287   5.202   2.317   2.051 -0.2035 -0.2398  0.0000
 1237W        W 5288   3.293   2.189   4.767  0.0466  0.1651  0.0242
 1238W        W 5289   2.561   5.812   1.777 -0.1068 -0.0938 -0.1420
 1239W        W 5290   4.325   7.114   1.325  0.2917 -0.0140 -0.1562
 1240W        W 5291   6.117   0.935  11.059 -0.0849 -0.0214  0.0139
 1241W        W 5292   5.978   7.794  12.453 -0.3625  0.0518 -0.0384
 1242W        W 5293   6.415   3.432  11.813 -0.3398  0.1049  0.1042
 1243W        W 5294   1.414   3.900  13.386 -0.0093  0.0117 -0.0593
 1244W        W 5295   7.037   7.389   1.849 -0.1100 -0.0046  0.0657
 1245W        W 5296   1.995   6.532  11.949  0.0934  0.1967 -0.1015
 1246W        W 5297   4.664   9.542  10.727 -0.1482 -0.1938  0.1343
 1247W        W 5298   4.066   0.652  11.948 -0.2603  0.1640  0.1361
 1248W        W 5299   8.720   7.212   1.470  0.0468 -0.1746 -0.3007
 1249W        W 5300   4.681   9.101   5.811  0.1459 -0.1856  0.4119
 1250W        W 5301   5.944   4.781   2.278  0.3789  0.0743 -0.2596
 1251W        W 5302   8.602   2.239   1.665  0.0312  0.2217  0.3669
 1252W        W 5303   9.771   5.780   4.569  0.0570  0.2942  0.0316
 1253W        W 5304   6.294   4.581   3.876 -0.1103 -0.2242  0.0844
 1254W        W 5305   9.904   4.943   9.993  0.0160  0.2690  0.1505
 1255W        W 5306   5.731   1.096   2.534  0.1859  0.1409  0.0962
 1256W        W 5307   0.752   3.607   2.857  0.2330  0.4175 -0.1791
 1257W        W 5308   6.768   8.346   0.785 -0.1127 -0.0370  0.1663
 1258W        W 5309   6.198   7.838   3.207 -0.0174 -0.2191 -0.1208
 1259W        W 5310   1.711   1.943   4.608  0.1795 -0.0581 -0.1067
 1260W        W 5311   0.450   4.791  11.607  0.0442 -0.2089  0.0650
 1261W        W 5312   7.526   3.150   0.695 -0.0654  0.1218 -0.0611
 1262W        W 5313   3.080   3.648   4.795 -0.1917 -0.0144 -0.3118
 1263W        W 5314   7.084   8.118   9.599 -0.1150 -0.0188  0.1390
 1264W        W 5315   0.137   6.591   9.231 -0.1120  0.1458 -0.4218
 1265W        W 5316   4.333   9.914  13.905 -0.1270  0.3379  0.1201
 1266W        W 5317   9.443   6.426   4.971  0.0829  0.0638 -0.2868
 1267W        W 5318   4.458   0.016  13.050 -0.0664  0.2122  0.2143
 1268W        W 5319   7.269   8.304  10.846  0.0553  0.2213 -0.2476
 1269W        W 5320   2.974   0.809  10.328  0.0215  0.0615 -0.1230
 1270W        W 5321   5.098   7.442   3.737  0.3539  0.0192 -0.1929
 1271W        W 5322   6.055   1.263   4.548  0.2021  0.0353 -0.0059
 1272W        W 5323   7.872   8.808   1.491 -0.1161 -0.1703  0.2331
 1273W        W 5324   6.762   4.641   9.776  0.3921  0.1331  0.0362
 1274W        W 5325   2.698   9.853   3.177  0.0193  0.1846  0.4104
 1275W        W 5326   7.270   7.336   0.255 -0.1549 -0.0367 -0.2520
 1276W        W 5327   6.430   4.828  10.428 -0.0856  0.0342 -0.0844
 1277W        W 5328   5.094   1.204   4.165 -0.2541 -0.1904 -0.2438
 1278W        W 5329   2.346   0.886   1.631  0.0779 -0.0814  0.1294
 1279W        W 5330   8.182   2.857   1.992 -0.1672 -0.0306  0.0413
 1280W        W 5331   5.547   1.440   4.469  0.0645 -0.1408  0.0371
 1281W        W 5332   2.696   2.891  11.895  0.0477  0.0728 -0.0453
 1282W        W 5333   5.889   4.480   9.540  0.0183  0.0174 -0.0818
 1283W        W 5334   7.264   5.896  10.082  0.3927  0.1093  0.0792
 1284W        W 5335   0.996   1.685  12.774  0.0389 -0.1385 -0.2687
 1285W        W 5336  10.091   8.235   9.816  0.7014 -0.1526 -0.2191
 1286W        W 5337   9.123   4.042  12.774  0.1024 -0.3856  0.1027
 1287W        W 5338   5.764   1.520  13.391 -0.0482 -0.2297  0.0871
 1288W        W 5339   9.958   6.339  10.984 -0.1668  0.0424  0.2779
 1289W        W 5340   6.266   1.701   4.870  0.2276  0.1021 -0.2605
 1290W        W 5341   5.724   3.512   9.838 -0.0754  0.1128  0.1831
 1291W        W 5342   4.062   4.830  12.035 -0.2772  0.1415 -0.1582
 1292W        W 5343   8.872   8.074  12.407  0.2721  0.1021 -0.0831
 1293W        W 5344   2.968   1.544  12.090 -0.0089 -0.3149 -0.0197
 1294W        W 5345   2.378   2.480   3.498 -0.1446 -0.1765 -0.2112
 1295W        W 5346   6.790   0.644  12.625 -0.0039 -0.0494 -0.1310
 1296W        W 5347   1.870   1.199  10.903  0.1208 -0.0445 -0.0710
 1297W        W 5348   1.497   7.457  11.892 -0.4135  0.0033 -0.2119
 1298W        W 5349   6.095   2.386  11.295  0.2742 -0.0857  0.0150
 1299W        W 5350   9.939   3.499  12.661 -0.2956 -0.0961  0.0417
 1300W        W 5351   9.143   5.525  11.903 -0.1074  0.0298  0.1258
 1301W        W 5352   8.128   7.398  13.963  0.2166 -0.2255  0.2603
 1302W        W 5353   3.278   9.403  10.019 -0.0339 -0.0841  0.2587
 1303W        W 5354   1.419   3.598   0.348 -0.0762  0.0268  0.0253
 1304W        W 5355   5.289   6.914  13.165 -0.1446 -0.1465 -0.2386
 1305W        W 5356   6.880   6.606   0.005 -0.1336  0.0264  0.2822
 1306W        W 5357   1.615   0.570   4.894  0.1403 -0.2768  0.0716
 1307W        W 5358   0.555   4.973   9.852  0.3645 -0.0097 -0.1526
 1308W        W 5359   2.657   7.867  12.210 -0.3471  0.2065  0.2985
 1309W        W 5360   4.712   9.303   2.255  0.3307 -0.1118 -0.2136
 1310W        W 5361   5.746   0.488  13.966 -0.4122  0.0521  0.1999
 1311W        W 5362   2.890   9.879   2.629 -0.0584  0.2161 -0.2401
 1312W        W 5363   3.627   4.586   2.960  0.1861  0.0822 -0.2670
 1313W        W 5364   5.926   8.311   3.241  0.2787  0.0319  0.1877
 1314W        W 5365   6.880   8.647   4.065 -0.0563 -0.0672 -0.3496
 1315W        W 5366   3.629   4.007   9.664 -0.0902 -0.2293  0.2543
 1316W        W 5367   7.518   0.691   1.265  0.0357 -0.0348 -0.0676
 1317W        W 5368   5.521   9.312  10.488 -0.0628 -0.3227 -0.2820
 1318W        W 5369   0.907   6.461   0.846 -0.0518  0.1522 -0.0829
 1319W        W 5370   9.892   4.284   4.985 -0.0463  0.0997  0.2104
 1320W        W 5371   0.911   6.267   1.708  0.0826  0.1838 -0.2920
 1321W        W 5372   3.877   7.117  13.207 -0.1896  0.2362  0.1338
 1322W        W 5373   7.368   1.431   1.414  0.1469 -0.1074 -0.1978
 1323W        W 5374   4.520   0.254  11.135  0.0249 -0.1080 -0.2122
 1324W        W 5375   0.497   4.884  12.915 -0.1518 -0.1450 -0.2314
 1325W        W 5376   7.598   8.516  11.159 -0.4660  0.1905  0.0032
 1326W        W 5377   6.048   8.069  11.232  0.0101 -0.1712  0.1306
 1327W        W 5378   3.259   6.015   0.067 -0.2309  0.1937 -0.1006
 1328W        W 5379   4.838   7.926   0.624  0.2445 -0.0980 -0.1118
 1329W        W 5380   6.286   0.265   1.737  0.1769  0.3684  0.0122
 1330W        W 5381   8.575   6.308   1.431 -0.2981  0.1377 -0.0160
 1331W        W 5382   7.330   6.425  10.444 -0.2174  0.0020 -0.0596
 1332W        W 5383   5.671   4.390   4.595  0.0990  0.3684  0.0111
 1333W        W 5384   8.109   4.793  13.350  0.0753  0.0904  0.1901
 1334W        W 5385   6.501   0.384   2.791 -0.0662 -0.1644 -0.0267
 1335W        W 5386   6.473  10.173   0.893  0.2353 -0.1310 -0.0405
 1336W        W 5387   2.898   7.153  11.249  0.1345  0.2808  0.0668
 1337W        W 5388   5.879   7.011  11.845 -0.2770 -0.2996 -0.0516
 1338W        W 5389   5.115   8.015  13.111 -0.1985 -0.1689 -0.1637
 1339W        W 5390   9.214   9.054   3.877  0.0402 -0.1606 -0.3430
 1340W        W 5391   8.211   8.068   1.957 -0.2481  0.0626  0.1071
 1341W        W 5392   1.576   7.168  11.044  0.1448  0.1493  0.2355
 1342W        W 5393   4.538  10.022   1.195  0.0358  0.0476 -0.2439
 1343W        W 5394   3.181   5.171   2.272  0.0100 -0.0756 -0.0719
 1344W        W 5395   9.705   8.392  11.781 -0.3674  0.1795  0.0367
 1345W        W 5396   1.822   8.870   3.504  0.1380  0.1686 -0.3364
 1346W        W 5397   0.829   3.362  11.679  0.4051  0.0639 -0.0907
 1347W        W 5398   4.960   8.310  10.426 -0.1286 -0.2289  0.1494
 1348W        W 5399   2.940   1.256  10.117  0.0969 -0.0766  0.1522
 1349W        W 5400   3.930   3.402  10.757  0.0218  0.1636  0.2254
 1350W        W 5401   4.003   2.724  10.176  0.3606  0.0761 -0.1874
 1351W        W 5402   6.931   9.156  10.154  0.0144  0.1492  0.0516
 1352W        W 5403   6.915   1.074   0.735 -0.0067  0.0360  0.3003
 1353W        W 5404   7.640   8.455   0.736  0.0353  0.0129  0.2410
 1354W        W 5405   9.594   4.352  11.281  0.0468  0.1570 -0.1754
 1355W        W 5406   1.279   5.906  13.591 -0.0125 -0.2645 -0.1991
 1356W        W 5407   4.665   6.696  10.234  0.0162  0.0127 -0.0733
 1357W        W 5408   9.315   7.205  11.393 -0.2224 -0.2847 -0.1388
 1358W        W 5409   3.105   3.556   3.897 -0.1604 -0.0737  0.2002
 1359W        W 5410   1.653   3.535   2.846  0.0956  0.3322  0.0360
 1360W        W 5411   7.509   8.021  13.702 -0.3224 -0.0582  0.3452
 1361W        W 5412  10.109   7.224  12.509 -0.2722 -0.1285 -0.0002
 1362W        W 5413   2.745   1.935   1.638  0.0598 -0.0668  0.0390
 1363W        W 5414   4.826   6.144   4.709 -0.0857  0.1389 -0.0264
 1364W        W 5415   2.259   5.069   1.528  0.2186 -0.2722  0.0310
 1365W        W 5416   2.867   4.123  12.445 -0.1417 -0.1786  0.0763
 1366W        W 5417   7.505   0.002   1.976  0.1223  0.1856 -0.2147
 1367W        W 5418   1.359   4.257   9.971 -0.0807  0.0647 -0.0442
 1368W        W 5419   2.634   6.845   3.675 -0.2953 -0.1914 -0.0018
 1369W        W 5420   0.032   5.685  11.818 -0.3594  0.4475 -0.0822
 1370W        W 5421   9.621   1.076  10.936  0.3082  0.0422 -0.0130
 1371W        W 5422   6.801   8.331  12.252  0.0844 -0.5646 -0.1254
 1372W        W 5423   5.072   3.865  13.957 -0.0232  0.0884  0.1536
 1373W        W 5424   4.529   2.563   9.336  0.2061  0.3261  0.2612
 1374W        W 5425   4.284   6.630   0.904 -0.2716 -0.0998 -0.0111
 1375W        W 5426   9.502   5.095  12.637 -0.1679 -0.0968  0.2673
 1376W        W 5427   0.961   1.152   2.776  0.0933 -0.0815  0.1032
 1377W        W 5428   0.482   7.605   2.199 -0.2947  0.1850 -0.0523
 1378W        W 5429   1.796   2.429  13.370 -0.0491  0.1587 -0.0774
 1379W        W 5430   4.199   4.205  11.998 -0.1462  0.0053  0.2259
 1380W        W 5431   5.373   5.616  10.805  0.1953 -0.0381  0.0375
 1381W        W 5432   6.806   2.945   3.257  0.1715 -0.2767 -0.0518
 1382W        W 5433   4.485   3.211   4.218 -0.0255  0.0675 -0.1596
 1383W        W 5434   7.759   9.463   3.709 -0.1970 -0.0418  0.0204
 1384W        W 5435   8.505   5.699   1.759 -0.0126  0.1097 -0.3051
 1385W        W 5436   3.091   0.242   0.354  0.0406 -0.2023  0.1768
 1386W        W 5437   2.599   9.500  11.857  0.2560  0.0115 -0.0442
 1387W        W 5438   2.384   8.700   2.998 -0.2787 -0.4869  0.1846
 1388W        W 5439   0.879   8.565  13.391  0.1190  0.0377 -0.2718
 1389W        W 5440   8.254   3.449   4.227  0.1595 -0.2752 -0.2665
 1390W        W 5441   5.158   9.303   2.110  0.1956  0.1044  0.1820
 1391W        W 5442   5.986   2.580   1.887 -0.0615  0.1071 -0.2274
 1392W        W 5443   7.252   9.021  11.370  0.2903  0.0499 -0.0607
 1393W        W 5444   7.605   2.639   9.938  0.0835 -0.0803  0.1742
 1394W        W 5445   0.939   1.293  11.215 -0.1800 -0.0486 -0.1683
 1395W        W 5446   7.993   0.688  11.435 -0.3203  0.0011 -0.0432
 1396W        W 5447   4.613   5.478   2.208 -0.2085  0.0518 -0.1188
 1397W        W 5448   4.948   2.420  12.010  0.1393 -0.0747 -0.1302
 1398W        W 5449   5.818   4.141  11.211 -0.2485 -0.0905 -0.2121
 1399W        W 5450   8.043   2.228   9.670 -0.1821  0.0606 -0.1553
 1400W        W 5451   8.196   4.582  10.762  0.0636 -0.1677  0.0182
 1401W        W 5452   8.395   4.885   4.024  0.0404  0.1021 -0.0789
 1402W        W 5453   9.222   5.305  13.957  0.2609  0.1083 -0.2681
 1403W        W 5454   9.148   7.194   4.402  0.1866  0.0776 -0.2477
 1404W        W 5455   1.937   0.080   4.963 -0.2694 -0.0775 -0.2039
 1405W        W 5456   3.676   1.291  13.676  0.2104 -0.0665  0.0098
 1406W        W 5457   9.138   9.985   4.156  0.1429  0.5611 -0.0023
 1407W        W 5458   9.444   8.881   2.551 -0.1528  0.0673 -0.1149
 1408W        W 5459   2.449   0.862   4.283  0.1912 -0.1529  0.5281
 1409W        W 5460   2.767   1.256   2.695 -0.2787  0.0425 -0.1089
 1410W        W 5461   9.441   6.105  12.846  0.1316  0.1269  0.1926
 1411W        W 5462   6.932   1.383   1.134  0.3044 -0.3812 -0.0365
 1412W        W 5463   3.082   3.556  11.446 -0.4157 -0.2888  0.0887
 1413W        W 5464   2.978   8.641   0.441 -0.1269 -0.1728 -0.1292
 1414W        W 5465   6.569   9.193  13.740 -0.2539 -0.2006 -0.1729
 1415W        W 5466   2.864   3.614   3.506  0.0942  0.0568  0.1392
 1416W        W 5467   3.019   7.848   9.754  0.3512  0.2187  0.0793
 1417W        W 5468   3.398   3.868  12.502  0.1262 -0.1590  0.3065
 1418W        W 5469   4.841   4.688   3.375  0.0169  0.2911  0.3491
 1419W        W 5470   3.720   2.128  12.522  0.1372  0.2244 -0.0278
 1420W        W 5471   9.100   9.668  12.215  0.2341 -0.2555  0.3913
 1421W        W 5472   1.391   8.688  10.637  0.3879 -0.0291 -0.2231
 1422W        W 5473   5.282   1.821   4.112 -0.0016  0.3046 -0.0398
 1423W        W 5474   0.741   8.837   1.966 -0.0193 -0.0729  0.0738
 1424W        W 5475   8.667   7.281  13.421  0.0282  0.0362  0.2588
 1425W        W 5476   3.656   1.170   3.148  0.0770  0.0551 -0.4917
 1426W        W 5477   4.328   4.242   9.332 -0.0693 -0.1818 -0.1683
 1427W        W 5478   9.873   2.005   1.950 -0.0435 -0.1100 -0.0824
 1428W        W 5479   8.671   0.003  12.236  0.1608 -0.0721  0.1674
 1429W        W 5480   1.707   9.606  12.275 -0.1175 -0.0615 -0.1399
 1430W        W 5481  10.127   5.906   3.180 -0.1004 -0.1533 -0.0080
 1431W        W 5482   9.513   2.263   0.042  0.1221  0.1157  0.3716
 1432W        W 5483   5.445   3.949   4.815  0.1185 -0.0497 -0.0533
 1433W        W 5484   9.597   3.843  12.952  0.0266  0.0279  0.1933
 1434W        W 5485   8.419   1.603  11.365 -0.2182 -0.0834 -0.0882
 1435W        W 5486   9.408   2.318   2.142  0.1752  0.0711  0.0223
 1436W        W 5487   2.016   6.701  11.400 -0.2710 -0.2654 -0.0560
 1437W        W 5488   5.336   0.850   9.082 -0.0509 -0.2422  0.1589
 1438W        W 5489   4.556   9.832  11.176 -0.3249 -0.3248  0.2606
 1439W        W 5490   3.508   4.591  10.455 -0.1996  0.0637 -0.2550
 1440W        W 5491   0.356   9.655   2.958  0.2288 -0.1811 -0.1192
 1441W        W 5492   5.200   9.659  10.848  0.0310 -0.4143  0.1284
 1442W        W 5493   2.616   0.809  13.888  0.0318  0.0302 -0.2387
 1443W        W 5494   4.173   8.106   2.924 -0.2297  0.0122 -0.0343
 1444W        W 5495   6.129   7.414  11.604  0.0189 -0.1558 -0.0302
 1445W        W 5496   8.748   0.958  12.188  0.2016 -0.0949  0.2972
 1446W        W 5497   5.508   5.292   1.522 -0.3640 -0.2023 -0.1293
 1447W        W 5498   8.422   8.499  10.122  0.1829 -0.1509  0.0208
 1448W        W 5499   7.020   4.698   3.820  0.1867  0.2070 -0.0865
 1449W        W 5500   2.316   5.671   0.377 -0.2128  0.1066  0.0247
 1450W        W 5501   7.023   8.135   3.325  0.0723 -0.1905  0.2213
 1451W        W 5502   2.427   3.552  13.774 -0.1399  0.1565  0.1794
 1452W        W 5503   4.501   4.852  13.855  0.0469  0.1380  0.2947
 1453W        W 5504   8.197   0.337  13.286  0.0183  0.1605  0.4454
 1454W        W 5505   0.528   8.287   4.374  0.2397  0.1645 -0.0931
 1455W        W 5506   8.500   7.705  11.789 -0.0290 -0.1307 -0.2857
 1456W        W 5507   0.873   2.957  13.201 -0.2006 -0.0581 -0.0555
 1457W        W 5508   6.509   4.336   1.487 -0.2344  0.1628 -0.0705
 1458W        W 5509   9.599   8.727  13.343 -0.0001 -0.1171 -0.0013
 1459W        W 5510   0.376   4.874   1.346 -0.1131 -0.0471  0.0857
 1460W        W 5511   2.950   1.464   1.223  0.0498 -0.0342 -0.1399
 1461W        W 5512   9.731   2.150  11.074  0.0063  0.0008  0.2572
 1462W        W 5513   5.286   3.895   2.226  0.2507 -0.2954  0.0150
 1463W        W 5514   5.381   9.008   2.585 -0.3241  0.1545  0.2486
 1464W        W 5515   4.377   3.104  11.033 -0.3028 -0.0967  0.1761
 1465W        W 5516   7.954   8.308  11.453 -0.0121  0.2463 -0.0817
 1466W        W 5517   2.732   3.924  13.893  0.1193  0.0413 -0.0091
 1467W        W 5518   9.987   6.548   5.116  0.2657 -0.0335 -0.1599
 1468W        W 5519   7.336   4.184   3.339 -0.0518  0.1233 -0.2822
 1469W        W 5520   7.871   6.138  12.596 -0.0100  0.1061  0.0333
 1470W        W 5521   1.181   9.229  11.417 -0.2506  0.2485  0.0976
 1471W        W 5522   2.709   8.453   1.964 -0.2645 -0.0471  0.1862
 1472W        W 5523   4.717   7.142   0.126 -0.2323  0.0198  0.1366
 1473W        W 5524   5.591   5.197   2.900 -0.0303  0.3594  0.1981
 1474W        W 5525   7.252   7.761  10.878 -0.0221  0.4545 -0.3044
 1475W        W 5526   0.637   4.231  11.859  0.2428 -0.0490 -0.1389
 1476W        W 5527   5.243   4.233  12.993 -0.0210  0.1782  0.2130
 1477W        W 5528   3.058  10.068  13.962  0.1103  0.2485  0.0790
 1478W        W 5529   3.702   7.517  11.805  0.0877 -0.0241  0.0012
 1479W        W 5530   1.645   8.143   2.718 -0.1192 -0.1302  0.0496
 1480W        W 5531   9.452   2.135   1.176  0.1195 -0.2654  0.1947
 1481W        W 5532   4.413   3.522  10.672 -0.2758  0.2041  0.0590
 1482W        W 5533   5.921   2.544   0.985  0.1651  0.1911  0.2969
 1483W        W 5534   5.346   7.256   3.371  0.1895  0.0816  0.2053
 1484W        W 5535   0.878   0.113   0.705  0.0593  0.0411 -0.0634
 1485W        W 5536   5.413   7.098  11.185 -0.1705  0.3469 -0.1663
 1486W        W 5537   6.360   5.127   9.908  0.2041 -0.0102 -0.1012
 1487W        W 5538   6.378   7.340   3.470 -0.0827 -0.0822  0.3062
 1488W        W 5539   3.578   1.586  10.565  0.1277 -0.0137 -0.0937
 1489W        W 5540   7.498   1.783  10.785 -0.0648 -0.0423 -0.0761
 1490W        W 5541   9.058   9.301   2.659 -0.3279  0.0884  0.1567
 1491W        W 5542   3.460  10.184   1.282 -0.0886 -0.2645  0.3483
 1492W        W 5543   7.859   8.443   4.319 -0.2133 -0.0657 -0.0062
 1493W        W 5544   8.858   3.675  11.850 -0.1098 -0.2214  0.0709
 1494W        W 5545   2.451   6.489  11.772 -0.0948  0.1507  0.0036
 1495W        W 5546   0.052   7.054   2.444 -0.0900  0.3948 -0.1197
 1496W        W 5547   0.543   5.953   1.414 -0.0078  0.2196 -0.2365
 1497W        W 5548   3.319   8.335   3.281  0.2887 -0.0647  0.1289
 1498W        W 5549   3.764   3.162  12.720 -0.0067  0.2673  0.0765
 1499W        W 5550   8.673   3.493   9.739 -0.0689  0.0263 -0.0363
 1500W        W 5551   6.914   7.243  11.400 -0.1795 -0.1900 -0.4859
 1501W        W 5552   6.394   6.238  12.909  0.1328 -0.0388  0.1074
 1502W        W 5553   1.054   3.062   1.564 -0.0984  0.1072 -0.4499
 1503W        W 5554   3.009   5.205   9.964 -0.1315  0.1636  0.0187
 1504W        W 5555   3.488   9.073  10.869 -0.1048  0.0053  0.0733
 1505W        W 5556   6.556   3.617   1.920  0.3526 -0.1657  0.3216
 1506W        W 5557   8.017   4.102   2.565  0.0783 -0.0363 -0.0584
 1507W        W 5558   1.498   4.268  11.606  0.0015 -0.3010  0.0034
 1508W        W 5559   8.278   0.854   0.564 -0.0546 -0.1113 -0.0262
 1509W        W 5560   8.548   7.138   4.464 -0.0790 -0.0758 -0.1061
 1510W        W 5561   6.388  10.056   3.680  0.3575  0.4588  0.2798
 1511W        W 5562   3.357   7.611   2.832 -0.2564 -0.1451 -0.1926
 1512W        W 5563   7.004   2.634  12.108 -0.1737  0.1416  0.1901
 1513W        W 5564   1.356   3.040  13.158 -0.1937 -0.2586  0.1527
 1514W        W 5565   7.988   4.799  13.963 -0.1261 -0.1162  0.3073
 1515W        W 5566   5.808   2.387  12.526 -0.0283  0.2471  0.1402
 1516W        W 5567   5.703   3.803   1.527  0.0848 -0.3518 -0.3329
 1517W        W 5568   1.196   1.517  12.131 -0.2929 -0.0120 -0.1179
 1518W        W 5569   8.810   3.204  10.830 -0.1034  0.4419  0.2809
 1519W        W 5570   0.598   6.127   9.973 -0.0079  0.2361 -0.1427
 1520W        W 5571   7.192   2.018   0.695  0.2318 -0.2548 -0.0799
 1521W        W 5572   0.611   7.171  12.828 -0.0539 -0.2081 -0.2215
 1522W        W 5573   2.401   6.364   4.385  0.0738  0.0568 -0.0001
 1523W        W 5574   3.561   4.686   9.032  0.1059 -0.3914 -0.0337
 1524W        W 5575   5.323   2.467   1.060 -0.1832  0.3312 -0.3983
 1525W        W 5576   5.135   7.544   4.657 -0.0953 -0.2134  0.0115
 1526W        W 5577   3.377   7.358   3.325  0.4111  0.2371 -0.1000
 1527W        W 5578   0.864   6.344   2.206 -0.3054 -0.1138 -0.0255
 1528W        W 5579   3.880   2.844   3.680  0.0149 -0.2653 -0.0622
 1529W        W 5580   6.323   3.455   2.738 -0.1937 -0.1294  0.3841
 1530W        W 5581   4.911   5.924   2.888  0.0057  0.0435  0.1059
 1531W        W 5582   1.759   4.984   9.674  0.0053  0.1039  0.1592
 1532W        W 5583   1.809   4.814   0.406 -0.2551 -0.0109  0.0786
 1533W        W 5584   1.346   5.684  10.351 -0.0107 -0.2459  0.0199
 1534W        W 5585   3.643   6.874  10.668 -0.0356 -0.1546 -0.3614
 1535W        W 5586   4.807   4.673   4.332  0.3687  0.1870  0.0960
 1536W        W 5587   3.831   9.124   2.605 -0.3277 -0.1161 -0.1758
 1537W        W 5588   0.815   2.454   0.450  0.3966  0.0314 -0.1332
 1538W        W 5589   1.716   9.249   1.926 -0.0518 -0.3060  0.2616
 1539W        W 5590   5.534   2.266   3.985 -0.0173  0.0511 -0.1418
 1540W        W 5591   4.727   8.603   0.985 -0.3188  0.3013 -0.1429
 1541W        W 5592   9.468   5.614   1.637 -0.0543  0.0782  0.0772
 1542W        W 5593   6.565   1.099  12.488  0.2293  0.1378 -0.0768
 1543W        W 5594   6.997   8.081   4.788 -0.1008  0.1339  0.1227
 1544W        W 5595   1.616   9.400  13.422 -0.1677  0.0798  0.1988
 1545W        W 5596   8.057   3.865   0.370  0.1235 -0.0280  0.0568
 1546W        W 5597   8.538   5.988  13.270  0.1161 -0.1090 -0.0135
 1547W        W 5598   7.843   8.194  12.282  0.0282 -0.1355  0.0337
 1548W        W 5599   3.178   2.679  12.449 -0.0295  0.0906  0.0435
 1549W        W 5600   5.919   8.116   4.097 -0.1299  0.0413  0.2561
 1550W        W 5601   3.807   3.017  11.032  0.3606 -0.3481 -0.2988
 1551W        W 5602   8.793  10.003  12.980  0.1733  0.1175  0.0790
 1552W        W 5603   1.094   0.117  13.232 -0.3268 -0.2547  0.0294
 1553W        W 5604   1.405   3.192   1.131  0.1293  0.1691  0.0135
 1554W        W 5605   4.143   5.814  11.871 -0.0417  0.0436  0.3483
 1555W        W 5606   4.331   1.330   1.157  0.1336  0.1849  0.0981
 1556W        W 5607   9.194   5.236  11.499  0.1159 -0.1472 -0.0744
 1557W        W 5608  10.114   7.191   0.040  0.2582  0.2509  0.2621
 1558W        W 5609   8.052   6.189   2.655 -0.3459  0.0662  0.0779
 1559W        W 5610   7.567   8.355   3.976 -0.0718 -0.0963 -0.1189
 1560W        W 5611   0.999   3.557   0.540  0.1784 -0.0194 -0.0033
 1561W        W 5612   9.741   6.721   1.306 -0.1434  0.1750  0.1312
 1562W        W 5613   6.816   4.201  11.836 -0.1694  0.1803 -0.1350
 1563W        W 5614   0.056   1.416   2.866  0.0834  0.0325  0.1292
 1564W        W 5615   4.622   0.479   0.184  0.1776 -0.0973  0.0846
 1565W        W 5616   1.433   3.998   4.576  0.0967 -0.0229 -0.2181
 1566W        W 5617   9.849   7.023   2.769  0.2000  0.0423  0.1273
 1567W        W 5618   2.743   0.180  12.305 -0.0304 -0.1115  0.2007
 1568W        W 5619   6.945   1.616   2.723  0.0124 -0.2680 -0.1969
 1569W        W 5620   6.273  10.081   1.372 -0.2674  0.1969 -0.0243
 1570W        W 5621   6.730   0.736   3.335 -0.1557  0.0668 -0.1549
 1571W        W 5622   3.728   2.196   0.597 -0.1538 -0.2913 -0.0884
 1572W        W 5623   8.816   0.030   2.084 -0.1014 -0.1549  0.4866
 1573W        W 5624   1.775   0.011  12.669  0.0450 -0.0432 -0.0128
 1574W        W 5625   2.268   0.199  12.488 -0.2394  0.1953 -0.2945
 1575W        W 5626   1.424   6.780  11.322 -0.0778 -0.0958 -0.1448
 1576W        W 5627   0.768   0.892   3.898  0.2517  0.3313  0.1062
 1577W        W 5628   6.687   9.783  11.743 -0.3777 -0.0219  0.1702
 1578W        W 5629   4.096   7.746   3.803  0.1547  0.0176 -0.0872
 1579W        W 5630   3.616   8.310  10.231 -0.3440 -0.2586  0.0885
 1580W        W 5631   3.160   1.528   2.446 -0.2987  0.1621  0.1344
 1581W        W 5632   2.419   0.513   9.971  0.1690  0.1639 -0.0271
 1582W        W 5633   5.897   9.880   3.794  0.0225  0.1206 -0.1892
 1583W        W 5634   6.245   4.004   2.745  0.2799  0.3935 -0.4321
 1584W        W 5635   4.978   6.097   0.527 -0.1303 -0.0019  0.2039
 1585W        W 5636   7.109   1.900  13.412  0.3031 -0.0147  0.2798
 1586W        W 5637   8.804   2.536  12.422  0.0526 -0.0734 -0.3447
 1587W        W 5638   1.424   1.547   4.483 -0.1088  0.1129  0.1996
 1588W        W 5639   8.111   6.997   2.794  0.2319  0.4312 -0.2594
 1589W        W 5640   8.457   4.279  13.486 -0.2539 -0.1432 -0.0094
 1590W        W 5641   0.582  10.047   1.027 -0.1405 -0.2799 -0.2576
 1591W        W 5642   4.193   8.897  11.393  0.0039 -0.0040 -0.0213
 1592W        W 5643   7.913   3.545   1.645  0.1885 -0.1807  0.0566
 1593W        W 5644   1.895   8.713   2.587 -0.1103 -0.1434  0.0056
 1594W        W 5645   6.897   3.844   1.566  0.0743 -0.0240 -0.0315
 1595W        W 5646   1.667   1.993  13.869  0.0939  0.0163 -0.1001
 1596W        W 5647   7.772   5.552   0.751  0.0702  0.0943  0.0995
 1597W        W 5648   6.009   6.233   5.254 -0.0209 -0.3664 -0.0034
 1598W        W 5649   0.330   9.685  13.704 -0.0071 -0.0218 -0.0501
 1599W        W 5650   4.463   6.393  10.565 -0.1176  0.2565 -0.0309
 1600W        W 5651   8.882   0.651   1.683 -0.1385  0.1885 -0.0487
 1601W        W 5652   7.195   1.863   1.244  0.2480 -0.1001 -0.1477
 1602W        W 5653   1.206   9.617   0.280  0.0356  0.3128  0.2070
 1603W        W 5654   5.334   5.769   2.096 -0.0112 -0.3833 -0.1295
 1604W        W 5655   6.331   8.495   0.433  0.0290  0.0948 -0.0330
 1605W        W 5656  10.064   3.997   9.628  0.1899 -0.1216 -0.0221
 1606W        W 5657   4.794   2.509   1.294  0.0969 -0.1330  0.2422
 1607W        W 5658   1.869   5.491   5.466 -0.2521  0.0666 -0.0561
 1608W        W 5659   6.429   6.528  13.337  0.2533  0.1802  0.1341
 1609W        W 5660   9.280   9.110  11.322 -0.1146  0.0547 -0.1131
 1610W        W 5661   6.372   1.012   3.882  0.1723 -0.0330 -0.0742
 1611W        W 5662   6.942   6.398   3.091  0.1159 -0.2331 -0.0986
 1612W        W 5663   6.349   6.762  12.714  0.0237 -0.0641  0.1246
 1613W        W 5664   1.255   3.498  13.008  0.0343 -0.0588  0.0872
 1614W        W 5665   2.279   9.103   5.381  0.2882  0.1849  0.2226
 1615W        W 5666   1.351   2.226   1.164  0.0046 -0.0238  0.2714
 1616W        W 5667   1.821   7.164   1.698 -0.0319  0.2922  0.1814
 1617W        W 5668   7.531   8.838   0.071  0.2776 -0.2655  0.1521
 1618W        W 5669   6.822   5.504   2.346  0.1213  0.2471  0.0666
 1619W        W 5670  10.167   3.454   3.097 -0.0298  0.0170 -0.1004
 1620W        W 5671   3.047   7.971   3.049  0.2243 -0.2036  0.0096
 1621W        W 5672   2.905   1.368  11.608 -0.2455 -0.0419  0.0935
 1622W        W 5673   7.521   7.217   9.622  0.2153  0.5456 -0.0018
 1623W        W 5674   0.881   6.697  12.849 -0.1685 -0.1835 -0.1503
 1624W        W 5675   5.020   4.752  11.895 -0.0402  0.2371 -0.0279
 1625W        W 5676   7.371   0.560   4.198 -0.2751  0.1313  0.1319
 1626W        W 5677   3.099   0.795  10.915 -0.2902 -0.2974  0.1659
 1627W        W 5678   5.643   9.353  12.198 -0.1126  0.0771  0.1027
 1628W        W 5679   8.056   7.557   1.988 -0.5550 -0.1450  0.0507
 1629W        W 5680   9.377   1.381   0.042  0.2245 -0.0123  0.2825
 1630W        W 5681   4.248   8.318  13.653 -0.1066 -0.0635 -0.3129
 1631W        W 5682   3.960   3.964   0.607 -0.0546  0.2540  0.1213
 1632W        W 5683   0.476   8.154  10.316  0.2130 -0.0860  0.0022
 1633W        W 5684   4.708   5.240  12.165  0.0355  0.1992  0.2438
 1634W        W 5685   8.394  10.062   1.851 -0.0727  0.1666  0.1424
 1635W        W 5686   6.144   8.903   2.605  0.1144  0.5624 -0.0064
 1636W        W 5687   3.270   5.418   1.303  0.0311 -0.0784  0.2822
 1637W        W 5688   8.441   7.943   4.772 -0.1184 -0.1016  0.1017
 1638W        W 5689   2.416   6.158  10.384  0.1757  0.0375 -0.0756
 1639W        W 5690   1.149   6.455   2.868 -0.0330  0.3656  0.2208
 1640W        W 5691   8.770   1.183  12.618  0.1271 -0.2474  0.3716
 1641W        W 5692   6.485   0.631   4.209  0.0876 -0.2160  0.1945
 1642W        W 5693   4.845   2.209   1.723 -0.1772  0.0427 -0.2164
 1643W        W 5694   8.020   1.874   0.913  0.1218 -0.0421 -0.3083
 1644W        W 5695   0.274   6.160  12.059  0.0955 -0.1172  0.1577
 1645W        W 5696   8.659   6.169  11.793 -0.2479 -0.0654 -0.0518
 1646W        W 5697   9.459   4.912   0.201  0.1505  0.2268  0.1521
 1647W        W 5698   3.581   1.661  12.763 -0.3646  0.1680  0.3016
 1648W        W 5699   8.559   7.579   1.800  0.0191 -0.0545  0.0713
 1649W        W 5700   1.805   2.415   4.316  0.0660 -0.3886  0.0579
 1650W        W 5701   0.313   7.878  11.634  0.0087 -0.3433  0.2279
 1651W        W 5702   0.894   7.433   2.900  0.2302  0.0776  0.1838
 1652W        W 5703   1.132   3.547   5.475 -0.1889  0.1468  0.1717
 1653W        W 5704   4.629   0.801   4.252 -0.0510  0.1781 -0.1149
 1654W        W 5705   6.818   0.697  11.655  0.0382 -0.1048  0.2244
 1655W        W 5706   9.194  10.020   1.315 -0.0318  0.0149  0.0786
 1656W        W 5707   8.051   9.107   0.614 -0.4296 -0.1972 -0.2247
 1657W        W 5708   4.223   5.958  12.368 -0.2848  0.0743  0.0113
 1658W        W 5709   5.743   0.021   4.185 -0.0531 -0.0166 -0.1017
 1659W        W 5710   3.787  10.057  12.239 -0.0374  0.0246 -0.0534
 1660W        W 5711   0.660   1.106   2.261 -0.5176  0.1449  0.1092
 1661W        W 5712   3.736   8.644  11.861  0.1736  0.4105  0.0951
 1662W        W 5713   8.576   7.088  13.855  0.3511  0.2432  0.2289
 1663W        W 5714   6.037   4.873  13.401 -0.1455  0.1352 -0.0592
 1664W        W 5715   2.545   5.734  13.822 -0.1555 -0.1056 -0.1123
 1665W        W 5716   5.128   6.471  10.460 -0.2885  0.0662  0.0075
 1666W        W 5717   6.083   6.742   0.158 -0.1093  0.1876  0.2551
 1667W        W 5718   8.843   8.532   1.198 -0.2057 -0.1009  0.2485
 1668W        W 5719   3.754   6.289   4.237  0.2112  0.1398  0.0590
 1669W        W 5720   9.319   0.258   3.940  0.4137  0.0229 -0.2378
 1670W        W 5721   5.065   2.567  10.766 -0.1130 -0.1790 -0.2250
 1671W        W 5722   4.768   6.701  13.246  0.2045 -0.2019  0.0149
 1672W        W 5723   7.364   6.055   0.756 -0.0393 -0.1932  0.1602
 1673W        W 5724   4.169   3.053  10.563  0.0749  0.2188  0.2395
 1674W        W 5725   1.172   1.451   9.309 -0.0099 -0.1305 -0.0363
 1675W        W 5726   3.491   2.791  11.651  0.1245 -0.2996 -0.0932
 1676W        W 5727   8.444   2.007   1.159 -0.2856 -0.1754 -0.0538
 1677W        W 5728   6.157   0.641   9.747 -0.0211  0.0393 -0.3554
 1678W        W 5729   4.831   0.714  13.759  0.0234  0.3689  0.3503
 1679W        W 5730   3.418   6.738   3.874 -0.0589 -0.1863  0.0611
 1680W        W 5731   1.899   3.892  13.452 -0.0149  0.2695  0.0899
 1681W        W 5732   7.873   9.978   3.984  0.0047  0.0386 -0.0549
 1682W        W 5733   9.227   4.083  11.741 -0.3143 -0.0126 -0.0905
 1683W        W 5734   0.960   3.525  10.090 -0.0737  0.1372  0.1852
 1684W        W 5735   4.490   2.544   5.059  0.1633  0.0523  0.0625
 1685W        W 5736   5.865   1.679  12.674 -0.0338  0.1405  0.1077
 1686W        W 5737   6.186   1.740  10.368 -0.1093  0.2037 -0.0999
 1687W        W 5738   9.667   6.118   9.405 -0.0445 -0.4152 -0.2367
 1688W        W 5739  10.183   0.954   0.335 -0.1339 -0.1773 -0.0445
 1689W        W 5740   8.174   9.257   2.939 -0.2594 -0.2960  0.2311
 1690W        W 5741   9.050   6.905  13.657 -0.1503  0.1287 -0.1567
 1691W        W 5742   1.247   1.581   0.720 -0.0218 -0.1617  0.1085
 1692W        W 5743   6.797   0.785   2.762  0.1746  0.0696 -0.0783
 1693W        W 5744   1.017   5.008   1.278  0.1830 -0.1513  0.0742
 1694W        W 5745   5.715   1.079   4.852 -0.0918  0.0820  0.3114
 1695W        W 5746   1.604   0.745  10.919 -0.1850  0.1089  0.1173
 1696W        W 5747   5.129   3.619   1.256 -0.0570  0.0278  0.1739
 1697W        W 5748   5.466   2.487   2.834 -0.0519  0.0966 -0.1188
 1698W        W 5749   6.374   4.198   1.016 -0.1417  0.3016  0.4139
 1699W        W 5750   6.877   4.610  10.694  0.1660 -0.0146  0.1079
 1700W        W 5751   5.669   5.697   8.996 -0.2748 -0.0832 -0.0732
 1701W        W 5752   5.512   0.055  10.202  0.1048 -0.2337 -0.0647
 1702W        W 5753   6.980   6.523   1.560 -0.0749  0.0365 -0.2232
 1703W        W 5754   7.713   7.654   3.344  0.2761  0.1023  0.3014
 1704W        W 5755   3.484   6.307   3.680  0.3548  0.1395 -0.0990
 1705W        W 5756   8.979   5.400   1.388 -0.1162  0.0315  0.2028
 1706W        W 5757   5.317   2.797  11.900  0.1901  0.3695  0.0357
 1707W        W 5758   0.247   6.167  11.048  0.3276  0.0602 -0.1343
 1708W        W 5759   2.035   2.309  13.930  0.1805 -0.3035  0.1534
 1709W        W 5760   6.006   5.666  13.891 -0.0314  0.0790  0.2914
 1710W        W 5761   7.596   2.051  11.718  0.0155 -0.1547 -0.3523
 1711W        W 5762   1.615   6.952   2.243 -0.0369 -0.1522 -0.0502
 1712W        W 5763   2.322   4.843   0.095 -0.3223  0.3656 -0.1428
 1713W        W 5764   2.994   5.888   2.519  0.2136 -0.1182  0.0743
 1714W        W 5765   9.257   3.005   1.020  0.0774  0.0007  0.1990
 1715W        W 5766   0.832   6.621   4.020  0.4678 -0.2791 -0.0038
 1716W        W 5767   7.719   7.035  12.945  0.0934 -0.1408  0.0024
 1717W        W 5768   9.209   9.723  10.531  0.1002 -0.3370 -0.2750
 1718W        W 5769   3.712   9.451  10.596 -0.4936 -0.0362  0.0582
 1719W        W 5770   4.073   1.524   3.266 -0.2347 -0.0084  0.0814
 1720W        W 5771   9.352   7.247  10.557 -0.0802  0.0072  0.0503
 1721W        W 5772   9.565   8.839  12.531 -0.0728  0.2143 -0.0459
 1722W        W 5773   8.528   0.659  11.220  0.0798 -0.1579 -0.1102
 1723W        W 5774   4.286   7.479   4.262  0.3723 -0.2634  0.2664
 1724W        W 5775   7.497   3.236  13.885 -0.0040  0.1615 -0.1817
 1725W        W 5776   1.989   2.177  10.335 -0.4782  0.1644 -0.1824
 1726W        W 5777   0.949   1.771  10.968  0.1393 -0.0586  0.1591
 1727W        W 5778   2.340   6.374  13.108  0.3396  0.1478 -0.3051
 1728W        W 5779   9.217   7.163  13.292  0.1316 -0.0340 -0.3297
 1729W        W 5780   5.762   2.575  11.789  0.1611  0.0404  0.1438
 1730W        W 5781  10.046   2.232  10.086  0.3197 -0.1441  0.0077
 1731W        W 5782   2.765   4.755   9.830 -0.2220  0.0476 -0.1292
 1732W        W 5783   6.610   7.791   1.804  0.0137  0.0646 -0.3133
 1733W        W 5784   7.091   1.059   3.419 -0.2404  0.0238 -0.0065
 1734W        W 5785   3.446   5.079   3.958  0.1859 -0.0810 -0.1932
 1735W        W 5786   6.269   9.675   2.939 -0.2477  0.2655  0.3716
 1736W        W 5787   3.608   7.735   3.823  0.0420 -0.1053 -0.2723
 1737W        W 5788   8.915   0.538  12.423  0.0857 -0.0017  0.0353
 1738W        W 5789   1.980   8.076   1.563  0.0676 -0.1020  0.0452
 1739W        W 5790   3.744   5.735  12.325  0.0676 -0.0495  0.1631
 1740W        W 5791   4.693   5.695   0.345 -0.0381 -0.2861 -0.1773
 1741W        W 5792   3.745   2.522  13.577 -0.0490  0.2377  0.1081
 1742W        W 5793   5.010   1.074  12.883  0.3762  0.0093  0.0388
 1743W        W 5794   7.014   8.606   4.543 -0.0167 -0.2721  0.2276
 1744W        W 5795   7.884   9.642  13.085 -0.2633  0.0294 -0.2773
 1745W        W 5796  10.025   4.357  12.150  0.0085 -0.2112  0.0379
 1746W        W 5797   9.748   0.170   0.518  0.1270  0.3162 -0.1992
 1747W        W 5798   2.989   5.432   2.685 -0.4420 -0.1135  0.0654
 1748W        W 5799   2.503   3.631   0.891  0.1871  0.2376  0.1974
 1749W        W 5800   0.209   2.806   1.772  0.1486 -0.0272  0.1734
 1750W        W 5801  10.163   9.799   4.469  0.2505  0.4887  0.5945
 1751W        W 5802   0.169   4.712  10.116 -0.1519 -0.2177  0.3212
 1752W        W 5803   0.146   5.262   9.645 -0.0879  0.0859 -0.2879
 1753W        W 5804   9.067   9.709   2.397 -0.1470  0.1542 -0.2519
 1754W        W 5805   7.677   0.005   9.874  0.1415 -0.0012  0.0838
 1755W        W 5806   8.026   8.700   0.914  0.0677 -0.1335  0.0692
 1756W        W 5807   9.511   9.486   2.917 -0.0690  0.2151 -0.1151
 1757W        W 5808   9.026   0.064  13.459  0.1216  0.1360  0.3651
 1758W        W 5809   0.120   7.027  10.760 -0.0234 -0.0042 -0.4066
 1759W        W 5810   9.086   4.820  12.269 -0.0687 -0.1516  0.0014
 1760W        W 5811   1.008   0.707   2.275 -0.0529 -0.0397  0.1192
 1761W        W 5812   2.944   3.247   3.049 -0.0850 -0.1622 -0.0894
 1762W        W 5813   3.240   6.721  13.515 -0.0526  0.1638  0.0201
 1763W        W 5814   7.614   4.798  13.575  0.2505  0.1078  0.3108
 1764W        W 5815   4.213   4.564   3.791 -0.0479  0.0529 -0.3128
 1765W        W 5816   3.053   3.783   2.374 -0.2663  0.5015  0.0234
 1766W        W 5817   4.575   5.900   9.687  0.2187  0.1672 -0.1388
 1767W        W 5818   2.438   0.075  10.762  0.2268  0.2932  0.0124
 1768W        W 5819   9.226   4.838   3.702  0.0886 -0.1273  0.1146
 1769W        W 5820   4.325   6.895  13.006 -0.0975  0.3433  0.0421
 1770W        W 5821   1.549   0.173  11.219 -0.2739 -0.0239  0.0054
 1771W        W 5822   9.108   6.439  12.428 -0.0919  0.1715 -0.0806
 1772W        W 5823   0.476   2.077   4.586  0.1532 -0.2266  0.2302
 1773W        W 5824   8.658   6.739   3.865 -0.2836 -0.0721 -0.1552
 1774W        W 5825   8.142   7.584  11.059 -0.0175 -0.2732  0.1512
 1775W        W 5826   5.900   9.010   9.095  0.2313 -0.0010  0.2163
 1776W        W 5827   6.084   0.636  10.654  0.2263  0.1690 -0.1600
 1777W        W 5828   1.409   6.170   1.141  0.0333  0.1727 -0.1524
 1778W        W 5829   7.580   5.385   3.676  0.0130  0.0884 -0.1901
 1779W        W 5830   8.718   5.079   3.149 -0.0413  0.0268  0.0174
 1780W        W 5831   7.293   4.374  10.450 -0.0845 -0.0765 -0.0946
 1781W        W 5832   5.695   8.128   2.754  0.3590 -0.1150  0.1338
 1782W        W 5833   4.641   0.783  10.857  0.3122 -0.0709 -0.0892
 1783W        W 5834   4.979   9.256   3.527 -0.4148 -0.0385 -0.1753
 1784W        W 5835   8.863   2.771  11.563  0.2642  0.1351  0.0391
 1785W        W 5836   6.381   8.108   0.045  0.0784  0.1140 -0.0291
 1786W        W 5837   1.136   7.800  10.947 -0.2121  0.0059  0.1635
 1787W        W 5838   8.803  10.099  10.605 -0.1790  0.0847 -0.0326
 1788W        W 5839   4.335   2.934   1.958 -0.1284 -0.1661 -0.1077
 1789W        W 5840   7.276   3.881   2.887 -0.2590 -0.1126  0.1884
 1790W        W 5841   1.537   4.131   0.280 -0.2088 -0.1681  0.0397
 1791W        W 5842   8.509   2.654   3.207  0.4476  0.0302 -0.1345
 1792W        W 5843   5.059   8.879   0.318 -0.2155  0.2245  0.2154
 1793W        W 5844   2.801   1.359   0.213  0.2234 -0.0368 -0.0431
 1794W        W 5845   4.149   9.617  10.938 -0.1041 -0.1406  0.1209
 1795W        W 5846   2.626   5.074   2.892  0.0809  0.1048 -0.1470
 1796W        W 5847   3.084   8.257   0.777 -0.0308 -0.1495  0.1933
 1797W        W 5848   9.708   0.461   1.146  0.1716  0.2556  0.0883
 1798W        W 5849   6.513   2.438  12.069  0.0856 -0.3092 -0.1202
 1799W        W 5850   8.753   4.262   0.890  0.0223 -0.2793  0.1549
 1800W        W 5851   3.335   3.703   9.903 -0.0278  0.0671  0.2151
 1801W        W 5852   4.123   0.570  10.977 -0.0466 -0.2509 -0.1532
 1802W        W 5853   2.561   5.513  13.363  0.0347  0.3302 -0.0891
 1803W        W 5854   8.906   3.138  13.819  0.1540  0.3503  0.1672
 1804W        W 5855   7.457   9.666   1.892 -0.2914 -0.1438 -0.2102
 1805W        W 5856   6.629   2.681   9.992 -0.0667 -0.0079  0.0310
 1806W        W 5857   4.880   2.070   9.921 -0.0319  0.2462 -0.2531
 1807W        W 5858   4.218   2.556  10.745 -0.0979  0.0716 -0.1810
 1808W        W 5859   4.231   2.732   5.524 -0.0475  0.0443  0.1793
 1809W        W 5860   2.001   4.303  12.314  0.2369 -0.2122 -0.1379
 1810W        W 5861   3.686   5.178   2.132  0.3997  0.0363  0.0474
 1811W        W 5862   3.591   5.010   0.136 -0.2883  0.0011 -0.0135
 1812W        W 5863   9.576   6.031  12.322  0.2691  0.0859 -0.1618
 1813W        W 5864   5.132   8.277  13.603  0.0684  0.1115  0.0089
 1814W        W 5865   2.268   8.465  12.797 -0.0224 -0.1972 -0.0745
 1815W        W 5866   1.576   9.455   9.333 -0.3794  0.2387  0.0422
 1816W        W 5867   2.539   6.824  11.418 -0.1085  0.3736  0.0680
 1817W        W 5868   9.754   1.334   1.049 -0.1264 -0.4352 -0.0181
 1818W        W 5869   5.755   0.468   4.462 -0.0047  0.1419 -0.0394
 1819W        W 5870   7.726   0.730   1.730 -0.0554 -0.0626  0.4052
 1820W        W 5871   4.510   4.022  10.709  0.2147  0.3223  0.2461
 1821W        W 5872   1.021   1.879  13.688  0.1564  0.0180  0.0786
 1822W        W 5873   5.941   7.613  13.874 -0.0055  0.0177  0.2109
 1823W        W 5874   4.913   2.960  11.115 -0.3643  0.3661 -0.1948
 1824W        W 5875   4.548   0.436   1.741  0.3321  0.0208 -0.0525
 1825W        W 5876   9.134   0.588  13.256 -0.0080 -0.0793 -0.3735
 1826W        W 5877   7.461   3.694   1.540  0.4422  0.0755  0.2267
 1827W        W 5878   5.831   9.100   2.246  0.4274 -0.0299  0.0755
 1828W        W 5879   9.624   5.527  12.106  0.0799  0.1034 -0.0270
 1829W        W 5880   2.052   7.849   2.050 -0.1996 -0.0008 -0.2104
 1830W        W 5881   6.299   0.647  12.735 -0.1967  0.2131 -0.0295
 1831W        W 5882   1.154   7.697  12.156 -0.1273  0.3218  0.1100
 1832W        W 5883   5.360   1.924  10.124  0.0430 -0.0455 -0.0770
 1833W        W 5884   3.247   5.967  10.217  0.0966  0.0502 -0.2032
 1834W        W 5885   5.531   3.001   3.339 -0.1369 -0.4714 -0.2380
 1835W        W 5886   7.440   2.779   3.351  0.1402 -0.1088 -0.1990
 1836W        W 5887   0.384   8.515   1.912  0.1129 -0.1581 -0.1356
 1837W        W 5888   1.487   2.444  13.755  0.0736 -0.1062 -0.2027
 1838W        W 5889   9.644   2.133   3.786 -0.0520 -0.0080 -0.1262
 1839W        W 5890   9.397   7.408  11.825  0.0429 -0.1864 -0.0948
 1840W        W 5891   2.069   9.576  10.742  0.0115  0.0186 -0.3074
 1841W        W 5892   9.745   5.410   0.131 -0.1324  0.1987 -0.5716
 1842W        W 5893   6.410   0.099   9.806  0.2359 -0.1051  0.3528
 1843W        W 5894   2.256   1.400  13.951 -0.0904  0.0393 -0.0221
 1844W        W 5895   1.297   8.592   3.751  0.3510 -0.0209 -0.1405
 1845W        W 5896   5.681   3.670  11.476  0.0076  0.1770 -0.0212
 1846W        W 5897   5.818   0.897  11.509  0.1281 -0.0914 -0.4967
 1847W        W 5898   6.734   5.154   9.559  0.1093  0.0009 -0.1180
 1848W        W 5899   9.039   2.136   3.014 -0.3912 -0.3160 -0.1899
 1849W        W 5900   4.449   6.152   2.754  0.1091 -0.1684  0.2122
 1850W        W 5901   7.176   5.768   0.106 -0.3018 -0.1430  0.1165
 1851W        W 5902   0.122   8.728   2.315 -0.0987 -0.0094  0.1576
 1852W        W 5903   1.043   6.920   2.750 -0.2300  0.0743  0.1426
 1853W        W 5904   0.619   4.650  11.154 -0.3641 -0.0278 -0.1967
 1854W        W 5905   7.159   8.225  12.565  0.0055 -0.0040 -0.1090
 1855W        W 5906   6.518   3.261  13.869  0.0240  0.0136 -0.2475
 1856W        W 5907   0.077   9.655  10.407  0.2506  0.1337 -0.6107
 1857W        W 5908   3.215   9.653   1.720  0.2738  0.1089  0.0014
 1858W        W 5909   4.470   6.216  11.930 -0.0158 -0.1132 -0.2678
 1859W        W 5910   3.604   0.868   1.046 -0.1279  0.0587  0.1470
 1860W        W 5911   6.763   9.977  12.809  0.1031  0.0838  0.3734
 1861W        W 5912   1.782   4.788   3.329 -0.0522  0.0154 -0.0271
 1862W        W 5913   5.478   2.759   0.658 -0.0433 -0.0014  0.1026
 1863W        W 5914   3.758   4.703  13.335 -0.1920 -0.0493  0.0952
 1864W        W 5915   9.288   9.895   2.893  0.0899  0.1745  0.1483
 1865W        W 5916   7.634   2.163   1.085  0.2835  0.2219  0.5206
 1866W        W 5917   0.166   8.287   4.037 -0.0798  0.1945  0.2702
 1867W        W 5918   1.827   0.097   4.006 -0.0027  0.0219 -0.1598
 1868W        W 5919   5.715   1.744  10.432  0.1131 -0.1162 -0.0148
 1869W        W 5920   5.383   3.259   1.474 -0.0075 -0.1280 -0.1091
 1870W        W 5921   2.350   6.168  12.142  0.1781 -0.1803  0.4489
 1871W        W 5922   1.264   5.145   2.619  0.1883 -0.1753 -0.1223
 1872W        W 5923   8.706   2.778   1.781  0.3001  0.0727 -0.2103
 1873W        W 5924   0.901   6.044  10.415 -0.0618  0.3084  0.2368
 1874W        W 5925   6.576   3.548   9.711  0.1638 -0.0197 -0.1269
 1875W        W 5926   0.916   6.027   0.327  0.1100 -0.4926  0.2283
 1876W        W 5927   6.629   9.835   9.540 -0.1201 -0.1605 -0.2205
 1877W        W 5928   7.698   7.452   0.719 -0.1203  0.1493  0.1641
 1878W        W 5929   4.838   5.566   3.695  0.2983  0.0866  0.1978
 1879W        W 5930   9.283   8.214   4.195 -0.0480 -0.2182  0.0336
 1880W        W 5931   0.726   7.371   0.579  0.0001  0.1027  0.0760
 1881W        W 5932   2.208   9.701   2.012  0.1488 -0.0617 -0.0177
 1882W        W 5933   9.927   5.655  11.353 -0.1701  0.0941  0.2168
 1883W        W 5934   5.330  10.143  13.300  0.0824  0.0390  0.2472
 1884W        W 5935   5.773   8.868  12.501  0.1603 -0.0845 -0.1236
 1885W        W 5936   2.625   2.878  10.149  0.1628 -0.0318  0.0067
 1886W        W 5937   7.319   9.699   0.635 -0.0915  0.1676 -0.3921
 1887W        W 5938   6.481   9.597   1.869 -0.1119 -0.0485  0.2152
 1888W        W 5939   4.242   8.703   1.711  0.1407  0.0166  0.1734
 1889W        W 5940   1.295   6.218   8.544 -0.1045  0.0106 -0.0325
 1890W        W 5941   2.824   0.862   1.837 -0.0114 -0.2472  0.2346
 1891W        W 5942   0.243   0.766   0.749  0.0240  0.0462  0.0636
 1892W        W 5943   3.521   4.929   4.633 -0.4554 -0.0699  0.0105
 1893W        W 5944   2.067  10.053  10.473  0.1210 -0.1113  0.1085
 1894W        W 5945   8.028   0.657   2.153  0.0948  0.1412 -0.0727
 1895W        W 5946   2.274   0.965   2.622  0.5548  0.0339 -0.1641
 1896W        W 5947   6.637   8.252   1.789 -0.1416 -0.2758 -0.0694
 1897W        W 5948   7.357   8.220  12.058 -0.2963 -0.4207 -0.1439
 1898W        W 5949   0.131   8.801   0.380 -0.1631  0.1819  0.0299
 1899W        W 5950   5.711   7.914   5.302 -0.1181  0.2762  0.0194
 1900W        W 5951   8.785   5.172   9.536 -0.2567  0.1490  0.0782
 1901W        W 5952   1.725   1.674   1.704  0.0527  0.0058 -0.1726
 1902W        W 5953   7.154   9.416   9.737  0.1394 -0.0847  0.2504
 1903W        W 5954   0.502   3.200   9.919 -0.0041 -0.2215  0.0533
 1904W        W 5955   4.392   7.474   2.287 -0.1706 -0.0131 -0.0876
 1905W        W 5956   8.997  10.148   3.171  0.0409 -0.0125 -0.0139
 1906W        W 5957   5.143   7.460   9.753  0.0638 -0.0225  0.2051
 1907W        W 5958   7.459   1.839   9.018  0.2328 -0.0597 -0.0986
 1908W        W 5959   5.720   6.372   9.539  0.0994 -0.0610  0.2296
 1909W        W 5960   4.502   0.827  11.318  0.0986 -0.1111 -0.0167
 1910W        W 5961   6.663   4.844   3.029 -0.4329  0.4961  0.4196
 1911W        W 5962   4.894   8.812   5.428 -0.1001 -0.0948 -0.0520
 1912W        W 5963   9.016   6.320   4.368 -0.0361  0.3564  0.1138
 1913W        W 5964   4.861   8.677  10.026 -0.2258 -0.1017 -0.4252
 1914W        W 5965   5.580   0.710  11.096 -0.1182 -0.1514 -0.1018
 1915W        W 5966   9.165   7.356   1.705 -0.0094 -0.1278  0.1690
 1916W        W 5967   7.883   5.078   9.189 -0.0684  0.1328  0.0335
 1917W        W 5968   6.195   6.408   2.413  0.0288 -0.0363  0.0025
 1918W        W 5969   6.196   0.691  13.802 -0.0641  0.0904 -0.2367
 1919W        W 5970   5.276   3.192   0.930 -0.2392 -0.3031 -0.1830
 1920W        W 5971   6.703   8.522  10.863 -0.1338 -0.0875  0.0926
 1921W        W 5972   7.261   5.708   2.491 -0.0602 -0.1374 -0.0452
 1922W        W 5973   2.743   5.483  12.322 -0.0603 -0.1697 -0.2771
 1923W        W 5974   5.572   2.360  13.148  0.0739  0.0218  0.0756
 1924W        W 5975   5.939   5.959   3.282  0.1453 -0.3929 -0.0686
 1925W        W 5976   4.393   4.238  11.185 -0.1743 -0.0771 -0.1726
 1926W        W 5977   4.499   5.500  10.823 -0.2540  0.5141  0.1166
 1927W        W 5978   4.735   2.118   2.827 -0.3153 -0.0860 -0.3054
 1928W        W 5979   2.722   7.854   3.923  0.0579  0.1281  0.0836
 1929W        W 5980   6.280   8.759   3.111 -0.1779  0.0687  0.2461
 1930W        W 5981   2.080   1.782  13.678  0.0396  0.3689 -0.1569
 1931W        W 5982   1.575   1.799  10.061 -0.0069 -0.0105 -0.1567
 1932W        W 5983   2.991   6.130   3.875 -0.1767  0.1460 -0.0867
 1933W        W 5984   4.767   5.459   9.750 -0.0078  0.3207 -0.0407
 1934W        W 5985   2.628   5.204   9.606 -0.1339  0.1620  0.2059
 1935W        W 5986   5.895   6.372  12.512  0.2770 -0.1014 -0.2889
 1936W        W 5987   8.189   6.241   0.220  0.0197 -0.0146  0.2372
 1937W        W 5988   3.905   8.262   1.689  0.2083  0.2104  0.0130
 1938W        W 5989   1.737   9.373  10.423 -0.2131  0.3252  0.0334
 1939W        W 5990   8.181   8.190   0.778  0.0792 -0.2006 -0.3186
 1940W        W 5991   0.836   4.085  10.408  0.0815  0.0534  0.0371
 1941W        W 5992   5.319   0.044   1.632  0.2791  0.0164  0.0478
 1942W        W 5993   3.156   8.123   4.701  0.1630 -0.0139 -0.1311
 1943W        W 5994   7.823   0.888  13.118 -0.0655 -0.0624 -0.5096
 1944W        W 5995   4.038   0.072   2.645  0.0138 -0.1245  0.1214
 1945W        W 5996   5.210   2.629  11.286  0.3002 -0.3051 -0.0482
 1946W        W 5997   5.153   5.113  10.070 -0.0953 -0.2330  0.0781
 1947W        W 5998   7.464   9.017   2.808 -0.2042 -0.0665 -0.0345
 1948W        W 5999   9.658   4.863   4.377 -0.0489  0.3077  0.4546
 1949W        W 6000   6.138   7.065   4.272 -0.4072  0.0917 -0.0274
 1950W        W 6001   2.100   8.147   4.813  0.0755 -0.0470  0.3352
 1951W        W 6002   3.908   9.814   8.905  0.0367  0.1109  0.1571
 1952W        W 6003   7.090   2.096   2.570  0.0792 -0.0231 -0.0456
 1953W        W 6004   5.511   4.283   0.578  0.0927 -0.3098 -0.3198
 1954W        W 6005   0.047   6.560  10.635  0.0355  0.1014 -0.0996
 1955W        W 6006   2.743   2.050  12.869  0.2864 -0.1552 -0.1359
 1956W        W 6007   5.203   9.680  13.229 -0.2691 -0.0319 -0.3196
 1957W        W 6008   1.008   0.874  13.687  0.0096 -0.0628  0.2028
 1958W        W 6009   7.844  10.163  13.095  0.0699 -0.1414 -0.1390
 1959W        W 6010   5.056   4.386  12.472 -0.1842  0.2189  0.0748
 1960W        W 6011   0.327   8.363   2.699  0.0916  0.0447 -0.1912
 1961W        W 6012   3.425   8.887   9.719  0.0130  0.0776 -0.0127
 1962W        W 6013   7.824   7.518  12.977  0.3142 -0.2223  0.1780
 1963W        W 6014   2.587   0.566   2.327  0.3640 -0.1780  0.0563
 1964W        W 6015   8.601   5.518  11.371 -0.1604 -0.0285  0.0656
 1965W        W 6016   9.693   3.908   9.992  0.1765 -0.2253 -0.1538
 1966W        W 6017   8.090   9.205  11.376  0.0530  0.2349 -0.0595
 1967W        W 6018   9.328   6.025   4.760  0.0254  0.0040 -0.1549
 1968W        W 6019   2.674   2.863   1.955 -0.0588 -0.2008  0.0732
 1969W        W 6020   6.448   5.489  12.694 -0.0639  0.1394  0.2523
 1970W        W 6021   6.720   2.794   9.530 -0.1345 -0.1774  0.0010
 1971W        W 6022   5.449   1.351  13.788 -0.1457 -0.0031 -0.2752
 1972W        W 6023   8.777   3.156  12.892  0.0982  0.2046  0.1597
 1973W        W 6024   7.075   5.098  11.074 -0.0059  0.5499  0.0723
 1974W        W 6025   7.025   8.887   0.238  0.2522 -0.0411  0.0965
 1975W        W 6026   2.396   7.371   2.012 -0.1897  0.0145 -0.0975
 1976W        W 6027   6.572   7.767   4.636 -0.2320 -0.0352  0.0980
 1977W        W 6028   0.177   3.872   1.315 -0.1798 -0.2407 -0.0467
 1978W        W 6029   0.104   9.073  13.530 -0.0939 -0.2527 -0.0808
 1979W        W 6030   7.795   0.593   3.231  0.0016  0.1700 -0.0967
 1980W        W 6031   4.231   0.782   3.195  0.3972 -0.1183 -0.1209
 1981W        W 6032   3.609   1.249   2.373 -0.1452  0.0361 -0.2645
 1982W        W 6033   5.639   9.208   1.338 -0.2212  0.1443 -0.1466
 1983W        W 6034   5.098   5.605   3.260 -0.0021  0.0611  0.2181
 1984W        W 6035   2.914   5.631   0.261  0.3567 -0.2231  0.1256
 1985W        W 6036   5.411   0.491  10.531 -0.2867 -0.1485 -0.0824
 1986W        W 6037  10.101   4.037  13.520  0.1648 -0.0111 -0.2077
 1987W        W 6038   2.931   8.721  13.828  0.0679  0.1235  0.1260
 1988W        W 6039   1.276   6.790  10.819 -0.2663 -0.4590 -0.1277
 1989W        W 6040   8.979   0.577   3.709  0.4115  0.1110 -0.2015
 1990W        W 6041   0.480   6.587   0.221  0.1602 -0.1749  0.0501
 1991W        W 6042   7.738   7.849   2.266  0.0656 -0.3155 -0.0849
 1992W        W 6043   2.376   1.981   3.765 -0.0314 -0.1505  0.0231
 1993W        W 6044   5.990   0.908   0.241  0.2141 -0.0069 -0.1511
 1994W        W 6045   3.843   9.724  12.581  0.4106  0.1383  0.0469
 1995W        W 6046   1.741   6.757  10.623  0.0734 -0.1540  0.2226
 1996W        W 6047   1.423   0.974   3.192 -0.1576 -0.1935  0.1214
 1997W        W 6048   2.555   9.522   2.753  0.2392 -0.1185  0.1060
 1998W        W 6049   2.792   2.538  12.863  0.3644 -0.2410 -0.1032
 1999W        W 6050   0.342   3.851  11.039 -0.3972 -0.1306  0.0420
 2000W        W 6051   3.997   8.466  13.169 -0.1610  0.1511  0.1408
 2001W        W 6052   8.067   8.842  12.622 -0.1696 -0.0584  0.1705
 2002W        W 6053   3.782   6.207   1.017  0.0266  0.0268 -0.2830
 2003W        W 6054   7.712   1.735   1.325 -0.0179 -0.0692  0.3415
 2004W        W 6055   4.525   1.287   0.656  0.1574  0.0382  0.1215
 2005W        W 6056   4.453   3.501   2.826 -0.2797  0.1925 -0.1466
 2006W        W 6057   6.211   0.365   3.227  0.3527  0.1945  0.3599
 2007W        W 6058   5.640   8.480  13.648  0.1980 -0.1470  0.1067
 2008W        W 6059   2.276   2.472   3.998  0.1296  0.1840 -0.0738
 2009W        W 6060   2.088   5.334  13.221  0.0244 -0.0136  0.1942
 2010W        W 6061  10.080   6.029   4.246  0.1445  0.2033 -0.0151
 2011W        W 6062   1.076   6.401   3.474  0.0044 -0.0191  0.1870
 2012W        W 6063   8.815   0.795  13.618 -0.0746  0.0435  0.0710
 2013W        W 6064   3.790   7.534   4.342 -0.2028 -0.0297  0.0324
 2014W        W 6065   3.734   3.618   4.182 -0.0577 -0.1579  0.0719
 2015W        W 6066   6.596   8.102   2.329 -0.2403 -0.0738 -0.1465
 2016W        W 6067   3.085   6.797   2.456 -0.0333 -0.1664 -0.0528
 2017W        W 6068   4.096   7.138  11.555 -0.1759  0.2666  0.3158
 2018W        W 6069   3.968   6.170   1.526 -0.1021 -0.4380  0.0647
 2019W        W 6070   2.024   9.388   9.100  0.0292 -0.0977 -0.0313
 2020W        W 6071   7.331   4.234   0.554 -0.3997  0.3708  0.0754
 2021W        W 6072   7.617   8.867   4.843  0.0854 -0.3501 -0.0226
 2022W        W 6073   0.051   8.766   9.572  0.1766  0.2871  0.1283
 2023W        W 6074   2.900   1.738   2.859  0.0449 -0.0746 -0.0651
 2024W        W 6075   3.837   4.874   4.228 -0.0561 -0.1568  0.1835
 2025W        W 6076   0.874   0.854  11.541  0.1210 -0.1478 -0.1298
 2026W        W 6077   6.491   1.441  11.043  0.0092  0.5000  0.2443
 2027W        W 6078   6.149   1.457   3.725  0.1103 -0.0217 -0.0711
 2028W        W 6079   7.966   5.652   1.657  0.0064  0.2382 -0.1165
 2029W        W 6080   9.574   9.534  13.840  0.1125 -0.1010 -0.0959
 2030W        W 6081   4.994   1.784   3.467  0.2884 -0.1007  0.2230
 2031W        W 6082   0.761   8.007  11.974 -0.0414  0.1862  0.3999
 2032W        W 6083   5.573   3.371   4.150 -0.2399  0.2168 -0.3777
 2033W        W 6084  10.071   7.149   4.806 -0.1603 -0.2489  0.0061
 2034W        W 6085   9.524   9.289  10.570  0.1385  0.2056 -0.0454
 2035W        W 6086   4.438   8.901   4.537 -0.1082 -0.1101 -0.1184
 2036W        W 6087   0.433   3.146   2.021 -0.1099  0.1478 -0.0051
 2037W        W 6088   1.125   7.915   1.643  0.0630 -0.0216  0.4434
 2038W        W 6089  10.073   9.586  13.392 -0.2969 -0.0360 -0.0224
 2039W        W 6090   8.777   8.531   4.147 -0.0342  0.4527 -0.0342
 2040W        W 6091   1.887   6.538   4.438 -0.1858  0.2502  0.1134
 2041W        W 6092   0.409   3.123   0.512  0.1356 -0.2166  0.1424
 2042W        W 6093   5.374   3.701  13.601 -0.1772 -0.0974 -0.0701
 2043W        W 6094   8.298   3.425   0.329  0.0751  0.4979  0.0410
 2044W        W 6095   9.642   6.446   9.821  0.0898 -0.2744  0.0501
 2045W        W 6096   1.465   8.163   1.446 -0.1719  0.2015  0.0129
 2046W        W 6097   2.834   9.184  12.756  0.0483 -0.0279 -0.0751
 2047W        W 6098   9.968   0.468  10.692  0.0726 -0.2925  0.1874
 2048W        W 6099   1.688   9.914   4.642  0.0944 -0.0024 -0.0442
 2049W        W 6100   0.740   2.977  13.726  0.0773  0.1147 -0.0383
 2050W        W 6101   8.169   1.174  10.418  0.0420  0.2390  0.2273
 2051W        W 6102   8.201   3.965   3.876  0.1181  0.4620  0.0589
 2052W        W 6103   1.413   7.118  12.270  0.3939  0.1906  0.0893
 2053W        W 6104   8.621   9.966  11.375 -0.0910  0.0244 -0.0401
 2054W        W 6105   1.847   9.266  11.832  0.1674  0.0126 -0.1585
 2055W        W 6106   1.924   0.499  12.987  0.2660 -0.2310  0.0138
 2056W        W 6107   8.155   6.814  12.986  0.3335  0.2243 -0.5310
 2057W        W 6108   8.827   6.854  10.564  0.0902  0.0852 -0.1144
 2058W        W 6109   8.652   8.608  13.353 -0.2832  0.0619  0.3016
 2059W        W 6110   0.311   0.345  10.638  0.0083 -0.0934 -0.3465
 2060W        W 6111   4.871   0.163  11.934  0.1449 -0.2794 -0.0720
 2061W        W 6112   8.052   9.272  11.866  0.1922  0.1641  0.0528
 2062W        W 6113   7.582   8.454   2.767  0.2865  0.1272  0.2785
 2063W        W 6114   8.499   4.741   1.880 -0.0172 -0.3022  0.3385
 2064W        W 6115   6.563   7.127   2.592 -0.2938 -0.5465  0.0145
 2065W        W 6116   4.923   5.142   1.548 -0.0689 -0.0894 -0.4359
 2066W        W 6117   3.317   3.239  11.101 -0.1793 -0.1190  0.2402
 2067W        W 6118   8.723   6.279   2.428  0.0092 -0.2404 -0.0134
 2068W        W 6119   1.373   7.336   2.004  0.0917 -0.1069 -0.1137
 2069W        W 6120   1.640   9.634   0.844  0.2485 -0.2130 -0.2355
 2070W        W 6121   6.702   6.302   0.446  0.0308 -0.1649 -0.0059
 2071W        W 6122   9.631   6.554   3.601 -0.0635  0.0829  0.1277
 2072W        W 6123   8.295   5.235   3.626  0.0423  0.4179  0.0796
 2073W        W 6124   9.163   6.823   5.165  0.2667  0.1807 -0.2474
 2074W        W 6125   7.498   4.169  12.764 -0.0985 -0.0639 -0.0653
 2075W        W 6126   5.178   3.046  10.552 -0.3159 -0.4135 -0.2005
 2076W        W 6127   6.315   0.717  12.187 -0.0602 -0.1918  0.0205
 2077W        W 6128   4.106   9.055   9.538 -0.0836  0.2044 -0.3153
 2078W        W 6129   3.978   8.570   3.397 -0.2346  0.2022  0.1651
 2079W        W 6130   0.846   1.464  10.585 -0.0574 -0.0347 -0.2157
 2080W        W 6131   0.697   3.851   0.076  0.0882 -0.0397  0.0745
 2081W        W 6132   0.075   6.256   3.740 -0.1029 -0.1328  0.0009
 2082W        W 6133   7.850   9.102   2.555 -0.2201  0.0610  0.1552
 2083W        W 6134   3.580   6.332  13.786  0.0277  0.2602 -0.2483
 2084W        W 6135   5.741   6.063  13.020  0.1957  0.2721 -0.1904
 2085W        W 6136   5.564   9.053   0.384 -0.0246 -0.3119  0.1279
 2086W        W 6137   1.140   5.517  12.397  0.0858  0.0230  0.0591
 2087W        W 6138   7.060   1.703   1.704 -0.0402  0.0840  0.2528
 2088W        W 6139   4.777   9.560   1.256  0.2275  0.0698  0.1727
 2089W        W 6140   8.414   4.284  12.518  0.2104 -0.0473 -0.4281
 2090W        W 6141   7.868  10.142  10.778 -0.1620  0.5412 -0.3379
 2091W        W 6142   5.337   9.741   3.540  0.2147 -0.0845  0.1401
 2092W        W 6143   4.029   5.613   1.688 -0.3763 -0.1016 -0.0214
 2093W        W 6144   5.329   2.388   9.922  0.1055  0.3828  0.1998
 2094W        W 6145   4.469   3.873   4.866 -0.0491  0.1976  0.2947
 2095W        W 6146   7.311   1.454   9.948  0.3306  0.2169  0.0758
 2096W        W 6147   6.427   8.674   1.800  0.3841  0.3768 -0.1449
 2097W        W 6148   1.089   4.794   9.936  0.1250 -0.0128  0.2436
 2098W        W 6149   9.959   6.578   2.805 -0.1745  0.0879 -0.3130
 2099W        W 6150   2.118   7.972  12.974 -0.1157  0.0202 -0.0998
 2100W        W 6151   5.309   2.096   1.471 -0.3684  0.1169 -0.1724
 2101W        W 6152   0.760   8.915  10.298 -0.1310 -0.0886 -0.0058
 2102W        W 6153   4.826   5.700  13.049  0.0426 -0.3092 -0.3763
 2103W        W 6154   7.414   3.716  13.736 -0.0626  0.1046 -0.2806
 2104W        W 6155   8.204   9.722  12.663  0.2014 -0.0735  0.0314
 2105W        W 6156   8.061   2.054   1.928 -0.1115  0.1556  0.0841
 2106W        W 6157   3.697   1.869   2.435  0.0360 -0.0985 -0.1203
 2107W        W 6158   0.985   2.480  12.166  0.1916  0.3929  0.2240
 2108W        W 6159   8.467   3.341   0.837 -0.1053  0.3724 -0.0556
 2109W        W 6160   1.188   6.822   3.200  0.0161  0.0457 -0.1883
 2110W        W 6161   0.382   6.669  12.159 -0.2739 -0.2467  0.2085
 2111W        W 6162   5.681   5.981  11.214  0.3303  0.0171 -0.2287
 2112W        W 6163   8.873   3.391  12.381  0.1603  0.0789  0.0167
 2113W        W 6164   0.899   3.007   2.687  0.1612 -0.2251  0.5219
 2114W        W 6165   5.646   9.273  11.732 -0.0346  0.2230  0.4199
 2115W        W 6166   4.071   1.658   3.835  0.1568 -0.2859  0.0405
 2116W        W 6167   4.755   5.346  11.581 -0.0222 -0.2555 -0.0653
 2117W        W 6168   4.343   5.655   2.564 -0.0575 -0.2094  0.2440
 2118W        W 6169  10.051   9.187  10.535  0.1603 -0.0864  0.2187
 2119W        W 6170   7.157   0.208   1.128  0.3214  0.1088 -0.0032
 2120W        W 6171   2.263   7.720  10.797  0.0100  0.0345 -0.3039
 2121W        W 6172   8.929   6.455   4.881 -0.1761 -0.2136  0.0367
 2122W        W 6173   6.116   9.088   1.189 -0.1280  0.1351 -0.3241
 2123W        W 6174   9.287   8.728   1.260 -0.2909 -0.0279  0.0004
 2124W        W 6175   1.221   3.281   3.657 -0.1973 -0.4525  0.0586
 2125W        W 6176   6.055   5.361   0.792 -0.0018  0.2340  0.2244
 2126W        W 6177   7.931   2.421  11.569  0.4732  0.1111 -0.2072
 2127W        W 6178   3.475   9.238   0.975  0.2591  0.2250 -0.2139
 2128W        W 6179   7.006   8.670   1.094 -0.2967 -0.2067 -0.0031
 2129W        W 6180   3.393   1.197   4.049 -0.1241  0.1394  0.1039
 2130W        W 6181   4.462   1.500   2.596 -0.1742  0.0866  0.0204
 2131W        W 6182   4.509   8.198  10.642 -0.2273  0.3268 -0.1822
 2132W        W 6183   7.329   8.145   1.750  0.3117 -0.1412 -0.2352
 2133W        W 6184   9.356   4.227  10.226 -0.0820 -0.3197  0.0120
 2134W        W 6185   3.124   0.112   2.766 -0.1963 -0.0623  0.0479
 2135W        W 6186   1.503   7.655   0.801 -0.3052  0.3292  0.3839
 2136W        W 6187   6.764   1.485  12.724 -0.0643 -0.0520  0.1691
 2137W        W 6188   6.558   8.150   3.087 -0.2715 -0.1771  0.4121
 2138W        W 6189   4.540   1.661   4.560 -0.2306  0.1344  0.3166
 2139W        W 6190   6.271   5.460   2.110  0.2359  0.0506 -0.1810
 2140W        W 6191   2.505   1.628   0.970 -0.1548  0.1774  0.0819
 2141W        W 6192   3.638   1.385   1.630 -0.1725 -0.1538 -0.1438
 2142W        W 6193   1.221   4.840   5.080 -0.2749  0.3664 -0.2785
 2143W        W 6194   0.171   7.657  13.685  0.1931 -0.1170  0.1174
 2144W        W 6195   9.267   5.569  10.635  0.0468  0.2740 -0.2255
 2145W        W 6196   0.414   6.912   4.473 -0.0977  0.1032  0.0912
 2146W        W 6197   0.912   1.965  11.958  0.1961 -0.0282 -0.0416
 2147W        W 6198   6.171   3.656  10.028  0.0222  0.2390 -0.0524
 2148W        W 6199   6.302   0.294  11.804 -0.1839  0.0472  0.0251
 2149W        W 6200   4.644   0.641   2.893 -0.3772  0.2960  0.1526
 2150W        W 6201   6.289   9.094  12.587 -0.1457  0.0325 -0.1577
 2151W        W 6202   5.366   9.973   4.009 -0.2553  0.0758 -0.0261
 2152W        W 6203   8.975   5.511   1.824 -0.1413  0.1098  0.1862
 2153W        W 6204   0.517   6.287   1.030  0.2597  0.0081  0.1782
 2154W        W 6205   7.111   5.209   0.190 -0.0867  0.0181  0.2285
 2155W        W 6206   5.011   0.677  13.290 -0.2463  0.0062 -0.3350
 2156W        W 6207  10.189   0.656  11.803  0.2373 -0.0242  0.1759
 2157W        W 6208   4.727   7.125   2.543  0.0601 -0.0654  0.1858
 2158W        W 6209   8.895   5.168   3.970  0.3621 -0.1461  0.1779
 2159W        W 6210   9.772   9.565   4.684  0.0807 -0.0844  0.2877
 2160W        W 6211   9.221   8.409  11.678  0.0818  0.0526 -0.0889
 2161W        W 6212   0.001   0.327   9.796  0.3581 -0.1357  0.1250
 2162W        W 6213   7.569   3.974  10.269  0.2531  0.1771 -0.0136
 2163W        W 6214   6.012   8.190  13.238  0.0490 -0.1720 -0.1170
 2164W        W 6215   2.134   9.245  11.105  0.1428 -0.0361  0.0332
 2165W        W 6216   1.930   8.386   3.676  0.1177  0.0027  0.3299
 2166W        W 6217   0.013   5.796  12.385  0.2119 -0.2161 -0.3661
 2167W        W 6218   4.024   3.838   9.316 -0.1713 -0.6265 -0.0627
 2168W        W 6219   6.805   6.341   9.158 -0.1802  0.2104  0.0315
 2169W        W 6220   2.426  10.046   5.056 -0.0170  0.1119  0.0919
 2170W        W 6221   2.512   2.818   4.249 -0.0106  0.1996 -0.0928
 2171W        W 6222   1.695   0.047  10.138 -0.1653 -0.0110 -0.1509
 2172W        W 6223   2.011   4.308  12.878  0.1446  0.2770 -0.0820
 2173W        W 6224   9.339   8.130   0.394 -0.0418  0.1825 -0.1431
 2174W        W 6225   4.884   0.758   1.421 -0.1978  0.0037 -0.0069
 2175W        W 6226   6.170   0.413  11.075  0.2828  0.1926  0.0438
 2176W        W 6227   3.344   1.169  10.690  0.0918  0.1153 -0.0798
 2177W        W 6228   3.681   5.988   0.482  0.0560 -0.1577  0.2451
 2178W        W 6229   6.571   0.708  11.123 -0.0031  0.0793 -0.0494
 2179W        W 6230   9.394   4.502   4.042  0.0292 -0.0637  0.0120
 2180W        W 6231   1.353   0.503   0.784  0.2519  0.0806 -0.0237
 2181W        W 6232   2.947   8.031  13.479 -0.0457 -0.1005 -0.1432
 2182W        W 6233   5.539   3.135  10.919 -0.2220 -0.1012  0.1401
 2183W        W 6234   8.922   5.109  10.492  0.1928  0.1047  0.0579
 2184W        W 6235   5.322   6.414   0.738 -0.0591 -0.0360  0.1289
 2185W        W 6236   8.079   4.355   0.160  0.1232 -0.2732  0.2885
 2186W        W 6237   0.789   2.847   2.220 -0.1637  0.0511 -0.1090
 2187W        W 6238   0.783   6.175  11.853 -0.0255 -0.2890  0.3734
 2188W        W 6239   4.156   1.021   2.366 -0.0275 -0.0315  0.0424
 2189W        W 6240   4.334   2.037   0.433  0.0121 -0.3702 -0.1644
 2190W        W 6241   1.807   8.700   4.824 -0.0211  0.0014  0.0500
 2191W        W 6242   6.212   6.465   9.325  0.1422 -0.1818  0.0593
 2192W        W 6243   8.338   5.929  10.029  0.0232 -0.0195  0.1442
 2193W        W 6244   8.101   8.074   0.155  0.1329  0.0124 -0.0696
 2194W        W 6245   2.791   6.328  11.458  0.0299 -0.1625 -0.0692
 2195W        W 6246   4.502   2.768  10.147 -0.1752 -0.0468 -0.2355
 2196W        W 6247   5.560   1.891  13.204  0.1971  0.1634 -0.2828
 2197W        W 6248   4.416   4.504   2.428  0.0830  0.0956  0.1835
 2198W        W 6249   2.126   1.461  11.614  0.1698 -0.3969  0.0565
 2199W        W 6250  10.004   8.890  13.060  0.0839  0.1074  0.0864
 2200W        W 6251   2.950   4.338  13.104 -0.0011  0.2291 -0.1345
 2201W        W 6252   0.590   9.972   3.293 -0.1764  0.4407 -0.2690
 2202W        W 6253   8.308   4.307  11.694  0.0921  0.0625 -0.1492
 2203W        W 6254   7.058   4.427   4.380 -0.0337 -0.0927  0.0033
 2204W        W 6255   9.374   7.853  13.846  0.0160 -0.2918 -0.3354
 2205W        W 6256   9.726   6.950  10.017 -0.1201  0.0473 -0.0176
 2206W        W 6257   7.013   4.070   2.367  0.0828 -0.0827 -0.1588
 2207W        W 6258   4.065   9.052   4.930  0.2089  0.1329 -0.3265
 2208W        W 6259   6.355   5.924   0.237 -0.2537 -0.1988  0.1621
 2209W        W 6260   8.959   7.515   2.132  0.5017 -0.3697  0.0996
 2210W        W 6261   3.139   6.945  10.722 -0.2434  0.0181  0.4076
 2211W        W 6262   1.397   8.353  12.422 -0.1664  0.2217  0.2147
 2212W        W 6263   5.471   8.817   3.725 -0.2840 -0.1128 -0.1868
 2213W        W 6264   4.255   1.010  11.689 -0.3576  0.3425  0.0347
 2214W        W 6265   3.013   2.466  11.419  0.0571 -0.1326 -0.1733
 2215W        W 6266   2.739   3.066  12.789  0.0527 -0.1810 -0.0960
 2216W        W 6267   8.069   7.053   2.241  0.1604  0.1175  0.3478
 2217W        W 6268   3.220   8.790  12.927  0.0338 -0.0479 -0.0245
 2218W        W 6269   0.992   2.114  11.336 -0.2460 -0.0399 -0.1905
 2219W        W 6270   7.053   9.943   0.313  0.2058  0.0250  0.5373
 2220W        W 6271   5.861   7.477   3.510 -0.6981 -0.2237  0.0161
 2221W        W 6272   2.610   4.755  13.438 -0.0072  0.0041  0.3176
 2222W        W 6273   3.425   8.668  10.498 -0.4084 -0.0378 -0.1559
 2223W        W 6274   4.186   3.674   3.696 -0.0651  0.0824 -0.0300
 2224W        W 6275   1.769   8.500  10.365 -0.1581  0.2293  0.0784
 2225W        W 6276   6.958   8.413   0.187  0.2932  0.0279 -0.2958
 2226W        W 6277   0.385   8.365  10.724  0.3222 -0.1622  0.0614
 2227W        W 6278   7.937   7.986  13.287 -0.1918 -0.1628 -0.2679
 2228W        W 6279   6.165   4.108  11.576 -0.0562  0.1461 -0.0349
 2229W        W 6280   8.447   4.812   2.813 -0.0515 -0.0082 -0.1764
 2230W        W 6281   1.094   6.864   2.221 -0.1225  0.0116  0.0872
 2231W        W 6282   7.674   1.910  12.248  0.2161 -0.1981 -0.2279
 2232W        W 6283   3.598   5.898   4.611 -0.1412  0.1560  0.0804
 2233W        W 6284   2.970   2.398   1.690 -0.0751 -0.0630  0.2458
 2234W        W 6285   7.774   0.397   9.563  0.0468  0.0829 -0.3677
 2235W        W 6286   3.015   0.549   2.562  0.2211 -0.1344  0.2248
 2236W        W 6287   3.023   3.567  12.743 -0.0064 -0.1894 -0.3656
 2237W        W 6288   3.442   6.912   0.483  0.0226  0.0806 -0.4506
 2238W        W 6289   6.129   7.810  12.872 -0.0459 -0.2045 -0.1337
 2239W        W 6290   9.554   5.236  10.179  0.1739  0.0832 -0.2325
 2240W        W 6291   7.365   2.873   0.302 -0.2014 -0.2732  0.2617
 2241W        W 6292   0.369   8.437   9.767  0.2016  0.0338 -0.2524
 2242W        W 6293   9.116   8.353  13.435 -0.2517  0.0143  0.0522
 2243W        W 6294   0.345   4.098   0.477 -0.0414  0.1500 -0.2040
 2244W        W 6295   1.744   2.916   0.543  0.1553 -0.1151 -0.0762
 2245W        W 6296   2.841   8.109   3.473 -0.3239  0.2401  0.0598
 2246W        W 6297   7.178   1.267   2.420 -0.0279 -0.1829 -0.0618
 2247W        W 6298   1.660   1.288  11.836 -0.2125 -0.1092 -0.1347
 2248W        W 6299   9.347   1.777   2.936 -0.2787 -0.0978 -0.2029
 2249W        W 6300   6.824   7.407  10.888  0.2467  0.1720 -0.0479
 2250W        W 6301   3.655   7.196   3.922  0.3420 -0.2711 -0.1344
 2251W        W 6302   9.691   3.179  13.563  0.0415  0.1259  0.0189
 2252W        W 6303   0.367   2.917   2.477  0.1126  0.0461 -0.1058
 2253W        W 6304   2.146   1.917   0.737  0.2132 -0.1107 -0.0850
 2254W        W 6305   0.512   9.371  10.307 -0.3526 -0.0358  0.1315
 2255W        W 6306   8.083   4.485   1.634  0.3779 -0.0061  0.2242
 2256W        W 6307   9.445   7.163   0.395  0.1188  0.1014 -0.1561
 2257W        W 6308   0.707   3.267   3.664  0.0926 -0.0912  0.1114
 2258W        W 6309   0.511   5.112   0.396  0.0821 -0.1279  0.3099
 2259W        W 6310   8.908   8.889  11.970 -0.3583 -0.0615  0.2392
 2260W        W 6311   9.659   5.290  11.138  0.0012  0.1059 -0.0770
 2261W        W 6312   3.385   9.549   0.582  0.0926 -0.1085 -0.0095
 2262W        W 6313   6.794   0.689  13.398 -0.2817 -0.1704 -0.1486
 2263W        W 6314   1.742   7.138  11.530 -0.1902 -0.1058 -0.3084
 2264W        W 6315   8.594   7.195  11.808 -0.3627 -0.0286 -0.0849
 2265W        W 6316   7.416   4.724  11.155 -0.4379 -0.0907  0.1351
 2266W        W 6317   3.060   8.796   5.796  0.2149 -0.1391 -0.0965
 2267W        W 6318   9.935   6.710   4.617  0.0427 -0.1330  0.5581
 2268W        W 6319   6.564   9.351   4.951 -0.0691 -0.1487 -0.0376
 2269W        W 6320   6.527   7.723  11.305 -0.2265 -0.0040 -0.0078
 2270W        W 6321   2.852   1.168  10.643 -0.0036  0.0605  0.1523
 2271W        W 6322   4.587   0.524   5.656 -0.3841  0.0129  0.1334
 2272W        W 6323   4.490   6.207   0.230  0.0231  0.0204  0.0420
 2273W        W 6324   6.596   1.511  10.545 -0.0820  0.0663  0.2257
 2274W        W 6325  10.082  10.028   9.858  0.0929  0.1141  0.2198
 2275W        W 6326   2.308   9.574   3.290  0.0001 -0.1055 -0.0085
 2276W        W 6327   2.838   8.547  11.109 -0.1204 -0.0364  0.2172
 2277W        W 6328   1.496   9.324  12.894  0.0525 -0.1910 -0.0698
 2278W        W 6329   5.414   5.983   3.097 -0.1120  0.1135 -0.0866
 2279W        W 6330   3.618   1.300  13.090 -0.0046 -0.0713  0.3150
 2280W        W 6331  10.123   2.970   2.171  0.0368 -0.0109 -0.0931
 2281W        W 6332   1.034   6.757  12.020 -0.1766  0.0997 -0.3040
 2282W        W 6333   2.414   2.279   1.745 -0.0758  0.1034 -0.1227
 2283W        W 6334   7.021   2.860   0.701  0.0319 -0.0529  0.0738
 2284W        W 6335   3.415   9.806   9.519 -0.0443  0.0149  0.5363
 2285W        W 6336   3.530   4.264   5.946 -0.0412 -0.1214  0.3222
 2286W        W 6337  10.002   9.692   9.487  0.1348  0.0278  0.1008
 2287W        W 6338   5.895   8.086   2.265  0.0757  0.4525  0.1057
 2288W        W 6339   0.624   4.142   2.961 -0.0878 -0.1521 -0.0635
 2289W        W 6340   1.019   4.650   0.228  0.4121  0.0685  0.0463
 2290W        W 6341   4.696   1.207   1.521 -0.2043 -0.0331 -0.1892
 2291W        W 6342   2.837   4.012  11.013 -0.0718  0.1148  0.1140
 2292W        W 6343   7.056   8.519  11.281 -0.1364  0.0284  0.1331
 2293W        W 6344   9.054   6.407   1.827 -0.3345 -0.1157 -0.3939
 2294W        W 6345   6.689   8.898  10.526 -0.1163  0.2252 -0.1381
 2295W        W 6346   9.324  10.065   0.499  0.1105 -0.1385  0.0618
 2296W        W 6347   0.310   6.727   3.919  0.2561 -0.1804  0.1441
 2297W        W 6348   4.724   2.061   8.548 -0.2828 -0.2827  0.1270
 2298W        W 6349   1.132   9.882   0.808  0.0358  0.0780  0.2681
 2299W        W 6350   3.925   8.958   1.352  0.0148 -0.2758 -0.1948
 2300W        W 6351   3.910   5.470  13.959 -0.2071  0.0209  0.1390
 2301W        W 6352   1.928   4.543   2.569 -0.1533 -0.1230  0.0490
 2302W        W 6353   7.855   7.877   1.645  0.0433 -0.2879 -0.0558
 2303W        W 6354   2.927   0.911   3.897  0.1026  0.1922 -0.0893
 2304W        W 6355   3.130   3.835   9.475 -0.1233  0.0550  0.1738
 2305W        W 6356   3.531   9.483   2.037 -0.0284  0.2379  0.2218
 2306W        W 6357   2.530   7.572   2.648 -0.0790  0.1325 -0.4892
 2307W        W 6358   6.243   6.798  12.179  0.0795 -0.1524  0.2914
 2308W        W 6359   6.098   6.318  11.334 -0.0765  0.0819 -0.1140
 2309W        W 6360   3.619   4.199  10.796 -0.5069  0.1787 -0.1451
 2310W        W 6361   7.191   5.615   1.974  0.5120 -0.1212 -0.1423
 2311W        W 6362   0.200   6.830   2.949  0.3251  0.5340 -0.1433
 2312W        W 6363   6.522   0.981   2.011  0.0541 -0.1747 -0.2641
 2313W        W 6364   4.090   6.488  10.215 -0.0864  0.2338  0.0697
 2314W        W 6365   1.515   6.880   1.341 -0.1114  0.0838 -0.2662
 2315W        W 6366  10.156   5.504   4.121  0.0650 -0.1879  0.0275
 2316W        W 6367   8.876   8.287  13.019  0.0957 -0.3954  0.0818
 2317W        W 6368   8.378  10.190  11.845 -0.1662 -0.3156 -0.1357
 2318W        W 6369   1.006   3.137  12.733  0.0310  0.3010  0.1191
 2319W        W 6370   1.803   0.538  11.428  0.1291 -0.1535 -0.0064
 2320W        W 6371   8.178   5.768   0.368 -0.1563  0.4706  0.0974
 2321W        W 6372   6.144   6.311   0.401  0.1761  0.1289 -0.0110
 2322W        W 6373   2.837   8.680  10.446 -0.0906  0.1286 -0.5369
 2323W        W 6374   8.207   8.530  12.217 -0.0374 -0.2405  0.0579
 2324W        W 6375   1.028   4.610   1.549  0.0438 -0.3355  0.0154
 2325W        W 6376   2.370   5.649  12.070 -0.3750  0.3963  0.0030
 2326W        W 6377   8.911   3.404   2.810  0.0216 -0.0516  0.0646
 2327W        W 6378   4.296   6.284   1.838  0.1231 -0.2565 -0.1101
 2328W        W 6379   8.659   2.226  10.862  0.0263 -0.1309  0.2284
 2329W        W 6380   5.903   0.052  11.855 -0.0443 -0.0797  0.1252
 2330W        W 6381   2.895   5.619   2.161 -0.1173  0.0573  0.0109
 2331W        W 6382   4.368   8.283   1.998 -0.0041  0.1290 -0.0377
 2332W        W 6383   9.534   6.532   1.883 -0.0393 -0.0768  0.0211
 2333W        W 6384   0.637   6.835   0.614  0.0904  0.0524 -0.2942
 2334W        W 6385   8.848   5.614  10.222  0.1071  0.1707 -0.1291
 2335W        W 6386   4.589   0.753   0.599  0.1696  0.0564 -0.0227
 2336W        W 6387   0.902   7.301  12.270  0.0435  0.2133 -0.0675
 2337W        W 6388   1.598   8.945  10.178  0.0343 -0.0310 -0.0057
 2338W        W 6389   3.126   9.860  11.454 -0.5061  0.0915 -0.0739
 2339W        W 6390   3.699   6.824   4.398  0.0930 -0.0266  0.1103
 2340W        W 6391   2.102   6.355   0.504  0.1467 -0.1730 -0.0080
 2341W        W 6392   4.804   1.583   9.919  0.3077  0.0218 -0.0899
 2342W        W 6393   9.968   5.477   9.968 -0.1596  0.0358  0.4426
 2343W        W 6394   0.592   9.295  11.325  0.0807  0.1451  0.0601
 2344W        W 6395   0.191   1.247   1.971  0.1772  0.2336  0.0583
 2345W        W 6396   8.641   9.355  12.666 -0.1418  0.0818 -0.2437
 2346W        W 6397   7.582   8.916   0.587 -0.0903  0.2024  0.1631
 2347W        W 6398   4.762   5.992   1.942  0.1831 -0.1769  0.4284
 2348W        W 6399   6.056   8.316   5.308  0.0923  0.1610  0.0959
 2349W        W 6400   3.064   3.387  10.228 -0.0524  0.1767  0.1076
 2350W        W 6401   6.398   5.732   3.101 -0.2046  0.0473  0.1088
 2351W        W 6402   2.478   9.843  10.056 -0.0605 -0.3182  0.0338
 2352W        W 6403  10.036   7.893   3.768  0.0859  0.0573 -0.4608
 2353W        W 6404   8.102   8.717  11.088  0.0235 -0.1983 -0.3276
 2354W        W 6405   5.640   6.172  12.110  0.0973  0.1239  0.3074
 2355W        W 6406   9.390   9.014   0.588 -0.1505  0.1620 -0.0253
 2356W        W 6407   9.370   2.175  10.721  0.3010  0.4302 -0.1093
 2357W        W 6408   0.501   6.443  13.522 -0.0228 -0.0034 -0.0690
 2358W        W 6409   0.908   1.918   0.491 -0.0179 -0.0402  0.0374
 2359W        W 6410   1.691   7.217  13.251 -0.3691  0.2203 -0.0651
 2360W        W 6411   2.809   5.032   1.485 -0.1788  0.3997 -0.2686
 2361W        W 6412   7.757   2.023   9.372  0.2472  0.1205  0.1784
 2362W        W 6413   8.034   7.095   4.447  0.0167 -0.2839 -0.2686
 2363W        W 6414   1.028   9.597  10.511  0.0572 -0.4612  0.1900
 2364W        W 6415   1.530   3.973   3.114  0.2848  0.0210 -0.1215
 2365W        W 6416   0.447   2.764   3.004  0.1662  0.2067 -0.1321
 2366W        W 6417   8.559   8.901  10.583 -0.1532 -0.0939 -0.0537
 2367W        W 6418   3.419   4.906   3.382  0.0560 -0.1179 -0.3637
 2368W        W 6419   1.061   8.533   9.480  0.0669  0.2422 -0.0022
 2369W        W 6420   5.940   2.912   2.255 -0.0723 -0.0306 -0.2713
 2370W        W 6421   5.910   1.329   0.985 -0.0271  0.4088 -0.0064
 2371W        W 6422   3.652   1.862   3.956  0.0309  0.2047 -0.0219
 2372W        W 6423   4.208   9.659   9.386  0.4250  0.0273 -0.3128
 2373W        W 6424   9.727   4.239  11.739  0.0203  0.1475  0.1152
 2374W        W 6425   1.670   8.097  10.058 -0.1066  0.0811 -0.0580
 2375W        W 6426   0.013   3.716  10.652 -0.0188 -0.1237 -0.0168
 2376W        W 6427   5.392   8.102   0.732  0.1601  0.2509  0.0398
 2377W        W 6428   1.352   6.109   0.105  0.0736 -0.1244 -0.0711
 2378W        W 6429   1.147   6.481  11.625  0.0513  0.1438  0.1203
 2379W        W 6430   5.058   1.894  11.965  0.1272  0.0038  0.0476
 2380W        W 6431   4.207   9.727  12.942 -0.3254 -0.1662 -0.1022
 2381W        W 6432   3.948   7.076  12.049  0.2191  0.1004 -0.0395
 2382W        W 6433   3.056   4.813  13.108  0.0467 -0.0126 -0.2935
 2383W        W 6434   8.334   8.572   3.865 -0.3036 -0.2683  0.1515
 2384W        W 6435   4.430   8.225   0.826 -0.0717 -0.2201  0.3255
 2385W        W 6436   2.649   0.841  11.016  0.0377 -0.0021  0.0107
 2386W        W 6437   4.987   9.036   0.912  0.0916 -0.1770  0.1431
 2387W        W 6438   4.380   0.261   4.215 -0.1717 -0.0460  0.2553
 2388W        W 6439   7.781   7.131   0.362 -0.1403  0.2272  0.3226
 2389W        W 6440   5.369   5.581   2.663  0.4704 -0.2095 -0.0082
 2390W        W 6441   9.200   1.484  12.841 -0.1680 -0.1660  0.0965
 2391W        W 6442   5.669   6.417   4.445  0.0418 -0.3156  0.3454
 2392W        W 6443   5.844   1.763   0.736 -0.0214 -0.1661  0.0914
 2393W        W 6444   1.573   7.760   1.762  0.3679  0.0156 -0.0539
 2394W        W 6445   9.956   6.091   2.738 -0.1534 -0.0113  0.0137
 2395W        W 6446   5.381   3.086   2.088 -0.0781  0.0360 -0.3363
 2396W        W 6447   4.876   3.737   8.623 -0.0500 -0.1901 -0.0110
 2397W        W 6448   8.206   1.867  11.031 -0.3723  0.0319  0.0050
 2398W        W 6449   5.362   0.250   3.862 -0.0223  0.0164 -0.0411
 2399W        W 6450   3.859   3.618  10.039 -0.0774  0.0257  0.0398
 2400W        W 6451   9.247   8.793  10.562 -0.1215  0.1466 -0.0162
 2401W        W 6452   2.439   8.830  10.861 -0.0427  0.0085 -0.3189
 2402W        W 6453   4.554   8.394   2.555 -0.0420 -0.0826 -0.1926
 2403W        W 6454   1.348   5.807   4.330  0.1430 -0.0447 -0.0026
 2404W        W 6455   2.454   4.408  13.880 -0.3237  0.2185 -0.0752
 2405W        W 6456   7.689   0.347   3.866 -0.0069 -0.3233 -0.1527
 2406W        W 6457   5.430   8.530   0.169 -0.0329 -0.0242  0.1403
 2407W        W 6458   3.223   0.323  10.143 -0.2382  0.0491  0.0592
 2408W        W 6459   1.811   7.346   2.754 -0.1560  0.0705 -0.1951
 2409W        W 6460   1.769   4.037   2.657  0.2088  0.0702 -0.1949
 2410W        W 6461   6.296   5.717   2.562 -0.2533  0.0004 -0.2930
 2411W        W 6462   3.283   2.964  10.509  0.0167 -0.0044  0.0755
 2412W        W 6463   7.537   7.866   4.765  0.2157  0.1194 -0.0223
 2413W        W 6464   9.147   4.482  10.633 -0.0586  0.1458 -0.0866
 2414W        W 6465   4.715   7.980   2.934  0.1977  0.2730 -0.0135
 2415W        W 6466   5.279   3.767   9.773 -0.0478 -0.0785  0.3019
 2416W        W 6467   8.382   5.178  12.135  0.1240 -0.1112 -0.1266
 2417W        W 6468   7.193   6.765   4.211 -0.1459 -0.1191 -0.2990
 2418W        W 6469   8.698   3.550   1.539 -0.2347 -0.4130 -0.2244
 2419W        W 6470   5.469   6.684   1.982  0.1693 -0.1883 -0.4059
 2420W        W 6471   8.174   3.113  11.747 -0.0245  0.0359  0.2068
 2421W        W 6472   8.962   5.874  11.616  0.2115 -0.0021  0.1723
 2422W        W 6473  10.110   4.827   1.191 -0.0516  0.3948 -0.0494
 2423W        W 6474   5.495   6.290   5.256 -0.1570 -0.3051 -0.0414
 2424W        W 6475   0.896   0.205  13.704 -0.3781  0.0480  0.0262
 2425W        W 6476   3.726   8.660  12.748 -0.1731 -0.0713 -0.0452
 2426W        W 6477   3.070   4.774   3.782  0.2538 -0.0856 -0.2412
 2427W        W 6478   6.617   3.831  11.527 -0.1865 -0.2638 -0.0769
 2428W        W 6479   0.306   5.424  12.140 -0.1322 -0.0464 -0.2235
 2429W        W 6480   0.142   5.796   2.373  0.2908 -0.0663 -0.0354
 2430W        W 6481   0.455   5.446  10.779  0.1832 -0.2051  0.4163
 2431W        W 6482   1.518   4.505   1.579 -0.2023 -0.0780  0.0894
 2432W        W 6483   7.709   6.807   2.925  0.3341 -0.1942 -0.1483
 2433W        W 6484   9.184   3.205  10.520  0.1305 -0.0740  0.1237
 2434W        W 6485   0.760   7.708   3.500  0.1419  0.1120  0.1774
 2435W        W 6486   3.827   8.087  13.518 -0.1740  0.0448  0.4023
 2436W        W 6487   8.214   9.677  12.092 -0.1487 -0.3337 -0.0265
 2437W        W 6488   3.757   8.007  12.848  0.0619 -0.2207 -0.1494
 2438W        W 6489   9.942   1.352   0.597 -0.0458  0.1989  0.2312
 2439W        W 6490   1.911   4.037   3.445  0.0302  0.2483 -0.1490
 2440W        W 6491   7.177   6.204   3.621  0.0261 -0.2794  0.0330
 2441W        W 6492   2.590   8.193   0.997  0.3978 -0.1920  0.1279
 2442W        W 6493   1.429   5.806  12.719 -0.3388 -0.1729 -0.0329
 2443W        W 6494   3.525   1.389  10.124  0.0071 -0.1987  0.0881
 2444W        W 6495   5.969   8.678   4.387 -0.0642 -0.1109  0.2087
 2445W        W 6496   2.603   1.010  12.975  0.1322  0.0710 -0.0186
 2446W        W 6497   5.779   8.156   4.568  0.3607 -0.1618  0.2264
 2447W        W 6498   8.275   3.124   9.614 -0.4048  0.0998 -0.0869
 2448W        W 6499   0.633   9.917  13.020  0.0641  0.4104 -0.0973
 2449W        W 6500   0.213   4.322   9.854 -0.0330  0.1036  0.4262
 2450W        W 6501   9.177   4.834  13.565  0.3011  0.1438  0.2454
 2451W        W 6502   2.108   3.024   5.060 -0.2512  0.4270 -0.0048
 2452W        W 6503   5.783   8.807  12.009 -0.0544  0.4262 -0.3232
 2453W        W 6504   4.094   9.145   0.372 -0.0787  0.2530 -0.1709
 2454W        W 6505   3.376   8.534   4.868 -0.2229 -0.2935 -0.5057
 2455W        W 6506   9.712   5.650   4.011 -0.0682 -0.1825  0.2473
 2456W        W 6507   1.659   0.136  10.647 -0.3519  0.0147  0.0261
 2457W        W 6508   5.435   7.160  10.061  0.0829  0.0267  0.0767
 2458W        W 6509   4.333   4.690  12.837  0.2398  0.0189 -0.1267
 2459W        W 6510  10.113   3.508  11.091  0.0704 -0.0562 -0.0859
 2460W        W 6511   0.589   0.339   1.065  0.0031 -0.1614 -0.3340
 2461W        W 6512   6.755   7.259   4.956  0.1899 -0.3504 -0.2067
 2462W        W 6513   2.756  10.089   0.725  0.3138  0.0666  0.1434
 2463W        W 6514   0.277   3.907   3.294 -0.1043 -0.1520  0.2391
 2464W        W 6515   1.497   4.449   2.883  0.1074  0.0991  0.2048
 2465W        W 6516   1.754   1.125   3.718  0.2091  0.0369  0.0106
 2466W        W 6517   3.168   5.237   0.055  0.1855 -0.0983  0.2827
 2467W        W 6518   0.287   7.913   8.819  0.1046 -0.1003  0.1171
 2468W        W 6519   5.582   4.818  10.153  0.0309  0.0448 -0.0441
 2469W        W 6520   8.419   9.820  10.718  0.1694  0.1404 -0.0227
 2470W        W 6521   6.896   3.883   4.382 -0.0727  0.1265  0.2927
 2471W        W 6522   4.317   2.754   3.426  0.2766 -0.1568  0.1597
 2472W        W 6523   2.899   8.477  12.106  0.0230 -0.1651 -0.2198
 2473W        W 6524   6.617   0.365  13.950 -0.1037  0.2189  0.0337
 2474W        W 6525   7.368   3.142  10.064  0.0334 -0.2396  0.0246
 2475W        W 6526   8.443   3.966  11.358 -0.5326 -0.4073  0.3581
 2476W        W 6527   1.379   8.116   0.437  0.2262  0.0091 -0.1017
 2477W        W 6528   5.821   9.360   3.776  0.1487  0.2790  0.1178
 2478W        W 6529   3.659   3.552  11.220 -0.0169 -0.1825  0.0628
 2479W        W 6530   1.355   1.057  12.216  0.1952  0.1084 -0.0661
 2480W        W 6531   5.050   9.817   5.286 -0.0931 -0.1336 -0.0807
 2481W        W 6532   5.982   1.696  13.811  0.1119 -0.2759  0.5873
 2482W        W 6533   0.746   0.543   1.539 -0.0959  0.0979 -0.1051
 2483W        W 6534   0.479   9.048  12.482  0.0449  0.1955  0.2861
 2484W        W 6535   9.369   5.443   0.514 -0.1033 -0.2717  0.0281
 2485W        W 6536   6.708   0.221   1.316 -0.3833  0.1627  0.0822
 2486W        W 6537   7.295   6.458  11.763 -0.2409 -0.2096  0.2454
 2487W        W 6538   8.622   6.265   4.048  0.3218  0.0298  0.1283
 2488W        W 6539   1.217   3.399  13.524 -0.0123  0.3088 -0.0850
 2489W        W 6540   4.107   0.479   0.116  0.0649  0.0787  0.0270
 2490W        W 6541   8.018   2.488   3.154 -0.1298  0.1603 -0.0153
 2491W        W 6542   2.372   2.227  12.568 -0.0466  0.0869 -0.0502
 2492W        W 6543   7.560   2.638   0.752 -0.2008 -0.0455 -0.5305
 2493W        W 6544   4.881   3.029   1.327 -0.0614 -0.2028 -0.0261
 2494W        W 6545   6.626   5.592   9.909  0.0234  0.1202 -0.0058
 2495W        W 6546   1.163   7.297  10.849 -0.0910  0.0493  0.1792
 2496W        W 6547   3.464   2.329   1.502 -0.2822  0.1181  0.2467
 2497W        W 6548   0.473   3.230  13.337  0.2269 -0.1434 -0.0185
 2498W        W 6549   9.971   4.051  10.906 -0.2674 -0.0194 -0.0902
 2499W        W 6550   9.439   0.564   0.716  0.0709  0.0158 -0.1148
 2500W        W 6551   6.215   1.203  13.919 -0.2312  0.3393  0.2807
 2501W        W 6552   5.625   2.894  12.840 -0.3214  0.3411  0.0249
 2502W        W 6553   2.673   1.287   3.957  0.0121 -0.1056 -0.1219
 2503W        W 6554   3.824   4.943  11.595 -0.0482  0.2455  0.1042
 2504W        W 6555   4.860   8.123   3.412 -0.0479  0.1148 -0.0086
 2505W        W 6556   7.979  10.077  10.293 -0.3218 -0.0388 -0.0291
 2506W        W 6557   5.891   0.535  12.000 -0.1579  0.2513 -0.0099
 2507W        W 6558   5.388   2.332  12.269  0.1596  0.0750 -0.2049
 2508W        W 6559   6.192   4.046   1.820  0.0336 -0.0817 -0.0026
 2509W        W 6560   7.451   2.429  10.384  0.2005 -0.2795 -0.1026
 2510W        W 6561   9.023   9.208  10.421  0.2076 -0.2606 -0.0184
 2511W        W 6562   8.696   5.017   4.430 -0.0793  0.3265  0.0226
 2512W        W 6563   9.412   6.298  11.545  0.0675 -0.1198 -0.3624
 2513W        W 6564   6.112   7.277   2.380 -0.3010  0.1953 -0.2500
 2514W        W 6565   9.977   5.696   1.633 -0.0805  0.2210 -0.0280
 2515W        W 6566   0.013   1.255  11.321  0.3066  0.2924  0.1183
 2516W        W 6567   5.256   0.047   2.161  0.1377  0.0196  0.1968
 2517W        W 6568   2.080   6.998  11.005 -0.2084 -0.0709  0.1172
 2518W        W 6569   8.007   1.884   2.394  0.2299  0.0526  0.2122
 2519W        W 6570   6.335   8.440   4.012 -0.0824  0.1593 -0.2408
 2520W        W 6571   9.877   3.708   1.161 -0.0373  0.0032 -0.0379
 2521W        W 6572   6.449   5.573   4.708 -0.1168  0.0242 -0.0268
 2522W        W 6573   6.981   9.945   3.438 -0.0729  0.2554 -0.0583
 2523W        W 6574   4.501   8.324  12.159  0.0907  0.0657  0.0173
 2524W        W 6575   3.366   2.564   0.023 -0.3011 -0.1178 -0.0283
 2525W        W 6576   5.482   2.039   3.583  0.1052  0.1220  0.0408
 2526W        W 6577   7.931   6.306   3.139  0.1501 -0.1804 -0.1554
 2527W        W 6578   4.369   3.782  12.259 -0.0399 -0.1046  0.2818
 2528W        W 6579   4.139   6.549   5.192 -0.2852 -0.1077  0.1320
 2529W        W 6580   8.577   3.251  12.013 -0.1359 -0.1059  0.0658
 2530W        W 6581   9.323   4.365   0.273  0.0126 -0.2913  0.0259
 2531W        W 6582   4.593   9.909   0.542 -0.0373  0.2713  0.1403
 2532W        W 6583   3.160   8.668   2.341 -0.1283  0.3117  0.4437
 2533W        W 6584   6.132   9.156  12.148 -0.1563 -0.2505 -0.0383
 2534W        W 6585   0.327   3.547  12.879 -0.1639 -0.0401  0.0590
 2535W        W 6586   0.314   5.916  10.457 -0.2031  0.0577  0.0838
 2536W        W 6587   9.816   7.149  10.466 -0.3009 -0.1496 -0.4825
 2537W        W 6588   0.162   4.571   4.047 -0.4533  0.2669  0.0593
 2538W        W 6589   1.619   5.419  12.489 -0.0751  0.0003  0.1106
 2539W        W 6590   7.112   2.972   1.210  0.0837  0.0732 -0.1643
 2540W        W 6591   9.411   7.572   2.297 -0.1153  0.0789  0.0037
 2541W        W 6592   8.382   4.631   0.870 -0.2108 -0.0921  0.0719
 2542W        W 6593   1.417   6.388  12.098  0.1036  0.3899  0.3487
 2543W        W 6594   7.654   3.131   4.148  0.1339 -0.1835 -0.3719
 2544W        W 6595   5.285   3.527   2.816 -0.2446 -0.1569 -0.0047
 2545W        W 6596   2.516   7.099   1.595 -0.2557  0.1476 -0.2333
 2546W        W 6597   1.667   5.772   9.137 -0.1773  0.0868 -0.2318
 2547W        W 6598   0.442   5.693   0.424 -0.0595  0.1546  0.2785
 2548W        W 6599   0.503   4.480   5.346  0.0253  0.1844 -0.2768
 2549W        W 6600   5.481   3.629   0.150  0.0302 -0.1456  0.2495
 2550W        W 6601   7.984   8.540  13.384 -0.0836 -0.4156 -0.0684
 2551W        W 6602   6.316   9.064   5.260 -0.0804 -0.0238  0.1242
 2552W        W 6603   1.226   6.470   5.541  0.2468  0.0988 -0.0677
 2553W        W 6604   1.806   0.064   2.710  0.1988 -0.1317  0.1417
 2554W        W 6605   7.089   4.607   2.349  0.0064  0.1714 -0.1481
 2555W        W 6606   3.356   6.804   3.313 -0.0501 -0.2478  0.0580
 2556W        W 6607   3.981   4.274  13.304 -0.4143 -0.0666 -0.0154
 2557W        W 6608   9.411   6.155  13.325  0.1639 -0.1612 -0.1812
 2558W        W 6609   8.146   6.813  13.858  0.1811 -0.1047  0.0520
 2559W        W 6610   1.361   7.403   1.479  0.0743  0.0947  0.1160
 2560W        W 6611   6.027   7.702   2.681  0.0370 -0.0964  0.2568
 2561W        W 6612   5.168   3.313   8.821  0.3738 -0.0044  0.0656
 2562W        W 6613   8.646   7.156  12.842 -0.0494  0.0503  0.0025
 2563W        W 6614   4.768   5.245  13.469 -0.0843  0.4116 -0.2278
 2564W        W 6615   7.423   0.198  10.967 -0.0452 -0.1220  0.0158
 2565W        W 6616   9.053   7.719  10.062  0.0052  0.1760  0.1712
 2566W        W 6617   7.146   4.993   9.793  0.0090  0.2405  0.2722
 2567W        W 6618   0.489   0.986   0.312 -0.0785 -0.0486  0.1793
 2568W        W 6619   1.481   9.194   0.491 -0.0702 -0.1420 -0.3080
 2569W        W 6620   7.732   4.425  10.807  0.2391  0.3191 -0.2746
 2570W        W 6621   1.232   1.520   3.313  0.0849 -0.1174 -0.0392
 2571W        W 6622   9.240   2.118  11.570  0.1534 -0.3122  0.1717
 2572W        W 6623   8.475   3.914  10.251  0.1888  0.0284 -0.0071
 2573W        W 6624   6.182   2.777   4.739 -0.1369 -0.0678  0.4398
 2574W        W 6625   4.651   3.731  11.800 -0.3363 -0.2382  0.1930
 2575W        W 6626   0.679   6.778   9.082 -0.0495  0.0244 -0.1602
 2576W        W 6627   7.013   3.617   9.921 -0.1831 -0.0163 -0.2803
 2577W        W 6628   4.532   7.110   2.994  0.0303  0.0797  0.0786
 2578W        W 6629   9.319   6.859   1.588  0.1096 -0.1582  0.0297
 2579W        W 6630   9.355   1.323   3.317 -0.0152 -0.1710  0.3500
 2580W        W 6631   9.199   9.207   1.027  0.2583  0.4218  0.2404
 2581W        W 6632   9.110   3.519   9.486 -0.1437  0.1763 -0.1320
 2582W        W 6633   9.432   8.280  10.757  0.1421  0.1554  0.0400
 2583W        W 6634   0.261   1.100   2.572 -0.0346  0.1466  0.2024
 2584W        W 6635   3.020   9.966  12.443  0.2365  0.3643  0.0121
 2585W        W 6636   5.538   5.787   1.628  0.5606 -0.0958 -0.0654
 2586W        W 6637   0.187   5.797   9.945  0.2253  0.0566 -0.1145
 2587W        W 6638   3.878   6.175  12.732  0.0834  0.1496  0.2143
 2588W        W 6639   5.324   1.396   3.774 -0.1675 -0.2776  0.0713
 2589W        W 6640   8.897   4.710   1.070 -0.3244 -0.1858 -0.1036
 2590W        W 6641   6.933   2.539  12.970  0.1843  0.0912  0.0627
 2591W        W 6642   6.365   4.999   2.158  0.3209  0.0473  0.0270
 2592W        W 6643   9.171   7.992   2.460  0.0165 -0.0064  0.0963
 2593W        W 6644   7.175   0.679   3.090  0.1318 -0.0169  0.0826
 2594W        W 6645   7.697   2.005   0.575  0.0450 -0.1264  0.0880
 2595W        W 6646   8.376   0.452   1.306  0.0009  0.1592 -0.0767
 2596W        W 6647   8.706   6.898  11.271  0.0280  0.1958  0.1818
 2597W        W 6648   0.883   6.673  13.840 -0.3315 -0.3353 -0.1643
 2598W        W 6649   4.309   2.303   9.752  0.4758 -0.1755 -0.0710
 2599W        W 6650   4.013   2.508   1.438  0.2294  0.0927 -0.0371
 2600W        W 6651   0.689   1.499  11.885  0.0228 -0.0542 -0.2325
 2601W        W 6652   6.522   6.999   0.427  0.0589  0.3047 -0.0109
 2602W        W 6653   5.056   9.500  10.374 -0.0303  0.2709 -0.0244
 2603W        W 6654   6.406   2.400   4.296 -0.0442 -0.1421  0.0776
 2604W        W 6655   1.226   3.860  13.894  0.1756 -0.0476 -0.0787
 2605W        W 6656   2.294   1.746   1.580 -0.3781  0.1340 -0.0220
 2606W        W 6657   3.918   7.825  12.212  0.1496  0.0218  0.2607
 2607W        W 6658   1.483   3.567   4.017  0.1871 -0.0583 -0.0482
 2608W        W 6659   7.292   8.430  13.815  0.0795  0.1135 -0.0342
 2609W        W 6660   8.766   6.033   3.527  0.1328 -0.0292  0.1288
 2610W        W 6661   2.010   1.973   3.351 -0.1318  0.2522 -0.0539
 2611W        W 6662   6.866   3.591  13.962 -0.0177 -0.1758  0.0886
 2612W        W 6663   4.208   1.819  11.662 -0.1162 -0.0739  0.0054
 2613W        W 6664   6.701   1.808   1.101 -0.3568 -0.0235  0.2586
 2614W        W 6665   8.892   7.286   2.613  0.0653  0.0771  0.0087
 2615W        W 6666   5.259   9.387   3.925 -0.2044 -0.1077  0.2336
 2616W        W 6667   9.016   6.338   0.579 -0.1748  0.2674 -0.0592
 2617W        W 6668   8.360   0.248  11.425  0.0844  0.0857  0.1624
 2618W        W 6669   7.594   6.995  10.367  0.0248  0.2235 -0.1498
 2619W        W 6670   1.873   6.032  10.854 -0.0681  0.2937  0.0848
 2620W        W 6671   9.886   4.402   4.130  0.0744 -0.0737 -0.0586
 2621W        W 6672   7.851   5.708  13.333 -0.2071  0.2060 -0.1081
 2622W        W 6673   4.779   9.561   4.829 -0.2351  0.1402  0.0927
 2623W        W 6674   4.311   8.238   4.621 -0.0607 -0.4910  0.0668
 2624W        W 6675   6.723   1.560  13.238 -0.1653  0.2898  0.1623
 2625W        W 6676   0.609   5.596  10.161  0.0989  0.2916  0.0430
 2626W        W 6677   9.953   0.775  11.250  0.1152  0.2360 -0.0252
 2627W        W 6678   2.691   3.788   5.105 -0.0035 -0.3225  0.2164
 2628W        W 6679   1.903   7.376   2.249 -0.0487  0.0486 -0.1567
 2629W        W 6680   3.890   8.448  11.382  0.2653 -0.1365  0.0354
 2630W        W 6681   7.035   6.927  11.910 -0.0663 -0.0400  0.1347
 2631W        W 6682   7.099   6.516   2.113  0.2885  0.0881  0.2836
 2632W        W 6683   2.743   9.332   5.671  0.0297 -0.0234  0.0868
 2633W        W 6684   1.596   4.807  13.485  0.0912 -0.1932 -0.3608
 2634W        W 6685   4.632   1.205   4.627 -0.1143  0.0394 -0.1206
 2635W        W 6686   6.749   3.799   0.942  0.1081 -0.0403 -0.0842
 2636W        W 6687   1.376   0.279  11.752  0.1037 -0.0751 -0.1342
 2637W        W 6688   6.527   5.228   1.029 -0.0796 -0.1288 -0.2785
 2638W        W 6689   4.248   0.651   9.811  0.0531 -0.0970 -0.1045
 2639W        W 6690   5.803   4.320   1.924  0.0376  0.4017 -0.1192
 2640W        W 6691   5.186   5.337  13.002  0.1598 -0.1820 -0.6331
 2641W        W 6692   0.287   4.592   1.783 -0.0999  0.0955 -0.0432
 2642W        W 6693   2.603   2.744  12.419  0.2960  0.3674  0.0947
 2643W        W 6694   5.712   7.585   9.914 -0.1825  0.2167 -0.1666
 2644W        W 6695   9.528   7.621   0.287  0.0809  0.1733 -0.0478
 2645W        W 6696   7.351   7.301  11.660 -0.0332  0.1905  0.2239
 2646W        W 6697   2.680   9.680  13.643  0.0932 -0.2312 -0.2201
 2647W        W 6698   1.440   5.062   4.611 -0.1291 -0.1092 -0.1049
 2648W        W 6699   4.167  10.177  10.960  0.0509 -0.1334  0.0342
 2649W        W 6700   1.371   3.897   1.733  0.3109 -0.2661  0.2680
 2650W        W 6701   0.077   9.401   0.407 -0.1944  0.0506  0.1961
 2651W        W 6702   3.161   4.442   1.173 -0.1948  0.1559 -0.1079
 2652W        W 6703   1.894   2.411  12.508 -0.0769 -0.2416  0.1109
 2653W        W 6704   6.308   4.797   0.690 -0.1782  0.0230 -0.1657
 2654W        W 6705   3.897   5.566   2.355 -0.2533 -0.0601 -0.0287
 2655W        W 6706   4.479   3.633  12.723  0.0753  0.2220 -0.1934
 2656W        W 6707   0.812   2.261   1.401 -0.1561 -0.2176 -0.2111
 2657W        W 6708   3.666   6.470   0.362  0.1983 -0.0218  0.1619
 2658W        W 6709   8.579   9.376   2.592  0.2158 -0.0332 -0.2135
 2659W        W 6710   2.372   1.277   1.352 -0.2491  0.1473 -0.1202
 2660W        W 6711   9.366   0.920   0.312 -0.1535 -0.2660  0.3420
 2661W        W 6712   4.263   4.621   4.459  0.1013 -0.2817  0.2032
 2662W        W 6713   8.034   0.632   0.155 -0.0343 -0.0563 -0.0112
 2663W        W 6714   4.223   8.615  11.826  0.1491  0.2478 -0.0288
 2664W        W 6715   3.000   9.581   9.648  0.2304 -0.0573 -0.1090
 2665W        W 6716   6.725   7.961   0.435 -0.1880 -0.1245 -0.0383
 2666W        W 6717   3.506   0.517  10.558 -0.0482  0.0993 -0.0651
 2667W        W 6718   0.399   1.949  12.247 -0.0581 -0.2669  0.0431
 2668W        W 6719   8.240   7.738   1.409  0.0863  0.2667  0.2486
 2669W        W 6720   5.450   7.362  11.742  0.0002  0.0931 -0.2123
 2670W        W 6721   6.079   0.817   3.437  0.0051 -0.0346 -0.4108
 2671W        W 6722   9.075   4.394   3.649 -0.1724 -0.0909 -0.0249
 2672W        W 6723   1.278   9.210   3.490 -0.0983 -0.1272  0.0037
 2673W        W 6724   7.539   5.269   1.715 -0.1440 -0.0291  0.1609
 2674W        W 6725   9.105   7.047  12.726  0.0634 -0.0607  0.0236
 2675W        W 6726   7.928   6.604  11.095  0.2678 -0.1138 -0.2342
 2676W        W 6727   3.053   4.878   0.360 -0.1238 -0.0758 -0.0012
 2677W        W 6728   0.035   8.262  12.449  0.0262 -0.2310 -0.1902
 2678W        W 6729   4.989   7.715   8.832 -0.0111 -0.0005  0.2697
 2679W        W 6730   4.260   4.519   1.441  0.0007  0.0357 -0.1115
 2680W        W 6731   4.042   2.222   3.965  0.0468  0.1338 -0.2650
 2681W        W 6732   8.241   1.164  11.343 -0.1181 -0.0467 -0.0802
 2682W        W 6733   0.584   7.275   3.606 -0.2720  0.0242  0.1365
 2683W        W 6734   5.311   5.884   3.843  0.1081 -0.2160  0.1473
 2684W        W 6735   7.330   3.266  13.412 -0.0343 -0.2411 -0.0677
 2685W        W 6736   2.706   6.804   1.140  0.0630  0.2654  0.1099
 2686W        W 6737   7.757   1.293  10.653  0.4291  0.1460  0.1265
 2687W        W 6738   1.791   2.067   1.416  0.0679 -0.0073 -0.0379
 2688W        W 6739   6.592   3.870  10.175 -0.1493 -0.0941 -0.0103
 2689W        W 6740   2.270   7.981   6.141  0.1027  0.2949  0.1938
 2690W        W 6741   9.083   0.390  11.962  0.1310 -0.3211  0.0744
 2691W        W 6742   8.610   1.272  11.743  0.0544  0.1370  0.0878
 2692W        W 6743   8.486   9.031  11.120 -0.0815  0.3087 -0.1950
 2693W        W 6744   5.021  10.168   3.579  0.1777  0.2407  0.1588
 2694W        W 6745   6.361   6.719   1.596  0.1973 -0.0641  0.0612
 2695W        W 6746   7.831   3.548  11.870 -0.0922  0.0398 -0.1406
 2696W        W 6747   4.523   7.135  10.918  0.0088 -0.3162 -0.0831
 2697W        W 6748   2.936   0.427   1.630  0.1296 -0.1267  0.1898
 2698W        W 6749   8.691   9.940   1.313 -0.1397 -0.3426 -0.1072
 2699W        W 6750   5.587   6.015  10.449  0.2474  0.1006  0.2250
 2700W        W 6751   4.409   9.903   9.749 -0.0441 -0.3675 -0.1389
 2701W        W 6752   1.280   6.413  13.664  0.1149  0.0443 -0.2039
 2702W        W 6753   1.858   7.373   0.264 -0.1516  0.2533  0.3039
 2703W        W 6754   9.585   7.520   3.146  0.1188  0.1378 -0.1371
 2704W        W 6755   9.076   2.624   1.428 -0.2998  0.0967  0.0697
 2705W        W 6756   7.054   5.104   0.987  0.0730 -0.0337  0.2442
 2706W        W 6757   0.287   3.422  10.314 -0.0155  0.1373  0.2389
 2707W        W 6758   8.405   9.557   1.989 -0.1450 -0.2419 -0.2465
 2708W        W 6759   0.960   7.007   1.510 -0.1895  0.2014 -0.0527
 2709W        W 6760   8.025   7.240   3.639  0.0267 -0.1164  0.0204
 2710W        W 6761   3.119   1.541   4.875  0.0548  0.1863  0.4102
 2711W        W 6762  10.001   7.417   3.651  0.2106 -0.0728  0.1695
 2712W        W 6763   0.798   4.128  10.942 -0.4727 -0.1325 -0.1283
 2713W        W 6764   8.895   4.131   0.432  0.2132  0.0755 -0.0980
 2714W        W 6765   8.878   9.774   1.834 -0.1469  0.1011 -0.0069
 2715W        W 6766   1.403   6.945   8.450  0.0771 -0.0776  0.0424
 2716W        W 6767   6.812   6.855   9.956 -0.3427  0.1354  0.1626
 2717W        W 6768   5.886   4.918   4.560 -0.0539  0.0054  0.0585
 2718W        W 6769   9.213   8.413   2.782 -0.2598 -0.0687 -0.0786
 2719W        W 6770   4.791   7.166  13.027 -0.2867  0.3885 -0.1202
 2720W        W 6771   0.184   2.105   0.985  0.0767 -0.1355  0.0469
 2721W        W 6772   2.195   9.650   3.761 -0.0561  0.0646  0.5316
 2722W        W 6773   3.417   8.321  13.742 -0.2165  0.1454  0.1247
 2723W        W 6774   4.061   5.924   9.638  0.0518 -0.0474  0.3172
 2724W        W 6775   8.620   4.742  10.377  0.1450  0.2707 -0.2211
 2725W        W 6776   5.411   7.314   1.971 -0.2134 -0.0148 -0.0910
 2726W        W 6777   0.441   7.427  11.517  0.1111  0.5010 -0.0502
 2727W        W 6778   4.010   9.560  13.774 -0.0194  0.1869  0.0491
 2728W        W 6779   9.970   7.816  13.329  0.0055 -0.1087  0.2036
 2729W        W 6780   3.526   6.452   2.225 -0.2109 -0.0293  0.1279
 2730W        W 6781  10.079   2.449   0.072 -0.2174  0.0697 -0.1826
 2731W        W 6782   1.424   8.639   2.795 -0.0946  0.0767 -0.5488
 2732W        W 6783   6.343   2.330  12.553  0.0583 -0.3159 -0.1070
 2733W        W 6784   8.463   5.245  13.465  0.4522  0.1289 -0.0266
 2734W        W 6785   2.644   5.317   1.869 -0.1443 -0.1790  0.2140
 2735W        W 6786   5.688   0.609   9.484 -0.1692 -0.0334 -0.0897
 2736W        W 6787   5.833   0.185  10.694 -0.1284  0.0080  0.3341
 2737W        W 6788   8.284   4.481  10.119 -0.0389  0.1794  0.1763
 2738W        W 6789   4.894   1.999   1.203 -0.0866  0.3372  0.1716
 2739W        W 6790   4.984   9.329   9.428  0.2688  0.3810 -0.2278
 2740W        W 6791   1.633   7.064  12.715 -0.2619 -0.1312 -0.0401
 2741W        W 6792   4.896   1.083   2.972  0.2976  0.0898 -0.1403
 2742W        W 6793   0.032   1.268   1.521 -0.1835  0.1101  0.1027
 2743W        W 6794   9.342   6.384  13.727  0.1617  0.0002 -0.1662
 2744W        W 6795   4.442   3.218   0.330  0.1773  0.2229 -0.0671
 2745W        W 6796   2.192   6.974   0.933 -0.1010  0.0696  0.2633
 2746W        W 6797   0.843   5.883   4.369 -0.2239  0.1743  0.2982
 2747W        W 6798   8.689   8.440  12.020 -0.0147 -0.0663  0.0553
 2748W        W 6799   4.601   5.501   1.184  0.0243 -0.0925 -0.0483
 2749W        W 6800   6.303   6.159   1.528 -0.0298  0.1092 -0.0668
 2750W        W 6801   1.970   4.960   3.825  0.1694 -0.1080  0.2576
 2751W        W 6802   7.105   8.242   1.343  0.3561 -0.2627 -0.3727
 2752W        W 6803   3.551   1.684   0.527  0.4203  0.0351 -0.3232
 2753W        W 6804   0.813   5.144   3.966  0.0113 -0.2857  0.3829
 2754W        W 6805   6.083   4.368   0.414  0.1822  0.2752  0.0579
 2755W        W 6806   6.925   9.408   0.047  0.0439  0.1241  0.0526
 2756W        W 6807   2.540   1.038   8.927  0.0506  0.1986 -0.0744
 2757W        W 6808   2.196   7.452  13.138 -0.2990  0.1156  0.1266
 2758W        W 6809   0.839   7.509  11.191  0.6343 -0.0852 -0.4053
 2759W        W 6810   6.878   2.545   9.085 -0.2145 -0.1947 -0.1731
 2760W        W 6811   0.964   7.062  10.438 -0.3016  0.1736 -0.0416
 2761W        W 6812   9.367   1.320   1.958 -0.1513  0.0523  0.2499
 2762W        W 6813   1.148   7.406   3.846 -0.0408 -0.1009 -0.2908
 2763W        W 6814   0.137   1.992  13.529 -0.0385 -0.2586 -0.2362
 2764W        W 6815   4.135   6.392   9.637 -0.0802 -0.1081  0.0838
 2765W        W 6816   0.570   9.524  12.588  0.3143 -0.0282  0.2923
 2766W        W 6817   5.675   4.224   3.441 -0.1919  0.0685 -0.0377
 2767W        W 6818   0.276   3.353  11.928  0.0680 -0.3148  0.0916
 2768W        W 6819   6.490   9.331  10.729  0.1365 -0.3401  0.2091
 2769W        W 6820   9.653   7.079   4.501 -0.0654  0.0825  0.1839
 2770W        W 6821   6.371   2.139   0.782  0.3226 -0.3575 -0.1697
 2771W        W 6822   1.913   8.313  12.130 -0.1537  0.0627  0.0036
 2772W        W 6823   6.027   3.521   1.785 -0.1106  0.5005 -0.0222
 2773W        W 6824   2.345   6.411   1.052  0.1443  0.1214 -0.0101
 2774W        W 6825   3.686   4.131  10.219  0.2483 -0.0050  0.0502
 2775W        W 6826   9.954   2.945  11.014 -0.3005 -0.2426  0.1449
 2776W        W 6827   6.922   9.140  13.366 -0.0102 -0.1002  0.2161
 2777W        W 6828   8.143   1.719  13.586  0.1386 -0.2872 -0.0974
 2778W        W 6829   7.284   6.739   1.211  0.2313 -0.2473 -0.4229
 2779W        W 6830   9.653   4.701  10.390 -0.0288 -0.3489 -0.4504
 2780W        W 6831   0.717   6.269   2.746 -0.0260  0.2074 -0.2986
 2781W        W 6832   6.018   2.147  11.750  0.1089 -0.2352  0.1167
 2782W        W 6833   4.830   3.712  10.443 -0.0155 -0.2419  0.2957
 2783W        W 6834   7.037   8.543  10.452  0.4853 -0.2552  0.2655
 2784W        W 6835  10.035   3.912   2.172  0.3141 -0.2850 -0.2564
 2785W        W 6836   8.933   8.073   0.076  0.0525  0.3059  0.3631
 2786W        W 6837   4.880   5.657   5.622 -0.0667 -0.1262  0.0656
 2787W        W 6838   7.267   3.149  12.593  0.0903  0.3884  0.1103
 2788W        W 6839   3.394   4.542  11.423  0.0314 -0.1752 -0.0972
 2789W        W 6840   2.174   5.559  11.589  0.0654 -0.3846  0.0209
 2790W        W 6841   5.053   2.176  13.046 -0.1779  0.0641  0.0113
 2791W        W 6842   0.635   3.817  11.466 -0.2209  0.2804  0.1657
 2792W        W 6843   7.667   0.997   2.255  0.0223  0.0667 -0.1066
 2793W        W 6844   1.131   7.313   9.503 -0.2571  0.2325  0.0854
 2794W        W 6845   9.227   3.582   1.783  0.0360  0.0067  0.1708
 2795W        W 6846   7.654   2.209   2.267 -0.1567  0.0467  0.5086
 2796W        W 6847   0.919   7.340   2.361  0.2455  0.2060 -0.3221
 2797W        W 6848   7.828   3.741  11.032  0.0153 -0.0531  0.0158
 2798W        W 6849   7.785   3.381   0.303 -0.0436 -0.0272 -0.1389
 2799W        W 6850   6.410   2.986  13.060 -0.0126  0.1517  0.0769
 2800W        W 6851   1.011   3.395   0.058 -0.1176  0.4161  0.1517
 2801W        W 6852   4.447   0.202   9.614  0.0920  0.0811  0.1500
 2802W        W 6853   3.596   1.244   8.198 -0.2479 -0.0111  0.0560
 2803W        W 6854   4.316   8.746   0.007  0.0241 -0.0554  0.0548
 2804W        W 6855   4.175   7.511   1.822  0.0109 -0.1194  0.3063
 2805W        W 6856   2.268   3.124  11.734 -0.1835  0.0168  0.1833
 2806W        W 6857   3.638   3.385   3.748  0.1135 -0.3319 -0.0784
 2807W        W 6858   2.089   0.910  11.238  0.1114  0.2027  0.1303
 2808W        W 6859   0.815   9.405   3.365 -0.1013  0.0959 -0.0984
 2809W        W 6860   6.218   3.493   0.961  0.0844 -0.2168  0.3537
 2810W        W 6861   8.079   6.113  10.447 -0.1778 -0.0579 -0.2394
 2811W        W 6862   0.083   1.707   0.555 -0.0326 -0.1460 -0.0504
 2812W        W 6863   5.827   3.638  10.926  0.2116 -0.1078 -0.1427
 2813W        W 6864   9.949   5.512  10.533 -0.1137  0.1151 -0.0752
 2814W        W 6865   8.289   5.831  12.420  0.1786  0.2842 -0.1466
 2815W        W 6866   1.322   1.919  12.506  0.0050  0.0091  0.0820
 2816W        W 6867   5.938   1.834  10.889 -0.1412 -0.1277 -0.0320
 2817W        W 6868   4.438   6.330   3.491  0.0927  0.2003  0.0040
 2818W        W 6869   1.141   6.169   3.963  0.0381  0.0313 -0.0351
 2819W        W 6870   4.326   0.123  10.092  0.0298 -0.1230 -0.0587
 2820W        W 6871   9.879   8.974   3.376 -0.2960 -0.1622  0.0158
 2821W        W 6872   8.372   5.935   2.378  0.0031 -0.0258 -0.2412
 2822W        W 6873   8.110   1.279  11.769  0.1362  0.0138 -0.2546
 2823W        W 6874   1.569   6.568   0.475  0.0388 -0.0910 -0.0360
 2824W        W 6875   8.746   1.162  11.245 -0.0830 -0.1621  0.1195
 2825W        W 6876   2.510   1.936   2.572 -0.1722 -0.1277  0.1772
 2826W        W 6877   0.228   6.971   3.462  0.0848  0.0086 -0.0660
 2827W        W 6878   3.365   8.480  11.470 -0.2269  0.0962 -0.1457
 2828W        W 6879   6.490   8.686   4.455 -0.2576 -0.2019 -0.0950
 2829W        W 6880   4.816   5.454   2.775 -0.1581 -0.0568  0.0742
 2830W        W 6881   5.881   4.426  12.185  0.0292  0.0405 -0.1663
 2831W        W 6882   5.405   7.611  12.569  0.3683 -0.1837 -0.2109
 2832W        W 6883   3.573   8.079   0.971  0.0936  0.1440  0.0924
 2833W        W 6884   3.496   8.689   0.120 -0.0447 -0.1694  0.3631
 2834W        W 6885   0.060   2.033  10.914 -0.3157  0.0272 -0.2100
 2835W        W 6886   1.979   5.590  12.813 -0.0062 -0.3588 -0.1574
 2836W        W 6887   7.973   4.630  11.208 -0.3424 -0.1204  0.1305
 2837W        W 6888   8.685   0.347  13.238  0.3893 -0.1362  0.3070
 2838W        W 6889  10.123   4.954  11.491 -0.1965 -0.2793 -0.0353
 2839W        W 6890   0.110  10.018  13.361 -0.2828 -0.0288 -0.0637
 2840W        W 6891   0.140   4.082   1.785  0.0270 -0.0539  0.1485
 2841W        W 6892   1.716   2.098  11.371  0.2474 -0.0585  0.0890
 2842W        W 6893   3.149   1.205  13.363 -0.0899  0.1664  0.2869
 2843W        W 6894   0.475   8.276  13.369  0.3246  0.4136 -0.2559
 2844W        W 6895   5.305   6.501  12.443  0.1013  0.0122  0.5677
 2845W        W 6896   9.163   9.228   3.385  0.1355 -0.2422  0.2180
 2846W        W 6897   1.296   8.152   9.608  0.0918  0.1127  0.1682
 2847W        W 6898   5.197   8.010   2.865 -0.0064 -0.0115 -0.0846
 2848W        W 6899   9.965   2.122  13.178  0.1598 -0.1133  0.1059
 2849W        W 6900   4.526   2.486  12.327  0.1251  0.3436 -0.1479
 2850W        W 6901   4.319   5.312  13.654 -0.2261  0.2216 -0.2101
 2851W        W 6902   8.624   4.372   0.107 -0.1383  0.0947  0.2748
 2852W        W 6903   7.959   9.663  10.619 -0.1982  0.2407  0.0172
 2853W        W 6904   7.585   4.977  13.110 -0.1488  0.1274  0.0897
 2854W        W 6905   0.042   3.903  10.135  0.1295 -0.0118  0.0496
 2855W        W 6906   1.886   9.879   9.879 -0.1529  0.4349  0.3163
 2856W        W 6907   2.329   7.276  11.375 -0.2927  0.0349  0.3669
 2857W        W 6908   6.616   2.131   2.406 -0.1072 -0.1052 -0.1337
 2858W        W 6909   3.740   2.010  11.466  0.0760 -0.2249  0.1382
 2859W        W 6910   4.238   1.797   1.953  0.0992  0.0484  0.4068
 2860W        W 6911   8.987   6.283  12.988 -0.0968 -0.1848 -0.0916
 2861W        W 6912   7.075   6.894  12.700  0.1947 -0.2354 -0.1167
 2862W        W 6913   7.328   9.437  11.106 -0.0570 -0.4913 -0.0061
 2863W        W 6914   1.104   9.334  13.378 -0.0272 -0.1035  0.0616
 2864W        W 6915   7.867   9.000  10.077 -0.1606  0.5337 -0.1258
 2865W        W 6916   3.051   6.656   2.968 -0.0060  0.1314 -0.4103
 2866W        W 6917   5.209   8.276  12.718 -0.2738  0.0109  0.1249
 2867W        W 6918   8.401   6.894  13.423  0.2173  0.0580  0.1049
 2868W        W 6919   2.534   1.705  11.794 -0.0367  0.2685 -0.2260
 2869W        W 6920   2.341   1.184   9.806  0.0153  0.0274  0.1675
 2870W        W 6921   6.518   2.669   0.083 -0.0675  0.1136  0.1492
 2871W        W 6922   4.763   2.524   9.758  0.0279  0.0416 -0.2470
 2872W        W 6923   5.513   9.531   9.614 -0.2225 -0.0977  0.3523
 2873W        W 6924   3.893   0.233   5.049  0.3073 -0.1421  0.0736
 2874W        W 6925   3.700   7.548  10.335  0.1047 -0.2181  0.0407
 2875W        W 6926   5.970   6.252  13.862  0.2541 -0.1009  0.0123
 2876W        W 6927   1.732   6.692  12.379 -0.0584  0.4937 -0.0051
 2877W        W 6928   6.393   9.189  13.262  0.0429 -0.1092 -0.0927
 2878W        W 6929   2.965   0.351   9.712 -0.0590 -0.2331  0.0186
 2879W        W 6930   4.505   1.787   3.180 -0.1890  0.2147 -0.2856
 2880W        W 6931   3.412   4.165   2.922 -0.1578 -0.1913  0.0490
 2881W        W 6932   6.018   7.028   3.792  0.3222  0.2656 -0.2165
 2882W        W 6933   4.800   4.535   9.698  0.1724  0.1251 -0.1828
 2883W        W 6934   0.902   7.040   0.184 -0.1395  0.1251  0.1631
 2884W        W 6935   7.833   0.537   2.638 -0.1309 -0.1038 -0.1843
 2885W        W 6936   4.450   8.057   4.208  0.3270 -0.0426  0.0345
 2886W        W 6937   5.384   4.594   1.638 -0.0189  0.0975 -0.0491
 2887W        W 6938   9.205   3.872   2.875  0.0640 -0.1396  0.0141
 2888W        W 6939   3.961   3.651  12.635  0.0232  0.1495  0.2465
 2889W        W 6940   0.383   2.503   2.173  0.0546 -0.0199  0.0973
 2890W        W 6941   4.634   9.464  12.066  0.1373 -0.1848  0.2894
 2891W        W 6942   4.921   6.362  10.968  0.4389  0.0985 -0.0021
 2892W        W 6943   7.209   9.146   0.980  0.1491  0.0726  0.0337
 2893W        W 6944   9.842   6.302   0.602  0.4020 -0.1332  0.2715
 2894W        W 6945   0.843   2.461  11.623  0.0243 -0.4041 -0.1415
 2895W        W 6946   7.447   9.368  13.314 -0.1062  0.3602  0.3651
 2896W        W 6947   1.801   7.543  12.877 -0.1529 -0.0803 -0.4307
 2897W        W 6948   1.186   8.328  10.959 -0.4111  0.0385  0.2355
 2898W        W 6949   5.879   2.256   0.019 -0.0207  0.0976  0.1160
 2899W        W 6950   0.428   0.412  13.693  0.1353  0.0782  0.2724
 2900W        W 6951   7.315   5.907   4.401 -0.1379 -0.0490 -0.1393
 2901W        W 6952   7.239   2.623  12.566 -0.0495  0.2410  0.0171
 2902W        W 6953   8.313   4.414  13.052  0.2236 -0.0121 -0.0197
 2903W        W 6954   2.912   5.526  11.819 -0.0987  0.0676  0.0687
 2904W        W 6955   5.125   4.993   4.180  0.1384 -0.1198 -0.2698
 2905W        W 6956   4.316   3.543  13.405  0.0446 -0.0269 -0.2695
 2906W        W 6957   9.611   5.609   3.507  0.1158 -0.1504  0.0251
 2907W        W 6958   9.259   9.994  13.856  0.4348 -0.1031  0.2304
 2908W        W 6959   4.236   9.794   1.558  0.4349 -0.1248  0.1969
 2909W        W 6960   3.355   4.550   0.079  0.3688  0.0686  0.1508
 2910W        W 6961   8.466   9.920   2.312  0.0145  0.2894  0.0545
 2911W        W 6962   6.967   8.892  11.769 -0.0124 -0.1382 -0.1624
 2912W        W 6963   5.226   8.748  11.842  0.2371  0.0759  0.0379
 2913W        W 6964   4.970   2.316   5.227 -0.1165 -0.2455 -0.1371
 2914W        W 6965   3.396   6.386  11.598 -0.0924 -0.0096  0.1722
 2915W        W 6966   5.732   0.958  13.717 -0.3798 -0.0453 -0.2153
 2916W        W 6967   8.972   8.556  12.466  0.1745  0.1577 -0.0287
 2917W        W 6968   3.615   1.788   9.693  0.1230  0.1823  0.0510
 2918W        W 6969   5.719   1.097   1.978  0.0179 -0.0848 -0.2481
 2919W        W 6970   3.659   7.135  11.202 -0.0921  0.0560 -0.0227
 2920W        W 6971   8.978   8.901   4.366 -0.0154 -0.1079 -0.0140
 2921W        W 6972   4.614   9.921   3.787  0.2641 -0.1010  0.2325
 2922W        W 6973   0.124   4.839   2.149 -0.0411  0.1762 -0.1538
 2923W        W 6974   5.217   6.510   4.011 -0.1294  0.0162  0.0765
 2924W        W 6975   5.300   6.031   1.068  0.1089  0.2902 -0.1537
 2925W        W 6976   2.305   5.859   8.577 -0.5886 -0.4091 -0.1110
 2926W        W 6977   6.062   1.657   1.926 -0.4203  0.2333 -0.1814
 2927W        W 6978   7.002   1.765  10.344 -0.0426 -0.2345  0.0373
 2928W        W 6979   4.587   6.323   9.342  0.2514 -0.3750 -0.4137
 2929W        W 6980   7.167   9.637  13.584  0.1467  0.0033 -0.0915
 2930W        W 6981   6.428   4.492  11.969  0.0345 -0.0542 -0.0050
 2931W        W 6982   9.382   3.528  11.637 -0.2287  0.1007  0.0837
 2932W        W 6983   0.075   8.247  13.068 -0.0204 -0.1983 -0.0547
 2933W        W 6984   6.462   9.787   9.012 -0.4880 -0.1043  0.2344
 2934W        W 6985   1.408   6.661  12.968  0.3607  0.1184 -0.2691
 2935W        W 6986   4.521   4.213  13.036  0.2605 -0.0084  0.0221
 2936W        W 6987   4.034   2.306  13.187 -0.0796 -0.0224  0.1563
 2937W        W 6988   2.465   3.680   4.630  0.1587  0.0789 -0.1345
 2938W        W 6989   6.263   7.028   5.788 -0.2158  0.0855  0.0576
 2939W        W 6990   9.080   1.539   2.378  0.0524  0.0459 -0.1023
 2940W        W 6991   4.763   3.236  10.354 -0.0961 -0.1840 -0.2985
 2941W        W 6992   4.066   1.581  13.778 -0.1089  0.2178  0.1715
 2942W        W 6993   5.764   7.616   3.991  0.0304 -0.1448  0.2590
 2943W        W 6994   8.505   5.070   2.236 -0.1059  0.1408 -0.2146
 2944W        W 6995   9.753   0.200   0.011  0.1525  0.2450  0.1153
 2945W        W 6996   5.661   1.287  12.213 -0.2710 -0.1243 -0.2932
 2946W        W 6997   5.591   6.825   1.000 -0.1245  0.1747  0.1304
 2947W        W 6998   1.440   2.366  12.347 -0.3102  0.1285 -0.1006
 2948W        W 6999   9.552   1.753   1.614 -0.0532  0.1913 -0.5470
 2949W        W 7000   4.332   1.750  13.322 -0.0590 -0.2087 -0.0664
 2950W        W 7001   3.323   5.189  11.580 -0.1315 -0.0535  0.2910
 2951W        W 7002   3.341   9.706  10.485  0.0921  0.1207  0.0592
 2952W        W 7003   7.905   6.666  13.434 -0.0537 -0.3112 -0.1349
 2953W        W 7004   0.682   6.649   3.033 -0.3335  0.0025 -0.1016
 2954W        W 7005   4.405   9.576   2.559  0.2126  0.0883 -0.1972
 2955W        W 7006   1.932   6.520   0.002  0.0452  0.2807  0.0381
 2956W        W 7007   3.279   8.786   0.890 -0.0375 -0.1202  0.0235
 2957W        W 7008   2.146   2.265   2.300  0.1023 -0.0688  0.3616
 2958W        W 7009   9.079   0.426  11.111 -0.1623 -0.3330 -0.0126
 2959W        W 7010   2.762   3.970   3.824  0.2620  0.1542  0.1646
 2960W        W 7011   2.187   6.839  13.254 -0.1631 -0.3467  0.1115
 2961W        W 7012   4.630   2.861  10.649 -0.2459  0.4664 -0.0286
 2962W        W 7013   8.324  10.120  13.029 -0.1756 -0.1423 -0.1067
 2963W        W 7014   6.009   3.562   4.501  0.0233 -0.1107 -0.0371
 2964W        W 7015   2.438   0.465   1.848  0.0676  0.1140  0.3816
 2965W        W 7016   4.385   6.418  12.582  0.0314  0.0681  0.1678
 2966W        W 7017   6.614   3.261   9.315  0.0790  0.0271 -0.3769
 2967W        W 7018   1.450   9.571   2.990  0.0540  0.0342  0.3047
 2968W        W 7019   1.306   6.555   4.234  0.1002  0.0913  0.1366
 2969W        W 7020   3.491   1.695  13.894 -0.0511 -0.0776  0.0065
 2970W        W 7021   1.971   2.796  13.094  0.1819 -0.2895 -0.0063
 2971W        W 7022   7.950   8.237  10.287  0.0181 -0.3324  0.2707
 2972W        W 7023   3.398   0.785  13.634  0.5353 -0.0132 -0.1617
 2973W        W 7024   4.702   0.682   9.554 -0.3102  0.0279 -0.1730
 2974W        W 7025   6.286   4.070  11.080  0.0034  0.3586 -0.1813
 2975W        W 7026   2.314   2.529   9.485  0.1032  0.1495  0.0614
 2976W        W 7027   9.290   1.838  11.095  0.1607 -0.2109 -0.1553
 2977W        W 7028   8.010   8.166   3.895  0.1878 -0.0473  0.1495
 2978W        W 7029   3.048   2.335   2.541  0.0356  0.1193 -0.0484
 2979W        W 7030   0.787   7.970  11.419 -0.0129 -0.0419  0.0263
 2980W        W 7031   5.242   7.717   5.237 -0.1632  0.0643 -0.0400
 2981W        W 7032   8.347   7.643   4.330  0.0630  0.0076 -0.1193
 2982W        W 7033   5.199   9.453   4.455 -0.0348  0.1273 -0.1378
 2983W        W 7034   6.303   7.529   8.830  0.1810 -0.0339 -0.0709
 2984W        W 7035   2.649   2.330   1.274  0.0369  0.0029  0.0778
 2985W        W 7036   3.123   0.673   0.106  0.3065 -0.1420 -0.3506
 2986W        W 7037   9.797   8.563  13.797 -0.2134 -0.0613 -0.0190
 2987W        W 7038   1.947   3.853   0.418  0.4529  0.0376  0.3759
 2988W        W 7039   3.335   2.965   9.430 -0.3009  0.0258  0.1020
 2989W        W 7040   9.795   8.080   3.360 -0.2495  0.0342  0.1231
 2990W        W 7041   8.263   8.132  11.039 -0.2459  0.0505  0.1297
 2991W        W 7042   4.393   0.587   2.201  0.0475  0.0048  0.1485
 2992W        W 7043   6.186   1.349   0.423 -0.1689  0.1483 -0.2060
 2993W        W 7044   1.104   1.250  11.729  0.0631 -0.2162 -0.1964
 2994W        W 7045   6.721   1.218   1.573  0.2438 -0.1118  0.2136
 2995W        W 7046   0.287   6.912  13.840  0.0031  0.3225 -0.1382
 2996W        W 7047   3.749   2.753   0.420 -0.0027 -0.0853 -0.0256
 2997W        W 7048   9.139   2.663  12.993 -0.0795  0.0339  0.0579
 2998W        W 7049   6.191   4.427   3.394  0.3450 -0.0405  0.0157
 2999W        W 7050   4.289   0.053   0.306  0.1555  0.0748 -0.1641
 3000W        W 7051   9.219   2.473  11.174  0.0572  0.0812  0.0526
 3001W        W 7052   7.533   3.113   2.526  0.1237  0.1032 -0.4316
 3002W        W 7053   5.199   5.566  13.564  0.1771  0.0127  0.1122
 3003W        W 7054   8.232   0.403   3.302  0.1457 -0.0267 -0.3745
 3004W        W 7055   1.326   4.314   4.984 -0.0417  0.2481 -0.0997
 3005W        W 7056   7.491   5.343  10.900  0.0892 -0.1390 -0.1689
 3006W        W 7057   0.482   7.605  12.135 -0.0241  0.1223  0.2494
 3007W        W 7058  10.140   1.707  12.465  0.0774  0.4078  0.0249
 3008W        W 7059   0.601   5.866  12.293  0.1134 -0.0317 -0.1808
 3009W        W 7060   9.735   0.798  13.304 -0.1460 -0.1612  0.2584
 3010W        W 7061   5.507   4.017   1.117  0.1979 -0.0496  0.1262
 3011W        W 7062   4.838  10.126   9.993 -0.1051 -0.1057 -0.0252
 3012W        W 7063   0.009   8.379  10.381 -0.3370  0.0463 -0.1715
 3013W        W 7064   0.558  10.123  13.461 -0.0327  0.0334 -0.0509
 3014W        W 7065   4.922   6.761   2.334 -0.1835 -0.0466  0.0033
 3015W        W 7066   9.940   2.324   1.072 -0.0077  0.2089 -0.2638
 3016W        W 7067   1.805   2.781   0.016  0.1423  0.0320  0.0109
 3017W        W 7068   2.403   3.088  10.967  0.0304 -0.2136  0.0647
 3018W        W 7069   8.856   8.861  10.086  0.2134 -0.3957  0.1895
 3019W        W 7070   2.540   9.866  11.094 -0.1812  0.3648 -0.0090
 3020W        W 7071   6.979   7.777  12.312 -0.0478 -0.2397  0.2432
 3021W        W 7072   9.541  10.046  11.521  0.0503  0.1999  0.0127
 3022W        W 7073   2.256   8.686  10.424  0.1020 -0.1106 -0.2790
 3023W        W 7074   7.972   0.458   0.599  0.1160 -0.0130  0.2554
 3024W        W 7075   2.866   9.339   9.178 -0.1646  0.1794  0.0614
 3025W        W 7076   1.146   5.612  11.484  0.1216 -0.2252 -0.0192
 3026W        W 7077   2.049   2.990  12.604 -0.0714 -0.1443  0.1465
 3027W        W 7078   8.196   3.372  13.004  0.0895 -0.0153 -0.2443
 3028W        W 7079   5.060   4.766   2.458 -0.4579 -0.0087 -0.0179
 3029W        W 7080   2.991   7.706   5.001 -0.0846  0.1868  0.0126
 3030W        W 7081   3.980   6.683   3.804  0.0776 -0.0380  0.1407
 3031W        W 7082   8.398   8.254  13.144 -0.1813 -0.1262  0.0782
 3032W        W 7083   2.746   9.734   0.276  0.3095  0.1757 -0.0154
 3033W        W 7084   1.510   8.673   0.228 -0.1557 -0.1175  0.2992
 3034W        W 7085   3.500   4.096   4.267  0.0994  0.0440  0.1723
 3035W        W 7086   8.164   5.454   4.989  0.0454  0.5234 -0.2130
 3036W        W 7087   4.842   0.984   3.792 -0.0132 -0.0300 -0.0417
 3037W        W 7088   8.261   8.201  11.829  0.0518 -0.0861  0.0880
 3038W        W 7089   3.704   3.513   9.507 -0.0791  0.1686  0.0619
 3039W        W 7090   3.704   8.606  10.930  0.0277  0.1660  0.1691
 3040W        W 7091   8.364   9.016  10.080 -0.1649 -0.1105 -0.2161
 3041W        W 7092   0.945   9.302   0.681 -0.0645  0.0998 -0.0469
 3042W        W 7093   7.533   5.494   4.711 -0.1251 -0.1679  0.3435
 3043W        W 7094   6.664   3.994  13.210  0.2466 -0.0256 -0.0341
 3044W        W 7095   9.067   1.699  10.639  0.2190 -0.0571 -0.1888
 3045W        W 7096   1.148   5.969   2.048 -0.3300  0.2992 -0.0635
 3046W        W 7097   7.289   4.426  11.817 -0.0627 -0.2694  0.1068
 3047W        W 7098   7.701   7.528  10.837 -0.1712 -0.2759 -0.1191
 3048W        W 7099   1.835   5.930   0.378  0.0796  0.1669 -0.1334
 3049W        W 7100   8.163   2.385  12.909  0.3476 -0.2409  0.1557
 3050W        W 7101   1.056   4.181   0.386  0.3456 -0.1000  0.0469
 3051W        W 7102   1.034   1.788   3.730  0.2888 -0.1077  0.0815
 3052W        W 7103   2.854   2.258   3.604 -0.0046  0.3475  0.4023
 3053W        W 7104   4.480   7.852  12.438  0.0113  0.0639 -0.0846
 3054W        W 7105   9.517  10.116   3.353  0.0665 -0.1405  0.1847
 3055W        W 7106   6.365   7.994  10.882  0.3932 -0.0487  0.0417
 3056W        W 7107   8.835   7.337  10.383 -0.6173  0.1005 -0.1821
 3057W        W 7108   7.853   9.712   0.764  0.0681  0.0673 -0.3634
 3058W        W 7109   5.895   2.586   3.049  0.1506  0.1094 -0.1466
 3059W        W 7110   0.143   2.598  11.702  0.0641 -0.1367  0.2966
 3060W        W 7111   3.211   0.272  12.734 -0.0512  0.0041 -0.3477
 3061W        W 7112   0.725   8.662  12.910  0.0660  0.1097 -0.0915
 3062W        W 7113   7.896   1.612  12.598  0.1954 -0.1487  0.3017
 3063W        W 7114   3.524   2.483  12.131  0.3273  0.2108  0.0246
 3064W        W 7115   1.780   8.504  12.756  0.0156 -0.0039 -0.1205
 3065W        W 7116   5.220   7.552   0.686  0.2313  0.0482 -0.1955
 3066W        W 7117   0.483   8.988   1.572  0.1685 -0.1723 -0.1329
 3067W        W 7118   2.351   9.422  12.751  0.1467 -0.1910 -0.4919
 3068W        W 7119   9.748   3.357  13.118  0.0163  0.2746  0.2044
 3069W        W 7120   5.740   9.876  12.978 -0.4742 -0.0498 -0.0728
 3070W        W 7121   9.359   3.339  12.151  0.0452 -0.3617 -0.1140
 3071W        W 7122   5.510   0.129  13.701  0.0252  0.1523  0.2102
 3072W        W 7123   5.677   7.160   0.081 -0.2031 -0.3384  0.1948
 3073W        W 7124   2.929   3.209   1.072  0.1547 -0.1530 -0.1119
 3074W        W 7125   1.006   9.806   3.115 -0.0209  0.2580 -0.1579
 3075W        W 7126  10.160   3.943  12.984  0.0310 -0.1494 -0.1570
 3076W        W 7127   1.863   3.774  11.020 -0.3848 -0.0465  0.0216
 3077W        W 7128   8.730   2.427   3.644 -0.0869  0.1247  0.2216
 3078W        W 7129   5.314   9.988   9.758  0.0903 -0.1050 -0.0341
 3079W        W 7130   4.567   1.013  10.146 -0.1040 -0.1356  0.1298
 3080W        W 7131   7.655   7.037  11.967  0.1522 -0.1203  0.3102
 3081W        W 7132   1.383   1.320  10.757 -0.1731  0.1747 -0.0861
 3082W        W 7133   4.366   4.966   0.550 -0.0110  0.3038  0.1555
 3083W        W 7134   2.247   7.934  13.475  0.0337  0.2332 -0.4039
 3084W        W 7135   1.013   4.270  11.365  0.3269 -0.3321  0.1396
 3085W        W 7136   0.541   4.018  12.388  0.0895 -0.1390  0.0128
 3086W        W 7137   3.436   9.687  12.270 -0.0511  0.1516  0.1273
 3087W        W 7138   9.932   2.712  12.537  0.1434 -0.0103 -0.3131
 3088W        W 7139   7.661   8.702  12.941  0.1708 -0.0997  0.0487
 3089W        W 7140   3.781   1.678  13.359  0.0960  0.0414 -0.0391
 3090W        W 7141   4.286   3.673   4.200 -0.2012 -0.2052  0.1198
 3091W        W 7142   8.408   0.749  12.560  0.0575 -0.1884  0.0570
 3092W        W 7143   7.708   4.491  13.126  0.1986 -0.0128 -0.1374
 3093W        W 7144   3.465   2.124   0.189  0.1424 -0.1825 -0.2011
 3094W        W 7145   7.053   9.399   2.078 -0.0996 -0.1354  0.3550
 3095W        W 7146   2.804   1.204   3.233 -0.1114 -0.3215  0.0708
 3096W        W 7147   9.153   2.128  12.810 -0.1796  0.4524 -0.0252
 3097W        W 7148   2.752   4.004   3.095 -0.0872  0.1957 -0.1768
 3098W        W 7149   8.441   1.297   1.634  0.0807  0.1673  0.1886
 3099W        W 7150   9.073   1.782  12.443  0.0658  0.0360  0.1613
 3100W        W 7151   6.951   8.969   2.903  0.1292 -0.2455  0.3927
 3101W        W 7152   3.087   9.134   5.374 -0.0108 -0.0442  0.1528
 3102W        W 7153   0.291   7.798   2.667 -0.2827  0.1682  0.2359
 3103W        W 7154   5.319   3.548  11.103 -0.3667 -0.5741 -0.3896
 3104W        W 7155   3.504   5.278   9.782 -0.1526  0.1446  0.1147
 3105W        W 7156   1.295   2.032   1.694  0.0329  0.1829  0.1544
 3106W        W 7157   6.895   8.067  10.584  0.1226 -0.1065 -0.0250
 3107W        W 7158   2.593   0.120  10.279 -0.4213  0.2374  0.1522
 3108W        W 7159   0.741   4.528   9.665 -0.2889  0.0684 -0.0869
 3109W        W 7160   2.323   6.141   3.018  0.0501  0.5028  0.0364
 3110W        W 7161   9.123   7.725  10.592  0.1568  0.2608  0.2250
 3111W        W 7162   9.228   6.343   2.350 -0.0551 -0.2018  0.0879
 3112W        W 7163   0.384   1.844  12.717  0.0607  0.0203 -0.0434
 3113W        W 7164   3.038   3.706   0.969 -0.1127 -0.1759  0.1639
 3114W        W 7165   7.272   6.354  13.178 -0.2778 -0.1919  0.0889
 3115W        W 7166   6.645   8.818   3.680  0.1931  0.0334 -0.1090
 3116W        W 7167   5.529   5.327   4.898 -0.0768 -0.0999 -0.2192
 3117W        W 7168   7.823   3.580  13.289 -0.0985  0.0292  0.0466
 3118W        W 7169   6.013   0.236  12.904  0.1703 -0.2726  0.1084
 3119W        W 7170   2.179   3.962  13.894 -0.1554  0.0183  0.2578
 3120W        W 7171   7.787   3.617  10.595 -0.3840 -0.1988 -0.0766
 3121W        W 7172   1.615   0.126   1.305  0.4300 -0.0589  0.1323
 3122W        W 7173   5.194   8.255  10.929 -0.0763 -0.1613 -0.1458
 3123W        W 7174   9.612   0.104  12.129 -0.0209 -0.2064 -0.0934
 3124W        W 7175   4.647   7.249   3.978 -0.0508 -0.1324 -0.0194
 3125W        W 7176   7.246   0.021   4.709  0.2469  0.1929 -0.1471
 3126W        W 7177   7.248   9.116  13.704 -0.1239 -0.0059 -0.2011
 3127W        W 7178   5.205   1.989   9.049 -0.2961 -0.1200 -0.0745
 3128W        W 7179   3.240   3.928   3.398  0.0961 -0.0574  0.1052
 3129W        W 7180   0.796   6.820   3.512 -0.0678 -0.2526  0.1199
 3130W        W 7181   1.986   1.660   1.185  0.1396 -0.0010 -0.1264
 3131W        W 7182   4.572   2.777   0.074 -0.1641 -0.0083  0.1025
 3132W        W 7183   5.945   0.602   0.635 -0.2040 -0.0332 -0.0605
 3133W        W 7184   7.368   1.404  11.067  0.0655 -0.0019 -0.0749
 3134W        W 7185   6.790   6.050   0.013  0.1061  0.0309  0.0339
 3135W        W 7186   1.132   3.839  11.601  0.0054  0.2039 -0.1578
 3136W        W 7187   3.795   7.112   1.211 -0.0507 -0.1732  0.3841
 3137W        W 7188   2.212   5.404   2.131 -0.2204 -0.2123 -0.0291
 3138W        W 7189   0.076   4.841  11.945  0.1123 -0.0225  0.2568
 3139W        W 7190   3.075   5.688   9.815  0.2622 -0.1599 -0.2042
 3140W        W 7191   5.535   2.099   2.494 -0.1317 -0.2169  0.3669
 3141W        W 7192   1.115   7.409  13.846 -0.0057  0.1257 -0.0274
 3142W        W 7193   3.060   9.370   1.314 -0.0656 -0.2624 -0.4269
 3143W        W 7194   2.990   1.051   2.270  0.0037  0.1083 -0.1114
 3144W        W 7195   1.024   1.522   4.233  0.0352 -0.2318 -0.0756
 3145W        W 7196   5.061   9.250  11.897  0.3848 -0.0444 -0.1108
 3146W        W 7197   5.982   8.068  13.773  0.1569 -0.2350  0.0162
 3147W        W 7198   1.164   5.478  13.008 -0.0022 -0.2035 -0.1057
 3148W        W 7199   7.219   9.915  11.720 -0.0582 -0.2670 -0.0122
 3149W        W 7200   9.367   6.702  13.284  0.1040  0.0888 -0.3759
 3150W        W 7201   0.418   6.444   3.444  0.3113 -0.1811  0.0991
 3151W        W 7202   8.912   8.117   0.602  0.2226 -0.3787 -0.2813
 3152W        W 7203   8.355   6.881  12.445 -0.0080  0.1776  0.2093
 3153W        W 7204   8.174   7.154   0.786 -0.0819  0.1053 -0.5721
 3154W        W 7205   3.463   5.119  13.144  0.1580  0.1237 -0.0200
 3155W        W 7206   9.284   0.866  11.191  0.0183 -0.1495 -0.0997
 3156W        W 7207   2.017   6.461   3.900 -0.0709 -0.2666  0.2564
 3157W        W 7208   4.414   1.815  10.258 -0.0269  0.0219 -0.2329
 3158W        W 7209   5.547   8.374  11.842 -0.0969 -0.4001 -0.1466
 3159W        W 7210   5.919   3.136  11.434  0.1638  0.2243  0.0041
 3160W        W 7211   1.379   9.569   2.164  0.2575  0.2074  0.2400
 3161W        W 7212   5.865   9.446   0.969  0.1491  0.0351 -0.0522
 3162W        W 7213   9.770   4.819   2.203  0.1452 -0.1874 -0.2752
 3163W        W 7214   0.964   9.120   1.462 -0.0522 -0.2874 -0.1133
 3164W        W 7215   2.690   0.195  12.811 -0.1859  0.0510 -0.0153
 3165W        W 7216   8.119   5.086   0.944  0.0128 -0.0582 -0.1745
 3166W        W 7217   9.691   1.284   1.527 -0.2428 -0.0814 -0.2098
 3167W        W 7218   5.093   2.276   9.458  0.0607 -0.1296  0.2413
 3168W        W 7219   3.708   9.430  12.966  0.3841  0.1047  0.1220
 3169W        W 7220   5.874   6.917  12.565  0.2846 -0.2722  0.2145
 3170W        W 7221   3.223   9.278  13.112  0.1323  0.1375 -0.0207
 3171W        W 7222   7.763   6.501   0.043  0.3256 -0.1704  0.0524
 3172W        W 7223   7.824   7.321   1.536  0.1454 -0.1552 -0.1460
 3173W        W 7224   8.730   6.051  11.117 -0.0345 -0.0439  0.1775
 3174W        W 7225   8.661   6.501   3.333  0.0699  0.1349  0.4757
 3175W        W 7226   6.895   8.494   9.874 -0.0210 -0.1957 -0.0601
 3176W        W 7227   7.743   1.116   0.004  0.2442 -0.1958  0.2868
 3177W        W 7228   1.790   6.982   3.166  0.1659 -0.2442  0.2568
 3178W        W 7229   2.170   2.725  12.110  0.2885  0.0375 -0.2513
 3179W        W 7230   1.656   6.177  12.511  0.0176 -0.0400  0.1386
 3180W        W 7231   5.216   9.765   1.932 -0.0326  0.2175 -0.0116
 3181W        W 7232   8.556   6.866  10.018  0.0422  0.0689 -0.1494
 3182W        W 7233   1.204   4.769   3.140 -0.1066  0.0487  0.0549
 3183W        W 7234   8.430   6.198   0.839 -0.2524 -0.1145  0.2413
 3184W        W 7235   2.176   0.434   2.705 -0.0419  0.0083 -0.2356
 3185W        W 7236   0.185   5.452  13.592 -0.2417  0.1480  0.1554
 3186W        W 7237   5.409   1.491   2.263  0.0059 -0.1576 -0.2308
 3187W        W 7238   5.244   8.799  13.758  0.1279 -0.0423 -0.2057
 3188W        W 7239   3.284   3.648   2.847 -0.1678  0.3159 -0.1005
 3189W        W 7240   4.253   3.160   3.749  0.0262 -0.2858  0.0386
 3190W        W 7241   8.616   7.825  11.206 -0.4258  0.1131 -0.0977
 3191W        W 7242   1.162   9.368   4.488 -0.2469 -0.1324 -0.1872
 3192W        W 7243   0.907   8.627   2.853  0.1662  0.0169 -0.0894
 3193W        W 7244   1.629   9.455   3.746 -0.1004 -0.0860  0.0292
 3194W        W 7245   4.722   4.314  12.125  0.0461  0.2293  0.1911
 3195W        W 7246   1.975   3.128   2.987  0.0124  0.3396 -0.0285
 3196W        W 7247   7.978   9.327   1.562  0.2258  0.2722 -0.1645
 3197W        W 7248   0.260   5.252  10.191 -0.1968 -0.3164  0.3372
 3198W        W 7249   2.138   9.873   2.514  0.0570  0.0613  0.2168
 3199W        W 7250   4.586   6.655  13.853  0.1580  0.0455 -0.1808
 3200W        W 7251   9.427   9.874  12.496 -0.1530 -0.2957 -0.0811
 3201W        W 7252   9.192   4.923   4.261 -0.1179 -0.0217  0.0187
 3202W        W 7253   3.414   2.249   9.809  0.1758 -0.1074 -0.0919
 3203W        W 7254   4.298   4.118   0.045 -0.1345 -0.0321 -0.0101
 3204W        W 7255   9.541   4.922   1.116  0.1278  0.1772 -0.0806
 3205W        W 7256   7.710   0.090   2.433  0.1881  0.0837 -0.0033
 3206W        W 7257   5.038   8.712   3.529 -0.2295 -0.1453 -0.0593
 3207W        W 7258   8.779   4.918  11.484  0.0837  0.0495 -0.0714
 3208W        W 7259   7.444   0.337   1.621  0.0031  0.3406  0.2771
 3209W        W 7260   6.426   1.467   4.266  0.0394 -0.0785 -0.1694
 3210W        W 7261   2.679   6.831   4.458 -0.1375 -0.0141 -0.0312
 3211W        W 7262   9.790   2.717   9.907 -0.0467 -0.1649  0.1838
 3212W        W 7263   2.132   7.871  12.238 -0.1831 -0.2480  0.0279
 3213W        W 7264   3.167   8.906   3.267  0.3979  0.2663 -0.1913
 3214W        W 7265   4.994   0.819  11.270  0.0707 -0.0132  0.1084
 3215W        W 7266   9.232   4.873  13.028 -0.3030  0.2537  0.1673
 3216W        W 7267   5.295   4.587   3.630 -0.1954  0.1183 -0.0112
 3217W        W 7268   3.164   1.031   0.901 -0.1209  0.0571  0.4344
 3218W        W 7269   2.830   8.500   3.160 -0.1866 -0.0922 -0.0873
 3219W        W 7270   2.444  10.129  13.473  0.0428 -0.1753  0.0196
 3220W        W 7271   8.038   8.564   4.773 -0.1710  0.0340  0.2767
 3221W        W 7272   9.274   7.491   4.042  0.2312 -0.0906  0.3766
 3222W        W 7273   2.452   4.452  13.026  0.0778 -0.1354  0.2021
 3223W        W 7274   2.966   8.957  10.843  0.0792  0.3102  0.0639
 3224W        W 7275   7.538   4.290  12.245  0.0738 -0.1563  0.1456
 3225W        W 7276   6.051   1.090  11.955  0.1542 -0.0059  0.2301
 3226W        W 7277   2.833   5.068  11.918  0.0673 -0.1427  0.0048
 3227W        W 7278   5.135   7.156   4.326 -0.0109 -0.1455  0.1614
 3228W        W 7279   3.812   6.826   5.580  0.1743 -0.3020  0.0227
 3229W        W 7280   7.478   6.725  10.915 -0.0797  0.0729 -0.0142
 3230W        W 7281   5.984   6.600   1.951 -0.1903 -0.0060 -0.0706
 3231W        W 7282   1.357   3.320  10.445  0.2578  0.2435 -0.1838
 3232W        W 7283   8.437   9.565   9.909  0.2576  0.3585 -0.0934
 3233W        W 7284   0.160   4.761   9.580  0.1744 -0.1128 -0.1034
 3234W        W 7285   8.674  10.089   3.964  0.0077 -0.1233 -0.0083
 3235W        W 7286   2.591   3.697  12.427  0.0586  0.2944  0.1490
 3236W        W 7287   3.678   0.774   0.092  0.1532 -0.1100 -0.2002
 3237W        W 7288   8.708   5.923   4.553 -0.2494  0.0506  0.0232
 3238W        W 7289   7.456   7.795  12.367 -0.1116 -0.1708  0.1080
 3239W        W 7290   3.316   9.171  13.896  0.2253  0.1664 -0.0028
 3240W        W 7291   1.917   5.389   4.295  0.0346 -0.2180  0.0910
 3241W        W 7292   6.314   6.195   0.890  0.0747 -0.1105  0.0236
 3242W        W 7293   8.136   7.882  12.800 -0.2414  0.3145  0.0368
 3243W        W 7294   2.556   9.422   2.256 -0.2048  0.2276 -0.0063
 3244W        W 7295   7.714   9.985   1.289 -0.1270  0.0259  0.0960
 3245W        W 7296   5.630   4.343  10.357 -0.0159 -0.0999 -0.0240
 3246W        W 7297   6.887   5.856   9.213  0.0867 -0.1968 -0.1796
 3247W        W 7298   6.846   7.520   2.512 -0.2657  0.1755 -0.1751
 3248W        W 7299   6.398  10.036   4.880 -0.2488  0.2169 -0.1935
 3249W        W 7300   6.323   1.854  12.687  0.0109  0.0323  0.0655
 3250W        W 7301   4.336   4.753  11.211  0.0086 -0.1592  0.1231
 3251W        W 7302   9.592   9.380   2.441 -0.0989 -0.2940  0.1628
 3252W        W 7303   8.785   7.241  10.901  0.0883  0.0599  0.1446
 3253W        W 7304   5.503   9.698  12.550  0.1134 -0.2008 -0.2234
 3254W        W 7305   9.417   6.348   0.948 -0.1364 -0.0428 -0.1055
 3255W        W 7306   4.663   1.652  11.698 -0.0280  0.0116 -0.0886
 3256W        W 7307   3.226   2.910   2.604 -0.4036  0.3494 -0.2769
 3257W        W 7308   5.270   4.264   9.354  0.0587  0.1258 -0.1919
 3258W        W 7309   0.242   8.825  10.258  0.1389  0.0366  0.0213
 3259W        W 7310   0.787   9.953  13.870 -0.1108  0.2414  0.0762
 3260W        W 7311   1.865   1.761   2.793 -0.1360 -0.0421 -0.0309
 3261W        W 7312   8.834   6.977   4.854 -0.0022 -0.0353 -0.1970
 3262W        W 7313   2.813   3.361   4.385 -0.0452 -0.3225 -0.0307
 3263W        W 7314   5.937   9.474   2.642  0.1260  0.4032 -0.0583
 3264W        W 7315   5.992   6.128  10.870  0.3279  0.2103 -0.0070
 3265W        W 7316   2.067   9.731  11.987  0.1445  0.0642 -0.3638
 3266W        W 7317   8.851   0.263  13.885 -0.1641 -0.0641 -0.0387
 3267W        W 7318   4.996   4.632   9.243  0.3385  0.0432 -0.2077
 3268W        W 7319   2.419   4.155   1.476 -0.0304  0.0401 -0.2362
 3269W        W 7320   1.326   2.365   3.403  0.1435 -0.0482  0.1842
 3270W        W 7321   0.641   7.886  10.928 -0.1262 -0.0911  0.0902
 3271W        W 7322   2.093   5.549  11.097 -0.0574 -0.1257  0.3515
 3272W        W 7323   4.978   4.473   0.832 -0.3148 -0.1537 -0.0554
 3273W        W 7324   1.330   4.784   8.734 -0.0903  0.2745 -0.0736
 3274W        W 7325   9.830   6.371   0.034  0.0477  0.3774  0.0017
 3275W        W 7326   7.627   9.822  13.510 -0.0477 -0.0607  0.1252
 3276W        W 7327   8.480   4.358   1.297  0.2461  0.1500 -0.0411
 3277W        W 7328   8.487   3.437   2.497 -0.0033  0.0492 -0.0661
 3278W        W 7329   9.621   0.346  13.485  0.0052 -0.3651 -0.2678
 3279W        W 7330   1.182   2.563   1.655 -0.1997 -0.0318 -0.1678
 3280W        W 7331   7.674   4.398  10.061  0.1094 -0.2176 -0.0341
 3281W        W 7332   9.510   0.169   9.878 -0.1923 -0.1977  0.1373
 3282W        W 7333   8.593   8.090   3.904 -0.0828 -0.0701 -0.0005
 3283W        W 7334   6.718   3.658  12.565 -0.0751 -0.0366  0.3532
 3284W        W 7335   7.839   9.447  12.480  0.3268 -0.2947 -0.2000
 3285W        W 7336   2.211   1.740   4.695  0.1274 -0.0822  0.0716
 3286W        W 7337   5.330   4.692  12.808  0.1160 -0.0671  0.0404
 3287W        W 7338   4.690   7.300   4.513 -0.2341 -0.1237 -0.0360
 3288W        W 7339   3.829   1.328   1.130 -0.0672 -0.1905  0.0915
 3289W        W 7340   0.363   5.972   4.421 -0.0032  0.0689  0.1517
 3290W        W 7341   1.041   0.553   3.499  0.1485 -0.1640 -0.0372
 3291W        W 7342   5.735   1.743   3.907  0.2160  0.0243  0.0012
 3292W        W 7343   3.848   0.035   1.650  0.3120 -0.0046 -0.2884
 3293W        W 7344   1.076   5.149   9.529  0.0703  0.0080  0.1569
 3294W        W 7345   6.904   0.451  10.255  0.1942 -0.0216 -0.0964
 3295W        W 7346   3.679   9.010   4.614  0.0936  0.0327  0.1401
 3296W        W 7347  10.152   4.541   4.506 -0.1082 -0.1999 -0.1652
 3297W        W 7348   2.905   2.556   0.851 -0.1129  0.0633 -0.2184
 3298W        W 7349   5.649   7.295  12.281 -0.0677 -0.1129  0.3229
 3299W        W 7350   1.850   4.189   4.068  0.3551 -0.0375  0.1205
 3300W        W 7351   4.095   5.471  12.553  0.1186  0.0032 -0.0930
 3301W        W 7352   9.184   3.479  13.672 -0.0739  0.0847 -0.0785
 3302W        W 7353   6.069   6.753   0.734 -0.1437 -0.1410  0.0881
 3303W        W 7354   1.463   8.185   3.368 -0.4903  0.1933  0.1414
 3304W        W 7355   0.894   1.656   2.887  0.2779 -0.0204 -0.0165
 3305W        W 7356   9.477   5.843   2.454 -0.2527  0.2331 -0.2773
 3306W        W 7357   6.752   5.961  12.571  0.0952 -0.3892  0.1022
 3307W        W 7358   2.813   2.777   2.461 -0.0388 -0.0256 -0.0714
 3308W        W 7359   9.252   3.861   3.454  0.1357  0.0113  0.1334
 3309W        W 7360   3.939   6.139   2.556 -0.0381 -0.1355  0.1842
 3310W        W 7361   6.508   1.544   0.667  0.1258 -0.3351 -0.2189
 3311W        W 7362   8.459   2.003   2.452 -0.0666  0.0397  0.2280
 3312W        W 7363   2.334   9.889   0.574  0.1103  0.3399  0.3439
 3313W        W 7364   6.397   9.555  12.338  0.2195  0.0275 -0.0049
 3314W        W 7365   8.297   5.060  11.328  0.0521  0.1031  0.1870
 3315W        W 7366   5.145   6.127   1.593  0.1227  0.0695  0.1794
 3316W        W 7367   8.781   2.845  13.359 -0.0466 -0.0708 -0.0505
 3317W        W 7368   3.991   6.012   0.038 -0.0419 -0.3709  0.0316
 3318W        W 7369   8.809   3.472  10.396  0.1381 -0.0897 -0.2966
 3319W        W 7370   6.544   8.879   1.278  0.1222 -0.1243 -0.1145
 3320W        W 7371   0.001   2.160  12.680  0.2220 -0.0893  0.0191
 3321W        W 7372   1.857   1.799   2.264  0.0624 -0.1616  0.3879
 3322W        W 7373   0.474   4.227   0.954 -0.1501  0.4205 -0.1388
 3323W        W 7374   0.311   4.306   2.199 -0.0363 -0.0461  0.1434
 3324W        W 7375   2.219   5.877   1.253  0.0532 -0.1237  0.1228
 3325W        W 7376   1.850   9.341   2.418  0.0082 -0.0070  0.2939
 3326W        W 7377   8.350   7.699  13.591 -0.1751  0.0033  0.0047
 3327W        W 7378   2.534   7.120  13.496  0.0848 -0.0585  0.1896
 3328W        W 7379   4.461   6.959   2.185 -0.1540 -0.1454  0.4205
 3329W        W 7380   5.957   9.105  12.952  0.4972  0.1451  0.0070
 3330W        W 7381   4.896   2.892   4.096  0.1374 -0.0092  0.3350
 3331W        W 7382   6.143   6.905  10.289 -0.2038  0.2636  0.0196
 3332W        W 7383   3.658   8.152   4.701  0.1882 -0.2103 -0.0088
 3333W        W 7384   6.024   1.961  12.306  0.2002 -0.0885  0.2006
 3334W        W 7385   4.712   9.003   1.357 -0.1106  0.3046  0.3451
 3335W        W 7386   8.789   1.726  13.057 -0.0306 -0.2253 -0.0801
 3336W        W 7387   4.681   3.614   3.427  0.0932 -0.2909  0.1313
 3337W        W 7388   0.401   5.088  11.184  0.1594  0.2880  0.0512
 3338W        W 7389   1.126   3.734  10.600 -0.0266  0.2233  0.4360
 3339W        W 7390   4.987   0.904   9.889  0.1799 -0.1406  0.1828
 3340W        W 7391   0.261   2.507   1.280 -0.3228 -0.0169 -0.2223
 3341W        W 7392   7.159   7.109  13.657  0.0767 -0.1272 -0.4343
 3342W        W 7393   6.336   2.149   3.252 -0.0450  0.0816 -0.3909
 3343W        W 7394   7.042   3.983  10.294 -0.2505 -0.0776  0.0399
 3344W        W 7395   4.444   1.899   4.131  0.0493  0.0662  0.1726
 3345W        W 7396   7.437   4.922   3.177  0.1804 -0.0178  0.0231
 3346W        W 7397   4.784   2.248   3.351  0.2649 -0.3002  0.3060
 3347W        W 7398   9.930   1.631  13.879  0.0789  0.3574 -0.0836
 3348W        W 7399   7.416   4.775   0.499  0.4047  0.0296  0.0489
 3349W        W 7400   6.198   4.285  13.915  0.2198 -0.1007 -0.0358
 3350W        W 7401  10.054   9.878   0.681 -0.1044 -0.0253  0.0635
 3351W        W 7402   8.706   3.150   0.426  0.2046  0.0133 -0.1817
 3352W        W 7403   0.480   6.880  10.438 -0.1645 -0.0135  0.4000
 3353W        W 7404   6.106   2.121   2.270 -0.0964  0.1378  0.1296
 3354W        W 7405   1.358   7.293   2.517  0.0772 -0.1042 -0.1821
 3355W        W 7406   3.470   3.419   2.325 -0.2190  0.3079 -0.1320
 3356W        W 7407   9.809   0.786  12.774 -0.2459  0.1636 -0.1448
 3357W        W 7408   5.090   1.640   1.480 -0.1090  0.0191  0.2625
 3358W        W 7409   9.296   1.264  10.506 -0.1677 -0.1061 -0.0208
 3359W        W 7410   3.982   6.660   1.342  0.0235  0.1280 -0.1432
 3360W        W 7411   1.394   9.756  10.197  0.1149  0.0600  0.1305
 3361W        W 7412   2.363   6.059   4.765 -0.1015 -0.0886 -0.0193
 3362W        W 7413   0.385   3.252   2.839 -0.1947 -0.0452 -0.0276
 3363W        W 7414   6.266   9.819   4.142  0.2250 -0.0789  0.5053
 3364W        W 7415   9.009   7.673   0.384 -0.0358  0.0115  0.3200
 3365W        W 7416   9.607   3.090  12.736  0.2224 -0.1113  0.2772
 3366W        W 7417   0.404   2.103   0.544  0.0767 -0.1504 -0.0384
 3367W        W 7418   4.791   4.795  11.442  0.0192  0.0874 -0.0941
 3368W        W 7419   5.910   3.824   2.148 -0.0986 -0.0928 -0.0007
 3369W        W 7420   0.901   2.268   3.715  0.3764  0.0435 -0.2238
 3370W        W 7421   1.215   6.079   9.991  0.0582 -0.0042 -0.2087
 3371W        W 7422   3.537  10.106   4.286 -0.0379  0.3041 -0.1628
 3372W        W 7423   4.905   7.753  12.663  0.2913 -0.1921  0.1785
 3373W        W 7424   3.617   0.383   2.647 -0.0742 -0.1087 -0.2059
 3374W        W 7425   1.409   5.985   9.483  0.2669 -0.3046  0.3339
 3375W        W 7426   5.402   4.130  12.189 -0.1377  0.0271  0.1405
 3376W        W 7427   7.319   8.078   4.389 -0.2147 -0.0913 -0.0025
 3377W        W 7428   2.167   0.332   3.625  0.1567 -0.1288  0.0209
 3378W        W 7429   4.103   9.973   5.007 -0.3631 -0.0369  0.3683
 3379W        W 7430   0.353   7.324   1.318 -0.0493  0.0454 -0.3386
 3380W        W 7431   9.815   5.195   1.821  0.2822 -0.1450 -0.0525
 3381W        W 7432   3.162   9.765   2.189  0.2484 -0.1718 -0.0703
 3382W        W 7433   3.746   0.396  13.539  0.3669  0.1366 -0.2015
 3383W        W 7434   1.673   8.254   0.062 -0.0889  0.0206 -0.2482
 3384W        W 7435   2.755   4.083   1.105 -0.1389  0.0969 -0.2277
 3385W        W 7436  10.045   5.247  12.025 -0.1632 -0.2476  0.1407
 3386W        W 7437   8.562   6.696   0.952  0.0711 -0.3987 -0.1929
 3387W        W 7438   1.484   8.069  13.045 -0.2185  0.0089  0.4895
 3388W        W 7439   8.003   6.184   2.128  0.1781  0.1850  0.1914
 3389W        W 7440   5.231   0.347   0.068 -0.0323 -0.0853 -0.2966
 3390W        W 7441   6.461   5.541  11.657 -0.2018  0.0374  0.2007
 3391W        W 7442   4.637   6.946   0.620  0.1269  0.0385 -0.0435
 3392W        W 7443   9.756   2.266  12.322  0.2409 -0.3333 -0.0649
 3393W        W 7444   4.477   0.531   3.839  0.0639  0.0424  0.1032
 3394W        W 7445   9.697   0.156   1.983  0.0748 -0.0648  0.1793
 3395W        W 7446   1.407   5.314   1.421  0.1738  0.1619  0.1224
 3396W        W 7447   8.353   7.865   2.936 -0.0701 -0.2095  0.2773
 3397W        W 7448   1.287   6.001   3.044 -0.0155  0.0358  0.0337
 3398W        W 7449   4.967   1.694  11.091 -0.0609 -0.0197 -0.1279
 3399W        W 7450   6.072   1.640   9.445  0.1144 -0.1439 -0.2655
 3400W        W 7451   4.957   5.964  10.652  0.2145 -0.2979 -0.2223
 3401W        W 7452   3.579   7.985   0.117 -0.1634 -0.0854  0.1700
 3402W        W 7453   4.185   2.121   4.562 -0.1993  0.4267  0.3109
 3403W        W 7454   7.904   1.950   3.268 -0.3159 -0.2726  0.0866
 3404W        W 7455   3.888   4.388   0.119  0.2207 -0.2344 -0.0802
 3405W        W 7456   7.673   6.056   0.283  0.2433  0.0520 -0.2370
 3406W        W 7457   5.310  10.105  11.746 -0.1554 -0.0101  0.0705
 3407W        W 7458   5.376   2.216  10.583  0.1593 -0.0148  0.3557
 3408W        W 7459   7.412   1.126  12.271 -0.0739  0.1567  0.2291
 3409W        W 7460   3.003   6.927   1.515  0.2189  0.2986 -0.2398
 3410W        W 7461   0.756   0.098   0.217  0.1401 -0.1233 -0.0159
 3411W        W 7462   9.438   4.951   2.526 -0.1103 -0.1546 -0.2296
 3412W        W 7463   4.511   2.913   4.658  0.2004 -0.1100  0.3117
 3413W        W 7464   2.934   4.824   1.973  0.2128 -0.0483 -0.0378
 3414W        W 7465   7.785   2.394  12.317  0.0267  0.1936 -0.2069
 3415W        W 7466   0.635   1.316  13.907 -0.0349 -0.0094 -0.0775
 3416W        W 7467   9.544   8.205   1.930  0.1738  0.1429 -0.0046
 3417W        W 7468   9.327   6.309   1.436  0.0082 -0.2397 -0.0316
 3418W        W 7469   4.945   9.956   0.986 -0.1056 -0.0285 -0.0819
 3419W        W 7470   2.904   7.411  10.781  0.3228  0.0063 -0.2321
 3420W        W 7471   9.736   4.590   2.715  0.0795  0.2390 -0.1508
 3421W        W 7472   9.417   0.595  10.791 -0.5457  0.3308  0.2439
 3422W        W 7473   8.241   8.062   3.441 -0.1511 -0.3646  0.0682
 3423W        W 7474   4.638   1.408  13.133  0.1246 -0.2143 -0.0582
 3424W        W 7475   3.194   9.205  12.216 -0.2339 -0.2796 -0.0211
 3425W        W 7476   5.750   5.465  12.109  0.1417 -0.2650 -0.3444
 3426W        W 7477   1.304   1.439  10.286 -0.1381 -0.3296 -0.0075
 3427W        W 7478   4.464  10.107  11.613 -0.3141 -0.0987  0.4165
 3428W        W 7479   1.734   1.295   2.261  0.2620  0.1204  0.0765
 3429W        W 7480   5.206   6.265   2.185  0.0254 -0.1116 -0.0888
 3430W        W 7481   7.841   3.214  10.290 -0.2763  0.2930  0.2373
 3431W        W 7482   8.291   2.530  12.453 -0.0965  0.0603  0.1928
 3432W        W 7483   1.448   8.873  12.649 -0.0531  0.2323  0.1164
 3433W        W 7484   0.382   3.015   1.027 -0.0198 -0.0573 -0.1956
 3434W        W 7485   1.839   6.660   1.708 -0.2154  0.0148  0.1081
 3435W        W 7486   6.473   8.096  13.203 -0.0118 -0.0576 -0.1347
 3436W        W 7487   5.877   0.413  11.508  0.3904  0.3244  0.4227
 3437W        W 7488   2.406   3.200  12.266 -0.1219 -0.0310 -0.0613
 3438W        W 7489   2.371   1.859   2.063  0.2747  0.1133 -0.0929
 3439W        W 7490   9.498   8.980  13.828  0.1956 -0.1374 -0.2237
 3440W        W 7491   7.767   8.288   1.966  0.1183  0.1064 -0.0770
 3441W        W 7492   0.737   5.702  13.623 -0.1203  0.0380 -0.0000
 3442W        W 7493  10.061   5.053  13.388 -0.1979  0.2060 -0.0323
 3443W        W 7494   3.743   0.643   8.401 -0.1290 -0.1371 -0.1145
 3444W        W 7495   2.502   0.207   9.600  0.2519  0.2862  0.1503
 3445W        W 7496   9.305   4.486   0.832 -0.0537 -0.0645 -0.0932
 3446W        W 7497   1.886   8.950   0.579 -0.0891  0.3105  0.0902
 3447W        W 7498   2.805   0.320  13.803 -0.0818 -0.1617 -0.0070
 3448W        W 7499   1.095   4.845   4.150 -0.1321  0.1342 -0.2781
 3449W        W 7500   4.831   9.535  11.497  0.2369 -0.0450  0.0732
 3450W        W 7501   8.279   3.910  12.862  0.0662  0.0238  0.0446
 3451W        W 7502   4.697   5.726  12.096 -0.0944 -0.1143  0.3811
 3452W        W 7503   9.603   4.837  11.444  0.2265  0.0158 -0.0908
 3453W        W 7504   5.831   8.266   0.939  0.0360  0.0137  0.1856
 3454W        W 7505   5.278   2.334   0.092 -0.0427 -0.0019 -0.1450
 3455W        W 7506   5.085   9.062  13.290  0.0359 -0.0826  0.0222
 3456W        W 7507   1.527   6.264   1.681  0.2040  0.2176  0.0327
 3457W        W 7508   0.650   5.916  10.842  0.1327 -0.2136 -0.0219
 3458W        W 7509   1.947   3.032  10.112 -0.0574  0.0446  0.1029
 3459W        W 7510   2.623   1.458   1.723 -0.0006  0.1632 -0.3087
 3460W        W 7511   5.602   5.062  13.047 -0.1877 -0.1053  0.2073
 3461W        W 7512   8.406   7.378   4.843  0.0355 -0.2533 -0.3692
 3462W        W 7513   0.974   6.519  10.045 -0.0962 -0.0760  0.0223
 3463W        W 7514   0.969   5.037   2.118  0.1158 -0.0132  0.1135
 3464W        W 7515   3.303   4.884  13.573  0.0568  0.4054  0.2535
 3465W        W 7516   6.701   4.923   2.545 -0.0612  0.1194 -0.2390
 3466W        W 7517   5.216   7.545  10.400  0.3180  0.0572  0.1272
 3467W        W 7518   1.059   8.285   4.526  0.2875  0.1214  0.1085
 3468W        W 7519   9.404   4.754  11.024 -0.1674  0.2202 -0.0178
 3469W        W 7520   2.492   2.174  10.097  0.1595  0.0291 -0.0950
 3470W        W 7521   4.785   8.610   4.330  0.0251 -0.1816  0.2697
 3471W        W 7522   7.257   9.754   1.143 -0.0070  0.1692  0.2730
 3472W        W 7523   0.242  10.030  11.259  0.0835  0.0562 -0.0297
 3473W        W 7524   1.722   0.714  13.457 -0.3691 -0.0269  0.3285
 3474W        W 7525   7.423   1.502   2.983 -0.0025 -0.2428  0.0506
 3475W        W 7526   3.299   5.063   2.858 -0.0057  0.0958  0.0031
 3476W        W 7527   0.492   0.248   3.353  0.0410  0.0019  0.0888
 3477W        W 7528   4.560   4.839   4.893  0.0952 -0.3592 -0.1609
 3478W        W 7529   3.243   1.563   3.194 -0.2221 -0.2173 -0.0247
 3479W        W 7530   8.362   6.443  10.238 -0.2158 -0.3241  0.0464
 3480W        W 7531   5.052   3.307   3.265  0.1541 -0.0695 -0.2428
 3481W        W 7532   7.483   7.985  10.504  0.3013 -0.3204  0.1077
 3482W        W 7533   5.998   7.091   1.887  0.1200  0.0228  0.0745
 3483W        W 7534   5.700   3.008   9.583 -0.1945  0.0173 -0.2633
 3484W        W 7535   1.876   8.947  10.708 -0.1240 -0.1962 -0.2987
 3485W        W 7536   7.973   6.854   9.938 -0.2667  0.1475 -0.1192
 3486W        W 7537   4.232   7.455   9.295 -0.3933  0.1178 -0.0057
 3487W        W 7538   4.942   8.109   4.388  0.1237 -0.1714  0.1650
 3488W        W 7539   3.767   1.959   1.717 -0.2055  0.1827  0.0092
 3489W        W 7540   0.467   5.722   0.979  0.3570  0.0344 -0.3680
 3490W        W 7541   6.923   9.437   3.655  0.2704  0.1999  0.1186
 3491W        W 7542   7.798   6.147  11.320 -0.0353  0.0780  0.3221
 3492W        W 7543   2.406   3.267   1.828  0.0764 -0.2616  0.0583
 3493W        W 7544   2.822   9.613  13.102 -0.1209  0.0696 -0.1832
 3494W        W 7545   5.998   6.667  13.554  0.2320  0.0069  0.1238
 3495W        W 7546   7.805   8.445   5.210  0.4207  0.1819  0.0229
 3496W        W 7547   2.232   7.845   3.883  0.0294 -0.1037 -0.0113
 3497W        W 7548   8.746   6.033  12.319  0.1257 -0.0546 -0.0896
 3498W        W 7549   6.030   5.889  11.807 -0.0596  0.0672  0.0538
 3499W        W 7550   1.852   6.655   0.874  0.1939 -0.0214 -0.2221
 3500W        W 7551   0.274  10.102   3.626 -0.0922  0.2785 -0.1256
 3501W        W 7552   3.084   8.966  11.336  0.0047 -0.0638  0.1534
 3502W        W 7553   6.436   2.224  13.076  0.0400 -0.0161  0.0592
 3503W        W 7554   2.849   8.300   4.114 -0.3070 -0.0385  0.2982
 3504W        W 7555   4.413   3.731   9.755 -0.1788 -0.1176  0.2145
 3505W        W 7556   8.835   0.899  10.277  0.0447 -0.2819  0.1115
 3506W        W 7557   9.536   9.288   4.381  0.3806 -0.1328  0.0931
 3507W        W 7558   3.225   2.988  12.049 -0.0577  0.0402  0.2846
 3508W        W 7559   1.810   5.827   0.916  0.1869 -0.0034  0.1198
 3509W        W 7560   3.475   6.766   1.516 -0.0077  0.0119 -0.0909
 3510W        W 7561   9.313  10.068  12.932 -0.0523  0.2126  0.2369
 3511W        W 7562   5.477   9.443   2.406 -0.2301  0.2509 -0.0626
 3512W        W 7563   5.059  10.175   9.049  0.5138  0.0891  0.2073
 3513W        W 7564   2.198   3.456   2.682  0.2926  0.1978 -0.0114
 3514W        W 7565   4.160   2.057  12.391 -0.2057  0.5939  0.1166
 3515W        W 7566   9.616   8.098   2.860 -0.0038  0.0280 -0.0026
 3516W        W 7567   5.336   6.586   2.548 -0.0519 -0.0528 -0.2313
 3517W        W 7568   8.021   3.609   2.428  0.2220  0.1084 -0.2889
 3518W        W 7569   2.865   1.254   5.164  0.0856  0.0426 -0.2164
 3519W        W 7570   7.822   5.117   9.714  0.1248  0.1152  0.3791
 3520W        W 7571   1.452   7.114  10.429 -0.1225 -0.0645  0.0353
 3521W        W 7572   1.408   5.241   9.938 -0.0955  0.0277 -0.1903
 3522W        W 7573   2.341   3.170   0.111  0.1708  0.1339  0.1103
 3523W        W 7574   5.411   8.735  12.840 -0.3627 -0.0962 -0.1542
 3524W        W 7575   3.801   3.631  12.167 -0.0631  0.0707  0.3011
 3525W        W 7576   5.565   6.401  13.381 -0.0387 -0.1999  0.1291
 3526W        W 7577   7.817   3.809  12.861 -0.0693  0.0234  0.2226
 3527W        W 7578   9.539   5.127  10.662  0.0281  0.0872  0.3421
 3528W        W 7579   3.275   2.557   0.521  0.0615  0.1995  0.1910
 3529W        W 7580   6.886   5.540  13.482 -0.0727  0.1787  0.2519
 3530W        W 7581   1.370   6.547   9.731  0.1593  0.0198 -0.0283
 3531W        W 7582   9.776   6.990   1.769  0.1821 -0.1465  0.0795
 3532W        W 7583   6.978   2.691   3.684  0.3662  0.0575  0.1641
 3533W        W 7584  10.152   7.497   4.405  0.0113  0.2959 -0.2955
 3534W        W 7585   6.940   0.659   0.415 -0.3722 -0.1677  0.0727
 3535W        W 7586   3.551   3.611  12.905 -0.1767 -0.0007  0.1648
 3536W        W 7587   6.837   9.407  12.468  0.1282  0.1504 -0.2730
 3537W        W 7588   7.382   7.275   5.657 -0.0037 -0.2308  0.2148
 3538W        W 7589   8.352   6.827   4.785  0.0122  0.2893 -0.3336
 3539W        W 7590   9.515   5.326   2.907  0.1119 -0.0962 -0.0866
 3540W        W 7591   0.050   3.518  13.322  0.0646 -0.1047 -0.0216
 3541W        W 7592   1.052   7.622   1.054  0.1778  0.2673 -0.1926
 3542W        W 7593   4.901   7.652   4.213 -0.0725  0.2938  0.1124
 3543W        W 7594   4.712   5.055  11.001  0.0890  0.1322  0.3667
 3544W        W 7595   6.126   6.094   2.849  0.2989  0.3867  0.2143
 3545W        W 7596   8.791   5.100   0.389 -0.1341  0.1406  0.3022
 3546W        W 7597   8.453   7.409  10.039 -0.2820 -0.5785 -0.2952
 3547W        W 7598  10.025   7.452  10.110 -0.2491  0.1606  0.3287
 3548W        W 7599   8.306  10.007   4.714  0.0131 -0.1446 -0.0877
 3549W        W 7600   1.036   1.858  10.266  0.0872 -0.3862  0.1313
 3550W        W 7601   2.136   9.491   9.640 -0.2128  0.4727 -0.1932
 3551W        W 7602   6.779   3.046   0.335  0.3622 -0.1198  0.0425
 3552W        W 7603   2.003   5.594   0.018  0.0689 -0.0373 -0.1606
 3553W        W 7604   2.276   7.737   0.293  0.2514  0.0182 -0.0621
 3554W        W 7605   8.148   4.517  12.170 -0.2512  0.1771 -0.4980
 3555W        W 7606   1.479   8.995   2.439 -0.1374  0.0502 -0.1807
 3556W        W 7607   9.018   3.411   0.822  0.0268 -0.1728 -0.1855
 3557W        W 7608   9.260   5.407   8.904 -0.1353 -0.1532  0.1887
 3558W        W 7609   9.320   9.162   1.531 -0.0735  0.0262 -0.1818
 3559W        W 7610   2.618   1.803  12.302 -0.0893 -0.0917  0.0769
 3560W        W 7611   5.699   1.267  10.247  0.2767 -0.0739  0.2235
 3561W        W 7612   1.186  10.050  10.550  0.0627  0.1923  0.3383
 3562W        W 7613   5.436   7.948   4.236  0.1035 -0.2111  0.3532
 3563W        W 7614   1.218   0.734   2.742  0.1575 -0.0013 -0.1945
 3564W        W 7615   6.525   1.116  11.881 -0.0283 -0.0541 -0.5643
 3565W        W 7616   8.073   8.587   0.441 -0.0534 -0.0145  0.1381
 3566W        W 7617   4.937   0.209   1.291  0.0409 -0.0279  0.0037
 3567W        W 7618   8.484   7.350  11.300  0.4945  0.0490 -0.1692
 3568W        W 7619   1.900   7.036  13.866 -0.2419  0.0421 -0.1308
 3569W        W 7620   2.519   0.590   1.229  0.1335  0.0542  0.1736
 3570W        W 7621   3.681   5.720   1.271  0.2485 -0.1627 -0.1610
 3571W        W 7622   6.734   4.132  10.714  0.1296 -0.0787 -0.1111
 3572W        W 7623   8.157   8.253   1.471 -0.3682  0.0271 -0.2800
 3573W        W 7624   9.105   3.245   2.340 -0.1330  0.0356 -0.1984
 3574W        W 7625   3.139   4.030   0.170 -0.5289 -0.0514 -0.3739
 3575W        W 7626   7.089   6.327  10.907 -0.0128  0.0617  0.0078
 3576W        W 7627   9.367   6.680  10.219  0.2666  0.2201  0.0580
 3577W        W 7628   6.895   3.277  12.261 -0.0813  0.3436 -0.0409
 3578W        W 7629   3.120   6.013   0.550  0.2390  0.0077 -0.2291
 3579W        W 7630   2.609   6.613   3.207  0.0606  0.1489 -0.0692
 3580W        W 7631   2.274   2.761   0.459 -0.0194 -0.2520 -0.0381
 3581W        W 7632   7.666   4.669   0.938  0.4653 -0.0810 -0.3735
 3582W        W 7633   1.065   5.587   0.062 -0.2212  0.2080 -0.0165
 3583W        W 7634   7.652   2.889  12.449  0.1645  0.1979  0.0110
 3584W        W 7635   3.861   9.087  13.902  0.0194  0.1077  0.1935
 3585W        W 7636   9.950   5.601   2.730 -0.0008 -0.0390  0.2430
 3586W        W 7637   3.355   1.714  11.743  0.3076 -0.4176  0.0832
 3587W        W 7638   3.535   9.388   3.119 -0.0754  0.0171  0.2590
 3588W        W 7639   2.453   8.036  12.615 -0.2529  0.1206  0.0281
 3589W        W 7640   1.848   7.393  10.662  0.0494  0.3518  0.1047
 3590W        W 7641   1.990   4.376   0.250  0.2652  0.1784  0.1200
 3591W        W 7642   9.617   8.261  10.278 -0.2990  0.2544  0.3216
 3592W        W 7643   1.918   4.219  11.258 -0.0633 -0.0387  0.1420
 3593W        W 7644   2.585   9.445   0.623 -0.2512 -0.0939 -0.2445
 3594W        W 7645   4.699   6.692   4.698 -0.1697  0.1458  0.1384
 3595W        W 7646   0.930   0.155   3.078 -0.2525 -0.0389 -0.0604
 3596W        W 7647   6.601   0.233  12.910  0.0286  0.2839 -0.1401
 3597W        W 7648   9.052   9.766  11.478 -0.0867 -0.0061  0.0965
 3598W        W 7649   3.807   5.962   2.065  0.1277 -0.1116 -0.0318
 3599W        W 7650   6.570   6.961  11.771 -0.1320  0.1058  0.1878
 3600W        W 7651   6.125   8.904   3.609  0.0862  0.0015  0.1141
 3601W        W 7652   5.331   0.176   4.414  0.1583  0.1912  0.2241
 3602W        W 7653   1.524   1.074   1.840  0.1425 -0.1009 -0.3719
 3603W        W 7654   1.733   2.910  13.534  0.1314 -0.1756  0.0982
 3604W        W 7655   7.228   2.481   1.084  0.0009  0.0334 -0.0720
 3605W        W 7656   7.124   3.380   2.932  0.0435  0.0877  0.0320
 3606W        W 7657   8.864   7.679   0.967  0.2989 -0.0657 -0.1562
 3607W        W 7658   5.056   9.588  12.302 -0.2274  0.0842 -0.0884
 3608W        W 7659   2.899  10.148   4.148  0.2560  0.2488 -0.4186
 3609W        W 7660   6.479   2.515   1.746  0.1319  0.3713 -0.1059
 3610W        W 7661   3.182   0.263   9.218  0.1488 -0.1664 -0.1790
 3611W        W 7662   4.407   6.473  11.093  0.0450 -0.1884  0.1176
 3612W        W 7663   2.500   8.292  10.854 -0.1019 -0.2986 -0.2683
 3613W        W 7664   3.091   7.711  10.405  0.1373  0.4745 -0.0146
 3614W        W 7665   9.409   5.111   1.549  0.0468 -0.0537  0.0084
 3615W        W 7666   0.050   4.176   2.657 -0.1369  0.1534 -0.0311
 3616W        W 7667   2.017   0.294  11.010 -0.0909  0.3767  0.0309
 3617W        W 7668   7.164   0.477   2.499  0.1030  0.0337 -0.0979
 3618W        W 7669   9.405   5.402   4.560 -0.1846 -0.1069 -0.0124
 3619W        W 7670   3.855   5.842   4.070  0.1084 -0.1482  0.0591
 3620W        W 7671   7.849   2.258  10.122 -0.2265 -0.1308  0.0556
 3621W        W 7672   6.871   8.770  13.722 -0.0689 -0.0022 -0.2649
 3622W        W 7673   5.079   7.981  10.067  0.1575 -0.0324  0.5244
 3623W        W 7674   2.874   6.277   0.889  0.1269  0.0865 -0.2080
 3624W        W 7675  10.041   3.518  13.787  0.0909  0.0837 -0.0820
 3625W        W 7676   6.368   1.047  13.395  0.1145  0.0657  0.1352
 3626W        W 7677   2.341   9.022   0.897  0.0887 -0.0465  0.1083
 3627W        W 7678   4.290   9.095   0.916 -0.0102  0.1967 -0.2245
 3628W        W 7679   5.202   3.880   4.049  0.0437  0.0171 -0.1590
 3629W        W 7680   9.366   6.950   9.657  0.3571 -0.1657 -0.1947
 3630W        W 7681   0.852   3.515  10.997 -0.3160  0.0303  0.1039
 3631W        W 7682   7.797   7.971   0.508  0.1703  0.1188 -0.0143
 3632W        W 7683   6.442   7.893   4.133  0.4080  0.2133  0.2154
 3633W        W 7684   5.128   8.425   5.123  0.3155 -0.2185 -0.0261
 3634W        W 7685   6.074   0.802   4.329  0.0976  0.1539 -0.0336
 3635W        W 7686   3.703   2.505   4.794 -0.0951 -0.2778  0.1644
 3636W        W 7687   3.983   7.096  12.554  0.1618 -0.0290 -0.1884
 3637W        W 7688   7.733   6.409  11.922 -0.4170  0.0001  0.0765
 3638W        W 7689   6.031   2.748  13.810 -0.1283  0.0495  0.0315
 3639W        W 7690   0.703   6.144   3.218  0.0435 -0.2556  0.1210
 3640W        W 7691   2.403   7.834   9.448 -0.0058  0.1926  0.1000
 3641W        W 7692   2.658   3.915  12.871  0.2650 -0.0597 -0.2472
 3642W        W 7693   5.984   4.328   1.419 -0.0025 -0.0652 -0.1377
 3643W        W 7694   7.916   5.227  13.640  0.1214 -0.1296  0.1762
 3644W        W 7695   6.970   5.730  11.700  0.2216  0.3469 -0.1067
 3645W        W 7696   6.080   1.609  11.912  0.1861  0.1726 -0.2174
 3646W        W 7697   5.997   5.359  12.579 -0.0161 -0.0393 -0.0621
 3647W        W 7698   2.017   1.693   9.013  0.1505  0.1872  0.4067
 3648W        W 7699   0.213   7.304   3.908  0.0833  0.1032 -0.2509
 3649W        W 7700   3.240   3.464  13.270 -0.5062  0.0499 -0.0936
 3650W        W 7701   1.946   6.260   4.928  0.2069 -0.0127 -0.0263
 3651W        W 7702   5.481   3.182  13.768  0.0327  0.1715 -0.1783
 3652W        W 7703   5.719   3.553   1.142 -0.2890  0.3512  0.1197
 3653W        W 7704   1.453   3.434   1.946 -0.0931 -0.1244 -0.1524
 3654W        W 7705   1.560   0.562   4.350  0.0352  0.0736 -0.2309
 3655W        W 7706   6.750   6.872   1.810  0.4551 -0.1840 -0.1169
 3656W        W 7707   3.832   8.060   3.501  0.0238 -0.2712  0.1752
 3657W        W 7708   2.172   5.076   0.905 -0.4404  0.2508  0.0757
 3658W        W 7709   6.922   3.591  13.117 -0.3010  0.0649  0.3187
 3659W        W 7710   0.985   8.888   0.928  0.1328 -0.1713  0.0737
 3660W        W 7711   7.184   2.634  10.835 -0.1335 -0.0981 -0.4155
 3661W        W 7712   3.426   9.161  12.669 -0.0409  0.1025 -0.0336
 3662W        W 7713   8.047   8.162   9.778  0.0536 -0.1664 -0.0371
 3663W        W 7714   7.026   5.348   1.408 -0.0612  0.1659 -0.1488
 3664W        W 7715   8.351   1.559   2.076  0.1643  0.0719 -0.0148
 3665W        W 7716   8.784   1.621   1.271 -0.1636  0.2561  0.1737
 3666W        W 7717   7.185   0.243   3.803  0.0703  0.0864 -0.1693
 3667W        W 7718   9.891   7.908  10.565  0.0067  0.0228  0.0053
 3668W        W 7719   4.972   5.478   4.213 -0.1110 -0.1097  0.0276
 3669W        W 7720   0.716   2.263   0.907  0.4723 -0.2432  0.1957
 3670W        W 7721   7.744   3.374  12.503  0.0372 -0.1678  0.0211
 3671W        W 7722   8.868   7.507  13.075 -0.1993  0.0102  0.1690
 3672W        W 7723   2.764   4.864   3.360 -0.2374  0.2132 -0.0421
 3673W        W 7724   1.029   7.775   0.268  0.0215  0.1301  0.1562
 3674W        W 7725   8.434   0.274   0.642 -0.4053 -0.0618 -0.0219
 3675W        W 7726   7.749   6.286  10.112  0.2964  0.2097  0.1682
 3676W        W 7727   2.633   2.158   4.946  0.3388 -0.1209 -0.2974
 3677W        W 7728   7.274   6.113  12.597 -0.2575 -0.2389 -0.0583
 3678W        W 7729   8.329   1.279  10.881 -0.2204 -0.1299 -0.0648
 3679W        W 7730   8.086   1.163  12.704  0.2972 -0.3029  0.0267
 3680W        W 7731   0.285   7.815   4.099  0.2864  0.0451  0.0753
 3681W        W 7732   6.790   4.316   0.755  0.1224  0.0669 -0.0309
 3682W        W 7733   7.355   5.274  13.652  0.0136 -0.0563  0.0380
 3683W        W 7734   8.468   4.209   1.961  0.2140 -0.0613 -0.0179
 3684W        W 7735   3.201   6.808   8.753 -0.1806 -0.1780  0.0092
 3685W        W 7736   9.648   2.753  11.384  0.1399  0.0055  0.2034
 3686W        W 7737   4.182   7.186   3.842 -0.0599 -0.1699 -0.0801
 3687W        W 7738   2.596   7.717  10.374 -0.0145 -0.0621 -0.0773
 3688W        W 7739   5.036   8.952   3.983  0.1715 -0.1696  0.1536
 3689W        W 7740   7.580   8.860   5.394 -0.4159  0.1571 -0.0755
 3690W        W 7741   1.191   7.819   4.104 -0.0316  0.2944 -0.0128
 3691W        W 7742   6.074   4.930   3.053 -0.1637  0.0489 -0.0219
 3692W        W 7743   9.887   8.672   2.680  0.0465  0.0223  0.3944
 3693W        W 7744   9.624   2.860  13.144  0.5111  0.1741  0.2112
 3694W        W 7745   1.847   7.016  10.168 -0.1452  0.0515 -0.0219
 3695W        W 7746   3.475   6.947   1.971  0.0652 -0.0017 -0.3140
 3696W        W 7747   4.886   3.394  10.862 -0.2849  0.0337  0.0843
 3697W        W 7748   7.553   4.991   0.090 -0.0209  0.0518 -0.0256
 3698W        W 7749   7.569   0.281  11.769 -0.0878  0.2229  0.0912
 3699W        W 7750   8.670   2.345   2.794 -0.2892  0.2161 -0.1995
 3700W        W 7751   4.341   8.657   0.636  0.1896  0.0038  0.5068
 3701W        W 7752   3.328   0.293  13.816  0.0326  0.2467 -0.2517
 3702W        W 7753   3.813   4.730   0.591  0.3908  0.0430  0.2212
 3703W        W 7754   1.647   9.130   0.983 -0.3604 -0.2465  0.3176
 3704W        W 7755   3.452   6.700  11.109  0.0656  0.0705 -0.4037
 3705W        W 7756   2.292   5.069   4.254 -0.4105  0.0467  0.0973
 3706W        W 7757   4.258   6.718  13.482  0.0616 -0.2556 -0.0531
 3707W        W 7758   2.877   5.674   0.926 -0.0422 -0.0909  0.2494
 3708W        W 7759   1.131   2.651   9.168  0.2592  0.1351  0.1036
 3709W        W 7760   9.721   8.709   1.536  0.0855  0.1352  0.1353
 3710W        W 7761   6.378   5.247   2.803 -0.5300 -0.1613  0.0056
 3711W        W 7762   2.422   6.490  11.108 -0.3775  0.1615 -0.3092
 3712W        W 7763   7.173   5.694   3.521  0.0351  0.1480 -0.3323
 3713W        W 7764   1.741   4.354  13.308  0.0071 -0.2887  0.0313
 3714W        W 7765   4.485   4.511   8.895  0.1033  0.1242  0.2681
 3715W        W 7766   6.575   7.051   3.899 -0.2327  0.2280 -0.1396
 3716W        W 7767   7.770   3.136   9.685 -0.1698  0.0550 -0.1081
 3717W        W 7768   9.427  10.027  13.378  0.0206  0.2126 -0.0873
 3718W        W 7769   4.758   7.141  12.235 -0.1828 -0.0286  0.1386
 3719W        W 7770   4.923   0.291  11.448 -0.2516  0.3705  0.0841
 3720W        W 7771   3.723   4.156  11.342 -0.1130  0.0476  0.1510
 3721W        W 7772   3.495   6.094  10.946 -0.0499  0.0128 -0.1857
 3722W        W 7773   6.266   6.706  10.946 -0.0742 -0.4163 -0.0738
 3723W        W 7774   8.778   3.571   0.091  0.1419 -0.1524 -0.2828
 3724W        W 7775   1.990   4.483   3.661 -0.2573 -0.3733  0.0893
 3725W        W 7776   3.180   4.431  12.187 -0.1775  0.0136  0.2543
 3726W        W 7777   9.676   1.907  10.128 -0.1971  0.1207  0.0636
 3727W        W 7778   7.516   1.215  11.723 -0.3645 -0.3915  0.2952
 3728W        W 7779   0.512   3.790   2.065 -0.2297  0.0912  0.0891
 3729W        W 7780   1.800  10.088  11.543  0.1640  0.1903  0.1943
 3730W        W 7781   6.723   8.220   3.727 -0.2294 -0.0969 -0.2298
 3731W        W 7782   2.561   4.997   0.555  0.0644  0.1699 -0.0940
 3732W        W 7783   0.036  10.176   1.055  0.0772 -0.0226  0.0766
 3733W        W 7784   7.161   2.101  10.675 -0.1242  0.0021 -0.4063
 3734W        W 7785  10.071   9.542  13.914  0.0328  0.0636  0.1226
 3735W        W 7786   4.961   0.668  11.798  0.2912 -0.2321  0.0460
 3736W        W 7787   5.624   5.851  13.532 -0.0464 -0.1761  0.0050
 3737W        W 7788   8.737   8.316   2.563  0.0719  0.0021  0.2541
 3738W        W 7789   4.923   9.210  10.959 -0.3036  0.0297  0.0125
 3739W        W 7790   7.679   7.184   2.597  0.1817 -0.0371  0.0909
 3740W        W 7791   1.391   7.520  11.413  0.1345 -0.2446 -0.0761
 3741W        W 7792   6.682   7.371  12.007 -0.2282  0.3432  0.0488
 3742W        W 7793   5.426   9.764   5.729 -0.1624 -0.2088 -0.3007
 3743W        W 7794   7.448   7.643   1.838  0.4874 -0.1579  0.2423
 3744W        W 7795   8.963   2.873  12.064 -0.2020  0.2638  0.1463
 3745W        W 7796   6.740   4.295   3.527  0.1319  0.5720  0.0903
 3746W        W 7797   7.094   6.522   0.858  0.0342  0.2929  0.3820
 3747W        W 7798   9.752   4.985  13.766  0.1554  0.0622 -0.1577
 3748W        W 7799   0.855   8.442   0.671 -0.2475 -0.0776 -0.1419
 3749W        W 7800   2.092   3.400  11.253  0.1021 -0.0298  0.1362
 3750W        W 7801   4.550   2.867  12.041 -0.0503 -0.2179 -0.2686
 3751W        W 7802   2.955   6.148  11.049  0.2971  0.0329  0.3064
 3752W        W 7803   7.402   5.958  11.565  0.0763  0.0020  0.1160
 3753W        W 7804   4.441   1.423   5.249 -0.1851 -0.3184  0.2342
 3754W        W 7805   1.366   8.106   0.911  0.1426  0.0914 -0.2352
 3755W        W 7806   8.373   0.081   0.086 -0.2310  0.0154 -0.1287
 3756W        W 7807   1.970   4.866  10.438  0.1471  0.0463 -0.0878
 3757W        W 7808   1.186   0.357  10.868  0.1430  0.0800  0.2592
 3758W        W 7809   6.719   7.889  11.894  0.1081 -0.1549  0.3023
 3759W        W 7810   1.500   0.412  12.792  0.1735 -0.0401 -0.2844
 3760W        W 7811  10.144   5.819  10.894  0.0112 -0.1076  0.2424
 3761W        W 7812   1.239  10.094   2.775 -0.0380  0.0520  0.0516
 3762W        W 7813   7.015   7.806   1.539 -0.0856  0.1302 -0.1734
 3763W        W 7814   9.892   7.221   9.510 -0.0920 -0.0242 -0.2620
 3764W        W 7815   6.954   2.467   0.242 -0.1554 -0.0161 -0.1445
 3765W        W 7816   1.372   5.613   0.973  0.0713  0.2262  0.0875
 3766W        W 7817   9.614   3.183   0.605  0.1760 -0.1715 -0.1645
 3767W        W 7818   7.822   8.873  11.594 -0.2062 -0.1013  0.1117
 3768W        W 7819   0.391   3.308  11.366  0.0737 -0.3014 -0.0938
 3769W        W 7820   6.051   9.807  10.784 -0.0992  0.0659  0.2006
 3770W        W 7821   2.235   4.045   0.801 -0.1519 -0.1090  0.0945
 3771W        W 7822   8.626   5.628  11.904 -0.0342  0.1394 -0.1215
 3772W        W 7823   5.411   6.242  10.913  0.2424  0.0697  0.1856
 3773W        W 7824   6.547   5.994  12.101  0.1608  0.1638  0.3616
 3774W        W 7825   0.580   3.764   1.574  0.1325 -0.0646 -0.0033
 3775W        W 7826   1.009   5.408   4.408 -0.0985 -0.1751  0.0833
 3776W        W 7827   0.617   9.452   1.551 -0.0391 -0.1576  0.0014
 3777W        W 7828   0.452   6.113   2.025 -0.1187 -0.1168  0.0211
 3778W        W 7829   2.520   2.630   4.848  0.3892  0.0332  0.2462
 3779W        W 7830   9.401   1.765   0.861 -0.0640  0.0300 -0.0560
 3780W        W 7831   7.444   4.409   2.711  0.1336  0.3238  0.0659
 3781W        W 7832   1.456   8.596  11.258 -0.0128 -0.0540 -0.2771
 3782W        W 7833   0.918   0.604   0.523  0.1005  0.3156  0.0083
 3783W        W 7834   4.112   2.921   0.079  0.1252 -0.2053 -0.0182
 3784W        W 7835   5.149   9.081  11.438  0.0223  0.5001 -0.0027
 3785W        W 7836   8.776   2.929  10.288  0.0813 -0.0675 -0.0406
 3786W        W 7837   5.711   4.102  11.790  0.2037  0.2697  0.1778
 3787W        W 7838   6.336   7.029   1.188 -0.0500 -0.0527 -0.0273
 3788W        W 7839   5.174   1.754  11.535  0.0915  0.0560 -0.0867
 3789W        W 7840   1.290   2.161  11.769 -0.2318  0.2405  0.2842
 3790W        W 7841   0.205   8.952   4.492  0.1342  0.1485 -0.0708
 3791W        W 7842   9.404   7.902  11.563  0.3463 -0.0158  0.1080
 3792W        W 7843   0.417   9.895   1.506 -0.1097  0.0487 -0.0305
 3793W        W 7844   8.833   7.922   1.476  0.1898 -0.1706  0.0378
 3794W        W 7845   5.598   6.612  13.893 -0.1327  0.0907 -0.0475
 3795W        W 7846   8.333   6.518   2.250  0.3737 -0.2198 -0.0772
 3796W        W 7847   3.153   3.303   0.580  0.1210 -0.3195  0.1835
 3797W        W 7848   0.607   4.682   2.220 -0.3427 -0.1950 -0.2411
 3798W        W 7849   5.430   5.360   4.356 -0.1404  0.0392  0.0855
 3799W        W 7850   8.428   0.505  13.731  0.1222  0.1023  0.0093
 3800W        W 7851   1.103   9.636   2.627  0.2067 -0.2573 -0.1963
 3801W        W 7852   6.193   7.872   3.700 -0.0137  0.2805 -0.1702
 3802W        W 7853   5.857   5.155   0.051  0.1834 -0.0892  0.1988
 3803W        W 7854   8.223   9.504   3.365  0.1309 -0.0955  0.3281
 3804W        W 7855   2.934   3.327  12.314 -0.1575  0.3144 -0.3101
 3805W        W 7856   6.002   4.561  11.682  0.0688  0.0079  0.0189
 3806W        W 7857   6.070   8.479  10.384 -0.1545 -0.0577  0.1199
 3807W        W 7858   0.511   1.615   0.317 -0.0670 -0.0355 -0.1719
 3808W        W 7859   2.864   3.182   0.121 -0.2383  0.2056  0.1386
 3809W        W 7860   5.327   9.652  11.903  0.2900 -0.0235  0.1252
 3810W        W 7861   0.244   8.587  12.746 -0.1565 -0.1753  0.1916
 3811W        W 7862   3.481   4.353   3.376 -0.1488 -0.3399  0.1517
 3812W        W 7863   7.765   2.045  13.251 -0.0296 -0.0627 -0.2387
 3813W        W 7864   3.613   5.793  13.694 -0.1691  0.0284 -0.2210
 3814W        W 7865   0.718   7.153  13.690  0.1694  0.2364  0.1078
 3815W        W 7866   5.652   1.156   0.582  0.3171  0.0514  0.0018
 3816W        W 7867   9.993   9.021   0.055  0.0679  0.1012 -0.0622
 3817W        W 7868   6.845   1.887  11.835  0.0463 -0.0525  0.0387
 3818W        W 7869   0.549   4.936  10.347 -0.0900  0.1166 -0.1562
 3819W        W 7870   9.448   6.300   4.089 -0.1453 -0.0528  0.0155
 3820W        W 7871   2.211   5.939   9.064 -0.1281 -0.1464 -0.1705
 3821W        W 7872   1.886   1.066  12.275 -0.0803 -0.1694 -0.1083
 3822W        W 7873   3.530   5.318  12.638  0.2865  0.1452 -0.0095
 3823W        W 7874   5.679   5.499   0.344 -0.1405  0.1424  0.0888
 3824W        W 7875   1.129   1.039   9.677 -0.1417  0.1783 -0.1846
 3825W        W 7876   5.697   8.633   9.976 -0.1262 -0.1500  0.3422
 3826W        W 7877   1.141   6.030   2.542  0.2535  0.0812 -0.1606
 3827W        W 7878   1.984   1.366  12.741  0.5249  0.0080  0.2075
 3828W        W 7879   2.011   0.973  11.698 -0.0284 -0.1558  0.0079
 3829W        W 7880   6.219   1.439  12.372 -0.1248  0.0112 -0.0240
 3830W        W 7881   6.166   7.725   1.686  0.2237  0.2911  0.1606
 3831W        W 7882   6.308   3.615  12.306 -0.0810  0.0627 -0.1512
 3832W        W 7883   0.380   0.588   4.200  0.1274  0.0876  0.1422
 3833W        W 7884   1.982   4.288   1.195  0.0322 -0.2093  0.0646
 3834W        W 7885   3.463   7.890   9.294  0.1379 -0.0313  0.0327
 3835W        W 7886   6.322   9.834   9.980  0.0665  0.2109 -0.0550
 3836W        W 7887   4.547   6.242  13.579 -0.0522  0.0224 -0.2089
 3837W        W 7888   5.744   5.553   4.036  0.0286 -0.2769 -0.4462
 3838W        W 7889   9.729   7.765   1.273 -0.1896 -0.0956 -0.0266
 3839W        W 7890   0.749   4.068   4.644 -0.3575 -0.2433 -0.2269
 3840W        W 7891   1.518   4.678   0.019 -0.0044  0.4189 -0.1053
 3841W        W 7892   2.621   1.800   0.425 -0.0961  0.0104 -0.0273
 3842W        W 7893   6.436   1.541  13.608  0.2608 -0.0412 -0.0110
 3843W        W 7894   4.566   2.715   2.469 -0.0529 -0.2083 -0.1167
 3844W        W 7895   4.950   2.469   4.714 -0.1154  0.0022  0.3296
 3845W        W 7896   3.211   5.067  10.387  0.3305 -0.1092 -0.2090
 3846W        W 7897   9.984   8.301  10.891 -0.0966  0.0403 -0.2054
 3847W        W 7898   7.398   0.599  13.396 -0.0323  0.1023 -0.1878
 3848W        W 7899   0.358   0.230   2.355  0.2591  0.1042  0.3494
 3849W        W 7900   7.375   6.558  12.291 -0.2607 -0.0392  0.2424
 3850W        W 7901   2.253   4.677  12.657  0.1769 -0.2052 -0.0470
 3851W        W 7902   8.839   8.044   3.002  0.0900  0.0538 -0.2689
 3852W        W 7903   1.447   1.183  11.372  0.0060 -0.2348  0.2471
 3853W        W 7904   7.614   8.064   9.548 -0.0942 -0.1579  0.0699
 3854W        W 7905   3.944   9.492   1.223  0.0054 -0.1580 -0.0797
 3855W        W 7906   5.848   6.819   2.373 -0.1811  0.2308 -0.0384
 3856W        W 7907   5.909   2.112  13.471  0.2555 -0.2459 -0.2669
 3857W        W 7908   7.092   7.251   9.298  0.2065  0.4688  0.0049
 3858W        W 7909   8.529   0.553   0.226 -0.2019  0.0723  0.2316
 3859W        W 7910   9.811   8.770   2.090  0.2668  0.0630 -0.0506
 3860W        W 7911   2.035   9.551  13.598  0.0429  0.0033 -0.1715
 3861W        W 7912   4.988   6.231   9.644 -0.2926  0.1646  0.3316
 3862W        W 7913   2.118   7.882   9.883  0.1171  0.1054  0.0575
 3863W        W 7914   0.091   0.586   2.656  0.1035 -0.3570 -0.2697
 3864W        W 7915   4.578   1.698   1.559 -0.0751 -0.0295 -0.1346
 3865W        W 7916   8.647   4.102   4.679 -0.0144  0.1407 -0.1882
 3866W        W 7917   6.585   6.395   1.253 -0.0789  0.0085 -0.0825
 3867W        W 7918   6.619   1.252   3.533 -0.2981  0.0417  0.0567
 3868W        W 7919   5.121   4.228  11.773 -0.0576  0.0085  0.1222
 3869W        W 7920   1.374   1.604   2.067 -0.2348  0.0289  0.1520
 3870W        W 7921   8.624   6.433   9.761 -0.1719 -0.0496  0.1468
 3871W        W 7922   3.733   8.597   0.896 -0.2556 -0.2158  0.4273
 3872W        W 7923   6.913   3.165   9.773  0.0282  0.0610 -0.2224
 3873W        W 7924   1.517   1.220  13.157  0.0708 -0.1048 -0.2111
 3874W        W 7925   3.645   8.774   1.761 -0.1364 -0.3457 -0.0063
 3875W        W 7926   7.421   5.424   9.953 -0.1998  0.1617 -0.0767
 3876W        W 7927   9.667   8.118  12.514  0.0800 -0.2227 -0.0132
 3877W        W 7928   3.316   4.354  12.677 -0.2686 -0.1500 -0.0568
 3878W        W 7929   2.313   6.309   2.023 -0.2371  0.0965 -0.3276
 3879W        W 7930   5.113   0.886   0.113  0.3318  0.1089 -0.4864
 3880W        W 7931   8.557   5.209  10.097 -0.3877  0.1420 -0.0403
 3881W        W 7932   6.176   4.132  10.257 -0.0311 -0.0904  0.3793
 3882W        W 7933   7.539   5.155   0.866 -0.2917  0.1540  0.0080
 3883W        W 7934   5.217   8.939   3.035  0.2995 -0.4244  0.2223
 3884W        W 7935   4.856   9.591   4.061  0.0511 -0.1930 -0.1554
 3885W        W 7936   2.210   7.461  10.225  0.1133 -0.0125 -0.1990
 3886W        W 7937   0.969   4.110   0.845 -0.0011 -0.0539  0.0015
 3887W        W 7938   2.040   0.909   2.072 -0.3116 -0.2615 -0.1494
 3888W        W 7939  10.034   2.055   3.345  0.1912 -0.3669  0.1203
 3889W        W 7940   0.090   3.069  13.638 -0.1650  0.0937 -0.0161
 3890W        W 7941   4.268   8.098  11.778  0.4108 -0.0771  0.0042
 3891W        W 7942   2.344   0.937   3.619  0.0573 -0.0026  0.1091
 3892W        W 7943   6.690   2.580  11.572 -0.0731  0.0809 -0.2089
 3893W        W 7944   8.323   8.035   2.414  0.0929  0.0097  0.2217
 3894W        W 7945   4.227   1.744   4.969  0.2407  0.1238  0.1324
 3895W        W 7946   4.129   3.037   0.722  0.2126  0.0179  0.4013
 3896W        W 7947   5.253   4.585  11.293 -0.0749 -0.0424 -0.2866
 3897W        W 7948   2.724   2.554   9.762 -0.0102 -0.0540  0.3287
 3898W        W 7949   0.499   6.375  10.498  0.2230 -0.0152 -0.4187
 3899W        W 7950   7.031   7.840   2.158  0.0620  0.0920  0.0189
 3900W        W 7951   8.055   3.844   2.010 -0.2264 -0.3407  0.4613
 3901W        W 7952   9.689   7.506  11.343  0.2817  0.1858  0.0949
 3902W        W 7953   4.586   8.998   0.343 -0.0452  0.0418 -0.1662
 3903W        W 7954   2.459   8.841  13.748  0.0902 -0.2109  0.2133
 3904W        W 7955   0.932   2.718   1.212  0.2053 -0.2539 -0.0196
 3905W        W 7956   2.107   8.856  12.149  0.0177  0.1809 -0.1379
 3906W        W 7957   4.146  10.117  12.599 -0.0841  0.0989 -0.0034
 3907W        W 7958   6.987   2.456  13.483  0.1370  0.2419  0.0273
 3908W        W 7959   8.637   7.900  12.888 -0.1871 -0.0097 -0.2284
 3909W        W 7960   2.395   0.997   0.315 -0.1820  0.2023  0.0382
 3910W        W 7961   7.906   4.693   0.477  0.0992 -0.1240 -0.0753
 3911W        W 7962  10.165   0.350   0.624 -0.0153  0.0926  0.0219
 3912W        W 7963   1.917   7.885  13.838  0.0754 -0.0081  0.3330
 3913W        W 7964   1.218   2.668   2.429 -0.2058  0.1224  0.2239
 3914W        W 7965   6.237   2.850   2.655  0.1840 -0.1968 -0.1702
 3915W        W 7966   9.980   6.163  10.513 -0.1926 -0.1221  0.1329
 3916W        W 7967   7.332   9.953   2.954  0.0121  0.0659 -0.1184
 3917W        W 7968   8.119   7.779  12.121  0.0722 -0.0567  0.1083
 3918W        W 7969   0.165   8.748  12.147 -0.0484  0.0678 -0.1948
 3919W        W 7970   0.379   3.935   3.756 -0.1315 -0.2098 -0.1573
 3920W        W 7971   4.635   1.165  12.073  0.3938 -0.0369 -0.0145
 3921W        W 7972   8.424   4.473  11.190 -0.0907  0.1406  0.0015
 3922W        W 7973   0.107   1.328   0.065  0.2907  0.0614  0.4479
 3923W        W 7974   8.502   8.970   0.868  0.1992  0.1720  0.1733
 3924W        W 7975   8.549   8.480   2.146 -0.1370 -0.0905 -0.0871
 3925W        W 7976   3.441   7.374  13.363 -0.2953  0.0065  0.2461
 3926W        W 7977   3.062   3.126   3.598  0.0741  0.2519 -0.0104
 3927W        W 7978   3.426   5.599   9.322 -0.0316 -0.1979 -0.0870
 3928W        W 7979   0.746   9.351  10.784 -0.0226  0.2907  0.2159
 3929W        W 7980   1.283   5.410  11.929 -0.1179 -0.1620 -0.0053
 3930W        W 7981   2.469   6.293   3.624 -0.0319 -0.0239  0.1471
 3931W        W 7982   8.078   5.177   2.475 -0.0273 -0.0570  0.4396
 3932W        W 7983   3.416   4.011  12.026  0.2027  0.0081  0.1006
 3933W        W 7984   6.318   8.748  13.096 -0.0805 -0.1407  0.2542
 3934W        W 7985   3.477   4.467   2.447 -0.1294  0.0760  0.1968
 3935W        W 7986   1.478   1.721  11.612  0.2033 -0.0375 -0.0483
 3936W        W 7987   9.129   5.818   3.195 -0.4616 -0.1335 -0.3148
 3937W        W 7988   3.725   9.819  11.145 -0.1725  0.3726  0.1451
 3938W        W 7989   8.028   1.497   0.048 -0.4404  0.2570  0.0032
 3939W        W 7990   3.845   5.994   3.582 -0.1129 -0.3447  0.2312
 3940W        W 7991   4.393   5.734  13.949  0.0680  0.0170 -0.0384
 3941W        W 7992   0.036   4.479  13.095  0.1040 -0.3164  0.3048
 3942W        W 7993   8.087   7.588   0.442  0.0468  0.2139  0.4009
 3943W        W 7994   8.802   9.337   4.589  0.1070 -0.0122  0.3807
 3944W        W 7995   8.859   8.823   3.490 -0.2950  0.0656 -0.1855
 3945W        W 7996   6.585   5.167  13.283  0.1154  0.2645 -0.2995
 3946W        W 7997   3.240   5.271  12.107  0.0101 -0.0783  0.2484
 3947W        W 7998   9.945   9.672   2.623 -0.3289 -0.0468  0.1886
 3948W        W 7999  10.186   8.356   0.170  0.0508 -0.1731  0.1980
 3949W        W 8000   1.921   1.651  11.186 -0.2906  0.1175  0.0443
 3950W        W 8001   6.480   7.323   1.609  0.0157  0.2225 -0.2526
 3951W        W 8002   4.256   1.953   5.659 -0.0769 -0.1949 -0.1299
 3952W        W 8003   3.642   3.004  13.876  0.1047  0.3194  0.1550
 3953W        W 8004   3.292   1.615  11.085  0.0100 -0.1322  0.0396
 3954W        W 8005   4.387   6.748   1.724 -0.0422  0.0871 -0.1532
 3955W        W 8006   9.603   8.176  13.488  0.1728  0.0463  0.2366
 3956W        W 8007   4.340   0.907  13.047  0.2544 -0.2776  0.2013
 3957W        W 8008   6.156   5.140  11.288 -0.1175 -0.1185 -0.0623
 3958W        W 8009   6.636   4.854  11.078  0.1446  0.0052  0.0411
 3959W        W 8010   3.936   3.639   5.611 -0.0737  0.5466  0.0833
 3960W        W 8011   8.607   2.930   2.258 -0.0401  0.0466 -0.1777
 3961W        W 8012   9.976   4.158   0.387  0.1596 -0.4809  0.1243
 3962W        W 8013   4.280   6.947   9.899  0.1853 -0.2242  0.0574
 3963W        W 8014   0.264   7.745  13.153  0.1386  0.0363  0.2223
 3964W        W 8015   2.161   4.571   4.121  0.2338 -0.0634 -0.0834
 3965W        W 8016   1.605   7.735   2.341 -0.2019  0.2560 -0.1783
 3966W        W 8017   7.664   2.496  12.794 -0.1518 -0.4086 -0.4819
 3967W        W 8018   8.641   5.957  12.791  0.1157 -0.0572  0.1598
 3968W        W 8019   1.816   2.004  10.792  0.0665 -0.2230  0.1953
 3969W        W 8020   8.652   7.730   3.625 -0.1736  0.3209  0.2332
 3970W        W 8021  10.078   5.715   9.551 -0.2241  0.1845 -0.1560
 3971W        W 8022   4.320   8.321   5.918 -0.0034  0.0256  0.1497
 3972W        W 8023   3.542   7.491   1.091  0.1267 -0.0294 -0.1014
 3973W        W 8024   7.633   5.831   3.405 -0.2918 -0.0736  0.0190
 3974W        W 8025   8.668   6.945   3.030 -0.0792 -0.3549  0.0893
 3975W        W 8026   9.813   2.239  10.536 -0.1718 -0.2546 -0.0481
 3976W        W 8027   9.130   6.496   9.815  0.1102  0.0678  0.2609
 3977W        W 8028   1.395   8.766   0.714  0.1239 -0.0648  0.1008
 3978W        W 8029   4.404   9.286  11.269  0.0545 -0.1727  0.0828
 3979W        W 8030   1.586   1.772   9.529  0.1688 -0.3273  0.0055
 3980W        W 8031   1.984   3.714   3.818 -0.1795 -0.1521 -0.0284
 3981W        W 8032   9.606   0.647   4.051  0.3112  0.3209  0.2170
 3982W        W 8033   2.908   0.947   4.477  0.0820  0.4403 -0.0949
 3983W        W 8034   2.099   2.986   1.484 -0.1024 -0.5889  0.0551
 3984W        W 8035   8.758   2.912   2.739 -0.1845  0.2671  0.1134
 3985W        W 8036   2.145   1.162   4.560  0.0149  0.0412  0.3339
 3986W        W 8037   6.964   0.870  10.589  0.2896 -0.3167 -0.0784
 3987W        W 8038   0.479   2.337  13.593 -0.0290  0.2952 -0.1920
 3988W        W 8039   0.633   4.986   1.724 -0.1673  0.3732 -0.1134
 3989W        W 8040   6.116   9.107   4.710  0.0828  0.1029 -0.1134
 3990W        W 8041   7.876   6.577  10.516 -0.0157 -0.0800 -0.0442
 3991W        W 8042   3.052   1.425   1.940 -0.0507  0.0625 -0.0570
 3992W        W 8043   4.080   7.631  12.653  0.1003  0.0103 -0.2175
 3993W        W 8044   0.697   9.316   1.073  0.0215  0.0711 -0.0204
 3994W        W 8045   5.286   9.529   3.054  0.1150 -0.0356  0.0694
 3995W        W 8046   3.378   0.748   2.330 -0.0583 -0.3475  0.1296
 3996W        W 8047   7.652   7.155  13.834 -0.0284 -0.1405  0.1419
 3997W        W 8048   1.220   8.481  13.857 -0.1676  0.1744 -0.5820
 3998W        W 8049   6.790   9.672  10.097 -0.1397 -0.0432 -0.0919
 3999W        W 8050   2.090   4.500   1.646  0.1170  0.0519 -0.0337
 4000W        W 8051   8.115   6.810  11.931  0.3492 -0.0280  0.3299
 4001W        W 8052   9.511   9.889  10.909  0.0572 -0.1671 -0.0306
 4002W        W 8053   0.233   5.431  12.626  0.1807  0.2055 -0.1521
 4003W        W 8054   8.306   2.120  11.487  0.0931 -0.0880 -0.1117
 4004W        W 8055   5.100   7.752  13.669  0.1035 -0.0048 -0.2519
 4005W        W 8056   6.907   0.055   9.839 -0.4800 -0.1194 -0.1768
 4006W        W 8057   3.044   0.353   3.817 -0.2861 -0.5226  0.0508
 4007W        W 8058   3.034   9.358  13.556 -0.0598 -0.1321 -0.0836
 4008W        W 8059   5.058   0.311  12.447 -0.2257 -0.0979  0.0236
 4009W        W 8060   9.074   0.940   2.042 -0.1652  0.0667 -0.1149
 4010W        W 8061   5.128   0.425   3.212 -0.0326 -0.0017 -0.1984
 4011W        W 8062   5.332   3.745  13.117  0.1547  0.2097  0.0130
 4012W        W 8063   3.874   4.726   3.357  0.1173  0.0466 -0.2664
 4013W        W 8064   1.844   3.838  11.975 -0.1123  0.0857  0.1801
 4014W        W 8065   8.993   4.960   9.108 -0.1527  0.2264 -0.3618
 4015W        W 8066   1.215   2.825  12.384 -0.0227  0.5447  0.0664
 4016W        W 8067   9.665   1.272   2.913 -0.0306 -0.0309  0.0602
 4017W        W 8068   1.371   3.800  10.170  0.0872 -0.1291 -0.0793
 4018W        W 8069   6.949   2.746   1.747 -0.1402  0.2419  0.2005
 4019W        W 8070   1.335   5.165  13.874  0.2270 -0.0407  0.3895
 4020W        W 8071   4.567   1.083  13.468 -0.1721  0.0506 -0.2975
 4021W        W 8072   9.092   8.307   1.641  0.1549  0.0992 -0.0868
 4022W        W 8073   6.129   5.235  13.017 -0.1236 -0.0451  0.0854
 4023W        W 8074   6.823   3.152  12.877 -0.0489 -0.1449 -0.0484
 4024W        W 8075   9.629   8.140   4.601 -0.0005 -0.0045 -0.0167
 4025W        W 8076   7.480   4.966   3.880  0.1152  0.0606  0.3192
 4026W        W 8077   4.182   4.466  13.708  0.0711  0.1999  0.0862
 4027W        W 8078   7.532   8.766   1.146 -0.3704  0.1677 -0.0117
 4028W        W 8079   2.464   0.214   5.754  0.5384  0.1104  0.0762
 4029W        W 8080   4.498   8.698  13.107 -0.1075 -0.1614  0.0217
 4030W        W 8081   8.847   5.140  11.952 -0.0644 -0.1018  0.0122
 4031W        W 8082   1.490   3.296   9.940 -0.3722  0.1458  0.0824
 4032W        W 8083   0.789   2.834   0.743 -0.1837  0.2960 -0.1234
 4033W        W 8084   3.530   7.258   8.666  0.1368  0.1645  0.2089
 4034W        W 8085   8.058   4.432   3.585 -0.1838 -0.1898  0.1140
 4035W        W 8086   9.477   7.403   9.835 -0.2075  0.2918  0.1015
 4036W        W 8087   0.709   9.209   5.453  0.3288 -0.0238 -0.2702
 4037W        W 8088   0.630   0.870   9.799 -0.2862 -0.0994 -0.0707
 4038W        W 8089   3.354   5.371  13.565 -0.0605  0.3163  0.0120
 4039W        W 8090   7.945   1.428   3.169 -0.2649 -0.3356 -0.2925
 4040W        W 8091   4.860   4.756   0.454 -0.3756  0.0511 -0.2292
 4041W        W 8092   6.532   6.609   0.835  0.2235  0.0425 -0.2047
 4042W        W 8093   8.508  10.043  10.127  0.0495 -0.0032  0.1067
 4043W        W 8094   0.687   4.523  10.147 -0.0205  0.1171  0.2284
 4044W        W 8095   1.441   2.637  11.289  0.1563 -0.1180  0.1176
 4045W        W 8096   0.864   9.601   2.015 -0.0023  0.0036 -0.1146
 4046W        W 8097   5.541   9.355   1.811  0.1034  0.0897  0.0628
 4047W        W 8098   9.019   0.953   0.876  0.0606 -0.1087 -0.0339
 4048W        W 8099   1.327   1.803  10.629 -0.1677 -0.2864 -0.0221
 4049W        W 8100   2.421   5.481   2.589  0.0094 -0.1201  0.0840
 4050W        W 8101   3.113   1.011  11.917 -0.4055  0.1079 -0.1128
 4051W        W 8102   6.002   7.162  13.643 -0.2073 -0.0955  0.0354
 4052W        W 8103   1.659   6.370  11.627  0.3825 -0.0918  0.0660
 4053W        W 8104   6.942   0.193  12.501 -0.1456 -0.0010  0.3228
 4054W        W 8105   8.966   4.727   0.018  0.0991 -0.0390 -0.3234
 4055W        W 8106   1.934   4.639   9.362  0.2646  0.1379 -0.0215
 4056W        W 8107   3.421   7.350  10.723  0.0344 -0.2290 -0.4070
 4057W        W 8108   0.137  10.144   3.137  0.0424  0.0207  0.0243
 4058W        W 8109   7.015   7.742  11.435  0.0002 -0.1228  0.1543
 4059W        W 8110   2.879   0.582  12.016 -0.1053  0.0943 -0.2353
 4060W        W 8111   3.232   0.626   1.215  0.3300 -0.1009  0.0717
 4061W        W 8112   9.740   0.588  12.026  0.1941 -0.0685 -0.0210
 4062W        W 8113   9.507   6.018   1.941  0.1219 -0.0165 -0.1786
 4063W        W 8114   4.031   0.516   0.637  0.0029  0.1692 -0.0248
 4064W        W 8115   5.742   0.699  10.196  0.0181 -0.1537  0.0902
 4065W        W 8116   0.863   3.390   1.903 -0.0064 -0.1344 -0.0743
 4066W        W 8117   2.516   3.487   3.073  0.1540  0.0938 -0.0241
 4067W        W 8118   5.662   8.086  10.079 -0.2317  0.0853 -0.0973
 4068W        W 8119   2.800   2.145  10.922 -0.0284  0.1601 -0.0327
 4069W        W 8120   1.535   9.630  11.396 -0.0651  0.0005  0.1500
 4070W        W 8121   4.127   1.241  13.393  0.0986 -0.1865  0.1017
 4071W        W 8122   2.482   8.337   1.522 -0.2243  0.1166  0.4401
 4072W        W 8123   2.128   0.303  13.412  0.1521 -0.0780  0.0614
 4073W        W 8124   8.987   6.928  11.675 -0.0274 -0.2057  0.2457
 4074W        W 8125   5.273   8.745   2.189  0.2568 -0.0628 -0.0736
 4075W        W 8126   8.350   7.012   0.349  0.0217  0.1477  0.0613
 4076W        W 8127   6.597   4.227   4.035 -0.0224  0.1532  0.0126
 4077W        W 8128   7.565   4.487   0.085 -0.1580  0.0094  0.2693
 4078W        W 8129   7.254   7.187  10.057 -0.0826  0.4622  0.0129
 4079W        W 8130   4.951   6.087   3.516  0.1220 -0.1325  0.2559
 4080W        W 8131   1.164   5.008  12.162  0.0239  0.2399 -0.1141
 4081W        W 8132   5.681   0.176   0.420  0.2006 -0.2544  0.0992
 4082W        W 8133   4.346   5.620   9.979 -0.1877 -0.2564 -0.0647
 4083W        W 8134   6.643   9.583  13.421 -0.2976 -0.1065 -0.1234
 4084W        W 8135   4.940   8.774   4.825 -0.1285  0.2016  0.2690
 4085W        W 8136   1.098   5.650   9.841  0.0858  0.1023  0.1774
 4086W        W 8137   8.250   2.604   1.511  0.2595  0.0014  0.1171
 4087W        W 8138  10.179   9.574  11.290 -0.3118  0.3967  0.3037
 4088W        W 8139   2.302   5.176  13.633  0.1834 -0.1331 -0.2827
 4089W        W 8140   4.767   8.123  11.765  0.0687 -0.3342  0.1211
 4090W        W 8141   0.315   1.822   3.189  0.1978  0.0493  0.0549
 4091W        W 8142   4.250   0.883   1.340 -0.3908  0.2993 -0.1668
 4092W        W 8143   0.056   0.488   0.136  0.1586 -0.0958 -0.0572
 4093W        W 8144  10.060   9.359  12.744  0.2391 -0.1785 -0.3622
 4094W        W 8145   0.653   3.734   1.107 -0.0023  0.0393  0.0381
 4095W        W 8146   8.943   7.935  11.737 -0.2302 -0.2384 -0.0970
 4096W        W 8147   3.512   0.312   0.873  0.2464 -0.2567  0.4970
 4097W        W 8148   7.234   2.181  12.180  0.1189 -0.0235  0.1179
 4098W        W 8149   2.339   0.755   0.763  0.0744  0.0401  0.1017
 4099W        W 8150   6.869   9.540   3.135 -0.0252  0.0053  0.0139
 4100W        W 8151   3.279   7.298   4.979  0.0857  0.0348 -0.0508
 4101W        W 8152   4.604   9.680  12.562 -0.1210 -0.2652  0.0340
 4102W        W 8153   6.487   9.210   0.310  0.0200 -0.0577 -0.0448
 4103W        W 8154   0.937   2.387   2.065 -0.1340  0.0930 -0.0875
 4104W        W 8155   9.154   7.164   1.240  0.0349  0.1072 -0.2018
 4105W        W 8156   7.683   6.255   6.168  0.1468  0.2249 -0.3116
 4106W        W 8157   1.049   4.085   1.348 -0.1056  0.0158 -0.0711
 4107W        W 8158   2.219   7.977   8.991 -0.0560  0.1092 -0.1402
 4108W        W 8159   9.596   5.796  10.968 -0.5003 -0.0240 -0.3874
 4109W        W 8160   8.857   0.038   0.446 -0.0313 -0.3110  0.0491
 4110W        W 8161   6.966   1.536   3.244  0.0457  0.1058 -0.1924
 4111W        W 8162   2.952   8.344   1.280  0.2929  0.1534  0.0035
 4112W        W 8163   4.626  10.157  12.351 -0.2747 -0.2808 -0.3948
 4113W        W 8164   6.124   1.844   0.313  0.3816 -0.5334  0.1212
 4114W        W 8165   8.595   9.459   1.011 -0.0444  0.0529  0.2438
 4115W        W 8166   4.360   1.586  12.065 -0.0063  0.1840 -0.0719
 4116W        W 8167   6.862   5.641   1.052 -0.1336 -0.4203 -0.2069
 4117W        W 8168   6.166   2.994   0.944  0.0142  0.2356  0.1938
 4118W        W 8169   9.256   8.856   3.043 -0.1466  0.1428  0.1467
 4119W        W 8170   5.512   2.480   9.230 -0.2699  0.0041  0.2555
 4120W        W 8171   0.298   8.736  13.220 -0.1643 -0.1593 -0.0048
 4121W        W 8172   4.941   7.242   9.195 -0.1643  0.1271  0.1327
 4122W        W 8173   2.141   6.887   1.396 -0.0420  0.5497  0.0698
 4123W        W 8174   2.514   6.186  13.588  0.1074 -0.0641  0.1507
 4124W        W 8175   7.974   0.936  10.907  0.0412  0.2665  0.0620
 4125W        W 8176   1.531   7.415   4.688  0.0369  0.1764 -0.1170
 4126W        W 8177   8.233   2.103   2.896 -0.2780  0.3593 -0.1243
 4127W        W 8178   5.282   7.967   1.483  0.1068 -0.0553 -0.0228
 4128W        W 8179   2.988   5.281   0.653 -0.0583  0.2085  0.3626
 4129W        W 8180   6.655   1.028  13.016 -0.1901 -0.4937  0.0604
 4130W        W 8181   5.018   7.056   4.831 -0.0245 -0.2741 -0.1004
 4131W        W 8182   1.596   7.256   8.811 -0.0371 -0.0526  0.1484
 4132W        W 8183   6.038   8.155   1.392 -0.1456 -0.1018  0.4001
 4133W        W 8184   6.968   4.577   0.040  0.0013  0.0160  0.0999
 4134W        W 8185   3.930   8.817  12.308 -0.0513 -0.0989  0.4670
 4135W        W 8186   1.483   5.202  11.366 -0.0604  0.1563  0.0763
 4136W        W 8187   2.008  10.146  13.782  0.0042 -0.1166  0.0728
 4137W        W 8188   8.233   3.873   1.519  0.3066  0.0092  0.4518
 4138W        W 8189   4.019   0.261  10.530 -0.1549 -0.0334  0.3401
 4139W        W 8190   5.219   4.794   1.246 -0.4121 -0.3464 -0.1176
 4140W        W 8191   1.185   5.882  10.906 -0.1188 -0.2343  0.1196
 4141W        W 8192   3.264   0.559   2.986  0.2680 -0.1842 -0.2756
 4142W        W 8193   2.370   3.631   2.266 -0.1693 -0.1436 -0.2952
 4143W        W 8194   4.851   5.937   2.404 -0.0419  0.0709 -0.3470
 4144W        W 8195   1.464   8.274   4.909 -0.1244 -0.0261  0.1269
 4145W        W 8196   7.946   4.402  13.628 -0.3634  0.1712 -0.2535
 4146W        W 8197   0.314   2.595   0.753  0.2953 -0.1265 -0.2644
 4147W        W 8198   2.506   3.587  10.339  0.2683 -0.2786 -0.0094
 4148W        W 8199   7.330   1.546   0.840 -0.0276 -0.0098 -0.2918
 4149W        W 8200   7.785   2.808   2.822 -0.0155 -0.0185 -0.2518
 4150W        W 8201   7.103   3.304   3.457 -0.2912 -0.0988  0.0454
 4151W        W 8202   3.080   7.881   0.331 -0.1861  0.4865 -0.5885
 4152W        W 8203   7.876   9.458   2.062 -0.0907 -0.0343 -0.0015
 4153W        W 8204   3.303   0.373   4.282 -0.0438  0.0354  0.1377
 4154W        W 8205   9.391   0.773   1.554 -0.3446  0.3214  0.0520
 4155W        W 8206   9.749   7.118  12.159  0.0800  0.1264 -0.0427
 4156W        W 8207   1.236   9.713   3.534  0.1104 -0.1857 -0.0142
 4157W        W 8208   0.812   5.110   3.024  0.3133  0.0014  0.0582
 4158W        W 8209   9.850   7.623  11.890  0.0123 -0.2368 -0.2227
 4159W        W 8210   6.950   8.950   9.626 -0.0667  0.0164 -0.3136
 4160W        W 8211   9.027   1.294   2.927  0.0581 -0.0680  0.0497
 4161W        W 8212   1.237   9.522   1.604  0.1902  0.0532  0.0166
 4162W        W 8213   5.989   0.633   2.747  0.1180 -0.0540 -0.1457
 4163W        W 8214   1.869   3.435  10.389  0.2963  0.2558  0.2471
 4164W        W 8215   3.422   9.372  11.352 -0.0330  0.0494 -0.0538
 4165W        W 8216   7.055   7.678   2.998  0.2462 -0.1398 -0.4056
 4166W        W 8217   0.303   9.842   0.175  0.1731  0.1417 -0.0769
 4167W        W 8218   7.938   9.581  10.093  0.1864 -0.0564  0.0729
 4168W        W 8219   3.763   7.002   3.490  0.0674  0.2101 -0.1609
 4169W        W 8220   8.513   4.211  10.623 -0.1022 -0.0037  0.1154
 4170W        W 8221   6.868   0.749   2.241 -0.1698 -0.0383  0.0819
 4171W        W 8222   5.578   9.844  10.546  0.0048 -0.0022  0.0280
 4172W        W 8223   2.877   3.581   1.420 -0.1170 -0.4353  0.2149
 4173W        W 8224   2.366   7.138   2.443 -0.0706 -0.0061  0.2799
 4174W        W 8225  10.171   5.187   0.010 -0.1209 -0.1489 -0.4162
 4175W        W 8226   6.160   5.633   3.661  0.0509  0.0868 -0.1148
 4176W        W 8227   9.273   5.654   9.985 -0.1422 -0.0058  0.2597
 4177W        W 8228   8.722   7.764   2.578  0.2340  0.3045  0.0446
 4178W        W 8229   7.339   9.489   3.384  0.0847  0.2668 -0.0038
 4179W        W 8230   0.377   4.481  12.205 -0.5465  0.0547 -0.1665
 4180W        W 8231   0.099   5.050   4.630 -0.3070  0.0175  0.0030
 4181W        W 8232   3.435   6.643  12.014 -0.0123 -0.1785 -0.1094
 4182W        W 8233   6.927   7.717   4.255 -0.0267  0.1843  0.0895
 4183W        W 8234   8.888   3.674  11.302 -0.2550 -0.2682  0.1670
 4184W        W 8235   9.434   3.628  10.311 -0.0242  0.2167  0.3249
 4185W        W 8236   8.545   0.767   3.557 -0.2721  0.2224  0.0179
 4186W        W 8237   7.264   4.122   1.813  0.0106  0.1066  0.4120
 4187W        W 8238   4.069   6.877   4.755 -0.0806  0.1628  0.0680
 4188W        W 8239   1.356   2.452   3.915  0.0644  0.4449  0.0900
 4189W        W 8240   1.186   3.631   1.031  0.0821  0.1124 -0.0392
 4190W        W 8241   5.629   7.933  11.019 -0.2007 -0.0992  0.1882
 4191W        W 8242   8.359   0.854  11.735  0.0535 -0.2542  0.0161
 4192W        W 8243   3.484   8.427   1.297 -0.0947  0.4321  0.0813
 4193W        W 8244   8.934   4.160   3.178 -0.0112 -0.0681  0.0046
 4194W        W 8245   7.135   6.845   3.182 -0.1241 -0.4197  0.0038
 4195W        W 8246   0.400  10.103   1.977 -0.0482 -0.2636  0.3030
 4196W        W 8247   0.543   4.019   9.581 -0.1132  0.0749 -0.3303
 4197W        W 8248   8.180   2.206  10.589  0.0373 -0.0108 -0.2161
 4198W        W 8249   4.864   2.353  13.752  0.1859  0.1178  0.1757
 4199W        W 8250   7.480   9.461   1.468 -0.0796 -0.1311 -0.0227
 4200W        W 8251   1.431   2.712   0.891  0.1081 -0.1652  0.0202
 4201W        W 8252   3.970   9.739   1.989  0.0025 -0.0541 -0.0340
 4202W        W 8253   2.995   9.919   1.246  0.1511 -0.1581 -0.1637
 4203W        W 8254   2.598   8.505   0.133 -0.1203  0.0156 -0.0369
 4204W        W 8255   3.385   7.171  12.009 -0.2050  0.2790 -0.0519
 4205W        W 8256  10.033   2.571  13.034 -0.0479  0.0088 -0.1767
 4206W        W 8257   0.083   8.824  10.760 -0.2004 -0.2596 -0.4378
 4207W        W 8258   2.956   6.373  13.852  0.0122  0.4145 -0.1189
 4208W        W 8259   1.022   4.195  12.473  0.1458  0.3129  0.1484
 4209W        W 8260   3.752   9.191  10.170 -0.1144 -0.2837  0.3070
 4210W        W 8261   1.927   8.158   5.400  0.0462 -0.2031 -0.0485
 4211W        W 8262   3.866   6.629   1.853  0.0554 -0.2323  0.3370
 4212W        W 8263   3.205   0.208  11.725  0.1102 -0.2458  0.1251
 4213W        W 8264   7.696  10.008  11.618 -0.0985 -0.1660 -0.3274
 4214W        W 8265   3.900   9.596  11.991  0.1461 -0.2585 -0.0929
 4215W        W 8266   4.838   1.379  10.496  0.1332 -0.2217  0.2353
 4216W        W 8267   1.165   7.019   0.619 -0.0435  0.0261 -0.0068
 4217W        W 8268   0.745   7.626  13.366 -0.3058 -0.0706  0.1968
 4218W        W 8269   7.240  10.093   1.540 -0.2163  0.1915  0.2723
 4219W        W 8270   5.661   1.204   9.353 -0.2343  0.1372  0.0292
 4220W        W 8271   1.237   4.350  13.354  0.3710 -0.1094  0.0014
 4221W        W 8272   0.824   8.282   3.998  0.2195  0.3070 -0.2178
 4222W        W 8273   1.075   4.554  10.934 -0.0142 -0.3088  0.1413
 4223W        W 8274   6.217   5.234  13.703 -0.0968 -0.0607 -0.2665
 4224W        W 8275   3.727   4.453   4.508  0.0820 -0.1810 -0.1790
 4225W        W 8276   1.748   1.028   5.093 -0.1503 -0.1471  0.1204
 4226W        W 8277   8.319   4.290   3.006  0.0038  0.1070 -0.1428
 4227W        W 8278   3.121   1.584   9.375 -0.0693 -0.2758 -0.0877
 4228W        W 8279   9.435   3.496   2.607  0.0820 -0.3013 -0.3302
 4229W        W 8280   2.624   2.309   2.175 -0.3247 -0.2073  0.2702
 4230W        W 8281   5.737   2.119   8.962  0.0125  0.2107  0.0597
 4231W        W 8282   3.378   2.674  11.052  0.1588 -0.3531  0.1237
 4232W        W 8283   1.773   3.234  12.878 -0.2615 -0.1220 -0.0558
 4233W        W 8284   7.411   6.838   2.359  0.0914 -0.0780 -0.2879
 4234W        W 8285   2.191   6.112   0.048  0.2402  0.2062  0.0957
 4235W        W 8286   2.788   9.233  13.968  0.2655  0.0575 -0.5449
 4236W        W 8287   0.873   6.151  13.776  0.1800  0.1618  0.1768
 4237W        W 8288   0.457   0.471   0.392 -0.1974  0.0293  0.1772
 4238W        W 8289   5.883   4.454   4.146 -0.1949 -0.2168 -0.0558
 4239W        W 8290   7.621   6.238  10.817  0.2948  0.1246  0.2024
 4240W        W 8291   9.137   6.863  12.160 -0.0435  0.0036  0.1340
 4241W        W 8292   2.244   8.170  11.807  0.1619  0.3893  0.3167
 4242W        W 8293   2.801   9.284   1.770  0.1268 -0.3555 -0.0435
 4243W        W 8294   7.864   1.504  11.105 -0.0751  0.1970  0.1892
 4244W        W 8295   1.707   0.813   2.465  0.3176 -0.0092  0.0884
 4245W        W 8296   6.175   5.201   9.376 -0.2183 -0.0017 -0.2424
 4246W        W 8297   0.191   9.239   9.387 -0.0752 -0.1268 -0.1831
 4247W        W 8298   5.879   4.795  12.727  0.2300 -0.3677 -0.2191
 4248W        W 8299   0.070   1.582   1.124  0.0480 -0.1441  0.0127
 4249W        W 8300   6.869   2.376   0.787  0.1156  0.0711 -0.0173
 4250W        W 8301   8.030   7.236  13.409 -0.1847  0.0155  0.2004
 4251W        W 8302   9.589   3.727  13.455 -0.0466 -0.4377 -0.1472
 4252W        W 8303   7.278   5.527   0.539  0.1399  0.2669 -0.2465
 4253W        W 8304   6.353   0.707  10.222 -0.3050  0.1676 -0.1653
 4254W        W 8305   6.186   4.817   1.210 -0.0748  0.1532  0.0157
 4255W        W 8306   7.447   8.284   0.294  0.1419  0.0789 -0.1092
 4256W        W 8307   6.426   6.978   4.720 -0.0638 -0.2891  0.0699
 4257W        W 8308   2.757   4.492   1.383  0.0483 -0.3345  0.0234
 4258W        W 8309   9.901   8.195   5.397 -0.1780 -0.0698 -0.2627
 4259W        W 8310   8.358   2.981  10.714 -0.2820  0.0945 -0.2816
 4260W        W 8311   7.185   0.258   0.606  0.1814  0.3243  0.4210
 4261W        W 8312   0.794   8.312   2.479  0.0456 -0.1981  0.0053
 4262W        W 8313   3.209   8.161  11.827 -0.0370 -0.0179  0.1862
 4263W        W 8314   4.647   1.928   9.504  0.1164  0.0202  0.0058
 4264W        W 8315   5.580   3.457   3.276  0.1831  0.0667 -0.1370
 4265W        W 8316   0.532   1.286  11.441 -0.0902 -0.3240 -0.1242
 4266W        W 8317   2.203  10.081   3.432  0.0501  0.1195  0.3243
 4267W        W 8318   3.894   8.701   0.395  0.0244 -0.0374 -0.1862
 4268W        W 8319   4.190   5.785   0.496  0.1896 -0.1805  0.0198
 4269W        W 8320  10.074   8.555  13.397 -0.1012  0.2075 -0.1435
 4270W        W 8321   7.515   6.252   4.708  0.3167 -0.1150 -0.2929
 4271W        W 8322   7.606   9.409  11.505 -0.2077  0.1003 -0.0209
 4272W        W 8323   8.729   4.580  11.963 -0.0130  0.0936  0.1387
 4273W        W 8324   2.331   4.695   1.194  0.2809 -0.0455 -0.3316
 4274W        W 8325   7.846   0.974   0.457  0.2747 -0.0121  0.1294
 4275W        W 8326   3.869   3.157   4.114  0.0111  0.2557 -0.0356
 4276W        W 8327   7.517   4.160  13.562 -0.1196 -0.0690  0.1144
 4277W        W 8328   1.483   1.818   0.347 -0.2681  0.1997 -0.1281
 4278W        W 8329   5.236   7.391   2.840 -0.0190  0.0286  0.0822
 4279W        W 8330   3.460   4.365  13.163 -0.0181  0.0421  0.1291
 4280W        W 8331   7.712   0.894  10.435 -0.1296  0.0791  0.1054
 4281W        W 8332   7.683   8.884  13.584 -0.2050  0.1578  0.0461
 4282W        W 8333   0.764   2.448   2.531 -0.4018  0.0242 -0.0181
 4283W        W 8334   7.809   3.194  10.901 -0.2704 -0.0628 -0.1931
 4284W        W 8335   2.591   7.517   9.916 -0.0840 -0.0811  0.2104
 4285W        W 8336   3.157   8.491   1.737  0.0905 -0.0557  0.0333
 4286W        W 8337   6.373   2.179   1.290 -0.0923 -0.2887 -0.1722
 4287W        W 8338   8.811   0.155   1.529  0.3145 -0.1005 -0.0875
 4288W        W 8339   4.753   9.243   3.022  0.1170 -0.2413 -0.0362
 4289W        W 8340   7.258   0.507  10.606 -0.3684 -0.0306  0.2405
 4290W        W 8341   5.520   7.177   3.913  0.2316  0.0256 -0.2869
 4291W        W 8342   6.015   8.792  13.482  0.0161  0.1553  0.1442
 4292W        W 8343   3.521   8.943   4.003 -0.1880 -0.1909  0.0943
 4293W        W 8344   9.325   9.109   4.744  0.2121  0.1313  0.0573
 4294W        W 8345   8.426   7.305   5.374 -0.2898 -0.2372 -0.2427
 4295W        W 8346   5.666   6.653   0.451 -0.2193  0.2032  0.1093
 4296W        W 8347  10.016   6.921   3.781 -0.1365 -0.1865  0.0713
 4297W        W 8348   3.198   9.713   9.003  0.2577 -0.0443  0.1896
 4298W        W 8349   9.013   6.803   5.675 -0.2463  0.1833 -0.4122
 4299W        W 8350   0.165   6.307  13.111 -0.1924 -0.1266  0.0216
 4300W        W 8351   6.520   4.362   3.055  0.0699 -0.1869  0.0032
 4301W        W 8352   7.200   5.969   2.942  0.1862  0.1554  0.0394
 4302W        W 8353   0.371   8.067  13.872  0.0526  0.1087  0.0750
 4303W        W 8354   7.240   5.199   2.575  0.6046  0.0972  0.2728
 4304W        W 8355   3.340   8.902  13.482 -0.1335  0.0397  0.0604
 4305W        W 8356  10.057   4.428   1.978  0.1993  0.1427  0.1597
 4306W        W 8357   4.172   2.411  12.725  0.1918 -0.0280  0.3262
 4307W        W 8358   1.861   0.981   9.666 -0.0564 -0.2459  0.0681
 4308W        W 8359   9.615   4.046   2.631 -0.0986 -0.1188  0.2490
 4309W        W 8360   0.283   4.220  10.425 -0.2957 -0.1774 -0.1452
 4310W        W 8361   9.374   6.634  12.808  0.0938 -0.1784 -0.2951
 4311W        W 8362   7.036   8.237  13.151 -0.0926  0.1401 -0.0590
 4312W        W 8363   6.173   4.952   3.543 -0.0023  0.1932 -0.2930
 4313W        W 8364   5.817   4.185   2.466  0.1336  0.1967  0.1319
 4314W        W 8365   4.130   0.972  13.874 -0.0340 -0.0677  0.1080
 4315W        W 8366   4.533   7.537  13.733 -0.1058 -0.0986  0.1543
 4316W        W 8367   6.288   3.308  10.379 -0.0649  0.0399  0.0206
 4317W        W 8368   1.117   6.582   9.274  0.0001 -0.0583  0.4656
 4318W        W 8369   4.104   4.875   1.044  0.0971 -0.1392 -0.1907
 4319W        W 8370   5.563   5.768  12.509 -0.2804 -0.2530  0.1147
 4320W        W 8371   2.350   3.762   1.813 -0.0207 -0.1970 -0.0620
 4321W        W 8372   8.895   6.294   0.042 -0.1292 -0.0624 -0.2931
 4322W        W 8373   5.881   8.423  12.383  0.4435  0.3480  0.0628
 4323W        W 8374   4.182   8.902  13.502 -0.0923  0.1266  0.0312
 4324W        W 8375   4.803   7.564   3.183 -0.0457  0.0666 -0.4617
 4325W        W 8376   8.550   6.970   2.449  0.0230 -0.0379 -0.0472
 4326W        W 8377   4.679   7.422   0.554 -0.1799  0.2364  0.0065
 4327W        W 8378   1.941   9.798   4.206 -0.0557  0.2975  0.0351
 4328W        W 8379   7.861   6.806   9.462  0.2090 -0.0972  0.1461
 4329W        W 8380   2.810   1.801   3.872  0.1577  0.0841  0.2489
 4330W        W 8381   7.109   0.710   0.945 -0.1928 -0.1251 -0.0855
 4331W        W 8382   7.755   2.532  13.947  0.2957 -0.0581  0.5213
 4332W        W 8383   1.714   3.731  12.955 -0.1118 -0.2433  0.5111
 4333W        W 8384   8.319   7.059  10.912  0.2291 -0.2111 -0.0187
 4334W        W 8385   9.036   7.012  10.051  0.3015  0.4264  0.4460
 4335W        W 8386   1.624   3.078  11.318 -0.0022 -0.2139  0.0265
 4336W        W 8387   9.261   0.830   3.172  0.2892  0.1059  0.1246
 4337W        W 8388   0.421   9.018   9.834  0.1549 -0.2405  0.1227
 4338W        W 8389   2.511   6.538   0.156  0.1127  0.0850  0.2192
 4339W        W 8390   5.505   4.572  11.739 -0.2239  0.1976 -0.2530
 4340W        W 8391   6.730   4.171   1.970 -0.2868  0.2480  0.1179
 4341W        W 8392   7.322   1.690  12.996  0.0806 -0.4147 -0.0729
 4342W        W 8393   2.129   9.911  12.436  0.0833  0.0651 -0.1239
 4343W        W 8394   1.726   6.493  11.045 -0.0595  0.0784 -0.1131
 4344W        W 8395   0.335   4.316  13.506 -0.0572  0.0064  0.1919
 4345W        W 8396   5.860   5.598  10.529 -0.2846  0.0811 -0.3113
 4346W        W 8397   4.915   8.489   0.011  0.0375  0.0141  0.5078
 4347W        W 8398   2.098   5.194   0.356 -0.2865 -0.1713 -0.0626
 4348W        W 8399   6.003   6.215   4.731  0.1172 -0.2516 -0.2233
 4349W        W 8400   9.107   2.462   0.940  0.0756 -0.3488  0.3831
 4350W        W 8401   5.093   5.367   2.035  0.1177  0.2475  0.0159
 4351W        W 8402   3.245   2.928   0.882 -0.0963  0.5061  0.1670
 4352W        W 8403   3.059   2.102   1.216 -0.0519 -0.2327  0.2798
 4353W        W 8404   0.754   1.665  12.366  0.1129  0.1394  0.1210
 4354W        W 8405   7.964   5.275  13.069 -0.2458  0.2271 -0.1158
 4355W        W 8406   2.477   7.212   9.486 -0.1536  0.0097 -0.0896
 4356W        W 8407   9.605   0.695   2.179 -0.2613 -0.1407 -0.1409
 4357W        W 8408   7.083   0.327  11.449 -0.0149 -0.2192  0.0792
 4358W        W 8409   7.354   6.745   4.858 -0.0871  0.2743  0.0303
 4359W        W 8410   6.649   3.484   1.364 -0.1527 -0.0328 -0.0149
 4360W        W 8411   6.697   1.851  11.289  0.2156 -0.1392 -0.1628
 4361W        W 8412   8.307   2.831  13.212  0.1964 -0.0922  0.2136
 4362W        W 8413   8.497   0.444  12.152  0.0000 -0.0022  0.0251
 4363W        W 8414   3.460   8.088   1.721 -0.0206 -0.2851 -0.2404
 4364W        W 8415   3.243   8.834  11.902  0.1224  0.0746 -0.1164
 4365W        W 8416   0.943  10.163   3.577  0.1891  0.2206  0.2700
 4366W        W 8417   8.820   9.493   4.003 -0.0244 -0.1719 -0.0658
 4367W        W 8418   7.819   9.624  11.110 -0.0097  0.2766 -0.1529
 4368W        W 8419   8.741   7.753   9.652 -0.2601  0.1338 -0.0195
 4369W        W 8420   2.895   8.541  11.650  0.0637 -0.0630  0.1200
 4370W        W 8421   4.308   5.879   2.137 -0.0361 -0.2151  0.2451
 4371W        W 8422   3.992   8.927   4.230  0.1805 -0.1592 -0.1102
 4372W        W 8423   7.794   5.958   4.336  0.2053 -0.1658 -0.1201
 4373W        W 8424   3.464   9.694   1.167  0.0480 -0.3871 -0.0813
 4374W        W 8425   5.366   4.067  11.354 -0.0856 -0.0499 -0.3403
 4375W        W 8426   2.183   3.288   0.672  0.0104 -0.0502 -0.0092
 4376W        W 8427   2.616   6.520  10.630 -0.1638 -0.1355  0.1140
 4377W        W 8428   4.570   0.471  13.218  0.4346  0.0024 -0.0174
 4378W        W 8429   3.455   9.478   4.411  0.3007  0.5888  0.2418
 4379W        W 8430   5.600   3.288  11.828  0.0458  0.0422 -0.2868
 4380W        W 8431   1.825   1.202  13.644  0.2141 -0.1470  0.2571
 4381W        W 8432   4.652   2.528   3.789  0.4668 -0.0496  0.0617
 4382W        W 8433   1.362  10.165  13.807  0.1489  0.1598  0.0539
 4383W        W 8434   5.101   3.469  10.085 -0.2780 -0.0672 -0.3653
 4384W        W 8435   6.808   5.970   9.679 -0.2636  0.2450 -0.1684
 4385W        W 8436   9.443   3.664   3.826  0.2231  0.0040  0.2936
 4386W        W 8437   7.391   0.130   3.301  0.2455 -0.0853 -0.2888
 4387W        W 8438   2.667   8.766   1.484 -0.0641 -0.1388 -0.0502
 4388W        W 8439   9.942   0.862   1.382 -0.0357 -0.1453  0.2394
 4389W        W 8440   7.139   4.767   2.817  0.0592 -0.0478 -0.3536
 4390W        W 8441   8.005   3.932  10.000 -0.0865 -0.2483 -0.0663
 4391W        W 8442   1.766   3.223   3.795 -0.0301 -0.1000 -0.1118
 4392W        W 8443   4.759   3.219   3.718 -0.2708  0.0453  0.1118
 4393W        W 8444   2.202   9.747   0.063 -0.1128  0.0616 -0.0910
 4394W        W 8445   2.201   6.990  11.789  0.1191 -0.0487  0.1362
 4395W        W 8446   0.633   4.989   3.502  0.0043  0.0847 -0.1955
 4396W        W 8447   7.695   7.978  11.065  0.0351 -0.0101  0.0348
 4397W        W 8448   1.763   7.445   3.808 -0.2785  0.2750 -0.2985
 4398W        W 8449   0.603   6.740   2.556  0.1525  0.1739 -0.1802
 4399W        W 8450   7.574   3.724   2.005  0.1076  0.0131 -0.0476
 4400W        W 8451   1.357   6.828   1.810  0.0055  0.3446 -0.0635
 4401W        W 8452   3.269   6.551   4.281  0.0048 -0.3059  0.1085
 4402W        W 8453   2.623   5.066   2.320 -0.2128 -0.3583 -0.3955
 4403W        W 8454   8.452   8.996   1.636  0.0675 -0.2231  0.3095
 4404W        W 8455   6.855   5.226  10.134  0.0583  0.0125 -0.0580
 4405W        W 8456   5.486   4.369   9.877 -0.1463 -0.2950  0.0403
 4406W        W 8457   3.350   7.145  10.285  0.0054 -0.0358  0.1480
 4407W        W 8458   0.995   9.153  12.606  0.1586 -0.2839 -0.0742
 4408W        W 8459   9.365   5.560   5.094  0.0240  0.0331 -0.1309
 4409W        W 8460   8.495   6.584   2.806 -0.1021  0.2469  0.1675
 4410W        W 8461   7.027   3.153  10.800 -0.1368 -0.0780  0.1022
 4411W        W 8462   6.537   2.629   1.102 -0.4522 -0.1684  0.1084
 4412W        W 8463   1.270   8.810   4.616 -0.4577 -0.2032  0.0501
 4413W        W 8464   4.980   2.647   0.338 -0.1393  0.0480  0.1701
 4414W        W 8465   3.843   9.453   0.719 -0.0775  0.1419  0.3551
 4415W        W 8466   2.004   1.075   3.196 -0.1250 -0.0949 -0.1350
 4416W        W 8467   7.525   9.781   2.384  0.2346  0.1216  0.3517
 4417W        W 8468   1.297   8.557   1.875  0.0070 -0.0832 -0.1107
 4418W        W 8469   6.925   6.941  10.971 -0.2343 -0.2164 -0.0190
 4419W        W 8470   8.249   4.643   9.311 -0.2778  0.0242 -0.0631
 4420W        W 8471  10.150   9.282   4.817 -0.0266 -0.3016 -0.0285
 4421W        W 8472   7.146   4.399  12.498 -0.2892 -0.0385 -0.1589
 4422W        W 8473   0.608   4.791  13.822  0.0505  0.0565  0.1782
 4423W        W 8474   5.342   1.166   2.781  0.0168  0.0650 -0.2067
 4424W        W 8475   5.203   5.010  11.505  0.1178  0.0217  0.1012
 4425W        W 8476   5.872   6.556  10.700 -0.4031  0.3595 -0.1837
 4426W        W 8477   3.865   3.062   9.305 -0.0645  0.3114  0.1491
 4427W        W 8478   2.444   9.196   4.096  0.0551 -0.1361 -0.3412
 4428W        W 8479   5.150   1.116   4.628 -0.0546  0.5087 -0.0345
 4429W        W 8480   2.855   2.775   3.014  0.0640 -0.0495 -0.0683
 4430W        W 8481   2.309   5.213  10.634 -0.2120  0.1048  0.0105
 4431W        W 8482   1.231   1.160   2.366 -0.0666  0.2838  0.0761
 4432W        W 8483   5.621   9.912   4.550 -0.0303  0.0449 -0.0735
 4433W        W 8484   1.468   1.426   3.965 -0.2613  0.1877  0.1215
 4434W        W 8485   2.151   5.854  10.028 -0.0946  0.1534  0.1662
 4435W        W 8486   8.725   5.521  12.417 -0.0844  0.1275  0.1319
 4436W        W 8487   6.601   0.298  12.215 -0.1042 -0.1944  0.3255
 4437W        W 8488   2.641   0.275  11.657  0.0045 -0.3190  0.1719
 4438W        W 8489   5.730   9.899  11.558  0.1963 -0.0846 -0.0231
 4439W        W 8490   0.298   7.231  13.471 -0.1329  0.0805  0.0417
 4440W        W 8491   9.927   7.764   0.618  0.0505 -0.0389  0.2226
 4441W        W 8492   9.265   0.509  13.754 -0.0504 -0.0455  0.3095
 4442W        W 8493  10.161   0.473  10.241 -0.2065 -0.0046  0.1495
 4443W        W 8494   4.841   1.451   1.036 -0.1759  0.0545 -0.1039
 4444W        W 8495   8.505   1.195   0.876 -0.0214 -0.1792 -0.0110
 4445W        W 8496   3.742   5.969  11.391 -0.1485  0.2564 -0.1206
 4446W        W 8497   5.259  10.181  10.857  0.2197  0.0463  0.1267
 4447W        W 8498   7.472   2.386   3.051  0.0680  0.0872  0.3968
 4448W        W 8499   7.971   9.543   8.807  0.1285  0.4567  0.0666
 4449W        W 8500   1.711   3.699   9.808 -0.0458  0.2593 -0.0412
 4450W        W 8501   1.179   9.982  11.559 -0.1840 -0.0774  0.0998
 4451W        W 8502   3.402   2.081   3.227 -0.0483  0.1317 -0.2429
 4452W        W 8503   0.539   6.607  11.666  0.2715 -0.0515 -0.2314
 4453W        W 8504   7.212   2.928  13.076 -0.3206  0.2206  0.1728
 4454W        W 8505   5.386   1.570   0.694 -0.3532  0.0159  0.0697
 4455W        W 8506   8.346   8.745   4.327 -0.1815 -0.0247 -0.1199
 4456W        W 8507   2.200   9.167   3.668  0.2539 -0.1110 -0.5195
 4457W        W 8508   8.299   5.271   3.071  0.2809 -0.0617  0.4127
 4458W        W 8509   5.954   3.726  12.917  0.0999  0.1488  0.0125
 4459W        W 8510   5.111   0.475   1.848  0.1635  0.3953  0.1186
 4460W        W 8511  10.184   6.093   4.729 -0.0957  0.0905  0.3332
 4461W        W 8512   4.764   5.964   3.962  0.0462  0.2590  0.1046
 4462W        W 8513   4.715   7.642  10.028 -0.2565  0.0399 -0.1387
 4463W        W 8514   1.501   8.390  11.682  0.2110 -0.1405  0.1298
 4464W        W 8515   2.079   8.744   0.155  0.1339  0.0030 -0.0776
 4465W        W 8516   6.886   1.145  13.604 -0.1025  0.0479 -0.1593
 4466W        W 8517   6.104   9.784  13.607 -0.2375  0.0169 -0.0181
 4467W        W 8518   3.653   5.156   9.283  0.1472 -0.0668 -0.0868
 4468W        W 8519   2.120   9.064   3.115 -0.0127 -0.4106  0.1148
 4469W        W 8520   9.731   4.218  13.204 -0.1341  0.0461  0.1095
 4470W        W 8521   0.971   6.877   9.620  0.0564 -0.2683 -0.0856
 4471W        W 8522   2.961   1.912   2.087  0.0561  0.1196  0.0310
 4472W        W 8523   2.542   5.798   9.633  0.1387  0.0299 -0.2670
 4473W        W 8524   9.607   4.245   3.656  0.3165  0.1930  0.2673
 4474W        W 8525   2.528   2.921   0.897 -0.2521  0.2021  0.1068
 4475W        W 8526   1.828   0.859   0.752  0.3176 -0.5080  0.0533
 4476W        W 8527   9.672   8.526   3.184 -0.0624 -0.0020  0.1256
 4477W        W 8528   9.986   4.105   3.088 -0.0759 -0.1939 -0.0606
 4478W        W 8529   1.047   2.917  11.426 -0.2910 -0.1385 -0.1013
 4479W        W 8530   0.420   0.690  10.266 -0.0760 -0.4437 -0.0203
 4480W        W 8531   3.335   2.094  11.192 -0.0258 -0.4149  0.0580
 4481W        W 8532   0.302   4.857  10.776  0.1090  0.1955 -0.2174
 4482W        W 8533   1.384   8.730   3.305  0.1710 -0.0288 -0.0787
 4483W        W 8534   3.969   4.237   3.497 -0.1684 -0.0283  0.0157
 4484W        W 8535   7.668   1.187   1.054  0.0899 -0.0734 -0.1772
 4485W        W 8536   2.641   4.116  10.544  0.0538 -0.0742  0.0176
 4486W        W 8537   9.843   8.361   4.122  0.0267  0.0306  0.0686
 4487W        W 8538   3.524   4.139   0.999  0.1892  0.2726  0.3192
 4488W        W 8539   2.782   1.486  13.101 -0.0565  0.2908 -0.1322
 4489W        W 8540   5.326   0.990   3.271  0.1344 -0.3139  0.1265
 4490W        W 8541   8.101   3.119   2.479 -0.3492 -0.0642 -0.4499
 4491W        W 8542   9.551   2.550  12.768  0.0700  0.0024  0.0011
 4492W        W 8543   5.896   7.119   9.913 -0.3584 -0.2360  0.0351
 4493W        W 8544   3.358   4.870  12.707 -0.0304  0.0480  0.1636
 4494W        W 8545   9.169   3.249   0.232 -0.1246  0.0353  0.0674
 4495W        W 8546   6.585   5.172  12.010 -0.3816  0.0520 -0.0231
 4496W        W 8547   5.458   3.004  12.351 -0.1743 -0.0939  0.2082
 4497W        W 8548   4.379   6.321   4.843 -0.3348 -0.0187 -0.0326
 4498W        W 8549   4.150   6.879   0.456  0.1457  0.1338  0.1068
 4499W        W 8550   4.738   6.063  12.577 -0.0549  0.0296  0.2421
 4500W        W 8551   1.576   4.751  10.111  0.3387 -0.0467 -0.0911
 4501W        W 8552   6.390   1.684   2.451 -0.0431  0.0297 -0.2569
 4502W        W 8553   4.570   0.511   1.107  0.0346  0.2547 -0.4639
 4503W        W 8554   8.847   5.576   0.641  0.0812 -0.2452 -0.1211
 4504W        W 8555   7.208   9.480  12.070 -0.0187 -0.1485 -0.3156
 4505W        W 8556   4.821   1.163  11.528  0.0430  0.1453 -0.1682
 4506W        W 8557   2.503   4.796   9.331 -0.1281  0.0131 -0.0665
 4507W        W 8558   1.821   4.888   8.900 -0.0319 -0.0154  0.0565
 4508W        W 8559   3.349   6.307   3.175  0.0321 -0.1704 -0.2576
 4509W        W 8560   2.672   8.740  12.932  0.0045 -0.2016  0.1611
 4510W        W 8561   6.718   7.552   3.793  0.1271 -0.2941 -0.0815
 4511W        W 8562   5.861   7.110   3.222 -0.1260 -0.0088  0.1068
 4512W        W 8563   7.035   0.230   2.035  0.0249  0.1612  0.0945
 4513W        W 8564   0.830   7.239   1.896 -0.0341 -0.0513  0.4698
 4514W        W 8565   9.160   3.885  12.250  0.0793  0.1314  0.0446
 4515W        W 8566  10.062   7.699   3.192  0.3435  0.1229  0.0230
 4516W        W 8567   3.006   7.801   0.908 -0.0084  0.0469 -0.1017
 4517W        W 8568   3.765   4.413  11.867  0.0686  0.1791 -0.1165
 4518W        W 8569   2.123   4.016  10.519 -0.0609 -0.3057  0.0187
 4519W        W 8570   7.278   7.270  10.657 -0.0191  0.0318 -0.1989
 4520W        W 8571   9.783   0.246   3.079 -0.1475 -0.4419 -0.3693
 4521W        W 8572   3.541   3.303   1.817  0.2735  0.2620  0.1766
 4522W        W 8573   2.321   3.308   4.275 -0.3564 -0.1423 -0.1315
 4523W        W 8574   5.087   6.620  13.588  0.1580  0.0517  0.0519
 4524W        W 8575   8.683   0.882   2.960 -0.1270  0.2489 -0.0525
 4525W        W 8576   0.013   5.698  13.185 -0.1955 -0.5366 -0.0625
 4526W        W 8577   0.412   0.548  11.999  0.2960 -0.1913 -0.2624
 4527W        W 8578   0.527   9.829  10.432 -0.5412 -0.0962 -0.1052
 4528W        W 8579   5.141   4.265   1.293  0.1403 -0.0120  0.0500
 4529W        W 8580   0.830   6.823   5.664  0.0756  0.1065 -0.0769
 4530W        W 8581   6.230   4.424  13.399  0.0360  0.0080  0.0401
 4531W        W 8582   7.369   3.080  11.206  0.2630 -0.3980 -0.0917
 4532W        W 8583   4.634   7.634   1.484 -0.0405  0.1878  0.2252
 4533W        W 8584   3.505   6.410  12.472  0.2205 -0.0037  0.0569
 4534W        W 8585   2.345   8.731   4.828  0.0589 -0.1835  0.0765
 4535W        W 8586   3.909  10.155  13.011 -0.0669 -0.1542 -0.1215
 4536W        W 8587   5.150   7.756  10.889  0.0204 -0.0154 -0.2292
 4537W        W 8588   6.206   5.773  10.230  0.0452 -0.2494  0.1647
 4538W        W 8589   9.468   3.816   2.214  0.1207  0.1495  0.1723
 4539W        W 8590   3.830   8.584  13.696  0.1241 -0.0914  0.1363
 4540W        W 8591   4.852   0.734  10.431  0.1402  0.2175 -0.0376
 4541W        W 8592   8.827   2.152  11.332 -0.0893  0.3411  0.0587
 4542W        W 8593   1.158   3.749   9.626  0.3152  0.0654 -0.1688
 4543W        W 8594   3.818   6.702   0.867 -0.0430 -0.1720  0.0461
 4544W        W 8595   1.665   4.724  11.276 -0.1594 -0.1081 -0.1195
 4545W        W 8596   6.337   0.815   2.434  0.0328  0.0441 -0.0712
 4546W        W 8597   5.528   1.842  13.769  0.0651 -0.0092 -0.0347
 4547W        W 8598   9.818   9.170  13.483 -0.0992  0.0079  0.0395
 4548W        W 8599   4.321   3.433  10.138  0.0589  0.0072  0.0427
 4549W        W 8600   8.035   2.106   1.401 -0.0094 -0.0740  0.0657
 4550W        W 8601   4.999   9.017   8.902  0.0097 -0.0124 -0.4297
 4551W        W 8602   9.836   9.945   3.008  0.0074  0.1727  0.2507
 4552W        W 8603   5.657   8.438   5.019 -0.0357  0.3867  0.0640
 4553W        W 8604   2.640   5.232   0.985  0.1686  0.1784  0.1200
 4554W        W 8605   6.447   6.371  12.422  0.1126  0.0243  0.0932
 4555W        W 8606   5.473   5.231  10.385  0.3099 -0.0354 -0.1938
 4556W        W 8607   0.542   7.499   9.643 -0.0768  0.2321  0.0281
 4557W        W 8608   2.538   7.630   5.883 -0.0781 -0.0272 -0.1088
 4558W        W 8609   4.267   7.592   2.765 -0.2781  0.0155 -0.1277
 4559W        W 8610   3.307   1.073   2.840 -0.2486 -0.0411  0.1380
 4560W        W 8611   6.262   5.775  11.234 -0.2472  0.0585 -0.3254
 4561W        W 8612   1.682   9.091   0.011  0.2351  0.3100 -0.2816
 4562W        W 8613   7.763   9.149   3.280  0.2565  0.0360  0.2080
 4563W        W 8614   2.063   3.361   4.709  0.1559 -0.1145  0.2364
 4564W        W 8615   2.941   4.309   2.624 -0.1582 -0.1642  0.1402
 4565W        W 8616   0.036   1.593   2.339 -0.0246 -0.0768 -0.0369
 4566W        W 8617   1.201   3.004  10.912  0.2246 -0.0322 -0.0330
 4567W        W 8618   6.309  10.070  12.607  0.0059 -0.1936  0.3255
 4568W        W 8619   2.203   7.785   5.190  0.0872  0.0207 -0.0431
 4569W        W 8620   2.201   2.591  10.000 -0.0517 -0.2107 -0.1634
 4570W        W 8621   7.610   5.478  11.728 -0.1596 -0.0067 -0.3667
 4571W        W 8622   2.405   0.579  12.856  0.2219 -0.1286  0.1505
 4572W        W 8623   0.342   0.728  11.488 -0.1216 -0.0644  0.0714
 4573W        W 8624   0.807   6.010   8.594  0.2955 -0.0646  0.0273
 4574W        W 8625  10.060   9.470   3.207  0.2110 -0.0389  0.2006
 4575W        W 8626   2.541   9.807   1.054  0.1513  0.2990 -0.3748
 4576W        W 8627   5.641   0.091   2.494 -0.2862  0.0162  0.0786
 4577W        W 8628   9.890   1.637  13.382  0.0159 -0.0385  0.0092
 4578W        W 8629   5.396   8.052  10.528 -0.2723  0.1402  0.0541
 4579W        W 8630   8.439   7.353   2.805 -0.0052  0.1955  0.0061
 4580W        W 8631   3.024   9.432   2.909  0.2602 -0.4421  0.1324
 4581W        W 8632   6.812   3.389   3.860 -0.2722  0.3666 -0.0784
 4582W        W 8633   7.325   5.022  11.567 -0.0536  0.3774  0.3938
 4583W        W 8634   7.462   1.909  10.176  0.0379 -0.1164 -0.0573
 4584W        W 8635   6.152   9.269   3.168  0.0501  0.2394  0.2195
 4585W        W 8636   9.778   6.119   3.776 -0.1171  0.4826 -0.0361
 4586W        W 8637   2.258   6.281   9.772 -0.0327 -0.1578 -0.1976
 4587W        W 8638   0.286   6.917   1.664 -0.0339  0.1238  0.0093
 4588W        W 8639   1.404   0.099  12.371  0.0053 -0.3664  0.2112
 4589W        W 8640   5.062   2.773   2.256 -0.0236  0.3567 -0.0236
 4590W        W 8641   7.810   3.766   9.590 -0.1478 -0.2236 -0.0377
 4591W        W 8642   3.135   0.826  11.427  0.1697 -0.0317 -0.2691
 4592W        W 8643   7.801   6.641   1.949 -0.1294 -0.0870 -0.0448
 4593W        W 8644   2.983   7.379   1.210 -0.1166 -0.0895 -0.1218
 4594W        W 8645   1.339   4.602  12.416  0.1392  0.1895  0.0405
 4595W        W 8646   0.735   0.164  10.275 -0.0665  0.1289 -0.2700
 4596W        W 8647   0.406   7.186  12.354 -0.0936 -0.1759  0.0434
 4597W        W 8648   5.941   5.000  12.222  0.0110 -0.0973  0.3486
 4598W        W 8649   3.956   9.514   3.524  0.0566  0.2871 -0.0010
 4599W        W 8650   9.311   9.575   3.875  0.0052 -0.1102 -0.1527
 4600W        W 8651   8.607   9.239   3.544  0.1622  0.2845 -0.2427
 4601W        W 8652   4.122   2.218   5.179 -0.2698  0.3703  0.1042
 4602W        W 8653   1.384   3.128  11.780 -0.0118  0.1388 -0.0313
 4603W        W 8654   0.601   1.950  13.208  0.0842 -0.2323 -0.0115
 4604W        W 8655   0.894   8.857   3.381 -0.0003 -0.2980 -0.0931
 4605W        W 8656   7.900   4.874   1.350  0.0594 -0.0976  0.2041
 4606W        W 8657   4.817  10.176   0.100 -0.1020 -0.0983  0.2068
 4607W        W 8658   6.542   8.598   9.563 -0.1090  0.2141  0.1937
 4608W        W 8659   6.280   3.156   0.377 -0.2787 -0.2113 -0.1681
 4609W        W 8660   3.481   6.428   9.454  0.1982 -0.0847 -0.1155
 4610W        W 8661   8.387   3.473  12.577  0.3080  0.0347  0.0772
 4611W        W 8662   4.607   5.718   4.566 -0.0036  0.0617 -0.1875
 4612W        W 8663   2.807   8.608   4.978  0.2263 -0.1349 -0.1750
 4613W        W 8664   2.331   5.681  10.537  0.2378 -0.1566  0.0081
 4614W        W 8665   3.271   1.168   0.001  0.0477  0.2844  0.4396
 4615W        W 8666   5.184   6.937  13.964 -0.2086 -0.0236 -0.1037
 4616W        W 8667   8.208   2.253  12.000 -0.1376  0.1808  0.0721
 4617W        W 8668   7.071   2.498   4.139  0.0355  0.3141  0.0961
 4618W        W 8669   2.301   9.245   0.067 -0.1208  0.1164  0.1706
 4619W        W 8670   5.324   4.789  10.603 -0.3317 -0.4342  0.5378
 4620W        W 8671   3.237   0.113   4.727  0.1615 -0.1071  0.0307
 4621W        W 8672   5.391   8.315   3.198  0.0926 -0.1517  0.1026
 4622W        W 8673   8.195   5.660   2.750 -0.2709  0.2756 -0.3515
 4623W        W 8674   9.685   2.083  12.784 -0.0194  0.0314  0.1610
 4624W        W 8675   5.144   5.809   9.833 -0.2724 -0.0626  0.0480
 4625W        W 8676   4.563   8.826   3.136 -0.0930  0.2384 -0.0261
 4626W        W 8677   3.994   3.884  13.644  0.1231 -0.1993 -0.0364
 4627W        W 8678   4.381   2.775  13.119  0.0492 -0.0656 -0.4038
 4628W        W 8679   7.306   7.658   9.788 -0.1164 -0.1168  0.4489
 4629W        W 8680   7.326   0.789  12.968 -0.0187  0.1065 -0.2342
 4630W        W 8681   2.981   1.567   0.722  0.1081 -0.0624  0.2246
 4631W        W 8682   5.652   8.871  11.444 -0.1260 -0.3377 -0.2900
 4632W        W 8683   2.567   7.106  12.517  0.0987 -0.2392  0.1700
 4633W        W 8684   7.710   1.477  13.244  0.1622  0.1599  0.0928
 4634W        W 8685   2.212   7.850   1.208  0.2342 -0.0127 -0.0900
 4635W        W 8686   4.349   7.983   5.038  0.1378 -0.2101  0.1337
 4636W        W 8687   4.675   9.897   9.357 -0.2885  0.0162  0.0700
 4637W        W 8688   1.854   2.468   3.353  0.2100 -0.0744 -0.4138
 4638W        W 8689   7.511   6.649   9.892 -0.1947 -0.1544 -0.3530
 4639W        W 8690   6.130   3.704  13.402 -0.0685  0.0226  0.1408
 4640W        W 8691   6.278   0.740  11.644 -0.0646  0.1572  0.2112
 4641W        W 8692   1.097   6.505   0.393 -0.1322  0.0055  0.0300
 4642W        W 8693   1.416   7.731   8.663 -0.0792 -0.1025 -0.1990
 4643W        W 8694   8.535   6.457  13.127  0.3294 -0.1569 -0.0661
 4644W        W 8695   1.176   0.408   0.100 -0.0476  0.0677  0.0157
 4645W        W 8696   5.878   7.582   2.051  0.4602  0.1685 -0.0310
 4646W        W 8697   9.525   7.270  13.875 -0.1535  0.4075  0.4325
 4647W        W 8698   2.833   5.977  12.063  0.1829  0.1898  0.0526
 4648W        W 8699   8.146   6.800   3.800  0.3097 -0.0409 -0.1599
 4649W        W 8700   1.168   3.222   4.726  0.0334  0.0153  0.2740
 4650W        W 8701   3.053   8.163   5.182  0.2883  0.0656 -0.3605
 4651W        W 8702   3.706   6.025   3.047 -0.2013  0.2175  0.1425
 4652W        W 8703   5.817   7.314  10.365  0.1178  0.0131  0.1955
 4653W        W 8704   3.823   3.420  13.324 -0.1801  0.1423  0.0032
 4654W        W 8705   7.841   9.833   4.593  0.0162 -0.0017 -0.1747
 4655W        W 8706   9.549   5.165   4.019 -0.1964  0.1983  0.2980
 4656W        W 8707   3.387   7.814   3.362  0.1872 -0.1216  0.0628
 4657W        W 8708   1.047   3.045  10.123  0.0974  0.2079  0.3164
 4658W        W 8709   7.082   4.589   3.332 -0.0521  0.2238 -0.2939
 4659W        W 8710   8.160   2.071  12.484  0.0639  0.0186 -0.1616
 4660W        W 8711   4.675   8.864  11.276  0.2599 -0.1886  0.1286
 4661W        W 8712   9.949   7.249   0.976  0.4222  0.2455  0.0375
 4662W        W 8713   9.464   4.297   3.165  0.1867  0.3595  0.0921
 4663W        W 8714   1.415   2.590  10.710  0.0772  0.0539 -0.0622
 4664W        W 8715   7.741   5.747  10.280 -0.0226 -0.0660 -0.3185
 4665W        W 8716   3.906   0.414   1.156  0.3888  0.0458 -0.1901
 4666W        W 8717   1.870   0.054  12.143 -0.1964  0.0420 -0.2025
 4667W        W 8718   8.554   2.572  10.516  0.0186 -0.0587 -0.0366
 4668W        W 8719   3.036  10.085  12.988  0.0409 -0.5066 -0.0901
 4669W        W 8720   5.846   2.118   1.181  0.0426 -0.0830 -0.1400
 4670W        W 8721   1.476   9.563   4.915  0.1623  0.3221 -0.1674
 4671W        W 8722   3.136   1.176  12.867  0.1413  0.0121 -0.4168
 4672W        W 8723   7.739   5.223  10.430  0.2290 -0.1906  0.0118
 4673W        W 8724   9.998   5.191  12.531 -0.2859  0.0960 -0.0908
 4674W        W 8725   4.433   1.270   3.068  0.3170  0.2756 -0.2578
 4675W        W 8726   6.364   7.349  13.937  0.2248  0.3958 -0.0405
 4676W        W 8727   4.862   8.071   4.876  0.0651  0.4389 -0.2748
 4677W        W 8728   5.003   9.645   9.919 -0.1864  0.0447  0.0951
 4678W        W 8729   9.238   4.738  11.826  0.1349 -0.0435 -0.5206
 4679W        W 8730   4.585   4.973   2.836 -0.2405  0.2339  0.1106
 4680W        W 8731   9.923   1.568  11.659 -0.0772 -0.1534  0.0288
 4681W        W 8732   0.942   5.244  10.161 -0.3642  0.1003  0.2504
 4682W        W 8733   1.911   4.892   4.549  0.2633  0.0551  0.0967
 4683W        W 8734   5.354   6.361   3.545  0.0964  0.1992 -0.1756
 4684W        W 8735   2.137   8.619   5.302 -0.0849  0.1930  0.0916
 4685W        W 8736   3.908   5.203   4.978  0.0710 -0.0150  0.0019
 4686W        W 8737   7.889   2.735   2.354 -0.1235  0.1526  0.0006
 4687W        W 8738   8.388   9.533  11.136 -0.2746  0.1964  0.0460
 4688W        W 8739   2.917   4.788  11.449  0.3030 -0.0068 -0.1723
 4689W        W 8740   6.045   6.593   3.455 -0.0213 -0.3442 -0.0847
 4690W        W 8741   1.870   1.258   1.464 -0.0010 -0.3963 -0.0426
 4691W        W 8742   4.145   5.225   2.071  0.1248 -0.1150  0.5030
 4692W        W 8743   2.301   0.386  13.859  0.1745  0.1362 -0.0302
 4693W        W 8744   5.375   8.364   3.681  0.2651  0.2789 -0.1949
 4694W        W 8745   3.629   8.100  11.101 -0.1015  0.3576 -0.0786
 4695W        W 8746   1.774   4.885   1.504 -0.1631  0.2467 -0.1736
 4696W        W 8747   4.547   1.146  12.674 -0.0247  0.0476  0.2428
 4697W        W 8748   1.717   4.970  12.276 -0.1230 -0.2015 -0.1996
 4698W        W 8749   9.987   6.649  12.690 -0.2306  0.1538  0.0787
 4699W        W 8750   5.536   7.177   0.622 -0.0476  0.1165 -0.0899
 4700W        W 8751   8.938   6.164   2.914  0.0776  0.0402 -0.0657
 4701W        W 8752   8.670   1.858  13.527 -0.1479 -0.0089  0.2158
 4702W        W 8753   4.843   7.090   9.968 -0.1418 -0.2075 -0.0759
 4703W        W 8754   4.566   5.792   3.241  0.1209  0.2099 -0.1033
 4704W        W 8755   9.711  10.057   1.114 -0.1666  0.1794  0.2779
 4705W        W 8756   9.031   1.487   3.760 -0.0121  0.0292  0.1009
 4706W        W 8757   0.346   7.958   9.808 -0.1898  0.4202  0.0369
 4707W        W 8758   7.232   9.188  12.906 -0.1057  0.0333  0.0884
 4708W        W 8759   8.609   5.563   0.174  0.0943  0.4557 -0.1846
 4709W        W 8760   7.129   4.591   0.979  0.0864  0.3169 -0.0014
 4710W        W 8761   0.467   9.737  12.059 -0.0203 -0.0890  0.1255
 4711W        W 8762   1.214   7.084  11.697  0.1027 -0.1116 -0.3014
 4712W        W 8763   4.458   7.326  12.685  0.1404  0.0828 -0.2733
 4713W        W 8764   1.163   1.335  13.669 -0.2351 -0.1272  0.1987
 4714W        W 8765   3.989   8.214   9.804  0.1392 -0.0324  0.0584
 4715W        W 8766   3.262   2.121  12.784 -0.0798 -0.0907 -0.4517
 4716W        W 8767   4.606   6.862  11.345  0.1744  0.2686  0.1379
 4717W        W 8768   4.700   5.408  10.274 -0.0662  0.0338  0.0337
 4718W        W 8769   4.140   0.404  12.990  0.1810  0.3279  0.2541
 4719W        W 8770   8.554   8.479   4.673  0.1189 -0.0928 -0.1397
 4720W        W 8771   8.033   4.860   2.115 -0.2899  0.0405  0.1497
 4721W        W 8772   9.769   8.671   1.007  0.1642  0.0759 -0.1727
 4722W        W 8773   0.239   1.229  13.556  0.0330  0.0144 -0.1013
 4723W        W 8774   1.155   6.072  12.369  0.1251 -0.2782 -0.0989
 4724W        W 8775   8.631   0.313   9.756  0.1992  0.1009 -0.0512
 4725W        W 8776   5.789   9.809   5.099 -0.1855 -0.2660 -0.0163
 4726W        W 8777   9.699   4.744   0.660 -0.0299 -0.5018 -0.1593
 4727W        W 8778   1.505   3.173  13.924 -0.1180 -0.0722  0.2524
 4728W        W 8779   1.538   1.967   3.069 -0.0521 -0.1838 -0.1121
 4729W        W 8780   3.899   8.702  10.024  0.0948 -0.1502 -0.0060
 4730W        W 8781   9.062   2.894   4.251 -0.2984 -0.2537 -0.2375
 4731W        W 8782   4.284   7.408  12.227  0.1038 -0.0251 -0.3222
 4732W        W 8783   9.882   4.638   3.238  0.0213  0.0500 -0.0118
 4733W        W 8784   8.673   9.792   3.523  0.0647 -0.1436 -0.0367
 4734W        W 8785   7.783   0.728  12.639  0.1361 -0.2237  0.1095
 4735W        W 8786   3.182   7.334   0.759  0.1396 -0.2835  0.0709
 4736W        W 8787   8.222   5.732   3.494  0.2091  0.0102 -0.1606
 4737W        W 8788   0.727   7.123   4.074  0.1286  0.1575  0.0793
 4738W        W 8789   7.201   8.168  10.128  0.0923 -0.1281  0.0132
 4739W        W 8790   3.872   8.237   2.477 -0.0132 -0.2841 -0.3800
 4740W        W 8791   4.792   1.539  12.293 -0.0155 -0.1870 -0.0471
 4741W        W 8792   4.938   1.847   0.613 -0.2627  0.2833 -0.1185
 4742W        W 8793   2.922   1.888   9.042 -0.0621  0.3243 -0.4210
 4743W        W 8794   5.545   0.349  13.120  0.1070  0.3990 -0.4633
 4744W        W 8795   6.993   5.554  10.828 -0.2097 -0.0503 -0.2956
 4745W        W 8796   1.578   6.145   5.266 -0.0311  0.1097 -0.0476
 4746W        W 8797   7.780   5.093  11.380  0.0095 -0.0543  0.2734
 4747W        W 8798   3.622   1.545   2.804  0.1951 -0.2539 -0.0755
 4748W        W 8799   2.530   9.900  12.139  0.1421 -0.0484 -0.0334
 4749W        W 8800   4.951   1.699  12.786  0.2183  0.0401  0.1019
 4750W        W 8801   5.372   6.769  10.795 -0.3251 -0.0871 -0.0517
 4751W        W 8802  10.162   9.949   1.775  0.1413  0.0635  0.1201
 4752W        W 8803   3.380   8.155   2.731 -0.0830 -0.1508 -0.0566
 4753W        W 8804   2.384   8.625   2.383 -0.1202  0.0692 -0.0203
 4754W        W 8805   9.820   8.729  10.486 -0.3411 -0.0800  0.0359
 4755W        W 8806   1.765   7.996  12.575  0.0387  0.1061 -0.0821
 4756W        W 8807   0.783   7.810   2.548 -0.0268 -0.0778  0.1852
 4757W        W 8808   9.947   9.229  12.240  0.0672  0.0761  0.1616
 4758W        W 8809   6.405   1.307   1.189 -0.1289  0.0401 -0.0638
 4759W        W 8810   6.551   8.107   9.763  0.1388 -0.1422  0.1130
 4760W        W 8811   3.484   3.729  10.432  0.0084 -0.0073 -0.4468
 4761W        W 8812   3.162   9.914   3.055 -0.0372  0.1989  0.2470
 4762W        W 8813   5.315   6.125  13.751 -0.3713  0.0539  0.3700
 4763W        W 8814   7.972   2.715  12.002  0.0422  0.1716  0.2755
 4764W        W 8815   7.413   9.057  12.456 -0.0531  0.0918 -0.0742
 4765W        W 8816   2.341   0.811   9.449 -0.2071 -0.0139 -0.4241
 4766W        W 8817   0.955   5.478  10.619  0.3255  0.0890 -0.1919
 4767W        W 8818   2.287   9.135  11.685  0.0619  0.1131  0.1759
 4768W        W 8819   6.816   7.222  10.286 -0.0381 -0.0963 -0.0250
 4769W        W 8820   9.246   3.277  13.049  0.0851 -0.1386  0.0407
 4770W        W 8821   0.217   8.500   1.391 -0.2226 -0.2214 -0.1650
 4771W        W 8822   5.468   0.942  12.610 -0.2741  0.1340  0.2872
 4772W        W 8823   3.646   5.506   3.772 -0.0205 -0.1893  0.0450
 4773W        W 8824   4.085   6.897  11.063 -0.1361 -0.2138 -0.1491
 4774W        W 8825   5.344   5.205   0.073  0.2083 -0.3360 -0.1315
 4775W        W 8826   4.093   5.788  13.522 -0.0712 -0.2488 -0.0834
 4776W        W 8827   0.699   4.625   3.121  0.0191 -0.0391  0.2991
 4777W        W 8828   2.270   9.791  13.148  0.0689  0.0802 -0.2361
 4778W        W 8829   3.757   0.591   3.111 -0.0566  0.1820  0.1319
 4779W        W 8830   1.035   8.181   9.081  0.1005 -0.0930 -0.0981
 4780W        W 8831   9.928   5.343  12.998 -0.1559  0.1656  0.0314
 4781W        W 8832   4.398   1.395  11.341 -0.0418 -0.0606 -0.2212
 4782W        W 8833   2.490   7.241   3.354 -0.1201  0.1660 -0.5238
 4783W        W 8834   2.393   6.431   1.521  0.4511 -0.2951  0.1538
 4784W        W 8835   3.210   1.715  13.126  0.1300  0.3436 -0.1527
 4785W        W 8836   8.124   4.022   4.430  0.0516 -0.0176 -0.3363
 4786W        W 8837  10.104   6.267   9.582  0.0403 -0.0249  0.1867
 4787W        W 8838   0.230   7.067   0.403 -0.0384 -0.1822  0.1783
 4788W        W 8839   9.258   9.469   0.396 -0.2027 -0.0612  0.1058
 4789W        W 8840   4.024   1.266   2.808 -0.0222  0.0046  0.1087
 4790W        W 8841   5.795   6.978  13.079  0.2017 -0.0810 -0.0681
 4791W        W 8842   3.422   2.043   9.321  0.0311 -0.1210  0.0499
 4792W        W 8843   4.554   6.705   2.661 -0.3305  0.0131  0.1157
 4793W        W 8844   2.223   7.319   3.790 -0.1037 -0.5331  0.1313
 4794W        W 8845   4.679   0.070   3.197  0.2692  0.0915  0.3219
 4795W        W 8846  10.102   5.582   0.454  0.0134  0.2108 -0.1380
 4796W        W 8847   0.971   7.986  13.061  0.1491 -0.2336 -0.0167
 4797W        W 8848   0.228   2.710  12.822  0.0622 -0.0415  0.0767
 4798W        W 8849   6.683   6.751   4.301 -0.0970 -0.0517 -0.0590
 4799W        W 8850   0.302   8.244  11.983 -0.1780 -0.1282  0.0876
 4800W        W 8851   1.426   0.754   3.880  0.2197 -0.0754  0.3406
 4801W        W 8852   1.801   3.371   2.388  0.1694 -0.0260 -0.0697
 4802W        W 8853   3.794   1.346   0.209 -0.0340 -0.0382 -0.2148
 4803W        W 8854   9.964   0.203  11.646  0.2130 -0.4519 -0.0747
 4804W        W 8855   0.159   8.060   0.627 -0.0640 -0.0004 -0.1287
 4805W        W 8856   4.167   6.597   2.935  0.0503  0.2209 -0.1258
 4806W        W 8857   8.547   4.983  13.003 -0.0541 -0.1142  0.0122
 4807W        W 8858   3.302   2.982   0.242  0.0660 -0.1607 -0.2627
 4808W        W 8859   2.365   6.712  13.694  0.2969  0.1547  0.1227
 4809W        W 8860   5.322   9.697   4.857 -0.0706  0.0879 -0.3311
 4810W        W 8861   0.810   5.495  11.160 -0.1177  0.2544  0.0652
 4811W        W 8862  10.131  10.126   2.233  0.0504 -0.1239  0.0592
 4812W        W 8863   2.037   7.448   9.669  0.1524  0.2746  0.1123
 4813W        W 8864   1.816   7.215   1.167  0.0083 -0.1962  0.1463
 4814W        W 8865   4.411   7.825  12.970 -0.2903  0.0681  0.0484
 4815W        W 8866   6.208   4.086  12.204 -0.2335  0.1807  0.1623
 4816W        W 8867   2.493   9.761  10.579 -0.2508  0.2376  0.2543
 4817W        W 8868   8.684   9.061  13.734  0.0646 -0.0642 -0.0022
 4818W        W 8869   9.035   3.353   3.664  0.0160  0.1518  0.4903
 4819W        W 8870   6.157   1.107   1.719  0.0384  0.2313  0.1481
 4820W        W 8871   4.547   1.899  11.249  0.0191 -0.1912 -0.0875
 4821W        W 8872   9.658   7.057  12.637  0.4335 -0.4810 -0.1864
 4822W        W 8873   6.106   6.129  13.374  0.2986 -0.2769 -0.0877
 4823W        W 8874   7.418   0.082  13.298  0.1064  0.2559 -0.1444
 4824W        W 8875   8.507   4.885   1.357 -0.2495 -0.1834 -0.0664
 4825W        W 8876   9.455   5.363   2.079 -0.0307  0.0684 -0.1170
 4826W        W 8877   6.805   4.967   4.562 -0.2039  0.1126 -0.0205
 4827W        W 8878   0.699   8.084   2.961  0.1048 -0.3088 -0.1441
 4828W        W 8879   4.183   0.256   3.140 -0.0011 -0.0379  0.1157
 4829W        W 8880   6.701   7.723   5.092 -0.1540 -0.1898  0.0161
 4830W        W 8881   8.927   5.901   4.011  0.0897 -0.3927 -0.0146
 4831W        W 8882   6.693   1.307   0.138  0.3000  0.3440 -0.0495
 4832W        W 8883   7.926   3.011   1.528 -0.4012 -0.0038  0.0803
 4833W        W 8884   1.571   2.185  12.869  0.4864 -0.1897 -0.0475
 4834W        W 8885   6.590   2.993   1.499  0.1549  0.1539 -0.0071
 4835W        W 8886   3.931   1.544  12.380  0.1708  0.0123 -0.0318
 4836W        W 8887   0.754   4.002   4.132 -0.1326 -0.0140 -0.2210
 4837W        W 8888   1.528   9.398   9.900  0.3075  0.1987  0.0803
 4838W        W 8889   9.855   9.998  13.136 -0.4246 -0.1869  0.3249
 4839W        W 8890   1.704   7.566  10.133 -0.0653  0.1195 -0.1537
 4840W        W 8891   5.541   9.987   0.723 -0.1003 -0.0507 -0.2597
 4841W        W 8892   4.703   7.098   3.462  0.0670  0.1439  0.0409
 4842W        W 8893   5.074   1.628   4.555 -0.0030 -0.1935  0.0287
 4843W        W 8894   5.744   5.796  10.030 -0.1328  0.0675 -0.1459
 4844W        W 8895   9.777   9.281   1.716 -0.2527 -0.0169 -0.0033
 4845W        W 8896   5.373   1.998   0.940 -0.0401  0.0757 -0.0865
 4846W        W 8897   1.838   9.871  13.304  0.0771  0.0555  0.2875
 4847W        W 8898   2.953  10.132   1.708 -0.1420  0.1757 -0.1624
 4848W        W 8899   4.007   6.105   5.428  0.1627 -0.0670 -0.1105
 4849W        W 8900   3.438   7.771   0.639 -0.0895  0.0449  0.1591
 4850W        W 8901   9.140   1.337  11.047 -0.1405  0.0091 -0.0117
 4851W        W 8902   7.392   8.691   1.712 -0.0711  0.2320 -0.0708
 4852W        W 8903   3.445   3.040   5.162 -0.0859  0.0476  0.1706
 4853W        W 8904  10.119   6.587   3.367  0.1241  0.0666  0.0779
 4854W        W 8905   0.081  10.085  10.797  0.0099 -0.0323  0.1143
 4855W        W 8906   6.993   4.632  11.433 -0.2783  0.0690  0.0441
 4856W        W 8907   9.872   3.878   3.519 -0.0451 -0.0225  0.0072
 4857W        W 8908   6.002   2.172   4.117 -0.0080  0.1282  0.0724
 4858W        W 8909   8.174   7.867  11.455  0.1281  0.1354 -0.2043
 4859W        W 8910   7.486   2.526  11.363 -0.1328  0.2603 -0.1592
 4860W        W 8911   2.162   9.462   4.486 -0.0349  0.0183 -0.2262
 4861W        W 8912   5.956   7.313   0.852 -0.1472 -0.2399  0.0979
 4862W        W 8913   9.549   5.910  13.828  0.1986 -0.0420 -0.0189
 4863W        W 8914   2.686   0.378  13.305  0.0805  0.0315  0.1667
 4864W        W 8915   7.382   0.874   2.682  0.1082 -0.0752  0.1202
 4865W        W 8916   6.652   9.327   9.741 -0.0119 -0.0643 -0.2886
 4866W        W 8917   9.243   3.040   2.808 -0.2708  0.2593  0.1848
 4867W        W 8918   0.524   2.498  10.694  0.2629 -0.0588 -0.0955
 4868W        W 8919   2.613   2.504  10.497 -0.2081 -0.3293  0.1931
 4869W        W 8920   3.745   7.336   4.827  0.0888  0.1453 -0.1216
 4870W        W 8921   8.446   9.471   1.497  0.1913  0.1100 -0.0025
 4871W        W 8922   1.589   5.725  13.251  0.2228  0.1384  0.3019
 4872W        W 8923   5.512   7.407   1.104  0.0939 -0.3173 -0.0278
 4873W        W 8924   2.572   6.793  12.886  0.0044 -0.0973 -0.0160
 4874W        W 8925   9.326   6.730  10.745 -0.1278 -0.0910 -0.0442
 4875W        W 8926   0.888   1.797   4.625 -0.1692  0.0881  0.0948
 4876W        W 8927   2.329   2.982   9.684  0.0096  0.4830 -0.2339
 4877W        W 8928   2.348   6.085   5.291  0.2448 -0.1073  0.0380
 4878W        W 8929   3.909   1.198   3.976 -0.1487 -0.0385 -0.1999
 4879W        W 8930   8.278   3.758  13.399  0.2379 -0.0654 -0.1868
 4880W        W 8931   1.990   2.865   0.966  0.0421 -0.1291  0.2863
 4881W        W 8932   7.430   3.860   9.200 -0.2297 -0.4416 -0.1147
 4882W        W 8933   6.725   8.020  12.734  0.1217 -0.1572  0.1266
 4883W        W 8934   4.170   6.637   2.396  0.5499  0.2916  0.0886
 4884W        W 8935   8.726   7.585   3.160 -0.2548  0.3024  0.1043
 4885W        W 8936   1.229   6.931  13.632 -0.0537  0.1569  0.0186
 4886W        W 8937   9.517   9.844   9.658  0.0858 -0.0428 -0.0764
 4887W        W 8938   3.445   2.463   0.999  0.1285 -0.1729 -0.2340
 4888W        W 8939   9.621   4.308   2.180 -0.1694  0.5105  0.0840
 4889W        W 8940   3.908   1.102  10.489  0.1933 -0.0008 -0.2277
 4890W        W 8941   9.526   1.391   3.822  0.1536 -0.1349 -0.0181
 4891W        W 8942   1.199   9.162   2.899 -0.2484 -0.0651 -0.1170
 4892W        W 8943   2.804   7.589   2.202  0.1441 -0.1792  0.0570
 4893W        W 8944   7.068   4.276   1.371 -0.0702 -0.0215  0.2203
 4894W        W 8945  10.061   9.272   4.331  0.0152  0.1488  0.3911
 4895W        W 8946   5.063   7.224  10.852 -0.1596  0.0825  0.2103
 4896W        W 8947   6.518   4.483   0.299 -0.0140  0.3513  0.1980
 4897W        W 8948   0.278   6.267   2.533 -0.0402 -0.5370  0.0273
 4898W        W 8949   9.755   9.246  11.624  0.2472 -0.0641  0.2343
 4899W        W 8950   0.540   3.067  12.851 -0.0467 -0.0311 -0.4589
 4900W        W 8951   8.084   6.624   0.648  0.0807 -0.0492 -0.3232
 4901W        W 8952   6.845   6.549  13.003  0.2071 -0.0205  0.0617
 4902W        W 8953   8.510   5.043   4.900 -0.0302 -0.1776  0.0005
 4903W        W 8954   6.283   7.312  12.778  0.0899  0.0620  0.1089
 4904W        W 8955   5.366   5.128   5.305  0.1383 -0.0837 -0.5802
 4905W        W 8956   5.267   2.073   3.087 -0.1929  0.0199 -0.1289
 4906W        W 8957   2.563   9.329   1.241  0.0003 -0.2847 -0.0012
 4907W        W 8958   5.156   8.721   1.313 -0.2790  0.1536  0.3419
 4908W        W 8959   4.042   1.623  10.683 -0.1938  0.0870  0.1381
 4909W        W 8960   1.011   8.743  12.410 -0.1047 -0.0798  0.0490
 4910W        W 8961   1.341   9.483  11.850 -0.3149  0.3154 -0.2545
 4911W        W 8962   6.059   3.115   5.159 -0.1977 -0.0336 -0.0184
 4912W        W 8963   4.041   4.448  10.344  0.1716  0.6176  0.3116
 4913W        W 8964   2.958   7.890   2.567  0.1812  0.1449  0.4504
 4914W        W 8965   6.874   9.536   0.955  0.1218  0.1255  0.2379
 4915W        W 8966   0.342   1.366  10.530  0.1293  0.3439  0.0593
 4916W        W 8967   2.297   3.453   5.133 -0.1832 -0.1161 -0.0168
 4917W        W 8968   9.511   6.311  10.588  0.3053  0.0318 -0.1670
 4918W        W 8969   6.905   5.544   2.822 -0.2252 -0.0023  0.2788
 4919W        W 8970   6.795   3.664  10.629  0.1852 -0.0594 -0.3341
 4920W        W 8971   0.599   0.953  13.405 -0.2097 -0.3403  0.2184
 4921W        W 8972   5.956   0.239   3.622  0.2551  0.2625  0.1678
 4922W        W 8973   7.475   2.522  11.901 -0.1300 -0.2253  0.0546
 4923W        W 8974   8.832   5.146  13.757  0.2180  0.0301  0.0193
 4924W        W 8975   6.061   5.636  13.295 -0.3653 -0.1227  0.0780
 4925W        W 8976   2.806   5.206  13.639 -0.2407  0.2042 -0.2246
 4926W        W 8977   7.398   1.061   0.595 -0.4266 -0.0197  0.0184
 4927W        W 8978   5.473   9.137   0.860  0.2920  0.1982 -0.0701
 4928W        W 8979   3.000   5.268  11.125  0.0712  0.0454 -0.1840
 4929W        W 8980   3.178   0.366  13.304  0.0866 -0.1066  0.0102
 4930W        W 8981   8.248   1.857  13.071 -0.2427  0.0122 -0.0141
 4931W        W 8982   6.768   7.261   3.101  0.2351 -0.0365  0.0546
 4932W        W 8983   3.029   2.525  11.980  0.0142 -0.0506  0.3957
 4933W        W 8984   6.087   7.568  11.042 -0.3295 -0.2503  0.0653
 4934W        W 8985   6.744   6.082   2.202 -0.1280 -0.0487  0.0726
 4935W        W 8986   3.010   8.082  12.944  0.3198 -0.3527 -0.0250
 4936W        W 8987   9.918   8.301   0.622 -0.0937 -0.0880  0.0625
 4937W        W 8988   3.144   9.329   3.882 -0.1497  0.0099  0.0928
 4938W        W 8989   6.498   2.149  11.626 -0.0045 -0.1161  0.1080
 4939W        W 8990   1.526   1.916   4.107 -0.1219 -0.0885  0.0991
 4940W        W 8991   2.319   7.410  12.097 -0.4176  0.3771  0.5049
 4941W        W 8992   6.337   9.688  11.159 -0.0866  0.1079 -0.2001
 4942W        W 8993   6.122   1.292  11.441  0.0696 -0.0296  0.1412
 4943W        W 8994   2.184   6.911   1.985 -0.1083  0.1713 -0.0534
 4944W        W 8995   6.088   6.167   4.093 -0.0405  0.0707 -0.1936
 4945W        W 8996   7.033   1.532   0.447  0.1094 -0.1843 -0.0885
 4946W        W 8997   1.936   9.379  13.006 -0.3160 -0.0032  0.4132
 4947W        W 8998   4.911   2.426  10.255 -0.1844 -0.1492 -0.0588
 4948W        W 8999   8.045   1.142   1.934 -0.1012 -0.1154  0.1200
 4949W        W 9000   2.977   7.584   3.461  0.1335 -0.0333 -0.0773
 4950W        W 9001   1.327   7.204   1.043  0.0382 -0.2820  0.1540
 4951W        W 9002   0.535   7.829   0.347 -0.1452  0.2032  0.1053
 4952W        W 9003   9.343   5.454  12.969 -0.1601 -0.0840 -0.0261
 4953W        W 9004   4.611   9.172  13.347 -0.2509 -0.0628  0.0838
 4954W        W 9005   3.956   7.834  11.438 -0.1754 -0.0731 -0.2489
 4955W        W 9006   0.746   4.238   1.854  0.3455 -0.0145 -0.0968
 4956W        W 9007   3.238   5.995   1.120  0.3540 -0.0912 -0.0593
 4957W        W 9008   5.449   8.430   4.146  0.0141  0.2073  0.0232
 4958W        W 9009   2.674   5.417   4.442  0.1453  0.2614 -0.0739
 4959W        W 9010   2.892   3.345   2.545  0.4397 -0.3673  0.0900
 4960W        W 9011   9.619   7.294   1.356 -0.2025 -0.2136 -0.0988
 4961W        W 9012   2.694   7.215  10.304  0.0792  0.1235 -0.1054
 4962W        W 9013   6.429   5.803  10.764 -0.0488 -0.0676 -0.0647
 4963W        W 9014   0.438   8.408   0.435  0.1377  0.0207 -0.1695
 4964W        W 9015   6.063   5.161   1.755  0.0400  0.0963  0.2740
 4965W        W 9016   0.278   1.282   0.652 -0.1665  0.0558  0.1926
 4966W        W 9017   6.207   8.910  10.566 -0.0062  0.2137  0.0365
 4967W        W 9018   3.134   7.616   4.027  0.3344 -0.0284  0.1255
 4968W        W 9019   0.477   9.798  10.912  0.0665  0.0623  0.3174
 4969W        W 9020   4.620   7.754   1.981 -0.1524  0.0998  0.0038
 4970W        W 9021   7.216   1.316  10.552 -0.2814 -0.1010  0.2124
 4971W        W 9022   3.840   6.467   3.332 -0.2120  0.0397  0.2427
 4972W        W 9023   0.255   9.130   0.755  0.0127  0.2603  0.3844
 4973W        W 9024   1.293   4.237   2.495  0.0692 -0.3009  0.3021
 4974W        W 9025   8.133   9.836  13.449 -0.1360  0.2377  0.0149
 4975W        W 9026   1.618   6.167   3.974  0.0651 -0.1222  0.0222
 4976W        W 9027   7.574   1.460   0.306 -0.0195 -0.1747 -0.0706
 4977W        W 9028   2.274   3.034  10.498  0.1430 -0.1268  0.0865
 4978W        W 9029   1.652   5.380   8.802 -0.2262  0.0338 -0.2606
 4979W        W 9030   5.627   2.459   1.602  0.0663  0.0259  0.4227
 4980W        W 9031   1.117   8.055   3.646  0.0275  0.0066  0.0534
 4981W        W 9032   7.816   7.048  10.826  0.2042 -0.0483  0.4917
 4982W        W 9033   3.136   5.841   1.630  0.1553  0.0168 -0.0303
 4983W        W 9034   0.420   1.874   1.377 -0.1076  0.1529 -0.0214
 4984W        W 9035   6.397  10.161  10.892  0.0522 -0.0688 -0.6070
 4985W        W 9036   6.209   2.788  11.667 -0.0624  0.1095 -0.1213
 4986W        W 9037   5.763   6.826   5.228 -0.0278  0.1227  0.0228
 4987W        W 9038   0.141   0.708   1.705 -0.1141 -0.0847 -0.0900
 4988W        W 9039   8.069   3.732   2.901 -0.2578 -0.1504  0.0641
 4989W        W 9040   2.932   3.703   0.420  0.2144  0.3049 -0.0637
 4990W        W 9041   1.784   5.774   3.291 -0.2049  0.0852 -0.0974
 4991W        W 9042   1.040   5.627   3.956  0.0193  0.3621  0.1331
 4992W        W 9043   8.344   2.920   1.102  0.3283 -0.0530 -0.3335
 4993W        W 9044   4.646   8.111   1.235  0.0094 -0.1654  0.2076
 4994W        W 9045   5.508   1.573   1.182 -0.0171  0.2048  0.0733
 4995W        W 9046   8.268   2.223  13.386  0.3375 -0.1205  0.1104
 4996W        W 9047   4.382   2.552   1.012 -0.1003  0.2186 -0.0806
 4997W        W 9048  10.100   1.535   3.346 -0.3251 -0.0489  0.3416
 4998W        W 9049   2.237   8.326   1.958  0.0096  0.1471  0.1927
 4999W        W 9050   4.859   5.980  13.929  0.0006 -0.0869  0.2114
 5000W        W 9051   3.796   5.639  12.945  0.1572  0.3356  0.1071
 5001W        W 9052   2.129   1.967  11.694  0.1195  0.1409  0.2564
 5002W        W 9053   1.979   5.853   2.799  0.2716 -0.1495 -0.0141
 5003W        W 9054   8.053   3.219   3.787 -0.0364  0.2420  0.1090
 5004W        W 9055   1.375   6.976   4.532 -0.0599  0.3286  0.0959
 5005W        W 9056   1.554   5.452  10.882  0.0149  0.0832 -0.0693
 5006W        W 9057   3.475   8.423  13.202  0.0356  0.4287  0.0454
 5007W        W 9058   8.628   5.377   5.259 -0.3608 -0.0169  0.3286
 5008W        W 9059   3.732   6.065  13.249 -0.1056  0.1524 -0.0238
 5009W        W 9060   1.212   8.077   2.346 -0.2862 -0.2393 -0.0178
 5010W        W 9061   5.764   4.815   1.474 -0.0601  0.3996  0.1731
 5011W        W 9062   2.493   6.630   0.651 -0.0059  0.1668 -0.0799
 5012W        W 9063   8.875   6.011   9.934 -0.0120  0.2263 -0.3972
 5013W        W 9064   5.945   0.105   0.850 -0.2751 -0.4141  0.0420
 5014W        W 9065   4.998   2.904   9.998 -0.1978  0.4377 -0.1200
 5015W        W 9066   5.413   1.473  12.831 -0.0295  0.2521  0.2032
 5016W        W 9067   9.363   8.688  10.096  0.0053  0.1876  0.3323
 5017W        W 9068   0.665   6.369   4.401  0.0680  0.3378 -0.1177
 5018W        W 9069   7.135   8.997   3.408  0.1448 -0.3164  0.0647
 5019W        W 9070   8.850   9.308   1.763 -0.0552  0.0750 -0.1351
 5020W        W 9071   8.554   8.115   1.111 -0.0695 -0.4944 -0.3531
 5021W        W 9072   0.740   8.637  11.981  0.1133 -0.1113 -0.1139
 5022W        W 9073   6.940   6.963   2.246 -0.0122 -0.0895 -0.1410
 5023W        W 9074   4.765   5.221   3.301 -0.0042 -0.0385 -0.0562
 5024W        W 9075   1.536   6.035   4.760 -0.2952  0.0320  0.1631
 5025W        W 9076   4.795   4.043   3.171  0.0016 -0.1708 -0.2163
 5026W        W 9077   0.158   7.546   4.858  0.0230 -0.2346  0.0505
 5027W        W 9078   6.161   0.728   1.399  0.0714 -0.0513 -0.0553
 5028W        W 9079   7.703   1.077  11.294  0.0411 -0.0576  0.2198
 5029W        W 9080   7.218   0.996  11.363 -0.3487  0.0067  0.0786
 5030W        W 9081   9.464   1.406  12.003 -0.3220 -0.0586 -0.1723
 5031W        W 9082   4.065   4.029   4.501 -0.0718  0.1197 -0.0201
 5032W        W 9083   3.780   2.464   1.901  0.0835 -0.0093 -0.1517
 5033W        W 9084   1.611   7.548  12.361  0.0217  0.2570  0.1264
 5034W        W 9085   5.790   7.427  12.796 -0.0201  0.0626 -0.0124
 5035W        W 9086   5.594   8.426  11.324  0.0810 -0.0808  0.1415
 5036W        W 9087   2.582   7.993   2.903  0.1600  0.0770 -0.1636
 5037W        W 9088   7.844   5.417   3.197 -0.1529  0.1237 -0.0657
 5038W        W 9089   9.910   6.506   4.081  0.2356 -0.2574  0.2037
 5039W        W 9090   2.356   1.754  12.776 -0.2051 -0.1051  0.2771
 5040W        W 9091   5.819   2.173  10.081  0.3464  0.0822  0.2088
 5041W        W 9092   2.736   8.115  11.781  0.1062 -0.0153  0.0766
 5042W        W 9093   5.724   1.270   3.471  0.1605 -0.3709 -0.2245
 5043W        W 9094   7.945   1.166   1.479  0.1731 -0.0439 -0.0744
 5044W        W 9095   5.155   4.825  13.272 -0.0295  0.1362  0.1163
 5045W        W 9096   1.555   6.525   3.149 -0.3758  0.0340 -0.1632
 5046W        W 9097   7.456   7.280   3.660  0.1021  0.1669  0.1230
 5047W        W 9098   5.452   0.174  11.285 -0.0454 -0.1513 -0.1572
 5048W        W 9099   9.904   9.697  12.160 -0.1746 -0.1422 -0.5713
 5049W        W 9100   1.825   0.171   4.497  0.2711 -0.3253  0.7052
 5050W        W 9101   7.619   8.415   9.891  0.0335  0.1770  0.0999
 5051W        W 9102   4.206   9.544   9.998 -0.2394  0.2276  0.3185
 5052W        W 9103   0.099   1.139  11.773  0.0048  0.0822 -0.1059
 5053W        W 9104   0.105   1.749   1.764  0.0857  0.0621 -0.3848
 5054W        W 9105   2.579   8.049   9.908  0.0287  0.1885 -0.2753
 5055W        W 9106   9.991   0.422   2.342 -0.3807 -0.1379 -0.1205
 5056W        W 9107   0.031   2.808   0.386  0.0547 -0.0746 -0.3449
 5057W        W 9108   7.724   7.954  11.799  0.1291 -0.1158 -0.0846
 5058W        W 9109   2.255   8.214   3.270  0.0491 -0.2949 -0.2192
 5059W        W 9110   3.213   6.882   4.691 -0.2423 -0.3436  0.1341
 5060W        W 9111   2.111   8.380  13.741  0.0169  0.0086  0.3521
 5061W        W 9112   7.726   6.333   3.601  0.0406 -0.2336 -0.1044
 5062W        W 9113   9.586   7.174  10.972  0.1540 -0.0728 -0.3722
 5063W        W 9114   0.007   7.244  12.000  0.0648  0.3640 -0.3835
 5064W        W 9115   6.950   6.296  11.396 -0.0736  0.3242 -0.1589
 5065W        W 9116   8.438   6.082   3.028 -0.0720  0.0784 -0.2057
 5066W        W 9117   5.063   1.767  13.922  0.0163  0.0155  0.1438
 5067W        W 9118   9.357   0.126   0.922  0.0455  0.1372 -0.1876
 5068W        W 9119   7.470   9.654   0.017  0.0661 -0.0285  0.3264
 5069W        W 9120   8.763   1.933   2.064 -0.0009 -0.0694  0.1275
 5070W        W 9121   1.147   2.038   2.412 -0.2718 -0.3288  0.3667
 5071W        W 9122   4.895   3.842   2.635 -0.3272 -0.0050 -0.0718
 5072W        W 9123   5.054   7.100   0.459 -0.1553  0.0176  0.3031
 5073W        W 9124   8.609   5.150  10.922 -0.1107  0.0710  0.0343
 5074W        W 9125   2.646   2.095   0.855  0.0581 -0.2621  0.0221
 5075W        W 9126   9.625   3.044   2.506  0.4617  0.2159  0.0365
 5076W        W 9127   8.619   5.223   1.758  0.1042  0.0937 -0.3590
 5077W        W 9128   9.017   2.353   1.818  0.1531 -0.2706  0.1031
 5078W        W 9129   9.556   7.713  10.842  0.1489 -0.2727 -0.1483
 5079W        W 9130   6.296   8.249   4.462  0.5348 -0.0792 -0.0537
 5080W        W 9131   7.880   7.423   4.105  0.1234 -0.1036  0.2254
 5081W        W 9132   6.900   8.653   1.648  0.4204 -0.2982 -0.1799
 5082W        W 9133   0.956   0.161  11.298  0.0350 -0.1239  0.1808
 5083W        W 9134   4.275   7.874  13.426 -0.1307 -0.1200 -0.3067
 5084W        W 9135   8.327   7.615   0.942 -0.3291  0.5880 -0.0588
 5085W        W 9136   7.102   7.233   4.073  0.1572 -0.1955 -0.2033
 5086W        W 9137   5.571   1.485   9.737 -0.1737  0.0637 -0.0371
 5087W        W 9138   8.101   4.987  10.105 -0.0915  0.3620  0.1080
 5088W        W 9139   2.969   2.062   9.616 -0.0468 -0.0741  0.0415
 5089W        W 9140   0.579   0.414  11.104 -0.0051 -0.1516  0.2074
 5090W        W 9141   8.463  10.189   3.082  0.0589  0.4586  0.2829
 5091W        W 9142   3.568   4.003   4.761  0.2480 -0.0487 -0.1079
 5092W        W 9143   1.860   3.366  12.193 -0.0938 -0.1799 -0.0503
 5093W        W 9144   5.757   8.605   2.838  0.1168  0.0451 -0.1336
 5094W        W 9145   6.136   5.182  11.813  0.1664  0.0119  0.0894
 5095W        W 9146   2.082   0.747  10.728 -0.1941 -0.0393  0.1944
 5096W        W 9147   5.993   9.002   0.731 -0.0771 -0.0006 -0.0152
 5097W        W 9148   8.343   6.381  12.570  0.1015 -0.0976 -0.0867
 5098W        W 9149   4.563   4.644   0.985  0.2058 -0.0698 -0.1788
 5099W        W 9150   1.832   0.563  11.950 -0.0196 -0.0965 -0.2807
 5100W        W 9151  10.106   7.776   1.963  0.0113 -0.0883 -0.1843
 5101W        W 9152   4.344   4.978   4.111 -0.2461  0.0990 -0.0032
 5102W        W 9153   0.796   3.501  13.054  0.0833 -0.4510 -0.0558
 5103W        W 9154   2.777   2.789   0.392 -0.3080  0.1381 -0.1754
 5104W        W 9155   1.316   9.785  12.454 -0.2781 -0.0083 -0.0568
 5105W        W 9156   7.971   9.065   4.540  0.0876  0.0126  0.0227
 5106W        W 9157   9.706   9.400   0.368 -0.1047  0.0178 -0.2450
 5107W        W 9158   3.386   1.544   0.996 -0.1529  0.5498  0.2152
 5108W        W 9159   7.277   0.900  10.245 -0.2104  0.0700  0.0156
 5109W        W 9160   8.270   6.261   3.525  0.0208  0.2304 -0.0483
 5110W        W 9161   9.609   5.861   3.009 -0.1328  0.2216 -0.1185
 5111W        W 9162   0.822   7.633   4.951  0.3747 -0.2314  0.1852
 5112W        W 9163   8.152   6.356  11.633  0.3980 -0.0469  0.1793
 5113W        W 9164   3.790   0.296  12.552 -0.2079 -0.0422  0.3087
 5114W        W 9165   6.698   8.831   0.584 -0.0346 -0.1867 -0.0923
 5115W        W 9166   2.265   0.282   4.211 -0.2114  0.1249  0.2052
 5116W        W 9167  10.103   5.754   3.675  0.1120 -0.2440  0.2226
 5117W        W 9168   6.265   8.964   4.080  0.1219 -0.2913 -0.0550
 5118W        W 9169   8.767   3.577   3.287 -0.0225  0.0741 -0.3005
 5119W        W 9170   4.911   0.147   4.060 -0.0215  0.1092  0.0062
 5120W        W 9171   9.798   0.287   3.714  0.1094 -0.0754 -0.1307
 5121W        W 9172   9.569   7.481  13.367 -0.2105 -0.1167 -0.1566
 5122W        W 9173   5.402   3.623  12.189 -0.1324 -0.0031 -0.1576
 5123W        W 9174   8.661   3.826   2.849 -0.1703 -0.1086 -0.0886
 5124W        W 9175   5.513   0.157  12.188  0.0813  0.0180  0.0264
 5125W        W 9176   6.784   5.963   3.346 -0.0377 -0.1866  0.1621
 5126W        W 9177   3.270   6.191  13.459  0.1579  0.1565 -0.1874
 5127W        W 9178   2.257   9.044   2.054  0.0541 -0.1081  0.2248
 5128W        W 9179   7.320   1.911   0.143  0.2395 -0.1693 -0.1141
 5129W        W 9180   8.753   5.550   3.708 -0.1298  0.2152 -0.0263
 5130W        W 9181   1.176   0.270   1.970  0.1445 -0.2456 -0.2155
 5131W        W 9182   9.687   0.938  11.669  0.3998 -0.0244 -0.0194
 5132W        W 9183   7.822   8.362  10.753  0.2207  0.2127  0.2727
 5133W        W 9184   9.376   8.447   0.784 -0.0662  0.0900 -0.2611
 5134W        W 9185   5.414   4.456   2.228  0.2013 -0.2420 -0.0312
 5135W        W 9186   1.915   6.591  12.842 -0.1932  0.0726 -0.0069
 5136W        W 9187   4.292   2.768   4.044  0.2347  0.2571  0.2498
 5137W        W 9188   9.822   6.318   2.348  0.4097 -0.0134  0.1032
 5138W        W 9189   6.506   6.095  11.579 -0.1383 -0.2042 -0.1430
 5139W        W 9190   6.393   4.014  12.753 -0.1432  0.1640 -0.0233
 5140W        W 9191   4.907   4.035  13.530 -0.2602 -0.0434 -0.1381
 5141W        W 9192   9.120   5.765   0.186  0.1965  0.2504 -0.1530
 5142W        W 9193   0.216   9.311   2.597  0.3219  0.0609 -0.4624
 5143W        W 9194   7.510   6.998  12.475  0.2512  0.0070 -0.1575
 5144W        W 9195   3.610   5.753  10.543 -0.2463 -0.2340  0.1233
 5145W        W 9196   9.146   3.934  13.893  0.0639  0.0506 -0.1772
 5146W        W 9197   5.962   3.823   3.361  0.1813 -0.1703 -0.2994
 5147W        W 9198   4.774   4.083   9.524  0.0223  0.0166 -0.2346
 5148W        W 9199   2.911   9.579  10.236 -0.0259 -0.3553 -0.2005
 5149W        W 9200   5.216   3.315   5.026  0.0991 -0.2018 -0.0669
 5150W        W 9201   1.785   8.878  13.094  0.0384 -0.4528 -0.2826
 5151W        W 9202   0.590   6.473   9.498  0.2220 -0.0691 -0.1656
 5152W        W 9203   5.315   3.556   4.515 -0.0236 -0.2960 -0.0268
 5153W        W 9204   4.682   5.166   4.489  0.2044  0.1779  0.0720
 5154W        W 9205   8.258   1.088   2.395  0.1497 -0.1328  0.1625
 5155W        W 9206   9.367   7.038   2.019 -0.1116  0.0742 -0.1105
 5156W        W 9207   3.620   3.804   9.076  0.1747 -0.0137  0.0323
 5157W        W 9208   1.034   8.702   4.174 -0.1144 -0.0891 -0.5339
 5158W        W 9209   8.270   3.449  11.013 -0.2670  0.0668 -0.2057
 5159W        W 9210   0.260   7.348  10.420 -0.0504  0.3488  0.0550
 5160W        W 9211   4.351   4.963  10.640 -0.4277  0.0890 -0.1349
 5161W        W 9212   0.804   8.168   0.092 -0.1192 -0.1524  0.4211
 5162W        W 9213   7.907   5.942  13.831 -0.2375  0.0661 -0.1003
 5163W        W 9214   5.331   0.935   1.776 -0.0304 -0.0509  0.3841
 5164W        W 9215   3.519   2.384   2.421 -0.4635 -0.0554 -0.1816
 5165W        W 9216   9.766   1.585   2.485 -0.0327 -0.0880 -0.1921
 5166W        W 9217   8.804   7.581   4.129  0.1269  0.2478  0.0057
 5167W        W 9218   0.410   2.364  12.551 -0.1071 -0.1678  0.3130
 5168W        W 9219   7.288   2.120  12.757  0.0873  0.0763  0.2243
 5169W        W 9220   7.202   7.709  11.900  0.0199 -0.2065 -0.3423
 5170W        W 9221   0.305   3.593  12.386  0.1783 -0.1159  0.1894
 5171W        W 9222   5.023   8.547  13.204 -0.0980 -0.0786 -0.1819
 5172W        W 9223   4.822   0.878   1.944 -0.2096 -0.3403 -0.1366
 5173W        W 9224   1.992   5.988  11.822 -0.0275 -0.0642 -0.0127
 5174W        W 9225   4.111   4.364  10.839 -0.1440 -0.3453  0.0538
 5175W        W 9226   5.620   2.656   0.108 -0.1681 -0.1010 -0.1440
 5176W        W 9227   3.169   6.597   1.933 -0.0968  0.2503  0.5483
 5177W        W 9228   4.282   8.001   1.601 -0.1325 -0.0832  0.0264
 5178W        W 9229   2.451   2.554   0.000 -0.1986 -0.0951  0.0254
 5179W        W 9230   3.193   5.709  12.358  0.1801  0.2915 -0.0937
 5180W        W 9231   3.997  10.022  11.751 -0.0404 -0.0611 -0.0955
 5181W        W 9232   1.069   9.505   3.950  0.3746 -0.0339  0.0916
 5182W        W 9233   5.144   6.449  13.056  0.1999  0.0872 -0.0715
 5183W        W 9234   9.795   6.721   9.435  0.3195 -0.0039  0.2020
 5184W        W 9235   0.984   1.332   1.842 -0.4076  0.2201 -0.1563
 5185W        W 9236   2.394   1.290  10.960 -0.2639 -0.1627  0.0418
 5186W        W 9237   9.795   6.128   1.112  0.0900  0.0580  0.4791
 5187W        W 9238   7.494   0.636   0.314  0.0387  0.1103 -0.0263
 5188W        W 9239   4.924   3.536  12.834  0.0503  0.0881 -0.1380
 5189W        W 9240   0.183   5.441   3.285 -0.1806 -0.1051 -0.0909
 5190W        W 9241   1.663   7.088   0.653 -0.4730  0.0544  0.1356
 5191W        W 9242   4.453   9.059  10.814 -0.0133  0.2561 -0.3458
 5192W        W 9243   3.763   2.024   8.832  0.0796  0.1406 -0.1286
 5193W        W 9244   4.687   4.964   9.978  0.0291  0.0849 -0.0848
 5194W        W 9245  10.150   8.137  13.644  0.0701  0.2780 -0.0299
 5195W        W 9246   7.060   9.520  10.521 -0.3521 -0.0227 -0.0522
 5196W        W 9247   0.719   9.166  13.020  0.0236  0.0093  0.4476
 5197W        W 9248   0.431   4.967  12.366  0.1257 -0.0350 -0.1107
 5198W        W 9249   5.449   1.003  13.223 -0.2439 -0.1370  0.0514
 5199W        W 9250   7.880   8.644   3.620 -0.0049  0.0513  0.0381
 5200W        W 9251   9.026   4.197   2.212  0.2902  0.0502  0.2207
 5201W        W 9252   9.351   0.962  12.793 -0.0851 -0.1564 -0.0624
 5202W        W 9253   3.725   7.615  11.005  0.0036 -0.5167 -0.2076
 5203W        W 9254   3.692   3.928   3.781 -0.3803  0.0096 -0.0737
 5204W        W 9255  10.030   2.476   2.069 -0.2451 -0.3248  0.1241
 5205W        W 9256   5.424   4.179   0.018 -0.2080 -0.1374 -0.1721
 5206W        W 9257   7.823   4.983  10.879 -0.1619  0.1904 -0.2419
 5207W        W 9258   7.082   3.375   0.798  0.0575 -0.0472 -0.1751
 5208W        W 9259   7.435   3.196   4.603 -0.1815 -0.1710 -0.0883
 5209W        W 9260   3.672   6.464   2.817 -0.1806  0.1907 -0.2442
 5210W        W 9261   0.696   0.897   0.908 -0.0899 -0.2439 -0.1929
 5211W        W 9262   8.148   9.664   1.205  0.0894 -0.1923 -0.2236
 5212W        W 9263   1.800   1.558  10.527 -0.0206 -0.0030  0.0917
 5213W        W 9264   9.825   2.356  11.571  0.1405  0.0713  0.2111
 5214W        W 9265   4.995   0.104   4.874  0.1813 -0.1658 -0.5556
 5215W        W 9266   9.258   6.341   3.301 -0.2009  0.1336 -0.1067
 5216W        W 9267   5.698   7.182   2.697  0.1297 -0.2829 -0.0712
 5217W        W 9268   5.720   3.447   4.946 -0.0398 -0.3156  0.0017
 5218W        W 9269   4.139   7.555   1.269 -0.1548  0.0093 -0.2706
 5219W        W 9270   0.415   9.663   0.728 -0.1442  0.0714  0.0076
 5220W        W 9271   8.107   7.398  11.765  0.0412 -0.0916  0.0037
 5221W        W 9272   3.092   1.061  12.374  0.0380 -0.1858 -0.1261
 5222W        W 9273   1.394   9.093   3.959 -0.0368  0.2372  0.3008
 5223W        W 9274  10.148   5.271  10.996  0.1486  0.0099 -0.2502
 5224W        W 9275   6.178   0.299   0.280 -0.1282 -0.2175  0.0704
 5225W        W 9276   4.353  10.159   1.856 -0.6467 -0.0158  0.1033
 5226W        W 9277   2.285   4.943   9.832 -0.0568 -0.1162 -0.0858
 5227W        W 9278   1.064   6.503  10.512 -0.0217 -0.0797  0.3875
 5228W        W 9279   5.809   0.658   1.756  0.1001  0.1378 -0.0869
 5229W        W 9280   7.438   2.969  10.515  0.0515  0.0113 -0.3594
 5230W        W 9281   8.173   2.414  11.094 -0.0372  0.2959 -0.0826
 5231W        W 9282   5.991   1.502   1.429 -0.0191  0.2133 -0.0872
 5232W        W 9283   8.986   3.730   2.426 -0.1060  0.2084  0.1172
 5233W        W 9284   6.321   8.392   3.511 -0.1132 -0.0381 -0.0951
 5234W        W 9285   2.429   8.303   3.873  0.2684  0.1447 -0.1167
 5235W        W 9286   3.721   2.659  12.594 -0.1442 -0.2166  0.0451
 5236W        W 9287   7.196   8.719   2.573 -0.1276  0.1155  0.0059
 5237W        W 9288   4.576   9.380   9.675  0.0663 -0.3780  0.1306
 5238W        W 9289   8.826   8.828  11.501  0.1233 -0.1360 -0.1786
 5239W        W 9290   6.912   6.155  10.474 -0.3408 -0.0680  0.3716
 5240W        W 9291   8.520   9.569  13.585 -0.1360  0.2027  0.1197
 5241W        W 9292  10.157   4.511   0.712  0.3536  0.1248 -0.2487
 5242W        W 9293   4.386   3.263   3.257 -0.3047 -0.2022 -0.3444
 5243W        W 9294   4.627   3.131  12.574  0.1148  0.0924 -0.2713
 5244W        W 9295   0.050   6.082   1.379  0.0162  0.0346  0.0605
 5245W        W 9296   0.205   6.299   3.023  0.0016 -0.4433  0.1069
 5246W        W 9297   0.161   2.024   0.095 -0.0383 -0.0609 -0.3823
 5247W        W 9298   6.186   0.277   4.131 -0.0605  0.1186 -0.0358
 5248W        W 9299   8.479   0.388   1.795  0.0536  0.1728 -0.2670
 5249W        W 9300   4.707   9.066  10.361 -0.1298 -0.2254  0.0731
 5250W        W 9301   0.860   2.133  12.498 -0.2190  0.0148 -0.2049
 5251W        W 9302   3.143   4.148  10.436 -0.0955  0.0947 -0.0337
 5252W        W 9303   3.656   3.867  13.302 -0.1936 -0.0168  0.0087
 5253W        W 9304   6.568   8.263   4.899  0.2962 -0.2787  0.1108
 5254W        W 9305   7.590   3.168   3.180 -0.0800  0.2206  0.2113
 5255W        W 9306   3.369   3.446   3.341  0.0594 -0.2059  0.0042
 5256W        W 9307   9.879   1.849   0.812  0.0081 -0.0784 -0.3051
 5257W        W 9308   7.379   7.380  12.769 -0.1037 -0.0088 -0.1883
 5258W        W 9309   3.463   0.720   5.397  0.0055 -0.1764 -0.0882
 5259W        W 9310   1.148   3.803   2.702 -0.2029 -0.0288  0.2427
 5260W        W 9311   3.872   2.421  11.096 -0.1343 -0.2001 -0.4328
 5261W        W 9312   8.527   7.693  10.597  0.0891 -0.0126  0.1133
 5262W        W 9313   8.819   3.368  13.352 -0.1500  0.1212 -0.0425
 5263W        W 9314   9.676   7.558   4.635 -0.0013 -0.1111  0.2323
 5264W        W 9315   2.417   8.355  12.261  0.1108  0.2379 -0.2123
 5265W        W 9316   3.489   2.985   4.482  0.3760 -0.1228 -0.1525
 5266W        W 9317   5.448   8.876   1.675  0.0187 -0.2102  0.0026
 5267W        W 9318   1.406   3.914   0.668 -0.1462 -0.2567 -0.2143
 5268W        W 9319   2.791   4.792  13.928  0.0143 -0.3030  0.0020
 5269W        W 9320   8.980   5.179  13.297  0.2819  0.3568  0.1393
 5270W        W 9321   7.205   9.924   9.558  0.0800 -0.0485 -0.0396
 5271W        W 9322   8.796   7.822  13.561 -0.2263  0.1500 -0.0994
 5272W        W 9323   3.002   4.437  13.596 -0.1316  0.1323 -0.3002
 5273W        W 9324   5.287   3.177   3.759 -0.0587  0.2570 -0.0161
 5274W        W 9325   9.970   8.695  11.255 -0.1399 -0.2042  0.2288
 5275W        W 9326   7.816   4.954   3.503  0.0943 -0.0116 -0.0343
 5276W        W 9327   4.696   7.316   1.051 -0.2542  0.1628 -0.2596
 5277W        W 9328   7.433   6.394   3.244  0.4017 -0.0665  0.1370
 5278W        W 9329   1.525   1.812   3.650  0.2771  0.1479 -0.0425
 5279W        W 9330   5.380   0.046  12.736  0.1876 -0.1082  0.0285
 5280W        W 9331   6.319   7.709   2.233 -0.1329 -0.1723  0.1618
 5281W        W 9332   5.435   7.001   9.169 -0.0915  0.1492  0.2059
 5282W        W 9333   7.030   0.225  13.541  0.0168  0.0173 -0.0754
 5283W        W 9334   2.045   4.721  13.105  0.0997  0.0705 -0.0812
 5284W        W 9335   0.511   8.181  12.852  0.2589 -0.0475  0.3791
 5285W        W 9336   1.655   1.335   1.032 -0.0272  0.0150 -0.2113
 5286W        W 9337   0.637   9.843   3.812  0.3660 -0.1122 -0.1203
 5287W        W 9338   9.995   5.263   3.646 -0.1687  0.1658  0.0089
 5288W        W 9339   4.978   0.165  13.030 -0.4361 -0.2452  0.0554
 5289W        W 9340   8.528   2.928   3.630 -0.0804 -0.0399  0.1445
 5290W        W 9341   2.178   9.990   4.601 -0.1891 -0.0955 -0.0983
 5291W        W 9342   7.409   8.140  11.465  0.1286  0.1776  0.4654
 5292W        W 9343   7.924   9.481   0.250  0.2695  0.2008  0.2886
 5293W        W 9344   7.506   9.217   4.440 -0.2225  0.0509 -0.2297
 5294W        W 9345   4.853   4.571  10.947  0.0895 -0.0240  0.0400
 5295W        W 9346   5.799   6.173   1.675 -0.2063 -0.1831 -0.0144
 5296W        W 9347   0.532   1.935  11.283  0.2350 -0.0817  0.1098
 5297W        W 9348   9.306   5.389   1.035 -0.1009  0.0200  0.0462
 5298W        W 9349   8.729   7.144  12.310  0.1592  0.1180 -0.0001
 5299W        W 9350   7.585   5.395   2.227  0.3097 -0.0184  0.1538
 5300W        W 9351   9.967   5.444   8.519  0.1472  0.2995  0.0520
 5301W        W 9352   2.573   6.705   2.400  0.1510 -0.1087 -0.0926
 5302W        W 9353   3.248   2.699   4.783 -0.1284 -0.0648 -0.3040
 5303W        W 9354   3.197   2.592  13.490 -0.1329 -0.0013  0.1949
 5304W        W 9355   1.325   1.667   2.672  0.4362 -0.0809  0.3346
 5305W        W 9356   4.461   9.565   4.419  0.1124 -0.0749 -0.0626
 5306W        W 9357   1.129   7.122  12.685  0.0160  0.3355 -0.3933
 5307W        W 9358   9.393   1.833  13.150 -0.1211 -0.0292 -0.1404
 5308W        W 9359   2.147   7.451  13.711  0.1869  0.1213  0.3794
 5309W        W 9360   9.138   6.411  11.917 -0.2777  0.1258  0.1326
 5310W        W 9361   9.756   5.861   0.294  0.0141  0.0550  0.0539
 5311W        W 9362   0.622   0.529  12.488 -0.1144 -0.1609  0.0660
 5312W        W 9363   3.317   4.778  11.891 -0.0528  0.1123 -0.0263
 5313W        W 9364   8.758   8.768   5.454 -0.0336  0.3595 -0.0732
 5314W        W 9365   6.465   6.549  10.166 -0.3391  0.0801  0.0268
 5315W        W 9366   4.229   0.131   1.401 -0.1573 -0.0372  0.2290
 5316W        W 9367   3.884   9.768   4.300  0.0090  0.2316 -0.1186
 5317W        W 9368   0.263   8.638  13.791  0.1117  0.0595  0.0143
 5318W        W 9369   7.301   0.609  12.498 -0.1918  0.6937  0.2000
 5319W        W 9370   0.927   7.623  10.462  0.1258 -0.2549  0.1589
 5320W        W 9371   0.567   0.968   1.746 -0.0959  0.0520 -0.1406
 5321W        W 9372   5.614   7.579   1.601  0.4597 -0.0148 -0.0796
 5322W        W 9373   0.958   7.096  13.223  0.1177 -0.1550 -0.1047
 5323W        W 9374   1.891   3.304   9.602  0.3064  0.1988 -0.1120
 5324W        W 9375   5.674   2.276  11.063 -0.0700  0.2470 -0.0809
 5325W        W 9376   9.235   3.126   1.559 -0.3223 -0.1378 -0.0590
 5326W        W 9377   4.396   8.999  12.219 -0.0729 -0.2477 -0.2369
 5327W        W 9378   8.680   9.094   2.194 -0.1045  0.0123  0.2611
 5328W        W 9379   9.709   1.305  12.754 -0.5223  0.2471 -0.0801
 5329W        W 9380   6.020   1.050  12.540  0.0696  0.0998  0.1417
 5330W        W 9381   3.786   8.460   3.950 -0.4638 -0.2284  0.0847
 5331W        W 9382   9.924   9.173   2.786  0.0472 -0.3468 -0.1396
 5332W        W 9383   6.562   8.394   1.270 -0.4731 -0.1450 -0.0016
 5333W        W 9384   5.922   6.355  10.224 -0.0406  0.2282 -0.0739
 5334W        W 9385   9.777   4.723  11.873 -0.2477  0.0954  0.1746
 5335W        W 9386   4.133  10.126   9.256  0.4235  0.2135  0.2661
 5336W        W 9387   2.045   1.845   0.259 -0.1966 -0.1229  0.0440
 5337W        W 9388   3.694   1.162   0.665 -0.1128 -0.1398  0.0605
 5338W        W 9389   5.387   6.268   0.246 -0.1379  0.2640 -0.3500
 5339W        W 9390   3.365   7.412   9.530 -0.2372  0.2003 -0.0872
 5340W        W 9391   5.690   4.074  13.255  0.1640 -0.0463  0.4398
 5341W        W 9392   2.235   2.690   3.053 -0.0611  0.0535 -0.0201
 5342W        W 9393   7.059   1.083  12.650 -0.0454 -0.0413 -0.1159
 5343W        W 9394   3.934   6.623  12.313 -0.1877  0.0609 -0.1578
 5344W        W 9395   5.157   3.024  12.812  0.0057  0.0943  0.0170
 5345W        W 9396   7.483   4.916  10.147 -0.2140  0.0940 -0.0568
 5346W        W 9397   2.165   2.034  12.166  0.0519  0.2176 -0.0678
 5347W        W 9398   9.017   6.621   2.850 -0.1716  0.1306  0.2488
 5348W        W 9399   3.563  10.174  11.442 -0.2683 -0.0353  0.2035
 5349W        W 9400   8.469   4.724  13.753  0.0028  0.1211  0.0371
 5350W        W 9401   5.974   0.274  10.072  0.3082  0.3242  0.5218
 5351W        W 9402   0.434   2.555   3.808 -0.1276  0.0544  0.1173
 5352W        W 9403   7.780   9.009   4.059 -0.1066 -0.0496 -0.0783
 5353W        W 9404   8.708   6.575  12.204  0.2686  0.4075  0.2332
 5354W        W 9405   1.167   2.233   2.859 -0.1480 -0.3704  0.2020
 5355W        W 9406   5.099   5.611  12.505 -0.0269  0.3707 -0.1537
 5356W        W 9407   2.570   9.781   1.575 -0.0946 -0.1632 -0.0588
 5357W        W 9408   8.203  10.052  11.110 -0.3215  0.0348  0.0745
 5358W        W 9409   2.815   3.438  10.984  0.2336  0.2457 -0.1946
 5359W        W 9410   9.022   7.069   3.960  0.2352  0.0156 -0.1182
 5360W        W 9411   3.585   5.838   9.786  0.0374 -0.0624  0.1148
 5361W        W 9412   3.695   8.690   5.157  0.2572 -0.1387 -0.1346
 5362W        W 9413   3.126   6.078   9.408 -0.0253 -0.0079 -0.0811
 5363W        W 9414   2.834   9.509  12.311  0.0034 -0.0596 -0.2442
 5364W        W 9415   3.955   1.901  12.927 -0.1646  0.0787 -0.1009
 5365W        W 9416   0.359   4.820   0.796  0.1280  0.0533 -0.0912
 5366W        W 9417   9.745   2.532   3.482 -0.1120 -0.0285 -0.0770
 5367W        W 9418   0.883   1.733   1.594 -0.2679  0.0296 -0.2903
 5368W        W 9419   7.131   7.796   5.297 -0.0947  0.1211 -0.2266
 5369W        W 9420   9.354   4.818   3.040 -0.2062 -0.2790 -0.0851
 5370W        W 9421   3.739   0.233  11.024  0.3488  0.2550 -0.0072
 5371W        W 9422   1.696   3.423  13.449  0.2292  0.0611 -0.1891
 5372W        W 9423   6.497   9.190   0.832  0.3073 -0.1288  0.0613
 5373W        W 9424   6.763   0.539   1.724  0.3674  0.1734  0.0017
 5374W        W 9425   4.131   9.292   2.209 -0.3506 -0.4005 -0.1800
 5375W        W 9426   7.035   5.246   3.850  0.0836 -0.0020 -0.0645
 5376W        W 9427   7.925   9.525   4.201  0.1664  0.2056 -0.2925
 5377W        W 9428   9.637   8.582   0.309  0.4016  0.1156  0.1144
 5378W        W 9429   5.624   2.764   3.770  0.0017 -0.3299 -0.2117
 5379W        W 9430   8.920   1.083   3.419  0.0986 -0.1887 -0.0413
 5380W        W 9431   9.435   2.190   2.633  0.0105  0.0090 -0.0066
 5381W        W 9432   6.336   0.861   3.017 -0.0769  0.2405 -0.2976
 5382W        W 9433   5.802  10.138  12.530 -0.0350  0.0808  0.0070
 5383W        W 9434   9.717   6.977  13.149 -0.0702  0.2292 -0.0916
 5384W        W 9435   8.442   8.868   2.616  0.1710 -0.1728 -0.0967
 5385W        W 9436   7.941   4.269  12.754  0.2502  0.0593 -0.0864
 5386W        W 9437   0.643   4.375   0.089  0.2200  0.1445 -0.0233
 5387W        W 9438   6.387   3.185  12.564  0.1971  0.0452 -0.1507
 5388W        W 9439   8.319   8.412   2.847  0.2225  0.0542  0.1519
 5389W        W 9440   7.500   5.980  12.172  0.2556  0.0412  0.1665
 5390W        W 9441   4.111   5.090   1.615 -0.0884  0.1433 -0.2384
 5391W        W 9442   4.487   7.837  11.424 -0.1714  0.0728  0.2750
 5392W        W 9443   7.410   9.950  11.247  0.4464  0.0103  0.1380
 5393W        W 9444   3.737   6.870  13.733  0.1463 -0.0115  0.0190
 5394W        W 9445   1.606   6.842  11.890 -0.0801  0.2389 -0.2406
 5395W        W 9446   8.024   9.628   9.307  0.4542  0.2147  0.1451
 5396W        W 9447   8.688   7.191   0.998  0.1418 -0.2600 -0.0294
 5397W        W 9448   6.557   7.608  13.106 -0.1369 -0.0179 -0.0472
 5398W        W 9449   7.032   1.667  10.885 -0.1123  0.1054  0.1747
 5399W        W 9450   5.174   4.960   2.932 -0.0635 -0.2128  0.0348
 5400W        W 9451   2.417   4.600   4.610 -0.0034  0.2534 -0.0891
 5401W        W 9452   9.955   1.349  12.126  0.1718 -0.0933 -0.4067
 5402W        W 9453   5.565   1.954  11.966  0.0125 -0.1828  0.0680
 5403W        W 9454   3.827   0.876   9.497  0.0719  0.0595  0.1760
 5404W        W 9455   1.171   4.794  11.346 -0.2279  0.2039  0.0753
 5405W        W 9456   3.941   8.041   4.224  0.2426  0.3879  0.2389
 5406W        W 9457   5.086   3.938   0.876 -0.1420  0.0332  0.2673
 5407W        W 9458   3.895   5.492  10.112  0.2100 -0.2562 -0.1106
 5408W        W 9459   6.439   1.721   1.516  0.1196 -0.2368  0.3410
 5409W        W 9460   7.867   2.894   0.411 -0.0103  0.0929  0.1031
 5410W        W 9461   0.803   7.483   1.466  0.2950  0.0906  0.1325
 5411W        W 9462   6.327   0.562  13.288  0.3572  0.2308  0.0380
 5412W        W 9463   3.919   1.383   9.580  0.1720  0.1226 -0.1825
 5413W        W 9464   5.345   7.772   3.307  0.1681  0.1347  0.2960
 5414W        W 9465   7.158   7.889   0.199  0.0617  0.1558 -0.0734
 5415W        W 9466   6.032  10.047  10.350 -0.1035 -0.2377  0.1033
 5416W        W 9467   0.491   5.446   0.014 -0.1684 -0.0350  0.0021
 5417W        W 9468   6.714   6.465   3.574  0.0095  0.0284 -0.2907
 5418W        W 9469   0.520   1.054  10.979 -0.1007  0.0078 -0.2982
 5419W        W 9470   1.613   2.098   2.611  0.1168 -0.2172 -0.0964
 5420W        W 9471   9.077   8.112   1.085  0.1272 -0.0104 -0.2032
 5421W        W 9472   2.574   5.967  12.518  0.0353  0.0656  0.0315
 5422W        W 9473   3.338   2.627  12.997  0.0477 -0.1581  0.2352
 5423W        W 9474   0.914   5.628   2.797  0.0117  0.1512  0.2648
 5424W        W 9475   4.200   7.283   0.856 -0.3469  0.1245 -0.0214
 5425W        W 9476   2.013   0.788  10.078 -0.2347 -0.1399  0.2651
 5426W        W 9477   5.020   4.635   4.797 -0.2187  0.1689 -0.0087
 5427W        W 9478   5.337   9.097  12.495  0.0849  0.1006  0.0348
 5428W        W 9479   0.963   5.771  11.970  0.0066  0.0728 -0.2899
 5429W        W 9480   8.339   6.793   9.548 -0.2159 -0.1679 -0.0993
 5430W        W 9481   9.326   5.839   4.293 -0.0216  0.3691  0.2002
 5431W        W 9482   0.170   9.676  12.962 -0.0525 -0.2709  0.0498
 5432W        W 9483   8.096   7.392  10.576  0.2848 -0.1339 -0.1551
 5433W        W 9484   8.491   2.194   0.683 -0.0085 -0.0827  0.0066
 5434W        W 9485   8.690   9.831  11.911  0.2986 -0.0680 -0.0274
 5435W        W 9486   5.557   5.582   3.437  0.1151 -0.5085 -0.1580
 5436W        W 9487   5.656   6.742  12.147  0.1245 -0.0167 -0.2500
 5437W        W 9488   6.761   6.959  12.320 -0.0612  0.0902 -0.1246
 5438W        W 9489  10.099   8.301   2.098  0.0624 -0.1428 -0.3051
 5439W        W 9490   4.152   4.330   8.607 -0.1130 -0.2418 -0.1186
 5440W        W 9491   3.079   8.063  12.385  0.0853 -0.0876  0.1789
 5441W        W 9492   8.229   8.423   9.286 -0.0583  0.0363  0.1139
 5442W        W 9493   3.176   2.644   2.105  0.0308  0.0057  0.0517
 5443W        W 9494   7.674   8.782   2.166  0.0873 -0.2938  0.2461
 5444W        W 9495   0.082   0.075  12.030 -0.2253 -0.0065  0.2095
 5445W        W 9496   5.283   0.951  10.287  0.1026 -0.0302 -0.0500
 5446W        W 9497   7.419   9.783  13.005 -0.1479  0.3198 -0.1541
 5447W        W 9498   1.089   6.192   5.161  0.0335  0.0362  0.2849
 5448W        W 9499   5.003   9.974  11.341  0.2041 -0.1800  0.1156
 5449W        W 9500   2.298   1.449   0.469 -0.1534 -0.2449  0.1072
 5450W        W 9501   3.455   6.888   9.247  0.3412  0.0357  0.0040
 5451W        W 9502   0.172   7.545   0.565  0.2057 -0.1272 -0.3329
 5452W        W 9503   9.809   7.147  11.671  0.2743  0.0857  0.1712
 5453W        W 9504   8.702   3.862  12.456  0.1169  0.0234  0.1799
 5454W        W 9505   3.666   4.657   1.109  0.0643 -0.1894 -0.2142
 5455W        W 9506   0.227   1.636  11.632 -0.0426  0.2805 -0.1951
 5456W        W 9507   9.917   7.835   4.930 -0.1573 -0.0749 -0.0495
 5457W        W 9508   1.726   9.127   2.867 -0.0594 -0.1411 -0.0198
 5458W        W 9509   2.510   5.944   2.513  0.2206 -0.0144  0.0964
 5459W        W 9510   7.843   5.066  12.449 -0.3347 -0.3494 -0.0401
 5460W        W 9511   0.794  10.082   2.322  0.3035 -0.3698  0.2614
 5461W        W 9512   5.293   1.108   1.107  0.2968 -0.0409  0.1666
 5462W        W 9513   2.325   3.091   2.315  0.3059 -0.0061  0.2132
 5463W        W 9514   1.216   3.324   2.418  0.1861 -0.2935  0.0564
 5464W        W 9515   6.810   0.044   5.019  0.2150 -0.1910  0.0810
 5465W        W 9516   9.999   6.172  13.535 -0.0659 -0.0792  0.1156
 5466W        W 9517   7.954   4.679   4.046  0.0666  0.1850  0.0653
 5467W        W 9518   0.628   5.087   2.580  0.2438  0.1102 -0.0603
 5468W        W 9519   4.634   6.200  13.068  0.2211 -0.0535  0.1162
 5469W        W 9520   3.735   3.260   0.290 -0.2815  0.3048  0.0615
 5470W        W 9521   2.976   9.941   3.602 -0.0388  0.2862 -0.0676
 5471W        W 9522   1.305   0.476  13.563 -0.0991  0.1813  0.1133
 5472W        W 9523   7.962   9.952   2.167 -0.1976  0.1309  0.2304
 5473W        W 9524   8.339   9.684   0.087 -0.1066 -0.0428  0.0581
 5474W        W 9525   9.466   1.777  13.766  0.1703 -0.0141  0.0646
 5475W        W 9526   1.894   4.787  11.753 -0.0344  0.2349  0.0114
 5476W        W 9527   4.204   8.223   3.751  0.0625 -0.0773  0.1155
 5477W        W 9528   7.228   0.739   1.819  0.0160 -0.1472  0.1117
 5478W        W 9529   7.298   5.611  12.705  0.1051 -0.3724  0.1842
 5479W        W 9530   6.065   4.580  11.222 -0.1181 -0.0250  0.0891
 5480W        W 9531   8.745   0.518   2.229 -0.3028  0.0122 -0.1355
 5481W        W 9532   5.748   3.330  10.464  0.0091  0.3234  0.0975
 5482W        W 9533   0.910   2.544  13.957  0.0876  0.1270 -0.0907
 5483W        W 9534   1.382   9.173  12.299 -0.1812 -0.0890  0.1844
 5484W        W 9535   0.026   2.720  10.701  0.1465  0.2355  0.1158
 5485W        W 9536   4.392   2.192   1.383 -0.0709  0.0439  0.1548
 5486W        W 9537   4.399   6.856  12.339 -0.1883 -0.3496  0.1381
 5487W        W 9538   4.320   3.975   2.176 -0.1180  0.3197 -0.1698
 5488W        W 9539   8.528   1.780  11.814 -0.1060 -0.1275  0.0455
 5489W        W 9540   8.445   4.774  12.489  0.1548  0.1346  0.1501
 5490W        W 9541   4.528   5.418   1.753 -0.2793 -0.3783  0.2222
 5491W        W 9542   9.720   5.289  11.645 -0.0575 -0.4316 -0.1320
 5492W        W 9543   2.847   0.044  11.229  0.1130 -0.3403 -0.4274
 5493W        W 9544   0.805   7.115   1.006 -0.0283  0.0248 -0.0154
 5494W        W 9545   6.844   0.269   3.484 -0.0717  0.0168  0.1392
 5495W        W 9546   0.730   0.830  12.903 -0.1596  0.3069  0.0074
 5496W        W 9547   2.522  10.121   3.807 -0.2461  0.1325 -0.0400
 5497W        W 9548   4.043   7.783   4.706  0.4275 -0.0038  0.2251
 5498W        W 9549   3.419   2.805   3.842 -0.1993 -0.0527  0.1854
 5499W        W 9550   3.660   8.889  11.421  0.0802 -0.0387  0.1537
 5500W        W 9551   6.858   6.323   4.075 -0.1945 -0.0677 -0.3083
 5501W        W 9552   2.535   4.395   2.931 -0.1227 -0.0549  0.1383
 5502W        W 9553   4.578   5.549  12.574 -0.2463 -0.0038 -0.0551
 5503W        W 9554   7.095   5.378   9.128  0.2337 -0.1086 -0.0420
 5504W        W 9555   4.120   9.041   3.254  0.0629 -0.2881  0.2769
 5505W        W 9556   2.474   6.011   0.742 -0.3835  0.2286  0.1741
 5506W        W 9557   5.184   8.937  10.545  0.1186 -0.1648 -0.2515
 5507W        W 9558   3.270   3.906  13.635  0.0409 -0.1675 -0.2267
 5508W        W 9559   4.504   8.254   0.290  0.0672 -0.1419  0.4242
 5509W        W 9560   3.046   2.546  10.755 -0.0171  0.4925  0.0480
 5510W        W 9561   2.822   7.768   4.434 -0.1298 -0.0672  0.1093
 5511W        W 9562   5.662   3.530   2.451 -0.0708  0.2121 -0.1892
 5512W        W 9563   7.024   5.812   4.000  0.0610  0.1488 -0.0988
 5513W        W 9564   2.222   2.745   8.652  0.4137 -0.1054  0.1491
 5514W        W 9565   7.058   3.335   1.570  0.1891 -0.2604 -0.1256
 5515W        W 9566   1.488   2.227  10.352  0.7140  0.0961  0.0487
 5516W        W 9567   1.896   4.533  10.832 -0.0124  0.1295 -0.0019
 5517W        W 9568   4.029   3.382  13.863  0.0340 -0.1057 -0.0448
 5518W        W 9569   6.836   3.219   1.944  0.0898  0.3506  0.1670
 5519W        W 9570   1.750   4.634  12.625  0.0265  0.1045  0.3403
 5520W        W 9571   4.587   6.305   4.335  0.1693 -0.2852 -0.0954
 5521W        W 9572   4.968   2.534   2.716 -0.0363  0.1180  0.0126
 5522W        W 9573   0.812   7.599  12.732  0.0677  0.0418  0.0116
 5523W        W 9574   7.266   8.175   0.879  0.1612  0.1461 -0.2947
 5524W        W 9575   5.749   3.212   0.778 -0.3289  0.0974  0.0523
 5525W        W 9576   5.654   2.879   1.178  0.1920 -0.2392  0.1156
 5526W        W 9577   3.343   0.525   3.465  0.0708 -0.0686  0.0880
 5527W        W 9578   5.758   9.523  13.933 -0.2057 -0.0379  0.0225
 5528W        W 9579   2.499   5.503  12.746 -0.0375  0.0589  0.2283
 5529W        W 9580   7.590   4.546   3.630 -0.2473  0.0970 -0.2320
 5530W        W 9581   6.142   0.298  12.377  0.1979 -0.0676 -0.2210
 5531W        W 9582   1.974   4.389   3.044 -0.0586  0.0690  0.4442
 5532W        W 9583   6.216   3.817   1.309 -0.2036  0.1551  0.1000
 5533W        W 9584   8.759   8.599   2.997 -0.0049  0.0525  0.2644
 5534W        W 9585   7.836   0.311   1.227 -0.0203 -0.0462  0.1178
 5535W        W 9586   6.521   0.397   2.148 -0.2494 -0.4344  0.4054
 5536W        W 9587   2.007   6.148  11.328 -0.2323 -0.2282 -0.0698
 5537W        W 9588   2.267   5.528   0.887 -0.1092  0.3727  0.2975
 5538W        W 9589   7.721  10.105   9.390 -0.1512  0.1603 -0.0169
 5539W        W 9590   4.808   9.194   4.482 -0.3044  0.0149 -0.0483
 5540W        W 9591   2.489   9.782   4.184  0.3635  0.2018  0.0001
 5541W        W 9592   9.983   4.693  11.021 -0.3865  0.0259  0.1402
 5542W        W 9593   6.381   4.782   9.457  0.1871 -0.1295  0.0499
 5543W        W 9594   4.194   8.238  12.679  0.3701 -0.0242 -0.2906
 5544W        W 9595   3.913   5.573   2.845 -0.0368 -0.2066  0.0016
 5545W        W 9596   5.322   8.568  10.294  0.2818  0.1127 -0.1973
 5546W        W 9597   8.249   3.409  10.504  0.1663 -0.0208 -0.1791
 5547W        W 9598   0.274   7.790   3.571 -0.1200  0.2770  0.2171
 5548W        W 9599   8.656   9.586   3.080  0.2926 -0.0616 -0.1731
 5549W        W 9600   5.944   3.723   4.030  0.1015  0.0166 -0.1069
 5550W        W 9601   7.088   9.441   4.234 -0.1623  0.1740  0.3696
 5551W        W 9602   0.119   0.005  12.915 -0.0695  0.2223  0.0793
 5552W        W 9603   8.224   5.990   1.371 -0.2899  0.1408  0.0273
 5553W        W 9604   1.879   3.391   0.281  0.1430  0.1804 -0.1608
 5554W        W 9605   2.573   1.582  10.446 -0.1565 -0.2178  0.0748
 5555W        W 9606   1.527   0.264   3.571  0.2880  0.2204 -0.1258
 5556W        W 9607   2.510   8.317  11.377 -0.3168 -0.2380  0.0397
 5557W        W 9608   9.466   4.769   9.885 -0.1994  0.0379 -0.0909
 5558W        W 9609   2.692   5.114   5.264 -0.1145 -0.0078 -0.0704
 5559W        W 9610   1.035   8.406  11.493 -0.0479 -0.1430 -0.3480
 5560W        W 9611   4.533   1.486   3.575 -0.2489 -0.0232  0.2008
 5561W        W 9612   9.426   8.839   5.255 -0.2374  0.0227 -0.1701
 5562W        W 9613  10.121   9.167   2.220 -0.0915  0.2197 -0.0636
 5563W        W 9614   9.324   3.538  12.594  0.1455  0.1694  0.3826
 5564W        W 9615   9.219   3.514  10.948 -0.2739 -0.0197  0.1192
 5565W        W 9616   3.304   0.401  11.203  0.3448  0.2440 -0.0484
 5566W        W 9617   8.144   6.459   1.218  0.1547  0.0401  0.2401
 5567W        W 9618   9.775   1.377   4.290 -0.1933 -0.0488  0.0809
 5568W        W 9619   7.252   9.899  10.073 -0.0036 -0.1910  0.1071
 5569W        W 9620   6.155   3.606  11.353 -0.0201  0.1502  0.0378
 5570W        W 9621   5.670   7.905  11.542  0.2434 -0.2292  0.1888
 5571W        W 9622   3.450   2.033  10.232 -0.1544  0.2272  0.0525
 5572W        W 9623   8.542   8.809   0.350  0.0215  0.0007  0.2621
 5573W        W 9624   2.184   8.553   1.150  0.1900 -0.1152  0.1853
 5574W        W 9625   7.324   4.947  12.194  0.4311 -0.0851  0.2947
 5575W        W 9626   8.434   6.499  11.237 -0.0310  0.1438  0.0506
 5576W        W 9627   1.940   7.458  11.132  0.1315 -0.0488 -0.1471
 5577W        W 9628   4.810   7.836  10.470  0.0720  0.1786  0.1823
 5578W        W 9629   8.730   6.704  12.719 -0.1831 -0.1712  0.0968
 5579W        W 9630   2.592   7.003  10.841 -0.1042 -0.1496  0.1186
 5580W        W 9631   9.662   9.126  10.113 -0.0048  0.1267 -0.2722
 5581W        W 9632   9.605   1.712  12.424 -0.0450  0.2427  0.3274
 5582W        W 9633   5.093   6.992  10.399 -0.0242 -0.0453 -0.0640
 5583W        W 9634   4.661   2.476  11.162  0.0313  0.2117 -0.0459
 5584W        W 9635   5.691   8.066   1.779  0.2626  0.0373  0.2648
 5585W        W 9636   9.875   4.338  12.723  0.0417 -0.0590  0.2197
 5586W        W 9637   6.405   6.321   3.172 -0.0907 -0.2058 -0.0937
 5587W        W 9638   2.138   3.469  13.282 -0.2416  0.2183 -0.0621
 5588W        W 9639   9.530   2.337  13.226  0.0883 -0.1630  0.3128
 5589W        W 9640   3.773   2.788  10.639  0.0109 -0.1070 -0.1198
 5590W        W 9641   0.786   9.444  13.718 -0.0595  0.2866  0.0589
 5591W        W 9642   2.339   2.399  13.071 -0.2070  0.2635  0.0952
 5592W        W 9643   0.809   8.335   9.846 -0.2313  0.2594  0.2089
 5593W        W 9644   2.053   6.848   0.383  0.3197  0.0342 -0.0721
 5594W        W 9645   4.886   6.355   2.610 -0.0124  0.1682 -0.0246
 5595W        W 9646   4.296   9.058  10.007  0.2342  0.0354  0.0513
 5596W        W 9647   8.009   5.549  12.106 -0.0241 -0.1837 -0.1993
 5597W        W 9648   9.942   1.000   2.451 -0.1207  0.1077 -0.2315
 5598W        W 9649   6.901   1.720   2.199 -0.2103  0.1683 -0.0580
 5599W        W 9650   8.120   0.355  12.760 -0.2092 -0.0556  0.1243
 5600W        W 9651   3.971   9.036   5.460 -0.0196  0.2768 -0.1855
 5601W        W 9652   9.778   6.214   1.563 -0.0396 -0.0058 -0.0752
 5602W        W 9653   7.133   4.621   1.783 -0.2672 -0.0270 -0.0724
 5603W        W 9654   2.706   4.539  11.098 -0.0726 -0.1487 -0.1245
 5604W        W 9655   6.417   2.027  10.720 -0.0949  0.1106 -0.3270
 5605W        W 9656   6.631   0.463  10.672  0.5805  0.0167 -0.1552
 5606W        W 9657   9.405   4.402  13.727  0.0219 -0.3296  0.0284
 5607W        W 9658   2.171   1.247   4.031  0.3301  0.0514  0.0631
 5608W        W 9659   0.235   9.227  13.050  0.1079  0.0550  0.0344
 5609W        W 9660   8.560   6.661  11.740 -0.0823  0.0713  0.2469
 5610W        W 9661   0.670   3.374   2.421 -0.1674  0.2122 -0.0807
 5611W        W 9662   6.426   0.951   0.802 -0.1567  0.0954 -0.0740
 5612W        W 9663   7.071   9.412  11.610 -0.1610  0.3329 -0.0196
 5613W        W 9664   3.769   8.159  11.774  0.2065  0.2831  0.1343
 5614W        W 9665   4.329   6.962   4.315  0.0025  0.2474  0.0629
 5615W        W 9666   5.057   6.737   3.350 -0.0887  0.0937 -0.0062
 5616W        W 9667   0.981   1.424   1.126  0.0761 -0.3333  0.3566
 5617W        W 9668   0.993   7.866   8.696  0.2636  0.1476 -0.0734
 5618W        W 9669   1.162   4.518   2.034 -0.2712  0.1490  0.2161
 5619W        W 9670   9.700   4.649   1.615 -0.2305  0.2074 -0.0241
 5620W        W 9671   3.713   6.348   5.865  0.2701 -0.0589  0.2821
 5621W        W 9672   1.823   1.524   0.578 -0.1991 -0.0627 -0.1114
 5622W        W 9673   3.183   4.217   3.873 -0.0412  0.0416 -0.2025
 5623W        W 9674   8.773   4.324   2.636 -0.1472 -0.1193  0.1934
 5624W        W 9675   3.263   1.950  12.266 -0.2684  0.0367 -0.0823
 5625W        W 9676   4.985   6.633   0.325  0.0057  0.1931 -0.0227
 5626W        W 9677   2.943  10.033  13.467  0.4645  0.0815  0.1215
 5627W        W 9678   3.977   8.164   0.607 -0.4189  0.1799  0.0165
 5628W        W 9679   2.218   9.282   4.928  0.2215 -0.4346 -0.0692
 5629W        W 9680   1.542   3.641   1.337  0.3072  0.0975  0.0404
 5630W        W 9681   5.886   2.502   2.553  0.1579 -0.0740 -0.1803
 5631W        W 9682   1.609   7.387   9.312 -0.0856  0.1022  0.1337
 5632W        W 9683   4.808   4.160   9.020  0.1021 -0.0252 -0.1287
 5633W        W 9684   2.142   3.865   3.026 -0.0944 -0.1157  0.4164
 5634W        W 9685   4.521   5.864  10.482  0.4081  0.2289 -0.2892
 5635W        W 9686   9.571   2.604  10.862 -0.2214 -0.2119  0.1488
 5636W        W 9687   8.927   1.210  13.901  0.0337 -0.2502  0.0386
 5637W        W 9688   2.217   2.982   3.920 -0.1987  0.0121  0.1472
 5638W        W 9689   1.342   6.683   0.923  0.1671  0.1199 -0.0877
 5639W        W 9690  10.082   1.200  13.179  0.1112 -0.1502  0.1497
 5640W        W 9691   6.624   6.418   9.636  0.0753  0.1023  0.1760
 5641W        W 9692   5.132   7.811   1.979 -0.0854 -0.0305  0.0981
 5642W        W 9693   8.585   7.923  10.103 -0.0206 -0.2082  0.2159
 5643W        W 9694   0.499   8.831   1.099  0.1027  0.0825 -0.1741
 5644W        W 9695   1.966   3.321   1.160  0.0247  0.1317 -0.1756
 5645W        W 9696   2.684   6.075   0.236 -0.0933  0.2550  0.1902
 5646W        W 9697   9.684   3.686   3.080  0.1853 -0.1451  0.1160
 5647W        W 9698   0.274   1.340   3.553 -0.1159  0.0607  0.0464
 5648W        W 9699   3.039   7.265   9.941  0.2243  0.1439  0.1191
 5649W        W 9700   9.550   7.684   3.676 -0.2381 -0.0950 -0.0193
 5650W        W 9701   6.968   3.408  11.297 -0.2215  0.0823  0.0688
 5651W        W 9702   7.358   7.022   0.614  0.1033  0.1439 -0.0455
 5652W        W 9703   4.863   6.735  11.816  0.2088  0.1225 -0.1331
 5653W        W 9704   8.419   1.707  10.501  0.2068  0.1984 -0.1436
 5654W        W 9705   1.508   6.572   4.805  0.1383  0.0516 -0.1036
 5655W        W 9706   2.956   9.622   0.873  0.2369 -0.0268  0.0667
 5656W        W 9707   6.853   6.741   4.965 -0.0440  0.1895  0.0740
 5657W        W 9708   3.042   0.205   3.277 -0.0979 -0.0555 -0.1932
 5658W        W 9709   3.727   8.370   3.024  0.2105 -0.0506  0.1755
 5659W        W 9710   8.584   3.764  10.803  0.2169  0.1071  0.0407
 5660W        W 9711   2.698   5.535   1.352 -0.2544  0.1160  0.3573
 5661W        W 9712   2.692   5.104   3.872 -0.1772 -0.2445  0.0979
 5662W        W 9713   0.792   0.015   1.730  0.0216  0.1630  0.3348
 5663W        W 9714   3.170   5.702  10.897 -0.2607  0.2859  0.0437
 5664W        W 9715   3.017   1.399   3.619 -0.2889 -0.3363  0.2603
 5665W        W 9716   1.921   5.402   2.699 -0.2750  0.1281  0.0496
 5666W        W 9717   4.584   7.066  13.511  0.0562  0.1879 -0.1841
 5667W        W 9718   3.453   0.784  13.156  0.0174 -0.2131 -0.1277
 5668W        W 9719   0.738   4.772  12.028  0.1339  0.2693 -0.2052
 5669W        W 9720   3.951   2.619   8.395 -0.2763  0.1007  0.0525
 5670W        W 9721   1.505   1.342   9.812 -0.1291 -0.1301  0.2631
 5671W        W 9722   5.276   6.341  11.375 -0.2247  0.1115 -0.0074
 5672W        W 9723   9.737   5.614  12.602 -0.2319  0.0384  0.2759
 5673W        W 9724   9.029   7.354   9.647  0.3864  0.3053 -0.3028
 5674W        W 9725   3.273   3.526   0.095  0.3693  0.0032 -0.0413
 5675W        W 9726   8.590   0.407  10.225 -0.0528 -0.2222 -0.1488
 5676W        W 9727   0.237   5.722   1.799  0.1110 -0.0199 -0.0696
 5677W        W 9728   5.555   3.656   0.655  0.1509  0.2438 -0.0274
 5678W        W 9729   8.512   7.872   0.524 -0.2276 -0.2608 -0.0187
 5679W        W 9730   4.955   0.506   3.683 -0.1564 -0.2924  0.1110
 5680W        W 9731   4.637   4.647  12.452 -0.2431 -0.1082  0.1726
 5681W        W 9732   7.630   2.675   1.289 -0.1069  0.0757 -0.3080
 5682W        W 9733   3.268   4.275   9.804 -0.2003 -0.2240 -0.0536
 5683W        W 9734   6.589  10.118   2.274 -0.1928  0.0857 -0.3230
 5684W        W 9735   3.629   0.358  13.039  0.1704 -0.0653  0.0898
 5685W        W 9736   4.904   7.345   2.132 -0.0002  0.0255 -0.0173
 5686W        W 9737   8.028   1.178  13.587  0.0748 -0.1156  0.0009
 5687W        W 9738   7.017   4.673   9.358 -0.0330  0.1372  0.1821
 5688W        W 9739   7.778   3.812   1.191 -0.5945  0.3823  0.2311
 5689W        W 9740   4.828   5.678   5.013 -0.1927  0.3207 -0.0438
 5690W        W 9741   6.744   1.891   4.899 -0.1756 -0.1122  0.0417
 5691W        W 9742   5.149   5.894  11.186  0.1326 -0.2092 -0.3922
 5692W        W 9743   0.360   1.540  11.053  0.2501 -0.2551 -0.2329
 5693W        W 9744   5.061   3.204  11.829 -0.1544 -0.0550  0.0527
 5694W        W 9745   4.293   3.661   0.271  0.1430 -0.0375 -0.0048
 5695W        W 9746   3.183  10.118   5.512 -0.0447 -0.1048 -0.0926
 5696W        W 9747   3.154   2.546   3.392  0.0770 -0.2015 -0.2520
 5697W        W 9748   2.663   6.788   9.051  0.0768  0.2461 -0.0123
 5698W        W 9749   8.331   1.331   0.400  0.1539  0.0912 -0.0221
 5699W        W 9750   5.666   0.468  12.544  0.0361  0.2752 -0.0892
 5700W        W 9751   7.906   3.933  11.485 -0.0224  0.3561 -0.2706
 5701W        W 9752   9.540   7.980   0.855 -0.0006  0.0962  0.0421
 5702W        W 9753   6.448   6.865  13.730 -0.3249 -0.0371  0.1467
 5703W        W 9754   6.482   4.846  11.564  0.2979 -0.0718  0.0671
 5704W        W 9755   0.494   3.229   1.546  0.3374  0.1632  0.0292
 5705W        W 9756   2.743   3.421   9.280 -0.5255 -0.3005  0.1162
 5706W        W 9757   2.343   3.433  12.776  0.0743 -0.1569  0.0236
 5707W        W 9758   8.609   6.074  10.484  0.0651 -0.2474 -0.1876
 5708W        W 9759   2.591   2.851   1.427  0.0695  0.1635  0.3275
 5709W        W 9760   8.371   6.576  10.711 -0.0145  0.1935  0.0226
 5710W        W 9761   9.187   8.009  12.782 -0.0313  0.0821  0.0611
 5711W        W 9762   0.043   6.911   1.277  0.2130  0.1590  0.3248
 5712W        W 9763   4.330   7.809   0.441 -0.2482  0.2804  0.1202
 5713W        W 9764   0.911   5.999   0.965  0.2067  0.1258 -0.2366
 5714W        W 9765   1.403   3.827  12.519 -0.0838  0.0876 -0.2599
 5715W        W 9766   0.044   2.348  12.183 -0.0528 -0.0863  0.2277
 5716W        W 9767   2.953   1.827  11.463 -0.1092  0.2503 -0.2972
 5717W        W 9768   3.802   9.965  10.641  0.0885  0.0870 -0.1147
 5718W        W 9769   3.148   6.356   5.521  0.1634  0.1425 -0.0751
 5719W        W 9770   4.987   8.953   1.784 -0.1360 -0.0436  0.2312
 5720W        W 9771   1.969   1.649   3.788  0.3088 -0.1375 -0.1225
 5721W        W 9772   3.687   0.342   4.570  0.0210  0.3363 -0.0778
 5722W        W 9773   6.517   1.543  11.633 -0.0065  0.0726  0.1718
 5723W        W 9774   6.421   3.115   9.870  0.1745  0.0216  0.0811
 5724W        W 9775   1.489   4.158   1.128  0.0505 -0.2419 -0.0328
 5725W        W 9776   9.161   1.960  10.115 -0.5610  0.3145  0.2282
 5726W        W 9777   2.931   3.516  13.644  0.2236 -0.0708  0.4509
 5727W        W 9778   4.844   9.468   1.717  0.0592 -0.0579 -0.0952
 5728W        W 9779   7.241   1.100   0.133 -0.1130 -0.0106 -0.1257
 5729W        W 9780   6.652   1.990   4.015 -0.0576 -0.0694  0.1875
 5730W        W 9781   4.347   5.394   3.028  0.3186  0.3197 -0.0882
 5731W        W 9782   1.747   6.024  13.733  0.1335 -0.2562 -0.2547
 5732W        W 9783   0.989   1.224  13.166 -0.3684  0.3290 -0.0837
 5733W        W 9784   1.133   7.805   3.165 -0.0590  0.1374  0.0546
 5734W        W 9785   6.048   9.048   0.163 -0.1578  0.1010 -0.0962
 5735W        W 9786   1.385   7.327   3.036  0.4944  0.1311 -0.0008
 5736W        W 9787   7.379   0.935  10.836  0.1259 -0.0536  0.3345
 5737W        W 9788   9.201   4.976   0.718 -0.1560 -0.0066 -0.3759
 5738W        W 9789   0.842   4.232   3.749  0.1193  0.2260  0.1310
 5739W        W 9790   8.885   0.381  10.654 -0.2701  0.2368  0.0383
 5740W        W 9791   1.091   8.856  11.021  0.2457 -0.0023  0.0521
 5741W        W 9792   5.340   5.269   0.650 -0.0896 -0.0494 -0.2265
 5742W        W 9793   1.699   2.994  10.750 -0.1560 -0.2984  0.0690
 5743W        W 9794   8.765   2.413   2.254 -0.5705  0.2418  0.1074
 5744W        W 9795   9.820   7.186   5.614  0.2399  0.1310  0.0481
 5745W        W 9796   6.839   1.954   3.488  0.2996 -0.1039 -0.0918
 5746W        W 9797   2.823   7.330   4.658 -0.2532 -0.3473 -0.2648
 5747W        W 9798   4.357   4.039  10.238 -0.2360  0.1376  0.1275
 5748W        W 9799   3.314   0.299   5.144  0.0975  0.0903  0.2049
 5749W        W 9800   5.367   1.533   3.224 -0.0007  0.0886  0.0099
 5750W        W 9801   2.831   5.994  10.598 -0.1234  0.1299  0.2070
 5751W        W 9802   4.384   2.918   1.468  0.1571 -0.0005 -0.0846
 5752W        W 9803   9.342   9.124  12.142  0.0206 -0.1191 -0.0987
 5753W        W 9804   1.170   5.452  13.501 -0.0604 -0.2157 -0.2067
 5754W        W 9805   5.757   8.284   9.565  0.1760  0.1767 -0.0552
 5755W        W 9806   6.337   7.748  13.546 -0.0942 -0.0415 -0.1124
 5756W        W 9807   3.649   5.154   1.042 -0.0770  0.1659 -0.3372
 5757W        W 9808   5.887   5.827   0.743  0.0992 -0.0152 -0.1808
 5758W        W 9809   7.941   4.959   2.914  0.2966  0.0221  0.1897
 5759W        W 9810   5.009   3.648   0.443 -0.1952  0.0386 -0.1737
 5760W        W 9811   9.916   9.177  11.066  0.1469  0.2349 -0.0949
 5761W        W 9812   9.251   7.658   1.261  0.1624  0.0088 -0.3635
 5762W        W 9813   7.309   0.706  11.868 -0.5116 -0.1256  0.1163
 5763W        W 9814   8.320   6.724   4.249  0.2041  0.1612  0.1329
 5764W        W 9815   2.426   7.694   3.435 -0.1791  0.0039 -0.0891
 5765W        W 9816   2.177   0.073   0.269  0.0210 -0.3632 -0.0795
 5766W        W 9817   0.201   1.652  13.176 -0.0426  0.3254  0.0957
 5767W        W 9818   3.099   2.657   1.304 -0.3182 -0.1838  0.0150
 5768W        W 9819   6.736   0.379   0.803 -0.4101 -0.3034 -0.0693
 5769W        W 9820   9.376   0.273   1.583 -0.1215 -0.1849 -0.0154
 5770W        W 9821   3.973   5.560   3.388 -0.0211 -0.0741 -0.0378
 5771W        W 9822   8.097   5.501   9.970  0.0955  0.2130  0.2358
 5772W        W 9823   2.687   7.658  11.165  0.4186  0.0938 -0.2914
 5773W        W 9824   8.291   2.411   2.230 -0.0303 -0.0992 -0.0791
 5774W        W 9825   1.045   4.659   2.652 -0.4069  0.0928  0.0223
 5775W        W 9826   9.096   8.101  11.198  0.0901  0.0396  0.1620
 5776W        W 9827   9.208   2.738   0.469  0.1041 -0.1602  0.0375
 5777W        W 9828   6.764   5.910   4.537  0.0531  0.0437 -0.0004
 5778W        W 9829   2.521   1.004  10.253  0.0319 -0.2163  0.1830
 5779W        W 9830   5.947   5.267   2.467  0.0169  0.2713 -0.0056
 5780W        W 9831   8.547   8.313   0.243 -0.1435 -0.1779  0.0222
 5781W        W 9832   5.183   9.215   4.929  0.4133 -0.3918 -0.0456
 5782W        W 9833   9.932   9.984  11.163  0.0998 -0.3678 -0.0707
 5783W        W 9834   4.364   2.319  10.269 -0.1838  0.1549 -0.3375
 5784W        W 9835   3.110   9.390  11.757 -0.2631  0.0252 -0.0874
 5785W        W 9836   1.643   9.271  10.949 -0.0049  0.1060  0.1770
 5786W        W 9837   9.281   6.715   4.597  0.3501  0.1555 -0.0945
 5787W        W 9838   0.903   1.093  10.171  0.0410  0.1117  0.1798
 5788W        W 9839   2.383   3.702  10.862  0.1515 -0.0626 -0.2062
 5789W        W 9840   9.629   1.281  11.345 -0.2632 -0.1112 -0.3059
 5790W        W 9841   3.333   7.120  13.825  0.0574 -0.1270  0.2337
 5791W        W 9842   8.244   9.271  12.345 -0.2415 -0.1066 -0.3112
 5792W        W 9843   8.550   5.956  13.845 -0.2562 -0.1786 -0.1294
 5793W        W 9844   4.199   3.496  11.861  0.1452 -0.0083  0.1115
 5794W        W 9845   1.555   9.506   4.262  0.2971 -0.0751  0.2442
 5795W        W 9846  10.120   6.679   0.313 -0.1298  0.0274  0.0692
 5796W        W 9847   0.815   3.256  10.550  0.1933 -0.0525  0.1145
 5797W        W 9848   5.548   2.614   2.164 -0.0582 -0.0658 -0.1568
 5798W        W 9849   1.253   9.185  10.558 -0.3027  0.0679 -0.1602
 5799W        W 9850   0.256   1.433  12.150 -0.1779  0.1637 -0.1418
 5800W        W 9851   7.444   4.498   4.103  0.2418 -0.3237  0.0106
 5801W        W 9852   9.023   7.880   5.390 -0.3286  0.0825  0.1575
 5802W        W 9853   6.623   2.035  10.152  0.1049  0.0242 -0.2418
 5803W        W 9854   5.192   0.653   4.244 -0.3039  0.0079 -0.0709
 5804W        W 9855   1.522   7.149   3.548  0.2807  0.1238 -0.0590
 5805W        W 9856   3.182   8.861  10.121  0.6531  0.0434  0.2039
 5806W        W 9857   2.137   6.852   3.584 -0.0765 -0.0201  0.1000
 5807W        W 9858   1.406   4.609   9.552 -0.1178  0.2320  0.1280
 5808W        W 9859   2.412   0.077   2.383 -0.0472 -0.0095  0.0435
 5809W        W 9860   0.426   7.045  11.202 -0.3879 -0.2349  0.2810
 5810W        W 9861   0.609   8.905  10.892  0.3872 -0.4149 -0.0506
 5811W        W 9862   8.544   1.559  13.933 -0.0723 -0.0547  0.1487
 5812W        W 9863   6.366   4.458  12.490  0.3183 -0.0595  0.0249
 5813W        W 9864   2.159   5.530   1.607 -0.1797 -0.1884 -0.1943
 5814W        W 9865   4.825   4.987   3.780  0.0785  0.1610  0.1354
 5815W        W 9866   0.556   1.596   2.052 -0.4174 -0.1378 -0.1066
 5816W        W 9867   7.036   1.598  13.902 -0.2294  0.1466 -0.3039
 5817W        W 9868   6.127   2.102   1.731 -0.2512  0.2810 -0.1024
 5818W        W 9869   9.510   6.663   0.554 -0.1331 -0.0059  0.0349
 5819W        W 9870   8.845   6.464  13.485  0.1972 -0.2067 -0.0237
 5820W        W 9871   3.609   8.421   2.086  0.2033 -0.1475  0.0666
 5821W        W 9872   0.149   4.917   3.458 -0.2309  0.2111 -0.4410
 5822W        W 9873   1.159   6.206  12.878  0.2300  0.1126  0.2575
 5823W        W 9874   2.385   4.565  10.704  0.1056 -0.0523  0.2533
 5824W        W 9875   4.876   8.639  12.281  0.3344 -0.2103 -0.0032
 5825W        W 9876   1.570   0.643   0.362 -0.2246  0.2626 -0.2367
 5826W        W 9877   5.603   7.254   9.553 -0.0236  0.3007 -0.0180
 5827W        W 9878   3.428  10.046   1.891  0.0377  0.1525  0.2806
 5828W        W 9879   6.118   4.780   0.223  0.3240 -0.2102  0.0351
 5829W        W 9880   6.857   7.779   9.975  0.3562 -0.2378 -0.2563
 5830W        W 9881   0.756   4.057   5.170  0.3794 -0.0629 -0.0760
 5831W        W 9882   0.981   2.378  13.513 -0.0912  0.1997  0.1183
 5832W        W 9883   0.849   5.981  11.351 -0.1615  0.1375  0.0302
 5833W        W 9884   0.369   5.895   3.459 -0.1071  0.2515 -0.1096
 5834W        W 9885   5.510   5.206  12.516 -0.0307 -0.1430  0.1220
 5835W        W 9886   9.888   2.703  11.947 -0.3469  0.0670 -0.1052
 5836W        W 9887   8.934   1.959   0.827 -0.1177 -0.0608 -0.0369
 5837W        W 9888   9.892   8.823   4.456  0.0865  0.0789 -0.1846
 5838W        W 9889  10.037   6.305  12.304  0.1065 -0.2595 -0.3544
 5839W        W 9890   2.161   1.392   1.932 -0.1720  0.0649  0.0601
 5840W        W 9891   5.178   2.924   4.637  0.0320 -0.2079 -0.0803
 5841W        W 9892   3.315   9.766   4.024  0.0166  0.1926 -0.0587
 5842W        W 9893   0.868  10.026  12.569  0.0144 -0.0231 -0.1960
 5843W        W 9894   4.069   0.710   4.059  0.1187 -0.2553  0.2731
 5844W        W 9895   1.981   2.939   3.429  0.1406  0.0955  0.0062
 5845W        W 9896   5.232   4.446  13.541 -0.0796  0.2579  0.1504
 5846W        W 9897   0.809   4.092  13.543  0.0136  0.2232 -0.0272
 5847W        W 9898   4.401   8.649  10.242 -0.0628  0.0210  0.1759
 5848W        W 9899   6.670   0.719   1.204 -0.1757  0.2237 -0.1613
 5849W        W 9900   8.942   7.428  11.526 -0.0080  0.2227 -0.3548
 5850W        W 9901  10.013   0.131   1.494 -0.0094 -0.0091 -0.1214
 5851W        W 9902   4.398   1.608  12.547 -0.0641  0.3307  0.1784
 5852W        W 9903   4.334   7.810   3.334  0.1921  0.3838 -0.2840
 5853W        W 9904   8.601   1.323  13.474  0.4633  0.0390  0.1451
 5854W        W 9905   3.030   9.893  11.940  0.2693  0.2939  0.0748
 5855W        W 9906   4.524   3.469   1.326 -0.0123 -0.3676  0.0803
 5856W        W 9907   2.753   8.649   0.934 -0.0691  0.2535 -0.1048
 5857W        W 9908   9.324   5.616  13.523  0.2219  0.2756 -0.0755
 5858W        W 9909   7.112   0.712  13.813  0.0265  0.1945 -0.3078
 5859W        W 9910   1.716   8.624   1.069 -0.2011 -0.0098 -0.1080
 5860W        W 9911   8.973   9.536   1.366  0.1708  0.0229 -0.2327
 5861W        W 9912   7.233   3.581   2.492 -0.0114 -0.1782  0.1758
 5862W        W 9913   0.328   3.747   9.225  0.0165  0.0094  0.0691
 5863W        W 9914   1.783   8.386   0.663  0.0536 -0.0958  0.0530
 5864W        W 9915   2.484   8.890  12.457  0.1530  0.0319 -0.2803
 5865W        W 9916   0.792   0.526  10.620 -0.1615 -0.1730  0.0854
 5866W        W 9917   4.524   1.615  10.784  0.1451 -0.0026 -0.1695
 5867W        W 9918   2.773   4.876   4.273 -0.3901  0.1485 -0.0826
 5868W        W 9919  10.066   8.151   1.604  0.2412 -0.0274  0.5149
 5869W        W 9920   2.713   8.928   2.118  0.1750  0.0739 -0.0650
 5870W        W 9921   9.337   0.927  10.155  0.2237  0.2983  0.2071
 5871W        W 9922   5.549   8.029  12.288 -0.3744 -0.0735  0.0252
 5872W        W 9923   2.577   3.089  13.626 -0.4232  0.1081 -0.0352
 5873W        W 9924   6.260   2.224   9.843 -0.0208 -0.0335 -0.1485
 5874W        W 9925   3.526   0.126   3.101  0.1069  0.0242 -0.1512
 5875W        W 9926   0.457   9.060   0.036 -0.0902  0.1681  0.2555
 5876W        W 9927   5.006   7.680   1.117  0.0834  0.0042  0.0116
 5877W        W 9928   8.066   7.607   2.539  0.0589 -0.1683 -0.3121
 5878W        W 9929   6.098   5.805  12.817  0.2501  0.2024 -0.0542
 5879W        W 9930   7.156   6.279   0.287 -0.0769 -0.1987 -0.1922
 5880W        W 9931   1.600   2.315   0.300  0.1506  0.0319 -0.2146
 5881W        W 9932   2.937   5.316   3.162  0.1107  0.1194  0.3824
 5882W        W 9933   9.199   2.237  12.233  0.3273 -0.1463 -0.0300
 5883W        W 9934   4.068   5.371  10.567  0.2110  0.1574  0.2001
 5884W        W 9935   2.038   8.455  10.839  0.2435  0.1296  0.3378
 5885W        W 9936   4.024   4.737   2.106  0.1442  0.2015  0.1081
 5886W        W 9937   3.367   6.379  12.977 -0.0301  0.3816  0.0264
 5887W        W 9938   3.478   5.548   0.268 -0.1026  0.0370  0.0636
 5888W        W 9939   5.185   5.905  12.103 -0.0048 -0.0351 -0.1137
 5889W        W 9940   1.989   7.289   5.071  0.2176 -0.1617  0.0897
 5890W        W 9941   9.394   9.110  12.973  0.3294 -0.2692 -0.1452
 5891W        W 9942   4.140   8.100  11.094  0.0088  0.0370 -0.0249
 5892W        W 9943   5.743   8.084  12.755 -0.0146 -0.0885 -0.0339
 5893W        W 9944   0.050   0.475   3.264 -0.2449  0.2337 -0.1008
 5894W        W 9945   7.568   4.496   1.477 -0.0063 -0.1626  0.1972
 5895W        W 9946   3.151   1.619   9.858  0.0922  0.0803 -0.0960
 5896W        W 9947   1.854   2.807   9.625  0.0207 -0.1849 -0.1318
 5897W        W 9948   5.665   3.942   4.372 -0.1846  0.0190  0.0328
 5898W        W 9949   3.455   7.833  11.486 -0.1181  0.2407 -0.0359
 5899W        W 9950   0.445   2.413  11.244 -0.2406  0.2110  0.3976
 5900W        W 9951   3.505   5.293  10.677  0.0874 -0.0303 -0.2005
 5901W        W 9952   9.593   5.081   3.443  0.1758  0.4089  0.2014
 5902W        W 9953   1.598   6.614   3.674 -0.0680  0.2003  0.1524
 5903W        W 9954   0.701   7.619   3.985 -0.2762  0.0521  0.1374
 5904W        W 9955   4.705   2.277   2.255  0.2951 -0.0588 -0.0821
 5905W        W 9956   8.433   8.228  10.537  0.2062  0.0431 -0.1814
 5906W        W 9957   1.126   6.270   4.547 -0.0291 -0.1286  0.0550
 5907W        W 9958   6.870   7.110   0.093 -0.0843  0.0432  0.0509
 5908W        W 9959   4.820   8.108   1.703 -0.0990  0.1294 -0.1133
 5909W        W 9960   1.636   4.198   2.074 -0.0642 -0.0547  0.0239
 5910W        W 9961   5.153  10.066   3.070 -0.0025 -0.0206  0.3722
 5911W        W 9962  10.107   4.963   4.148  0.1589 -0.1049 -0.1748
 5912W        W 9963   3.367   0.890   1.825  0.3415  0.3372  0.0047
 5913W        W 9964   4.861   5.263   0.408  0.1117  0.0064 -0.1211
 5914W        W 9965   2.610   2.197  11.354 -0.0124 -0.3546 -0.0970
 5915W        W 9966   6.645   2.075   1.853 -0.0400 -0.3888  0.0685
 5916W        W 9967   9.488   8.626   4.766  0.1444 -0.1701 -0.1965
 5917W        W 9968   3.477   4.715   2.034 -0.1498  0.2220  0.2354
 5918W        W 9969   2.858   2.903  11.058  0.2159 -0.3091  0.0909
 5919W        W 9970   6.276   5.532  12.183  0.0995  0.1184  0.1493
 5920W        W 9971   6.864   7.951   1.027  0.1735  0.2538  0.2619
 5921W        W 9972   1.954   3.709   4.326  0.3131  0.3034  0.1948
 5922W        W 9973   2.391   5.519   3.969  0.1051 -0.2486  0.1606
 5923W        W 9974   5.397   6.885  11.667 -0.1429 -0.2709 -0.1039
 5924W        W 9975   4.249   0.610  12.471  0.1835  0.1942  0.2294
 5925W        W 9976   3.257   4.830   1.525  0.0737 -0.2569 -0.2667
 5926W        W 9977   3.210   3.059  13.729  0.2299  0.2064 -0.2049
 5927W        W 9978   9.068   1.772   1.711  0.1810  0.0414  0.1544
 5928W        W 9979   3.848   9.778  13.382 -0.1295 -0.1845  0.0934
 5929W        W 9980   9.598   7.666  10.274 -0.1227 -0.2095 -0.0489
 5930W        W 9981   3.070   8.299   0.133 -0.0227 -0.1856 -0.0881
 5931W        W 9982   9.406   2.968   3.371 -0.0802 -0.2095 -0.0505
 5932W        W 9983  10.040   7.074  11.206  0.0405  0.0483  0.1760
 5933W        W 9984   4.236   2.802   9.658  0.4170  0.0426  0.1862
 5934W        W 9985   6.650   4.713   0.971 -0.0763  0.0844 -0.3657
 5935W        W 9986   3.008   7.458  12.204  0.0247 -0.1077 -0.0619
 5936W        W 9987   1.728   5.806   1.408 -0.2480 -0.0267 -0.2525
 5937W        W 9988   8.055   0.859   1.010 -0.0697 -0.2656  0.2650
 5938W        W 9989   7.369   1.770   2.341  0.0382 -0.0307  0.2498
 5939W        W 9990   2.597   8.363  13.634  0.0155 -0.0003 -0.0723
 5940W        W 9991   2.914   0.204   1.138 -0.0589 -0.1097 -0.1295
 5941W        W 9992   5.221   7.032  12.152  0.1730  0.4308 -0.1205
 5942W        W 9993   7.425   3.766  11.377  0.1819  0.5283 -0.0991
 5943W        W 9994   6.044   5.667   1.715  0.0568 -0.1250 -0.1016
 5944W        W 9995   1.734   9.754  12.794  0.0062 -0.1462 -0.0934
 5945W        W 9996   7.281   5.345  10.411  0.0725  0.2543  0.0850
 5946W        W 9997   5.789   4.953   0.568  0.0679  0.2258  0.1179
 5947W        W 9998   6.002   5.371   3.233  0.1055  0.1102  0.0946
 5948W        W 9999   5.785   3.076   2.800  0.1041 -0.1502 -0.4019
 5949W        W10000   9.045   7.459   3.585 -0.0305 -0.2938 -0.2892
 5950W        W10001   1.566   0.914  12.720  0.0977 -0.0977  0.4684
 5951W        W10002   1.477   9.947  11.979 -0.2000 -0.0644  0.3258
 5952W        W10003   4.876   5.488  11.109 -0.1335  0.1195  0.1646
 5953W        W10004  10.122   7.660   9.667 -0.2783 -0.1155  0.1625
 5954W        W10005   6.024   4.610  10.096 -0.3125 -0.1903 -0.2708
 5955W        W10006   7.217   7.200   1.031 -0.0258  0.1675 -0.1582
 5956W        W10007   6.781   9.874   2.711 -0.2295 -0.1728 -0.0194
 5957W        W10008   8.993   7.202   0.162 -0.2811 -0.0787  0.3200
 5958W        W10009   1.940   0.586   1.638 -0.0287 -0.0376 -0.2609
 5959W        W10010   8.559   8.875  12.413  0.1879  0.0864 -0.0131
 5960W        W10011   3.331   7.322  11.483  0.2366  0.2131 -0.1696
 5961W        W10012   9.891   8.673   9.964 -0.0560  0.0143 -0.0761
 5962W        W10013   2.746   5.030  10.705  0.2607 -0.3136 -0.0778
 5963W        W10014   4.326   1.530   9.327  0.0789  0.1445  0.1970
 5964W        W10015   4.087   2.149   0.991  0.1003  0.0108 -0.1656
 5965W        W10016   2.572   9.124   4.571  0.0542  0.0099  0.3588
 5966W        W10017   5.629   9.851   2.923 -0.4569 -0.2053 -0.2066
 5967W        W10018   4.870   9.110  13.817  0.1495  0.1209 -0.0952
 5968W        W10019   3.253   9.630  12.752  0.2277 -0.0795  0.0470
 5969W        W10020   3.586   3.966   2.444 -0.0820  0.0336 -0.1682
 5970W        W10021   3.534   4.547   3.937 -0.3064  0.1195  0.1075
 5971W        W10022   1.297   9.654  13.724  0.1636 -0.1038  0.0142
 5972W        W10023   6.790   5.796  11.242 -0.2805  0.0589 -0.2801
 5973W        W10024   7.579   5.940  13.008 -0.0408  0.1339 -0.4274
 5974W        W10025   3.895   0.828  12.842  0.0230  0.2367 -0.0678
 5975W        W10026   1.582   5.203  13.111  0.1404  0.3713 -0.2328
 5976W        W10027   0.748   4.526  13.278  0.1192 -0.0057  0.0428
 5977W        W10028   6.247   8.534   2.268 -0.0475 -0.0469  0.0697
 5978W        W10029   6.820   2.296  12.508 -0.0599 -0.2792 -0.0161
 5979W        W10030   8.176   2.676  13.696 -0.0372  0.1741  0.2189
 5980W        W10031   6.582   6.075  10.094 -0.0679  0.1961  0.0747
 5981W        W10032   6.989   1.839  12.418 -0.1740 -0.1024  0.0545
 5982W        W10033   4.602   4.347  11.631  0.0810  0.0230  0.0874
 5983W        W10034   8.754   2.373  11.918 -0.3365  0.0888 -0.1267
 5984W        W10035   7.459   1.186   1.824 -0.0984 -0.0520 -0.0461
 5985W        W10036   2.142   6.618   3.097  0.1712 -0.0136  0.1587
 5986W        W10037   6.660   3.412   3.138 -0.0571  0.0408 -0.1520
 5987W        W10038   0.137   0.720  10.937 -0.2536 -0.0946  0.1368
 5988W        W10039   1.331   5.054  12.681 -0.3579 -0.0139  0.2930
 5989W        W10040   0.318   7.583  12.655 -0.0975 -0.0016 -0.1257
 5990W        W10041   5.144   9.185   1.339 -0.2513 -0.3537  0.0145
 5991W        W10042   0.424   2.604   0.049 -0.1887 -0.3147 -0.0580
 5992W        W10043   0.930   4.985   0.666 -0.0121 -0.3960 -0.0978
 5993W        W10044   2.276   2.231  13.517 -0.0756 -0.1995 -0.0960
 5994W        W10045   3.162   7.252  12.666  0.0752 -0.2530  0.1137
 5995W        W10046   6.671   4.293  13.714 -0.0831  0.3937 -0.1836
 5996W        W10047   8.792   4.205  11.606  0.1437  0.0941 -0.3465
 5997W        W10048   0.679   1.935   9.779 -0.0110 -0.2234  0.1711
 5998W        W10049   8.893   0.084  11.606  0.0745  0.0042  0.3342
 5999W        W10050   3.289   3.805  10.897 -0.2083  0.1645  0.4093
 6000W        W10051   5.990   0.186   9.524 -0.0113 -0.1440 -0.1235
 6001W        W10052   3.318   6.178  12.046  0.1580 -0.0606 -0.1867
 6002W        W10053   9.914   2.468   1.571  0.1489 -0.0634 -0.0079
 6003W        W10054   9.810   5.255   2.405  0.0907 -0.0742 -0.0624
 6004W        W10055   5.889  10.158  11.140  0.2375  0.0353 -0.2628
 6005W        W10056   6.255   8.590   0.924 -0.1043 -0.2650 -0.3522
 6006W        W10057   6.725   3.756  12.076  0.2336  0.0158  0.0599
 6007W        W10058   7.722   1.766   4.076  0.3465 -0.0285 -0.1724
 6008W        W10059   0.378   4.915  13.391  0.2468  0.0147 -0.2377
 6009W        W10060   9.094   7.240   3.126  0.0211 -0.3097 -0.2341
 6010W        W10061   8.384   8.078  12.366  0.0225 -0.0847  0.1318
 6011W        W10062   0.773   0.342  11.697  0.1542 -0.0427 -0.1478
 6012W        W10063   6.720   8.592   2.173  0.2496 -0.0022 -0.1993
 6013W        W10064   4.468   8.697  12.576 -0.0192  0.3709 -0.2851
 6014W        W10065   0.672   8.640   4.731  0.1112 -0.1529 -0.0006
 6015W        W10066   3.912   5.058   3.038  0.2159  0.1252  0.1625
 6016W        W10067   7.042   9.636   1.601 -0.2898 -0.4015 -0.0462
 6017W        W10068   9.543   9.365  12.523  0.3592  0.1566  0.0181
 6018W        W10069   5.664   0.254   2.983  0.1948  0.0337 -0.1309
 6019W        W10070   0.486   1.558   2.586 -0.0083  0.1985 -0.1778
 6020W        W10071   8.209   6.281  13.577 -0.0023 -0.1337 -0.0469
 6021W        W10072   9.916   7.266   0.506 -0.1044 -0.1937  0.1067
 6022W        W10073   1.162   4.354  13.845  0.2093 -0.4794  0.2876
 6023W        W10074   8.373   4.576   2.334 -0.1939  0.1476 -0.0906
 6024W        W10075   8.605   2.044  12.253 -0.1090  0.0641 -0.0238
 6025W        W10076   1.480   7.294   4.209  0.3284  0.2959 -0.2052
 6026W        W10077   8.081   9.557   2.477  0.1165  0.0163 -0.0273
 6027W        W10078   3.282   1.142   1.374 -0.1264 -0.2271  0.0904
 6028W        W10079   0.325   1.025  12.991 -0.0556  0.2635 -0.2208
 6029W        W10080   2.296   0.056  11.902 -0.3700  0.2708  0.3500
 6030W        W10081   6.546   3.678  11.054 -0.2524  0.0167  0.2348
 6031W        W10082   9.181   4.302   9.710 -0.1334  0.1325  0.0539
 6032W        W10083   0.970   8.125  12.450  0.1745  0.0420 -0.0427
 6033W        W10084   7.817   2.018   0.026 -0.0575  0.1305  0.2095
 6034W        W10085   8.029   0.379  11.829  0.2314  0.0704  0.1311
 6035W        W10086   3.993   2.099  10.498 -0.0972 -0.0264  0.0057
 6036W        W10087   6.242   8.672  12.263  0.1382  0.1975  0.3046
 6037W        W10088   2.200   7.907  11.314 -0.1984  0.0286  0.1652
 6038W        W10089   6.429   2.923   3.644 -0.0402 -0.1439 -0.1613
 6039W        W10090   0.577   7.089   3.132 -0.2891 -0.1176 -0.1504
 6040W        W10091   7.593   6.550   0.548 -0.0381  0.0933  0.0819
 6041W        W10092   7.694   7.518  12.004  0.2150  0.0719  0.3923
 6042W        W10093   6.131   8.042   4.910  0.0079 -0.1574 -0.0036
 6043W        W10094   4.219   0.126   0.874 -0.0986 -0.1328  0.1144
 6044W        W10095   9.821   5.130   9.521  0.1785 -0.0712  0.0234
 6045W        W10096   3.972   9.287   1.699  0.0041 -0.5181 -0.2284
 6046W        W10097   1.835   9.983  11.057  0.0709 -0.1791 -0.2604
 6047W        W10098   6.424   5.738   0.723  0.1418  0.2333  0.3009
 6048W        W10099   3.350   5.986   4.172 -0.1837 -0.0590 -0.1838
 6049W        W10100   8.690   9.419  10.751 -0.1955  0.2147 -0.1053
 6050W        W10101   0.331   9.567   3.503  0.0086 -0.2234  0.3303
 6051W        W10102   2.841   8.400   2.638  0.1876  0.0609  0.0313
 6052W        W10103   2.310   6.884   4.088 -0.3529 -0.0416  0.2410
 6053W        W10104   1.718   3.495   3.358 -0.2252 -0.2900  0.0963
 6054W        W10105   9.804   1.154   3.464 -0.0176 -0.2114  0.1880
 6055W        W10106   6.700   8.526   2.719 -0.0605  0.2642 -0.2239
 6056W        W10107   2.204   1.694  10.803 -0.0157  0.1449 -0.1895
 6057W        W10108   1.082   8.860   5.438  0.1054 -0.0480 -0.1402
 6058W        W10109   6.350   8.158  12.233  0.2850 -0.2486  0.3785
 6059W        W10110   1.113   5.322   4.953 -0.0393 -0.1317 -0.1585
 6060W        W10111   1.008   0.942  10.826 -0.2028 -0.0557 -0.2537
 6061W        W10112   1.154   8.479   1.165  0.2368  0.3861  0.0822
 6062W        W10113   2.707   9.537   3.749 -0.3047 -0.3220 -0.2411
 6063W        W10114   8.245   5.838   4.463  0.1638 -0.1187  0.3183
 6064W        W10115   0.853   8.584  10.622 -0.0431 -0.1055  0.0378
 6065W        W10116   6.259   6.666  11.627  0.4613  0.1480 -0.0311
 6066W        W10117   6.873   9.838  10.850 -0.1584 -0.2201  0.2288
 6067W        W10118   0.001   3.074  13.123 -0.2214  0.1438  0.2179
 6068W        W10119   9.320   4.699   1.973 -0.0727 -0.2050  0.0660
 6069W        W10120   1.461   6.295  10.678  0.3431  0.0411  0.2341
 6070W        W10121   4.889   9.707   3.294 -0.1674 -0.0638 -0.2610
 6071W        W10122   5.783   0.865   1.035  0.2195  0.1546 -0.0613
 6072W        W10123   6.191   1.766   1.092  0.1833 -0.0555  0.2557
 6073W        W10124   7.795   1.469  12.100 -0.2039  0.1233  0.2691
 6074W        W10125   6.754   3.310  10.271 -0.2195  0.2067 -0.3116
 6075W        W10126   1.064   0.818   1.779 -0.1667 -0.1885  0.1195
 6076W        W10127   2.991   1.206  11.164  0.1723 -0.3908  0.0531
 6077W        W10128   8.232  10.137  12.419 -0.2445  0.0094 -0.1907
 6078W        W10129   3.100   1.837  13.612  0.2405 -0.1481 -0.2062
 6079W        W10130   6.913   1.186  10.990  0.0298  0.2811  0.0146
 6080W        W10131   6.058   6.502   1.185  0.2307 -0.0657  0.2351
 6081W        W10132   9.916   4.830  12.911  0.0753  0.0615  0.1142
 6082W        W10133   5.698   3.469  13.306 -0.0502 -0.1390 -0.1000
 6083W        W10134   1.533   9.017   5.073  0.0962  0.1418 -0.2188
 6084W        W10135   8.066  10.172   0.913  0.1656  0.0382 -0.0268
 6085W        W10136   8.529   5.589   9.705  0.1446  0.0277  0.1772
 6086W        W10137   5.001   4.149   8.414  0.1424 -0.0299  0.2130
 6087W        W10138   6.947   0.174   2.990 -0.0961  0.1499  0.0764
 6088W        W10139   1.133   9.848   4.582 -0.1617  0.1608 -0.2543
 6089W        W10140   6.873   8.222  13.642 -0.0927 -0.0113  0.1348
 6090W        W10141   9.568   9.911   2.397 -0.0814  0.4172 -0.0968
 6091W        W10142   7.871   4.963  11.951 -0.2508 -0.2041 -0.1437
 6092W        W10143  10.043   0.588   4.325 -0.1495  0.1953 -0.0781
 6093W        W10144   9.710   5.760  13.170 -0.1616  0.2827 -0.2589
 6094W        W10145   9.038   1.143   1.547  0.0376  0.2394  0.2612
 6095W        W10146   5.176   9.831  13.695  0.0085 -0.0364  0.2061
 6096W        W10147   6.541   5.381   1.522 -0.1430 -0.3956 -0.0503
 6097W        W10148   6.442   9.338   3.822  0.2973 -0.1096  0.0807
 6098W        W10149   7.957   5.440   4.452  0.1446  0.1912 -0.0282
 6099W        W10150   1.644   0.197   1.801  0.1900  0.0438 -0.2608
 6100W        W10151   0.634   2.511  12.976 -0.1434  0.3511 -0.1468
 6101W        W10152   6.438   6.364  13.872  0.2795 -0.0775 -0.4515
 6102W        W10153   1.509   8.581   9.327  0.1359 -0.1387  0.1885
 6103W        W10154   0.630   5.607  13.119 -0.1649  0.0751  0.1731
 6104W        W10155   1.599   0.128  13.325  0.0217  0.3125  0.1259
 6105W        W10156   7.458   6.356   5.205 -0.5078  0.3102  0.1569
 6106W        W10157   6.337   5.755   1.234 -0.0230  0.0280  0.2510
 6107W        W10158   5.083   9.913   4.468  0.0126  0.0214  0.1430
 6108W        W10159   6.541   2.948  12.032 -0.2637 -0.0760  0.0560
 6109W        W10160   2.162   5.309   4.717 -0.1948 -0.1459 -0.1521
 6110W        W10161   5.576   6.970  13.560  0.4175  0.0503  0.0342
 6111W        W10162   4.676   8.569   8.943  0.0182  0.1762  0.1897
 6112W        W10163   3.980   7.285  10.721 -0.1224  0.1707  0.1034
 6113W        W10164   7.869   4.576   2.527 -0.0186 -0.1530 -0.1460
 6114W        W10165   0.941   9.808   1.300 -0.2611 -0.0751 -0.0671
 6115W        W10166   8.449   3.946   2.343 -0.1180  0.1747 -0.1896
 6116W        W10167   9.827   3.399   2.149  0.1608  0.0277 -0.1792
 6117W        W10168   0.213   7.859  10.682  0.2033  0.0843 -0.2320
 6118W        W10169   9.111   2.981  12.576  0.1078 -0.0369  0.0509
 6119W        W10170   1.215   2.250   0.681 -0.0472  0.0752  0.0064
 6120W        W10171   1.761   9.593   0.066  0.0027  0.0099 -0.0417
 6121W        W10172   7.860   3.078  13.367  0.0861 -0.1858 -0.1725
 6122W        W10173   5.385   4.642  12.203 -0.0637 -0.1499 -0.0774
 6123W        W10174   5.303   3.922   3.176 -0.0001  0.0958 -0.0373
 6124W        W10175   6.449   7.617  10.560 -0.0059  0.1090 -0.0609
 6125W        W10176   7.025   5.462   4.630  0.0321  0.0493  0.3752
 6126W        W10177   1.892   6.755   9.749  0.0550 -0.0591  0.0252
 6127W        W10178   2.348   8.464   0.647 -0.1008  0.0643  0.1668
 6128W        W10179   7.052   0.586  11.042  0.1788  0.1838 -0.1790
 6129W        W10180   6.913   9.820   4.620 -0.0544  0.0335  0.1351
 6130W        W10181   2.606   4.597   3.773  0.1689 -0.1473  0.2980
 6131W        W10182   6.655   1.263   2.450 -0.0312 -0.1862  0.0968
 6132W        W10183   5.424   4.859   4.578 -0.0311 -0.3680  0.0149
 6133W        W10184   7.961   4.621   9.703 -0.0539 -0.1231 -0.2040
 6134W        W10185   4.327   3.353   2.359 -0.2024  0.1960  0.0702
 6135W        W10186   0.809   1.278   0.606 -0.1976 -0.0415  0.3390
 6136W        W10187   9.880   1.815   2.928  0.4202 -0.0870  0.0256
 6137W        W10188   3.271   1.271   0.440 -0.1430  0.0497 -0.0233
 6138W        W10189   5.433   1.797  10.914 -0.0504 -0.0786  0.2960
 6139W        W10190   5.111   7.937   3.786 -0.0302 -0.1457 -0.0219
 6140W        W10191   7.785   4.550   3.131  0.1229  0.0384 -0.1969
 6141W        W10192   5.786   8.145   0.239  0.2509 -0.0699 -0.1186
 6142W        W10193   3.628   4.293  13.621  0.0128  0.1150  0.2530
 6143W        W10194   6.908   5.834   0.518 -0.2522  0.0656 -0.2465
 6144W        W10195   9.337   5.878   1.205 -0.2634 -0.0480 -0.0607
 6145W        W10196   0.746   6.706   1.871 -0.0995 -0.1160 -0.0689
 6146W        W10197   0.477   1.286   1.139 -0.2089 -0.1375  0.0840
 6147W        W10198   8.802   3.774   3.743  0.2738  0.2027  0.0397
 6148W        W10199   3.662   9.733   1.601  0.1272 -0.1938  0.0880
 6149W        W10200   3.876   6.556   9.194 -0.3555 -0.0643 -0.1428
 6150W        W10201   2.610   1.642   9.888  0.2820  0.1890  0.3094
 6151W        W10202   8.540   7.413   0.522  0.0498  0.1791  0.0939
 6152W        W10203   7.724   1.410  10.201  0.0851  0.0778 -0.1515
 6153W        W10204   4.058   2.603  12.195 -0.2302  0.2700  0.2161
 6154W        W10205   7.413   6.165   5.759  0.3688 -0.2947  0.2053
 6155W        W10206   4.804   9.551  13.562  0.0067  0.1210 -0.0018
 6156W        W10207   6.226   4.591   4.423 -0.4116 -0.4902  0.0139
 6157W        W10208   8.316   8.612  13.861 -0.0635 -0.4716 -0.1563
 6158W        W10209   3.661   6.899  11.650 -0.0459 -0.1140 -0.1318
 6159W        W10210   7.867   6.699  12.295  0.2022 -0.1509 -0.0014
 6160W        W10211   2.029   0.763   4.029 -0.3337  0.3180  0.0480
 6161W        W10212   1.374   4.573   4.569 -0.0555 -0.1056  0.1070
 6162W        W10213   8.478   9.626  13.092 -0.2529  0.0869 -0.4236
 6163W        W10214   4.850   9.207  12.425 -0.1822  0.2501 -0.1752
 6164W        W10215   1.516   6.091  11.247  0.0030  0.1388 -0.0143
 6165W        W10216   7.330   4.430   9.080  0.3454  0.3179 -0.2265
 6166W        W10217   0.162   4.459   3.093 -0.0802  0.0766 -0.1161
 6167W        W10218   4.273   2.263   3.191  0.1776  0.0162 -0.0634
 6168W        W10219  10.117   7.533   8.878 -0.3620  0.1694 -0.1669
 6169W        W10220   7.276   6.870   1.826 -0.0841  0.0066 -0.3146
 6170W        W10221   9.118   3.349  10.003  0.0391  0.1031 -0.0716
 6171W        W10222   3.329   6.947   9.768  0.0411  0.0314 -0.2654
 6172W        W10223   4.085   9.250  13.192 -0.0278 -0.1410  0.1696
 6173W        W10224   6.699   4.642   2.099 -0.0756  0.3868  0.0319
 6174W        W10225   0.568   2.890  11.581  0.0096 -0.0177  0.0319
 6175W        W10226   0.832   5.176  11.546 -0.3538 -0.0127  0.0480
 6176W        W10227   9.239   1.167  11.582  0.3097  0.2040 -0.3040
 6177W        W10228   8.477   1.027   0.050 -0.6611  0.0812 -0.0800
 6178W        W10229   4.351   2.971   2.833  0.0086  0.0668 -0.3410
 6179W        W10230   4.294   0.632  13.597 -0.1520 -0.2465  0.1016
 6180W        W10231   1.035   0.623   1.148  0.0228 -0.0219 -0.1342
 6181W        W10232   8.647   3.231   4.004  0.2582  0.4890 -0.0597
 6182W        W10233   9.768   1.925   0.335  0.2704  0.2322 -0.0911
 6183W        W10234   2.725   7.935  13.949  0.1188 -0.3287  0.1931
 6184W        W10235   2.192   1.703  10.178  0.3978  0.3321  0.1015
 6185W        W10236   5.163   5.412   1.179  0.0080 -0.0808  0.0693
 6186W        W10237   8.208   5.475   2.083  0.1038  0.0223  0.2066
 6187W        W10238   4.809   0.347   4.484  0.2733  0.2221  0.1578
 6188W        W10239   2.912   6.368   4.631 -0.0314 -0.1106 -0.0295
 6189W        W10240   6.303   3.935   0.537 -0.4649  0.2941  0.1359
 6190W        W10241   7.150   8.652   0.637 -0.0794 -0.2972  0.0400
 6191W        W10242   5.416   5.947  11.608  0.1900  0.1039 -0.1227
 6192W        W10243   2.470   9.250  13.391  0.2608  0.0817  0.1163
 6193W        W10244   5.574   7.393   4.444 -0.2923 -0.0625  0.0284
 6194W        W10245   1.859   4.495   9.820 -0.0672  0.0639 -0.1752
 6195W        W10246   7.437   1.878   3.458 -0.2706  0.1157  0.1312
 6196W        W10247   9.989   5.165   3.029 -0.3228 -0.1650  0.0327
 6197W        W10248   8.248   1.679  12.174  0.1186 -0.1238  0.0229
 6198W        W10249   7.297   6.089   1.979 -0.1240  0.1280  0.0549
 6199W        W10250   2.521   1.952  13.883  0.1567  0.3209 -0.0833
 6200W        W10251   3.078   2.895   5.396 -0.1261 -0.1358 -0.1351
 6201W        W10252   4.076   8.369  10.500  0.1122  0.0487 -0.0942
 6202W        W10253   8.059   4.807  12.821 -0.1669  0.1578  0.0530
 6203W        W10254   0.606   0.684   2.566 -0.0641  0.0256 -0.2535
 6204W        W10255   1.246   7.838   4.682  0.3048  0.3354  0.2420
 6205W        W10256   2.408   5.932  11.136 -0.0327 -0.1387 -0.0947
 6206W        W10257   6.522   1.767   0.038 -0.0621  0.5175 -0.1904
 6207W        W10258   6.876   9.171  10.910  0.1406 -0.0636  0.0800
 6208W        W10259   4.265   7.375  10.269  0.0328 -0.3197  0.1086
 6209W        W10260   2.192   4.873   2.814  0.0609 -0.0089 -0.0486
 6210W        W10261   5.752   0.140   4.874  0.3573 -0.1254  0.1545
 6211W        W10262   6.103   8.631  11.362 -0.0834 -0.2154  0.0778
 6212W        W10263   8.347   3.243  13.610 -0.2017 -0.1189  0.1527
 6213W        W10264   7.134   7.664   3.497  0.0462  0.1819 -0.2081
 6214W        W10265   2.118   8.174   2.850 -0.1501 -0.2048 -0.1746
 6215W        W10266   4.758   5.791  11.481 -0.0169  0.0398 -0.2423
 6216W        W10267   7.384   3.314  11.673 -0.2736 -0.1077 -0.1194
 6217W        W10268   5.620   5.077  11.794 -0.0798 -0.0881 -0.0137
 6218W        W10269   0.377   6.391   1.581  0.0190 -0.1777 -0.1578
 6219W        W10270   8.315   2.815   0.594 -0.1071 -0.0543 -0.1232
 6220W        W10271   3.272   4.356   1.628  0.2751  0.1102 -0.3526
 6221W        W10272   4.558   2.289  13.299 -0.2777  0.0367 -0.0032
 6222W        W10273   7.727   3.862  12.385  0.0210 -0.1903 -0.0499
 6223W        W10274   5.936   3.889   4.946 -0.3819 -0.0091 -0.1016
 6224W        W10275   7.027   0.932   9.837  0.2040  0.0814 -0.2809
 6225W        W10276   4.937   1.642   2.960 -0.0031 -0.1144  0.1624
 6226W        W10277   6.077   7.653   4.443  0.1241  0.1049 -0.1608
 6227W        W10278   8.403   1.624  12.671  0.0741 -0.4066  0.1244
 6228W        W10279   4.656   0.408  12.699  0.1017 -0.0687 -0.2478
 6229W        W10280   0.232  10.164  13.815  0.1143 -0.0871  0.3201
 6230W        W10281   1.832   7.860   0.397 -0.1368 -0.2014 -0.1093
 6231W        W10282   8.996   8.550   0.321  0.1335  0.1379 -0.0789
 6232W        W10283   4.971   8.103   2.423 -0.1920 -0.1485 -0.2261
 6233W        W10284   5.956   5.141  10.230 -0.0524 -0.3116 -0.0816
 6234W        W10285   0.389   9.121   2.098 -0.2061 -0.1078 -0.0291
 6235W        W10286   1.440   8.510  13.243 -0.0979  0.1354  0.1415
 6236W        W10287   0.786   3.553  13.575  0.0316 -0.1594  0.2304
 6237W        W10288   0.831   4.570   1.103 -0.1746  0.0885  0.1693
 6238W        W10289   3.968   7.069   1.691 -0.0731  0.1243  0.3668
 6239W        W10290   5.703   2.952   1.703  0.0820  0.1628 -0.0582
 6240W        W10291   9.402   7.185   2.694  0.0569  0.0624 -0.0647
 6241W        W10292   6.484   8.334  11.450  0.0923  0.1648  0.0469
 6242W        W10293   4.213   1.146   4.918 -0.0884 -0.2391 -0.2579
 6243W        W10294   6.063   2.711  12.184 -0.3328  0.1206  0.1091
 6244W        W10295   8.275  10.156   1.390 -0.1208  0.2144 -0.0144
 6245W        W10296   2.633   8.351   6.137 -0.1579 -0.0085 -0.0899
 6246W        W10297   6.913   4.809  11.879 -0.0121 -0.2894 -0.1087
 6247W        W10298   9.254   0.890  12.022 -0.0346 -0.0359  0.2867
 6248W        W10299   6.196   8.273  12.697 -0.0186 -0.2187  0.3327
 6249W        W10300   3.041   6.219  12.488  0.3282  0.0667  0.0480
 6250W        W10301   6.849   7.318   9.731  0.4042 -0.0857  0.1403
 6251W        W10302   8.768   8.353  11.502  0.0928  0.4188 -0.1586
 6252W        W10303   6.556  10.063   3.188 -0.3349 -0.0948  0.1745
 6253W        W10304   6.514   7.932   1.344 -0.3880  0.0625 -0.1691
 6254W        W10305   6.794   7.064   0.834  0.0515  0.4717  0.0118
 6255W        W10306   4.511   9.041   4.080 -0.1762 -0.0723  0.2527
 6256W        W10307   7.557   2.717   3.792 -0.0193 -0.2099  0.1611
 6257W        W10308   9.369   4.139   1.760  0.2159  0.0724 -0.0047
 6258W        W10309   6.602   3.461  13.454  0.1895 -0.2665 -0.2508
 6259W        W10310   9.313   2.843  10.230 -0.0498 -0.2771  0.1450
 6260W        W10311   3.144   4.357  10.878  0.0364  0.2853 -0.0808
 6261W        W10312   5.168   2.590   3.775  0.1109 -0.0354 -0.0389
 6262W        W10313   0.527   3.792  10.624  0.3137 -0.2407 -0.0781
 6263W        W10314   1.379   9.749  13.158  0.2713 -0.4074 -0.3503
 6264W        W10315   0.977   1.667  11.518 -0.0452  0.0713  0.2892
 6265W        W10316   8.567   1.438  10.090 -0.1220  0.1207 -0.0469
 6266W        W10317   1.119   1.175   3.693  0.0944  0.2888  0.2334
 6267W        W10318   4.686   4.533  13.427  0.0525  0.0806 -0.0398
 6268W        W10319   1.538  10.148   0.821 -0.0129  0.0819  0.1269
 6269W        W10320   3.293   5.783   2.988  0.0698  0.2514  0.0572
 6270W        W10321   0.616   9.482   9.703  0.1566 -0.0390 -0.1169
 6271W        W10322   8.786   9.720   0.340 -0.2034 -0.0467 -0.0969
 6272W        W10323   9.325   5.920   0.645  0.1526 -0.1547 -0.0751
 6273W        W10324   8.936   4.311  13.637 -0.0957  0.0781 -0.0190
 6274W        W10325   9.982   7.812  11.053 -0.0001  0.1583 -0.1481
 6275W        W10326   3.538   9.923  11.837  0.0763  0.1014  0.0439
 6276W        W10327   6.499   1.015   9.902 -0.2105 -0.0296 -0.0462
 6277W        W10328   7.006   3.836   3.276  0.1507  0.1483 -0.4249
 6278W        W10329   5.718   6.468  11.664 -0.2047 -0.0556  0.0186
 6279W        W10330   2.010   0.435   2.213  0.0300 -0.0164 -0.0396
 6280W        W10331   3.655   1.461   3.533 -0.0841 -0.1688 -0.3151
 6281W        W10332   6.679   9.265  11.973  0.2853 -0.1281  0.1757
 6282W        W10333   3.574   9.133   3.529  0.3934  0.0312  0.0262
 6283W        W10334   1.498   5.250   3.283  0.2302 -0.0921 -0.0754
 6284W        W10335   3.193   8.644   2.877  0.1031  0.1883 -0.0844
 6285W        W10336   6.665   4.739   4.141 -0.3552  0.0397 -0.0905
 6286W        W10337   4.928   3.782  12.272 -0.0850  0.1180 -0.1733
 6287W        W10338   3.711   9.401   3.966  0.0110 -0.0707 -0.3104
 6288W        W10339   0.404   0.685   3.644 -0.0527  0.0320  0.1918
 6289W        W10340   3.901   3.137   2.568  0.0963  0.1746 -0.0168
 6290W        W10341   4.001   5.377   4.093  0.3498  0.1941  0.0670
 6291W        W10342   2.248   2.045   1.211 -0.0654  0.0843  0.2178
 6292W        W10343   3.802   2.162   2.911 -0.0631 -0.0518  0.2607
 6293W        W10344   9.931   8.387   4.913  0.1061  0.1089  0.3869
 6294W        W10345   6.593   9.146   3.297  0.0332 -0.2176 -0.3507
 6295W        W10346   5.293   9.897   2.587  0.3276 -0.0317 -0.2420
 6296W        W10347   7.047   2.265  11.605  0.2328  0.0832 -0.0231
 6297W        W10348   2.548   9.878  12.727 -0.0214 -0.2972  0.0539
 6298W        W10349   0.208   0.268  12.486 -0.0111 -0.2138  0.2618
 6299W        W10350   9.081   3.954   0.901 -0.0518  0.2720  0.1628
 6300W        W10351   4.569   7.338  11.451 -0.0407 -0.1799 -0.1020
 6301W        W10352   7.241   1.649  11.986 -0.1322 -0.1293  0.1186
 6302W        W10353   6.560   4.998   0.194  0.0619 -0.1469  0.2163
 6303W        W10354   2.836   7.492   1.667  0.1800 -0.1795 -0.3504
 6304W        W10355   7.512   7.622   2.775 -0.4020  0.1400  0.1513
 6305W        W10356   5.677   8.965  13.824 -0.0648 -0.3151 -0.4171
 6306W        W10357   0.108   6.047   0.876  0.1465  0.0683  0.0989
 6307W        W10358   4.739   7.343  10.446  0.1965 -0.2969 -0.2424
 6308W        W10359   4.905   3.496  13.468  0.1559 -0.0008 -0.1329
 6309W        W10360   1.642   7.766   3.040  0.3453 -0.3136  0.2898
 6310W        W10361   5.552   6.721   4.824  0.0597  0.0326  0.1843
 6311W        W10362   8.778   3.647  12.908  0.1897 -0.0793  0.0153
 6312W        W10363  10.042   1.339   3.846  0.0606  0.2585 -0.2131
 6313W        W10364   3.921   0.238   4.034 -0.1978  0.0259  0.0582
 6314W        W10365   4.601   3.653  13.876  0.0586  0.1268  0.0520
 6315W        W10366   2.112   2.844   4.530 -0.0755 -0.1377  0.1162
 6316W        W10367   0.699   1.021   3.410  0.2621  0.0388 -0.1322
 6317W        W10368   5.335   0.704  13.689 -0.0821 -0.2327 -0.1188
 6318W        W10369   7.092   9.495   2.650 -0.1385  0.0787 -0.0055
 6319W        W10370   1.385   7.419   0.332 -0.0794 -0.0142  0.1963
 6320W        W10371   8.597   0.955   1.325  0.1471  0.2394 -0.0075
 6321W        W10372   7.955   5.615   3.904 -0.2746 -0.0917  0.4833
 6322W        W10373   3.088   2.042   0.635  0.1587  0.1419  0.0219
 6323W        W10374   5.396   0.573   1.428 -0.2031 -0.1419  0.2111
 6324W        W10375   0.104   0.619  12.784 -0.3111 -0.0408 -0.1031
 6325W        W10376   9.696   9.127   1.204 -0.2797 -0.3491  0.0554
 6326W        W10377   1.544   5.565   0.231 -0.1897 -0.2804 -0.1403
 6327W        W10378   5.781   6.325   0.797 -0.3662 -0.0531  0.4789
 6328W        W10379   1.834   5.401   3.699  0.0430 -0.0958  0.1927
 6329W        W10380   1.771   4.721   1.989  0.2333 -0.1237 -0.0473
 6330W        W10381   5.458   2.923   4.208 -0.0304 -0.0863 -0.1290
 6331W        W10382   4.705   8.865   9.457 -0.0213  0.1686 -0.1948
 6332W        W10383   5.705   3.926   9.456 -0.0295 -0.1113  0.2046
 6333W        W10384   1.429   7.816  13.968 -0.1381 -0.0427 -0.1203
 6334W        W10385   8.314   8.195   4.303  0.1496  0.1431 -0.0622
 6335W        W10386   5.337   1.340  10.639 -0.1459  0.1246 -0.2867
 6336W        W10387   0.442   4.269  11.390  0.0065  0.0886 -0.0474
 6337W        W10388   5.106   3.629   3.616  0.1500 -0.2809 -0.5285
 6338W        W10389   5.052   1.058   0.651  0.1470  0.2485  0.3124
 6339W        W10390   6.942   0.140  10.874 -0.1055 -0.2707  0.1242
 6340W        W10391   9.010   1.704  13.918  0.2913  0.0526  0.1896
 6341W        W10392   3.474   2.933   3.368  0.0659 -0.1218 -0.0043
 6342W        W10393   3.389   4.250   9.312  0.1795  0.0831  0.3714
 6343W        W10394  10.059   8.178   2.580 -0.2473 -0.0107  0.0605
 6344W        W10395  10.170   4.955   0.494 -0.0592 -0.2861  0.2353
 6345W        W10396   6.596   0.196  11.277  0.1406 -0.4778 -0.2137
 6346W        W10397   0.965   9.971   4.149 -0.0160 -0.0711 -0.1945
 6347W        W10398   6.591   5.372  11.073  0.2937 -0.0329 -0.4005
 6348W        W10399   4.829   7.765   0.149  0.2511 -0.2680  0.0154
 6349W        W10400   2.522   2.497   2.693 -0.1674  0.0881  0.2210
 6350W        W10401   7.362   5.570   1.084  0.1282 -0.1203 -0.0476
 6351W        W10402   9.885   5.524  13.582  0.1249  0.0390 -0.0873
 6352W        W10403   5.022   6.924   1.868 -0.1725 -0.0806 -0.0007
 6353W        W10404   5.884   6.013   1.229  0.3156  0.0827  0.0785
 6354W        W10405   7.396   2.179   9.757 -0.1102 -0.0885 -0.0191
 6355W        W10406   7.578   0.509   0.815 -0.2707  0.1440 -0.1749
 6356W        W10407   5.937   4.229  10.729 -0.0825  0.0869  0.2291
 6357W        W10408   8.728   8.466   9.175 -0.2063 -0.4103 -0.2636
 6358W        W10409   9.356   7.960   3.265 -0.2036 -0.0394 -0.2400
 6359W        W10410   9.309   4.471   1.408  0.0741  0.3771 -0.0408
 6360W        W10411   1.875   2.150   3.809 -0.3374  0.0535  0.0553
 6361W        W10412   2.786   8.363  12.576  0.2645 -0.3397  0.0491
 6362W        W10413   2.809   5.937   4.451  0.1168  0.0435 -0.1086
 6363W        W10414   9.208   3.531   1.257 -0.0035 -0.0843  0.1865
 6364W        W10415   9.175   1.949   3.521 -0.2864 -0.1176  0.3324
 6365W        W10416   7.879   7.897   1.142 -0.1215 -0.2126 -0.3886
 6366W        W10417   2.504   9.340   9.965  0.0168  0.0215 -0.3290
 6367W        W10418   3.443   0.793   0.529  0.2992 -0.1841  0.1110
 6368W        W10419   1.128   6.732   5.120  0.2141  0.2047  0.2827
 6369W        W10420   5.081   7.439   1.601  0.0059 -0.2559 -0.0309
 6370W        W10421   2.863   8.159   9.349  0.0478  0.1988 -0.3244
 6371W        W10422   8.890   6.693   1.416  0.1709  0.0646 -0.0797
 6372W        W10423   0.128   4.258   9.337 -0.2161  0.0049 -0.0142
 6373W        W10424   2.442   7.133   0.066  0.1368  0.1963  0.1044
 6374W        W10425   7.114   4.152  11.440 -0.0168  0.0880 -0.0001
 6375W        W10426   9.633   2.592  13.683  0.0168  0.0982 -0.0720
 6376W        W10427   9.082   7.934   3.806  0.1670 -0.1006  0.1161
 6377W        W10428   1.450  10.104   3.220  0.2508 -0.1297  0.0980
 6378W        W10429   0.957   0.564   4.224  0.1771  0.0135 -0.1853
 6379W        W10430   5.278   3.771   9.136 -0.1775  0.0670 -0.1215
 6380W        W10431   2.600   1.692   9.345 -0.0003  0.0493  0.0880
 6381W        W10432   0.269   4.675   0.238 -0.0450 -0.0951 -0.1015
 6382W        W10433   3.991   0.521   1.776 -0.2620  0.4126  0.2190
 6383W        W10434   5.277   1.749  12.401  0.0676 -0.0252 -0.1729
 6384W        W10435   0.328   6.587   2.127 -0.1486 -0.1741 -0.0990
 6385W        W10436   6.863   8.106  11.069  0.0813  0.4960  0.0322
 6386W        W10437   0.941   6.580  13.286 -0.1483 -0.2912  0.0551
 6387W        W10438   1.280   7.488  13.351  0.1035 -0.2173  0.0647
 6388W        W10439   8.752   9.649  10.342  0.0156 -0.3503  0.2106
 6389W        W10440   8.779   0.188   1.024 -0.1757 -0.1252 -0.1072
 6390W        W10441   4.898   5.050   0.941 -0.0321  0.1124 -0.2581
 6391W        W10442   1.597   9.835   2.544  0.0307 -0.1123 -0.2263
 6392W        W10443   8.452   2.737  12.028 -0.2387  0.2385  0.1037
 6393W        W10444  10.039   7.285  13.512  0.1016  0.2337  0.0247
 6394W        W10445   6.419   2.245   0.262  0.1026 -0.0322 -0.0663
 6395W        W10446   9.823   9.689   2.053 -0.0839 -0.0366  0.1890
 6396W        W10447   7.150   7.972   3.847 -0.1614  0.0103 -0.1207
 6397W        W10448   3.185   4.949   1.043  0.0868 -0.0673  0.3336
 6398W        W10449  10.121   0.271  11.157 -0.2710 -0.2591  0.0335
 6399W        W10450   5.222   1.855   2.015 -0.0028  0.2231  0.2554
 6400W        W10451   0.258   9.530   1.170  0.3031  0.0622  0.1046
 6401W        W10452   4.268   9.366  10.473 -0.0127 -0.2666 -0.0973
 6402W        W10453   8.742   8.338   3.524  0.2665 -0.1710 -0.0134
 6403W        W10454   1.216   0.739  13.048 -0.1297  0.2116  0.0836
 6404W        W10455   8.678   1.560  12.278 -0.1307 -0.0043 -0.1616
 6405W        W10456   0.995   4.770   9.163 -0.0462 -0.0717 -0.3386
 6406W        W10457   9.157   6.745   0.229  0.2576  0.0075  0.1040
 6407W        W10458   1.364   0.499   3.159 -0.0112  0.2337 -0.1982
 6408W        W10459   0.765   0.037  10.855 -0.1163 -0.0714  0.0723
 6409W        W10460   4.343   3.324   4.813  0.1077  0.0648 -0.2354
 6410W        W10461   1.383   3.927   3.608  0.1482 -0.0974  0.0868
 6411W        W10462   6.820   2.000  12.911  0.1656  0.4565  0.4011
 6412W        W10463   8.513   1.683   0.805 -0.0283  0.2600  0.3030
 6413W        W10464   6.086   9.047  11.639  0.3388  0.0197 -0.3428
 6414W        W10465   5.560   3.143   5.319 -0.1976 -0.1012  0.3399
 6415W        W10466   5.762   1.169   4.032 -0.3551 -0.0403 -0.2210
 6416W        W10467   9.524   0.359  12.980  0.0463 -0.1138 -0.0046
 6417W        W10468   8.806   4.704  13.300  0.1239  0.1442 -0.0001
 6418W        W10469   3.023   8.414   9.812 -0.0696  0.0491  0.0759
 6419W        W10470   4.028   9.080  11.895 -0.1924  0.0620 -0.1583
 6420W        W10471   3.684   4.910   2.532 -0.1762  0.1798  0.0792
 6421W        W10472   0.652   2.011   2.389  0.1775  0.2463  0.1454
 6422W        W10473   0.084   7.887  10.204  0.1181  0.3680 -0.0024
 6423W        W10474   2.042   9.074   1.309  0.1853  0.1121 -0.0334
 6424W        W10475   5.294   0.465  10.047 -0.1316  0.1134 -0.0235
 6425W        W10476   7.027   3.973  13.579 -0.0940 -0.3830  0.1041
 6426W        W10477   8.577   9.302   0.144 -0.0809  0.2460  0.2514
 6427W        W10478   4.744   8.615  10.827  0.0956  0.1891 -0.1194
 6428W        W10479   8.212   5.729   0.904 -0.1912 -0.0619 -0.0077
 6429W        W10480   1.786   0.458  13.847  0.3231 -0.1981  0.0050
 6430W        W10481  10.130   0.640  12.308 -0.0201 -0.2780 -0.2735
 6431W        W10482  10.160   8.524   3.083 -0.1943  0.1953 -0.1149
 6432W        W10483   2.220   3.605   9.802 -0.1215 -0.1274  0.1145
 6433W        W10484   3.539   8.580   4.405  0.3230 -0.0712 -0.0110
 6434W        W10485   8.047   7.202  12.195 -0.1718  0.3828 -0.2786
 6435W        W10486   8.651   5.521   2.259 -0.0567 -0.1096  0.2127
 6436W        W10487   2.902   5.806  12.820 -0.0805 -0.0856 -0.4414
 6437W        W10488   1.492   6.936   0.127 -0.1198 -0.0611 -0.1926
 6438W        W10489   2.510   7.839   4.797  0.0532  0.1598 -0.0999
 6439W        W10490   5.978   1.106   9.789 -0.1611  0.1418 -0.0949
 6440W        W10491   9.667   2.803   1.916  0.2257  0.1796  0.1611
 6441W        W10492   2.388   4.163  12.551 -0.1786 -0.0969 -0.1716
 6442W        W10493   0.614   7.316  10.801 -0.2253 -0.1309 -0.1433
 6443W        W10494   6.185   7.287  12.206 -0.0186 -0.1026 -0.1738
 6444W        W10495   7.339   2.558   2.570 -0.4251 -0.3182 -0.0218
 6445W        W10496   2.877   2.311  12.414 -0.0759 -0.0829 -0.0206
 6446W        W10497   5.141   1.772   9.524  0.1129 -0.1211  0.0463
 6447W        W10498   6.782   7.394  12.691  0.2706 -0.4091 -0.1961
 6448W        W10499   6.847   5.216  12.402  0.3318 -0.2766 -0.2851
 6449W        W10500   1.336   6.119   9.028  0.0818  0.0949  0.1832
 6450W        W10501   1.655   2.647   1.302  0.1903  0.0218 -0.1069
 6451W        W10502   3.676   9.001   9.153  0.0313 -0.1204 -0.1291
 6452W        W10503   2.210   4.631   0.695  0.0558 -0.1620 -0.2012
 6453W        W10504   7.890   7.274   5.544  0.1042  0.1479  0.1569
 6454W        W10505   6.974   6.366  10.015 -0.1763  0.0758  0.0648
 6455W        W10506   2.675   9.868   2.119  0.2707  0.0016  0.0117
 6456W        W10507   2.120   8.732   3.950  0.4426 -0.3637 -0.1548
 6457W        W10508   2.291   3.591  11.990 -0.2505 -0.1079 -0.1334
 6458W        W10509   6.279   0.432   1.003 -0.2807  0.0014 -0.0386
 6459W        W10510   4.565   2.015  12.796  0.2451  0.0540  0.0166
 6460W        W10511   6.577   1.820   9.449  0.0895 -0.1531 -0.0695
 6461W        W10512   6.691   0.182   3.982  0.1217 -0.3631  0.1415
 6462W        W10513   3.461   5.601   2.074 -0.0332 -0.1059  0.2870
 6463W        W10514   7.814   7.637  13.588 -0.0351  0.2227 -0.1886
 6464W        W10515   4.525   0.216  13.717  0.1983 -0.0026  0.2618
 6465W        W10516   1.087   4.245   3.117 -0.0935 -0.1569  0.2938
 6466W        W10517   5.613   2.537  13.607  0.0798 -0.1088 -0.1727
 6467W        W10518   2.680   3.496  13.119 -0.2229 -0.0019  0.2959
 6468W        W10519   5.465   7.198   4.949  0.3424 -0.2464  0.1107
 6469W        W10520   6.326   9.156   2.222 -0.2670  0.2633 -0.2338
 6470W        W10521   5.619   6.784  10.330 -0.3402 -0.1367 -0.2125
 6471W        W10522   8.250   0.760   1.680  0.2949 -0.0307 -0.0087
 6472W        W10523   0.067   2.043  11.449 -0.1430 -0.1247  0.0033
 6473W        W10524   0.627   6.432  11.239  0.0623  0.2628 -0.1509
 6474W        W10525   4.758   0.443  10.036 -0.3216 -0.0265 -0.0585
 6475W        W10526   3.428  10.062   0.308  0.0290  0.1923  0.1904
 6476W        W10527   8.337   9.348  10.411  0.0983 -0.0260  0.0883
 6477W        W10528   8.678   4.822   3.603  0.0121 -0.2209  0.0387
 6478W        W10529   0.900   9.066   3.864 -0.0251 -0.1391 -0.4396
 6479W        W10530   5.809   7.749   9.354 -0.1039 -0.2959 -0.1337
 6480W        W10531   2.704   1.561   2.293  0.1047  0.3191 -0.5070
 6481W        W10532   8.602   6.161   1.958 -0.0915 -0.0364  0.2329
 6482W        W10533   5.243   2.199  13.524  0.0692  0.1510  0.1549
 6483W        W10534   5.313   6.757   5.435  0.2196  0.0384  0.2253
 6484W        W10535   3.433   2.486   4.341 -0.1046  0.3666 -0.0646
 6485W        W10536   0.963   0.342  12.161  0.1842 -0.1081  0.2301
 6486W        W10537   0.548   1.263   3.006  0.0905 -0.0048 -0.1630
 6487W        W10538   3.978   7.928   1.994  0.1567  0.1383  0.0250
 6488W        W10539   7.197   6.582   2.764 -0.1705 -0.0802 -0.1620
 6489W        W10540   8.909   8.654  13.813 -0.2217 -0.2609 -0.1039
 6490W        W10541   9.633   3.366   0.083 -0.0002  0.0750 -0.1227
 6491W        W10542   7.802   5.921   1.143  0.0058 -0.0919  0.0432
 6492W        W10543   5.899   4.325   2.999 -0.0369  0.1251 -0.2808
 6493W        W10544   9.798   8.480  12.850 -0.0106 -0.2186  0.2589
 6494W        W10545   4.551   0.743   4.758  0.2207 -0.1875  0.0733
 6495W        W10546   2.883   3.887  11.987  0.1927  0.1360  0.1779
 6496W        W10547   0.539   5.427   1.471 -0.0540  0.1398  0.1714
 6497W        W10548   9.959   2.410   2.970  0.2206 -0.2308  0.1703
 6498W        W10549   2.312   5.169  11.898  0.0938 -0.3502  0.0792
 6499W        W10550   2.867   8.945  13.328 -0.0427 -0.0400 -0.2710
 6500W        W10551   8.746   3.823   1.979  0.2689  0.0689  0.0010
 6501W        W10552   5.211   3.908  12.618 -0.0065  0.0544 -0.3858
 6502W        W10553   7.511   9.070   9.602 -0.1388 -0.1307 -0.0667
 6503W        W10554   8.814   7.540   4.693 -0.1002  0.0826 -0.1202
 6504W        W10555   4.885   3.131   0.566 -0.2073 -0.0339  0.1285
 6505W        W10556   4.138   1.833   9.678 -0.1329  0.1669  0.2157
 6506W        W10557   6.822   5.745   5.014  0.0608 -0.0744  0.0051
 6507W        W10558   3.809   9.945   3.839  0.1299 -0.0386 -0.2577
 6508W        W10559   3.605   2.915   2.192  0.0637 -0.1267 -0.2432
 6509W        W10560   7.261   6.107   1.220 -0.1091  0.0846 -0.0688
 6510W        W10561   9.495   6.896   4.075 -0.2492 -0.0714  0.2335
 6511W        W10562   5.674   4.850  11.261 -0.2367 -0.0490  0.1682
 6512W        W10563   3.901   4.950   9.716  0.1307  0.0302  0.0734
 6513W        W10564   2.879   3.498   1.982  0.0237 -0.0295 -0.0429
 6514W        W10565   2.508   4.309  11.491 -0.2946  0.1301 -0.2811
 6515W        W10566   5.765   6.402   2.697 -0.2093 -0.2451 -0.1386
 6516W        W10567   7.914   8.788   2.910  0.0174 -0.0137 -0.0578
 6517W        W10568   8.765   9.108   2.996 -0.1593  0.1228 -0.2071
 6518W        W10569   7.019   1.174   1.986 -0.2772  0.1188 -0.3380
 6519W        W10570   5.903  10.017   0.006 -0.1449  0.4972 -0.1842
 6520W        W10571   9.285  10.078   1.907  0.1994  0.1349 -0.0226
 6521W        W10572   0.179   9.609   4.013  0.2350 -0.0362 -0.3376
 6522W        W10573   0.948   2.231  10.656  0.4034  0.2080 -0.0093
 6523W        W10574   9.915   1.812   4.000 -0.2669 -0.0195  0.0126
 6524W        W10575   4.522   7.020   5.009  0.2907 -0.0864  0.0603
 6525W        W10576   7.032   9.879   2.141 -0.2184 -0.3070 -0.0744
 6526W        W10577   3.859   8.610   9.514 -0.0106 -0.0523  0.0528
 6527W        W10578   5.684   5.559  12.977 -0.0053  0.0435 -0.2767
 6528W        W10579   0.425   8.086   2.233  0.0848 -0.4247 -0.1233
 6529W        W10580   0.370   9.667  11.577  0.1302  0.0604  0.1531
 6530W        W10581   4.629   4.328   1.794 -0.1225 -0.0510 -0.0466
 6531W        W10582   5.726   0.567   5.405 -0.0363 -0.3448 -0.0833
 6532W        W10583   2.066   2.495   1.506  0.2266  0.0203  0.0279
 6533W        W10584   1.473   4.310  11.073 -0.0384 -0.2779  0.1631
 6534W        W10585   9.731   7.918   2.310  0.0923 -0.2382  0.0182
 6535W        W10586   3.216  10.060   0.841 -0.1802 -0.0258  0.0439
 6536W        W10587   7.217   8.560   3.634 -0.1271  0.0801  0.2222
 6537W        W10588   7.189   8.784  10.896  0.0508 -0.1546 -0.0686
 6538W        W10589   6.693   5.497   4.193 -0.0755  0.1290  0.0793
 6539W        W10590   1.965   5.845   9.507 -0.3109 -0.1047 -0.2068
 6540W        W10591   1.956   4.342   4.590 -0.0578  0.0721  0.1462
 6541W        W10592   8.157   9.143   1.179 -0.1380  0.0365 -0.1971
 6542W        W10593   9.604   5.650   9.581  0.0731 -0.0222 -0.1557
 6543W        W10594   9.151   0.585   2.549 -0.1357 -0.1917 -0.2032
 6544W        W10595   8.133   9.977   0.454 -0.0086  0.0288 -0.2362
 6545W        W10596   2.464   3.261   1.192 -0.0796 -0.3151 -0.0541
 6546W        W10597   2.374   0.055   1.372  0.0267  0.0408 -0.1486
 6547W        W10598   2.617   3.250  11.388  0.1686  0.0559  0.0970
 6548W        W10599   9.565   9.682   0.776 -0.2112  0.0752 -0.0639
 6549W        W10600   5.752   5.342  13.562 -0.3028  0.1498  0.2711
 6550W        W10601   0.579   8.847   2.593  0.2579  0.1202 -0.2450
 6551W        W10602   5.678   6.584  11.198  0.2498  0.0425  0.4749
 6552W        W10603   0.362   0.815   3.062 -0.1554 -0.1146  0.1391
 6553W        W10604   6.438   7.131  11.206 -0.1320 -0.2566 -0.0542
 6554W        W10605   3.313   9.082   2.712 -0.1764 -0.0475  0.0510
 6555W        W10606   5.073   3.280  12.348 -0.0968 -0.4296  0.1278
 6556W        W10607   1.254   9.393   1.105 -0.0923 -0.0711 -0.0049
 6557W        W10608   8.795   8.807  12.886  0.1472  0.2690  0.0611
 6558W        W10609   2.138   8.962   4.422 -0.1885 -0.0526 -0.1259
 6559W        W10610   9.326   8.529  12.976  0.0069  0.1875 -0.1977
 6560W        W10611   5.178   6.366  11.888 -0.1369  0.2035 -0.0921
 6561W        W10612   5.012   3.457   1.740  0.0078 -0.0620  0.0063
 6562W        W10613   7.886   7.568  12.459  0.2649  0.0235  0.2535
 6563W        W10614   4.115   3.809  13.081 -0.0706  0.1451  0.1086
 6564W        W10615   5.066   6.568   9.958 -0.1788 -0.0943  0.2450
 6565W        W10616   5.086   7.493  11.359 -0.3777  0.0077  0.0679
 6566W        W10617   3.895  10.036   9.680  0.3192 -0.2278 -0.2401
 6567W        W10618   3.866   1.538  11.877  0.2137 -0.1234 -0.2892
 6568W        W10619   0.230   8.076   4.844  0.1899 -0.3645  0.0976
 6569W        W10620   2.857   1.681  10.826  0.2299  0.2273  0.2717
 6570W        W10621   4.444   3.395   1.846 -0.1278 -0.3077  0.1703
 6571W        W10622   5.100   3.467   2.370 -0.2725 -0.2058  0.2619
 6572W        W10623   7.314   4.923   1.396  0.0054  0.0898 -0.2342
 6573W        W10624   4.186   6.663  11.908 -0.1183 -0.0084  0.0200
 6574W        W10625   7.430   0.129  10.366 -0.0338 -0.2774  0.1715
 6575W        W10626   5.826   5.380   5.327 -0.1686 -0.1809  0.0947
 6576W        W10627   6.185   0.396   5.141  0.2817  0.2578  0.0134
 6577W        W10628   5.612   8.863   4.743  0.1718  0.0958  0.0165
 6578W        W10629   5.166   1.274  12.443 -0.1293 -0.0629 -0.1855
 6579W        W10630   3.038   8.147   2.098 -0.3963  0.1731 -0.2848
 6580W        W10631   6.655   3.532   0.537  0.2333 -0.1622  0.0905
 6581W        W10632   8.462   7.459   2.260  0.2165  0.0703  0.0588
 6582W        W10633   4.086   5.191  11.081 -0.2414 -0.1023 -0.2627
 6583W        W10634   9.531   9.594  11.313 -0.2760  0.0077 -0.0570
 6584W        W10635   7.671   9.933   0.373 -0.2420  0.1203  0.1054
 6585W        W10636   1.301   2.753   0.258 -0.1935 -0.0038 -0.1819
 6586W        W10637   9.824   6.773  13.598  0.3146  0.0921 -0.4880
 6587W        W10638   2.210   7.422   5.525  0.2621  0.0104  0.1072
 6588W        W10639   6.161   4.073   3.814  0.3860 -0.1322  0.2500
 6589W        W10640   2.233   2.652   2.051  0.0692  0.0317  0.0863
 6590W        W10641   0.509   2.031   3.603 -0.0723 -0.0097 -0.1553
 6591W        W10642   4.358   1.360   5.726  0.0622  0.0557 -0.0179
 6592W        W10643   9.135   5.822  12.577  0.3804 -0.1861 -0.1376
 6593W        W10644   0.913   8.098  10.549 -0.0965  0.0627  0.2623
 6594W        W10645   0.676   8.151   4.922 -0.2112  0.0938  0.0070
 6595W        W10646  10.079   7.871  12.700  0.0895  0.1919 -0.4101
 6596W        W10647   5.235   8.908   4.446 -0.3703  0.0694 -0.0615
 6597W        W10648   2.956   6.499  11.947 -0.2796 -0.2320  0.4160
 6598W        W10649   1.923   1.290  10.065 -0.1632  0.0015 -0.3142
 6599W        W10650   0.391   2.727  13.318 -0.2003 -0.1908  0.1719
 6600W        W10651   0.146   6.594  11.308 -0.1234 -0.1072 -0.2068
 6601W        W10652   3.221   4.718  10.043 -0.0658  0.3138 -0.1550
 6602W        W10653   1.642   4.490  12.041  0.1017  0.1355  0.1678
 6603W        W10654   2.148   6.164  12.616 -0.1473 -0.5649  0.2312
 6604W        W10655   4.971   1.912  10.530  0.0060  0.0735  0.0635
 6605W        W10656   8.050   8.580   2.389 -0.2021  0.0853  0.1976
 6606W        W10657   5.380  10.054   0.170 -0.0669 -0.1145 -0.0161
 6607W        W10658   2.733   5.845   8.889 -0.2375 -0.1522  0.0179
 6608W        W10659   1.916   8.434   9.085 -0.0353  0.1784 -0.1771
 6609W        W10660   7.152   2.782  11.611  0.0816  0.0469  0.3132
 6610W        W10661   9.470   1.838   2.179  0.1406  0.1810 -0.1919
 6611W        W10662   1.402   3.583  11.995  0.0282 -0.1774  0.2835
 6612W        W10663   1.250   6.882   3.877  0.1941 -0.2547 -0.0084
 6613W        W10664   9.491   1.267  13.212  0.0577  0.0770 -0.3155
 6614W        W10665   1.868   2.324   0.702  0.1858 -0.2110 -0.5704
 6615W        W10666   8.752   8.006   2.129  0.1916 -0.0559 -0.0929
 6616W        W10667   5.190   2.492   4.281 -0.1431  0.2502  0.0096
 6617W        W10668   4.215   8.344   8.843  0.0392 -0.1324 -0.0037
 6618W        W10669   4.837   0.778   9.124  0.2198  0.3354 -0.1388
 6619W        W10670   0.951   9.493  12.259 -0.0164 -0.0072 -0.2984
 6620W        W10671   9.202   7.857   1.789  0.1970 -0.0786  0.1933
 6621W        W10672   0.248   7.541  11.085 -0.1417  0.0310 -0.0902
 6622W        W10673   7.347   1.202   9.410 -0.0528 -0.1215 -0.1118
 6623W        W10674   7.594   4.673  12.618 -0.1983 -0.0932 -0.1310
 6624W        W10675   4.336   0.999   3.720  0.0614 -0.1153  0.0423
 6625W        W10676   2.481   4.754  11.719 -0.1921  0.2976  0.1476
 6626W        W10677   4.807   3.502   0.905 -0.0327  0.3886 -0.1797
 6627W        W10678   4.230   5.842   1.025  0.1655  0.1273  0.0486
 6628W        W10679   8.222   0.155   2.215 -0.0532 -0.0047  0.2140
 6629W        W10680   0.811   8.883  11.538  0.0981 -0.1871 -0.2923
 6630W        W10681   5.761   1.324  11.084 -0.1353  0.3532  0.3335
 6631W        W10682  10.096   6.093   9.102 -0.1536 -0.4614 -0.0575
 6632W        W10683   6.274   7.033  13.246 -0.1539 -0.1389  0.2347
 6633W        W10684   2.148   5.408   9.694 -0.1300  0.1368 -0.0514
 6634W        W10685   2.823   1.994  10.469  0.0891 -0.0723  0.1357
 6635W        W10686   2.773   6.669  13.391  0.1161  0.1419 -0.1863
 6636W        W10687   0.523   5.699  11.634 -0.0617 -0.2164 -0.2826
 6637W        W10688   5.986   9.503   1.978  0.0494 -0.1592  0.3246
 6638W        W10689   1.443   2.854   3.582  0.2575 -0.0820  0.0036
 6639W        W10690   6.296   4.741  13.004  0.0157 -0.2150 -0.0567
 6640W        W10691   7.533   1.032   4.482 -0.0277 -0.1661 -0.0506
 6641W        W10692   1.804   5.231   1.830 -0.0789  0.1859 -0.0026
 6642W        W10693   2.419   5.392  10.108 -0.1646 -0.0208 -0.1187
 6643W        W10694   4.691   9.396   0.646 -0.0108  0.0342 -0.1964
 6644W        W10695   4.744   3.146   2.218  0.1433 -0.0240  0.1128
 6645W        W10696   1.062   5.839   3.461 -0.2909 -0.0380 -0.0901
 6646W        W10697   4.342   0.897   1.832  0.2678  0.2350 -0.1725
 6647W        W10698   9.508   2.391  10.172  0.0723  0.0405 -0.0760
 6648W        W10699   3.216   7.710  11.083  0.2654  0.1477 -0.0654
 6649W        W10700   3.288   5.864   3.464 -0.2146  0.1011 -0.1381
 6650W        W10701   6.144   9.150   1.669 -0.1405 -0.2002 -0.1690
 6651W        W10702   0.501   7.708   0.927  0.0285 -0.0348 -0.0829
 6652W        W10703   9.146   0.053   2.434 -0.3199  0.0410 -0.1745
 6653W        W10704   1.183   2.707   2.987  0.0223  0.0675  0.1229
 6654W        W10705   2.592   8.604   9.526  0.1069 -0.0251  0.1586
 6655W        W10706   7.550   7.171   4.637 -0.0591 -0.0844  0.3334
 6656W        W10707   5.054   1.978   2.497  0.1167  0.1702  0.1164
 6657W        W10708   8.891   6.806   9.480 -0.1284  0.0816 -0.0395
 6658W        W10709   3.014   1.496   4.251  0.0095 -0.2659  0.0886
 6659W        W10710   5.192   0.915  10.801  0.0859 -0.0898  0.4723
 6660W        W10711   7.717   5.869   2.402  0.0432  0.0297 -0.0210
 6661W        W10712   8.932   6.272   1.081 -0.4100  0.0182  0.1026
 6662W        W10713   4.465   6.427   1.362 -0.2359  0.0171 -0.0505
 6663W        W10714   3.629   1.075  11.902 -0.1820  0.4547  0.1027
 6664W        W10715   7.383   5.466   3.087  0.2214 -0.1553  0.2531
 6665W        W10716   9.679   0.684   2.799 -0.2826 -0.2095 -0.2356
 6666W        W10717   7.554   8.701   3.258 -0.1272  0.0090  0.0347
 6667W        W10718   5.776   5.846   2.403 -0.0124 -0.0417  0.1265
 6668W        W10719   1.522   7.733   9.718 -0.1024  0.0262 -0.0524
 6669W        W10720   6.795   5.696  10.363 -0.0999 -0.0712  0.0746
 6670W        W10721   4.740   6.432   3.085 -0.0206 -0.1352 -0.1483
 6671W        W10722   2.663   4.078   2.279  0.0479 -0.0634 -0.1061
 6672W        W10723   0.505   7.621   3.125  0.2006 -0.0504  0.3336
 6673W        W10724   7.104   8.865   2.068 -0.0933 -0.3222 -0.3334
 6674W        W10725   8.222   5.053  10.604  0.1354 -0.0375  0.1434
 6675W        W10726   5.825   5.665   2.841  0.1394 -0.2501 -0.0348
 6676W        W10727   1.912   7.781   9.333  0.2620 -0.0664  0.0568
 6677W        W10728   8.324   1.735   3.412  0.1447  0.0335  0.1892
 6678W        W10729   9.598   0.218   2.509  0.0975  0.0111  0.0053
 6679W        W10730   3.924   9.679   2.464  0.3109 -0.2348  0.1720
 6680W        W10731   7.578   8.238   3.496  0.0566 -0.0538  0.1484
 6681W        W10732   8.515   6.541  13.868 -0.0018  0.0341  0.4361
 6682W        W10733   5.733   0.226   1.985  0.1003  0.2186 -0.2422
 6683W        W10734   1.083   1.687  13.255 -0.3956  0.0183 -0.1648
 6684W        W10735   7.386   1.405   3.686 -0.0567  0.0019  0.1000
 6685W        W10736   3.054   6.890  12.266 -0.2694  0.4459  0.1928
 6686W        W10737   4.057   4.142   9.865 -0.0120  0.0378  0.0322
 6687W        W10738   3.087   6.407   1.326 -0.3948  0.0644 -0.0642
 6688W        W10739  10.083   0.064   4.601  0.0785 -0.0857 -0.0900
 6689W        W10740   4.204   1.374  10.103  0.0102 -0.1801  0.2442
 6690W        W10741   8.906   6.411  11.436  0.2734  0.2727  0.1442
 6691W        W10742   6.303   6.148   3.616 -0.1866 -0.0800 -0.1166
 6692W        W10743   1.043   4.777  10.433  0.1488 -0.0006 -0.0748
 6693W        W10744   8.561   9.649   9.425 -0.3565  0.0727 -0.2869
 6694W        W10745   6.324   3.539   3.626  0.0134 -0.0460 -0.2397
 6695W        W10746   5.881   3.308  12.453  0.0957 -0.3193  0.0482
 6696W        W10747   8.879   2.756   0.137 -0.2125  0.0434  0.1325
 6697W        W10748   8.384   5.331   0.558 -0.0394 -0.0057 -0.2954
 6698W        W10749   4.264   2.426   2.718 -0.0466 -0.1566  0.0620
 6699W        W10750   0.026   6.427   8.720 -0.0688 -0.1510  0.0014
 6700W        W10751   9.347   9.622   1.748 -0.0201  0.1463 -0.2909
 6701W        W10752   1.531   9.732  10.785  0.1697  0.0509  0.1712
 6702W        W10753   8.925   1.633  11.494 -0.0391  0.1916 -0.0983
 6703W        W10754   2.466   4.130   0.383  0.2287 -0.3109  0.2430
 6704W        W10755   0.716   2.732   1.714 -0.2062  0.2401 -0.2131
 6705W        W10756   3.618   4.221   1.959 -0.0790  0.0441 -0.0839
 6706W        W10757   2.327   1.253   5.039 -0.0596 -0.2239 -0.0691
 6707W        W10758   7.141   0.299  12.041 -0.0684 -0.0425  0.2317
 6708W        W10759   1.829   2.498  11.000 -0.1925 -0.0294  0.2313
 6709W        W10760   2.810   6.309  12.899 -0.4384 -0.1486 -0.1256
 6710W        W10761   5.954   2.066  12.911  0.0552  0.3465 -0.4073
 6711W        W10762   6.162   7.764   0.320  0.1165  0.0445  0.0353
 6712W        W10763   5.436   0.063   1.158 -0.2601 -0.4064 -0.2529
 6713W        W10764   8.555   0.956   2.029  0.0283  0.1115  0.0793
 6714W        W10765   7.929   1.828  10.420  0.1963  0.2770  0.0615
 6715W        W10766   9.148   5.181  10.987  0.0179 -0.3026 -0.0420
 6716W        W10767   1.274   7.755   2.687  0.2513  0.0218  0.1077
 6717W        W10768   1.872   1.057   0.250 -0.0043  0.1074  0.0718
 6718W        W10769   1.880   8.294  11.318 -0.0632 -0.0822  0.0538
 6719W        W10770   4.503   5.007   1.317 -0.0857  0.2907  0.0593
 6720W        W10771   0.309   5.266  11.669 -0.0668 -0.0034 -0.0802
 6721W        W10772   6.538   6.261  11.050  0.1107  0.0668  0.0670
 6722W        W10773   7.349   6.846   0.095  0.2267 -0.2847 -0.0374
 6723W        W10774   4.976   6.848   2.894 -0.1428 -0.1432 -0.1122
 6724W        W10775   2.177   8.724   1.632  0.0494  0.0561 -0.1596
 6725W        W10776   6.766   4.652  13.289 -0.0828 -0.0336  0.1415
 6726W        W10777   8.881   4.651   2.230 -0.2217 -0.0650 -0.0829
 6727W        W10778   7.055   3.739  11.770 -0.0435  0.1048  0.1988
 6728W        W10779   2.907   3.132   1.607  0.1306  0.0563  0.0776
 6729W        W10780   5.885   2.297   3.481 -0.0041  0.2707 -0.1966
 6730W        W10781   6.441   5.479   5.331 -0.0495 -0.1193 -0.0256
 6731W        W10782   7.858   1.314   4.075  0.0185 -0.0018  0.2589
 6732W        W10783   5.779   4.505  13.662 -0.1253  0.1075 -0.1362
 6733W        W10784   7.358   9.849  10.741 -0.2964  0.1706  0.0268
 6734W        W10785   5.770   9.576   3.288 -0.1343  0.0492  0.1192
 6735W        W10786   2.017   5.010   2.398 -0.0734 -0.1744  0.2519
 6736W        W10787   9.431   4.481  12.662 -0.1158 -0.3505 -0.3378
 6737W        W10788   1.615   7.239   9.785 -0.3438  0.2054  0.1184
 6738W        W10789   3.963   1.323   8.997  0.1231  0.2019  0.0355
 6739W        W10790   2.614   6.921  12.036 -0.1561  0.2081 -0.1475
 6740W        W10791   5.331   5.721   0.076 -0.1585  0.0310  0.5653
 6741W        W10792   6.119   0.243   2.357  0.1460 -0.0768 -0.0327
 6742W        W10793   3.511   8.343   0.502  0.1579 -0.2827  0.0183
 6743W        W10794   4.426   8.361   3.243  0.0498  0.3325 -0.0370
 6744W        W10795   0.974   5.575   1.252  0.0693 -0.1147  0.0643
 6745W        W10796   5.462   3.985  10.800  0.3431 -0.2254 -0.0193
 6746W        W10797   0.873   8.360   2.015  0.0287  0.1072  0.2359
 6747W        W10798   3.776   1.951   4.910 -0.2106  0.2334 -0.1749
 6748W        W10799   6.856   9.906   5.732 -0.0604 -0.2253  0.4173
 6749W        W10800   0.434   8.575   3.169  0.1309 -0.0233 -0.0018
 6750W        W10801   3.563   6.404   4.672  0.2354  0.2952 -0.0867
 6751W        W10802   4.867   8.503   2.101  0.1129  0.1874  0.0860
 6752W        W10803   0.707   9.992   2.773 -0.2094  0.1775  0.0179
 6753W        W10804  10.109   9.279   3.707  0.2637  0.0341  0.3278
 6754W        W10805   6.517   5.784  13.122 -0.0958  0.2713 -0.1222
 6755W        W10806   2.885   8.963   4.090  0.2264 -0.0569  0.2029
 6756W        W10807   8.178   9.809   2.933 -0.0623 -0.0572 -0.0416
 6757W        W10808   3.469   3.716   0.571  0.0208  0.2438 -0.2604
 6758W        W10809   5.545   7.450  13.578 -0.2343 -0.0355  0.0764
 6759W        W10810  10.119  10.154   0.235 -0.0274  0.1144 -0.1166
 6760W        W10811   7.313   5.862  11.062 -0.0406  0.3460 -0.0071
 6761W        W10812   2.288   4.083   3.888 -0.1976 -0.2701  0.3347
 6762W        W10813   8.405   1.809   1.662  0.0227  0.0289 -0.0025
 6763W        W10814   1.531   6.864   2.753  0.2108 -0.3536 -0.0159
 6764W        W10815   3.332   5.729  13.234  0.1071 -0.3523  0.0725
 6765W        W10816   2.262   4.161   2.620 -0.2191 -0.0585  0.0016
 6766W        W10817   3.808   0.898   3.551  0.1163  0.0673  0.0752
 6767W        W10818   5.359   6.174   4.787  0.0052  0.0801  0.1260
 6768W        W10819   0.604   8.447  12.409  0.0989  0.0189  0.0030
 6769W        W10820   2.525   3.015   3.339  0.3750  0.0570  0.1469
 6770W        W10821   8.001   7.887  10.680  0.2978 -0.0861 -0.1938
 6771W        W10822   1.250   8.907  13.599  0.1327  0.2418 -0.0221
 6772W        W10823   6.745   1.448  12.141 -0.1410  0.1186 -0.0852
 6773W        W10824   2.538   1.869  13.308 -0.1042  0.1283  0.3499
 6774W        W10825   5.108   2.146  11.049  0.2576 -0.1925 -0.2528
 6775W        W10826   2.393   0.728  13.380  0.1154  0.0752 -0.1032
 6776W        W10827   2.901   9.487   4.258 -0.0252  0.1138 -0.1532
 6777W        W10828   5.154   7.058   0.976  0.1967  0.1815 -0.1240
 6778W        W10829   2.854   1.369  13.688  0.1882  0.0034 -0.2117
 6779W        W10830   3.809   2.488   3.351 -0.0484  0.2325  0.0725
 6780W        W10831   6.918   7.186   3.550 -0.0553  0.0974  0.0710
 6781W        W10832   4.892   8.842   2.546 -0.3411  0.2053  0.2534
 6782W        W10833   3.428   7.939  13.303  0.0963 -0.0996 -0.1042
 6783W        W10834   1.310   0.989   0.829  0.0256 -0.4275  0.1219
 6784W        W10835   8.124   1.342   9.855 -0.1405  0.0941  0.0111
 6785W        W10836   5.231   8.760  11.019  0.2624  0.2248  0.0249
 6786W        W10837   2.385   3.798   9.058 -0.0284  0.1503  0.1373
 6787W        W10838   0.411   3.827  13.310  0.1012 -0.1629  0.2495
 6788W        W10839   5.170  10.065  12.271  0.1813  0.3025  0.2997
 6789W        W10840   8.832   9.258  13.140 -0.0084 -0.2957 -0.1501
 6790W        W10841   9.578   1.911  11.968  0.1595  0.0503 -0.1996
 6791W        W10842   7.153   4.323  10.945  0.1003 -0.2077  0.1468
 6792W        W10843   7.579   1.225  12.806  0.1241  0.0485  0.1768
 6793W        W10844  10.143   5.617   1.186 -0.2391  0.2840  0.2307
 6794W        W10845   2.177   1.258   0.910  0.5533  0.1305 -0.0963
 6795W        W10846   1.667   0.673   1.246 -0.0391 -0.1522  0.1888
 6796W        W10847   6.645   9.071   1.859  0.0822 -0.0630  0.3271
 6797W        W10848   1.887   5.048  10.911  0.1820  0.0735  0.0686
 6798W        W10849   6.036   3.149  10.931  0.0240  0.1742  0.1538
 6799W        W10850   5.130   6.575   4.513 -0.5210 -0.3269  0.0606
 6800W        W10851   1.329   2.198  11.030 -0.3559  0.0191 -0.0864
 6801W        W10852   5.168   4.108   3.602  0.0148  0.2324 -0.1352
 6802W        W10853   9.720   9.036   3.984 -0.1831 -0.0193  0.1096
 6803W        W10854   0.592   5.400   2.063  0.2556 -0.0522  0.2326
 6804W        W10855   6.418   3.107   4.422 -0.2079  0.1215  0.2466
 6805W        W10856   7.742   6.763  11.555 -0.0344 -0.0881 -0.2891
 6806W        W10857   7.192   7.302  12.255  0.0869  0.1405  0.0904
 6807W        W10858   7.096   6.331   9.543  0.0071 -0.0268 -0.1988
 6808W        W10859   3.707   7.292   0.714 -0.1966  0.0546  0.3027
 6809W        W10860   3.011   8.222   5.689  0.0080  0.1422  0.0793
 6810W        W10861   1.942   6.785   4.869 -0.2214 -0.2441  0.2301
 6811W        W10862   4.181   7.123   2.622  0.0154 -0.0672  0.2030
 6812W        W10863   4.530   6.333   2.250  0.2073  0.5375  0.1257
 6813W        W10864   5.851   8.879  10.956  0.1618 -0.1660  0.3466
 6814W        W10865   5.274   3.884  10.254  0.0364 -0.4538  0.0610
 6815W        W10866   3.330   9.755  13.216 -0.3309 -0.0846  0.0917
 6816W        W10867   1.200   8.048  10.093 -0.0766  0.1415 -0.1522
 6817W        W10868   6.257  10.024  11.572 -0.1377  0.0469 -0.1881
 6818W        W10869   3.723   4.156  12.840 -0.1226 -0.0068 -0.4090
 6819W        W10870   9.199   9.223   2.138  0.0983  0.0516  0.3014
 6820W        W10871   6.511   5.125   3.839 -0.0631  0.0190 -0.1346
 6821W        W10872   1.271   5.845   1.530 -0.0577  0.0868 -0.4270
 6822W        W10873   8.676   1.911   0.289  0.0617 -0.3911  0.1548
 6823W        W10874   8.797   7.993   4.423  0.1584 -0.0919 -0.1424
 6824W        W10875   0.762   5.303  12.062 -0.0142  0.0848  0.0015
 6825W        W10876   9.106   2.596  13.659 -0.1736  0.0519 -0.3263
 6826W        W10877   7.732   4.047   3.009  0.3105  0.1024  0.1706
 6827W        W10878   1.712   9.770   1.806  0.0592  0.1287  0.1148
 6828W        W10879   6.211   7.231   2.936 -0.0263 -0.2768  0.2772
 6829W        W10880   4.092   4.672   2.781  0.0184 -0.0813  0.0967
 6830W        W10881   7.467   8.694   4.337 -0.0800 -0.1217 -0.3001
 6831W        W10882   7.998   8.375  12.795  0.1161  0.1330  0.3267
 6832W        W10883   2.132   2.728   2.567  0.1648 -0.0609 -0.0802
 6833W        W10884   4.538   6.068   0.726 -0.0710 -0.1235 -0.2357
 6834W        W10885   0.593   5.013   9.323  0.1132 -0.2732  0.2152
 6835W        W10886   9.936   2.929  13.954 -0.1013  0.2149  0.3613
 6836W        W10887   2.894   2.285  13.707  0.0180  0.2826  0.0705
 6837W        W10888   1.747   6.238   9.832  0.0391  0.0617  0.0602
 6838W        W10889   3.889   2.195   9.964  0.1262 -0.1508  0.0744
 6839W        W10890   3.812   3.763   1.547 -0.0574 -0.2359  0.0365
 6840W        W10891   8.303   9.688   3.835  0.1145 -0.0164  0.0501
 6841W        W10892   9.966   9.666   1.352 -0.1108 -0.1452  0.0126
 6842W        W10893   0.391   5.860  12.751 -0.1079 -0.0923  0.1188
 6843W        W10894   5.355   3.077   2.594 -0.1394 -0.2293 -0.1129
 6844W        W10895   2.956   3.862   4.272  0.0510 -0.1640  0.1007
 6845W        W10896   6.676   5.564   3.670 -0.1270 -0.0714 -0.0654
 6846W        W10897   1.941   3.798  12.527 -0.1813  0.1972  0.1859
 6847W        W10898   9.673   4.125   0.767 -0.0247 -0.3526 -0.2291
 6848W        W10899   6.454   9.376  11.540  0.0927 -0.1991 -0.2085
 6849W        W10900   7.503   8.499  10.348 -0.1560 -0.0640  0.1389
 6850W        W10901   7.231   3.065   3.905 -0.0516  0.0534  0.1378
 6851W        W10902   1.500   3.123   3.170  0.0049  0.2510  0.1639
 6852W        W10903   0.739   2.484   3.329 -0.2740  0.1795  0.1110
 6853W        W10904   8.077   2.931  11.221 -0.1184  0.0504  0.1537
 6854W        W10905   6.372   7.141   9.948 -0.0067  0.1003 -0.1309
 6855W        W10906   6.105   9.633   4.756 -0.2120  0.0480 -0.3878
 6856W        W10907   2.596   5.347   8.626 -0.1348 -0.1394 -0.0942
 6857W        W10908   6.612   9.639   0.509 -0.2204  0.1827  0.0963
 6858W        W10909   7.459   4.542   4.862 -0.2921 -0.3573 -0.0064
 6859W        W10910   7.264   6.913  13.182 -0.1579 -0.0400 -0.3101
 6860W        W10911   4.054   8.979   3.742 -0.2460  0.0601  0.3431
 6861W        W10912   2.892   9.150   0.878  0.1744 -0.2567 -0.0954
 6862W        W10913   1.175   3.980  12.956 -0.1200 -0.0937 -0.1400
 6863W        W10914   6.512   2.915  10.435 -0.2670  0.0473 -0.1346
 6864W        W10915   3.935   4.091   5.542  0.1227  0.2016  0.1203
 6865W        W10916   3.054   5.729  13.673  0.1543 -0.1342  0.0782
 6866W        W10917   2.363   0.935  12.438  0.0369  0.4444  0.3399
 6867W        W10918   9.758   7.566  12.372  0.0144  0.2303 -0.3066
 6868W        W10919   0.580   9.519  13.287  0.2337  0.0382  0.0393
 6869W        W10920   5.801   4.007   9.944  0.0701 -0.0001  0.0245
 6870W        W10921   3.881   7.692  13.209  0.1944  0.2127 -0.0730
 6871W        W10922   8.343   7.560  13.105 -0.1175  0.3827  0.2060
 6872W        W10923   9.240   4.323  13.170  0.0262  0.0561  0.1450
 6873W        W10924   0.968   1.002   0.201  0.1423  0.2193  0.0719
 6874W        W10925   1.761   9.256   4.657  0.1421 -0.0464  0.1326
 6875W        W10926   4.324  10.013   2.371  0.0321 -0.1093  0.0517
 6876W        W10927   9.158   1.244  12.333  0.0633 -0.1925  0.1389
 6877W        W10928   7.750   1.083   3.609 -0.1397  0.0931  0.2694
 6878W        W10929   7.184   6.199   2.466  0.3121  0.3522  0.0351
 6879W        W10930   9.560   3.090  10.820 -0.3316 -0.1679 -0.1563
 6880W        W10931   0.004   7.710  12.279 -0.1564  0.1350 -0.1150
 6881W        W10932   3.742   6.282   9.948 -0.1138  0.0873  0.1688
 6882W        W10933   2.351   0.311   4.696 -0.0074  0.0536 -0.2525
 6883W        W10934   9.972   0.941   1.940 -0.0436  0.1414  0.1180
 6884W        W10935   9.311   3.955  11.258  0.0030  0.0710  0.2046
 6885W        W10936   2.868   4.417   0.264  0.2315 -0.2481 -0.0788
 6886W        W10937   0.306   0.854  13.856 -0.2455  0.0427  0.1522
 6887W        W10938   7.239   2.915   2.920  0.2941  0.1499  0.0754
 6888W        W10939   0.453   9.087   3.191 -0.0611 -0.1330 -0.0647
 6889W        W10940   3.058   1.281   5.616 -0.1336 -0.0728  0.1912
 6890W        W10941   5.127   3.632   5.413 -0.0983  0.1451  0.2442
 6891W        W10942   1.729   5.259   4.990 -0.0993 -0.1415  0.0588
 6892W        W10943   8.023   1.808  11.750 -0.0959  0.3961  0.2529
 6893W        W10944   1.739   5.239  11.834 -0.1278  0.1508 -0.0261
 6894W        W10945   3.004   8.482  13.342 -0.1289 -0.0950  0.1251
 6895W        W10946   3.095   4.118   0.697 -0.1645 -0.1505 -0.0073
 6896W        W10947   5.001   0.271  13.586 -0.0464 -0.1006  0.1660
 6897W        W10948   4.955  10.134   5.798  0.1711  0.0370 -0.0561
 6898W        W10949   9.401   2.900  13.967 -0.1592 -0.2474 -0.2644
 6899W        W10950   6.673   1.107  11.408 -0.1339  0.0644 -0.1383
 6900W        W10951   1.016   7.278   3.401  0.1411  0.2492 -0.1637
 6901W        W10952   9.554   7.523   0.818 -0.0289  0.2532  0.0912
 6902W        W10953   2.674   0.473   0.371  0.0219 -0.0437  0.1567
 6903W        W10954   3.317   0.658   4.767 -0.1685  0.1459 -0.3666
 6904W        W10955   9.331   5.995   3.695  0.3547 -0.1950  0.2980
 6905W        W10956   5.074   4.556  10.154 -0.2306  0.1613 -0.0353
 6906W        W10957   7.423   9.275   0.249 -0.2691 -0.2060  0.1362
 6907W        W10958   9.752   8.309   9.321  0.1325 -0.0146 -0.0398
 6908W        W10959   2.549   4.350   9.162 -0.1039  0.1290 -0.0819
 6909W        W10960   4.659   4.122   1.162 -0.0137 -0.2546  0.0992
 6910W        W10961   6.064   7.957   9.736 -0.1937 -0.1551 -0.3011
 6911W        W10962   4.754   8.165  11.128 -0.1339 -0.0007 -0.0657
 6912W        W10963   1.087   5.498   2.235 -0.2579  0.1889 -0.1323
 6913W        W10964   7.396   2.697   2.116  0.1872 -0.0764  0.1785
 6914W        W10965   8.626   5.990   0.411 -0.1128 -0.1069 -0.1031
 6915W        W10966   5.537   4.923  13.557 -0.0737  0.1915  0.0111
 6916W        W10967   8.574   7.205   9.608 -0.4874 -0.0891  0.1922
 6917W        W10968   3.610   1.199  12.613  0.1103 -0.2509  0.0577
 6918W        W10969   3.036   9.440   3.396  0.0003 -0.2577 -0.2330
 6919W        W10970   4.864   1.610   5.028  0.1135  0.3192 -0.3842
 6920W        W10971   9.433   8.728   4.253  0.2744  0.2831  0.1624
 6921W        W10972   7.673   7.626  11.426  0.2040 -0.5052  0.1409
 6922W        W10973   9.004   9.066  12.515  0.2374  0.0937 -0.0082
 6923W        W10974   0.197   9.301  10.878 -0.0539 -0.2168 -0.2040
 6924W        W10975   6.241   3.274   4.015  0.2696 -0.0075  0.1358
 6925W        W10976   4.749   9.523   0.101  0.1113  0.4539 -0.1013
 6926W        W10977   3.350   0.633  12.094 -0.0237  0.1773 -0.4039
 6927W        W10978   1.234   3.861  11.086  0.0669  0.2051 -0.1907
 6928W        W10979   7.650   6.416   1.069 -0.0416 -0.0494  0.0532
 6929W        W10980   2.586   3.883   9.520 -0.1501  0.0742  0.0924
 6930W        W10981   4.288   9.963   2.951 -0.0473  0.2967 -0.0221
 6931W        W10982   4.870   3.439  11.398  0.0752  0.2255 -0.3473
 6932W        W10983   1.417   9.912   3.987  0.0433 -0.0245 -0.1904
 6933W        W10984   2.558   4.851  10.263  0.1204  0.0780 -0.1988
 6934W        W10985   9.666   7.847   4.184 -0.0503  0.0184  0.0292
 6935W        W10986   3.254   6.898   1.032  0.2350  0.2151  0.1049
 6936W        W10987   2.904   2.035  11.907 -0.1572  0.0519  0.0312
 6937W        W10988   5.716   6.289   2.232 -0.1522 -0.1004  0.1713
 6938W        W10989   8.873   0.796  11.606 -0.0233 -0.0919  0.2980
 6939W        W10990   7.223  10.174   2.465  0.0056 -0.0774  0.0421
 6940W        W10991   6.912   0.005  10.400  0.1785 -0.2232  0.1129
 6941W        W10992   2.183   0.057   9.990 -0.0904 -0.1197 -0.1897
 6942W        W10993   2.001   7.471  11.722  0.1041  0.1642  0.0044
 6943W        W10994   7.698   9.230   1.009 -0.1246  0.1575 -0.1316
 6944W        W10995   3.323   0.156  12.242  0.0690 -0.0353 -0.1620
 6945W        W10996   7.208   8.367   2.148 -0.0241 -0.3028 -0.2896
 6946W        W10997   6.719   6.448   2.541  0.1179 -0.1978  0.0659
 6947W        W10998   3.810   7.548   3.397  0.1559  0.1334  0.1672
 6948W        W10999   7.470   8.011   3.040  0.4107  0.1420 -0.0194
 6949W        W11000   2.906   4.595  10.493 -0.2471  0.0355  0.2126
 6950W        W11001   1.504   6.838   9.351 -0.1630 -0.0288  0.1546
 6951W        W11002   9.196   0.099  12.376  0.0853  0.3066  0.0245
 6952W        W11003   0.660   9.008  13.517 -0.0715 -0.1787 -0.2682
 6953W        W11004   2.053   4.203   9.265 -0.2756 -0.2518  0.0560
 6954W        W11005   0.539   8.357  11.558 -0.3240 -0.1303  0.0052
 6955W        W11006   8.713   9.312  12.123  0.4338  0.2836 -0.1970
 6956W        W11007   6.793   9.505  11.229  0.4154 -0.0545  0.2388
 6957W        W11008   9.723   7.862   9.830 -0.0844  0.0074 -0.4591
 6958W        W11009   2.989   0.662  12.990 -0.0740 -0.2092 -0.2057
 6959W        W11010   1.881   5.103  12.745  0.0608 -0.0338 -0.0567
 6960W        W11011   6.279   9.019   9.646 -0.1245 -0.2431 -0.1518
 6961W        W11012   0.429   1.725  13.766 -0.0714  0.0576 -0.0896
 6962W        W11013   0.580   8.718   4.198  0.0465  0.0012  0.2444
 6963W        W11014  10.091   0.110   2.726 -0.4779  0.1405  0.2672
 6964W        W11015   0.631   1.798   4.188 -0.3162 -0.0338  0.2582
 6965W        W11016   5.716   7.560   3.035  0.2331  0.2961 -0.0769
 6966W        W11017   1.532   5.232   2.217 -0.1637  0.0846 -0.1570
 6967W        W11018   7.894   7.897   4.310  0.0294  0.0135 -0.1505
 6968W        W11019   5.701   2.678  10.039 -0.1460 -0.0071  0.2110
 6969W        W11020   5.813   5.502  11.578 -0.0137  0.2891 -0.1602
 6970W        W11021   8.730   9.795  12.505 -0.3318  0.0021 -0.0865
 6971W        W11022   4.592   5.734  13.526 -0.0938 -0.1402  0.1882
 6972W        W11023   6.436   0.512   3.715  0.0482 -0.3037  0.2472
 6973W        W11024   3.867   1.956   3.463  0.2452 -0.1808  0.0985
 6974W        W11025   1.183   8.432  12.827  0.4219 -0.0454 -0.1725
 6975W        W11026   3.708   5.162  12.056 -0.1387 -0.1585 -0.2363
 6976W        W11027   3.951  10.005   1.117 -0.0592 -0.1212 -0.1036
 6977W        W11028   1.810   7.977  11.643 -0.0435  0.0114  0.0689
 6978W        W11029   2.564   0.219   3.363  0.1574 -0.0573 -0.0195
 6979W        W11030   3.819   9.498   9.687  0.1381 -0.1133  0.2151
 6980W        W11031   7.136   1.243  13.102  0.3095  0.1568 -0.5154
 6981W        W11032   7.012   5.972   5.418  0.0282 -0.0445 -0.0366
 6982W        W11033   9.103   8.545   3.798 -0.3154  0.1212  0.0601
 6983W        W11034   1.068   2.167  13.046  0.0920 -0.1786  0.1461
 6984W        W11035   7.671   0.407  12.979  0.0576  0.0907 -0.0326
 6985W        W11036   3.566   9.141   0.380  0.1411 -0.0108  0.3449
 6986W        W11037   0.528   3.821  10.054  0.1344 -0.0835 -0.1890
 6987W        W11038   6.337   2.539   2.257  0.2388 -0.4756 -0.1057
 6988W        W11039   6.619   3.187   0.905 -0.1115  0.1493 -0.1256
 6989W        W11040   4.089   3.385  11.392 -0.1347 -0.1414 -0.0184
 6990W        W11041   3.682   8.949  13.138 -0.1981 -0.0976 -0.0147
 6991W        W11042   4.560   7.244   1.764 -0.1708  0.4023 -0.1860
 6992W        W11043   4.084   6.497   0.048  0.3197 -0.0665 -0.1068
 6993W        W11044   7.030   1.552  11.383  0.0055  0.1358  0.0765
 6994W        W11045   8.342   3.573  11.656  0.1633  0.1449  0.2921
 6995W        W11046   1.133   8.016  13.562  0.1275 -0.0626 -0.2350
 6996W        W11047   4.819   2.753  11.591  0.1236  0.0319  0.2252
 6997W        W11048   1.537   3.512   4.567 -0.2478 -0.4954 -0.1381
 6998W        W11049  10.045   3.017  11.598  0.0035  0.0796  0.2305
 6999W        W11050  10.088   8.772   9.093  0.3545 -0.1088  0.2859
 7000W        W11051   5.711   1.499   0.233  0.1419  0.1383 -0.0482
 7001W        W11052   1.811   5.644  10.504 -0.0701  0.1229  0.0530
 7002W        W11053   4.138   3.044  13.514 -0.2035  0.0610  0.1535
 7003W        W11054   1.312   7.722  12.659 -0.0886 -0.0119 -0.3005
 7004W        W11055   3.033   3.353   5.212 -0.0998 -0.3083 -0.2190
 7005W        W11056   9.956   9.387   0.913 -0.1135 -0.0984  0.2498
 7006W        W11057   9.552   7.116   3.595 -0.2310 -0.0898  0.0274
 7007W        W11058   4.734   3.285   9.813 -0.1161 -0.1892  0.0415
 7008W        W11059   8.594   3.173  11.270 -0.0979  0.1168  0.1114
 7009W        W11060   5.266   3.238  13.246 -0.1832  0.1467  0.1622
 7010W        W11061   3.719   6.253  10.434  0.0955 -0.2373  0.0493
 7011W        W11062   9.779   6.245   3.225 -0.1621 -0.5086 -0.0484
 7012W        W11063   1.139   9.496  11.012 -0.1333 -0.1088 -0.0386
 7013W        W11064   6.667  10.136   1.729  0.1687 -0.1863  0.2426
 7014W        W11065   1.617   7.383  13.732  0.0579 -0.0180 -0.1646
 7015W        W11066   9.903   2.109  13.727 -0.1351  0.2721  0.1216
 7016W        W11067   9.588   1.591  10.773  0.1051 -0.1092 -0.1301
 7017W        W11068   2.368   4.171  10.998 -0.1067  0.2381 -0.0019
 7018W        W11069   3.072   6.809  11.561  0.0210  0.0560  0.1937
 7019W        W11070   5.805   6.613   3.933 -0.2473  0.3071 -0.1989
 7020W        W11071   4.791   6.411   3.816  0.0051 -0.0688  0.0822
 7021W        W11072   4.411   5.298   3.656 -0.1934  0.4910 -0.0831
 7022W        W11073   9.201   7.649   2.854 -0.1845  0.2071  0.1412
 7023W        W11074   3.576   5.109  11.119 -0.1332  0.1002 -0.2300
 7024W        W11075   1.379   5.202  10.450  0.0349 -0.1251  0.1007
 7025W        W11076   4.625   6.610   9.751  0.2719  0.0323  0.3408
 7026W        W11077   0.164   2.505   2.629  0.0999 -0.1865  0.0177
 7027W        W11078   0.421   2.941   3.455 -0.0394  0.3280  0.0460
 7028W        W11079   4.146   5.140   2.578 -0.1210  0.2720  0.1800
 7029W        W11080   1.434   8.888  11.737 -0.3688 -0.2084  0.0768
 7030W        W11081   1.097   8.706   2.415 -0.0196 -0.0029  0.1364
 7031W        W11082   3.128   5.178   4.327 -0.0657  0.1238 -0.2741
 7032W        W11083   6.401   2.663   3.146 -0.3027 -0.4299 -0.2691
 7033W        W11084   4.865   2.068   4.393 -0.3340  0.3237  0.4699
 7034W        W11085   1.307  10.140  12.847 -0.0998 -0.0672  0.2428
 7035W        W11086   6.249  10.055  13.144 -0.0904  0.1426  0.2402
 7036W        W11087   0.967   5.536   0.678  0.1671 -0.2901 -0.0023
 7037W        W11088   0.893   5.813  12.755  0.2170  0.0640  0.2589
 7038W        W11089   2.901   0.538   0.793  0.2340  0.2057 -0.7116
 7039W        W11090   2.340   9.066   2.605 -0.1140  0.2661  0.1889
 7040W        W11091   6.373   9.611   0.009  0.1026  0.1310 -0.0833
 7041W        W11092   3.084   3.081  11.581  0.1639 -0.0442  0.0368
 7042W        W11093   1.457   4.969   3.699 -0.1893  0.0377 -0.1273
 7043W        W11094   2.404   3.632   0.305  0.0443  0.0712  0.1332
 7044W        W11095   9.845  10.060  10.494 -0.0756 -0.0083 -0.0901
 7045W        W11096   2.054   8.780  11.173 -0.0451 -0.1064  0.3303
 7046W        W11097   9.104   0.567   1.254  0.1424 -0.2758  0.1836
 7047W        W11098   3.948   8.897  10.475 -0.1818  0.0466  0.1012
 7048W        W11099   6.677   7.759   3.333  0.1377 -0.2809  0.0543
 7049W        W11100  10.130   2.247   3.798  0.0177  0.1777  0.1084
 7050W        W11101   6.759   5.986   2.751 -0.1046 -0.2400  0.0806
 7051W        W11102   2.742   2.729   3.766  0.0493  0.2934  0.1120
 7052W        W11103   0.629   2.086   0.109 -0.0724 -0.2785  0.1480
 7053W        W11104   9.338   0.985  13.616 -0.1473  0.0715  0.0849
 7054W        W11105   6.456   5.337  10.363  0.0182 -0.0251  0.1564
 7055W        W11106   2.159   7.702   3.024 -0.0235 -0.0872 -0.1663
 7056W        W11107   0.632   8.673   3.723 -0.2545 -0.1866 -0.3381
 7057W        W11108   5.743   8.755   1.060 -0.0652 -0.1977 -0.1196
 7058W        W11109   8.845   8.768   1.812 -0.0348 -0.0575  0.2198
 7059W        W11110   3.743   7.244   9.760 -0.1416  0.1533  0.1872
 7060W        W11111   6.170   9.863   2.362  0.1253  0.0034 -0.1648
 7061W        W11112   8.236  10.125   4.262  0.0031 -0.2297 -0.0306
 7062W        W11113   5.635   3.441   9.360  0.0201  0.0646  0.0294
 7063W        W11114   0.837   8.002   1.227  0.1234  0.0815 -0.2153
 7064W        W11115  10.146   2.453  11.225 -0.0075 -0.1864 -0.3852
 7065W        W11116   2.026   3.195   5.522 -0.3308  0.5048 -0.0944
 7066W        W11117   3.298   8.164   3.741  0.1311 -0.3592  0.1656
 7067W        W11118   5.004   6.255   9.062 -0.1089 -0.0366 -0.2760
 7068W        W11119   2.577   0.599  10.577 -0.0439 -0.1840 -0.1138
 7069W        W11120   8.167  10.005   3.457 -0.0245 -0.0150 -0.2361
 7070W        W11121   3.303   8.029   4.197  0.1045 -0.1954 -0.3789
 7071W        W11122   8.192   4.977   4.491  0.0059  0.0317 -0.3965
 7072W        W11123   6.951   3.988  12.802  0.0575  0.2131  0.0520
 7073W        W11124   7.305   8.561   9.537  0.1061  0.2566  0.0397
 7074W        W11125   1.712   8.208   1.955 -0.0320 -0.1509  0.4307
 7075W        W11126   6.096   2.787  12.682  0.1034 -0.2108 -0.1548
 7076W        W11127   3.395   2.804   1.684  0.0428  0.2580  0.0210
 7077W        W11128   9.832   0.772   9.969 -0.0255  0.0063 -0.0654
 7078W        W11129   0.733   0.609   0.029 -0.3768 -0.2099 -0.1122
 7079W        W11130   1.365   4.082  12.118 -0.0006  0.2582 -0.2033
 7080W        W11131   0.539   6.871  13.188 -0.1836 -0.0238  0.1505
 7081W        W11132   9.800   6.507  11.915  0.0483 -0.1217  0.0587
 7082W        W11133   6.450   3.500  12.981  0.0513 -0.0871  0.0532
 7083W        W11134   3.664   2.934   1.255 -0.1497 -0.0180  0.0903
 7084W        W11135   9.238   5.529   3.836 -0.1025 -0.2181  0.0239
 7085W        W11136   8.770   3.167   1.237 -0.0466 -0.0016 -0.4757
 7086W        W11137   0.940   4.858   4.635 -0.3725  0.0316 -0.1800
 7087W        W11138   2.071   7.755   2.557  0.1917 -0.0608 -0.3909
 7088W        W11139   1.979   8.385  13.212  0.1188 -0.2945  0.2348
 7089W        W11140   8.174   6.913   3.274  0.0026 -0.2717 -0.3591
 7090W        W11141   2.035   9.737   4.982  0.2314 -0.1247  0.1049
 7091W        W11142   1.530   2.788  12.763  0.0527 -0.0726  0.1201
 7092W        W11143   5.840   1.640   2.509 -0.0605 -0.1922  0.0690
 7093W        W11144   3.556   4.245   0.493 -0.3901  0.1128 -0.0416
 7094W        W11145   7.736   6.287   1.574  0.1022  0.1999 -0.1131
 7095W        W11146   7.472   3.663   3.298  0.0482 -0.1170  0.1532
 7096W        W11147   3.656   0.788  10.986 -0.0077 -0.0537  0.1362
 7097W        W11148   5.569   1.596   1.794 -0.1555 -0.0767 -0.0912
 7098W        W11149   1.311   0.471   1.526 -0.2893 -0.0062  0.3092
 7099W        W11150   6.306   6.624   3.916  0.0983  0.2554  0.2088
 7100W        W11151   1.054   3.580   1.512  0.1382  0.1307 -0.0849
 7101W        W11152   2.805   3.963   1.764 -0.1719 -0.0860  0.2024
 7102W        W11153   3.599   5.224   1.628 -0.2973 -0.3425  0.4827
 7103W        W11154   0.650   5.258   1.014 -0.1693 -0.1189 -0.1115
 7104W        W11155   5.346   9.605  11.428  0.0715  0.0458 -0.0249
 7105W        W11156   3.075   1.793   0.199  0.0612 -0.0787 -0.1898
 7106W        W11157   7.587   3.297   1.280 -0.1234 -0.2247 -0.3274
 7107W        W11158   8.991   2.616   3.145  0.1728  0.2976  0.1507
 7108W        W11159   0.194   8.123  11.127 -0.3344 -0.0368  0.6325
 7109W        W11160   7.592   0.459  13.838 -0.1067  0.0851 -0.0522
 7110W        W11161   0.044   6.813  13.384 -0.0088 -0.1982 -0.2911
 7111W        W11162   3.236   1.862   3.637 -0.0701  0.5442 -0.4920
 7112W        W11163   6.175   1.753  13.210  0.2768 -0.0446 -0.0207
 7113W        W11164   1.217   2.882  13.654 -0.0132 -0.1552  0.2590
 7114W        W11165   3.335   5.905   8.943 -0.0125  0.0291 -0.4091
 7115W        W11166   3.918   7.566   2.459  0.2826 -0.1497  0.1755
 7116W        W11167   4.434   7.099  11.877  0.4829  0.0184 -0.2641
 7117W        W11168   4.543   8.841   2.171 -0.0459 -0.2546  0.0484
 7118W        W11169   1.703   9.117  11.390  0.1775  0.0916 -0.0117
 7119W        W11170   6.145   6.582   4.373 -0.1666 -0.1179 -0.2782
 7120W        W11171   1.699   2.654   1.829  0.1387 -0.2061  0.0909
 7121W        W11172   9.316   1.064   2.602 -0.1955  0.1031  0.1473
 7122W        W11173   5.992   2.860  10.416 -0.0980 -0.0402 -0.0085
 7123W        W11174   4.905   8.453   3.017 -0.0578 -0.0497  0.0965
 7124W        W11175   0.307   3.343  10.869  0.0589  0.1703  0.2146
 7125W        W11176   5.168   2.805  13.860  0.0676 -0.0663  0.0454
 7126W        W11177   2.585   3.766  11.348 -0.1030 -0.1438 -0.2264
 7127W        W11178   5.604   1.876  11.368  0.1563 -0.3301 -0.0390
 7128W        W11179   3.357   0.004   3.740 -0.1351  0.0363  0.0670
 7129W        W11180   0.047   3.121  12.610 -0.1764 -0.1024  0.1356
 7130W        W11181   3.375   5.503  10.182  0.1596  0.1124  0.0181
 7131W        W11182   5.040   8.517  11.390 -0.0930  0.3259 -0.0008
 7132W        W11183   9.763   7.221   2.249  0.1259  0.2008 -0.0545
 7133W        W11184   5.261   2.742   9.606 -0.1314  0.1152  0.1103
 7134W        W11185   0.645   0.233   4.054 -0.0454  0.2954 -0.0044
 7135W        W11186   4.493   1.802   0.955  0.2082 -0.0119  0.0821
 7136W        W11187   3.740   1.940  10.937  0.2040 -0.2863 -0.1547
 7137W        W11188   5.821   0.717  12.968 -0.0059 -0.2910 -0.1898
 7138W        W11189   0.293   5.971   9.414  0.0414  0.0981  0.1607
 7139W        W11190   2.399   2.531  10.965 -0.2748  0.1012 -0.0951
 7140W        W11191   0.838   1.057   1.384  0.0800 -0.0047 -0.1166
 7141W        W11192   7.367   0.153  12.681  0.2898  0.1804  0.2458
 7142W        W11193   4.440   8.637   4.942  0.3640  0.3722  0.0615
 7143W        W11194   8.819   3.245   1.901 -0.2139  0.0625  0.1659
 7144W        W11195   5.974   3.230  12.981 -0.2435 -0.0458  0.2315
 7145W        W11196   6.536   9.388   1.308  0.0223  0.1002  0.0132
 7146W        W11197   7.169   4.421   9.839 -0.5353 -0.0104  0.1137
 7147W        W11198   8.375   5.834   3.947 -0.3333 -0.2396  0.0966
 7148W        W11199   2.848   5.947  13.254  0.0010  0.1454 -0.2603
 7149W        W11200   0.502   2.526  12.060  0.2120 -0.1088  0.1897
 7150W        W11201   5.710   1.145   1.473  0.0582  0.0549  0.1698
 7151W        W11202   0.780   6.844  12.423  0.2420  0.0568  0.3110
 7152W        W11203   7.293  10.015  12.204 -0.0269 -0.1609 -0.1124
 7153W        W11204   1.702   1.348   9.331 -0.1145 -0.1268 -0.2144
 7154W        W11205   2.262   3.688   1.365  0.0859  0.1367  0.0920
 7155W        W11206   1.811   9.920   0.486 -0.0634  0.1920 -0.1031
 7156W        W11207   6.887   2.097  13.830  0.0405 -0.0213  0.1983
 7157W        W11208   3.467   9.644   3.540 -0.1928  0.1921 -0.1496
 7158W        W11209   7.562  10.171   0.843  0.2418 -0.2743 -0.0876
 7159W        W11210   5.766   1.488   2.967 -0.2800  0.0489  0.3386
 7160W        W11211   9.497   5.053  12.132 -0.2373  0.1952 -0.1206
 7161W        W11212   2.680   7.179   0.827 -0.0117 -0.3970 -0.0295
 7162W        W11213   4.645   9.758  10.251  0.0284  0.1488  0.1101
 7163W        W11214   4.194   3.960  11.527 -0.0306 -0.0462  0.2288
 7164W        W11215   5.745   2.511   4.441 -0.1206  0.1413  0.2413
 7165W        W11216   8.320   3.938   3.317  0.0199  0.1578  0.0959
 7166W        W11217   8.343   0.140  10.602 -0.1864 -0.0997  0.0103
 7167W        W11218   1.952   6.296   1.304 -0.1783 -0.2503 -0.0166
 7168W        W11219   8.853   0.978   2.499 -0.2234  0.0404  0.1403
 7169W        W11220   5.794   9.924   1.214 -0.1001 -0.1369 -0.0754
 7170W        W11221   1.810   5.071  13.934 -0.0689 -0.2806  0.1866
 7171W        W11222   4.520   0.363  10.555 -0.0129  0.0823 -0.2584
 7172W        W11223   3.096   5.211   3.599  0.1561 -0.2678 -0.1220
 7173W        W11224   5.475   9.188   3.391 -0.1572 -0.2224  0.0752
 7174W        W11225   0.719   6.040   3.795  0.1650  0.2930  0.0143
 7175W        W11226   5.510   7.992  13.698 -0.1610  0.3017 -0.3653
 7176W        W11227   2.181   1.283  10.501  0.0414  0.3322 -0.3569
 7177W        W11228   7.043   6.150  12.050 -0.2993  0.0677  0.0041
 7178W        W11229   2.885   6.332  10.239  0.4154  0.0734  0.2377
 7179W        W11230   7.750   4.086   1.637 -0.2303  0.0621  0.1884
 7180W        W11231   9.445   4.393  12.187 -0.0602 -0.1663  0.0085
 7181W        W11232   3.908   0.574   2.289 -0.1571 -0.0562  0.2116
 7182W        W11233   1.669   5.664   9.956 -0.0295 -0.2278  0.0358
 7183W        W11234   6.382   9.234  10.181  0.3889 -0.3054  0.0591
 7184W        W11235   7.890   9.797   1.695  0.0563 -0.2123 -0.0592
 7185W        W11236   3.765   6.901   3.008 -0.0735  0.1424 -0.2826
 7186W        W11237   4.885   3.962  11.387  0.1434 -0.0665 -0.0655
 7187W        W11238   5.247   1.238  11.257 -0.0456  0.0810 -0.1084
 7188W        W11239   3.994   4.935  13.778  0.2164  0.1316 -0.3530
 7189W        W11240   4.798   9.897   2.747  0.2376 -0.3067 -0.2628
 7190W        W11241   3.010   7.696  11.648  0.1426  0.0704 -0.1927
 7191W        W11242   5.468   2.010  12.741  0.2673 -0.2022 -0.2165
 7192W        W11243   8.358   2.059  13.861 -0.1428  0.3691 -0.0334
 7193W        W11244   1.995   5.923   2.223 -0.1487  0.2460  0.1007
 7194W        W11245   6.255   3.048   1.857 -0.0972 -0.1290 -0.2499
 7195W        W11246   9.570   8.387   2.420  0.0266  0.0823 -0.1699
 7196W        W11247   2.272   7.281   0.555 -0.1928 -0.1528  0.2087
 7197W        W11248   2.957   2.242   3.013 -0.1077  0.0589  0.1357
 7198W        W11249   0.605   3.516   4.080  0.2025  0.0796  0.1018
 7199W        W11250   1.490   4.721  13.005 -0.2241 -0.0149 -0.1374
 7200W        W11251   8.083   7.259   9.501 -0.0448  0.0420  0.2157
 7201W        W11252   3.569   5.515   4.302  0.2551  0.0711 -0.0657
 7202W        W11253   1.645   8.204  13.539  0.3730 -0.0354 -0.1738
 7203W        W11254   6.186   5.567   4.171 -0.0552 -0.2178 -0.1097
 7204W        W11255   7.351   3.028  12.044 -0.0498 -0.0522 -0.0452
 7205W        W11256   2.740   3.417  11.836  0.0218  0.2489  0.2891
 7206W        W11257   4.328   4.915  13.348 -0.2969  0.0693  0.2853
 7207W        W11258   7.893   1.603   3.636 -0.0461  0.1009 -0.3862
 7208W        W11259   2.914   9.958  10.735  0.3223  0.1178  0.0834
 7209W        W11260   7.391   8.600  11.609 -0.0867 -0.1306 -0.2838
 7210W        W11261   7.489   7.797  13.222  0.0248  0.0527  0.0216
 7211W        W11262   3.688   9.938   0.704 -0.1971 -0.4196 -0.2150
 7212W        W11263   8.635   1.412   2.488  0.2769 -0.0478 -0.3488
 7213W        W11264   4.799   9.967   1.640  0.0484  0.1720  0.0171
 7214W        W11265   6.446   8.765  11.803  0.1009  0.0910  0.0654
 7215W        W11266   8.297   8.754  13.024  0.0927 -0.2723 -0.2514
 7216W        W11267  10.099   6.583   1.678  0.1707  0.4376 -0.3691
 7217W        W11268   8.379   0.592   2.663 -0.1733  0.2386 -0.0607
 7218W        W11269   0.637   4.720   3.896 -0.0367 -0.0542 -0.0791
 7219W        W11270   5.825   3.983   0.324 -0.2305 -0.0765 -0.0176
 7220W        W11271   6.236   5.086  10.808 -0.1741 -0.1072 -0.2179
 7221W        W11272   1.506   8.487   2.330 -0.1083  0.1650 -0.2032
 7222W        W11273   9.451   0.535  12.511 -0.0951 -0.1188 -0.1898
 7223W        W11274   3.022   2.217  13.218 -0.1153  0.0847 -0.0864
 7224W        W11275   8.545   6.395   4.565  0.0048 -0.3464 -0.3565
 7225W        W11276   8.681   7.172   3.496  0.2965  0.0246  0.1083
 7226W        W11277   9.259   4.435   9.225 -0.0677 -0.3463 -0.0271
 7227W        W11278   9.678   2.669   0.339  0.1993  0.3759 -0.1985
 7228W        W11279   0.205   3.206   4.345 -0.2745 -0.3767  0.0749
 7229W        W11280   7.359   1.540   4.280  0.0851  0.0027 -0.1975
 7230W        W11281   1.000   0.325  12.686  0.1325  0.0372  0.4352
 7231W        W11282   4.212   0.498   9.316  0.1150  0.1690  0.0012
 7232W        W11283   4.029   9.043  12.727 -0.1833 -0.1490  0.0024
 7233W        W11284   6.364   1.939   4.448 -0.3459 -0.1481 -0.0155
 7234W        W11285   5.865   3.222   3.720  0.0292  0.2359 -0.1429
 7235W        W11286   3.491   5.380   2.585 -0.0727  0.0304 -0.0961
 7236W        W11287   0.126   7.001  11.579  0.1709 -0.1291 -0.0439
 7237W        W11288   8.858   6.983   1.865  0.1277  0.0138 -0.3649
 7238W        W11289  10.182   8.781   4.083  0.0167 -0.1076  0.0151
 7239W        W11290   8.250   7.266   1.288 -0.2348 -0.2333 -0.0738
 7240W        W11291   8.938   3.984  10.436 -0.0131  0.2429 -0.2982
 7241W        W11292   1.848   8.175   1.095  0.0075 -0.4100  0.3190
 7242W        W11293  10.144   5.831  13.904  0.0293 -0.3813  0.3599
 7243W        W11294   0.640   5.475   3.668  0.0958  0.1368  0.1519
 7244W        W11295   6.836   6.109   0.924  0.0709  0.1740 -0.0972
 7245W        W11296   5.546   8.919  13.319 -0.4333  0.0611 -0.2361
 7246W        W11297   3.509   5.859   2.524  0.2031  0.2324  0.1716
 7247W        W11298   5.719   5.489   2.057  0.1226  0.0312  0.4185
 7248W        W11299   2.559   5.589   4.903 -0.0134  0.2092 -0.2124
 7249W        W11300   7.906   6.661   2.447  0.0840 -0.0071 -0.0186
 7250W        W11301   5.637   7.653   0.312  0.0398 -0.0833 -0.2862
 7251W        W11302   5.203   1.020   2.298  0.2936 -0.1287 -0.0137
 7252W        W11303   2.471   6.611  10.088  0.0544 -0.0190  0.0386
 7253W        W11304   0.722   5.786   2.377 -0.0942  0.0215 -0.2991
 7254W        W11305   3.276  10.134  11.046  0.0258 -0.0907 -0.1121
 7255W        W11306   7.660   4.871   4.399  0.2951 -0.2916  0.0190
 7256W        W11307   7.410   7.248   3.163  0.0197  0.0970 -0.2846
 7257W        W11308   1.655   0.538  10.360  0.0179  0.0467 -0.3139
 7258W        W11309   6.750   7.024  13.067 -0.0010 -0.0720 -0.0610
 7259W        W11310   6.664   6.492  11.967  0.0968 -0.0726 -0.3255
 7260W        W11311   6.175   8.454   9.901 -0.1224 -0.2682 -0.0272
 7261W        W11312   5.386   2.493   3.314 -0.0498 -0.0530 -0.1653
 7262W        W11313   5.755   9.095   9.583 -0.0556 -0.0671  0.0480
 7263W        W11314   6.052   9.619   1.477 -0.0779  0.3162  0.2381
 7264W        W11315   2.095   5.834  13.423  0.0371  0.0367 -0.1726
 7265W        W11316   8.396   3.100   1.616 -0.0942 -0.0178  0.2786
 7266W        W11317   2.001   7.061   9.346 -0.1146 -0.1407 -0.1116
 7267W        W11318   9.003   3.972   1.466 -0.1230  0.2756  0.4759
 7268W        W11319   7.335   3.949   9.811  0.1090  0.2516 -0.1905
 7269W        W11320   8.135   0.468  10.979  0.0635 -0.0951  0.1907
 7270W        W11321   3.477   2.324   3.766  0.1838  0.0634  0.2780
 7271W        W11322   4.389   3.055   5.198 -0.2252 -0.0207 -0.0871
 7272W        W11323   5.928   2.253  10.611 -0.0568  0.0629 -0.2412
 7273W        W11324   3.688   3.221   0.799 -0.0023 -0.2064 -0.1100
 7274W        W11325   8.566   9.977   0.824  0.2310 -0.1550  0.2049
 7275W        W11326   9.132   2.792  10.790 -0.1492 -0.2467 -0.2755
 7276W        W11327   6.044   8.643   9.465 -0.0723 -0.0165 -0.0364
 7277W        W11328   4.178   6.447  13.063  0.0264 -0.1694  0.0475
 7278W        W11329   2.280   4.877   1.985  0.0378 -0.0839  0.0424
 7279W        W11330   3.316   9.629  10.981  0.2255  0.0903 -0.0083
 7280W        W11331   6.935   6.467  12.435  0.1503 -0.1485  0.0120
 7281W        W11332   6.907   6.213   4.976  0.1723  0.2171 -0.0272
 7282W        W11333   1.596   1.470  12.497  0.2587 -0.0387 -0.2202
 7283W        W11334   5.995   9.549  12.638  0.2896 -0.0321 -0.1259
 7284W        W11335   5.200   5.289  12.067 -0.1508  0.2746  0.1718
 7285W        W11336   0.746   8.670  13.895 -0.1080  0.0692  0.0877
 7286W        W11337   5.947   9.525   9.868 -0.1140 -0.1969  0.0301
 7287W        W11338   2.066   0.672   4.506 -0.0651  0.1136  0.0441
 7288W        W11339   8.347   4.850  11.775 -0.1457  0.0253  0.1042
 7289W        W11340   3.381   7.910  10.067  0.1482 -0.0543 -0.0719
 7290W        W11341   8.607   2.149  12.792  0.1556 -0.0438  0.1097
 7291W        W11342   1.593   4.137   9.550  0.0398 -0.0441 -0.1293
 7292W        W11343   9.890   9.975  13.647 -0.0815 -0.2295  0.0237
 7293W        W11344   5.025   9.912  12.790  0.1384 -0.0059  0.0930
 7294W        W11345   0.802   9.850  11.273 -0.2644  0.1045 -0.0347
 7295W        W11346   2.567   5.959   4.009  0.1432 -0.0961  0.0319
 7296W        W11347   5.469   7.664   2.491  0.2154 -0.2900 -0.3963
 7297W        W11348   2.827   9.425  11.345  0.1276  0.1512 -0.4073
 7298W        W11349   0.276   8.626  11.170  0.0648 -0.0609 -0.4423
 7299W        W11350   0.935   7.950   0.718 -0.1830  0.0153  0.0519
 7300W        W11351   5.592   8.392   1.369  0.3125  0.0854  0.4047
 7301W        W11352   4.531   3.118   0.996 -0.1895  0.2148  0.0004
 7302W        W11353   1.678   8.766   4.314 -0.2771  0.1662 -0.1601
 7303W        W11354   2.045   0.328   1.209  0.4133 -0.1095  0.2024
 7304W        W11355   2.582   5.222  11.466 -0.0771 -0.1025  0.0335
 7305W        W11356   0.226   5.318   0.832 -0.2297  0.1652 -0.3161
 7306W        W11357   2.830   6.314   2.252  0.0334  0.3411  0.1983
 7307W        W11358   5.585  10.016   9.363 -0.1308 -0.0042 -0.0566
 7308W        W11359   8.884   6.449  10.837  0.0431  0.0687 -0.0333
 7309W        W11360   0.828   2.970   0.268  0.0467 -0.0720  0.0046
 7310W        W11361   9.072   7.599  11.065 -0.0302  0.0740  0.0265
 7311W        W11362   3.122   8.882   1.348 -0.1849 -0.1202  0.2351
 7312W        W11363   4.173   0.709  10.358 -0.1434 -0.2502  0.1363
 7313W        W11364   6.050   5.945  12.353 -0.0629  0.1021 -0.0609
 7314W        W11365   2.829   2.897   9.417  0.0542  0.3756 -0.0722
 7315W        W11366   9.338   8.757   1.821  0.0877  0.1187 -0.1071
 7316W        W11367   4.786   6.452   0.907  0.0591  0.1240 -0.1779
 7317W        W11368   9.503   6.988   0.955 -0.0199 -0.0020 -0.2643
 7318W        W11369   4.624   2.022  12.156 -0.1334 -0.2095 -0.0889
 7319W        W11370   3.334   1.182   4.579  0.0452  0.2665  0.2371
 7320W        W11371   7.584   3.311   3.671 -0.1321  0.2645 -0.2536
 7321W        W11372   7.169   7.166   2.743  0.3628  0.2506 -0.0047
 7322W        W11373   5.105   0.658   1.002 -0.0336 -0.2415  0.0708
 7323W        W11374   1.883   8.728  11.674 -0.0066  0.0263  0.1236
 7324W        W11375   0.079   7.314   2.978  0.0770  0.2569 -0.0977
 7325W        W11376   6.150   4.609   2.675 -0.1516  0.0816 -0.0084
 7326W        W11377   5.311   8.439   2.655 -0.1406  0.2005  0.0873
 7327W        W11378   3.435   7.326   2.444  0.1265 -0.4126 -0.1014
 7328W        W11379   4.842   1.827  13.348  0.3610  0.1566 -0.1290
 7329W        W11380   4.219   6.240   3.959  0.1237  0.0159  0.1102
 7330W        W11381   7.538   6.589  12.744 -0.2199 -0.2344 -0.3113
 7331W        W11382   9.942   8.097  12.061  0.1020  0.2222  0.0156
 7332W        W11383   8.521   1.329   3.128  0.1092 -0.1099  0.2573
 7333W        W11384   4.366   4.900   3.343  0.0713  0.0117 -0.0014
 7334W        W11385   4.984   5.336  10.673  0.3155  0.2058 -0.1657
 7335W        W11386   6.407   5.892  13.655 -0.1081  0.0390  0.1336
 7336W        W11387   5.659   7.855   1.193 -0.1808 -0.2689  0.0967
 7337W        W11388   6.579   7.283   2.107 -0.0785 -0.3019 -0.1383
 7338W        W11389   2.236   7.166   2.969 -0.1316 -0.0244 -0.3497
 7339W        W11390   4.247   7.344   3.329 -0.0298  0.2385 -0.1104
 7340W        W11391   4.329   9.962   4.137 -0.1332  0.3082 -0.2697
 7341W        W11392   2.783   6.547   4.041  0.0996 -0.0681  0.0465
 7342W        W11393   2.594   9.637   4.762 -0.1387  0.0881  0.0661
 7343W        W11394   4.601   2.727   0.612 -0.1129  0.1459  0.2656
 7344W        W11395   6.777   8.608   3.220  0.0085 -0.0362 -0.0490
 7345W        W11396   8.285   1.614   2.735  0.3370  0.0914 -0.1747
 7346W        W11397   9.212   1.852   0.391  0.2224 -0.3266 -0.1329
 7347W        W11398   5.645   2.968  13.354  0.1315 -0.0498  0.7107
 7348W        W11399   9.749   5.371   1.251  0.1312 -0.2171  0.0983
 7349W        W11400   0.922   6.055   9.520  0.0073 -0.1057  0.2912
 7350W        W11401   4.183   4.082  12.689 -0.0865 -0.0973  0.1027
 7351W        W11402   5.125   4.111   5.340 -0.1524  0.1167  0.1706
 7352W        W11403   7.372  10.115  13.784  0.2792 -0.0739  0.0122
 7353W        W11404   9.459   4.015   1.243  0.0975 -0.2034 -0.1912
 7354W        W11405   7.015   7.817  13.422 -0.0278 -0.0483 -0.1483
 7355W        W11406   0.592   8.053   1.703 -0.2911  0.2294  0.3194
 7356W        W11407   9.430   2.816  12.281 -0.1074 -0.2014 -0.2362
 7357W        W11408   4.216   3.819   3.168 -0.2090  0.4343 -0.1277
 7358W        W11409   3.953   3.559   4.665 -0.3511 -0.0617  0.0682
 7359W        W11410   9.214   3.069  11.220 -0.1018 -0.1826 -0.3289
 7360W        W11411   2.808   6.307   1.735 -0.2367 -0.2663 -0.2564
 7361W        W11412   2.164   4.457   8.797 -0.1658  0.0643  0.0532
 7362W        W11413   6.080   7.465  13.211 -0.0556  0.1646 -0.1794
 7363W        W11414   8.814   4.714  10.973  0.0273  0.0456 -0.0941
 7364W        W11415   0.271   7.161   0.900 -0.3198  0.0450  0.5707
 7365W        W11416   5.819   4.661   3.697 -0.1497  0.1495  0.1140
 7366W        W11417   0.935   2.810   3.694 -0.1735 -0.0892  0.0707
 7367W        W11418   7.150   3.985  12.249 -0.0059  0.0084  0.0211
 7368W        W11419   3.117   9.861   4.511 -0.1775 -0.1130 -0.0366
 7369W        W11420   2.591   6.519   5.403  0.2480  0.0248 -0.3181
 7370W        W11421   2.652   1.097   0.921  0.1026  0.1580  0.1869
 7371W        W11422   1.678   0.161   0.212 -0.1495 -0.3949  0.1240
 7372W        W11423   5.006   7.312  12.611 -0.1862 -0.0118 -0.2674
 7373W        W11424   2.054   9.106  10.082 -0.4393 -0.0226 -0.3018
 7374W        W11425   6.568   9.527   4.440  0.4294 -0.4191  0.0686
 7375W        W11426  10.083   8.138   1.058  0.0901 -0.1065  0.0704
 7376W        W11427   7.624   3.243  12.988  0.1487  0.2161  0.5343
 7377W        W11428   4.255   5.157  10.141  0.1233 -0.1893 -0.2118
 7378W        W11429   7.461   1.066  13.567 -0.0307 -0.0988  0.0941
 7379W        W11430   2.335   7.078   9.933 -0.1165  0.1066  0.0252
 7380W        W11431   9.237   7.843  13.306 -0.1068  0.0445 -0.0223
 7381W        W11432   9.067   5.815  13.070  0.1525  0.0756 -0.1103
 7382W        W11433   2.735   5.181   9.047  0.1538  0.1174 -0.2519
 7383W        W11434   2.120   0.382  10.365 -0.1006  0.1723  0.1229
 7384W        W11435   5.103   4.806  13.881  0.1102  0.0615 -0.2965
 7385W        W11436   0.978   7.413   4.421 -0.2422  0.0682  0.1213
 7386W        W11437   2.979   0.101   2.203  0.3058 -0.4713 -0.2680
 7387W        W11438   7.298   4.909  10.685 -0.0020  0.1128 -0.0403
 7388W        W11439   6.148   6.313  12.049 -0.4008 -0.5275 -0.0562
 7389W        W11440   8.187  10.155   2.623 -0.1960 -0.3404 -0.0889
 7390W        W11441   8.398   6.791   1.428  0.2125 -0.0409 -0.0178
 7391W        W11442   8.693   9.007   3.972  0.0338  0.1977 -0.0489
 7392W        W11443   0.294   5.240   3.882 -0.0136  0.1623 -0.0257
 7393W        W11444   6.707   5.563   0.083  0.1080  0.0558 -0.0695
 7394W        W11445   6.322   8.408  13.599 -0.0084 -0.0363  0.0630
 7395W        W11446   0.211   3.540   0.865 -0.1544  0.0571  0.2153
 7396W        W11447   9.011   5.906   2.122  0.0007  0.0008 -0.2028
 7397W        W11448   4.575   5.986  11.007  0.0721 -0.0692  0.1080
 7398W        W11449   4.982   4.744   1.964 -0.0045  0.2657 -0.0139
 7399W        W11450   3.202   9.246  10.493  0.3540  0.0788  0.2531
 7400W        W11451   3.874   5.677   5.141  0.0968 -0.1846 -0.0966
 7401W        W11452   6.350   0.483   9.293  0.3085  0.3455  0.0459
 7402W        W11453   1.516   5.603   1.860  0.0434  0.3575  0.0058
 7403W        W11454   3.435   1.647   4.468 -0.0841  0.2393  0.1431
 7404W        W11455   5.959   7.824  10.561  0.3849 -0.0189  0.1784
 7405W        W11456   8.203   5.777  12.954 -0.0824 -0.1332 -0.1750
 7406W        W11457   4.075   1.354  12.883 -0.2559 -0.0271  0.2638
 7407W        W11458   2.242   9.349   1.703  0.1844  0.2685 -0.0189
 7408W        W11459   9.746   7.346   4.058  0.1114  0.1950 -0.1718
 7409W        W11460   9.637   9.423   3.567 -0.2734  0.0651  0.1351
 7410W        W11461   3.232   4.088   8.590 -0.1212  0.0415 -0.2693
 7411W        W11462   6.653   4.383   2.534  0.1200 -0.0864 -0.1607
 7412W        W11463   6.876   2.546   2.207  0.0100 -0.2880  0.0659
 7413W        W11464   9.925   9.865   3.570  0.2275  0.0448  0.2811
 7414W        W11465   9.860   4.044  10.410  0.0435  0.1808  0.2998
 7415W        W11466   4.344   8.616   9.769 -0.1039 -0.2406  0.0428
 7416W        W11467   9.316   5.200   9.455  0.0529 -0.3335 -0.0608
 7417W        W11468   9.078   0.441  10.088 -0.0184  0.2456  0.0982
 7418W        W11469   3.563  10.171  13.408  0.0227  0.0164  0.1138
 7419W        W11470   6.736   8.987  11.364  0.1638  0.0604  0.0392
 7420W        W11471   0.770   2.737  12.490 -0.2110  0.1545  0.3164
 7421W        W11472   8.765   9.952  13.881  0.0501 -0.2495  0.1075
 7422W        W11473   6.482   3.859   3.191 -0.1746 -0.1255 -0.0199
 7423W        W11474   5.216   5.503  11.642  0.0828  0.1516  0.0657
 7424W        W11475   9.304   8.382  13.923 -0.1420  0.0790  0.1362
 7425W        W11476   4.548   2.432   4.421  0.1216  0.2921  0.0470
 7426W        W11477   3.105   1.591  12.601 -0.0772  0.1863 -0.0030
 7427W        W11478   1.786   3.207   4.323  0.0234 -0.1832 -0.0526
 7428W        W11479   2.936   7.320   2.536 -0.2010  0.2962 -0.2213
 7429W        W11480   2.844   9.401  10.843  0.2102 -0.3150 -0.1842
 7430W        W11481   1.795   9.392   3.318 -0.0540 -0.3149 -0.1366
 7431W        W11482   2.588   3.792   2.693  0.1522 -0.2609 -0.0207
 7432W        W11483   7.662   3.529  10.010 -0.1652 -0.0744 -0.0177
 7433W        W11484   2.397   0.218   0.774  0.1340 -0.0975 -0.0512
 7434W        W11485   6.377   7.105  10.662 -0.0122  0.3349  0.0103
 7435W        W11486   2.852   4.281  10.087 -0.1314  0.2937  0.1311
 7436W        W11487   3.977   7.687   5.225  0.0430  0.1482  0.0684
 7437W        W11488   2.283   6.895  10.439  0.1578  0.1759  0.0388
 7438W        W11489   4.577   3.156  13.745  0.0291 -0.0917  0.0504
 7439W        W11490   9.085   1.454  13.476 -0.0286 -0.4594 -0.2604
 7440W        W11491   0.002   6.742   9.747 -0.2103  0.3790 -0.1199
 7441W        W11492   1.440   8.984   1.413  0.1011  0.1001 -0.0260
 7442W        W11493   1.927   2.361   8.601  0.0976 -0.2197  0.0830
 7443W        W11494   1.993   6.256   3.428  0.3527  0.1830  0.0584
 7444W        W11495   5.308   7.092   2.447 -0.1478 -0.0749  0.2059
 7445W        W11496   3.446  10.137   2.416  0.0983  0.0340  0.0904
 7446W        W11497   4.667   1.517  13.699  0.1991  0.1575 -0.1619
 7447W        W11498   7.564   6.376   2.283 -0.1976 -0.1095  0.2092
 7448W        W11499   1.655   4.234  13.772 -0.1070  0.0224 -0.3037
 7449W        W11500   3.443   3.377  12.414  0.2123 -0.0160  0.0827
 7450W        W11501   1.863   0.324   0.705  0.1231  0.1570 -0.0063
 7451W        W11502   6.974   6.744   0.455  0.2448 -0.0766  0.0668
 7452W        W11503   1.686   1.305   2.795 -0.2331  0.0770  0.0285
 7453W        W11504   2.827   0.693   9.308  0.1696 -0.3303  0.1306
 7454W        W11505   3.472   7.923  10.682  0.1040  0.0610  0.2874
 7455W        W11506   2.214   4.609  11.275  0.0731  0.2466 -0.0546
 7456W        W11507  10.121   6.471   1.082 -0.0502  0.2436 -0.1752
 7457W        W11508   2.591   4.159   8.673 -0.1048  0.0701  0.2634
 7458W        W11509   2.821   8.947   2.697  0.0555 -0.1009  0.2065
 7459W        W11510   5.969   8.564   0.025  0.0408  0.0656  0.2379
 7460W        W11511   8.072   9.189  10.841 -0.0425  0.0228 -0.0402
 7461W        W11512   6.224   1.973   3.703 -0.2789  0.3528  0.1236
 7462W        W11513   5.689   9.923   2.167 -0.2642  0.4402 -0.2383
 7463W        W11514   9.840   7.670  13.775 -0.3326 -0.2901  0.0892
 7464W        W11515   8.211   1.830   0.406  0.1588  0.0380  0.0174
 7465W        W11516   3.873   4.864  10.732 -0.1671  0.0278  0.1927
 7466W        W11517   9.947   4.626   0.146 -0.0600  0.0950  0.0774
 7467W        W11518   8.555   3.756   0.560  0.2391 -0.1525  0.1430
 7468W        W11519   4.423   9.756   8.955  0.2392 -0.2173  0.0258
 7469W        W11520   1.936   1.989  13.232  0.2026 -0.1069  0.3205
 7470W        W11521   9.556   2.171   3.193  0.0316  0.1826  0.1769
 7471W        W11522   6.189   8.164   1.861  0.0567  0.0959 -0.2057
 7472W        W11523   6.456   6.829   3.442 -0.2183 -0.2286 -0.0997
 7473W        W11524   4.062   5.992  10.151 -0.3102  0.3216 -0.0019
 7474W        W11525   5.433   9.209   9.175  0.1202  0.1350 -0.0569
 7475W        W11526  10.072   3.187  10.622 -0.0720 -0.1913  0.1203
 7476W        W11527   1.351   4.634   1.134 -0.2898  0.1959 -0.1321
 7477W        W11528   0.603   8.166   3.542  0.1442 -0.1989 -0.0530
 7478W        W11529   3.946   7.056   2.165 -0.1745  0.1799 -0.0437
 7479W        W11530   3.660   7.392  12.871  0.0628 -0.0514 -0.0633
 7480W        W11531   3.824   4.654  11.166 -0.1040  0.2040  0.2526
 7481W        W11532   4.834   1.574   3.959  0.3310 -0.0120 -0.1317
 7482W        W11533   4.772   4.480   2.860  0.0127 -0.1192 -0.1226
 7483W        W11534   4.787   2.755   1.817 -0.3119  0.0920  0.0030
 7484W        W11535   5.772   3.782  10.389 -0.0771  0.1852  0.0150
 7485W        W11536   5.218   8.040  11.336  0.0111 -0.2811 -0.2578
 7486W        W11537   9.732   3.200   1.120  0.0882 -0.2324  0.3344
 7487W        W11538  10.141   7.494  11.522 -0.0207  0.2383 -0.1524
 7488W        W11539   5.578   7.515  10.734  0.1793  0.0629  0.1133
 7489W        W11540   4.199  10.177   5.421  0.1010  0.5027  0.0799
 7490W        W11541   9.137   5.460   2.490  0.1629 -0.1568  0.5205
 7491W        W11542   9.129   8.882  13.383  0.1014 -0.3207 -0.2479
 7492W        W11543   9.017   6.830   2.354 -0.1004 -0.1458 -0.1631
 7493W        W11544   2.885   4.588   4.703  0.0452 -0.1359  0.4201
 7494W        W11545   1.561   3.105   1.578  0.1008  0.0154 -0.0452
 7495W        W11546   7.903   5.148   4.029 -0.0685 -0.2204 -0.0912
 7496W        W11547   6.519   5.964   4.073  0.1431 -0.2590  0.0291
 7497W        W11548   3.387   7.273   1.588 -0.3172  0.3003 -0.1090
 7498W        W11549   3.773   0.781  12.345 -0.1020 -0.1730  0.0079
 7499W        W11550   5.157   5.721   4.669  0.2396  0.2905 -0.0124
 7500W        W11551   7.280   9.109   3.922  0.3552 -0.1157 -0.0216
 7501W        W11552   2.288   9.413  12.252 -0.5234  0.0322 -0.3060
 7502W        W11553   7.748   5.820   9.787 -0.0538  0.1236 -0.2842
 7503W        W11554   4.385   0.152   4.926 -0.1125 -0.3413  0.0105
 7504W        W11555   0.124   7.370   9.306  0.0961  0.1861  0.1219
 7505W        W11556   3.714   3.635   1.076  0.0222 -0.3922 -0.2639
 7506W        W11557   5.574   9.561   0.479 -0.0442  0.3258 -0.0258
 7507W        W11558   2.137   4.743   8.404 -0.1148  0.1230  0.0212
 7508W        W11559   2.459   8.589   4.300  0.0208  0.2375 -0.2399
 7509W        W11560   9.120   5.171   9.954 -0.2618  0.3524 -0.0668
 7510W        W11561   5.764   3.822   2.885  0.1313 -0.2497  0.0600
 7511W        W11562   4.548   4.496  10.478 -0.0696 -0.1709  0.3322
 7512W        W11563   6.899   5.418  12.905  0.1396  0.4464 -0.3651
 7513W        W11564   2.003   5.796  12.367  0.0027 -0.0414  0.1140
 7514W        W11565   8.921   8.991  10.911 -0.1613 -0.0633 -0.4415
 7515W        W11566   4.274   8.514   4.176 -0.0986 -0.4698  0.0463
 7516W        W11567   8.609   5.307   2.683  0.0114 -0.1279 -0.1330
 7517W        W11568   3.526   5.688  11.911 -0.0238 -0.0219  0.2067
 7518W        W11569   5.660   9.816   1.711 -0.2334 -0.2497  0.0792
 7519W        W11570   8.363   4.793   0.371 -0.0608 -0.2811  0.0690
 7520W        W11571   5.179   0.197   2.705  0.1097  0.0997  0.0671
 7521W        W11572   1.522   6.248  13.275 -0.3648 -0.1034 -0.1387
 7522W        W11573   0.648   3.954  12.908  0.0302  0.0595 -0.0400
 7523W        W11574   8.521   0.015  13.515 -0.0061  0.3097 -0.0028
 7524W        W11575   1.700   1.035  10.466 -0.1227  0.0927  0.1506
 7525W        W11576   7.943   7.401   3.002  0.0289 -0.1331  0.0254
 7526W        W11577  10.145   2.537  13.564  0.1486 -0.2247 -0.2121
 7527W        W11578   2.232   8.969  12.888  0.0231  0.2579  0.0889
 7528W        W11579   5.784   2.043   2.933  0.2280  0.1151 -0.2966
 7529W        W11580   5.134   0.627   4.748 -0.0853 -0.0381 -0.0473
 7530W        W11581   5.271   9.698   1.402  0.0292 -0.2481  0.0369
 7531W        W11582   2.716   9.025  12.054 -0.1114 -0.0479 -0.2623
 7532W        W11583   8.478   9.390  11.642 -0.0857  0.0105  0.1294
 7533W        W11584   1.943   0.617  12.464 -0.0941 -0.0726 -0.3219
 7534W        W11585   9.040   4.077   4.198 -0.3534 -0.1302 -0.0233
 7535W        W11586   5.207   4.428   3.161 -0.3328 -0.1542  0.2501
 7536W        W11587   0.880   5.119   0.096 -0.2328  0.0937  0.0708
 7537W        W11588   8.821   2.814   0.795 -0.3263 -0.2350  0.0147
 7538W        W11589   4.834   2.126   0.215 -0.1776  0.0514 -0.0816
 7539W        W11590   0.744   7.719   9.152  0.0990 -0.1118  0.1029
 7540W        W11591   3.707   3.843   3.251  0.2619  0.0636  0.0162
 7541W        W11592   7.522   7.301  13.344  0.1778 -0.0991 -0.0038
 7542W        W11593   1.142   8.331  12.024 -0.0642 -0.1516  0.0109
 7543W        W11594   5.381   1.667   2.717  0.3103 -0.0964 -0.2764
 7544W        W11595   2.347   5.891  13.015 -0.1178  0.0885 -0.0217
 7545W        W11596   5.591   6.896   4.330  0.2017  0.0682 -0.0193
 7546W        W11597   3.957   5.062   3.727  0.1819  0.0201  0.5918
 7547W        W11598   9.082   9.337  11.742 -0.0293  0.3422 -0.0795
 7548W        W11599   3.023   8.826  12.456  0.1162  0.0840 -0.0839
 7549W        W11600   3.978   3.816  10.503  0.0004 -0.1547 -0.4656
 7550W        W11601   2.143   2.449  11.510 -0.1216 -0.0134 -0.2530
 7551W        W11602   8.687   5.727   1.132 -0.1075  0.0101  0.0490
 7552W        W11603   5.224   1.507  13.293  0.0013 -0.0671 -0.0028
 7553W        W11604   8.360   5.161   0.021 -0.0216 -0.4302 -0.1916
 7554W        W11605   0.913   7.496  11.719  0.0661  0.1169 -0.0835
 7555W        W11606   6.922  10.027  11.342  0.1025 -0.1753  0.0381
 7556W        W11607   7.748   9.186  13.021 -0.3391 -0.0306  0.2249
 7557W        W11608   7.918   0.248   1.804  0.2809  0.3222  0.4480
 7558W        W11609   2.093   7.561   1.658  0.1019  0.2973 -0.3101
 7559W        W11610   5.694   6.387   3.146  0.0130  0.3052  0.0174
 7560W        W11611   7.306   7.234   1.492 -0.1530  0.2785 -0.1610
 7561W        W11612   3.392   1.122   9.711  0.1063 -0.1903 -0.1049
 7562W        W11613   6.267   5.426   0.279 -0.2951 -0.1374 -0.2646
 7563W        W11614   1.908   5.944   4.477  0.1505  0.0961  0.1645
 7564W        W11615   2.282   9.179  10.529 -0.1815 -0.1510  0.2035
 7565W        W11616   0.839   7.203   5.312 -0.3167 -0.1153  0.0040
 7566W        W11617   6.373   6.839   2.187 -0.2393  0.1023  0.1065
 7567W        W11618   3.772   0.301   3.564 -0.0037  0.5083 -0.0421
 7568W        W11619   9.830   7.748   9.272 -0.2646 -0.1641 -0.0462
 7569W        W11620   5.450   3.153  10.071 -0.0177 -0.1327  0.0593
 7570W        W11621   8.101   9.074   3.676 -0.1735  0.0765 -0.3412
 7571W        W11622   7.755   3.683   4.543  0.0342  0.1187 -0.3086
 7572W        W11623   5.195   5.060   9.071  0.2176  0.0956  0.2768
 7573W        W11624   7.285   8.799   9.982 -0.2102  0.0465 -0.0203
 7574W        W11625   7.421   5.405   4.219 -0.0939  0.0860  0.2702
 7575W        W11626   7.854   7.331   9.995 -0.0014  0.1307 -0.0820
 7576W        W11627   2.509   1.698  11.254 -0.3200 -0.0493  0.0710
 7577W        W11628   6.786   0.089  11.775 -0.0315 -0.0536  0.0318
 7578W        W11629   9.717   6.857   0.103 -0.0004 -0.0826 -0.0218
 7579W        W11630   3.434   8.651   3.612 -0.0679  0.0262  0.0585
 7580W        W11631   6.898   1.293  10.180  0.1899  0.3042  0.0722
 7581W        W11632   1.432   4.435   3.444 -0.1215  0.0019  0.3082
 7582W        W11633   2.943   3.662  10.599  0.0870 -0.0654  0.0070
 7583W        W11634   6.367   4.988  12.553 -0.3008  0.0133  0.3971
 7584W        W11635   3.476   6.654  10.219 -0.3362  0.3393  0.0804
 7585W        W11636   7.892   7.209  11.319 -0.3973 -0.0899 -0.1773
 7586W        W11637   8.209   6.419   1.766 -0.0509  0.0824  0.1534
 7587W        W11638   7.542   3.700   0.726 -0.0923  0.0555 -0.0381
 7588W        W11639   0.426   0.280   2.891 -0.1036  0.2734  0.2679
 7589W        W11640   3.903   9.403  11.419  0.0925 -0.3568  0.0018
 7590W        W11641   3.825   1.408   4.948  0.1644  0.0346  0.2006
 7591W        W11642   6.465   4.770  13.717 -0.0681 -0.0109  0.0607
 7592W        W11643   8.212   9.251  12.910  0.0127  0.0808 -0.0818
 7593W        W11644   8.758   1.773   2.824  0.2383  0.1390 -0.2032
 7594W        W11645   4.080   5.394   1.179 -0.3525 -0.0145  0.0609
 7595W        W11646   3.414   5.939  12.795  0.0688 -0.3590 -0.0435
 7596W        W11647   0.082   4.031  12.485 -0.2001  0.0728  0.0923
 7597W        W11648   3.307   3.934   1.458 -0.2494  0.0284  0.0031
 7598W        W11649   1.540   3.379  10.950  0.0548 -0.3060 -0.0447
 7599W        W11650   3.886   1.037   1.918 -0.2476  0.0317 -0.0986
 7600W        W11651   6.741   5.964   1.402 -0.4973 -0.3452  0.0052
 7601W        W11652   6.734   8.866  12.351  0.2923 -0.0150 -0.3181
 7602W        W11653   3.337   0.009  10.578  0.0892 -0.3454  0.0260
 7603W        W11654   0.078   0.306   3.946  0.3459 -0.1119  0.2080
 7604W        W11655   3.171   6.434  10.658 -0.0732  0.0491  0.0999
 7605W        W11656   8.656   2.657  12.879 -0.1764  0.0310 -0.2327
 7606W        W11657   3.747   7.725   9.669  0.0659  0.2439  0.1301
 7607W        W11658   2.450   1.113  11.996 -0.1311  0.0585 -0.1126
 7608W        W11659   9.554   5.834  10.347 -0.0629  0.2076  0.0121
 7609W        W11660   1.849   4.075   1.632 -0.0293  0.1212 -0.1331
 7610W        W11661   3.550   2.993  13.347  0.1990  0.0259 -0.0303
 7611W        W11662   6.679   1.975   2.951  0.0280  0.1538  0.1865
 7612W        W11663   4.398   2.027   3.634 -0.0717  0.0446 -0.0987
 7613W        W11664   8.359   9.538   0.582 -0.0509  0.1163 -0.0970
 7614W        W11665   2.199   6.718  12.457 -0.0930  0.2842  0.2663
 7615W        W11666   6.517   9.237   2.745  0.1778 -0.1377  0.0612
 7616W        W11667   2.966   7.064   3.356  0.1462  0.0643 -0.1795
 7617W        W11668   1.700   9.453   1.373  0.0190 -0.1106  0.1377
 7618W        W11669   2.982   8.128  11.302 -0.1037 -0.0150 -0.3322
 7619W        W11670   7.328   5.791  13.471 -0.0393  0.1975  0.3277
 7620W        W11671  10.017   2.305   0.574  0.1600  0.0720  0.0670
 7621W        W11672   0.882   7.872   9.755 -0.0842  0.0282 -0.1734
 7622W        W11673   9.041   9.628  12.835 -0.0895 -0.1140 -0.0520
 7623W        W11674   3.962   8.567   4.752 -0.1097  0.0391  0.1640
 7624W        W11675   7.297   5.857  10.573 -0.1600  0.0465  0.0390
 7625W        W11676   3.501   3.215   2.882 -0.1396  0.3092  0.0172
 7626W        W11677   3.106  10.165   8.789  0.1241  0.1620 -0.4376
 7627W        W11678   2.542   3.058   2.800  0.0293 -0.0023 -0.1826
 7628W        W11679   3.347   7.448   0.271 -0.1108 -0.2666 -0.3032
 7629W        W11680   8.767   4.113  13.160 -0.0144 -0.1448  0.1461
 7630W        W11681   1.250   7.888  11.722 -0.1245  0.0565 -0.3737
 7631W        W11682   3.871   5.369  13.383  0.0422  0.2450 -0.0488
 7632W        W11683  10.040   0.940   2.963  0.0534  0.0552 -0.2240
 7633W        W11684   3.568   9.229  11.848  0.2862  0.0795  0.2108
 7634W        W11685   3.942   8.271   0.073 -0.0717 -0.0871 -0.0067
 7635W        W11686   9.006   8.417   4.640 -0.4098  0.0434 -0.1960
 7636W        W11687   6.824   6.740  13.483 -0.3429 -0.0985  0.1341
 7637W        W11688   7.656   9.601  11.994 -0.1295  0.1153 -0.0534
 7638W        W11689   7.897   5.909   4.870 -0.2018  0.1271  0.0688
 7639W        W11690   4.030   2.705   2.279 -0.1315 -0.1125  0.2132
 7640W        W11691   7.250   6.854  11.443 -0.1519  0.1472 -0.1931
 7641W        W11692   5.811   3.869  13.753 -0.3781  0.1146  0.2099
 7642W        W11693   3.792   0.898   1.499  0.1010  0.0526  0.1636
 7643W        W11694   2.028   6.502  10.219 -0.2098  0.3017 -0.2659
 7644W        W11695   8.116   4.144  11.004 -0.3503 -0.1166 -0.0698
 7645W        W11696  10.147   6.138   1.924  0.1033  0.3342 -0.4148
 7646W        W11697   0.915   3.831  12.088  0.0658  0.3530  0.0246
 7647W        W11698   2.095   5.292  12.353 -0.1036 -0.2337 -0.1325
 7648W        W11699   4.818   4.128  10.046  0.1599  0.1095  0.1435
 7649W        W11700   7.243   9.027  10.498 -0.0690  0.1006  0.0066
 7650W        W11701   5.588   0.617   4.882  0.0820 -0.0034 -0.1138
 7651W        W11702   6.682   0.849  13.948  0.3305  0.2724 -0.0686
 7652W        W11703   1.879   3.494   1.647  0.0134 -0.0402 -0.3161
 7653W        W11704   5.433   8.033   4.909  0.2797  0.3341  0.1743
 7654W        W11705   6.017   2.716   0.400  0.5207  0.1853  0.1466
 7655W        W11706   9.183   3.729   0.440 -0.2592  0.5930 -0.4176
 7656W        W11707   1.229   6.973  10.006 -0.1319 -0.2043 -0.0510
 7657W        W11708   6.981   9.317   0.503  0.1010  0.1598 -0.0184
 7658W        W11709   7.774   2.257   3.615 -0.1025 -0.1382 -0.0292
 7659W        W11710   8.817   9.012   1.311 -0.4026 -0.0035 -0.1655
 7660W        W11711   1.131   0.129   1.097  0.0021  0.1441  0.2157
 7661W        W11712   3.458   0.321   2.088  0.0711  0.0768  0.4150
 7662W        W11713   2.880   1.856   4.548  0.3286 -0.1874 -0.2338
 7663W        W11714  10.043   8.890  11.812 -0.2404  0.2177 -0.0318
 7664W        W11715   0.611   2.314   4.196 -0.0035 -0.0461 -0.1255
 7665W        W11716  10.101   3.295   0.280 -0.2921 -0.1918  0.0535
 7666W        W11717   5.626   4.673   2.645 -0.0565  0.0716  0.0642
 7667W        W11718   6.822   6.963   1.342 -0.2399  0.2028  0.2603
 7668W        W11719   4.030   9.308   4.520  0.2287 -0.0852  0.0098
 7669W        W11720   6.781   2.000   0.445 -0.1459 -0.0989  0.0518
 7670W        W11721   2.395   5.017  11.064  0.1914  0.1305  0.1066
 7671W        W11722   4.005   2.893   4.822 -0.1781 -0.2805  0.1276
 7672W        W11723   5.629   7.803  13.186 -0.1625  0.0967 -0.3951
 7673W        W11724   2.224   2.061  11.133  0.1394  0.1109 -0.0408
 7674W        W11725   0.321   6.165   8.402 -0.1396 -0.1831  0.0106
 7675W        W11726  10.110   2.902   3.236 -0.1405  0.0587  0.0189
 7676W        W11727   1.389   6.444   2.124  0.1255 -0.2380 -0.1015
 7677W        W11728   0.786   6.329  12.330  0.2251 -0.1294 -0.0090
 7678W        W11729   1.686   1.871  12.141 -0.1756 -0.0692 -0.1375
 7679W        W11730   3.782   4.237   1.428 -0.2346  0.0542  0.5196
 7680W        W11731   7.804   1.412   2.587 -0.2151  0.0205  0.2624
 7681W        W11732   2.075   9.475   2.817 -0.0205  0.2439  0.1912
 7682W        W11733   9.581   0.463  10.304  0.0246  0.0557 -0.1373
 7683W        W11734   3.465   6.225   1.597 -0.0089 -0.2746 -0.1576
 7684W        W11735   1.147   1.665   9.786  0.3824 -0.4481 -0.1039
 7685W        W11736   1.174   1.058   4.232  0.0054 -0.1078 -0.1404
 7686W        W11737   9.311   7.381  12.364  0.0927  0.0521 -0.3648
 7687W        W11738   4.648   0.981   2.445 -0.0414 -0.0885  0.0634
 7688W        W11739   6.397  10.096  13.912 -0.3241  0.1545 -0.0146
 7689W        W11740   5.987   3.399  13.866  0.0284 -0.1425  0.3211
 7690W        W11741   1.468   2.332   2.168  0.1876 -0.0941  0.0133
 7691W        W11742   9.869   6.006  11.970 -0.3123  0.0015 -0.0157
 7692W        W11743   6.042   1.349  10.642 -0.0142 -0.0090 -0.1770
 7693W        W11744   6.325   5.159   4.498  0.1083  0.2180  0.3259
 7694W        W11745   9.527   5.823  11.633 -0.2618  0.1406 -0.1349
 7695W        W11746   4.407   2.339   0.040  0.0734  0.0301 -0.2772
 7696W        W11747   4.546   1.197   9.690  0.3536  0.4007 -0.4501
 7697W        W11748   0.930   3.023   3.256 -0.1232  0.0860 -0.0597
 7698W        W11749   7.071   1.208   4.557 -0.0430 -0.1049  0.0073
 7699W        W11750   7.019   3.703   2.008 -0.4618 -0.1320 -0.0754
 7700W        W11751   7.123   8.418   2.957 -0.5121  0.0449  0.2953
 7701W        W11752   9.258   0.245   0.198  0.0365  0.1621  0.0842
 7702W        W11753   9.486   3.691   0.868  0.3036 -0.1235  0.0019
 7703W        W11754   6.284   2.441  10.276 -0.0586  0.0544  0.2843
 7704W        W11755   7.885  10.064  12.064 -0.0570 -0.1800 -0.2687
 7705W        W11756   3.467   5.398   3.274  0.2525 -0.0554  0.0215
 7706W        W11757   9.788   6.748  10.775 -0.2846  0.0342  0.0492
 7707W        W11758   0.177   2.274   1.698 -0.0060  0.2265  0.1255
 7708W        W11759   3.006   3.024  13.257  0.0378  0.4050 -0.0562
 7709W        W11760   5.724   9.870  12.056 -0.3949  0.1153  0.2387
 7710W        W11761   5.931   7.151   4.751 -0.0455 -0.0661  0.2405
 7711W        W11762   5.862   7.659  11.985 -0.0923  0.1214  0.0117
 7712W        W11763   1.636   8.755  12.179  0.3032 -0.1423 -0.0834
 7713W        W11764   1.266   4.166   4.008 -0.0281  0.1534  0.0130
 7714W        W11765   5.002   4.180   0.396  0.1784 -0.0973  0.1575
 7715W        W11766   0.949   9.819  13.437 -0.0784  0.2818  0.1991
 7716W        W11767   7.289   3.499  10.372  0.2053  0.0535 -0.2073
 7717W        W11768   7.295   3.690   3.789  0.0100 -0.1403  0.2426
 7718W        W11769   0.008   1.100   1.069 -0.0603  0.1528 -0.1865
 7719W        W11770   4.741   0.200   2.242 -0.1793  0.4388  0.2093
 7720W        W11771   4.102   4.303   1.841 -0.1003  0.1861  0.0955
 7721W        W11772   8.747   5.806   2.647 -0.1268  0.2731 -0.4591
 7722W        W11773   5.715   2.938   4.856 -0.1569  0.1333  0.0104
 7723W        W11774   4.786   3.798   4.422  0.0886  0.0317 -0.1536
 7724W        W11775   1.918   9.158  12.479 -0.1997  0.1398  0.0622
 7725W        W11776   7.627   3.503   2.821 -0.2212 -0.2946 -0.0087
 7726W        W11777   9.706   7.575   2.701  0.1802  0.1280  0.3393
 7727W        W11778   3.529  10.032  12.732  0.1308  0.1779  0.2798
 7728W        W11779   3.519   8.208  12.223 -0.4436 -0.3486 -0.1097
 7729W        W11780   7.557   1.622  11.458  0.1009 -0.0381 -0.2651
 7730W        W11781   8.736   0.130  11.058  0.1374 -0.1058  0.1622
 7731W        W11782   6.698   3.426   2.408  0.0288 -0.0955 -0.2433
 7732W        W11783   2.777   1.014   1.385  0.2530 -0.0254 -0.1525
 7733W        W11784   7.645   0.540  10.110 -0.3055  0.2265 -0.1281
 7734W        W11785   4.181   1.062   4.463 -0.0092  0.0020  0.0637
 7735W        W11786   3.500   1.656   2.045  0.0931 -0.2116  0.1938
 7736W        W11787   5.828   5.246   3.683 -0.1735  0.0080 -0.0900
 7737W        W11788   4.837   4.565  12.899  0.0200 -0.1899 -0.0978
 7738W        W11789   1.701   8.680  13.693 -0.0504 -0.0889 -0.2236
 7739W        W11790   1.281   2.804   9.717  0.1666 -0.1917 -0.1327
 7740W        W11791   6.424   7.568   9.680 -0.0042 -0.1022 -0.0106
 7741W        W11792   2.453   0.451  11.208  0.0347  0.1637  0.1417
 7742W        W11793   4.250   2.841  12.574  0.0014 -0.1865  0.0660
 7743W        W11794   1.149   8.186   2.798 -0.2116 -0.1239 -0.0726
 7744W        W11795   2.980   7.123   9.410  0.1937 -0.1512 -0.5242
 7745W        W11796   0.863   2.942  11.963  0.0474 -0.0772  0.0257
 7746W        W11797   5.903   4.014   0.860 -0.0319 -0.0159  0.1119
 7747W        W11798   4.754   0.112   5.381  0.0067 -0.2669  0.3873
 7748W        W11799   1.000   8.880   0.323 -0.2254  0.4868 -0.0209
 7749W        W11800   3.643   0.340   0.325  0.2234 -0.0243  0.2780
 7750W        W11801   8.227   5.502  10.960 -0.1130  0.0255  0.0676
 7751W        W11802   9.103   1.799  11.958  0.0163 -0.0195  0.0549
 7752W        W11803   3.270   1.951  10.721 -0.0469 -0.2344 -0.0851
 7753W        W11804   9.008   2.030   2.514  0.0141 -0.2199  0.1338
 7754W        W11805   6.048   3.158  11.952  0.0603 -0.3721 -0.1087
 7755W        W11806   4.803   2.817   3.400  0.1740  0.0578 -0.2440
 7756W        W11807   4.955   0.442  10.974  0.2464  0.1601  0.0255
 7757W        W11808   4.280   8.600   1.214  0.2814  0.3004 -0.0903
 7758W        W11809   9.563   5.188  13.309  0.1236  0.1291  0.1877
 7759W        W11810   0.972   3.828   2.243 -0.0321 -0.1206 -0.1001
 7760W        W11811   3.340   6.958   5.425 -0.0036  0.1562  0.0193
 7761W        W11812   9.238   6.087   9.616  0.0611  0.0801 -0.0313
 7762W        W11813   8.239   5.597  13.742 -0.2109  0.0532  0.0553
 7763W        W11814   4.706   3.830   3.882 -0.3195  0.0091 -0.0958
 7764W        W11815   9.510   9.654  11.863  0.1559  0.1197 -0.1369
 7765W        W11816   1.955   9.906   1.431  0.2218 -0.2722 -0.0961
 7766W        W11817   7.890   4.710  10.442 -0.0007  0.0144  0.1047
 7767W        W11818   8.807   1.399   1.967 -0.0505 -0.1568 -0.0236
 7768W        W11819   5.681   5.850   4.496 -0.0301  0.1012  0.1242
 7769W        W11820   9.425   1.365   0.597  0.0914  0.2493 -0.0642
 7770W        W11821   4.045   0.270  11.464 -0.1628 -0.0958 -0.0456
 7771W        W11822   9.038   0.257  12.844 -0.0675 -0.2193  0.1841
 7772W        W11823   7.970   2.867  12.838  0.2788  0.0796  0.1345
 7773W        W11824   4.593   2.418   5.582 -0.0725 -0.2043 -0.1050
 7774W        W11825   7.813   5.618  11.303  0.0099 -0.1856  0.0478
 7775W        W11826   6.725   4.134  12.373  0.2361 -0.3284 -0.0990
 7776W        W11827   7.772   4.159   4.053  0.0392  0.0888  0.0722
 7777W        W11828   4.494   7.739   0.959 -0.1572  0.2565 -0.0025
 7778W        W11829   7.996   3.535   0.766 -0.1916 -0.2040 -0.0162
 7779W        W11830   1.761   2.732   3.932  0.0201  0.0335  0.1182
 7780W        W11831   2.633   5.640   5.408 -0.1021 -0.0424  0.0529
 7781W        W11832   3.200   2.555   9.553  0.2976 -0.0644 -0.0278
 7782W        W11833   5.384   9.326  13.571  0.1443 -0.2658  0.2924
 7783W        W11834   7.503   5.755   1.536  0.0772 -0.0831 -0.1435
 7784W        W11835   4.421   9.627   3.343 -0.1013  0.0229 -0.0616
 7785W        W11836   5.257   0.758  12.165 -0.1500  0.4840 -0.0035
 7786W        W11837   3.090   4.657   3.079 -0.1973 -0.0168  0.1722
 7787W        W11838   2.416   1.434   3.577 -0.1506  0.0152 -0.0941
 7788W        W11839   5.645   7.497  11.234 -0.3887 -0.3215 -0.1775
 7789W        W11840   9.482   2.221   1.666  0.0888 -0.0432 -0.1833
 7790W        W11841  10.090   7.442   1.490  0.0679  0.3894  0.2152
 7791W        W11842   0.950   2.733  10.495  0.1644 -0.0989 -0.1624
 7792W        W11843   9.799   3.179   1.659 -0.2678 -0.1037  0.2781
 7793W        W11844   7.618   6.895   3.427  0.1190  0.0090  0.1466
 7794W        W11845   3.827   2.285   9.505 -0.3180 -0.2013 -0.0560
 7795W        W11846   4.910   2.121   3.842  0.3534  0.3281 -0.0970
 7796W        W11847   5.245   5.948  12.924 -0.0481 -0.1805  0.2120
 7797W        W11848   0.357  10.168   0.567  0.2310  0.0812  0.0343
 7798W        W11849   3.666   0.016  10.133 -0.0533 -0.0553 -0.4335
 7799W        W11850   9.267   3.413   3.205  0.2020  0.0250 -0.0614
 7800W        W11851   7.853   0.170  11.257 -0.1106 -0.4072 -0.1987
 7801W        W11852   6.607   7.355   4.325  0.5384  0.0832 -0.0405
 7802W        W11853   1.326   2.929   2.030  0.0199  0.1099  0.1011
 7803W        W11854   4.180   2.973   8.882  0.1182 -0.1332  0.2632
 7804W        W11855   2.383   3.007  13.135 -0.1911 -0.0512  0.0053
 7805W        W11856   8.934   5.759   4.964  0.0315  0.0334  0.1153
 7806W        W11857   9.972   1.696  12.908 -0.1522  0.0252 -0.1425
 7807W        W11858   9.838   6.022   9.953  0.0031  0.0423  0.1860
 7808W        W11859   4.039   1.632   4.443 -0.1742 -0.1055 -0.3991
 7809W        W11860   3.194   7.792   8.799  0.2434  0.0072  0.0208
 7810W        W11861   7.405   9.576  12.507 -0.3515 -0.0018 -0.2044
 7811W        W11862   2.861   3.792   9.942  0.1749 -0.6337 -0.0991
 7812W        W11863   4.703   7.589  11.047 -0.0337 -0.2392  0.0176
 7813W        W11864   1.019   9.945  12.099 -0.0519  0.0208  0.3625
 7814W        W11865   7.804   4.442  11.712  0.1928 -0.0248  0.0639
 7815W        W11866   5.349   3.095  11.376 -0.0809 -0.0512 -0.2066
 7816W        W11867   3.325   1.775   1.529 -0.1287 -0.1965 -0.1132
 7817W        W11868   0.116   3.751  11.488  0.3935  0.0690  0.0191
 7818W        W11869   6.706   2.265   9.687  0.3052 -0.0004 -0.0702
 7819W        W11870   1.438   7.680  10.591  0.0774  0.2042  0.3277
 7820W        W11871   3.440   1.456  12.246  0.2739 -0.2409 -0.0266
 7821W        W11872   0.535   9.229  12.017  0.0892  0.1095  0.2270
 7822W        W11873   5.424   5.351  11.268  0.0432 -0.0343 -0.1916
 7823W        W11874   1.695   4.725   4.990  0.3800 -0.0984  0.0494
 7824W        W11875   7.231   6.764   3.664  0.2113 -0.4379  0.1290
 7825W        W11876   4.873   9.799   2.261  0.0388  0.3444  0.2322
 7826W        W11877   4.794   6.744  10.699 -0.0393 -0.0625  0.0418
 7827W        W11878   2.873   0.824  13.464 -0.1274 -0.1362  0.1427
 7828W        W11879   9.445   0.986   1.091 -0.1558  0.0217 -0.4138
 7829W        W11880   2.513   1.098   2.124 -0.2492  0.0931 -0.2262
 7830W        W11881   0.438   8.317   0.968  0.1360 -0.0260 -0.1512
 7831W        W11882   7.578   1.041   3.143  0.0238 -0.0354  0.3273
 7832W        W11883   9.041   9.024   0.174  0.1896 -0.1905 -0.3954
 7833W        W11884   1.948   7.374   3.355  0.0011 -0.2111  0.2502
 7834W        W11885   1.079   4.798  13.624  0.3953 -0.0871 -0.0156
 7835W        W11886   7.120   7.794  12.901 -0.0134 -0.0904 -0.0980
 7836W        W11887   1.014   5.376   1.744  0.0088 -0.0706 -0.1991
 7837W        W11888   8.155   5.137   1.715  0.0998 -0.3692  0.0175
 7838W        W11889   1.615   6.358   2.665 -0.5640  0.1553 -0.0505
 7839W        W11890   4.135   3.273  12.361 -0.1343  0.0350  0.2094
 7840W        W11891   0.597   0.170  12.889  0.4152 -0.0871  0.3376
 7841W        W11892   4.844   4.619   1.453  0.0416 -0.2045 -0.0261
 7842W        W11893   3.546   5.495   5.430  0.0523 -0.2174 -0.2397
 7843W        W11894   4.174   0.553   2.719  0.0381  0.1321 -0.0663
 7844W        W11895   2.810   5.720  11.341 -0.0857 -0.0896  0.1702
 7845W        W11896   8.919   9.809  10.971 -0.2053 -0.1509 -0.1688
 7846W        W11897   9.218  10.026  11.928  0.0119 -0.3028  0.3780
 7847W        W11898   5.375   8.205   2.174  0.0047  0.1339  0.1549
 7848W        W11899   0.811   4.479   4.297  0.1306 -0.2670 -0.1320
 7849W        W11900   9.943   1.646  11.123 -0.0416  0.1134 -0.1235
 7850W        W11901   6.776   2.384  11.086 -0.3153 -0.1572  0.0183
 7851W        W11902   8.869   8.519  10.492  0.1947  0.1408  0.2500
 7852W        W11903   2.347  10.062   2.934  0.2003  0.0299 -0.0561
 7853W        W11904   4.908   0.789  12.489  0.2262  0.2300  0.2156
 7854W        W11905   7.401   6.622  13.600 -0.0536 -0.2636 -0.2253
 7855W        W11906   7.743   2.744  10.894 -0.1908  0.1787  0.1843
 7856W        W11907   7.331   7.459   2.340 -0.0282 -0.2839 -0.0528
 7857W        W11908   1.718   8.993   9.635 -0.4409  0.2633 -0.2727
 7858W        W11909   8.286   4.736   3.285  0.0067 -0.1278  0.0025
 7859W        W11910   1.399   2.103  13.385 -0.2182 -0.0134 -0.1979
 7860W        W11911   7.378   8.064   2.556  0.0519  0.1922  0.0908
 7861W        W11912   7.669   7.978  12.799  0.1901  0.0424  0.1716
 7862W        W11913   2.652   6.517  12.480  0.1266 -0.0722  0.2467
 7863W        W11914   4.288   4.644   9.888  0.3092  0.3155  0.0185
 7864W        W11915   3.281   6.659   5.912  0.1605  0.0949  0.1840
 7865W        W11916   7.806   2.489   1.876 -0.1948 -0.0159  0.0375
 7866W        W11917   0.660   6.238  12.851 -0.0354  0.3316 -0.1475
 7867W        W11918   5.078   9.755   0.433 -0.2505  0.1165 -0.0443
 7868W        W11919   7.084   3.809  11.037  0.3862 -0.0622  0.0081
 7869W        W11920   3.835   3.759   2.092  0.0278  0.3268  0.3073
 7870W        W11921   8.854   0.415   3.210 -0.1108  0.0684 -0.2494
 7871W        W11922   7.521   5.819   3.915  0.2922 -0.2765 -0.0528
 7872W        W11923   8.041   8.980   0.115 -0.2220 -0.2472 -0.0006
 7873W        W11924   5.588   4.553  13.195 -0.1967  0.1251  0.1403
 7874W        W11925   0.957   2.000   3.237  0.0906 -0.0574  0.1629
 7875W        W11926   7.985   4.359   1.135  0.1045  0.0384  0.0477
 7876W        W11927   3.218   9.971  10.072 -0.2482 -0.1048 -0.0350
 7877W        W11928   5.565   2.684  10.696  0.0716 -0.0098 -0.0770
 7878W        W11929   2.990   5.386  13.242 -0.2305 -0.1592 -0.0643
 7879W        W11930  10.001   0.412  13.122 -0.3073  0.1798  0.1129
 7880W        W11931   7.160   8.701  12.139 -0.3574 -0.0806  0.1447
 7881W        W11932   2.434   6.726   9.541  0.0320 -0.1021 -0.1836
 7882W        W11933   1.274   7.536   5.102 -0.2684 -0.0463 -0.3587
 7883W        W11934   1.860   8.713   2.069 -0.0957  0.0970  0.3603
 7884W        W11935   9.889   8.549   3.656 -0.1341  0.2204  0.0780
 7885W        W11936   8.031   6.407   4.533  0.2553 -0.1261 -0.6357
 7886W        W11937   9.690   6.267   4.561 -0.0515  0.0764  0.1602
 7887W        W11938   4.708   8.252  12.777  0.0529  0.1421 -0.0567
 7888W        W11939   9.339   8.487  12.130 -0.0193 -0.2161  0.0929
 7889W        W11940   4.534   3.992   0.596 -0.3488  0.0374  0.1663
 7890W        W11941   8.096   7.780  10.225  0.0439 -0.1842  0.3772
 7891W        W11942   9.993   6.018  12.813 -0.3163 -0.0364 -0.3388
 7892W        W11943   4.765  10.134  10.835  0.1717 -0.0323  0.0385
 7893W        W11944   0.219   9.936  12.495 -0.0258  0.4280  0.0872
 7894W        W11945   4.969   2.774   0.899 -0.2992 -0.2711 -0.0700
 7895W        W11946   8.154   8.613   1.852  0.1692  0.1365 -0.2558
 7896W        W11947   2.107   6.453  10.712  0.1279  0.2526 -0.2412
 7897W        W11948   1.841   6.093  10.367 -0.1648  0.2092 -0.2030
 7898W        W11949   6.265   1.202  10.265 -0.1474  0.2201  0.0013
 7899W        W11950   0.540   3.633   0.520  0.0033 -0.3480  0.0841
 7900W        W11951   4.420   9.169   1.815 -0.1690  0.0280 -0.1894
 7901W        W11952   4.812   5.997   1.218 -0.0294  0.0452 -0.0736
 7902W        W11953   3.438   0.120   9.658 -0.4530  0.1061  0.3921
 7903W        W11954   3.461   4.754   9.583 -0.0608 -0.0270 -0.0142
 7904W        W11955   0.159   5.131   1.735 -0.3776  0.1120  0.4025
 7905W        W11956   4.807   4.353  13.923 -0.1443 -0.0362 -0.0318
 7906W        W11957   6.749   3.808   2.735 -0.0918  0.2400 -0.0912
 7907W        W11958   9.734   0.198   4.245  0.1029  0.3378 -0.3593
 7908W        W11959   4.631   0.496  12.181 -0.0545 -0.2231 -0.3377
 7909W        W11960   5.533   6.743   9.803 -0.2338 -0.0967  0.0282
 7910W        W11961   7.070   9.122   1.483  0.1633 -0.1800  0.2343
 7911W        W11962   9.757   3.844  11.422 -0.1033  0.2537 -0.1647
 7912W        W11963   1.318   6.079   0.631  0.3653  0.1002  0.2822
 7913W        W11964   8.657   0.659   0.933  0.0432 -0.1019  0.2283
 7914W        W11965   6.715   3.041   2.768  0.2667 -0.3374 -0.1384
 7915W        W11966   6.165   1.227   2.759 -0.5659  0.1627 -0.0941
 7916W        W11967   3.061   2.903   9.922 -0.1091  0.1304  0.0650
 7917W        W11968   0.100   4.652  12.622  0.2980 -0.2193  0.0952
 7918W        W11969   1.799   4.719   0.994  0.4477 -0.1175  0.3502
 7919W        W11970   0.026   0.475   1.160  0.1952 -0.0169  0.0198
 7920W        W11971   9.246   9.726   3.381  0.1053 -0.1765 -0.0424
 7921W        W11972   5.254   2.314   0.579  0.0479  0.1547  0.1156
 7922W        W11973   0.072   6.537  11.826 -0.2611  0.1119 -0.1137
 7923W        W11974   0.201   2.461  10.316  0.2494 -0.2063  0.0806
 7924W        W11975   6.546   8.408  10.365 -0.2583  0.0249  0.0185
 7925W        W11976   4.903   2.236  12.499 -0.2932  0.1612 -0.2644
 7926W        W11977   0.546   1.020  11.888  0.1198  0.2497 -0.1011
 7927W        W11978   6.260   8.330   2.712  0.1545 -0.1840 -0.3147
 7928W        W11979   3.489   9.238   1.531  0.2395  0.1000  0.0509
 7929W        W11980   6.063   7.235   0.397  0.4155  0.2646  0.1139
 7930W        W11981   1.733   3.744  13.876  0.0445  0.0111  0.1169
 7931W        W11982   5.405   0.579   2.305 -0.1508  0.2705 -0.3117
 7932W        W11983   8.264   3.610   9.499  0.0009 -0.1401 -0.0023
 7933W        W11984   1.114   5.352   3.556 -0.0203 -0.1149  0.1018
 7934W        W11985   5.814   0.528  13.474 -0.0815 -0.0894 -0.2126
 7935W        W11986   1.888   9.230   4.067  0.0167  0.6141 -0.3771
 7936W        W11987   4.215   7.860  10.195  0.0906  0.0572 -0.2063
 7937W        W11988   6.982   2.079   9.300  0.0552 -0.0427 -0.0006
 7938W        W11989   5.960   9.451  11.417  0.0928  0.0428  0.1309
 7939W        W11990   3.570   9.008   2.208 -0.2055 -0.1282 -0.0747
 7940W        W11991   0.536   6.150   0.567 -0.2034 -0.1902  0.1089
 7941W        W11992   4.131   4.509  12.423  0.0569  0.0274  0.1710
 7942W        W11993   3.142   5.349   1.780 -0.1498 -0.0142  0.2464
 7943W        W11994   1.416   1.225   0.343 -0.0619  0.1289  0.2002
 7944W        W11995   5.963   5.482   4.623  0.0865  0.0604  0.1089
 7945W        W11996   3.223   8.604   4.067  0.1860 -0.1685  0.1316
 7946W        W11997   4.254   7.376   0.219  0.0921 -0.1078 -0.3286
 7947W        W11998   6.733   9.083   4.296 -0.0121 -0.1733  0.3338
 7948W        W11999   5.327   4.144   2.670  0.2265 -0.2760 -0.2704
 7949W        W12000   0.237   4.374  10.934  0.1791  0.1522 -0.1144
 7950W        W12001   3.837   4.091  12.341  0.2589 -0.2013  0.1195
 7951W        W12002   6.455   2.647   0.604  0.3153  0.0125  0.1062
 7952W        W12003   1.464   1.722  11.084 -0.0162  0.4388 -0.1235
 7953W        W12004   7.319   3.663  12.675 -0.0427  0.1621  0.2823
 7954W        W12005   3.761   7.851   2.944  0.0308  0.0617  0.1200
 7955W        W12006   1.438   0.804  11.778 -0.1289 -0.1110  0.4452
 7956W        W12007   0.178   8.784   3.563 -0.2100 -0.1258 -0.0501
 7957W        W12008   0.942   9.172   2.406  0.2137 -0.1814  0.0503
 7958W        W12009   4.286  10.007  10.505  0.0985  0.1256 -0.2524
 7959W        W12010   3.707   9.576   0.170 -0.3091  0.4985 -0.1871
 7960W        W12011   2.673   7.265  12.953  0.1993 -0.2502 -0.0495
 7961W        W12012   7.101   8.713  12.730 -0.0708  0.2963  0.0902
 7962W        W12013   2.665   3.281   0.551  0.0877 -0.0827 -0.0896
 7963W        W12014   0.031   6.115   0.322 -0.0964 -0.1031 -0.1230
 7964W        W12015   9.772   0.681   3.324 -0.0849  0.0841 -0.1220
 7965W        W12016   0.289   3.835  13.799 -0.0527 -0.1369  0.1320
 7966W        W12017   4.681   3.778  13.163 -0.2747 -0.2396  0.0776
 7967W        W12018   4.933   8.831  12.822 -0.1710 -0.1835  0.0664
 7968W        W12019   0.314   6.789  12.671 -0.0121 -0.4117  0.1801
 7969W        W12020   4.062   1.000   0.929 -0.3023 -0.1143  0.2272
 7970W        W12021   5.419   0.691   2.836 -0.1709 -0.0213 -0.1085
 7971W        W12022   7.768   2.554  13.327 -0.0124 -0.0157 -0.0170
 7972W        W12023   2.175   8.824   9.707 -0.0686  0.4103 -0.2195
 7973W        W12024   7.507   4.398   2.121 -0.0221 -0.0918  0.0927
 7974W        W12025   7.668   2.924  11.642  0.0376  0.4240  0.0368
 7975W        W12026   9.126  10.066  10.133 -0.3940  0.1460  0.1462
 7976W        W12027   3.017   4.746   2.495 -0.1600 -0.4462  0.1555
 7977W        W12028   5.898   7.162   1.369 -0.0379  0.0704 -0.1385
 7978W        W12029   4.418   4.048  13.502  0.1868 -0.0151  0.0722
 7979W        W12030   2.465   3.694   4.063 -0.1333 -0.0412 -0.1213
 7980W        W12031   2.563   8.953   0.412  0.2294  0.0031 -0.1339
 7981W        W12032   3.218   7.775  13.832 -0.1648  0.0798  0.2877
 7982W        W12033   3.502   6.886  12.517 -0.2069  0.0314 -0.0848
 7983W        W12034   2.507   2.365  11.964 -0.2710  0.0478 -0.1146
 7984W        W12035   9.025   5.400   3.012  0.1997 -0.3119  0.0266
 7985W        W12036   0.530   4.943   4.365  0.0503 -0.2241  0.0881
 7986W        W12037   2.734   5.798   2.953 -0.0883 -0.3832 -0.3126
 7987W        W12038   7.320   3.292   2.108  0.1197  0.0488 -0.0175
 7988W        W12039   9.700   3.106   3.008  0.2648  0.2682  0.0161
 7989W        W12040   3.285   6.015   5.015 -0.0628 -0.0743 -0.0217
 7990W        W12041   7.970   7.123   5.059 -0.2715  0.1882 -0.2422
 7991W        W12042   3.906   5.567   9.061 -0.1912  0.0450 -0.2408
 7992W        W12043   1.546   1.717  13.016  0.0664 -0.0639  0.1960
 7993W        W12044   8.684   2.699  11.012  0.0946  0.1760 -0.0703
 7994W        W12045   2.706   7.002   2.854 -0.2164  0.1536 -0.1469
 7995W        W12046   1.090   0.607   4.676 -0.1096 -0.1266  0.2009
 7996W        W12047   8.769   5.603  13.565 -0.2381 -0.0844  0.1767
 7997W        W12048   0.237   3.945  11.978 -0.1288  0.3101 -0.0872
 7998W        W12049   2.122   0.847   1.171  0.0484 -0.1105  0.0558
 7999W        W12050   2.570   7.943   1.899 -0.2017 -0.1452  0.1438
 8000W        W12051   3.852   7.603   0.318 -0.0003 -0.2114  0.1585
 8001W        W12052   0.239   8.066   3.068  0.0459 -0.0667  0.1831
 8002W        W12053   9.737   3.581  10.731  0.3479 -0.1032 -0.2679
 8003W        W12054   5.050   6.932   3.801  0.2673  0.0352 -0.2699
 8004W        W12055   4.160   3.927   1.147 -0.1343 -0.2955  0.0623
 8005W        W12056   6.085  10.150   4.531 -0.1047  0.1865 -0.0734
 8006W        W12057   2.801   0.647  12.522  0.0995 -0.0606 -0.0395
 8007W        W12058   8.113   6.222   3.981  0.0125 -0.2680  0.2588
 8008W        W12059   7.228   6.166  13.774 -0.0950  0.1615 -0.1282
 8009W        W12060   4.746   8.561   1.566  0.0111  0.0611  0.0969
 8010W        W12061   0.879   6.881  11.399 -0.0573 -0.1365 -0.0304
 8011W        W12062   8.218   1.521   1.240  0.1333 -0.0171  0.0502
 8012W        W12063   6.667   6.560  10.641  0.0122  0.4242  0.0548
 8013W        W12064   5.927   9.076  10.081 -0.1711  0.1312 -0.1206
 8014W        W12065   7.579   1.585  13.747  0.1195 -0.3728 -0.2748
 8015W        W12066   4.538   4.765  11.946 -0.1482 -0.2044 -0.0407
 8016W        W12067   6.318   3.706   0.059  0.1217 -0.1653  0.0093
 8017W        W12068   7.753   9.965  12.615  0.0492  0.0256  0.0554
 8018W        W12069   9.995   6.761   2.129  0.1036  0.0695 -0.0244
 8019W        W12070   1.566   0.650   2.024 -0.0539  0.2102 -0.0860
 8020W        W12071   3.400   6.914  13.044  0.2947  0.2993 -0.0500
 8021W        W12072   2.142   8.231   0.281  0.2257 -0.0530 -0.3531
 8022W        W12073   7.209   4.649  12.918  0.3593  0.0987 -0.0012
 8023W        W12074   3.795   2.094  12.041 -0.0503  0.1395  0.2213
 8024W        W12075   2.677   7.866   1.330 -0.0947 -0.2252 -0.0050
 8025W        W12076   2.196   1.596   9.652  0.3292 -0.0669  0.2602
 8026W        W12077   3.594   0.643  11.610 -0.0234 -0.1005 -0.0761
 8027W        W12078   6.415   2.642  13.459  0.3105 -0.0875 -0.0500
 8028W        W12079  10.032   7.453  10.762 -0.1118  0.0528 -0.1561
 8029W        W12080   0.684   4.523   0.568  0.0922  0.2149 -0.1663
 8030W        W12081   2.755   0.783   2.913  0.3297  0.0304 -0.3444
 8031W        W12082   9.894   1.470   1.982 -0.3411  0.1905 -0.2651
 8032W        W12083   4.726   0.185   0.695  0.3044  0.3962 -0.1050
 8033W        W12084   7.653   7.637   0.171  0.0781 -0.1402  0.1247
 8034W        W12085   5.727   2.712  11.295  0.2723 -0.3415 -0.0405
 8035W        W12086   1.040   9.601  12.866  0.1629  0.0020 -0.1270
 8036W        W12087   0.138   9.502  12.332  0.2062  0.1543  0.1212
 8037W        W12088   9.975   3.465  11.750  0.0521  0.0394  0.2129
 8038W        W12089   6.448   7.709  12.412 -0.0952  0.1547 -0.0966
 8039W        W12090   0.141   9.632   2.130  0.0989  0.0652 -0.2188
 8040W        W12091   7.075   7.386  13.214  0.3599  0.0527 -0.0041
 8041W        W12092   6.071   8.656   1.414 -0.1634 -0.0048  0.0002
 8042W        W12093   8.411   2.965   0.061 -0.0626 -0.0013 -0.0663
 8043W        W12094   8.042   0.960   2.814  0.3105  0.1919  0.0471
 8044W        W12095   1.451   0.899  13.898  0.2720  0.0847  0.0889
 8045W        W12096   6.844   1.708   4.375  0.0160 -0.2940 -0.2807
 8046W        W12097   8.542   6.521   0.410 -0.1048 -0.2488 -0.0479
 8047W        W12098   5.865   8.479   3.757  0.0026  0.0096  0.0123
 8048W        W12099   1.051   1.511   0.212  0.2802 -0.0914 -0.0606
 8049W        W12100   0.082   9.337  11.841  0.2055 -0.3778  0.1343
 8050W        W12101   3.766   9.241  12.314 -0.1109 -0.0351 -0.1640
 8051W        W12102   6.103   0.228  13.720 -0.2996 -0.0725 -0.0989
 8052W        W12103   6.587   8.831   9.985  0.3511 -0.1220  0.0659
 8053W        W12104   1.592   7.937  12.070 -0.2110 -0.2011 -0.1731
 8054W        W12105   7.481   5.505  12.220 -0.2447  0.2485 -0.6003
 8055W        W12106   2.486   1.175  11.435 -0.1017  0.3449 -0.0474
 8056W        W12107   6.332   2.522  10.768  0.2343  0.2829  0.1054
 8057W        W12108   5.005   9.363  12.837  0.0121 -0.0889 -0.1716
 8058W        W12109   5.715   3.160   0.250 -0.2225 -0.0203 -0.1874
 8059W        W12110   5.376   4.882   9.676  0.1353  0.0629 -0.0365
 8060W        W12111   3.289   3.083  12.806  0.2383 -0.2492 -0.0488
 8061W        W12112   1.581   4.698   4.127 -0.0595  0.4890 -0.1058
 8062W        W12113   4.002   2.073  13.608  0.2151  0.1736  0.1967
 8063W        W12114   4.522   4.880   1.810 -0.0299  0.1464  0.0003
 8064W        W12115   5.634   4.914   4.112 -0.1752 -0.1957 -0.0909
 8065W        W12116   3.254   3.476  11.950 -0.3991 -0.1427 -0.0210
 8066W        W12117   3.120   8.222  10.367 -0.3522 -0.4112 -0.4934
 8067W        W12118   4.056   9.489   2.948  0.1022 -0.1206 -0.0858
 8068W        W12119   4.748   2.279   0.780  0.0086  0.1121 -0.2967
 8069W        W12120   5.471   9.361  12.981 -0.0216  0.0215  0.3322
 8070W        W12121   8.886   4.343  12.376  0.1551  0.1027 -0.1685
 8071W        W12122   7.537   1.976   1.738  0.1773 -0.4234 -0.1314
 8072W        W12123   1.334   6.030  11.743 -0.0209  0.0154 -0.0357
 8073W        W12124   0.990   8.327   3.287  0.0075 -0.1139 -0.1290
 8074W        W12125   7.504   0.581  11.304 -0.1582 -0.0843  0.1137
 8075W        W12126   3.646   9.306  13.485 -0.1920 -0.1499 -0.0599
 8076W        W12127   2.418   5.283   3.494 -0.0908 -0.0433  0.1229
 8077W        W12128   6.496   3.013   2.288 -0.1130 -0.1500 -0.2442
 8078W        W12129   8.119   8.704  10.477  0.1308  0.3185  0.0977
 8079W        W12130   1.374   5.283   4.093  0.1048 -0.2144  0.0836
 8080W        W12131   6.764   5.171   1.984 -0.0883 -0.2369 -0.0727
 8081W        W12132   4.193   6.050   4.460 -0.0598  0.1265 -0.4049
 8082W        W12133   7.046   3.826   0.537 -0.1069  0.0787 -0.0786
 8083W        W12134   7.698   9.848   3.338  0.2548 -0.2397 -0.1470
 8084W        W12135   0.758   0.493  13.283  0.2298 -0.0444 -0.1347
 8085W        W12136   5.233   2.759   1.539 -0.1277  0.1018  0.0903
 8086W        W12137   5.141   4.200   1.841 -0.1974 -0.1938  0.1173
 8087W        W12138   3.890  10.190   2.169 -0.1051 -0.0385 -0.0018
 8088W        W12139   3.520   0.444   1.570 -0.2188 -0.2237  0.0369
 8089W        W12140   5.326   3.543  10.607 -0.0579  0.0731  0.0896
 8090W        W12141   9.587   3.990  12.459 -0.2455  0.2933 -0.0260
 8091W        W12142   9.205   9.648   4.589  0.2114  0.4332  0.2997
 8092W        W12143   2.043   9.414   0.434  0.2345  0.2098 -0.1234
 8093W        W12144   8.362   8.778   3.281  0.2032 -0.3035 -0.0619
 8094W        W12145   2.800   1.755   3.361  0.1625  0.0038 -0.1149
 8095W        W12146   4.878   5.466  13.934  0.2052 -0.0310 -0.1197
 8096W        W12147  10.040   4.557  13.612 -0.0122 -0.1093  0.2739
 8097W        W12148   7.404   3.552  12.141  0.2731  0.1934 -0.1139
 8098W        W12149   6.510   3.206  10.855  0.1098  0.0704  0.0419
 8099W        W12150   0.369   0.804   1.268  0.1365  0.0612  0.0051
 8100W        W12151   7.499   8.372  13.350  0.0100  0.2196 -0.0831
 8101W        W12152   3.223   6.029   2.123  0.0392  0.1752  0.1897
 8102W        W12153   7.772   0.405  10.587  0.0969 -0.3546 -0.0191
 8103W        W12154   2.694   6.079   1.276  0.1331  0.2411 -0.2044
 8104W        W12155   5.365   5.114   2.445  0.1733 -0.0526 -0.0548
 8105W        W12156   9.660   8.067  13.019 -0.0250  0.1924 -0.0176
 8106W        W12157   8.442   7.563  12.439 -0.0565 -0.1154 -0.1580
 8107W        W12158   4.054   6.300  13.586 -0.3271 -0.2915  0.0228
 8108W        W12159   1.089   3.627   4.361  0.2138  0.1745  0.0250
 8109W        W12160   8.660   8.519  10.955 -0.1163 -0.0444  0.0399
 8110W        W12161   4.817   7.623  13.165  0.2011 -0.2079 -0.0180
 8111W        W12162   5.516   0.196   9.686  0.1111 -0.2213 -0.0317
 8112W        W12163   3.135   1.572  10.439  0.0651 -0.0727  0.2300
 8113W        W12164   0.786   6.790  10.932 -0.1081 -0.4015  0.1786
 8114W        W12165   1.181   3.169   4.141 -0.1408 -0.0814 -0.1732
 8115W        W12166   4.474   1.304   4.076  0.2725 -0.0506  0.1193
 8116W        W12167   0.094   4.230  13.965 -0.2229  0.0516 -0.0741
 8117W        W12168   3.213   7.678   1.911  0.0372 -0.2746 -0.0957
 8118W        W12169   2.565   8.905  11.363 -0.0317  0.2170  0.2716
 8119W        W12170   2.023   5.108  11.398 -0.3552  0.1619  0.0923
 8120W        W12171   3.173   7.773   1.379 -0.1977 -0.0336 -0.1328
 8121W        W12172   6.804   7.415   1.197 -0.1565 -0.1584  0.1709
 8122W        W12173   5.049   0.539   0.493 -0.2827  0.2133 -0.1064
 8123W        W12174   4.712   2.223   9.043  0.1707  0.0279  0.2202
 8124W        W12175   7.433   7.241  11.137 -0.3608  0.2354 -0.2467
 8125W        W12176   6.495   0.115  13.463  0.1961 -0.1055  0.2504
 8126W        W12177   0.262   4.157   4.426  0.2413  0.1265 -0.1640
 8127W        W12178   4.937   6.083  10.169  0.2997 -0.1213  0.0038
 8128W        W12179   5.749   8.566   0.516  0.1152  0.1016  0.0810
 8129W        W12180   4.517   4.222   4.121  0.0503  0.3132 -0.0823
 8130W        W12181   0.323   5.962  13.572  0.1972  0.0580  0.1503
 8131W        W12182   0.604   8.816   0.620  0.0762 -0.1424  0.2556
 8132W        W12183   6.774   9.969  12.245  0.0211 -0.2429  0.1495
 8133W        W12184   5.179   2.884   3.046  0.0923 -0.3263  0.2024
 8134W        W12185   6.090   6.700   4.893  0.0045  0.0896 -0.1867
 8135W        W12186   0.111  10.131  10.317  0.1064  0.1387  0.1671
 8136W        W12187   1.055   4.643   3.663 -0.1263 -0.0660  0.0946
 8137W        W12188   5.594   6.573  12.866 -0.0164  0.0212 -0.3708
 8138W        W12189   2.403   2.097  10.651  0.1427 -0.0269 -0.0979
 8139W        W12190   4.934   2.191  11.543 -0.1928 -0.2370  0.2268
 8140W        W12191   6.473   7.652   2.831  0.1259 -0.2097  0.2418
 8141W        W12192   5.518   9.263  11.125 -0.4192 -0.0806  0.4590
 8142W        W12193   3.592   3.290  11.668 -0.1570  0.0843 -0.1058
 8143W        W12194   7.686   7.561   9.256 -0.1253 -0.1726  0.0077
 8144W        W12195   2.547   5.017   4.786  0.0280 -0.2562 -0.0030
 8145W        W12196   9.917  10.022  12.634  0.1493  0.0374  0.3447
 8146W        W12197   1.518   3.050   2.642 -0.0496  0.2849  0.2501
 8147W        W12198   9.078   9.729   0.887 -0.0031  0.1475  0.2447
 8148W        W12199   5.258   8.437   4.590  0.3305 -0.4092  0.0254
 8149W        W12200   0.808   8.624   1.529  0.0277  0.1137  0.0686
 8150W        W12201   1.129   4.490  11.932  0.0309  0.1760  0.2645
 8151W        W12202   7.836   6.631   4.958  0.0269 -0.0223 -0.2234
 8152W        W12203   1.253   0.833  10.450  0.2113  0.3674  0.0532
 8153W        W12204   0.085   7.253   1.951  0.2682 -0.2521 -0.0056
 8154W        W12205   7.454   9.265   2.291 -0.0539  0.0961 -0.1184
 8155W        W12206   3.884   7.014  10.257 -0.1912  0.0257  0.3881
 8156W        W12207   5.526   0.461   0.856  0.0545  0.0591  0.1191
 8157W        W12208   0.268   0.396  13.238 -0.1611  0.0855  0.0792
 8158W        W12209   9.262   0.059  10.706 -0.3418  0.0705  0.2582
 8159W        W12210   3.942   1.250  11.461 -0.0552 -0.1512  0.2189
 8160W        W12211   6.799   9.788   4.105  0.0692 -0.0313  0.0568
 8161W        W12212   4.290   6.875  10.576 -0.1113  0.1733 -0.1568
 8162W        W12213   0.506   1.432   1.583 -0.3528  0.1227 -0.0769
 8163W        W12214   8.879   2.427   9.981 -0.0239  0.2662 -0.0346
 8164W        W12215   6.080   9.378   4.314 -0.0240  0.2226  0.0246
 8165W        W12216   8.508   2.680   4.058  0.0214 -0.0289  0.0550
 8166W        W12217   5.852  10.187  13.365 -0.1674 -0.1498  0.3898
 8167W        W12218   8.856   4.387   1.727  0.1742  0.0175  0.1193
 8168W        W12219   3.621   4.588  12.332 -0.2422 -0.3306  0.0548
 8169W        W12220   9.060   1.359  10.035  0.0353  0.0246  0.2777
 8170W        W12221   0.583   0.047  12.188  0.0503 -0.0777 -0.0853
 8171W        W12222   1.667   7.947   3.935  0.0622  0.0366  0.0060
 8172W        W12223   9.373   7.896  12.205  0.0004  0.2593  0.0260
 8173W        W12224   8.837   8.066  10.781 -0.2149 -0.0184 -0.0596
 8174W        W12225   0.646   5.575   4.749  0.0132 -0.2488 -0.1396
 8175W        W12226   5.430   9.029  10.105 -0.0740  0.0164 -0.1480
 8176W        W12227   6.655   1.410   4.762  0.1424 -0.0706 -0.0652
 8177W        W12228   3.049   9.171   0.415  0.2272  0.0271  0.2284
 8178W        W12229   0.608   9.568   2.466  0.2919  0.1912  0.1237
 8179W        W12230   3.841   1.766  10.144  0.0031  0.4135  0.3026
 8180W        W12231   5.466   6.207   9.939  0.1750  0.1559 -0.1247
 8181W        W12232   8.277   1.116  12.203  0.1136 -0.1478 -0.2025
 8182W        W12233   1.776   1.559   3.266  0.1101  0.1903  0.1269
 8183W        W12234   9.776   1.158   0.159 -0.2158  0.0006  0.0213
 8184W        W12235   3.527   5.425   4.835  0.0402  0.0298 -0.0802
 8185W        W12236   7.439   2.390   0.330  0.1453  0.1401  0.0740
 8186W        W12237   5.020   1.393   0.266  0.0980 -0.2475  0.0177
 8187W        W12238   0.481   6.705   9.910  0.2652  0.0237 -0.0734
 8188W        W12239   5.204   8.436   1.781  0.2738 -0.0958  0.1544
 8189W        W12240   1.979   8.301   2.386  0.2481 -0.1717 -0.0485
 8190W        W12241   8.372   8.657   1.330  0.0964  0.2607 -0.1695
 8191W        W12242   1.496   0.309   2.417 -0.2395  0.0434  0.1050
 8192W        W12243   7.257   8.766  13.292  0.2603 -0.3374  0.2355
 8193W        W12244   1.683   4.923   2.805 -0.0117 -0.2446 -0.1478
 8194W        W12245   1.429   8.218  10.552  0.0799  0.3283 -0.1140
 8195W        W12246   2.664   5.527  10.899 -0.1519  0.2131  0.0246
 8196W        W12247   2.180   4.256   2.092  0.0826  0.1270  0.0332
 8197W        W12248   7.829   1.564   2.047  0.0495 -0.2225  0.1849
 8198W        W12249   7.261   7.639   0.842 -0.1382 -0.3480 -0.1814
 8199W        W12250   1.439   0.573  12.285 -0.0259 -0.0876  0.2116
 8200W        W12251   5.518   0.684   0.356 -0.1001 -0.0332 -0.0065
 8201W        W12252   3.781   6.700  12.856 -0.1463  0.4172  0.0575
 8202W        W12253   0.519   7.081  11.871  0.0282  0.0086  0.1046
 8203W        W12254   2.479   7.695   0.839  0.0984  0.4717 -0.1873
 8204W        W12255   0.058   0.803  13.441 -0.0961 -0.3050  0.0718
 8205W        W12256   6.093   8.440  10.882 -0.0612  0.0022  0.2793
 8206W        W12257   9.488   3.044  11.736 -0.1222  0.1582 -0.0149
 8207W        W12258   8.608   7.645   0.039  0.0465 -0.0277 -0.3019
 8208W        W12259   7.523   7.473   5.191  0.0569 -0.0970 -0.0422
 8209W        W12260   7.042   2.976   2.395  0.1054  0.2212 -0.2195
 8210W        W12261   4.470   9.650   1.961  0.1286 -0.1328 -0.1509
 8211W        W12262   4.786   8.372   9.562 -0.0410  0.1666  0.0224
 8212W        W12263   7.046   5.860   8.657 -0.0732  0.0823 -0.1640
 8213W        W12264   6.825   7.407   0.462  0.1439 -0.2480  0.0363
 8214W        W12265   6.418   9.653   3.423 -0.0635 -0.0808  0.1230
 8215W        W12266   1.780   2.561   4.818  0.1821 -0.1915 -0.1770
 8216W        W12267   6.743   7.685  13.916  0.3484  0.0200 -0.1090
 8217W        W12268   4.076   8.711   2.262  0.3816  0.0311 -0.1152
 8218W        W12269   6.991   5.671  12.257  0.0276 -0.4803  0.3007
 8219W        W12270   7.456   8.393   4.813 -0.0735 -0.1343 -0.1113
 8220W        W12271   9.573  10.054   3.846 -0.4461 -0.2890  0.0723
 8221W        W12272   8.593   0.250  12.685 -0.2623  0.2390  0.4413
 8222W        W12273   5.820   5.972   0.268  0.1051  0.2166 -0.1465
 8223W        W12274   1.511   5.703   3.847 -0.1349 -0.2544  0.1475
 8224W        W12275   6.501   2.329   9.239 -0.0672 -0.1171  0.2064
 8225W        W12276   7.823   0.892  11.859  0.0222 -0.2154  0.4399
 8226W        W12277   5.135   1.990   4.858 -0.3162 -0.0385 -0.0625
 8227W        W12278   0.333   4.686   9.078  0.1477  0.1795 -0.1433
 8228W        W12279   2.659   6.730   1.939  0.0595 -0.1396  0.0125
 8229W        W12280   1.494   4.744  10.651  0.1628 -0.3486 -0.0769
 8230W        W12281   5.387   8.513  12.334  0.2499 -0.1490  0.1956
 8231W        W12282   9.494   2.600   2.981  0.1140 -0.1916  0.0523
 8232W        W12283   2.085   9.474   0.996  0.3007 -0.2452 -0.0619
 8233W        W12284   3.820   6.781   9.731 -0.1052  0.0200  0.1929
 8234W        W12285   1.500   8.559   9.806 -0.0874  0.0849  0.1936
 8235W        W12286   9.366   0.981   3.669 -0.0452  0.2270 -0.0481
 8236W        W12287   8.714   1.950   3.724 -0.2446 -0.3178 -0.3398
 8237W        W12288   4.111   7.261  13.647  0.1289  0.1103  0.1442
 8238W        W12289   8.572   4.068  11.996 -0.1009 -0.2890 -0.1447
 8239W        W12290   7.658   6.698   4.463  0.1064  0.0117  0.0308
 8240W        W12291   3.889   2.440  11.705  0.0288 -0.0057  0.0036
 8241W        W12292   6.172   1.292   3.240  0.0283  0.0671 -0.0284
 8242W        W12293   4.375   9.032   2.658  0.2268  0.0488 -0.0917
 8243W        W12294   2.104   9.694  11.375  0.0777 -0.0467  0.0650
 8244W        W12295   4.895   6.777  12.668 -0.2010  0.3329  0.0560
 8245W        W12296   4.216   3.542   0.767 -0.0635 -0.2786 -0.0872
 8246W        W12297   3.293   7.081   2.840 -0.1061  0.1459 -0.2244
 8247W        W12298   2.071   2.873  11.284  0.2230  0.0163  0.0933
 8248W        W12299   6.018   6.539  13.059  0.2737  0.0815  0.1291
 8249W        W12300   8.338   5.397   1.324 -0.0428 -0.2325 -0.0308
 8250W        W12301   7.560   7.517  10.349 -0.1945 -0.1253 -0.0581
 8251W        W12302   0.738   5.320  12.606  0.2386 -0.0197 -0.0942
 8252W        W12303   8.403   3.527   3.619 -0.1895  0.2462  0.1929
 8253W        W12304   4.952   7.208  11.762 -0.0149  0.0772 -0.0416
 8254W        W12305   8.663   5.218   0.956 -0.0249 -0.0628 -0.3267
 8255W        W12306   4.236   2.262  11.357 -0.0781  0.0136 -0.1106
 8256W        W12307   6.473   3.898   2.332  0.0337 -0.0388  0.1333
 8257W        W12308   2.892   6.655  11.102 -0.3819 -0.3096 -0.3323
 8258W        W12309   9.910   2.092   2.420  0.0086  0.2247  0.1214
 8259W        W12310   6.833   4.903   1.503  0.0289  0.0438  0.0386
 8260W        W12311   0.091   6.384  10.121 -0.5931 -0.2715 -0.0187
 8261W        W12312   1.819   8.999   5.594 -0.0960 -0.0402 -0.0495
 8262W        W12313   2.482   2.099   9.624 -0.0150 -0.0710 -0.1043
 8263W        W12314   7.361   3.757  13.235 -0.0949 -0.2385 -0.4937
 8264W        W12315   0.547   1.786   0.902  0.3098 -0.1211 -0.0204
 8265W        W12316   8.788   0.213   2.726 -0.1328 -0.0889 -0.0924
 8266W        W12317   1.956   1.502  13.251  0.0518 -0.0668 -0.0008
 8267W        W12318   5.863   0.653   2.222 -0.2300 -0.0900  0.0973
 8268W        W12319   4.947   9.333   5.413 -0.0185  0.1624  0.3072
 8269W        W12320   0.503   7.975  12.410 -0.0468  0.0662  0.1941
 8270W        W12321   1.212   0.239   3.978  0.0582 -0.4949  0.2075
 8271W        W12322   2.784   6.282   9.727  0.0443  0.1293  0.2501
 8272W        W12323   0.752   5.056  10.797 -0.2985 -0.0892  0.0585
 8273W        W12324   1.786   3.398   5.156  0.3163  0.0529  0.1899
 8274W        W12325   9.629   9.881   0.198 -0.6852  0.1539  0.2131
 8275W        W12326   4.397   5.149   9.627  0.4370 -0.0415 -0.0865
 8276W        W12327   2.646   4.110   4.733  0.1233 -0.0525 -0.1256
 8277W        W12328   3.442   4.499   4.924  0.0888  0.0230  0.1015
 8278W        W12329   5.909   0.659   3.887  0.0758  0.1243 -0.1606
 8279W        W12330   5.986   4.363  12.896 -0.3345 -0.0991 -0.2105
 8280W        W12331   3.299   3.469   4.327  0.1774 -0.0046 -0.0134
 8281W        W12332   1.944   2.179   1.881 -0.3006 -0.2159 -0.1992
 8282W        W12333   3.486   5.608   0.805  0.1733  0.1064 -0.2313
 8283W        W12334   0.180   8.889   2.857 -0.0502 -0.3429 -0.2215
 8284W        W12335   6.178   7.537  10.142  0.2648 -0.1539  0.0421
 8285W        W12336   9.810   4.746   3.739 -0.0185 -0.0202 -0.1495
 8286W        W12337   5.723   7.979   3.620  0.3505  0.0608 -0.1191
 8287W        W12338   4.962   0.614   2.488  0.0127  0.0395  0.1660
 8288W        W12339   9.052   6.815   3.388  0.1553  0.2675 -0.2813
 8289W        W12340   4.823   3.142   2.717  0.1664 -0.1956 -0.2931
 8290W        W12341   6.111   9.478   0.514  0.0547  0.1191  0.0880
 8291W        W12342   1.790   7.710  13.391  0.2313  0.0227 -0.0770
 8292W        W12343   4.253   0.145  12.050  0.2420  0.0755 -0.0185
 8293W        W12344   3.000   0.305  10.794 -0.0309 -0.0803  0.2092
 8294W        W12345   8.906   5.178  12.704  0.0439 -0.1380  0.0748
 8295W        W12346   7.734   8.577  11.969 -0.2991  0.5836 -0.0957
 8296W        W12347   4.050   3.867  11.038 -0.2171  0.0202  0.1819
 8297W        W12348   4.927   3.411   4.187  0.2763 -0.4251 -0.1186
 8298W        W12349   7.196   3.687   1.139 -0.0722 -0.1307  0.0226
 8299W        W12350   6.849  10.009  13.740 -0.1216  0.0483 -0.2780
 8300W        W12351   4.189   7.857  13.947  0.0945  0.1473  0.0065
 8301W        W12352   2.841   0.713   3.434  0.5425 -0.0974 -0.0239
 8302W        W12353   3.886   1.895   0.168 -0.1623  0.0919 -0.0532
 8303W        W12354   9.329   0.386   3.456 -0.0943 -0.1046  0.1800
 8304W        W12355   7.117   5.320  11.917 -0.3011 -0.0061  0.2199
 8305W        W12356   7.943   6.142   0.686  0.0576  0.0434 -0.0231
 8306W        W12357   4.747   8.640  11.777 -0.0944 -0.0599 -0.1166
 8307W        W12358   2.006   6.392  13.436  0.3832 -0.1822 -0.0702
 8308W        W12359   5.423   5.818   0.620 -0.0776  0.0012 -0.1386
 8309W        W12360   8.290   5.321  12.639 -0.0518  0.2998  0.1823
 8310W        W12361   5.981   2.833   3.454 -0.1426 -0.0592 -0.0759
 8311W        W12362   4.224   6.821   3.340  0.1521 -0.1157  0.0646
 8312W        W12363   2.362   4.388   9.713 -0.2580 -0.1926  0.0413
 8313W        W12364   5.308   5.361   3.818  0.0261 -0.1107 -0.1941
 8314W        W12365   1.511   6.130   3.480 -0.0778 -0.1686  0.1121
 8315W        W12366   8.603   8.327   1.657  0.0961 -0.5314  0.0482
 8316W        W12367   5.951   9.342  10.853  0.0208  0.0120  0.0920
 8317W        W12368   2.639   8.249   4.622 -0.0088  0.0834 -0.0288
 8318W        W12369   0.841   9.570  11.728  0.0370 -0.0567  0.1272
 8319W        W12370   4.360   5.853  12.881 -0.1278  0.1307 -0.2197
 8320W        W12371   5.349   7.021   1.495  0.1517  0.0413  0.0257
 8321W        W12372   5.910   7.046  10.801  0.0910  0.1222  0.0428
 8322W        W12373   7.748   6.791   1.483 -0.1419  0.0824  0.1030
 8323W        W12374   9.568   2.754   1.357  0.2160  0.0851  0.2278
 8324W        W12375   8.399   0.436   4.607  0.3715 -0.0496 -0.2022
 8325W        W12376   6.696   8.879   4.851  0.1462  0.1136 -0.1553
 8326W        W12377   8.730   1.335  10.576  0.0561 -0.0461  0.1463
 8327W        W12378   2.675   5.852  10.098  0.2988 -0.1074 -0.0677
 8328W        W12379   2.198   3.899  13.011  0.3712  0.1124  0.0086
 8329W        W12380   7.607   6.357   2.778 -0.0731  0.0095 -0.0567
 8330W        W12381   3.718   5.020   5.658  0.0046 -0.1777  0.3804
 8331W        W12382   2.854  10.057   9.809  0.4235  0.0822  0.0202
 8332W        W12383   8.902   5.943   1.577 -0.1736 -0.1619 -0.1369
 8333W        W12384   1.773   0.596   2.933  0.0080  0.1141  0.1310
 8334W        W12385   4.495   5.484   4.078  0.2908 -0.2024 -0.0172
 8335W        W12386   6.086  10.180   2.793  0.2361  0.1321  0.1794
 8336W        W12387   5.620   8.443  10.793  0.0165 -0.2502 -0.1523
 8337W        W12388   1.381   3.932   9.163 -0.2823 -0.1184 -0.0234
 8338W        W12389   9.645   1.017  12.363 -0.1861 -0.0357 -0.4290
 8339W        W12390   0.759   7.856   4.482  0.0515  0.0150 -0.0163
 8340W        W12391   4.705   5.043  12.981 -0.2750 -0.2601 -0.0686
 8341W        W12392   0.946   7.746   2.056  0.0636 -0.0798 -0.0992
 8342W        W12393   3.441   2.129  13.668  0.2500 -0.1723 -0.2282
 8343W        W12394   7.058   6.839  10.480  0.1834 -0.0058 -0.3597
 8344W        W12395   9.099   7.299   0.753  0.0181 -0.0695 -0.0862
 8345W        W12396   8.163   3.439   9.971  0.1728 -0.1727  0.0623
 8346W        W12397   7.737   0.278  12.370  0.0030  0.0066 -0.1009
 8347W        W12398   0.167   1.755   3.744  0.3946  0.0186  0.0834
 8348W        W12399   8.102   6.380   9.805 -0.1846 -0.0282 -0.1124
 8349W        W12400   8.551   2.994  12.488 -0.1482 -0.1590  0.1287
 8350W        W12401   3.731   4.502   9.951 -0.2193  0.1126  0.2538
 8351W        W12402   3.933   2.969   1.715  0.1293 -0.1832  0.1059
 8352W        W12403   4.117   0.562   4.629 -0.0089 -0.1835 -0.0158
 8353W        W12404   5.702   9.218   2.936  0.2364 -0.1044 -0.1545
 8354W        W12405   1.956   8.320   4.272 -0.1560 -0.0369  0.1446
 8355W        W12406   6.617   7.284   9.291 -0.0445 -0.1568  0.1471
 8356W        W12407   4.930   5.698   0.828 -0.0427  0.0026  0.1317
 8357W        W12408   3.318   4.609   0.718  0.1595  0.0125  0.2950
 8358W        W12409   9.860   4.182   1.553 -0.1202  0.0499  0.0168
 8359W        W12410   8.304   9.141  13.412  0.0913 -0.1570  0.1876
 8360W        W12411   8.431   8.195  13.627 -0.3183 -0.1231 -0.0055
 8361W        W12412   1.694   2.913  12.201 -0.0032 -0.0797  0.0954
 8362W        W12413   8.721   1.719  10.989  0.0495  0.5922  0.0203
 8363W        W12414   4.679   7.679  12.000 -0.2420 -0.3086 -0.0430
 8364W        W12415   6.854   5.094  13.724 -0.0942 -0.0176 -0.2045
 8365W        W12416   3.139   9.016   4.895 -0.0968  0.0527 -0.1551
 8366W        W12417   4.943   3.873  10.903  0.1304 -0.0665  0.0146
 8367W        W12418   2.925   5.518  10.441  0.2486  0.0176  0.2697
 8368W        W12419   8.760   6.629   8.930 -0.4853 -0.0101  0.2123
 8369W        W12420   5.462   6.849   2.954  0.0457  0.0331  0.0823
 8370W        W12421   3.562   7.893   2.252 -0.0366  0.2554 -0.0894
 8371W        W12422   5.597   3.836   5.307  0.0554 -0.0059 -0.0004
 8372W        W12423   8.663   5.474  13.065 -0.0757 -0.1012  0.3827
 8373W        W12424   7.397   9.426  10.165  0.0621 -0.1617  0.0705
 8374W        W12425   3.851   0.075  13.904  0.0546  0.2809  0.3184
 8375W        W12426   5.835   5.515  11.074  0.2069  0.0798  0.3267
 8376W        W12427   1.354   5.039   0.407  0.3039 -0.1399 -0.3497
 8377W        W12428   7.819   3.346  11.416 -0.0448  0.2275  0.0311
 8378W        W12429   5.051   6.809  11.170 -0.0915 -0.1638 -0.3446
 8379W        W12430   4.089   0.013   4.560  0.0307 -0.1807  0.1334
 8380W        W12431   4.702   9.719  13.107 -0.1925 -0.3061 -0.0899
 8381W        W12432   5.576   4.289  12.609 -0.2331  0.1043 -0.1709
 8382W        W12433   6.463   8.786   0.077  0.0774 -0.0015 -0.1479
 8383W        W12434   1.851   9.851   3.056 -0.2428  0.1100  0.0672
 8384W        W12435   1.050   7.166   4.850 -0.0232  0.3416 -0.2079
 8385W        W12436   4.357   9.242  13.875 -0.2960 -0.2425  0.1687
 8386W        W12437   6.416   2.805   9.125  0.4119 -0.0652  0.0268
 8387W        W12438   7.831   3.977  13.916 -0.0398  0.0797  0.0877
 8388W        W12439   3.648   3.856   0.075 -0.0362  0.0618  0.0213
 8389W        W12440   1.484   2.858  10.313  0.1527 -0.1074 -0.0553
 8390W        W12441   5.379   4.766   0.774  0.2856 -0.1152  0.1542
 8391W        W12442   5.749   8.535   2.354  0.1523  0.0963  0.0417
 8392W        W12443   6.214   7.853   5.375 -0.1366 -0.1691  0.0034
 8393W        W12444   6.625   8.510  12.782 -0.1015 -0.0567  0.0754
 8394W        W12445   9.829   2.621   2.539  0.1622  0.0150 -0.0531
 8395W        W12446   5.636   9.595   4.162 -0.0491  0.4360 -0.2576
 8396W        W12447   9.634   3.206  10.211 -0.1179  0.4225 -0.0887
 8397W        W12448   1.176   2.111   0.110 -0.0282 -0.1449  0.0807
 8398W        W12449   1.586   3.867  10.598  0.0214  0.1087 -0.2927
 8399W        W12450   4.799   7.665   2.533 -0.0334  0.0770 -0.1904
 8400W        W12451   4.666   2.226  10.666 -0.0441  0.1592 -0.2367
 8401W        W12452   8.620   0.235   3.626  0.3513  0.2804  0.0951
 8402W        W12453   1.951   3.117   1.975 -0.1687 -0.0082 -0.0382
 8403W        W12454   3.394   3.335   1.247  0.0123 -0.3313  0.1193
 8404W        W12455   7.074   1.174   2.889  0.0886  0.1899 -0.1876
 8405W        W12456   7.771   2.028  12.776  0.1719  0.0311  0.0166
 8406W        W12457   3.254   4.037  11.333 -0.2797 -0.1419 -0.0348
 8407W        W12458   4.218   2.063  10.903  0.0971  0.1002  0.1622
 8408W        W12459   5.212   5.669  10.293 -0.1248  0.1297  0.0205
 8409W        W12460   0.617   1.389  12.782  0.1418  0.1214  0.1596
 8410W        W12461   1.236  10.136   0.397  0.1646  0.1915  0.0064
 8411W        W12462   6.289   9.679   1.002  0.0841 -0.2473 -0.0337
 8412W        W12463   7.743   5.367   1.277  0.0932  0.0350  0.0025
 8413W        W12464   8.073   9.282   9.700  0.3517  0.1071  0.0200
 8414W        W12465   0.328   0.214   1.497 -0.3014  0.2498  0.0312
 8415W        W12466   9.797   6.381  13.069 -0.2946 -0.2342  0.2719
 8416W        W12467   9.686   8.762   9.508  0.2582  0.0787 -0.3052
 8417W        W12468   4.252   7.512   9.775  0.0636  0.2573 -0.1102
 8418W        W12469   8.166   3.414   1.251 -0.1613 -0.0299  0.1546
 8419W        W12470   2.225   0.055  12.978  0.1025 -0.1989  0.3006
 8420W        W12471   8.168   0.169   3.832 -0.0769 -0.2947  0.1796
 8421W        W12472   9.390   4.983   4.791  0.0161 -0.0070 -0.0725
 8422W        W12473   5.588   4.514  10.944 -0.1198  0.1447  0.0227
 8423W        W12474   5.527   1.929   0.354  0.3541 -0.2027  0.1011
 8424W        W12475   0.841   1.189  12.312 -0.0760  0.1852 -0.2383
 8425W        W12476   6.447   0.647   0.449 -0.1214 -0.3035  0.0492
 8426W        W12477   4.067   3.216   1.155  0.0378 -0.0617 -0.5464
 8427W        W12478   1.270   3.451  11.372 -0.1039 -0.0266  0.0855
 8428W        W12479  10.191   7.794   0.143 -0.2232  0.1497  0.0347
 8429W        W12480   7.447   7.584   4.357  0.0027  0.0777 -0.0431
 8430W        W12481   0.994   2.664   4.182 -0.1296  0.1285  0.2720
 8431W        W12482   9.841   6.544  10.281  0.2722 -0.2417 -0.1123
 8432W        W12483   8.174   9.109   2.148 -0.2330  0.1096 -0.1205
 8433W        W12484   0.009   6.914  10.294  0.0363  0.0638  0.3001
 8434W        W12485   7.644   5.869   2.903 -0.2967 -0.3830  0.2879
 8435W        W12486   6.058   2.781   4.036 -0.3925  0.1303 -0.4478
 8436W        W12487   0.406   2.934  10.477  0.1544  0.1357 -0.2131
 8437W        W12488   0.133   9.114  11.351  0.0770 -0.0077  0.3152
 8438W        W12489   2.787   6.088   5.049  0.0692 -0.0750 -0.2457
 8439W        W12490   8.362   9.339   4.218  0.0409 -0.0119 -0.1566
 8440W        W12491   4.755   7.557   5.012  0.1539  0.1548 -0.0160
 8441W        W12492   7.823   3.267   2.044 -0.0502  0.0842 -0.4540
 8442W        W12493   6.762   4.703  12.364 -0.0331  0.4756  0.2495
 8443W        W12494   5.951   1.699   4.374  0.2052 -0.1776  0.0485
 8444W        W12495   2.902   6.440   0.447 -0.2251 -0.0815 -0.0414
 8445W        W12496   4.440   5.438   0.689  0.1473 -0.0463 -0.2240
 8446W        W12497   9.732   5.793   0.795 -0.1609 -0.0933 -0.2615
 8447W        W12498   2.526   5.023  12.407  0.0775 -0.1358 -0.1609
 8448ION    NA+12499   8.396   8.910  11.933  0.4480  0.2013 -0.1374
 8449ION    NA+12500   1.400   8.061  11.287  0.2439 -0.3292  0.1318
 8450ION    NA+12501   8.610   7.741   5.174 -0.1485  0.1245 -0.1090
 8451ION    NA+12502   4.761   1.230  11.018 -0.0776  0.3029  0.1593
 8452ION    NA+12503   1.331   1.101   1.362 -0.2092  0.0129 -0.0268
 8453ION    NA+12504   9.164   8.665  11.213 -0.2066  0.1617  0.4332
 8454ION    NA+12505   6.621   0.087   0.400 -0.0957  0.0871 -0.1337
 8455ION    NA+12506   7.886   9.162   9.251  0.1727  0.1693  0.0666
 8456ION    NA+12507   3.219   3.973  12.986 -0.1931  0.2414 -0.1214
 8457ION    NA+12508   6.577   4.337   9.310  0.2372 -0.0306  0.0626
 8458ION    NA+12509   6.662   0.528   9.840 -0.0054  0.2273  0.1979
 8459ION    NA+12510   6.314   2.317   2.790 -0.1420  0.0939 -0.0341
 8460ION    NA+12511   9.733   6.350   8.950 -0.3057 -0.1248  0.2584
 8461ION    NA+12512   3.338   7.713  12.574 -0.2616 -0.1119 -0.0762
 8462ION    NA+12513   8.130   3.137  12.268 -0.0045  0.0455  0.1377
 8463ION    NA+12514   7.883   5.966  11.803  0.0539 -0.1048 -0.2836
 8464ION    NA+12515   7.813   0.840   4.083  0.0621 -0.2737  0.0699
 8465ION    NA+12516   1.980   7.569   0.854  0.1229  0.2388  0.0464
 8466ION    NA+12517   1.377   4.965   1.829 -0.3383 -0.0715  0.3616
 8467ION    NA+12518   1.427   3.283  12.464 -0.2775 -0.0247 -0.0530
 8468ION    NA+12519   8.886   7.578  12.127 -0.2482  0.2132  0.0699
 8469ION    NA+12520   6.095   7.347   9.363 -0.1281  0.0377 -0.0344
 8470ION    NA+12521   2.383   8.629  11.822  0.3601 -0.0233  0.1712
 8471ION    NA+12522   4.359   0.018   8.813  0.0535 -0.3271  0.1787
 8472ION    NA+12523   2.389   3.807   3.459 -0.0624  0.1816  0.0220
 8473ION    NA+12524   6.256   0.392   4.647 -0.1960  0.1167  0.0811
 8474ION    NA+12525   2.611   8.031   0.490 -0.1392  0.0435  0.1689
 8475ION    NA+12526   6.032   3.336   3.204 -0.0846 -0.1725  0.2631
 8476ION    NA+12527   3.977   5.258   0.635  0.1077  0.1811  0.0969
 8477ION    NA+12528   6.932   8.382  11.701 -0.1682 -0.0812 -0.1209
 8478ION    NA+12529   3.042   4.874  12.339 -0.0306 -0.0237 -0.0387
 8479ION    NA+12530   9.621   4.388  10.781  0.1028  0.0602 -0.1188
 8480ION    NA+12531   2.459   9.166   9.393  0.0052  0.0638 -0.0586
 8481ION    NA+12532   3.751   3.168  10.260  0.2825  0.1183 -0.1797
 8482ION    NA+12533   7.512   3.782   0.279 -0.0335 -0.0807  0.1787
 8483ION    NA+12534   3.519   3.007   8.927 -0.0611 -0.1029  0.0619
 8484ION    NA+12535   5.320   4.549   4.180  0.0760 -0.2111 -0.0376
 8485ION    NA+12536   4.040   4.737   4.871  0.1681  0.2258 -0.0177
 8486ION    NA+12537   4.312   5.096  11.659 -0.1474  0.0777  0.0398
 8487ION    NA+12538   8.969   9.498  13.849  0.4471  0.1073  0.1008
 8488ION    NA+12539   6.067   9.245  13.625 -0.1153  0.2062  0.1416
 8489ION    NA+12540  10.167   4.033   0.864 -0.0556 -0.0335  0.0526
 8490ION    NA+12541   2.584   8.272  13.149  0.3006  0.0361  0.0975
 8491ION    NA+12542   6.452   4.041   5.043  0.0169  0.3163  0.2018
 8492ION    NA+12543   2.536   7.402   5.102  0.0838 -0.1910 -0.0875
 8493ION    NA+12544   2.296   4.765   3.290  0.0082  0.0448 -0.2309
 8494ION    NA+12545   2.697   7.573  13.565  0.0962 -0.4993  0.1071
 8495ION    NA+12546   8.014   3.542   3.361 -0.3504 -0.0499  0.0952
 8496ION    NA+12547   6.878   2.418   3.256  0.0367  0.0640 -0.0651
 8497ION    NA+12548   2.039   9.051  13.499  0.0316 -0.5029  0.0612
 8498ION    NA+12549   1.937   3.764   2.091  0.2148  0.2466  0.2180
 8499ION    NA+12550   0.923   2.541  11.086 -0.0712 -0.1359  0.1934
 8500ION    NA+12551   0.881   2.412   9.695  0.0124  0.1702 -0.3139
 8501ION    NA+12552   9.017   2.207   0.032 -0.2707 -0.1525  0.0615
 8502ION    NA+12553   9.595   4.442   4.639 -0.1920 -0.2175 -0.0941
 8503ION    NA+12554   7.235   8.258   9.129  0.1821  0.3658 -0.0044
 8504ION    NA+12555   7.161   7.135   5.208 -0.0786  0.4053 -0.1635
 8505ION    NA+12556  10.113   4.336   3.587 -0.0806  0.1703  0.2010
 8506ION    NA+12557   3.736   0.876   2.655  0.2182 -0.0784 -0.0606
 8507ION    NA+12558   4.068   9.572   5.314 -0.0898 -0.0672 -0.2024
 8508ION    NA+12559   7.008   5.880  13.064 -0.2895 -0.0353  0.0387
 8509ION    NA+12560   7.326   7.562  13.762  0.0079  0.0546 -0.0226
 8510ION    NA+12561   7.889   9.919  13.901 -0.2055 -0.3516 -0.0785
 8511ION    NA+12562   8.351   0.876  13.175 -0.0946  0.0033 -0.2473
 8512ION    NA+12563   3.020   2.369  10.072  0.0025  0.0837  0.2318
 8513ION    NA+12564   1.796  10.163   2.200 -0.1235  0.3430 -0.1022
 8514ION    NA+12565   5.175   2.653  13.208  0.0317  0.3657 -0.3649
 8515ION    NA+12566   9.264   4.498   2.536  0.1787 -0.0046 -0.1132
 8516ION    NA+12567   6.780   5.139  10.684 -0.0024  0.0069  0.2955
 8517ION    NA+12568   4.203   1.333   1.652  0.0779 -0.0115  0.1056
 8518ION    NA+12569   4.226   9.448  12.452 -0.1577 -0.0737  0.1511
 8519ION    NA+12570   5.495   8.339  13.193 -0.3091 -0.2355  0.0226
 8520ION    NA+12571   3.534   0.685   3.954  0.1750  0.2767 -0.0621
 8521ION    NA+12572   3.367   1.977   2.770 -0.0884 -0.0046  0.1760
 8522ION    NA+12573   8.713   3.684   1.087  0.0090 -0.1094 -0.0733
 8523ION    NA+12574   8.926   4.789   4.811 -0.0947  0.2562  0.3567
 8524ION    NA+12575   3.466   8.790  12.330 -0.1224 -0.0156 -0.3060
 8525ION    NA+12576   8.823   9.259   0.609 -0.2226 -0.2316 -0.0188
 8526ION    NA+12577   2.450   4.130  12.040  0.0900  0.3341  0.2833
 8527ION    NA+12578   8.749   5.632  10.728 -0.1424  0.0668 -0.0301
 8528ION    NA+12579   5.335   6.565   9.377  0.0572 -0.0403  0.0066
 8529ION    NA+12580   1.761   2.810  11.700 -0.2988  0.2643  0.0659
 8530ION    NA+12581   3.970   4.161   2.887 -0.0626  0.1007 -0.2103
 8531ION    NA+12582   6.507   5.785   1.837 -0.0446  0.0118 -0.1241
 8532ION    NA+12583   5.852   8.820   5.319  0.1824  0.0558  0.1015
 8533ION    NA+12584   4.991   1.393   1.940 -0.0260 -0.0024 -0.0300
 8534ION    NA+12585   4.450   4.070   3.562 -0.1644 -0.0348 -0.0733
 8535ION    NA+12586   5.345   6.066   2.582 -0.0605 -0.0434 -0.0205
 8536ION    NA+12587   2.946   7.007   0.286  0.1673  0.2231 -0.2039
 8537ION    CL-12588  10.075   4.528  10.571 -0.0502  0.0047  0.2363
 8538ION    CL-12589   8.312   5.556  10.469  0.0144  0.1014  0.2168
 8539ION    CL-12590   9.566   8.326  11.299 -0.3616  0.0251  0.0018
 8540ION    CL-12591   9.072   6.023  10.607  0.3496  0.2125  0.1398
 8541ION    CL-12592   8.305   2.680   2.698 -0.2503 -0.1957  0.0139
 8542ION    CL-12593   6.149   6.029   2.057 -0.1881 -0.1042 -0.1082
 8543ION    CL-12594   8.542   2.419   0.228  0.0689  0.3299 -0.0160
 8544ION    CL-12595   4.784   2.611  12.850 -0.0652  0.0784  0.3149
 8545ION    CL-12596   4.601   8.162  10.152  0.0728  0.4296  0.1499
 8546ION    CL-12597   4.316   4.369   3.180  0.1557  0.0497 -0.0653
 8547ION    CL-12598   4.188   5.075   4.593  0.0827  0.0248  0.0202
 8548ION    CL-12599   2.984   5.260  12.720  0.0236  0.2344  0.0329
 8549ION    CL-12600   4.482   1.342   2.100 -0.3361 -0.2747  0.1596
 8550ION    CL-12601   7.635   8.289   1.343  0.1873 -0.1836  0.0717
 8551ION    CL-12602  10.132   3.049   2.699  0.0995 -0.0218 -0.2924
 8552ION    CL-12603   4.300   9.835  12.192  0.0740 -0.1914  0.0873
 8553ION    CL-12604   9.939   6.766   0.792 -0.1768 -0.2137  0.0531
 8554ION    CL-12605  10.116   7.987   4.478 -0.1728  0.3693 -0.2097
 8555ION    CL-12606   4.691   0.976   1.007  0.0766 -0.0781 -0.1715
 8556ION    CL-12607   7.425   9.072  11.859  0.1633 -0.3065  0.1887
 8557ION    CL-12608   6.325   2.807  11.166 -0.1717  0.1608  0.0733
 8558ION    CL-12609   2.152   8.010   0.746 -0.1212 -0.1245  0.2098
 8559ION    CL-12610   4.892   4.404   3.888 -0.2794  0.1752  0.1254
 8560ION    CL-12611   2.299   5.609   3.027 -0.0366  0.2386 -0.2622
 8561ION    CL-12612   7.812   3.637   4.004  0.0747 -0.1012 -0.4548
 8562ION    CL-12613   2.587   7.786  13.077  0.0517 -0.0498  0.0399
 8563ION    CL-12614   9.338   3.977  10.723 -0.1910  0.2947  0.2583
 8564ION    CL-12615   6.124   3.369   2.257 -0.0121 -0.0847  0.2290
 8565ION    CL-12616   6.828   1.203   4.088 -0.3368  0.0382 -0.1124
 8566ION    CL-12617   8.638   2.522   1.197  0.0892  0.2156  0.0451
 8567ION    CL-12618   6.808   2.555   2.721  0.0048 -0.3812  0.0881
 8568ION    CL-12619   9.134   3.808  13.256 -0.1688  0.1430  0.0745
 8569ION    CL-12620   3.896   3.354   3.291 -0.0531 -0.0727  0.0274
 8570ION    CL-12621   2.400   4.315   3.441 -0.1256 -0.1255  0.1103
 8571ION    CL-12622   3.688   0.807   4.446  0.1655  0.0207 -0.1224
 8572ION    CL-12623   4.507   3.661  11.112  0.1446  0.0048 -0.0411
 8573ION    CL-12624   1.310  10.080   1.713 -0.2252  0.1017  0.1995
 8574ION    CL-12625   6.193   1.792   2.905 -0.1578 -0.0806  0.2704
 8575ION    CL-12626   2.194   3.373   3.545 -0.0177  0.1931 -0.1032
 8576ION    CL-12627   3.651   9.872   2.917 -0.1419  0.0692  0.3956
 8577ION    CL-12628   3.128   5.676   4.684 -0.0385 -0.0040  0.1188
 8578ION    CL-12629   3.491   2.578  10.219 -0.1940 -0.1431 -0.0845
 8579ION    CL-12630   2.107   7.583   4.715  0.2519  0.0619  0.1050
 8580ION    CL-12631   4.166   9.674   0.388  0.0501  0.0247 -0.3923
 8581ION    CL-12632   8.377   4.241   0.559 -0.0955 -0.1539 -0.0452
 8582ION    CL-12633   1.689   7.694   1.229  0.0260  0.0392 -0.0568
 8583ION    CL-12634   3.775   4.711   1.611 -0.1717 -0.3697 -0.1003
 8584ION    CL-12635   2.673   4.589  12.178 -0.2474 -0.0721 -0.2466
 8585ION    CL-12636   1.322   2.661  11.792  0.1026 -0.1782 -0.0718
 8586ION    CL-12637   4.462   9.259  12.831 -0.1563  0.0151 -0.1500
 8587ION    CL-12638   7.931   0.143  13.596  0.0630  0.1894 -0.0887
 8588ION    CL-12639   2.850   6.918  13.804 -0.0262  0.1026  0.1376
 8589ION    CL-12640   7.970   9.346  13.747  0.0498  0.2852  0.0253
 8590ION    CL-12641   5.046   4.217   4.466  0.0734  0.0863  0.1559
 8591ION    CL-12642   9.175   5.969  12.072 -0.1857 -0.0026  0.1168
 8592ION    CL-12643   5.032   5.173   4.839  0.1984  0.2113 -0.1952
 8593ION    CL-12644   8.941   4.937   2.654 -0.1477 -0.0058  0.0312
 8594ION    CL-12645   6.943   9.997   0.762  0.2086  0.0489  0.1737
 8595ION    CL-12646   7.424   9.919   3.804 -0.1027 -0.1551  0.2122
 8596ION    CL-12647   3.663   7.400  12.327 -0.0577 -0.1965  0.0337
 8597ION    CL-12648   9.756   4.477   1.108  0.0188  0.0165  0.1955
 8598ION    CL-12649   3.045   2.900   4.343  0.1261 -0.1690  0.1041
 8599ION    CL-12650   4.317   9.474   4.874  0.0537 -0.1478 -0.0717
 8600ION    CL-12651   2.025   4.610  13.753 -0.3100  0.0794 -0.2811
 8601ION    CL-12652   5.023   9.144   9.854  0.0992  0.1748 -0.0555
 8602ION    CL-12653   5.970   9.563  10.335 -0.3496  0.1901 -0.0179
 8603ION    CL-12654   2.823   7.663  12.615  0.1622 -0.1713 -0.1573
 8604ION    CL-12655   5.873   6.838   9.384  0.0026  0.0982 -0.0975
 8605ION    CL-12656   3.195   1.965   4.214 -0.0565 -0.0521 -0.0322
 8606ION    CL-12657   1.511   3.778   2.343  0.3082  0.2106  0.3136
 8607ION    CL-12658   6.030   9.506  13.210  0.4141 -0.0785  0.0010
 8608ION    CL-12659   0.411   4.349   3.495  0.1926 -0.1198  0.0603
 8609ION    CL-12660   6.524   6.420   4.668 -0.1444 -0.0927 -0.1378
 8610ION    CL-12661   2.135   3.859  11.566  0.3198  0.0411  0.0612
 8611ION    CL-12662   0.100   5.323   2.230 -0.0091  0.0000 -0.1792
 8612ION    CL-12663   3.445   3.198   9.881 -0.8080  0.0555  0.0112
 8613ION    CL-12664   2.758   7.551   0.441 -0.2881 -0.3469 -0.0241
 8614ION    CL-12665   1.905   0.203   3.202  0.0758  0.0062  0.1158
 8615ION    CL-12666   8.922   7.569  12.597  0.2263  0.3011 -0.0493
 8616ION    CL-12667   7.531   0.492   2.145  0.4463 -0.0095 -0.3711
 8617ION    CL-12668   3.349   8.384  12.634  0.0837  0.1800 -0.0719
 8618ION    CL-12669   7.138   4.194   3.856  0.0087 -0.1423 -0.0543
 8619ION    CL-12670   2.367   8.658  13.302  0.2887  0.1296 -0.3379
 8620ION    CL-12671   5.875   8.568  12.941  0.1346  0.0518  0.0288
 8621ION    CL-12672   2.659   9.068   5.044  0.0725 -0.0878  0.2216
 8622ION    CL-12673   2.471   2.161   3.117  0.2908 -0.3235  0.0785
 8623ION    CL-12674   9.108   4.715  10.212 -0.0940 -0.2173  0.0741
 8624ION    CL-12675   9.671   6.932   5.082  0.2783  0.1204  0.0016
 8625ION    CL-12676   8.551   4.334   3.623  0.0180 -0.0663 -0.0977
  10.19188  10.19188  13.97166
