Protein in INSANE! Membrane UpperLeaflet>POPC=1.0 LowerLeaflet>POPC=1.0
12914
    1AU     AUC    1   4.954   0.838   6.710 -0.0458  0.1205  0.0438
    1AU     AUC    2   5.196   1.042   6.707 -0.0906 -0.0282  0.0283
    1AU     AUC    3   4.900   1.091   6.512 -0.0827  0.0149  0.0296
    1AU     AUC    4   4.966   0.587   6.897  0.0368  0.0563 -0.0024
    1AU     AUC    5   4.714   0.620   6.647  0.0320 -0.0695  0.0190
    1AU     AUC    6   5.014   0.534   6.583  0.0593  0.0382 -0.1217
    1AU     AUC    7   5.185   0.840   6.475 -0.0566 -0.0263 -0.0989
    1AU     AUC    8   4.753   0.839   6.926 -0.0700  0.0241 -0.0170
    1AU     AUC    9   4.878   1.149   6.821  0.0541 -0.0136 -0.0145
    1AU     AUC   10   4.650   0.970   6.634  0.1034 -0.0727  0.0352
    1AU     AUC   11   4.828   0.761   6.411  0.0036  0.0429  0.0401
    1AU     AUC   12   5.087   0.901   6.976  0.0383  0.0446  0.0580
    1AU     AUC   13   5.264   0.725   6.772  0.0459  0.0431  0.0152
    1AU     AUC   14   5.497   1.277   6.695  0.0558  0.0393  0.0417
    1AU     AUC   15   5.212   1.345   6.484  0.0360  0.0486 -0.0003
    1AU     AUC   16   4.905   1.374   6.299  0.0081 -0.0269 -0.0177
    1AU     AUC   17   4.950   0.338   7.098 -0.0533  0.0899 -0.0044
    1AU     AUC   18   4.691   0.339   6.884 -0.0020  0.0524  0.0257
    1AU     AUC   19   4.476   0.383   6.624  0.0745 -0.0720  0.0144
    1AU     AUC   20   5.129   0.243   6.448 -0.0259 -0.0336 -0.1560
    1AU     AUC   21   5.317   0.527   6.318 -0.0895 -0.0489  0.0082
    1AU     AUC   22   5.416   0.829   6.225 -0.0455 -0.0389 -0.0390
    1AU     AUC   23   4.524   0.803   7.191 -0.0723 -0.0357 -0.0029
    1AU     AUC   24   4.636   1.144   7.121  0.0295  0.1013 -0.0362
    1AU     AUC   25   4.816   1.433   6.984  0.0471  0.0442 -0.0982
    1AU     AUC   26   4.320   1.104   6.581  0.1001  0.0270 -0.0849
    1AU     AUC   27   4.480   0.902   6.319  0.0283 -0.0163 -0.0116
    1AU     AUC   28   4.724   0.755   6.101 -0.0604  0.0095 -0.0157
    1AU     AUC   29   5.191   0.970   7.285 -0.0815 -0.1009 -0.0426
    1AU     AUC   30   5.425   0.780   7.108  0.0017 -0.0670 -0.0130
    1AU     AUC   31   5.559   0.576   6.865 -0.0068 -0.0444 -0.0427
    1AU     AUC   32   4.549   1.282   6.444 -0.0237  0.0826  0.0854
    1AU     AUC   33   4.775   1.082   6.184  0.1132 -0.0631 -0.1051
    1AU     AUC   34   5.397   1.135   6.998  0.0134 -0.0458 -0.0094
    1AU     AUC   35   5.543   0.964   6.766 -0.0133 -0.0318  0.1178
    1AU     AUC   36   4.354   0.723   6.545 -0.0029 -0.0074 -0.0410
    1AU     AUC   37   4.585   0.511   6.330  0.0136  0.0403 -0.0212
    1AU     AUC   38   5.078   0.655   7.226 -0.0755  0.0847  0.0866
    1AU     AUC   39   5.275   0.431   7.045 -0.0763 -0.1066 -0.0155
    1AU     AUC   40   5.462   1.094   6.411  0.0289 -0.0557  0.0116
    1AU     AUC   41   5.127   1.107   6.241  0.0620 -0.0065  0.0585
    1AU     AUC   42   5.036   0.248   6.796 -0.0472  0.0442  0.0203
    1AU     AUC   43   4.791   0.289   6.519  0.0393  0.0465  0.0366
    1AU     AUC   44   5.150   1.367   6.837 -0.0057 -0.0135 -0.1288
    1AU     AUC   45   4.839   1.428   6.677 -0.0908 -0.0101 -0.0413
    1AU     AUC   46   4.681   0.557   7.193  0.0694  0.0458 -0.0078
    1AU     AUC   47   4.468   0.617   6.899  0.0902 -0.0538 -0.1395
    1AU     AUC   48   4.973   0.468   6.242  0.0544 -0.0701 -0.0166
    1AU     AUC   49   5.077   0.773   6.152  0.0223 -0.0375  0.1213
    1AU     AUC   50   4.417   0.976   6.890  0.0266 -0.0447  0.0255
    1AU     AUC   51   4.538   1.291   6.842 -0.0040  0.0902  0.0778
    1AU     AUC   52   5.357   0.399   6.677 -0.0835 -0.0866 -0.0133
    1AU     AUC   53   5.511   0.722   6.524 -0.0727 -0.0263 -0.0958
    1AU     AUC   54   4.838   0.875   7.267 -0.0503 -0.0014 -0.0241
    1AU     AUC   55   5.026   1.232   7.126  0.1018 -0.0071 -0.0303
    1AU    AUSL   56   4.551   1.426   6.115  0.0170 -0.0288  0.0579
    1AU    AUSL   57   4.317   1.488   6.500 -0.0427 -0.0403  0.0071
    1AU     AUL   58   4.371   1.698   6.199  0.0731 -0.0815  0.0268
    1AU       S   59   4.206   1.920   6.637  0.3722  0.0680 -0.3643
    1AU     LIG   60   3.790   2.057   6.683  0.1834 -0.0253 -0.0387
    1AU     LIG   61   3.318   2.162   6.827 -0.0533  0.2428  0.2558
    1AU     LIG   62   3.201   2.257   6.422  0.0829 -0.1067  0.2610
    1AU     LIG   63   2.882   2.477   6.294 -0.0675  0.1286 -0.0850
    1AU     LIG   64   2.504   2.032   6.347 -0.2394  0.1557 -0.0011
    1AU       S   65   4.022   1.474   5.977  0.0970 -0.3417  0.2366
    1AU     LIG   66   3.559   1.486   5.913 -0.0420  0.1381 -0.3437
    1AU     LIG   67   3.256   1.463   5.940  0.2440  0.1666  0.0393
    1AU     LIG   68   2.920   1.308   6.264  0.2102 -0.0511  0.2759
    1AU     LIG   69   3.001   1.279   6.669  0.0885 -0.2212 -0.1486
    1AU     LIG   70   3.284   1.145   6.963 -0.1001  0.0096  0.2149
    1AU    AUSL   71   4.194   1.157   6.257 -0.0586  0.0472 -0.0097
    1AU    AUSL   72   4.277   0.741   6.024  0.0274  0.0999  0.0637
    1AU     AUL   73   4.122   1.026   5.977  0.0199  0.0344  0.0349
    1AU       S   74   3.929   1.291   6.287  0.1831  0.1240 -0.2727
    1AU     LIG   75   3.663   1.711   6.320 -0.0580 -0.2928 -0.0731
    1AU     LIG   76   3.329   1.707   6.518 -0.0943  0.1408  0.2431
    1AU     LIG   77   2.917   1.742   6.539  0.1694 -0.2958  0.4882
    1AU     LIG   78   2.514   1.529   6.406  0.1605  0.1225  0.2573
    1AU     LIG   79   2.088   1.650   6.504  0.2612  0.3580  0.1221
    1AU       S   80   3.901   0.665   6.124  0.1171 -0.2228  0.3749
    1AU     LIG   81   3.491   0.802   5.995  0.0213  0.0984 -0.1622
    1AU     LIG   82   3.099   0.943   5.954 -0.0620  0.1098  0.5754
    1AU     LIG   83   2.870   1.218   5.743 -0.0184 -0.1085  0.2686
    1AU     LIG   84   2.638   1.512   5.936 -0.0913  0.1592  0.0552
    1AU     LIG   85   2.232   1.758   6.042 -0.1253  0.1807  0.1402
    1AU    AUSL   86   4.605   0.993   6.112 -0.0064  0.0810 -0.0366
    1AU    AUSL   87   4.888   1.296   5.882 -0.0154  0.0376  0.0146
    1AU     AUL   88   4.509   1.243   5.825  0.0442  0.0487  0.0063
    1AU       S   89   4.330   0.875   5.590 -0.3047 -0.1142 -0.3223
    1AU     LIG   90   4.072   0.960   5.332  0.1355  0.2119 -0.0879
    1AU     LIG   91   3.915   1.365   5.385  0.1235 -0.0644  0.0688
    1AU     LIG   92   3.580   1.651   5.423  0.2466 -0.1499  0.1309
    1AU     LIG   93   3.297   2.030   5.282 -0.0343 -0.1867 -0.1614
    1AU     LIG   94   3.263   2.436   5.186 -0.2356  0.1912 -0.4550
    1AU       S   95   4.855   1.400   5.527 -0.2880  0.2167  0.1299
    1AU     LIG   96   4.648   1.746   5.434 -0.0856  0.2463 -0.0070
    1AU     LIG   97   4.187   1.764   5.533 -0.1616  0.1356 -0.0416
    1AU     LIG   98   3.861   1.980   5.692  0.0727  0.5068  0.0150
    1AU     LIG   99   3.448   1.927   5.845  0.3992  0.0318  0.0656
    1AU     LIG  100   2.944   2.014   6.029  0.2956  0.3337 -0.3233
    1AU    AUSL  101   5.836   1.134   6.893 -0.0817  0.0492 -0.0659
    1AU    AUSL  102   5.740   0.797   6.620  0.0227  0.0250  0.0672
    1AU     AUL  103   6.067   0.827   6.774 -0.0542  0.0352 -0.0410
    1AU       S  104   6.151   1.018   7.194  0.1507  0.1533  0.2599
    1AU     LIG  105   6.505   0.904   7.343 -0.2915 -0.0545  0.3948
    1AU     LIG  106   6.709   0.641   6.986  0.1957  0.1079 -0.1584
    1AU     LIG  107   6.975   0.552   6.708  0.0341  0.2336 -0.2126
    1AU     LIG  108   7.150   0.393   6.561 -0.3016  0.1212  0.4470
    1AU     LIG  109   7.465   0.086   6.467 -0.2997 -0.3107  0.0520
    1AU       S  110   6.171   1.061   6.399 -0.2227  0.2389 -0.0285
    1AU     LIG  111   6.655   1.011   6.507 -0.1004  0.0073  0.3089
    1AU     LIG  112   6.946   1.407   6.578 -0.0269  0.1506 -0.2260
    1AU     LIG  113   6.700   1.726   6.909  0.2907  0.1551  0.2670
    1AU     LIG  114   6.476   2.073   6.843 -0.1948 -0.0979  0.3608
    1AU     LIG  115   6.526   2.485   6.670 -0.0734  0.0697 -0.1214
    1AU    AUSL  116   5.649   1.118   7.308 -0.0329 -0.0423 -0.0048
    1AU    AUSL  117   5.562   1.440   7.010  0.0345 -0.0128 -0.0231
    1AU     AUL  118   5.840   1.348   7.124  0.0939  0.0784 -0.0179
    1AU       S  119   5.682   1.746   7.251  0.3361  0.2838 -0.0772
    1AU     LIG  120   5.972   2.040   7.127  0.3732  0.2042 -0.2887
    1AU     LIG  121   5.877   2.198   6.755  0.0007 -0.1300  0.1884
    1AU     LIG  122   5.755   2.523   6.579  0.0289  0.0727  0.2684
    1AU     LIG  123   5.639   2.876   6.600 -0.0190 -0.1841  0.1570
    1AU     LIG  124   5.611   3.194   6.809 -0.3675  0.1246 -0.1426
    1AU       S  125   6.076   1.075   7.401  0.4911  0.2552 -0.0587
    1AU     LIG  126   6.420   1.379   7.283 -0.3032 -0.1868 -0.1455
    1AU     LIG  127   6.829   1.145   7.116 -0.2263  0.1643  0.1749
    1AU     LIG  128   7.220   0.950   7.014  0.2306  0.1521  0.1201
    1AU     LIG  129   7.382   0.861   6.590 -0.0427 -0.4950 -0.2863
    1AU     LIG  130   7.339   1.127   6.178  0.1385  0.1583 -0.0235
    1AU    AUSL  131   5.667   0.753   7.051 -0.0201  0.0463  0.0789
    1AU    AUSL  132   5.415   0.768   7.437  0.0082 -0.0126  0.0596
    1AU     AUL  133   5.681   0.884   7.519 -0.0264 -0.0348  0.1208
    1AU       S  134   5.638   0.546   7.773 -0.4127  0.0021  0.2065
    1AU     LIG  135   6.263   0.801   7.781  0.3294 -0.0077 -0.1824
    1AU     LIG  136   6.638   0.575   7.776 -0.0250 -0.0489 -0.4108
    1AU     LIG  137   6.996   0.254   7.664 -0.1199  0.1655 -0.2090
    1AU     LIG  138   7.453   0.262   7.608 -0.5134  0.2511 -0.2956
    1AU     LIG  139   7.675   0.162   7.268  0.5705 -0.0570  0.0879
    1AU       S  140   6.011   0.763   7.225 -0.1811  0.1549  0.3100
    1AU     LIG  141   6.324   0.451   7.404 -0.1168 -0.1307  0.3633
    1AU     LIG  142   6.587   0.148   7.183 -0.4161 -0.1344  0.1959
    1AU     LIG  143   6.756   0.105   6.773 -0.2077 -0.2736  0.1964
    1AU     LIG  144   6.544   0.191   6.411  0.1231 -0.0233 -0.0429
    1AU     LIG  145   6.336   0.163   5.954  0.1872  0.1997  0.0979
    1AU    AUSL  146   4.211   0.386   6.326  0.0637 -0.0866  0.0248
    1AU    AUSL  147   4.609   0.456   6.050  0.1318 -0.0512  0.0671
    1AU     AUL  148   4.268   0.414   5.978 -0.0759  0.0767  0.0138
    1AU       S  149   3.818   0.443   6.129  0.5560  0.1309  0.3669
    1AU     LIG  150   3.435   0.326   5.895  0.1154  0.1327 -0.0397
    1AU     LIG  151   3.036   0.442   6.018 -0.0768  0.2151 -0.0484
    1AU     LIG  152   2.689   0.798   6.199 -0.2319  0.1277 -0.1380
    1AU     LIG  153   2.527   1.092   6.535 -0.0684 -0.0395  0.2401
    1AU     LIG  154   2.481   1.416   6.848  0.1937  0.2114 -0.1662
    1AU       S  155   4.522  -0.003   5.922 -0.0293  0.1871 -0.1480
    1AU     LIG  156   4.248  -0.180   5.649  0.3246 -0.0178 -0.2589
    1AU     LIG  157   3.902  -0.413   5.518 -0.0660 -0.0155 -0.3775
    1AU     LIG  158   3.634  -0.615   5.609  0.0411  0.2884  0.2028
    1AU     LIG  159   3.591  -1.051   5.751  0.1905  0.2260  0.0938
    1AU     LIG  160   3.849  -1.231   5.927  0.2717  0.0353 -0.1684
    1AU    AUSL  161   4.254   0.795   6.471  0.0673  0.0427 -0.0633
    1AU    AUSL  162   4.040   0.528   6.737 -0.0091  0.0018 -0.0269
    1AU     AUL  163   4.025   0.363   6.529 -0.0088 -0.1070  0.0447
    1AU       S  164   3.696   0.611   6.799  0.3711  0.3193 -0.0104
    1AU     LIG  165   3.397   0.250   6.776  0.0141 -0.2536 -0.4946
    1AU     LIG  166   3.151  -0.102   6.801 -0.0735 -0.1034 -0.1731
    1AU     LIG  167   3.072  -0.530   6.907 -0.1644  0.1347 -0.2150
    1AU     LIG  168   3.216  -0.934   6.761  0.1118 -0.0390  0.0065
    1AU     LIG  169   2.949  -1.295   6.596 -0.2376  0.0849  0.0221
    1AU       S  170   3.878   0.754   6.305 -0.0261  0.1814 -0.3034
    1AU     LIG  171   3.412   0.484   6.354  0.0386  0.0239  0.3248
    1AU     LIG  172   3.038   0.284   6.452 -0.0876 -0.0510 -0.3798
    1AU     LIG  173   2.815   0.000   6.445 -0.2195 -0.0935  0.2597
    1AU     LIG  174   2.553  -0.318   6.757  0.4242 -0.0564  0.2127
    1AU     LIG  175   2.281  -0.656   6.706  0.1470 -0.4006 -0.2609
    1AU    AUSL  176   5.214   0.388   7.394 -0.0028  0.0971  0.0028
    1AU    AUSL  177   5.003   0.785   7.462 -0.0600  0.0706  0.0222
    1AU     AUL  178   5.192   0.695   7.671 -0.0281  0.0590 -0.0556
    1AU       S  179   5.488   0.355   7.767  0.2556  0.1637 -0.2884
    1AU     LIG  180   5.655   0.055   7.982  0.1396 -0.2237 -0.2949
    1AU     LIG  181   5.683  -0.451   8.088 -0.1333 -0.1863  0.1058
    1AU     LIG  182   5.603  -0.930   8.007 -0.1430  0.1741  0.2205
    1AU     LIG  183   5.355  -1.201   7.762 -0.0596 -0.3961  0.0595
    1AU     LIG  184   5.373  -1.248   7.351  0.1233 -0.2561  0.2096
    1AU       S  185   4.834   0.526   7.906  0.3312 -0.0479 -0.0793
    1AU     LIG  186   4.644   0.710   8.305 -0.1917 -0.1956 -0.3371
    1AU     LIG  187   4.508   0.453   8.518  0.3659  0.0633 -0.1845
    1AU     LIG  188   4.259   0.068   8.513  0.4099 -0.2079 -0.0915
    1AU     LIG  189   4.016  -0.234   8.642  0.0368 -0.1509  0.0760
    1AU     LIG  190   4.067  -0.714   8.583  0.0306 -0.1256 -0.0555
    1AU    AUSL  191   5.662   0.397   7.296 -0.0084  0.0502 -0.0303
    1AU    AUSL  192   5.228   0.012   7.134 -0.0536  0.0238 -0.1217
    1AU     AUL  193   5.456   0.104   7.367 -0.0112 -0.0207 -0.0316
    1AU       S  194   5.323  -0.336   7.216 -0.2974  0.4509  0.0264
    1AU     LIG  195   5.163  -0.767   6.987  0.0705 -0.2156 -0.0757
    1AU     LIG  196   4.767  -0.893   6.842  0.2908  0.0316 -0.1424
    1AU     LIG  197   4.582  -0.784   6.535 -0.0491 -0.2494  0.1852
    1AU     LIG  198   4.384  -0.562   6.097  0.3591 -0.1973 -0.2825
    1AU     LIG  199   4.056  -0.695   5.891  0.0681 -0.0463 -0.2548
    1AU       S  200   5.851   0.417   7.555  0.3191  0.0023  0.0281
    1AU     LIG  201   6.116   0.246   7.820  0.1560  0.0782 -0.1010
    1AU     LIG  202   5.975   0.371   8.136 -0.2195  0.0525 -0.1390
    1AU     LIG  203   6.145   0.762   8.302  0.2542 -0.1791 -0.1830
    1AU     LIG  204   6.147   1.099   8.131  0.1422 -0.1159  0.0046
    1AU     LIG  205   6.251   1.298   7.774 -0.0447  0.0570 -0.0573
    1AU    AUSL  206   5.500   1.195   6.066  0.0924 -0.0783 -0.0489
    1AU    AUSL  207   5.665   1.211   6.491  0.0636 -0.0254 -0.0788
    1AU     AUL  208   5.804   1.332   6.049 -0.0279 -0.0119  0.0074
    1AU       S  209   6.020   1.211   6.430  0.2081  0.1226 -0.3256
    1AU     LIG  210   6.346   1.496   6.633 -0.4434  0.2433  0.5580
    1AU     LIG  211   6.428   1.872   6.429  0.5598 -0.2019  0.1869
    1AU     LIG  212   6.282   2.339   6.255 -0.1399 -0.2487 -0.3276
    1AU     LIG  213   6.164   2.713   6.467  0.3746 -0.2437  0.0265
    1AU     LIG  214   6.249   3.032   6.790 -0.0595 -0.2508  0.0552
    1AU       S  215   5.523   1.613   5.820  0.1489 -0.0190  0.3369
    1AU     LIG  216   5.922   1.924   5.683 -0.2550 -0.3372  0.2856
    1AU     LIG  217   6.157   2.212   5.750  0.0334 -0.0661 -0.0072
    1AU     LIG  218   6.271   2.577   5.734 -0.2232 -0.1196 -0.0620
    1AU     LIG  219   6.498   2.763   6.024  0.2014 -0.4194  0.1552
    1AU     LIG  220   6.639   2.947   6.518 -0.2689  0.5262  0.0982
    1AU    AUSL  221   5.513   1.586   6.330 -0.0536  0.1294  0.0516
    1AU    AUSL  222   5.081   1.768   6.426 -0.0181  0.1008  0.0023
    1AU     AUL  223   5.416   1.882   6.406  0.0398 -0.1201 -0.0191
    1AU       S  224   5.494   1.715   5.997 -0.0923  0.6626 -0.1410
    1AU     LIG  225   5.676   2.176   5.995 -0.1799  0.1359 -0.1456
    1AU     LIG  226   5.435   2.470   6.216 -0.0943 -0.0206 -0.3434
    1AU     LIG  227   5.117   2.695   6.247 -0.1608  0.2297  0.0985
    1AU     LIG  228   4.760   2.550   6.032 -0.7463  0.0014 -0.4415
    1AU     LIG  229   4.405   2.691   6.293  0.1095 -0.1369 -0.0567
    1AU       S  230   5.066   2.135   6.651 -0.2905 -0.0726 -0.0111
    1AU     LIG  231   4.784   2.539   6.680 -0.0175  0.0018 -0.1234
    1AU     LIG  232   4.404   2.803   6.867 -0.1226 -0.0500  0.4548
    1AU     LIG  233   4.331   2.959   7.257  0.1076  0.0682 -0.0128
    1AU     LIG  234   4.451   2.685   7.544 -0.1165  0.0090  0.3649
    1AU     LIG  235   4.682   2.342   7.801  0.0254 -0.4609 -0.0514
    1AU    AUSL  236   5.132   1.367   6.229 -0.0223  0.0333 -0.0197
    1AU    AUSL  237   5.149   0.966   6.005 -0.0429 -0.0117 -0.0262
    1AU     AUL  238   5.286   1.228   5.836  0.0557  0.0588  0.0647
    1AU       S  239   5.083   1.159   5.443 -0.0722 -0.2330  0.5006
    1AU     LIG  240   5.170   1.095   5.039  0.1625  0.1876 -0.1990
    1AU     LIG  241   4.895   0.889   4.749  0.0570 -0.1224  0.0895
    1AU     LIG  242   4.591   0.557   4.666  0.0641 -0.1401 -0.0331
    1AU     LIG  243   4.190   0.528   4.512 -0.0918 -0.0025 -0.0222
    1AU     LIG  244   3.812   0.308   4.493 -0.1439 -0.1593 -0.2444
    1AU       S  245   5.177   1.685   5.975 -0.2557  0.1460  0.2189
    1AU     LIG  246   5.207   1.926   5.595 -0.1494  0.1784  0.0902
    1AU     LIG  247   5.171   1.659   5.182  0.1942  0.0911 -0.1526
    1AU     LIG  248   5.501   1.491   4.924 -0.0290 -0.0519 -0.1897
    1AU     LIG  249   5.760   1.211   4.692 -0.4139  0.2570 -0.1891
    1AU     LIG  250   6.086   1.358   4.464  0.1037 -0.2244 -0.0494
    1AU    AUSL  251   4.976   0.019   6.554 -0.0207 -0.0018 -0.0875
    1AU    AUSL  252   4.576   0.179   6.393  0.0600  0.1019  0.0581
    1AU     AUL  253   4.763  -0.234   6.403 -0.1344 -0.0657  0.0743
    1AU       S  254   4.373  -0.061   6.210 -0.4801 -0.0835  0.2290
    1AU     LIG  255   3.879  -0.189   6.061 -0.1867 -0.1092  0.0189
    1AU     LIG  256   3.706  -0.428   6.081  0.0113 -0.0432 -0.0542
    1AU     LIG  257   3.620  -0.863   6.247 -0.0556 -0.0029  0.1167
    1AU     LIG  258   3.403  -1.243   6.336 -0.0781 -0.1546  0.1629
    1AU     LIG  259   3.361  -1.653   6.487  0.1821 -0.0171  0.0626
    1AU       S  260   5.226  -0.221   6.301 -0.3259  0.2825 -0.2929
    1AU     LIG  261   5.166  -0.735   6.414 -0.0352  0.1219 -0.1893
    1AU     LIG  262   5.156  -1.048   6.610 -0.3780  0.0168 -0.0322
    1AU     LIG  263   5.027  -1.376   6.939  0.1608  0.1281  0.4434
    1AU     LIG  264   5.150  -1.865   7.044  0.1797  0.0262  0.2596
    1AU     LIG  265   5.244  -2.283   6.986 -0.1746 -0.2878  0.0636
    1AU    AUSL  266   4.863   0.146   6.969  0.0699 -0.1562  0.0556
    1AU    AUSL  267   5.349  -0.066   6.727  0.0107  0.0931 -0.0138
    1AU     AUL  268   5.038  -0.221   6.873  0.0193 -0.0337  0.1259
    1AU       S  269   4.899  -0.080   7.444 -0.0306 -0.0089 -0.0543
    1AU     LIG  270   4.846  -0.572   7.379 -0.2591  0.2116  0.0537
    1AU     LIG  271   4.930  -0.996   7.439 -0.2263  0.1585  0.1952
    1AU     LIG  272   4.938  -1.484   7.549  0.1339  0.2235  0.3190
    1AU     LIG  273   4.871  -1.863   7.419 -0.0143  0.4466 -0.0476
    1AU     LIG  274   4.803  -2.295   7.458 -0.0655  0.1210 -0.1273
    1AU       S  275   5.553  -0.371   6.787 -0.0010  0.1472  0.0143
    1AU     LIG  276   5.957  -0.475   6.769  0.6974 -0.4186 -0.3590
    1AU     LIG  277   6.222  -0.735   6.909  0.1947  0.0642  0.2248
    1AU     LIG  278   6.743  -0.988   7.006 -0.3935  0.4020  0.0665
    1AU     LIG  279   7.046  -1.130   7.225  0.0415  0.1622  0.0927
    1AU     LIG  280   7.400  -1.110   7.400 -0.3663 -0.2504 -0.0613
    1AU    AUSL  281   4.527  -0.025   6.753 -0.0520 -0.0256 -0.0002
    1AU    AUSL  282   4.515   0.115   7.209  0.1429 -0.0680 -0.0380
    1AU     AUL  283   4.631  -0.149   7.053 -0.0415  0.0155 -0.0653
    1AU       S  284   4.141   0.033   7.092 -0.2904 -0.0133  0.2549
    1AU     LIG  285   4.059  -0.414   7.086 -0.3399 -0.0909  0.3353
    1AU     LIG  286   4.242  -0.809   6.912 -0.0553 -0.0911  0.3233
    1AU     LIG  287   4.451  -1.170   7.156  0.0894 -0.1745  0.1866
    1AU     LIG  288   4.585  -1.541   7.186  0.0148 -0.2244  0.1423
    1AU     LIG  289   4.688  -2.007   7.027  0.0142  0.0602  0.3918
    1AU       S  290   4.351  -0.197   6.687 -0.1871  0.1646  0.1809
    1AU     LIG  291   4.043  -0.563   6.472 -0.1889 -0.1964 -0.2360
    1AU     LIG  292   4.174  -1.003   6.327  0.1151 -0.0922 -0.2465
    1AU     LIG  293   4.373  -1.267   6.669 -0.2826  0.0650  0.1265
    1AU     LIG  294   4.655  -1.629   6.681 -0.3057 -0.3998  0.0182
    1AU     LIG  295   4.903  -1.919   6.582  0.0090 -0.0771 -0.1457
    1AU    AUSL  296   4.947   1.700   6.835 -0.0037  0.1520  0.0315
    1AU    AUSL  297   4.751   1.505   6.482  0.0398 -0.0753 -0.0449
    1AU     AUL  298   4.729   1.845   6.455 -0.0705 -0.0594 -0.1197
    1AU       S  299   4.908   1.973   6.902  0.0866 -0.1199 -0.1536
    1AU     LIG  300   4.991   2.395   7.165 -0.2304  0.7883  0.0390
    1AU     LIG  301   4.823   2.796   7.119 -0.1948  0.3701 -0.0591
    1AU     LIG  302   4.722   3.278   6.969 -0.0412 -0.0440  0.3088
    1AU     LIG  303   4.463   3.618   6.672 -0.0417 -0.1454 -0.4107
    1AU     LIG  304   4.173   3.885   6.402 -0.1674  0.2440  0.0114
    1AU       S  305   4.405   2.029   6.716  0.0196 -0.1865  0.1942
    1AU     LIG  306   4.133   2.438   6.644 -0.0969  0.0681  0.1694
    1AU     LIG  307   3.947   2.925   6.619  0.0257  0.0358 -0.2261
    1AU     LIG  308   3.907   3.421   6.669 -0.1173 -0.1615  0.1141
    1AU     LIG  309   3.908   3.768   6.860  0.0233 -0.3236 -0.1646
    1AU     LIG  310   3.916   4.199   7.003 -0.0595  0.1398 -0.1926
    1AU    AUSL  311   5.299   1.499   6.687  0.0054 -0.0062 -0.0083
    1AU    AUSL  312   5.201   1.643   7.175 -0.0307  0.0077  0.1147
    1AU     AUL  313   5.376   1.730   6.902  0.0186 -0.0602 -0.0215
    1AU       S  314   5.208   2.113   6.765  0.0237  0.0055  0.3824
    1AU     LIG  315   5.275   2.596   6.715  0.1286 -0.2602  0.2902
    1AU     LIG  316   5.069   3.016   6.721 -0.0380 -0.0351 -0.0759
    1AU     LIG  317   4.732   3.044   6.506  0.6713 -0.0430  0.3981
    1AU     LIG  318   4.311   3.163   6.310  0.2056 -0.2593 -0.4231
    1AU     LIG  319   3.971   3.459   6.102  0.0605  0.0437 -0.0823
    1AU       S  320   5.395   1.846   7.349  0.0693  0.1761  0.3934
    1AU     LIG  321   5.460   2.248   7.330  0.2544  0.1950  0.4834
    1AU     LIG  322   5.735   2.510   7.171 -0.4865  0.1987  0.0125
    1AU     LIG  323   6.159   2.513   7.015  0.0637 -0.0315 -0.1085
    1AU     LIG  324   6.487   2.739   7.148 -0.1295 -0.0024 -0.0510
    1AU     LIG  325   6.861   2.891   6.992  0.1585 -0.2303 -0.2117
    1AU    AUSL  326   4.343   0.511   7.277 -0.0470  0.0742 -0.0286
    1AU    AUSL  327   4.778   0.408   7.366 -0.0780 -0.0050  0.0507
    1AU     AUL  328   4.405   0.233   7.477 -0.0293  0.0046 -0.0692
    1AU       S  329   4.819   0.301   7.715  0.0696 -0.3625  0.0616
    1AU     LIG  330   5.082  -0.026   7.891  0.0095 -0.2361  0.1851
    1AU     LIG  331   5.124  -0.418   7.729 -0.3780 -0.4538 -0.5199
    1AU     LIG  332   5.374  -0.706   7.590  0.0307  0.3468 -0.3395
    1AU     LIG  333   5.586  -0.788   7.260  0.0297 -0.4101 -0.0991
    1AU     LIG  334   5.639  -0.844   6.862 -0.3195  0.0899  0.0771
    1AU       S  335   4.012   0.118   7.208  0.2834 -0.0616 -0.3068
    1AU     LIG  336   3.662  -0.031   7.151  0.1293  0.1165 -0.0834
    1AU     LIG  337   3.545  -0.425   7.070 -0.2243 -0.0273  0.1439
    1AU     LIG  338   3.521  -0.530   6.615  0.0534 -0.1644 -0.2239
    1AU     LIG  339   3.098  -0.451   6.388  0.2216  0.1595  0.2062
    1AU     LIG  340   2.823  -0.448   5.943 -0.1886 -0.4138  0.1337
    1AU    AUSL  341   4.403   0.373   6.877  0.1473  0.0824  0.0419
    1AU    AUSL  342   4.290   0.810   6.960 -0.0329 -0.0369 -0.0076
    1AU     AUL  343   4.067   0.575   7.095  0.0523  0.0483  0.1012
    1AU       S  344   3.628   0.749   6.985 -0.1647 -0.3458 -0.3129
    1AU     LIG  345   3.454   0.426   7.270  0.1613  0.1367  0.0329
    1AU     LIG  346   3.690   0.165   7.614 -0.2234  0.0926 -0.4755
    1AU     LIG  347   3.974  -0.263   7.592  0.2692 -0.0836  0.0214
    1AU     LIG  348   3.730  -0.685   7.478  0.1470 -0.3178 -0.3355
    1AU     LIG  349   3.864  -0.987   7.235  0.0362  0.3595 -0.2661
    1AU       S  350   4.106   0.108   6.941  0.1886  0.4086  0.1357
    1AU     LIG  351   3.833  -0.167   6.741  0.0978 -0.1250 -0.1792
    1AU     LIG  352   3.493  -0.036   6.375 -0.0828 -0.0241 -0.4372
    1AU     LIG  353   3.135  -0.024   6.078 -0.2584 -0.1613 -0.1667
    1AU     LIG  354   2.947  -0.018   5.619  0.1033 -0.0196  0.1647
    1AU     LIG  355   2.686  -0.315   5.340  0.2272 -0.0686 -0.0211
    1AU    AUSL  356   5.021   0.543   5.976  0.0314  0.0628 -0.0396
    1AU    AUSL  357   4.917   0.129   6.136 -0.0080 -0.0228 -0.0101
    1AU     AUL  358   4.810   0.361   5.759  0.0515 -0.0126 -0.0397
    1AU       S  359   4.836  -0.067   5.947 -0.3313 -0.2242 -0.4871
    1AU     LIG  360   4.792  -0.492   5.787  0.1416  0.0314 -0.0872
    1AU     LIG  361   4.788  -0.863   5.913  0.1747  0.1945 -0.1753
    1AU     LIG  362   4.889  -1.226   6.173  0.2970  0.0466  0.2257
    1AU     LIG  363   5.126  -1.493   6.382 -0.0083 -0.0616  0.3058
    1AU     LIG  364   5.281  -1.937   6.242 -0.0616  0.4743  0.1255
    1AU       S  365   5.252   0.346   5.573  0.0101  0.1220  0.1188
    1AU     LIG  366   5.581   0.052   5.318  0.2460  0.2581  0.2832
    1AU     LIG  367   5.803  -0.204   5.550 -0.0868  0.1807 -0.0930
    1AU     LIG  368   5.642  -0.374   5.792 -0.0673  0.3241 -0.0424
    1AU     LIG  369   5.282  -0.738   5.952 -0.2400  0.2143 -0.0399
    1AU     LIG  370   5.432  -1.160   6.103 -0.1582 -0.0375  0.0546
    1AU    AUSL  371   5.320   0.243   6.036 -0.1200 -0.1065  0.0104
    1AU    AUSL  372   5.680   0.476   6.256 -0.0363 -0.0664  0.1206
    1AU     AUL  373   5.670   0.279   5.955  0.0854  0.0073  0.1433
    1AU       S  374   5.247   0.182   5.787 -0.4551 -0.3030  0.0141
    1AU     LIG  375   5.222  -0.215   5.627  0.2620  0.1085 -0.4058
    1AU     LIG  376   5.191  -0.561   5.446  0.0145 -0.3232 -0.3870
    1AU     LIG  377   4.726  -0.788   5.359 -0.3119  0.3852 -0.0642
    1AU     LIG  378   4.386  -0.658   5.484 -0.2234  0.1087  0.0739
    1AU     LIG  379   4.064  -0.696   5.164  0.1780  0.2018 -0.1458
    1AU       S  380   5.955   0.101   6.292  0.2689  0.2219 -0.0990
    1AU     LIG  381   6.242  -0.261   6.258 -0.2296  0.2860 -0.2695
    1AU     LIG  382   6.308  -0.714   6.277  0.1085 -0.2958 -0.0317
    1AU     LIG  383   6.653  -1.007   6.389 -0.0652 -0.0207  0.1163
    1AU     LIG  384   6.756  -1.393   6.566 -0.3406 -0.0388 -0.2987
    1AU     LIG  385   6.874  -1.516   6.966 -0.0522  0.2013  0.1315
    1AU    AUSL  386   5.436   0.661   5.924  0.1854  0.0232  0.0252
    1AU    AUSL  387   4.798   0.855   5.776  0.0063  0.0005 -0.0188
    1AU     AUL  388   5.152   0.785   5.699  0.0634  0.0359  0.0776
    1AU       S  389   4.761   1.056   5.476 -0.0924 -0.3801 -0.1569
    1AU     LIG  390   4.517   0.820   5.060 -0.3813 -0.1694 -0.1623
    1AU     LIG  391   4.173   0.527   4.986  0.4213  0.0153  0.0628
    1AU     LIG  392   3.828   0.292   5.094 -0.4095  0.2263 -0.0268
    1AU     LIG  393   3.798   0.087   5.591 -0.0809 -0.2720 -0.0251
    1AU     LIG  394   3.492  -0.159   5.729  0.5188 -0.4433 -0.0601
    1AU       S  395   5.498   0.522   5.604  0.2117  0.0149 -0.4084
    1AU     LIG  396   5.835   0.520   5.369 -0.5046 -0.1728 -0.2979
    1AU     LIG  397   6.089   0.249   5.230  0.3427  0.2918 -0.0556
    1AU     LIG  398   5.965  -0.146   5.014  0.0147  0.0251  0.0233
    1AU     LIG  399   5.810  -0.344   4.624  0.0180 -0.2375  0.1343
    1AU     LIG  400   5.587  -0.460   4.302 -0.0697  0.2635  0.5438
    1AU    AUSL  401   4.268   1.245   6.875 -0.0571 -0.0527 -0.0668
    1AU    AUSL  402   4.528   1.602   6.858 -0.0622  0.0530  0.0515
    1AU     AUL  403   4.107   1.474   6.761 -0.0465 -0.0708 -0.0107
    1AU       S  404   3.942   1.502   7.226 -0.2695 -0.0267 -0.0402
    1AU     LIG  405   3.562   1.695   7.071 -0.0642 -0.0290 -0.1700
    1AU     LIG  406   3.147   1.661   6.984  0.1203 -0.2622  0.3226
    1AU     LIG  407   2.734   1.783   7.088 -0.3524  0.2958  0.1338
    1AU     LIG  408   2.268   1.880   6.988  0.2644 -0.0623  0.5370
    1AU     LIG  409   1.891   1.649   6.917 -0.2165 -0.1694  0.0872
    1AU       S  410   4.427   1.806   6.877 -0.4027 -0.0281  0.2065
    1AU     LIG  411   4.148   2.003   7.202 -0.1678  0.2161  0.1880
    1AU     LIG  412   3.728   2.156   7.212 -0.0587 -0.3406 -0.1174
    1AU     LIG  413   3.394   2.216   7.275  0.2620  0.1013 -0.2319
    1AU     LIG  414   2.959   2.204   7.165 -0.1520 -0.0796 -0.1775
    1AU     LIG  415   2.633   2.174   6.797 -0.3202 -0.0192 -0.1118
    1AU    AUSL  416   4.220   1.033   7.310 -0.0046  0.0951 -0.0213
    1AU    AUSL  417   3.964   0.993   6.705  0.0450 -0.0638  0.0366
    1AU     AUL  418   4.011   1.036   7.062  0.0988 -0.0589  0.0196
    1AU       S  419   3.951   1.333   7.430  0.1775 -0.1279 -0.2454
    1AU     LIG  420   3.460   1.339   7.395 -0.0438 -0.0395 -0.1869
    1AU     LIG  421   3.019   1.400   7.400 -0.1152 -0.1027  0.0912
    1AU     LIG  422   2.629   1.302   7.302 -0.2088  0.0488 -0.6788
    1AU     LIG  423   2.246   1.031   7.267  0.0452 -0.2866  0.1848
    1AU     LIG  424   2.327   0.704   6.951  0.1257  0.0459  0.0944
    1AU       S  425   3.661   0.917   6.753  0.0204  0.2025  0.0200
    1AU     LIG  426   3.288   0.941   6.471 -0.3018 -0.1782  0.0430
    1AU     LIG  427   2.939   0.789   6.637  0.1210  0.0836  0.0337
    1AU     LIG  428   2.620   0.466   6.615  0.2150  0.0049 -0.1826
    1AU     LIG  429   2.350   0.217   6.762 -0.0230  0.2289 -0.1368
    1AU     LIG  430   2.107  -0.087   6.976  0.2384 -0.0882  0.1527
    1AU    AUSL  431   4.409   1.419   7.235  0.0336  0.0503 -0.0856
    1AU    AUSL  432   4.648   1.041   7.314  0.0234 -0.1175  0.0225
    1AU     AUL  433   4.365   1.159   7.538  0.0327 -0.0433 -0.0325
    1AU       S  434   4.625   1.533   7.606 -0.0706 -0.3584  0.1433
    1AU     LIG  435   4.354   1.853   7.753 -0.2371 -0.4952  0.1425
    1AU     LIG  436   4.216   2.258   7.628  0.1107  0.0392 -0.1985
    1AU     LIG  437   3.929   2.693   7.491  0.4480  0.1565  0.2061
    1AU     LIG  438   4.033   3.179   7.594 -0.4841  0.1722 -0.4191
    1AU     LIG  439   3.877   3.616   7.726 -0.0570 -0.2899  0.1617
    1AU       S  440   4.166   1.549   7.328  0.3993 -0.3861 -0.0025
    1AU     LIG  441   3.814   1.814   7.595  0.0431  0.0271 -0.1646
    1AU     LIG  442   3.709   2.243   7.674  0.0032  0.0320  0.3666
    1AU     LIG  443   3.466   2.537   7.704  0.2185 -0.0590  0.3283
    1AU     LIG  444   3.229   2.892   7.825 -0.0835  0.1245  0.0801
    1AU     LIG  445   3.290   3.176   8.151  0.2968  0.3379  0.0423
    1AU    AUSL  446   5.812   0.378   6.696 -0.0328  0.0239 -0.0253
    1AU    AUSL  447   5.753   0.885   6.191  0.0826  0.0035 -0.0175
    1AU     AUL  448   5.934   0.604   6.370 -0.0454  0.0325  0.1113
    1AU       S  449   5.992   0.188   6.534  0.2332  0.2930 -0.2700
    1AU     LIG  450   6.298  -0.139   6.722  0.2502 -0.1499  0.1895
    1AU     LIG  451   6.626  -0.452   6.722 -0.1876  0.2528  0.0179
    1AU     LIG  452   7.021  -0.639   6.712  0.0957 -0.2285 -0.0133
    1AU     LIG  453   7.306  -0.574   6.402  0.2389  0.0348 -0.0817
    1AU     LIG  454   7.383  -0.255   6.148 -0.3766  0.2627 -0.0797
    1AU       S  455   6.105   0.982   6.188  0.2196 -0.3533 -0.1309
    1AU     LIG  456   6.420   0.909   5.938 -0.3040 -0.5435  0.1116
    1AU     LIG  457   6.684   0.584   5.969 -0.0362 -0.1810 -0.1219
    1AU     LIG  458   6.986   0.227   6.124 -0.2322 -0.2109 -0.0861
    1AU     LIG  459   6.934  -0.116   6.382 -0.2951  0.2932  0.0490
    1AU     LIG  460   7.231  -0.186   6.784 -0.3415  0.1591  0.2429
    1AU    AUSL  461   5.382   0.274   6.483 -0.0345  0.0647 -0.0152
    1AU    AUSL  462   5.438   0.335   6.920 -0.0374  0.0280 -0.0898
    1AU     AUL  463   5.648   0.085   6.828 -0.0603  0.0083 -0.0238
    1AU       S  464   5.678   0.002   6.360 -0.0780  0.0292 -0.1693
    1AU     LIG  465   5.733  -0.416   6.278 -0.0435 -0.1680  0.1258
    1AU     LIG  466   5.757  -0.839   6.372  0.2054 -0.0045  0.3125
    1AU     LIG  467   5.688  -1.185   6.512 -0.3965 -0.1346 -0.5533
    1AU     LIG  468   5.530  -1.584   6.747 -0.1876 -0.0024  0.2652
    1AU     LIG  469   5.554  -1.955   6.724 -0.0798 -0.0441  0.2916
    1AU       S  470   5.639  -0.248   7.126  0.1159  0.3536  0.1668
    1AU     LIG  471   5.952  -0.351   7.265  0.2185  0.1709 -0.1381
    1AU     LIG  472   6.442  -0.384   7.263  0.0818  0.2532 -0.0828
    1AU     LIG  473   6.931  -0.603   7.205 -0.1709 -0.1965  0.1237
    1AU     LIG  474   7.345  -0.754   7.070 -0.0710  0.0941 -0.1139
    1AU     LIG  475   7.681  -0.702   6.813 -0.1266  0.1377 -0.0139
    1AU    AUSL  476   4.952   1.197   7.581 -0.0847  0.0719  0.0860
    1AU    AUSL  477   4.567   0.722   7.580 -0.0306 -0.0195  0.1001
    1AU     AUL  478   4.759   0.995   7.717 -0.0064 -0.0466  0.0890
    1AU       S  479   4.578   0.548   7.831  0.0925  0.5967  0.3250
    1AU     LIG  480   4.306   0.407   8.051  0.0493  0.0471 -0.2904
    1AU     LIG  481   3.886   0.634   8.104 -0.0031 -0.1157  0.1185
    1AU     LIG  482   3.429   0.635   7.813 -0.3172  0.3269  0.3821
    1AU     LIG  483   3.159   0.882   7.479  0.1722 -0.1321  0.1004
    1AU     LIG  484   2.798   0.880   7.156  0.0203  0.0697  0.0493
    1AU       S  485   4.728   1.504   7.715  0.4336 -0.1967  0.0796
    1AU     LIG  486   4.778   1.850   8.010  0.2573  0.0919 -0.2759
    1AU     LIG  487   4.360   2.052   8.243  0.0489  0.3827 -0.1940
    1AU     LIG  488   4.005   2.336   8.105 -0.4158  0.3411 -0.0401
    1AU     LIG  489   4.124   2.771   7.943 -0.1347  0.0192 -0.1149
    1AU     LIG  490   4.574   2.962   7.998 -0.1072  0.2375  0.0653
    1AU    AUSL  491   4.838   1.434   7.204 -0.0486  0.0340  0.0634
    1AU    AUSL  492   5.234   1.209   7.264 -0.1202  0.0089  0.0233
    1AU     AUL  493   5.156   1.476   7.483  0.0256 -0.0067  0.0788
    1AU       S  494   4.756   1.674   7.394 -0.1645 -0.2380 -0.1195
    1AU     LIG  495   4.610   2.070   7.317 -0.1528 -0.0367 -0.1554
    1AU     LIG  496   4.519   2.373   7.106 -0.2245  0.0655  0.4123
    1AU     LIG  497   4.088   2.524   7.089  0.2975 -0.0083 -0.1701
    1AU     LIG  498   3.535   2.574   6.949 -0.1066 -0.2803 -0.1350
    1AU     LIG  499   3.088   2.755   6.897  0.0644  0.1259  0.0337
    1AU       S  500   5.592   1.560   7.488 -0.3224  0.3011  0.1039
    1AU     LIG  501   5.938   1.715   7.656 -0.4249  0.0963 -0.2028
    1AU     LIG  502   6.308   1.896   7.484  0.0257 -0.0973 -0.2036
    1AU     LIG  503   6.465   2.266   7.322  0.0290 -0.0804 -0.3350
    1AU     LIG  504   6.848   2.338   7.118  0.5497 -0.3458  0.3746
    1AU     LIG  505   7.096   2.454   6.765 -0.4337 -0.1025  0.2072
    2POPC   NC3  506   2.891   5.720   8.382 -0.0823 -0.1142  0.0516
    2POPC   PO4  507   3.079   5.467   8.193  0.0214 -0.2148 -0.0837
    2POPC   GL1  508   2.987   5.404   7.809  0.0877 -0.2321 -0.1567
    2POPC   GL2  509   2.923   5.758   7.775  0.0165 -0.1976  0.3043
    2POPC   C1A  510   3.070   5.154   7.423  0.2016  0.0712 -0.2033
    2POPC   D2A  511   3.205   5.233   6.931 -0.1306 -0.0713  0.3033
    2POPC   C3A  512   3.638   5.234   6.734 -0.2352  0.1931 -0.2489
    2POPC   C4A  513   3.838   4.879   6.924 -0.2018 -0.0169  0.0916
    2POPC   C1B  514   2.811   6.053   7.412 -0.0749  0.1249 -0.0108
    2POPC   C2B  515   2.723   6.102   7.042  0.1572 -0.1782 -0.0325
    2POPC   C3B  516   2.699   6.189   6.606  0.0868  0.2507  0.0927
    2POPC   C4B  517   2.567   6.524   6.352 -0.1627 -0.0473 -0.1551
    3POPC   NC3  518   3.395   2.767   9.880  0.0130 -0.0878 -0.0486
    3POPC   PO4  519   3.688   2.378   9.881 -0.2761  0.0092 -0.2612
    3POPC   GL1  520   3.937   2.204   9.455 -0.5704  0.3213  0.1768
    3POPC   GL2  521   3.826   2.398   9.141  0.1248 -0.0010 -0.0762
    3POPC   C1A  522   3.953   1.914   9.048  0.1162  0.0858 -0.2178
    3POPC   D2A  523   3.609   1.692   8.853  0.1320  0.0005 -0.2845
    3POPC   C3A  524   3.730   1.563   8.418  0.0290 -0.4135 -0.0083
    3POPC   C4A  525   3.977   1.715   8.050 -0.2919 -0.0600 -0.0133
    3POPC   C1B  526   3.462   2.254   8.921 -0.0107  0.0115 -0.4049
    3POPC   C2B  527   3.041   2.146   8.698 -0.1157  0.0935 -0.3347
    3POPC   C3B  528   2.716   1.967   8.368  0.0873  0.2044 -0.1341
    3POPC   C4B  529   2.485   2.063   8.047 -0.0462  0.6551  0.0483
    4POPC   NC3  530   3.546   5.288   8.477 -0.0256 -0.0589  0.0846
    4POPC   PO4  531   3.895   5.065   8.692  0.1205 -0.1973  0.1864
    4POPC   GL1  532   3.824   5.018   8.160  0.2151  0.0159 -0.1673
    4POPC   GL2  533   3.484   5.070   7.972  0.0289 -0.1652  0.1962
    4POPC   C1A  534   3.900   5.061   7.745 -0.0295 -0.0954  0.0035
    4POPC   D2A  535   4.042   4.864   7.347 -0.0148 -0.0839  0.0736
    4POPC   C3A  536   4.433   5.067   7.085  0.1393 -0.0791  0.1528
    4POPC   C4A  537   4.759   5.277   6.681  0.0773 -0.2566  0.0023
    4POPC   C1B  538   3.685   4.588   7.850 -0.1400 -0.1626  0.0937
    4POPC   C2B  539   4.113   4.594   7.814 -0.0550  0.0503 -0.0271
    4POPC   C3B  540   4.214   4.446   7.427  0.0742  0.0972  0.1862
    4POPC   C4B  541   4.437   4.539   7.135  0.3411 -0.2621  0.2288
    5POPC   NC3  542  10.159   1.032   9.313  0.1553 -0.2132  0.3932
    5POPC   PO4  543   9.849   0.874   9.055  0.0566  0.0224  0.0151
    5POPC   GL1  544   9.937   0.931   8.667 -0.3729  0.2126 -0.1608
    5POPC   GL2  545  10.015   0.637   8.550 -0.1943 -0.0624 -0.1128
    5POPC   C1A  546  10.025   1.203   8.261  0.0635 -0.1451  0.1569
    5POPC   D2A  547   9.729   1.308   7.866  0.1605 -0.3125 -0.1759
    5POPC   C3A  548   9.604   1.745   7.787 -0.1943 -0.2153 -0.0114
    5POPC   C4A  549   9.288   2.065   7.808 -0.3582  0.4374  0.0168
    5POPC   C1B  550  10.314   0.793   8.206  0.1451  0.3856 -0.1000
    5POPC   C2B  551  10.734   0.929   8.037 -0.0304  0.1437  0.2637
    5POPC   C3B  552  11.077   1.069   7.767  0.3688  0.1343 -0.2705
    5POPC   C4B  553  10.889   1.030   7.335 -0.3398 -0.0215  0.3200
    6POPC   NC3  554   8.910   0.050   9.041 -0.1850  0.2061  0.2167
    6POPC   PO4  555   8.972  -0.367   8.854 -0.0562  0.1017  0.0513
    6POPC   GL1  556   8.670  -0.459   8.399 -0.0766  0.1268 -0.1289
    6POPC   GL2  557   8.953  -0.504   8.234 -0.0049  0.0920  0.1781
    6POPC   C1A  558   8.624  -0.142   8.092 -0.1985 -0.0481 -0.1474
    6POPC   D2A  559   8.809  -0.088   7.686 -0.3309 -0.0043 -0.2033
    6POPC   C3A  560   8.598  -0.297   7.452  0.1980 -0.2232  0.0306
    6POPC   C4A  561   8.561  -0.199   7.015 -0.1556 -0.2834 -0.1371
    6POPC   C1B  562   8.853  -0.533   7.839 -0.1613  0.0460 -0.0481
    6POPC   C2B  563   9.112  -0.463   7.484 -0.0858 -0.1677 -0.0024
    6POPC   C3B  564   9.112  -0.250   7.116  0.2043 -0.1714  0.0289
    6POPC   C4B  565   9.179  -0.242   6.646 -0.1780 -0.0269  0.1418
    7POPC   NC3  566   2.972   3.823   9.027  0.0839  0.3286  0.1644
    7POPC   PO4  567   2.931   3.508   8.600  0.2974 -0.0945  0.0330
    7POPC   GL1  568   2.840   3.403   8.224 -0.2887  0.0689  0.0929
    7POPC   GL2  569   2.881   3.746   7.995  0.0737  0.1776 -0.0339
    7POPC   C1A  570   2.961   3.288   7.776 -0.2729 -0.2241  0.3358
    7POPC   D2A  571   2.978   3.083   7.390  0.3318  0.1245  0.2093
    7POPC   C3A  572   3.182   3.268   7.020 -0.0180  0.1544 -0.4902
    7POPC   C4A  573   3.459   3.112   6.723  0.0689 -0.1171 -0.0371
    7POPC   C1B  574   2.670   3.756   7.673  0.1152 -0.0492  0.0927
    7POPC   C2B  575   2.548   3.858   7.203  0.4250 -0.0590 -0.0495
    7POPC   C3B  576   2.415   3.834   6.720  0.3892 -0.1853  0.0331
    7POPC   C4B  577   2.519   3.755   6.340  0.2945  0.1210  0.2100
    8POPC   NC3  578   1.978   9.340   8.392  0.0043  0.2734  0.2840
    8POPC   PO4  579   1.992   8.820   8.453 -0.2218 -0.0108 -0.0446
    8POPC   GL1  580   1.963   8.870   7.959 -0.1981 -0.0202 -0.0929
    8POPC   GL2  581   1.913   9.171   7.919  0.0634  0.0119  0.0436
    8POPC   C1A  582   1.763   8.898   7.535  0.1589  0.1265  0.1356
    8POPC   D2A  583   1.730   8.973   7.147  0.1277 -0.1182 -0.0490
    8POPC   C3A  584   2.033   9.026   6.755 -0.0970 -0.2469 -0.2796
    8POPC   C4A  585   2.311   8.947   6.640  0.3939 -0.3082 -0.4102
    8POPC   C1B  586   2.308   9.106   7.649 -0.3109  0.1115 -0.1221
    8POPC   C2B  587   2.543   9.141   7.199  0.1317 -0.1750  0.0345
    8POPC   C3B  588   2.742   8.928   6.961 -0.1064 -0.0823  0.0457
    8POPC   C4B  589   2.689   8.607   6.542  0.0225 -0.0101 -0.3134
    9POPC   NC3  590   7.953   2.385   8.980 -0.0396  0.1417 -0.2330
    9POPC   PO4  591   7.551   2.564   9.011 -0.2053 -0.0344 -0.1108
    9POPC   GL1  592   7.533   2.503   8.665 -0.0631  0.2911 -0.1359
    9POPC   GL2  593   7.778   2.547   8.457  0.0757 -0.0464 -0.0484
    9POPC   C1A  594   7.213   2.230   8.466  0.0262 -0.2486 -0.1748
    9POPC   D2A  595   7.095   2.021   8.064 -0.2006  0.0537 -0.0661
    9POPC   C3A  596   6.712   2.283   8.075 -0.2754  0.1157  0.2693
    9POPC   C4A  597   6.368   2.220   7.884  0.0989  0.0632 -0.0387
    9POPC   C1B  598   7.754   2.617   8.073 -0.0316 -0.0322 -0.1078
    9POPC   C2B  599   7.693   2.418   7.710 -0.1938 -0.1276  0.0340
    9POPC   C3B  600   7.644   2.307   7.283  0.0459  0.0786 -0.2854
    9POPC   C4B  601   7.641   2.163   6.889  0.0752  0.0155 -0.0195
   10POPC   NC3  602   7.276   1.262   9.218 -0.1008  0.3586  0.0804
   10POPC   PO4  603   7.644   1.563   9.197  0.1198  0.0096  0.0718
   10POPC   GL1  604   7.630   1.398   8.869 -0.1036 -0.2364  0.2662
   10POPC   GL2  605   7.784   1.585   8.605 -0.0430  0.0826  0.3285
   10POPC   C1A  606   7.431   1.185   8.397  0.0619 -0.1738 -0.1855
   10POPC   D2A  607   7.098   0.997   8.178  0.0923 -0.0890 -0.0709
   10POPC   C3A  608   7.263   0.742   7.808  0.0649 -0.2300  0.3014
   10POPC   C4A  609   7.617   0.702   7.406  0.1429  0.1757 -0.0626
   10POPC   C1B  610   7.564   1.536   8.139 -0.0002  0.0205  0.2842
   10POPC   C2B  611   7.472   1.523   7.625 -0.0023 -0.0487 -0.0002
   10POPC   C3B  612   7.555   1.192   7.316  0.2566  0.0581 -0.0578
   10POPC   C4B  613   7.737   1.015   6.992  0.0221  0.2186  0.1104
   11POPC   NC3  614   2.626   7.662   8.203  0.2238 -0.0969 -0.0175
   11POPC   PO4  615   2.235   7.456   8.239 -0.0679 -0.2961  0.1571
   11POPC   GL1  616   1.891   7.620   8.060  0.1036 -0.0917  0.2704
   11POPC   GL2  617   1.593   7.589   8.032  0.0136  0.0472  0.0382
   11POPC   C1A  618   2.062   7.685   7.556  0.0977  0.1578 -0.3158
   11POPC   D2A  619   2.129   7.537   7.204 -0.2853 -0.4225 -0.0790
   11POPC   C3A  620   2.501   7.430   7.290  0.3062  0.1547  0.0619
   11POPC   C4A  621   2.898   7.293   7.136  0.0178 -0.1847  0.1133
   11POPC   C1B  622   1.567   7.817   7.564 -0.0693  0.1885 -0.2950
   11POPC   C2B  623   1.602   7.954   7.195 -0.1258  0.1347  0.0162
   11POPC   C3B  624   1.584   8.037   6.728  0.1340 -0.2977 -0.0240
   11POPC   C4B  625   1.724   8.066   6.334 -0.0064  0.1086 -0.2463
   12POPC   NC3  626   3.009   5.015   8.363 -0.0132  0.0871  0.3246
   12POPC   PO4  627   3.359   4.850   8.596 -0.1062 -0.4080  0.1888
   12POPC   GL1  628   3.374   4.674   8.211 -0.0251  0.1146  0.0569
   12POPC   GL2  629   3.338   4.400   8.241  0.0770  0.1791 -0.2975
   12POPC   C1A  630   3.195   4.612   7.756 -0.0325  0.0478 -0.2498
   12POPC   D2A  631   3.111   4.651   7.285 -0.2448  0.0038  0.2970
   12POPC   C3A  632   3.285   4.757   6.863  0.3017 -0.3132  0.0781
   12POPC   C4A  633   3.486   4.894   6.435  0.0859 -0.0423  0.3054
   12POPC   C1B  634   3.254   4.113   7.902 -0.1388  0.1512 -0.1213
   12POPC   C2B  635   3.235   3.835   7.552 -0.0903 -0.0423  0.2339
   12POPC   C3B  636   2.997   3.605   7.317  0.1517  0.0347 -0.0607
   12POPC   C4B  637   2.924   3.711   6.864 -0.0675  0.1197 -0.2299
   13POPC   NC3  638   0.109   3.606   8.565  0.1228  0.2118 -0.1112
   13POPC   PO4  639   0.429   3.274   8.639 -0.2565 -0.2084  0.0711
   13POPC   GL1  640   0.682   3.558   8.285 -0.2032 -0.0634 -0.0818
   13POPC   GL2  641   0.913   3.844   8.310 -0.3337  0.0278 -0.1239
   13POPC   C1A  642   0.916   3.483   7.843 -0.0799 -0.0627 -0.0627
   13POPC   D2A  643   0.838   3.640   7.375  0.2142  0.1782 -0.2012
   13POPC   C3A  644   1.175   3.482   7.029  0.0807 -0.1321  0.0121
   13POPC   C4A  645   1.493   3.156   6.938  0.2212  0.0516  0.0604
   13POPC   C1B  646   0.754   3.929   7.950  0.0026  0.1729  0.0734
   13POPC   C2B  647   0.586   4.008   7.574  0.0088  0.3014 -0.4973
   13POPC   C3B  648   0.490   3.956   7.178 -0.1638  0.0233 -0.2317
   13POPC   C4B  649   0.249   3.682   7.013  0.0200 -0.2046 -0.0010
   14POPC   NC3  650   6.347   2.788   9.983  0.0277 -0.1458  0.0185
   14POPC   PO4  651   6.478   2.694   9.599  0.3160  0.1545 -0.0278
   14POPC   GL1  652   6.676   2.307   9.317  0.0203 -0.1286 -0.1492
   14POPC   GL2  653   6.782   2.366   8.943 -0.1717  0.1451 -0.1440
   14POPC   C1A  654   6.694   1.875   9.059 -0.1858 -0.2447 -0.1919
   14POPC   D2A  655   7.027   1.615   8.830  0.2277 -0.1801 -0.0221
   14POPC   C3A  656   7.155   1.649   8.391 -0.1237  0.1546 -0.1271
   14POPC   C4A  657   6.999   1.462   8.060 -0.4417 -0.2342  0.3516
   14POPC   C1B  658   6.705   2.094   8.599  0.2191 -0.1908 -0.1150
   14POPC   C2B  659   6.655   1.842   8.198 -0.0243  0.0883 -0.0473
   14POPC   C3B  660   6.664   1.604   7.774 -0.2480  0.1583  0.0437
   14POPC   C4B  661   6.789   1.742   7.414  0.1755 -0.0449  0.3324
   15POPC   NC3  662   8.428   9.127   8.914  0.2837 -0.1279 -0.1127
   15POPC   PO4  663   8.519   9.094   8.443  0.1602  0.0575  0.1779
   15POPC   GL1  664   8.468   9.323   8.163  0.2213  0.2415  0.1309
   15POPC   GL2  665   8.375   9.663   8.194  0.0001 -0.1184  0.0538
   15POPC   C1A  666   8.631   9.113   7.789 -0.0811  0.0730  0.2340
   15POPC   D2A  667   8.876   8.819   7.651  0.2257  0.3445  0.0661
   15POPC   C3A  668   9.265   8.743   7.849 -0.3769  0.1492 -0.0479
   15POPC   C4A  669   9.691   8.570   7.626  0.2911 -0.0208 -0.0002
   15POPC   C1B  670   8.402   9.831   7.782  0.2549 -0.1902 -0.0498
   15POPC   C2B  671   8.230   9.835   7.361  0.0837 -0.1797 -0.1396
   15POPC   C3B  672   8.089  10.109   6.963  0.2378  0.1341 -0.1896
   15POPC   C4B  673   7.830  10.365   6.790  0.0438 -0.2997  0.1817
   16POPC   NC3  674   2.283   6.954   8.177 -0.1486  0.2834 -0.3476
   16POPC   PO4  675   2.636   7.113   8.415  0.0327  0.0481 -0.1698
   16POPC   GL1  676   2.783   7.213   8.002 -0.1498  0.1554  0.0952
   16POPC   GL2  677   2.442   7.156   7.793  0.0977 -0.3198  0.1356
   16POPC   C1A  678   2.951   7.413   7.648 -0.2290 -0.1709 -0.0970
   16POPC   D2A  679   2.909   7.773   7.382  0.0121 -0.2636  0.1341
   16POPC   C3A  680   2.932   7.746   6.908 -0.0536 -0.3926 -0.0656
   16POPC   C4A  681   2.666   7.827   6.584  0.2125 -0.0554  0.0207
   16POPC   C1B  682   2.215   6.943   7.418 -0.3422 -0.2224 -0.0484
   16POPC   C2B  683   2.194   7.073   7.040 -0.2159  0.1358 -0.0227
   16POPC   C3B  684   1.933   7.188   6.754 -0.3738 -0.1832  0.0259
   16POPC   C4B  685   1.811   7.537   6.531  0.5762  0.2286  0.3463
   17POPC   NC3  686   5.252   4.833   8.710 -0.1039  0.1003  0.1896
   17POPC   PO4  687   5.315   4.346   8.724  0.2443 -0.1308 -0.0476
   17POPC   GL1  688   5.390   4.085   8.279 -0.2461 -0.0256  0.0591
   17POPC   GL2  689   5.293   3.766   8.290  0.2568  0.1963  0.3624
   17POPC   C1A  690   5.294   3.841   7.813 -0.0604 -0.0456  0.1157
   17POPC   D2A  691   5.174   3.607   7.603  0.2335 -0.0696  0.0700
   17POPC   C3A  692   4.834   3.659   7.285 -0.1079  0.4867 -0.1804
   17POPC   C4A  693   4.912   3.855   6.855  0.1506 -0.1980  0.1059
   17POPC   C1B  694   5.483   3.452   8.112 -0.1938  0.1224 -0.0949
   17POPC   C2B  695   5.476   3.204   7.802  0.0665  0.0693 -0.0997
   17POPC   C3B  696   5.661   3.232   7.431 -0.0224  0.1719 -0.2619
   17POPC   C4B  697   5.890   3.008   7.181 -0.0088 -0.1743 -0.1276
   18POPC   NC3  698   9.489   0.550   9.312 -0.1848  0.1958 -0.0895
   18POPC   PO4  699   9.122   0.535   8.996 -0.0990 -0.2172 -0.2192
   18POPC   GL1  700   9.448   0.650   8.777  0.1749 -0.0312 -0.0879
   18POPC   GL2  701   9.234   0.839   8.601 -0.0377 -0.1735 -0.1774
   18POPC   C1A  702   9.617   0.711   8.290  0.5355 -0.0081  0.0174
   18POPC   D2A  703   9.844   0.788   7.958  0.0252  0.0198  0.2525
   18POPC   C3A  704  10.127   0.477   7.699 -0.3815 -0.1962 -0.1571
   18POPC   C4A  705  10.353   0.094   7.712  0.0356 -0.1282  0.3482
   18POPC   C1B  706   8.984   0.877   8.366 -0.0593  0.0795  0.0592
   18POPC   C2B  707   8.825   0.879   7.939  0.2147 -0.1153  0.1509
   18POPC   C3B  708   8.938   0.514   7.631 -0.0427  0.0544 -0.1341
   18POPC   C4B  709   8.906   0.207   7.365 -0.0521 -0.1722  0.1356
   19POPC   NC3  710   0.783   5.316   8.679 -0.1022  0.1494  0.1902
   19POPC   PO4  711   1.219   5.247   8.510  0.0223 -0.3890  0.2220
   19POPC   GL1  712   1.309   5.363   8.112 -0.0332 -0.0691 -0.1110
   19POPC   GL2  713   1.021   5.336   7.887  0.0295 -0.3308  0.1464
   19POPC   C1A  714   1.388   5.379   7.614 -0.3375 -0.0341 -0.0699
   19POPC   D2A  715   1.424   5.628   7.244  0.0020 -0.0174 -0.1441
   19POPC   C3A  716   1.392   5.746   6.862 -0.3524 -0.3142 -0.1398
   19POPC   C4A  717   1.736   5.693   6.653  0.3266  0.2932  0.0797
   19POPC   C1B  718   0.992   4.942   7.609  0.0339  0.2479 -0.2354
   19POPC   C2B  719   0.851   5.003   7.234  0.0281  0.0602  0.0173
   19POPC   C3B  720   0.804   5.022   6.831 -0.2059 -0.0432 -0.0794
   19POPC   C4B  721   0.887   4.752   6.478 -0.1969  0.0311  0.0556
   20POPC   NC3  722   2.388   0.444   9.574  0.1274 -0.1623 -0.3681
   20POPC   PO4  723   2.634   0.175   9.378  0.0780  0.2760 -0.1647
   20POPC   GL1  724   3.031   0.288   9.091  0.0044  0.0088 -0.0438
   20POPC   GL2  725   3.070   0.111   8.857  0.1550  0.3289  0.2154
   20POPC   C1A  726   3.300   0.759   9.090 -0.1669 -0.1820  0.2103
   20POPC   D2A  727   3.668   0.903   8.771  0.0952  0.1522  0.0125
   20POPC   C3A  728   3.608   1.116   8.304  0.1355 -0.2156 -0.1116
   20POPC   C4A  729   3.918   1.236   8.003  0.0670 -0.1461 -0.1418
   20POPC   C1B  730   3.100   0.215   8.380 -0.0487 -0.1193  0.0417
   20POPC   C2B  731   3.055   0.267   7.962 -0.0171  0.1666 -0.0594
   20POPC   C3B  732   2.782   0.335   7.559 -0.0662 -0.0957  0.1004
   20POPC   C4B  733   2.376   0.520   7.448  0.1720 -0.2719  0.0543
   21POPC   NC3  734   8.460   2.346   8.671  0.1973  0.0569  0.0003
   21POPC   PO4  735   7.995   2.091   8.591  0.0235 -0.2319  0.1259
   21POPC   GL1  736   7.844   2.110   8.170 -0.1643 -0.0956 -0.2513
   21POPC   GL2  737   7.562   2.056   8.154  0.0684  0.0757 -0.0618
   21POPC   C1A  738   7.922   1.949   7.788  0.2032  0.0548 -0.1452
   21POPC   D2A  739   7.844   1.901   7.422 -0.3065  0.3473  0.1641
   21POPC   C3A  740   7.601   1.686   7.144 -0.0879 -0.2927  0.2391
   21POPC   C4A  741   7.191   1.434   7.138 -0.2679 -0.1085  0.0891
   21POPC   C1B  742   7.364   2.025   7.622 -0.3430  0.2380 -0.0920
   21POPC   C2B  743   7.244   2.011   7.180  0.2195  0.0569 -0.3216
   21POPC   C3B  744   7.145   1.948   6.804 -0.4893 -0.1509 -0.0714
   21POPC   C4B  745   6.961   2.077   6.440  0.0525 -0.4562 -0.0213
   22POPC   NC3  746   1.762   8.460   8.311  0.1655  0.2647  0.1854
   22POPC   PO4  747   1.538   8.870   8.262 -0.0812  0.1344 -0.1138
   22POPC   GL1  748   1.461   9.121   7.896  0.2364 -0.1760 -0.2141
   22POPC   GL2  749   1.573   9.481   7.816 -0.0678 -0.3995 -0.1353
   22POPC   C1A  750   1.291   9.122   7.508  0.4044 -0.1653 -0.0314
   22POPC   D2A  751   1.209   9.147   7.065  0.0132 -0.3958  0.1363
   22POPC   C3A  752   0.718   9.089   6.878 -0.2722 -0.0624  0.3263
   22POPC   C4A  753   0.294   9.059   6.930 -0.1651 -0.2292 -0.0532
   22POPC   C1B  754   1.805   9.491   7.445 -0.0552 -0.0038 -0.1520
   22POPC   C2B  755   2.121   9.456   7.078 -0.1373  0.1804 -0.0241
   22POPC   C3B  756   2.449   9.370   6.773  0.0266  0.1749  0.2901
   22POPC   C4B  757   2.726   9.683   6.615  0.0328  0.1670 -0.3458
   23POPC   NC3  758   5.080   5.811   8.509 -0.1974  0.0556 -0.2185
   23POPC   PO4  759   5.367   5.812   8.125  0.1636  0.0116 -0.1184
   23POPC   GL1  760   5.272   5.543   7.807 -0.2699 -0.2774  0.1055
   23POPC   GL2  761   5.054   5.816   7.724 -0.2188  0.1495  0.1012
   23POPC   C1A  762   5.331   5.255   7.507  0.1464  0.2055  0.1731
   23POPC   D2A  763   5.550   4.995   7.093  0.2750  0.2733 -0.1909
   23POPC   C3A  764   5.264   4.811   6.761  0.2665  0.1487  0.1378
   23POPC   C4A  765   5.055   4.618   6.441 -0.2671  0.1332  0.0223
   23POPC   C1B  766   5.251   5.719   7.290 -0.0771  0.0502 -0.1713
   23POPC   C2B  767   5.411   5.817   6.982  0.2575  0.1668  0.5024
   23POPC   C3B  768   5.781   5.822   6.601 -0.3508  0.0385 -0.0581
   23POPC   C4B  769   6.122   6.102   6.630 -0.0687 -0.1477 -0.3096
   24POPC   NC3  770   1.193   2.926   8.599 -0.1874 -0.1569  0.0920
   24POPC   PO4  771   0.949   3.282   8.615  0.2933  0.2714  0.0298
   24POPC   GL1  772   1.228   3.313   8.304 -0.2612 -0.1422  0.1059
   24POPC   GL2  773   1.198   3.089   8.104  0.1053  0.0421  0.1644
   24POPC   C1A  774   1.524   3.417   7.953  0.0382 -0.1660 -0.0355
   24POPC   D2A  775   1.873   3.413   7.812  0.2760 -0.0987  0.2670
   24POPC   C3A  776   1.895   3.369   7.335 -0.2028 -0.2124 -0.1219
   24POPC   C4A  777   2.113   3.467   6.993  0.1289  0.4415  0.0441
   24POPC   C1B  778   1.004   2.870   7.882 -0.2028  0.1057  0.0725
   24POPC   C2B  779   0.888   2.588   7.407  0.1770 -0.1745 -0.2073
   24POPC   C3B  780   0.832   2.501   6.969 -0.1072 -0.0282  0.1108
   24POPC   C4B  781   1.083   2.172   6.833 -0.1281  0.0252 -0.2249
   25POPC   NC3  782   3.431   3.706   8.786 -0.1776 -0.2633  0.1945
   25POPC   PO4  783   3.312   3.447   9.108  0.0128  0.0377  0.2369
   25POPC   GL1  784   3.432   3.038   8.880 -0.0194  0.0131  0.1567
   25POPC   GL2  785   3.401   2.758   9.048 -0.2066  0.0243 -0.1588
   25POPC   C1A  786   3.888   2.994   8.932 -0.1819 -0.2664  0.0665
   25POPC   D2A  787   4.108   2.592   8.855  0.1128 -0.1111  0.3146
   25POPC   C3A  788   4.384   2.172   8.815 -0.2319  0.2691  0.0362
   25POPC   C4A  789   4.746   1.951   8.498  0.2209  0.2053  0.1969
   25POPC   C1B  790   3.531   2.571   8.583 -0.2751 -0.0719 -0.0371
   25POPC   C2B  791   3.466   2.190   8.324 -0.0438  0.0257  0.1169
   25POPC   C3B  792   3.244   1.981   8.269  0.0093  0.2402  0.3177
   25POPC   C4B  793   2.916   1.716   7.960 -0.0587  0.2931  0.0630
   26POPC   NC3  794   4.710   6.506   8.108 -0.2217 -0.0220 -0.3515
   26POPC   PO4  795   4.244   6.261   8.256 -0.3508 -0.3327 -0.1681
   26POPC   GL1  796   3.998   6.421   7.927 -0.1030 -0.0768  0.4939
   26POPC   GL2  797   3.612   6.587   7.904  0.0756 -0.0743  0.1386
   26POPC   C1A  798   4.253   6.742   7.744  0.0747 -0.0948 -0.2891
   26POPC   D2A  799   4.380   7.033   7.480  0.1435  0.0284 -0.0546
   26POPC   C3A  800   4.429   6.833   7.140 -0.1240  0.1518 -0.1661
   26POPC   C4A  801   4.727   6.491   7.137  0.2678  0.0692 -0.1685
   26POPC   C1B  802   3.722   6.394   7.432  0.0006 -0.1190  0.0669
   26POPC   C2B  803   3.750   6.179   7.023 -0.0842 -0.1103 -0.1529
   26POPC   C3B  804   3.919   6.177   6.527  0.2376  0.2753  0.0436
   26POPC   C4B  805   4.321   6.154   6.342  0.1410  0.2143 -0.0544
   27POPC   NC3  806   7.231   4.286   8.537  0.0101 -0.0894 -0.3984
   27POPC   PO4  807   7.653   4.248   8.576 -0.0000 -0.0891 -0.0760
   27POPC   GL1  808   7.670   4.120   8.253  0.1742  0.0561 -0.0384
   27POPC   GL2  809   7.902   3.842   8.047  0.3171 -0.1922  0.1354
   27POPC   C1A  810   7.456   3.915   7.906 -0.2866  0.1414 -0.0500
   27POPC   D2A  811   7.246   3.898   7.486 -0.1305  0.1091  0.0724
   27POPC   C3A  812   7.105   3.656   7.178  0.0405 -0.1826 -0.1679
   27POPC   C4A  813   6.946   3.324   7.156  0.3787 -0.0548  0.0103
   27POPC   C1B  814   7.748   3.935   7.521 -0.2441 -0.1218 -0.1068
   27POPC   C2B  815   7.682   4.065   7.062 -0.1643  0.2168  0.0798
   27POPC   C3B  816   7.823   3.862   6.809  0.1132  0.4354  0.3034
   27POPC   C4B  817   7.943   3.375   6.801  0.1510  0.1485 -0.3274
   28POPC   NC3  818   1.010   8.960   8.217  0.0455 -0.0615  0.1953
   28POPC   PO4  819   0.693   9.259   8.389 -0.1900  0.1807  0.0635
   28POPC   GL1  820   0.668   9.207   7.934 -0.1064  0.0911 -0.0558
   28POPC   GL2  821   0.640   8.867   7.763 -0.1588  0.0248  0.2420
   28POPC   C1A  822   0.507   9.279   7.418  0.0858 -0.2824  0.0450
   28POPC   D2A  823   0.461   9.564   6.960 -0.2389  0.2098  0.0513
   28POPC   C3A  824  -0.004   9.462   6.745 -0.2882  0.0995  0.0140
   28POPC   C4A  825  -0.412   9.317   6.526 -0.0657 -0.3249 -0.3574
   28POPC   C1B  826   0.887   8.740   7.424  0.0072  0.1199 -0.1334
   28POPC   C2B  827   1.193   8.604   7.094 -0.1745 -0.1993  0.0643
   28POPC   C3B  828   1.056   8.345   6.816 -0.0417 -0.1264 -0.0500
   28POPC   C4B  829   1.252   8.221   6.387  0.3081  0.0720  0.0105
   29POPC   NC3  830   0.939   6.618   8.503 -0.2394  0.1561  0.2048
   29POPC   PO4  831   1.257   6.657   8.446 -0.4725 -0.1403  0.0747
   29POPC   GL1  832   1.459   6.659   8.128 -0.0039  0.1925 -0.0194
   29POPC   GL2  833   1.764   6.942   8.107  0.2731  0.1021 -0.1461
   29POPC   C1A  834   1.626   6.747   7.663  0.0824 -0.2362 -0.0007
   29POPC   D2A  835   1.788   6.710   7.186 -0.0879 -0.1315  0.0336
   29POPC   C3A  836   2.008   6.352   7.098 -0.2910 -0.2051  0.4893
   29POPC   C4A  837   1.835   5.906   7.068  0.0681 -0.0040  0.0692
   29POPC   C1B  838   1.901   7.230   7.703 -0.1470  0.1938  0.0364
   29POPC   C2B  839   1.761   7.213   7.335 -0.1104  0.0049  0.0427
   29POPC   C3B  840   1.597   7.411   6.995 -0.0661 -0.1486 -0.2709
   29POPC   C4B  841   1.232   7.457   6.773 -0.2142 -0.2398 -0.0078
   30POPC   NC3  842   0.603   1.251   8.801  0.0185  0.1370  0.1113
   30POPC   PO4  843   0.405   0.902   8.895 -0.2192  0.1441  0.1344
   30POPC   GL1  844   0.559   0.887   8.415  0.1669 -0.0033 -0.1849
   30POPC   GL2  845   0.814   1.075   8.345 -0.1985 -0.1627  0.1420
   30POPC   C1A  846   0.636   0.605   8.059 -0.2985 -0.1000 -0.1257
   30POPC   D2A  847   0.467   0.525   7.604 -0.0721  0.2393  0.1315
   30POPC   C3A  848   0.141   0.193   7.388 -0.0691 -0.1971  0.1195
   30POPC   C4A  849  -0.172   0.303   7.097 -0.4563 -0.2016 -0.1395
   30POPC   C1B  850   1.010   1.185   8.026 -0.4276  0.0121  0.0002
   30POPC   C2B  851   0.917   1.424   7.743  0.0922 -0.1490  0.1317
   30POPC   C3B  852   0.912   1.831   7.500  0.0856 -0.3043 -0.0029
   30POPC   C4B  853   1.076   2.186   7.367 -0.2853  0.3650  0.0471
   31POPC   NC3  854   8.839  10.446   9.585 -0.0179  0.1827 -0.2931
   31POPC   PO4  855   8.453  10.468   9.225 -0.0135  0.3964 -0.1151
   31POPC   GL1  856   8.375  10.471   8.866  0.2945  0.1726  0.1865
   31POPC   GL2  857   8.044  10.479   8.913  0.0042 -0.0188 -0.1816
   31POPC   C1A  858   8.489  10.667   8.531  0.0035  0.2355  0.1599
   31POPC   D2A  859   8.598  11.038   8.433  0.0042  0.0440 -0.0693
   31POPC   C3A  860   8.377  11.300   8.230 -0.2158  0.2971  0.0144
   31POPC   C4A  861   8.306  11.396   7.884 -0.0159  0.1072  0.2065
   31POPC   C1B  862   7.916  10.575   8.542 -0.0921 -0.0901 -0.0359
   31POPC   C2B  863   7.733  10.629   8.094  0.1295 -0.0370 -0.3633
   31POPC   C3B  864   7.744  10.385   7.684  0.2156  0.0144  0.1474
   31POPC   C4B  865   7.778  10.139   7.333 -0.0708  0.2213 -0.3453
   32POPC   NC3  866   3.061   6.851   8.351  0.1113 -0.0413 -0.1655
   32POPC   PO4  867   3.365   6.536   8.346  0.0429 -0.3499  0.2262
   32POPC   GL1  868   3.161   6.247   8.041  0.0250 -0.5741  0.2710
   32POPC   GL2  869   3.312   5.985   7.998 -0.0614  0.3229  0.0043
   32POPC   C1A  870   3.193   6.295   7.604 -0.0882  0.0669 -0.3083
   32POPC   D2A  871   3.057   6.502   7.282  0.0560 -0.0989  0.1552
   32POPC   C3A  872   3.334   6.433   6.929  0.2379 -0.0096 -0.0248
   32POPC   C4A  873   3.366   6.177   6.651 -0.1248  0.3988  0.3045
   32POPC   C1B  874   3.676   6.026   7.693  0.2363  0.0277 -0.0906
   32POPC   C2B  875   3.886   5.819   7.309 -0.0597 -0.0955 -0.1507
   32POPC   C3B  876   3.782   5.721   6.982 -0.1376  0.1743 -0.1563
   32POPC   C4B  877   3.734   5.749   6.396  0.3545  0.1477 -0.2685
   33POPC   NC3  878   1.500   6.007   8.975  0.1138 -0.0031  0.3092
   33POPC   PO4  879   1.209   6.191   8.652 -0.0900 -0.0583 -0.4394
   33POPC   GL1  880   1.004   6.215   8.197 -0.1435  0.2948  0.2787
   33POPC   GL2  881   1.203   6.293   7.964  0.1803 -0.0188 -0.1620
   33POPC   C1A  882   0.754   5.824   7.933  0.1444 -0.3652  0.1326
   33POPC   D2A  883   0.636   5.720   7.538 -0.4190 -0.1392 -0.0850
   33POPC   C3A  884   0.873   5.588   7.204  0.1056 -0.3140 -0.0435
   33POPC   C4A  885   1.194   5.299   6.974  0.0965 -0.0937  0.0234
   33POPC   C1B  886   1.375   6.300   7.583 -0.2873 -0.1824 -0.0099
   33POPC   C2B  887   1.529   6.294   7.206 -0.6297  0.1768  0.1352
   33POPC   C3B  888   1.615   6.398   6.748  0.3709  0.1730  0.0603
   33POPC   C4B  889   1.880   6.671   6.540 -0.2933 -0.1424 -0.1102
   34POPC   NC3  890   9.142   1.260   8.815 -0.1431 -0.0434  0.0021
   34POPC   PO4  891   9.140   1.604   8.631  0.0647 -0.1507  0.0560
   34POPC   GL1  892   9.585   1.532   8.345 -0.0110  0.3159  0.0658
   34POPC   GL2  893   9.527   1.215   8.375 -0.1590  0.0937 -0.2473
   34POPC   C1A  894  10.030   1.690   8.117  0.0071 -0.2255 -0.2083
   34POPC   D2A  895  10.136   1.989   7.953 -0.0210 -0.1741 -0.0192
   34POPC   C3A  896   9.761   2.232   7.856  0.0076  0.1370  0.3399
   34POPC   C4A  897   9.499   2.432   7.566 -0.0575 -0.1449  0.0162
   34POPC   C1B  898   9.256   1.406   7.962 -0.1044 -0.0953 -0.0099
   34POPC   C2B  899   9.212   1.514   7.597  0.0731 -0.0794 -0.2159
   34POPC   C3B  900   8.948   1.097   7.478 -0.4397  0.0810  0.1685
   34POPC   C4B  901   8.607   0.876   7.530  0.3411  0.2388  0.2803
   35POPC   NC3  902   2.139   4.481   8.832  0.0830  0.0949 -0.0005
   35POPC   PO4  903   1.799   4.463   8.729 -0.2015  0.1620 -0.0213
   35POPC   GL1  904   1.946   4.558   8.238 -0.2131  0.1588  0.1753
   35POPC   GL2  905   1.702   4.368   8.118  0.2177 -0.5763  0.1354
   35POPC   C1A  906   1.972   4.699   7.795 -0.7275  0.2234 -0.0037
   35POPC   D2A  907   1.853   4.620   7.408  0.1777 -0.2947  0.1829
   35POPC   C3A  908   1.695   4.279   7.251  0.1030 -0.1404  0.1432
   35POPC   C4A  909   1.610   4.172   6.844  0.1326 -0.3173 -0.0143
   35POPC   C1B  910   1.440   4.377   7.759  0.1412  0.1308  0.1796
   35POPC   C2B  911   1.257   4.564   7.385 -0.1060 -0.2545 -0.0807
   35POPC   C3B  912   1.187   4.699   6.921 -0.1554  0.0133  0.0693
   35POPC   C4B  913   1.388   4.975   6.687 -0.0224 -0.1701 -0.0391
   36POPC   NC3  914   6.795   5.699   8.613 -0.1734  0.0119 -0.2640
   36POPC   PO4  915   6.739   5.257   8.616  0.2983  0.3195 -0.0361
   36POPC   GL1  916   6.801   5.261   8.169 -0.2114 -0.0066 -0.1715
   36POPC   GL2  917   6.850   5.608   8.067  0.0141  0.0745 -0.2821
   36POPC   C1A  918   6.707   5.285   7.648  0.2903 -0.2971 -0.1526
   36POPC   D2A  919   6.679   5.241   7.172 -0.3337 -0.6615 -0.0124
   36POPC   C3A  920   6.290   5.261   7.068 -0.2944  0.5726 -0.1321
   36POPC   C4A  921   5.914   4.998   6.794 -0.1583  0.2155  0.4298
   36POPC   C1B  922   7.051   5.816   7.657  0.0233  0.1052 -0.1739
   36POPC   C2B  923   7.008   5.755   7.274  0.2015  0.3073  0.0651
   36POPC   C3B  924   7.109   6.016   6.924  0.5283  0.2950  0.4961
   36POPC   C4B  925   7.266   5.883   6.590 -0.0838  0.0225 -0.1240
   37POPC   NC3  926   6.987   6.719   8.157  0.1718  0.4054  0.0276
   37POPC   PO4  927   7.295   6.488   8.230  0.0533 -0.2542 -0.1580
   37POPC   GL1  928   7.616   6.323   7.933  0.2304 -0.0186 -0.2676
   37POPC   GL2  929   7.473   6.009   7.937 -0.0164 -0.1276  0.0266
   37POPC   C1A  930   7.725   6.275   7.504 -0.1758  0.0478  0.1183
   37POPC   D2A  931   7.978   5.916   7.325  0.1120 -0.0502  0.0800
   37POPC   C3A  932   7.862   5.528   7.166 -0.0207 -0.2919  0.0914
   37POPC   C4A  933   7.730   5.242   7.117 -0.1354 -0.1710  0.1386
   37POPC   C1B  934   7.231   6.241   7.552 -0.1468  0.2113 -0.3275
   37POPC   C2B  935   7.164   6.586   7.417  0.0359  0.0496 -0.0679
   37POPC   C3B  936   7.040   6.991   7.487 -0.2123  0.1133 -0.1496
   37POPC   C4B  937   6.843   7.242   7.077  0.1621  0.2497  0.0699
   38POPC   NC3  938  10.530   7.057   9.106 -0.2876  0.1410  0.0154
   38POPC   PO4  939  10.659   6.968   8.611 -0.0552  0.0585  0.0908
   38POPC   GL1  940  10.381   7.139   8.266  0.3202 -0.1219 -0.0449
   38POPC   GL2  941   9.981   7.152   8.354 -0.1671  0.0217 -0.0406
   38POPC   C1A  942  10.363   7.200   7.856  0.0652 -0.0100 -0.0060
   38POPC   D2A  943  10.397   7.268   7.438  0.1425  0.1074 -0.1174
   38POPC   C3A  944  10.436   6.942   7.055 -0.0371 -0.0873 -0.1209
   38POPC   C4A  945  10.199   6.688   6.914 -0.0136  0.3307  0.0601
   38POPC   C1B  946   9.944   6.993   7.961 -0.0639  0.0463  0.0101
   38POPC   C2B  947   9.926   7.172   7.556 -0.0805 -0.1767 -0.0554
   38POPC   C3B  948   9.939   7.145   7.034  0.1190 -0.2877  0.1716
   38POPC   C4B  949   9.691   7.083   6.597  0.0612 -0.1505 -0.1315
   39POPC   NC3  950   8.105   8.915   8.650  0.0375  0.2411 -0.0278
   39POPC   PO4  951   8.377   8.626   8.797 -0.2610 -0.2630 -0.0016
   39POPC   GL1  952   8.253   8.447   8.373 -0.1775 -0.0996  0.0393
   39POPC   GL2  953   8.456   8.683   8.059 -0.2308  0.0645 -0.2612
   39POPC   C1A  954   8.194   8.279   8.015 -0.0790 -0.1489  0.0347
   39POPC   D2A  955   8.156   8.257   7.546 -0.0006 -0.0790  0.1315
   39POPC   C3A  956   8.267   7.969   7.251  0.1831  0.3411  0.2132
   39POPC   C4A  957   8.294   7.877   6.883 -0.0490  0.3012  0.0616
   39POPC   C1B  958   8.369   8.666   7.664 -0.1947 -0.0313  0.0843
   39POPC   C2B  959   8.608   8.559   7.339  0.2151 -0.0185 -0.0534
   39POPC   C3B  960   8.607   8.738   6.873  0.0962  0.0973  0.1694
   39POPC   C4B  961   8.483   8.899   6.445 -0.1204 -0.0748 -0.3514
   40POPC   NC3  962  10.037   5.001   8.965 -0.0150 -0.0083  0.1006
   40POPC   PO4  963  10.345   5.140   8.720 -0.0534 -0.2833 -0.1791
   40POPC   GL1  964  10.175   5.101   8.242  0.0304  0.2508  0.2849
   40POPC   GL2  965  10.006   5.389   8.164  0.3560 -0.2757 -0.1360
   40POPC   C1A  966  10.050   4.971   7.773  0.2079  0.0329 -0.1385
   40POPC   D2A  967  10.169   5.054   7.360 -0.2352 -0.0835 -0.2167
   40POPC   C3A  968   9.949   5.374   7.085  0.1064 -0.0790  0.4115
   40POPC   C4A  969   9.766   5.804   7.214  0.2302  0.1885 -0.3200
   40POPC   C1B  970  10.235   5.499   7.857 -0.0502 -0.0029 -0.1789
   40POPC   C2B  971  10.225   5.561   7.443  0.0507 -0.3160 -0.1246
   40POPC   C3B  972  10.308   5.883   7.122 -0.1810  0.2117  0.0084
   40POPC   C4B  973  10.519   6.136   6.718 -0.1014  0.0031  0.3930
   41POPC   NC3  974   6.151   5.216   8.569 -0.0367  0.2478 -0.1789
   41POPC   PO4  975   5.849   5.411   8.304  0.0245  0.1016  0.2005
   41POPC   GL1  976   5.735   5.392   7.860  0.3219 -0.1488  0.0768
   41POPC   GL2  977   5.656   5.024   7.787  0.1263  0.1191 -0.5945
   41POPC   C1A  978   5.728   5.602   7.480  0.2334 -0.1841 -0.1379
   41POPC   D2A  979   5.673   6.052   7.345  0.1032  0.0243 -0.3438
   41POPC   C3A  980   5.690   6.241   6.971  0.1802 -0.2149 -0.0587
   41POPC   C4A  981   6.070   6.557   6.796 -0.0477 -0.2345  0.2285
   41POPC   C1B  982   5.761   4.629   7.474 -0.0000 -0.0098 -0.1303
   41POPC   C2B  983   5.676   4.520   7.163  0.2115 -0.1796 -0.1782
   41POPC   C3B  984   5.535   4.403   6.716 -0.0561  0.1381 -0.0518
   41POPC   C4B  985   5.230   4.172   6.669 -0.1551 -0.2509 -0.0196
   42POPC   NC3  986   1.036   2.477   8.800  0.0618  0.1381  0.1949
   42POPC   PO4  987   1.432   2.451   8.545  0.4460 -0.0735  0.1617
   42POPC   GL1  988   1.378   2.596   8.100 -0.0207 -0.1457 -0.2040
   42POPC   GL2  989   1.712   2.553   8.047  0.0849  0.1496  0.0706
   42POPC   C1A  990   1.336   2.576   7.627 -0.1339 -0.2463  0.3283
   42POPC   D2A  991   1.421   2.465   7.154  0.1871  0.2213 -0.2646
   42POPC   C3A  992   1.744   2.623   6.925  0.0193  0.2947  0.3728
   42POPC   C4A  993   2.118   2.505   6.725 -0.1389 -0.2757 -0.2655
   42POPC   C1B  994   1.885   2.530   7.636  0.2708 -0.1474 -0.1553
   42POPC   C2B  995   1.991   2.367   7.297  0.1358 -0.0881  0.3204
   42POPC   C3B  996   2.415   2.276   7.295  0.2438  0.0307  0.0778
   42POPC   C4B  997   2.672   2.224   7.571 -0.0729  0.1800  0.0703
   43POPC   NC3  998  10.486   3.096   8.701 -0.1483 -0.0392 -0.2911
   43POPC   PO4  999  10.437   2.781   8.348 -0.2210  0.4960 -0.4089
   43POPC   GL1 1000  10.580   2.947   8.010 -0.1199  0.0740  0.3422
   43POPC   GL2 1001  10.648   3.238   8.163 -0.0571  0.0449  0.0628
   43POPC   C1A 1002  10.788   3.050   7.614 -0.0659 -0.0965 -0.2594
   43POPC   D2A 1003  10.948   3.279   7.416  0.0295 -0.3115 -0.2829
   43POPC   C3A 1004  11.240   3.125   7.331 -0.0945 -0.0267  0.0357
   43POPC   C4A 1005  11.486   2.973   7.027  0.2449  0.0310  0.1715
   43POPC   C1B 1006  10.435   3.457   7.913 -0.0284 -0.0615  0.0301
   43POPC   C2B 1007  10.392   3.529   7.431  0.1063  0.0982 -0.0801
   43POPC   C3B 1008  10.276   3.510   6.997  0.2432  0.0664 -0.0721
   43POPC   C4B 1009  10.190   3.169   6.692 -0.0953 -0.0669 -0.1492
   44POPC   NC3 1010   2.343   6.683   8.682 -0.1827 -0.1059  0.1723
   44POPC   PO4 1011   2.628   6.546   8.306  0.1828 -0.2281  0.1000
   44POPC   GL1 1012   2.742   6.746   7.942 -0.0552 -0.3158 -0.0539
   44POPC   GL2 1013   2.726   6.518   7.645 -0.0203  0.0427 -0.0048
   44POPC   C1A 1014   2.792   6.931   7.503  0.0427  0.2442 -0.3330
   44POPC   D2A 1015   2.698   6.858   7.029 -0.1331 -0.2111 -0.2268
   44POPC   C3A 1016   2.876   6.604   6.768  0.0820 -0.1412 -0.3065
   44POPC   C4A 1017   3.165   6.519   6.367 -0.0739 -0.1874  0.0642
   44POPC   C1B 1018   2.467   6.452   7.302 -0.1169 -0.3358  0.3523
   44POPC   C2B 1019   2.310   6.599   6.792  0.0116 -0.0348  0.3308
   44POPC   C3B 1020   2.305   6.932   6.582 -0.3642 -0.0797 -0.0823
   44POPC   C4B 1021   2.289   7.331   6.390 -0.1507 -0.1671  0.0300
   45POPC   NC3 1022   3.797   4.379   9.066  0.0489 -0.1026 -0.2294
   45POPC   PO4 1023   3.874   3.929   8.967  0.0998 -0.0568  0.0278
   45POPC   GL1 1024   3.706   3.933   8.467  0.0930 -0.0139  0.1477
   45POPC   GL2 1025   3.424   3.941   8.354 -0.2222  0.2590 -0.1080
   45POPC   C1A 1026   3.809   4.098   8.062 -0.0424 -0.0090 -0.2820
   45POPC   D2A 1027   3.808   4.161   7.634 -0.0030 -0.0288  0.1015
   45POPC   C3A 1028   3.659   3.865   7.323 -0.2471 -0.0935  0.0315
   45POPC   C4A 1029   3.423   3.676   6.906  0.2557 -0.0298 -0.0831
   45POPC   C1B 1030   3.411   3.599   8.006 -0.0540  0.0381  0.1428
   45POPC   C2B 1031   3.485   3.366   7.628  0.1008 -0.0833  0.0319
   45POPC   C3B 1032   3.683   3.380   7.259  0.3009 -0.0236  0.0071
   45POPC   C4B 1033   3.863   3.026   7.096  0.0689 -0.0714  0.5518
   46POPC   NC3 1034   3.469   8.396   8.418 -0.1937 -0.1882 -0.2710
   46POPC   PO4 1035   3.638   8.750   8.710 -0.1089  0.0544 -0.0796
   46POPC   GL1 1036   3.943   8.692   8.385 -0.0240 -0.0634 -0.2221
   46POPC   GL2 1037   3.908   8.434   8.260  0.2961 -0.0700  0.0875
   46POPC   C1A 1038   4.239   8.909   8.255 -0.1092 -0.2676  0.2911
   46POPC   D2A 1039   4.491   8.919   7.830 -0.5889 -0.2671 -0.1231
   46POPC   C3A 1040   4.411   8.615   7.544  0.2831  0.2796 -0.1070
   46POPC   C4A 1041   4.188   8.652   7.091  0.0142  0.1645 -0.0211
   46POPC   C1B 1042   4.003   8.627   7.775 -0.2277 -0.0696  0.2272
   46POPC   C2B 1043   4.172   9.073   7.470  0.1998  0.1832 -0.0427
   46POPC   C3B 1044   4.021   9.174   6.994 -0.6294 -0.0544  0.1623
   46POPC   C4B 1045   3.929   9.127   6.493  0.3094 -0.1997  0.0017
   47POPC   NC3 1046   9.651   9.241   8.505 -0.0831  0.0503  0.0334
   47POPC   PO4 1047   9.768   8.790   8.607  0.0553  0.0649  0.0882
   47POPC   GL1 1048   9.831   8.396   8.370  0.0005 -0.1749 -0.1548
   47POPC   GL2 1049   9.637   8.387   8.043 -0.0279  0.2505  0.1345
   47POPC   C1A 1050   9.907   7.981   8.139  0.0577 -0.4031 -0.3117
   47POPC   D2A 1051   9.878   7.589   7.780  0.1115 -0.2680 -0.0631
   47POPC   C3A 1052  10.108   7.675   7.401 -0.2213  0.2466  0.2270
   47POPC   C4A 1053  10.318   7.420   6.979 -0.2723  0.1764  0.2967
   47POPC   C1B 1054   9.518   8.026   7.818 -0.0722  0.1222  0.0087
   47POPC   C2B 1055   9.604   7.909   7.405  0.0734  0.2851 -0.0510
   47POPC   C3B 1056   9.593   7.607   7.188  0.0587 -0.0015  0.2129
   47POPC   C4B 1057   9.404   7.413   6.854 -0.1173 -0.1265 -0.1199
   48POPC   NC3 1058   0.198   0.076   8.577  0.1498 -0.1860 -0.0577
   48POPC   PO4 1059  -0.236   0.279   8.808 -0.1778 -0.2441 -0.1070
   48POPC   GL1 1060  -0.318   0.148   8.392  0.0665 -0.2931  0.3428
   48POPC   GL2 1061  -0.140  -0.107   8.188  0.1158 -0.0889  0.0366
   48POPC   C1A 1062  -0.547   0.182   8.061 -0.0927 -0.1418  0.0518
   48POPC   D2A 1063  -0.946   0.320   7.943 -0.0098 -0.2404  0.0207
   48POPC   C3A 1064  -1.117   0.420   7.561  0.1056  0.2573 -0.0160
   48POPC   C4A 1065  -1.178   0.192   7.216  0.4624  0.0368  0.0116
   48POPC   C1B 1066  -0.425  -0.356   7.892  0.0098  0.1632 -0.0926
   48POPC   C2B 1067  -0.413  -0.612   7.446 -0.2426 -0.0973 -0.0326
   48POPC   C3B 1068  -0.332  -0.951   7.213  0.0130  0.0610  0.1918
   48POPC   C4B 1069   0.001  -1.205   7.230  0.1645  0.2136 -0.0170
   49POPC   NC3 1070   9.264   4.902   8.434 -0.0058  0.1406 -0.0230
   49POPC   PO4 1071   9.632   4.524   8.523 -0.1083 -0.2264  0.0799
   49POPC   GL1 1072   9.443   4.401   8.144  0.0449  0.3179  0.1580
   49POPC   GL2 1073   9.459   4.150   8.195 -0.1425 -0.1506  0.0106
   49POPC   C1A 1074   9.311   4.562   7.733 -0.2437 -0.1786 -0.1029
   49POPC   D2A 1075   9.652   4.767   7.452  0.3034 -0.0087  0.1212
   49POPC   C3A 1076   9.766   4.641   6.912  0.1063 -0.1256 -0.3570
   49POPC   C4A 1077   9.913   4.476   6.648  0.3019  0.0734 -0.1662
   49POPC   C1B 1078   9.307   4.078   7.772 -0.0453  0.0457  0.2285
   49POPC   C2B 1079   9.081   3.899   7.366 -0.1991  0.0872 -0.2006
   49POPC   C3B 1080   8.863   3.534   7.155 -0.0414  0.0059  0.2727
   49POPC   C4B 1081   8.806   3.453   6.681 -0.1890  0.0441 -0.1106
   50POPC   NC3 1082   2.582   9.509   8.500 -0.0266  0.1846  0.3893
   50POPC   PO4 1083   2.250   9.787   8.390  0.2953  0.0985  0.0295
   50POPC   GL1 1084   2.286   9.565   7.999  0.1051  0.1751 -0.1162
   50POPC   GL2 1085   2.634   9.444   7.917 -0.1032 -0.1054 -0.0866
   50POPC   C1A 1086   2.244   9.659   7.508  0.0606  0.1842 -0.2539
   50POPC   D2A 1087   2.241   9.980   7.254 -0.0166  0.1271 -0.0944
   50POPC   C3A 1088   1.850   9.899   7.002 -0.2542 -0.1535  0.2139
   50POPC   C4A 1089   1.555   9.923   6.651 -0.0508 -0.2174  0.0613
   50POPC   C1B 1090   2.883   9.412   7.528  0.0392  0.3579 -0.1215
   50POPC   C2B 1091   3.112   9.310   7.100 -0.0335  0.2205 -0.0031
   50POPC   C3B 1092   3.511   9.252   6.953  0.0003 -0.1731  0.0673
   50POPC   C4B 1093   3.735   9.602   6.739  0.1087 -0.4026 -0.4909
   51POPC   NC3 1094   6.568   1.354   9.912 -0.1526  0.2865 -0.0158
   51POPC   PO4 1095   6.922   1.410   9.557  0.2292  0.1271  0.5143
   51POPC   GL1 1096   6.727   1.331   9.247  0.1889  0.1552  0.0630
   51POPC   GL2 1097   6.839   0.870   9.169  0.1322 -0.0931  0.3396
   51POPC   C1A 1098   6.385   1.032   9.125  0.0441  0.2020 -0.1126
   51POPC   D2A 1099   6.429   0.797   8.806 -0.0086 -0.1133 -0.0539
   51POPC   C3A 1100   6.739   0.577   8.800  0.0092 -0.0848 -0.0986
   51POPC   C4A 1101   7.007   0.259   8.561  0.0433 -0.0495  0.3274
   51POPC   C1B 1102   6.848   1.141   8.780  0.0496  0.0984 -0.0163
   51POPC   C2B 1103   6.660   1.249   8.366 -0.2186 -0.1785  0.2253
   51POPC   C3B 1104   6.713   1.065   7.886 -0.4469  0.0881 -0.2889
   51POPC   C4B 1105   7.074   1.125   7.606 -0.1478  0.0669  0.0960
   52POPC   NC3 1106   5.330   7.674   8.613  0.3099 -0.0836  0.3955
   52POPC   PO4 1107   5.023   7.695   8.410 -0.0777  0.0429 -0.0336
   52POPC   GL1 1108   5.136   7.578   8.038 -0.1049  0.0919 -0.0711
   52POPC   GL2 1109   5.050   7.291   7.892 -0.0201  0.0838 -0.0712
   52POPC   C1A 1110   5.091   7.793   7.589 -0.2540 -0.0987 -0.1380
   52POPC   D2A 1111   5.068   7.745   7.133  0.0075 -0.0589  0.0899
   52POPC   C3A 1112   5.274   7.794   6.782  0.1051 -0.0860  0.0432
   52POPC   C4A 1113   5.223   8.153   6.454  0.0313  0.1457 -0.0748
   52POPC   C1B 1114   5.258   7.339   7.408 -0.1361 -0.1677  0.0976
   52POPC   C2B 1115   5.445   7.397   6.979 -0.0207 -0.1815  0.1484
   52POPC   C3B 1116   5.724   7.520   6.668 -0.1703  0.0099  0.1994
   52POPC   C4B 1117   5.716   7.884   6.322 -0.1141  0.3690 -0.1011
   53POPC   NC3 1118   6.774   8.111   8.602  0.1280 -0.0459  0.0586
   53POPC   PO4 1119   6.455   8.100   8.320 -0.0063  0.2329  0.0882
   53POPC   GL1 1120   6.406   8.189   7.907  0.0163 -0.1636  0.0046
   53POPC   GL2 1121   6.187   8.473   7.960 -0.3270  0.0952  0.1112
   53POPC   C1A 1122   6.514   8.116   7.456 -0.0241  0.1580 -0.0804
   53POPC   D2A 1123   6.703   7.976   7.127 -0.0228 -0.2847 -0.1621
   53POPC   C3A 1124   6.518   7.588   7.137  0.0645  0.1325  0.1025
   53POPC   C4A 1125   6.363   7.493   7.436  0.2140  0.1545 -0.0348
   53POPC   C1B 1126   6.057   8.517   7.543  0.0482 -0.0574 -0.0343
   53POPC   C2B 1127   6.147   8.386   7.206  0.1287  0.0945  0.2616
   53POPC   C3B 1128   6.010   8.659   6.933  0.5477 -0.3108  0.0696
   53POPC   C4B 1129   6.063   8.948   6.616 -0.1066  0.1239  0.0239
   54POPC   NC3 1130   0.589   6.950   8.375  0.3517 -0.0532  0.4157
   54POPC   PO4 1131   0.598   6.611   8.086 -0.1958  0.2170 -0.0635
   54POPC   GL1 1132   0.648   6.900   7.760  0.1379 -0.1390  0.1465
   54POPC   GL2 1133   0.628   7.310   7.894 -0.0991  0.1226  0.2534
   54POPC   C1A 1134   0.350   7.109   7.569 -0.2798  0.0773  0.1990
   54POPC   D2A 1135   0.254   7.227   7.125  0.0814 -0.2246 -0.2999
   54POPC   C3A 1136   0.215   7.584   6.764 -0.1152 -0.1202 -0.1467
   54POPC   C4A 1137   0.110   7.828   6.457  0.0937  0.1777 -0.1155
   54POPC   C1B 1138   0.171   7.544   7.685  0.1127  0.0812 -0.1414
   54POPC   C2B 1139   0.069   7.747   7.212 -0.3810  0.1406  0.1672
   54POPC   C3B 1140   0.241   8.066   6.957  0.0842  0.5532  0.0362
   54POPC   C4B 1141   0.421   8.206   6.730  0.1821  0.1363  0.1511
   55POPC   NC3 1142   4.072   8.806   8.883  0.1271  0.1327 -0.0760
   55POPC   PO4 1143   4.417   8.677   8.861 -0.0381 -0.0090  0.0784
   55POPC   GL1 1144   4.659   9.001   8.600  0.1083 -0.1901  0.1164
   55POPC   GL2 1145   4.961   9.001   8.739 -0.0377 -0.3812  0.0496
   55POPC   C1A 1146   4.788   8.859   8.206 -0.0405 -0.1373 -0.3882
   55POPC   D2A 1147   5.082   8.943   7.996  0.0423 -0.0275 -0.4193
   55POPC   C3A 1148   5.478   8.713   8.018  0.0276 -0.0753 -0.1161
   55POPC   C4A 1149   5.703   8.363   7.870  0.2109  0.1324  0.4821
   55POPC   C1B 1150   5.229   8.999   8.470 -0.0878 -0.2858 -0.2220
   55POPC   C2B 1151   5.509   9.162   8.218  0.1553 -0.3315 -0.4138
   55POPC   C3B 1152   5.982   9.349   8.168  0.2631  0.2239 -0.1587
   55POPC   C4B 1153   6.321   9.331   7.972  0.1222  0.1294  0.0565
   56POPC   NC3 1154   3.875   6.544   8.344 -0.0116  0.2122 -0.2359
   56POPC   PO4 1155   3.717   6.929   8.420  0.0925  0.1720  0.0684
   56POPC   GL1 1156   3.400   7.137   8.172 -0.2312 -0.0922  0.2050
   56POPC   GL2 1157   3.252   6.918   7.851 -0.0393 -0.1841 -0.1685
   56POPC   C1A 1158   3.433   7.387   7.805 -0.3979  0.1001 -0.3506
   56POPC   D2A 1159   3.386   7.425   7.333  0.0664 -0.1881 -0.0499
   56POPC   C3A 1160   3.678   7.243   6.924  0.1366  0.1060 -0.2908
   56POPC   C4A 1161   3.884   7.084   6.720 -0.2309  0.1497  0.2908
   56POPC   C1B 1162   3.310   6.950   7.518 -0.0222 -0.0752 -0.0070
   56POPC   C2B 1163   3.257   6.923   7.057  0.0797  0.0500 -0.2745
   56POPC   C3B 1164   3.265   6.939   6.570 -0.0089  0.1181  0.4146
   56POPC   C4B 1165   2.868   6.927   6.371 -0.2161 -0.1766  0.3825
   57POPC   NC3 1166   7.122   2.777   9.047  0.0032 -0.2723 -0.0747
   57POPC   PO4 1167   7.356   3.045   8.756 -0.1701  0.1466 -0.0153
   57POPC   GL1 1168   7.102   3.093   8.465  0.0406  0.0600  0.1748
   57POPC   GL2 1169   6.841   2.934   8.668 -0.1208 -0.0627 -0.1468
   57POPC   C1A 1170   7.164   3.320   8.153  0.1523  0.2036 -0.1274
   57POPC   D2A 1171   7.121   3.506   7.723  0.2006  0.1031 -0.0586
   57POPC   C3A 1172   7.416   3.389   7.463  0.3663  0.2001  0.2071
   57POPC   C4A 1173   7.567   3.563   7.163  0.2842 -0.3118  0.2076
   57POPC   C1B 1174   6.971   2.694   8.260  0.2377 -0.2144  0.0219
   57POPC   C2B 1175   7.251   2.499   7.946  0.1524  0.0561  0.1939
   57POPC   C3B 1176   7.204   2.515   7.518 -0.3397 -0.5528  0.3285
   57POPC   C4B 1177   7.336   2.754   7.185  0.1046 -0.1430 -0.1916
   58POPC   NC3 1178   6.901   9.827   8.955  0.1168 -0.0602 -0.4985
   58POPC   PO4 1179   6.528   9.537   8.999  0.1460 -0.1286 -0.0419
   58POPC   GL1 1180   6.333   9.387   8.601 -0.0317 -0.2218 -0.0213
   58POPC   GL2 1181   6.292   9.130   8.490  0.0013 -0.0224  0.3189
   58POPC   C1A 1182   6.585   9.680   8.212  0.0794  0.0981  0.0082
   58POPC   D2A 1183   6.560  10.103   7.961  0.2260 -0.0616  0.2007
   58POPC   C3A 1184   6.207  10.088   7.743  0.1682  0.3979 -0.2195
   58POPC   C4A 1185   5.850   9.949   7.631 -0.0126 -0.0176 -0.0172
   58POPC   C1B 1186   5.976   8.858   8.250 -0.0364 -0.3497  0.1652
   58POPC   C2B 1187   5.783   9.022   7.812  0.2930  0.0885 -0.1368
   58POPC   C3B 1188   5.883   9.418   7.529  0.2025  0.0488 -0.0947
   58POPC   C4B 1189   5.931   9.371   7.064 -0.1931 -0.0874 -0.0867
   59POPC   NC3 1190  10.472   8.806   8.349  0.2132  0.0487  0.3396
   59POPC   PO4 1191  10.688   8.317   8.562  0.0465  0.1819 -0.3988
   59POPC   GL1 1192  10.608   8.386   8.173 -0.1872 -0.0165  0.1166
   59POPC   GL2 1193  10.272   8.347   8.177  0.0890 -0.0702 -0.0967
   59POPC   C1A 1194  10.619   8.511   7.730  0.1024 -0.2561 -0.0648
   59POPC   D2A 1195  10.457   8.332   7.323  0.1682 -0.2661 -0.3177
   59POPC   C3A 1196  10.592   8.530   6.879  0.1173 -0.0789  0.1982
   59POPC   C4A 1197  10.744   8.571   6.390  0.0740  0.2426 -0.0297
   59POPC   C1B 1198  10.133   8.634   7.820 -0.2416 -0.0077  0.2513
   59POPC   C2B 1199  10.111   8.788   7.395 -0.0641  0.1256 -0.1150
   59POPC   C3B 1200  10.277   8.932   7.054 -0.1175  0.1967 -0.1500
   59POPC   C4B 1201  10.419   8.904   6.658  0.0178  0.1603 -0.1403
   60POPC   NC3 1202   9.956   4.217   8.755 -0.2277 -0.0898  0.0473
   60POPC   PO4 1203  10.164   4.613   8.656  0.0638  0.0891  0.0870
   60POPC   GL1 1204  10.473   4.772   8.392  0.0391  0.1574  0.0994
   60POPC   GL2 1205  10.523   4.550   8.192  0.1316 -0.1513 -0.3852
   60POPC   C1A 1206  10.621   4.955   7.870 -0.1203  0.0831  0.1082
   60POPC   D2A 1207  10.644   5.258   7.594 -0.0629 -0.0121 -0.0573
   60POPC   C3A 1208  10.960   5.250   7.285 -0.0298  0.4664 -0.1741
   60POPC   C4A 1209  10.960   5.683   7.105 -0.4284 -0.0027  0.0039
   60POPC   C1B 1210  10.448   4.163   8.008 -0.0664  0.0541  0.1873
   60POPC   C2B 1211  10.653   3.900   7.797  0.2550  0.0258  0.2734
   60POPC   C3B 1212  10.947   3.548   7.852 -0.0088 -0.3689 -0.0224
   60POPC   C4B 1213  11.148   3.148   7.963 -0.0694  0.0154 -0.1167
   61POPC   NC3 1214   0.934   9.883   9.100 -0.0890 -0.1190 -0.2209
   61POPC   PO4 1215   0.754  10.052   8.817 -0.1458  0.1931 -0.0114
   61POPC   GL1 1216   0.789  10.275   8.440  0.0539  0.2395  0.0192
   61POPC   GL2 1217   0.991  10.555   8.562  0.3318 -0.2651  0.3304
   61POPC   C1A 1218   0.786  10.345   7.981 -0.0845  0.1699  0.0871
   61POPC   D2A 1219   1.008  10.301   7.579  0.1279 -0.0928 -0.2631
   61POPC   C3A 1220   0.986  10.464   7.247 -0.0270  0.0932  0.0207
   61POPC   C4A 1221   1.055  10.794   6.830  0.3260  0.2267 -0.2137
   61POPC   C1B 1222   1.026  10.796   8.120  0.2278 -0.0935  0.1166
   61POPC   C2B 1223   0.857  10.765   7.705  0.5167  0.1044  0.1300
   61POPC   C3B 1224   1.043  11.016   7.407  0.2213 -0.0240  0.1339
   61POPC   C4B 1225   1.207  11.231   7.123 -0.0234  0.0745  0.2526
   62POPC   NC3 1226   4.635   7.341   8.337 -0.3149  0.1404  0.0092
   62POPC   PO4 1227   4.799   6.963   8.137 -0.1387  0.2719  0.1231
   62POPC   GL1 1228   4.800   6.905   7.760  0.2677  0.0507  0.2607
   62POPC   GL2 1229   5.215   6.814   7.718  0.2973  0.0907 -0.4375
   62POPC   C1A 1230   4.912   6.979   7.363  0.1879 -0.0892  0.0616
   62POPC   D2A 1231   4.824   7.214   6.948 -0.0227  0.0064 -0.0189
   62POPC   C3A 1232   4.972   7.462   6.654  0.1879 -0.3259 -0.3542
   62POPC   C4A 1233   4.864   7.830   6.406  0.3126  0.0652 -0.0188
   62POPC   C1B 1234   5.407   6.802   7.393 -0.1678  0.2562  0.1896
   62POPC   C2B 1235   5.368   6.793   6.911 -0.5103 -0.0737  0.1654
   62POPC   C3B 1236   5.570   6.665   6.615 -0.1000 -0.4688 -0.0422
   62POPC   C4B 1237   5.496   6.337   6.470 -0.2775  0.1130 -0.0144
   63POPC   NC3 1238   1.413   0.636   8.917  0.1530 -0.1914  0.2284
   63POPC   PO4 1239   1.418   0.188   8.726  0.0526 -0.2260 -0.1658
   63POPC   GL1 1240   1.599   0.062   8.341 -0.0428  0.3558 -0.0027
   63POPC   GL2 1241   1.416  -0.198   8.310 -0.2315 -0.2190 -0.1040
   63POPC   C1A 1242   1.646   0.330   7.945  0.0313 -0.2184 -0.0164
   63POPC   D2A 1243   1.547   0.561   7.574 -0.2674  0.2047  0.1609
   63POPC   C3A 1244   1.915   0.750   7.685 -0.2048  0.1522  0.0984
   63POPC   C4A 1245   2.068   1.196   7.731  0.0106 -0.0986 -0.0296
   63POPC   C1B 1246   1.488  -0.158   7.859 -0.0744  0.0666 -0.0007
   63POPC   C2B 1247   1.450   0.075   7.423  0.3039 -0.1713 -0.0701
   63POPC   C3B 1248   1.511   0.194   7.067  0.0275  0.1139 -0.1484
   63POPC   C4B 1249   1.418   0.552   6.702  0.4301  0.0256  0.3609
   64POPC   NC3 1250   5.357   5.266   8.231  0.0537  0.0780  0.1463
   64POPC   PO4 1251   5.413   4.783   8.217 -0.3864 -0.1311  0.0695
   64POPC   GL1 1252   5.502   4.529   7.923  0.4155  0.0746 -0.0379
   64POPC   GL2 1253   5.739   4.337   8.037 -0.0777 -0.0605 -0.0176
   64POPC   C1A 1254   5.528   4.170   7.577  0.0943 -0.1045 -0.0938
   64POPC   D2A 1255   5.533   4.009   7.134 -0.2300  0.0156 -0.3549
   64POPC   C3A 1256   5.347   3.608   7.159 -0.1221 -0.1544  0.4761
   64POPC   C4A 1257   5.193   3.465   6.875  0.1062  0.0642  0.1710
   64POPC   C1B 1258   5.973   4.234   7.712  0.1205 -0.0791  0.0786
   64POPC   C2B 1259   6.014   4.166   7.315  0.2859  0.1736 -0.2185
   64POPC   C3B 1260   5.924   4.084   6.808 -0.0307 -0.0311  0.3037
   64POPC   C4B 1261   5.710   4.068   6.396  0.0586 -0.1797 -0.1565
   65POPC   NC3 1262   9.876   2.210   8.724 -0.2187  0.0129  0.0021
   65POPC   PO4 1263   9.451   2.004   8.678  0.1654  0.1888  0.2318
   65POPC   GL1 1264   9.104   2.139   8.351  0.1203 -0.0165  0.0448
   65POPC   GL2 1265   9.025   1.832   8.199 -0.1171  0.0156  0.1509
   65POPC   C1A 1266   8.875   2.224   7.886 -0.0871 -0.5464 -0.0668
   65POPC   D2A 1267   9.014   2.441   7.539  0.3814 -0.3415  0.1160
   65POPC   C3A 1268   9.004   2.851   7.706 -0.1275 -0.0786  0.0723
   65POPC   C4A 1269   8.903   3.126   7.482  0.2832 -0.2721 -0.2083
   65POPC   C1B 1270   8.823   1.723   7.986 -0.2333 -0.1186  0.1252
   65POPC   C2B 1271   8.869   1.873   7.552 -0.1105 -0.0550  0.0017
   65POPC   C3B 1272   9.082   1.610   7.152 -0.1331  0.0332  0.3100
   65POPC   C4B 1273   9.164   1.286   6.920 -0.2937  0.0691 -0.2238
   66POPC   NC3 1274   5.776   2.804   9.592 -0.3422  0.0817  0.1299
   66POPC   PO4 1275   5.927   2.863   9.271 -0.4557 -0.2225  0.1279
   66POPC   GL1 1276   5.984   2.656   9.023 -0.3536 -0.1814  0.5586
   66POPC   GL2 1277   6.272   2.469   8.847 -0.1937 -0.1799 -0.1770
   66POPC   C1A 1278   5.667   2.356   8.769  0.1988 -0.1799 -0.1610
   66POPC   D2A 1279   5.673   2.240   8.266  0.0316  0.0148 -0.0166
   66POPC   C3A 1280   5.792   1.878   8.209 -0.1892  0.2259  0.0817
   66POPC   C4A 1281   6.162   1.579   8.258 -0.0267  0.2010  0.2952
   66POPC   C1B 1282   6.482   2.595   8.417 -0.2157  0.0567  0.4098
   66POPC   C2B 1283   6.446   2.693   7.970 -0.1874 -0.1418  0.2072
   66POPC   C3B 1284   6.663   2.574   7.626 -0.0644  0.0723  0.1385
   66POPC   C4B 1285   6.841   2.160   7.646  0.2929 -0.2190  0.0796
   67POPC   NC3 1286   7.190   9.119   8.722  0.0824  0.1710 -0.2239
   67POPC   PO4 1287   7.588   8.939   8.782  0.0098 -0.1557  0.1033
   67POPC   GL1 1288   7.582   9.144   8.418 -0.1719  0.1179  0.1244
   67POPC   GL2 1289   7.271   9.320   8.256 -0.1203 -0.2074  0.3590
   67POPC   C1A 1290   7.799   9.347   8.012  0.0292  0.2504 -0.3345
   67POPC   D2A 1291   8.164   9.398   7.778  0.0480 -0.2579  0.0706
   67POPC   C3A 1292   8.443   9.292   7.357 -0.0544 -0.0830  0.0205
   67POPC   C4A 1293   8.783   9.080   7.186  0.0670 -0.2947 -0.2186
   67POPC   C1B 1294   7.417   9.596   7.909  0.2540  0.2672 -0.0166
   67POPC   C2B 1295   7.385   9.942   7.582 -0.0703 -0.1206 -0.2256
   67POPC   C3B 1296   7.295  10.358   7.368  0.0056  0.4635  0.1582
   67POPC   C4B 1297   7.089  10.839   7.175  0.2387  0.1171 -0.0930
   68POPC   NC3 1298   6.188  10.203  10.182  0.2942 -0.2549 -0.1379
   68POPC   PO4 1299   6.388  10.310   9.761 -0.2475  0.4345 -0.4207
   68POPC   GL1 1300   6.423  10.648   9.476  0.1240 -0.0375 -0.1394
   68POPC   GL2 1301   6.521  11.026   9.605 -0.4416 -0.1459 -0.1535
   68POPC   C1A 1302   6.373  10.627   9.072 -0.1411 -0.2537  0.1595
   68POPC   D2A 1303   6.342  10.195   8.846  0.1636 -0.2183 -0.1641
   68POPC   C3A 1304   6.089   9.866   8.592  0.2206  0.1420 -0.3772
   68POPC   C4A 1305   6.084   9.828   8.211  0.1304 -0.0207  0.2698
   68POPC   C1B 1306   6.233  11.095   9.268 -0.2821 -0.1835 -0.2293
   68POPC   C2B 1307   5.971  11.194   8.954  0.1282  0.0224  0.1022
   68POPC   C3B 1308   5.464  11.277   8.989  0.2102  0.2682  0.2037
   68POPC   C4B 1309   5.129  11.291   9.326  0.0852 -0.0948 -0.5210
   69POPC   NC3 1310   2.942   4.845   8.871  0.0462 -0.5912  0.0587
   69POPC   PO4 1311   2.983   4.540   8.539  0.1351  0.2698 -0.0802
   69POPC   GL1 1312   2.847   4.644   8.120 -0.1394  0.0471 -0.1700
   69POPC   GL2 1313   2.820   4.230   8.002 -0.3119 -0.0142  0.2482
   69POPC   C1A 1314   2.483   4.531   7.854 -0.1081 -0.0557 -0.2087
   69POPC   D2A 1315   2.252   4.321   7.440  0.1174  0.0238  0.3061
   69POPC   C3A 1316   2.632   4.348   7.180 -0.2640  0.3141 -0.1583
   69POPC   C4A 1317   2.759   4.653   6.944  0.1690 -0.0832 -0.0064
   69POPC   C1B 1318   2.877   4.259   7.565 -0.1733 -0.0174 -0.0143
   69POPC   C2B 1319   3.095   4.083   7.184 -0.2018 -0.1593  0.4382
   69POPC   C3B 1320   3.434   4.244   6.994  0.1558  0.1024  0.0154
   69POPC   C4B 1321   3.612   4.482   6.697 -0.2170  0.1811 -0.0828
   70POPC   NC3 1322   5.538   7.153   8.051  0.2301 -0.2050  0.4119
   70POPC   PO4 1323   5.823   6.670   8.093  0.1277  0.2397  0.1409
   70POPC   GL1 1324   6.080   6.499   7.751  0.3633 -0.0980 -0.0174
   70POPC   GL2 1325   6.240   6.730   7.690  0.0626 -0.0065 -0.2155
   70POPC   C1A 1326   5.965   6.510   7.322  0.1610 -0.1770  0.2434
   70POPC   D2A 1327   6.261   6.295   7.200  0.1813 -0.0430 -0.1794
   70POPC   C3A 1328   6.047   5.770   7.141  0.3785  0.0111 -0.0027
   70POPC   C4A 1329   5.750   5.463   6.948  0.2800  0.1749 -0.1955
   70POPC   C1B 1330   6.604   6.496   7.603  0.0612  0.0192 -0.3543
   70POPC   C2B 1331   6.808   6.333   7.180  0.1163  0.1795  0.1538
   70POPC   C3B 1332   6.953   6.631   6.846 -0.0902  0.0452  0.1839
   70POPC   C4B 1333   6.771   6.878   6.656 -0.2683  0.3129  0.2567
   71POPC   NC3 1334  10.106   9.603   8.152 -0.1775  0.1247 -0.2848
   71POPC   PO4 1335  10.098   9.237   8.262  0.3299  0.2158  0.1841
   71POPC   GL1 1336   9.975   9.164   7.824 -0.1273  0.3093  0.5066
   71POPC   GL2 1337  10.176   9.333   7.677  0.0857 -0.2972  0.0420
   71POPC   C1A 1338   9.705   9.025   7.467  0.0441  0.1500  0.3018
   71POPC   D2A 1339   9.481   9.132   7.151  0.1265 -0.0904 -0.1533
   71POPC   C3A 1340   9.332   8.995   6.799  0.0254 -0.0142 -0.1541
   71POPC   C4A 1341   9.105   8.804   6.367 -0.0561 -0.2875 -0.1187
   71POPC   C1B 1342  10.548   8.971   7.553 -0.0399 -0.0667 -0.1466
   71POPC   C2B 1343  10.880   8.798   7.344  0.0622  0.5395  0.1300
   71POPC   C3B 1344  11.158   8.621   7.036  0.2558 -0.1549  0.0016
   71POPC   C4B 1345  11.149   8.678   6.666  0.0287 -0.1848  0.0142
   72POPC   NC3 1346   5.744   1.833  10.283 -0.2237 -0.2594  0.0257
   72POPC   PO4 1347   5.596   1.877   9.842  0.0758 -0.0303  0.0548
   72POPC   GL1 1348   5.266   1.838   9.492  0.0555 -0.0518 -0.0241
   72POPC   GL2 1349   5.220   1.499   9.374 -0.0152  0.0206  0.0061
   72POPC   C1A 1350   5.343   1.873   9.030  0.0737  0.2471 -0.1492
   72POPC   D2A 1351   5.685   1.678   8.908 -0.0542 -0.0444  0.5249
   72POPC   C3A 1352   6.133   1.407   8.875  0.5618 -0.0073  0.3236
   72POPC   C4A 1353   6.485   1.524   8.806 -0.3026  0.1477 -0.1495
   72POPC   C1B 1354   4.799   1.486   9.333  0.1732  0.0321  0.4215
   72POPC   C2B 1355   4.529   1.623   8.924 -0.1142 -0.2015  0.0001
   72POPC   C3B 1356   4.260   1.751   8.623  0.1471  0.2930  0.4353
   72POPC   C4B 1357   3.915   1.991   8.536  0.0354 -0.0284 -0.1714
   73POPC   NC3 1358   0.309   7.886   8.789  0.2986 -0.1429  0.0622
   73POPC   PO4 1359  -0.159   7.871   8.621  0.3624 -0.0867 -0.1095
   73POPC   GL1 1360   0.113   7.897   8.267 -0.3366  0.1737 -0.1150
   73POPC   GL2 1361   0.446   7.873   8.264 -0.3344 -0.2963 -0.2755
   73POPC   C1A 1362  -0.093   8.056   7.823 -0.0803 -0.1233 -0.1242
   73POPC   D2A 1363  -0.509   8.080   7.646  0.0625 -0.0855  0.2079
   73POPC   C3A 1364  -0.568   8.121   7.169  0.0951 -0.0367  0.1874
   73POPC   C4A 1365  -0.290   7.965   6.977  0.2422  0.2935  0.1211
   73POPC   C1B 1366   0.484   7.839   7.864 -0.1738 -0.1546  0.2464
   73POPC   C2B 1367   0.574   7.690   7.448  0.0797 -0.2074  0.0303
   73POPC   C3B 1368   0.714   7.562   7.002  0.2310  0.3606 -0.0415
   73POPC   C4B 1369   0.635   7.414   6.517 -0.1700  0.0138 -0.2070
   74POPC   NC3 1370   8.255   3.798   8.975  0.0227  0.0866  0.1929
   74POPC   PO4 1371   8.729   3.838   8.704 -0.0113  0.2753  0.0192
   74POPC   GL1 1372   8.833   3.884   8.323 -0.1637  0.0592  0.1368
   74POPC   GL2 1373   9.120   3.663   8.236  0.0089 -0.5379 -0.1090
   74POPC   C1A 1374   8.769   4.057   7.875 -0.1419 -0.0953 -0.0929
   74POPC   D2A 1375   8.636   4.310   7.498 -0.3581  0.3342  0.0836
   74POPC   C3A 1376   8.529   4.077   7.057 -0.0481  0.2473  0.0312
   74POPC   C4A 1377   8.429   3.620   6.931 -0.0809  0.0081  0.0607
   74POPC   C1B 1378   9.264   3.385   8.010 -0.1886 -0.1733 -0.0918
   74POPC   C2B 1379   9.384   3.381   7.509 -0.2824  0.1917  0.0857
   74POPC   C3B 1380   9.388   3.242   7.112 -0.1435  0.2520  0.0832
   74POPC   C4B 1381   9.022   3.081   6.943 -0.2898 -0.0426  0.0064
   75POPC   NC3 1382   9.921   8.100   8.765  0.3676 -0.1227 -0.2532
   75POPC   PO4 1383   9.699   7.770   8.836 -0.1529  0.2461  0.0351
   75POPC   GL1 1384   9.538   7.699   8.412  0.1364  0.0446 -0.0237
   75POPC   GL2 1385   9.367   7.971   8.332 -0.3874 -0.1795 -0.0134
   75POPC   C1A 1386   9.533   7.425   8.098 -0.1600 -0.0135 -0.0904
   75POPC   D2A 1387   9.176   7.350   7.883 -0.2566  0.2112 -0.0738
   75POPC   C3A 1388   9.445   7.304   7.599  0.0317 -0.2378  0.0396
   75POPC   C4A 1389   9.463   7.055   7.220  0.1220 -0.2226 -0.1783
   75POPC   C1B 1390   9.093   7.848   8.049  0.2470 -0.0499  0.1218
   75POPC   C2B 1391   8.864   7.673   7.623 -0.1397  0.3524 -0.0673
   75POPC   C3B 1392   8.490   7.527   7.418 -0.0171 -0.3611  0.2786
   75POPC   C4B 1393   8.244   7.297   7.091  0.1174 -0.2784  0.3723
   76POPC   NC3 1394   0.203   5.917   8.562 -0.2512 -0.2487 -0.0210
   76POPC   PO4 1395   0.423   5.593   8.453 -0.5356 -0.1523 -0.3245
   76POPC   GL1 1396   0.614   5.238   8.182  0.1448 -0.0568  0.1799
   76POPC   GL2 1397   0.830   4.919   8.174 -0.2073  0.1307 -0.0588
   76POPC   C1A 1398   0.561   5.096   7.761 -0.0165 -0.1392 -0.0609
   76POPC   D2A 1399   0.432   4.790   7.427  0.0833 -0.0425  0.1096
   76POPC   C3A 1400   0.276   4.444   7.121  0.0568 -0.0164  0.5819
   76POPC   C4A 1401  -0.094   4.063   6.940  0.1329  0.0374 -0.1120
   76POPC   C1B 1402   1.162   4.770   8.014  0.0802  0.0812  0.1003
   76POPC   C2B 1403   1.496   4.851   7.674  0.2025 -0.0368 -0.1809
   76POPC   C3B 1404   1.556   5.045   7.198  0.0489 -0.0143  0.1176
   76POPC   C4B 1405   1.730   5.342   7.018 -0.1719 -0.2767  0.3404
   77POPC   NC3 1406   0.046   1.739   9.062  0.2030 -0.0401  0.3086
   77POPC   PO4 1407   0.026   1.553   8.661 -0.0582  0.1954  0.1394
   77POPC   GL1 1408  -0.074   1.416   8.160 -0.1449 -0.0483  0.0102
   77POPC   GL2 1409   0.161   1.500   7.878  0.0287 -0.1598  0.3753
   77POPC   C1A 1410  -0.372   1.525   7.683 -0.1665 -0.2147 -0.0098
   77POPC   D2A 1411  -0.582   1.881   7.460  0.1301  0.2471  0.1883
   77POPC   C3A 1412  -0.655   1.719   7.004  0.2620 -0.3152  0.1030
   77POPC   C4A 1413  -0.466   1.843   6.569  0.3566 -0.0620 -0.2551
   77POPC   C1B 1414  -0.012   1.157   7.647  0.2162 -0.0979  0.1639
   77POPC   C2B 1415  -0.403   1.028   7.587  0.0754  0.2517  0.2578
   77POPC   C3B 1416  -0.654   0.733   7.253  0.2042  0.0512 -0.2495
   77POPC   C4B 1417  -0.929   0.515   6.942  0.2608 -0.0981  0.0337
   78POPC   NC3 1418   2.882   3.143   8.984 -0.1678 -0.1645 -0.1299
   78POPC   PO4 1419   2.860   2.775   9.019  0.1435  0.1731  0.0045
   78POPC   GL1 1420   3.067   2.752   8.596  0.0192 -0.1039  0.3158
   78POPC   GL2 1421   3.018   3.022   8.515  0.0880  0.0919 -0.0394
   78POPC   C1A 1422   3.110   2.552   8.225  0.1571 -0.1186 -0.2257
   78POPC   D2A 1423   2.904   2.269   8.047  0.0543  0.1333  0.3112
   78POPC   C3A 1424   3.190   2.097   7.744 -0.1837  0.0952  0.3545
   78POPC   C4A 1425   3.304   1.811   7.515 -0.2265 -0.0912  0.0036
   78POPC   C1B 1426   2.759   2.885   8.053  0.0660 -0.2814 -0.0883
   78POPC   C2B 1427   2.798   2.668   7.701  0.1609 -0.0854  0.2515
   78POPC   C3B 1428   3.115   2.587   7.409  0.0698  0.0757  0.0455
   78POPC   C4B 1429   3.445   2.926   7.359 -0.2544 -0.1206 -0.1423
   79POPC   NC3 1430   7.319   5.024   8.152  0.0232  0.0922  0.0397
   79POPC   PO4 1431   7.201   5.450   8.372 -0.2624 -0.0799  0.0874
   79POPC   GL1 1432   7.414   5.456   7.925  0.0569  0.1118 -0.3462
   79POPC   GL2 1433   7.211   5.338   7.794 -0.1132  0.2846 -0.0815
   79POPC   C1A 1434   7.483   5.701   7.433 -0.1767  0.1710 -0.5204
   79POPC   D2A 1435   7.376   5.576   7.030 -0.1590  0.0484  0.0182
   79POPC   C3A 1436   6.959   5.527   6.863  0.3986  0.1618 -0.2714
   79POPC   C4A 1437   6.777   5.772   6.530  0.0931  0.1222 -0.0074
   79POPC   C1B 1438   7.143   5.305   7.355  0.0166 -0.0764 -0.0235
   79POPC   C2B 1439   7.110   5.037   7.087 -0.2377  0.0441  0.1219
   79POPC   C3B 1440   7.228   4.624   7.115 -0.2749 -0.1115  0.2688
   79POPC   C4B 1441   7.428   4.350   7.407  0.0898  0.0701 -0.1764
   80POPC   NC3 1442   3.728   7.458   8.421 -0.1728  0.0988 -0.0359
   80POPC   PO4 1443   4.111   7.348   8.518 -0.1458  0.6256  0.2244
   80POPC   GL1 1444   4.014   7.164   8.146  0.1810 -0.0774 -0.3273
   80POPC   GL2 1445   4.350   7.142   7.971  0.3516 -0.0953 -0.0943
   80POPC   C1A 1446   3.743   7.028   7.785  0.1216 -0.0969  0.1749
   80POPC   D2A 1447   3.782   6.989   7.349 -0.3157 -0.3675 -0.1067
   80POPC   C3A 1448   3.697   6.747   7.044 -0.0363  0.0218  0.3232
   80POPC   C4A 1449   3.722   6.620   6.618 -0.0127 -0.2135  0.0207
   80POPC   C1B 1450   4.590   7.483   7.779  0.4121 -0.0130 -0.0926
   80POPC   C2B 1451   4.582   7.463   7.286 -0.2695 -0.1333 -0.0092
   80POPC   C3B 1452   4.610   7.727   6.917  0.4001 -0.2779 -0.2161
   80POPC   C4B 1453   4.818   8.074   6.854  0.1226 -0.0465  0.0326
   81POPC   NC3 1454   7.342   8.471   8.759  0.1029 -0.3919  0.4115
   81POPC   PO4 1455   7.158   8.290   8.373  0.1935 -0.0658  0.1460
   81POPC   GL1 1456   7.294   8.440   7.958 -0.2083  0.0243  0.1834
   81POPC   GL2 1457   7.553   8.338   7.816  0.2757 -0.4451 -0.2651
   81POPC   C1A 1458   7.255   8.647   7.539 -0.1746 -0.2628 -0.3084
   81POPC   D2A 1459   7.252   8.826   7.148  0.0686  0.2406 -0.0429
   81POPC   C3A 1460   7.556   9.148   7.063 -0.3559  0.1735  0.0352
   81POPC   C4A 1461   7.636   9.297   6.760 -0.0403 -0.1322  0.3886
   81POPC   C1B 1462   7.710   8.449   7.443  0.1453 -0.3233 -0.2813
   81POPC   C2B 1463   7.749   8.641   7.035  0.3181 -0.0235  0.3287
   81POPC   C3B 1464   7.598   8.838   6.620 -0.1236  0.0610 -0.5008
   81POPC   C4B 1465   7.700   8.791   6.165  0.1817  0.1741  0.1188
   82POPC   NC3 1466   4.770   2.162  10.054 -0.2377 -0.2788  0.0574
   82POPC   PO4 1467   4.424   2.162  10.139  0.0511 -0.2160 -0.1047
   82POPC   GL1 1468   4.370   2.136   9.716 -0.0455  0.1856  0.2579
   82POPC   GL2 1469   4.389   2.402   9.523  0.2653 -0.0966  0.1176
   82POPC   C1A 1470   4.330   1.867   9.310 -0.0883  0.0521 -0.0773
   82POPC   D2A 1471   4.241   1.416   9.247  0.3002  0.0817 -0.0296
   82POPC   C3A 1472   4.077   1.278   8.903  0.1109  0.1623 -0.1147
   82POPC   C4A 1473   4.150   1.152   8.525  0.2138 -0.3302  0.0937
   82POPC   C1B 1474   4.625   2.278   9.209 -0.3553  0.0473  0.3649
   82POPC   C2B 1475   4.851   1.980   9.023  0.2925 -0.3616 -0.0854
   82POPC   C3B 1476   5.017   1.527   8.840 -0.0231 -0.1091 -0.0071
   82POPC   C4B 1477   5.109   1.094   8.958 -0.0005  0.0097  0.2706
   83POPC   NC3 1478   5.732   4.547   8.533 -0.1365  0.0406 -0.0597
   83POPC   PO4 1479   6.058   4.678   8.775 -0.1280  0.1425 -0.1652
   83POPC   GL1 1480   6.218   4.561   8.360  0.2092  0.1684  0.2103
   83POPC   GL2 1481   6.213   4.303   8.304  0.2227 -0.2350 -0.1607
   83POPC   C1A 1482   6.201   4.686   7.868  0.1691  0.1963 -0.0096
   83POPC   D2A 1483   6.576   4.825   7.493  0.0180 -0.0109 -0.2925
   83POPC   C3A 1484   6.686   4.756   7.113  0.0203  0.3586 -0.0507
   83POPC   C4A 1485   6.415   4.900   6.779 -0.2941  0.1750  0.0403
   83POPC   C1B 1486   6.254   4.069   8.067 -0.1634 -0.1646 -0.2609
   83POPC   C2B 1487   6.322   3.853   7.723  0.2348  0.0520  0.3307
   83POPC   C3B 1488   6.575   3.527   7.609  0.1809  0.1561  0.2014
   83POPC   C4B 1489   6.676   3.042   7.483  0.0071  0.0657  0.1790
   84POPC   NC3 1490   4.524   9.653   9.818  0.0534 -0.0286  0.3276
   84POPC   PO4 1491   4.793  10.081   9.927 -0.4001  0.1846  0.0565
   84POPC   GL1 1492   4.959  10.454   9.759  0.1467  0.3058  0.2152
   84POPC   GL2 1493   4.908  10.738   9.619  0.3851 -0.0136  0.1874
   84POPC   C1A 1494   5.355  10.383   9.526 -0.0620 -0.0408 -0.2059
   84POPC   D2A 1495   5.433  10.261   9.182 -0.3981  0.1023 -0.2246
   84POPC   C3A 1496   5.371  10.394   8.767  0.2507 -0.1840 -0.1779
   84POPC   C4A 1497   5.318  10.463   8.368 -0.0150 -0.0329  0.1248
   84POPC   C1B 1498   4.770  10.944   9.192 -0.1627  0.3472 -0.4485
   84POPC   C2B 1499   4.882  11.179   8.797 -0.2404 -0.3294 -0.1027
   84POPC   C3B 1500   5.220  11.405   8.544 -0.1651  0.1139  0.2903
   84POPC   C4B 1501   5.606  11.488   8.205 -0.2000  0.0631  0.0904
   85POPC   NC3 1502   2.714   2.267   9.218 -0.0257  0.0487 -0.0784
   85POPC   PO4 1503   2.908   1.880   9.566 -0.2997  0.0088  0.2930
   85POPC   GL1 1504   2.959   1.845   9.140 -0.1269  0.0940 -0.1918
   85POPC   GL2 1505   2.702   1.866   8.946  0.2086  0.1941 -0.2256
   85POPC   C1A 1506   3.145   1.616   8.798 -0.0383  0.0753 -0.1014
   85POPC   D2A 1507   3.325   1.235   8.679 -0.2546  0.1722  0.0360
   85POPC   C3A 1508   3.078   0.941   8.645 -0.0602  0.0419 -0.0314
   85POPC   C4A 1509   2.953   0.590   8.659 -0.2615 -0.0207  0.0645
   85POPC   C1B 1510   2.609   1.565   8.725  0.1507  0.2555  0.2650
   85POPC   C2B 1511   2.854   1.398   8.408 -0.1899  0.0399  0.0886
   85POPC   C3B 1512   3.212   1.487   8.256 -0.2590  0.3333  0.0526
   85POPC   C4B 1513   3.463   1.651   7.943 -0.1815  0.3307  0.1961
   86POPC   NC3 1514   3.406   6.111   8.741 -0.5262  0.1438  0.1443
   86POPC   PO4 1515   3.365   5.775   8.478  0.1957  0.2385 -0.2790
   86POPC   GL1 1516   3.523   5.555   8.028  0.1357 -0.0241 -0.1250
   86POPC   GL2 1517   3.828   5.606   8.088  0.0416 -0.0132  0.2844
   86POPC   C1A 1518   3.479   5.452   7.581 -0.0914 -0.0077 -0.1051
   86POPC   D2A 1519   3.555   5.296   7.224  0.2576 -0.0525  0.0374
   86POPC   C3A 1520   3.560   4.875   7.363  0.0234 -0.0159 -0.1696
   86POPC   C4A 1521   3.693   4.519   7.298 -0.1922 -0.1849  0.0661
   86POPC   C1B 1522   4.017   5.534   7.686 -0.1286 -0.1523 -0.2014
   86POPC   C2B 1523   4.382   5.247   7.627  0.1631  0.0432 -0.0017
   86POPC   C3B 1524   4.562   4.863   7.582  0.3800  0.0424 -0.0314
   86POPC   C4B 1525   4.763   4.516   7.511  0.1350 -0.2300  0.0022
   87POPC   NC3 1526   1.880   3.318   9.286  0.1127 -0.0940 -0.4757
   87POPC   PO4 1527   2.295   3.104   9.083  0.5158 -0.0075 -0.0555
   87POPC   GL1 1528   2.528   2.956   8.647 -0.2736  0.0415 -0.1304
   87POPC   GL2 1529   2.443   3.156   8.330 -0.3008 -0.0706  0.2748
   87POPC   C1A 1530   2.605   2.514   8.349 -0.2212  0.1223 -0.0315
   87POPC   D2A 1531   2.349   2.509   7.972  0.0348 -0.3755 -0.0126
   87POPC   C3A 1532   1.959   2.119   7.899  0.0734  0.1789  0.0046
   87POPC   C4A 1533   2.008   1.723   7.786  0.3417 -0.4152  0.0726
   87POPC   C1B 1534   2.424   3.310   7.923 -0.1553  0.0514 -0.3039
   87POPC   C2B 1535   2.479   3.241   7.475  0.0858 -0.1727  0.3061
   87POPC   C3B 1536   2.657   3.329   7.044  0.0114  0.2933 -0.1036
   87POPC   C4B 1537   2.525   3.307   6.588 -0.0521 -0.1469 -0.1294
   88POPC   NC3 1538   5.635   3.555   9.078 -0.2742 -0.6182 -0.3348
   88POPC   PO4 1539   5.586   3.784   8.769 -0.2815  0.1704  0.0421
   88POPC   GL1 1540   5.361   3.431   8.664 -0.1895 -0.0988  0.3190
   88POPC   GL2 1541   5.000   3.442   8.602 -0.1879 -0.2251  0.1569
   88POPC   C1A 1542   5.235   3.094   8.273 -0.1746 -0.0431  0.1855
   88POPC   D2A 1543   5.030   2.735   8.020  0.1724  0.1708 -0.3768
   88POPC   C3A 1544   5.170   2.703   7.615 -0.0792  0.1269 -0.0430
   88POPC   C4A 1545   5.615   2.717   7.587  0.0893 -0.0871 -0.2267
   88POPC   C1B 1546   4.906   3.452   8.155 -0.2366  0.1954 -0.3166
   88POPC   C2B 1547   4.999   3.206   7.742 -0.1874 -0.0380 -0.2559
   88POPC   C3B 1548   5.086   3.205   7.257 -0.0085  0.1662  0.1877
   88POPC   C4B 1549   5.363   2.878   7.150  0.2393  0.2457 -0.2209
   89POPC   NC3 1550   2.705  10.262   8.783 -0.0559 -0.0730  0.0200
   89POPC   PO4 1551   2.691  10.049   8.428 -0.1822  0.0660 -0.2630
   89POPC   GL1 1552   2.328  10.203   8.145  0.3279  0.2875  0.1677
   89POPC   GL2 1553   1.965  10.207   8.219 -0.1679  0.0326  0.0281
   89POPC   C1A 1554   2.286  10.127   7.764 -0.1804 -0.0606  0.0251
   89POPC   D2A 1555   2.401  10.463   7.392 -0.1267  0.2441 -0.0072
   89POPC   C3A 1556   2.760  10.571   7.076 -0.1332 -0.2473 -0.0624
   89POPC   C4A 1557   3.000  10.932   7.114 -0.0493  0.0413  0.2958
   89POPC   C1B 1558   1.991  10.494   7.762  0.1426  0.1210 -0.2733
   89POPC   C2B 1559   1.974  10.826   7.434  0.0342 -0.0092  0.1832
   89POPC   C3B 1560   1.912  11.175   7.145  0.1513 -0.0178  0.0631
   89POPC   C4B 1561   1.864  10.932   6.731  0.0111 -0.1905 -0.3084
   90POPC   NC3 1562   3.141   0.073   9.578  0.3180 -0.0711 -0.0231
   90POPC   PO4 1563   3.520   0.030   9.696 -0.1166 -0.2929  0.1616
   90POPC   GL1 1564   3.509   0.067   9.227 -0.0874  0.1840  0.2048
   90POPC   GL2 1565   3.448  -0.224   8.958 -0.4512  0.0886  0.0691
   90POPC   C1A 1566   3.446   0.376   8.765 -0.1113  0.1868 -0.0785
   90POPC   D2A 1567   3.443   0.624   8.344 -0.3706  0.3368 -0.0405
   90POPC   C3A 1568   3.018   0.738   8.147 -0.0664 -0.0273  0.1208
   90POPC   C4A 1569   2.621   0.962   8.331  0.1319  0.1224 -0.1106
   90POPC   C1B 1570   3.544  -0.037   8.536 -0.0469  0.1066 -0.2367
   90POPC   C2B 1571   3.798   0.148   8.253  0.0445  0.1105 -0.0289
   90POPC   C3B 1572   4.096  -0.051   8.073 -0.1208  0.1183 -0.4281
   90POPC   C4B 1573   4.231  -0.413   8.208  0.1494  0.2201 -0.1598
   91POPC   NC3 1574   0.352   9.661   8.332 -0.0672  0.2350 -0.1925
   91POPC   PO4 1575  -0.064   9.880   8.352 -0.1482 -0.2038  0.0076
   91POPC   GL1 1576  -0.027   9.779   7.872  0.2085 -0.2083 -0.0631
   91POPC   GL2 1577   0.302   9.638   7.792 -0.1984  0.1088 -0.2865
   91POPC   C1A 1578   0.056  10.164   7.615  0.0519 -0.0556  0.0177
   91POPC   D2A 1579   0.316  10.536   7.796 -0.1861 -0.0745  0.0859
   91POPC   C3A 1580   0.103  10.953   7.985  0.1623  0.0177  0.3072
   91POPC   C4A 1581   0.036  11.229   7.583 -0.1162 -0.1096  0.2773
   91POPC   C1B 1582   0.163   9.764   7.322  0.2455  0.2513 -0.3011
   91POPC   C2B 1583  -0.027  10.013   7.035 -0.0321 -0.1761  0.0335
   91POPC   C3B 1584   0.181  10.332   6.916  0.2305  0.1901  0.1726
   91POPC   C4B 1585   0.592  10.324   6.811 -0.2718  0.0276  0.0590
   92POPC   NC3 1586   6.143   6.293   8.205  0.2305  0.0881 -0.0939
   92POPC   PO4 1587   6.571   5.983   8.284  0.1298 -0.0807  0.0132
   92POPC   GL1 1588   6.379   5.942   7.971 -0.2585 -0.4395 -0.1108
   92POPC   GL2 1589   6.390   6.117   7.770 -0.1364  0.1189 -0.3621
   92POPC   C1A 1590   6.289   5.584   7.806 -0.2165 -0.1612  0.1509
   92POPC   D2A 1591   6.158   5.188   7.851 -0.1195 -0.2479 -0.0370
   92POPC   C3A 1592   6.036   5.054   7.414 -0.3014 -0.2493 -0.0803
   92POPC   C4A 1593   6.161   4.739   7.197 -0.0899  0.2103 -0.1632
   92POPC   C1B 1594   6.551   5.917   7.398  0.0835 -0.1952 -0.1368
   92POPC   C2B 1595   6.546   5.934   6.975 -0.0861  0.2457 -0.0870
   92POPC   C3B 1596   6.551   6.285   6.791  0.0845  0.3886  0.1542
   92POPC   C4B 1597   6.533   6.329   6.400 -0.2569  0.0025  0.1652
   93POPC   NC3 1598   6.900   7.697   8.301  0.2700 -0.2753  0.0329
   93POPC   PO4 1599   6.863   8.022   8.065  0.0235 -0.1344 -0.0704
   93POPC   GL1 1600   6.925   8.223   7.640  0.1149 -0.1747  0.1808
   93POPC   GL2 1601   6.802   8.514   7.633  0.4764 -0.0692  0.1410
   93POPC   C1A 1602   7.083   8.338   7.195  0.0996 -0.2024  0.2187
   93POPC   D2A 1603   7.167   8.066   6.820 -0.1766  0.3207  0.0185
   93POPC   C3A 1604   6.923   7.692   6.825  0.2112  0.1687  0.3173
   93POPC   C4A 1605   6.734   7.394   6.587 -0.2899  0.0272  0.0452
   93POPC   C1B 1606   6.675   8.694   7.301  0.1036  0.0730  0.1939
   93POPC   C2B 1607   6.587   8.497   7.012 -0.0453 -0.1906  0.0379
   93POPC   C3B 1608   6.744   8.292   6.688  0.1656 -0.0759  0.1831
   93POPC   C4B 1609   6.949   8.306   6.273  0.1064  0.0855 -0.0914
   94POPC   NC3 1610  10.520   4.365   8.843 -0.2010  0.3579  0.0502
   94POPC   PO4 1611  10.384   4.046   8.587 -0.1680 -0.0737  0.1581
   94POPC   GL1 1612  10.008   4.183   8.249 -0.0508  0.1457  0.0532
   94POPC   GL2 1613  10.035   4.542   8.156  0.4194  0.1178 -0.0684
   94POPC   C1A 1614   9.821   4.310   7.813 -0.1867 -0.3478  0.1243
   94POPC   D2A 1615  10.009   4.474   7.457  0.3386 -0.0059 -0.3378
   94POPC   C3A 1616  10.205   4.479   7.082  0.0003  0.2855 -0.2040
   94POPC   C4A 1617  10.405   4.503   6.741 -0.2534  0.0529 -0.0927
   94POPC   C1B 1618  10.317   4.569   7.752 -0.1707  0.0279  0.0598
   94POPC   C2B 1619  10.491   4.721   7.422 -0.0821  0.1381 -0.5733
   94POPC   C3B 1620  10.677   4.923   7.035 -0.1274 -0.0345  0.0598
   94POPC   C4B 1621  10.532   5.327   7.011  0.0131  0.0644 -0.0380
   95POPC   NC3 1622   3.199   9.097   9.354  0.0921 -0.1221  0.1683
   95POPC   PO4 1623   3.286   9.161   8.949 -0.0168 -0.2793 -0.2280
   95POPC   GL1 1624   3.405   9.125   8.495  0.2790 -0.2115  0.0229
   95POPC   GL2 1625   3.371   8.883   8.264 -0.0256  0.0726 -0.0081
   95POPC   C1A 1626   3.539   9.452   8.174 -0.1626 -0.0943  0.1846
   95POPC   D2A 1627   3.428   9.696   7.904  0.3706  0.1864  0.1058
   95POPC   C3A 1628   3.072   9.791   7.813  0.4787 -0.4961  0.0242
   95POPC   C4A 1629   2.730   9.913   7.711  0.1332 -0.0216  0.0577
   95POPC   C1B 1630   3.746   8.973   8.031 -0.1424 -0.0428  0.3596
   95POPC   C2B 1631   3.762   9.291   7.754  0.2683  0.2733 -0.0547
   95POPC   C3B 1632   3.351   9.536   7.470 -0.0525  0.2299  0.1812
   95POPC   C4B 1633   3.153   9.784   7.317 -0.0429 -0.2191 -0.2259
   96POPC   NC3 1634   1.704   6.193   8.484 -0.2017  0.0177  0.0097
   96POPC   PO4 1635   2.245   6.247   8.549 -0.0453  0.1232 -0.4143
   96POPC   GL1 1636   2.166   6.387   8.131  0.2054  0.0411 -0.0449
   96POPC   GL2 1637   2.100   6.633   7.856  0.2326  0.0619 -0.0875
   96POPC   C1A 1638   2.236   6.058   7.830  0.0308  0.0356 -0.2439
   96POPC   D2A 1639   2.293   5.988   7.393  0.1941 -0.0501 -0.0191
   96POPC   C3A 1640   2.279   5.983   6.905 -0.1569  0.2850  0.2031
   96POPC   C4A 1641   2.131   6.175   6.577  0.0724 -0.0573  0.1378
   96POPC   C1B 1642   1.967   6.413   7.605 -0.2056 -0.0304 -0.0279
   96POPC   C2B 1643   1.796   5.938   7.556 -0.0625 -0.1257  0.3979
   96POPC   C3B 1644   1.936   5.619   7.489 -0.0656  0.3914  0.0242
   96POPC   C4B 1645   2.283   5.396   7.310  0.0860 -0.2145  0.0795
   97POPC   NC3 1646   4.221   4.677   8.519 -0.0780 -0.2643  0.2046
   97POPC   PO4 1647   4.206   4.447   8.799  0.1873  0.1571  0.3007
   97POPC   GL1 1648   4.153   4.189   8.379 -0.1015 -0.3069  0.0136
   97POPC   GL2 1649   4.462   4.291   8.356 -0.5006 -0.1763  0.2029
   97POPC   C1A 1650   4.299   3.851   8.161  0.1611 -0.0198 -0.1369
   97POPC   D2A 1651   4.309   3.391   8.035  0.1778 -0.2063 -0.2164
   97POPC   C3A 1652   4.220   3.148   8.323 -0.0246  0.1216  0.0799
   97POPC   C4A 1653   4.319   3.047   8.775  0.0455 -0.2249  0.0238
   97POPC   C1B 1654   4.514   4.234   7.911 -0.0057  0.3124  0.2155
   97POPC   C2B 1655   4.253   4.000   7.721 -0.1699  0.2207 -0.1953
   97POPC   C3B 1656   4.250   3.721   7.369 -0.0368  0.2087  0.0267
   97POPC   C4B 1657   4.256   3.414   7.133 -0.0272  0.1808  0.0799
   98POPC   NC3 1658   4.806   8.132   8.491 -0.1781  0.2242  0.0345
   98POPC   PO4 1659   4.552   8.283   8.581  0.1440  0.1306 -0.2930
   98POPC   GL1 1660   4.412   8.437   8.167  0.1017 -0.0656  0.0534
   98POPC   GL2 1661   4.229   8.189   7.950 -0.0875 -0.0868  0.0612
   98POPC   C1A 1662   4.797   8.500   7.869  0.1923  0.1319 -0.2174
   98POPC   D2A 1663   5.077   8.438   7.885 -0.1485 -0.0914 -0.3120
   98POPC   C3A 1664   5.290   8.266   7.486 -0.0154  0.1741  0.1523
   98POPC   C4A 1665   5.644   8.387   7.265  0.0325  0.0606  0.2176
   98POPC   C1B 1666   3.944   8.155   7.622 -0.3342  0.0706  0.1880
   98POPC   C2B 1667   3.902   7.893   7.303 -0.0382  0.2351  0.1966
   98POPC   C3B 1668   4.098   7.728   6.939  0.1129  0.1634  0.0679
   98POPC   C4B 1669   3.885   7.674   6.550  0.0051 -0.1154 -0.0205
   99POPC   NC3 1670   5.786   4.214   8.890  0.2018 -0.1564 -0.2978
   99POPC   PO4 1671   6.064   3.837   9.081  0.0713  0.2261 -0.1270
   99POPC   GL1 1672   6.023   3.608   8.672 -0.2360  0.4567 -0.0299
   99POPC   GL2 1673   5.924   3.790   8.419 -0.3524 -0.0296  0.0479
   99POPC   C1A 1674   5.922   3.272   8.445  0.1655 -0.0781  0.0786
   99POPC   D2A 1675   6.026   2.988   8.156 -0.2173 -0.0463 -0.0040
   99POPC   C3A 1676   6.124   3.017   7.701  0.1339 -0.0945  0.1705
   99POPC   C4A 1677   6.136   2.671   7.502 -0.2426  0.0878 -0.0909
   99POPC   C1B 1678   5.750   3.872   7.977 -0.2322  0.1315 -0.1221
   99POPC   C2B 1679   5.790   3.764   7.480 -0.0089 -0.0916 -0.3347
   99POPC   C3B 1680   5.893   3.619   7.019  0.2492 -0.2217 -0.0461
   99POPC   C4B 1681   6.013   3.599   6.518  0.4020 -0.1525 -0.0651
  100POPC   NC3 1682   2.676   8.241   8.776  0.2072  0.1121  0.1446
  100POPC   PO4 1683   2.523   8.043   8.525  0.1009 -0.1736  0.1238
  100POPC   GL1 1684   2.594   8.119   8.116  0.0571 -0.2319 -0.0252
  100POPC   GL2 1685   2.502   8.009   7.879  0.1612 -0.4541  0.2879
  100POPC   C1A 1686   2.615   8.463   7.790  0.1494 -0.0830 -0.2107
  100POPC   D2A 1687   2.792   8.821   7.477  0.0112 -0.0122 -0.2223
  100POPC   C3A 1688   3.164   8.731   7.137  0.0191 -0.1937 -0.1062
  100POPC   C4A 1689   3.343   8.445   6.820  0.2774 -0.2033  0.0514
  100POPC   C1B 1690   2.474   8.017   7.456  0.2801 -0.1612  0.2162
  100POPC   C2B 1691   2.505   7.959   7.093  0.0281  0.1691  0.1247
  100POPC   C3B 1692   2.781   8.246   6.838 -0.1458  0.1438 -0.1731
  100POPC   C4B 1693   2.996   8.151   6.494 -0.0192 -0.0264 -0.2238
  101POPC   NC3 1694   6.489   4.022   9.368  0.1990 -0.1502 -0.0450
  101POPC   PO4 1695   6.585   3.705   9.044 -0.2427  0.1760 -0.0298
  101POPC   GL1 1696   6.486   3.291   8.746  0.0615 -0.3093 -0.2969
  101POPC   GL2 1697   6.608   3.372   8.451 -0.0473 -0.0308 -0.1141
  101POPC   C1A 1698   6.308   3.012   8.563 -0.1718 -0.1731  0.2102
  101POPC   D2A 1699   5.997   2.556   8.464  0.2672 -0.0130 -0.0348
  101POPC   C3A 1700   5.989   2.494   7.935  0.1716 -0.3096 -0.4829
  101POPC   C4A 1701   5.909   2.208   7.587  0.0280  0.0653 -0.1496
  101POPC   C1B 1702   6.265   3.471   8.165  0.1897  0.0478  0.4699
  101POPC   C2B 1703   5.990   3.426   7.870  0.1704 -0.0097  0.0648
  101POPC   C3B 1704   6.121   3.426   7.401 -0.0686  0.0021 -0.3362
  101POPC   C4B 1705   6.406   3.338   7.152 -0.0776  0.0698  0.0117
  102POPC   NC3 1706   4.362   8.493   9.314 -0.0179 -0.3182 -0.0926
  102POPC   PO4 1707   4.142   8.857   9.434 -0.0258 -0.2089  0.0937
  102POPC   GL1 1708   4.344   9.140   9.057 -0.2315 -0.0062 -0.2617
  102POPC   GL2 1709   4.657   9.313   8.981  0.2867 -0.1541 -0.3711
  102POPC   C1A 1710   4.278   9.345   8.605 -0.0634  0.5424  0.0531
  102POPC   D2A 1711   4.025   9.505   8.231 -0.0330  0.1879  0.0326
  102POPC   C3A 1712   4.068   9.797   7.857 -0.0155  0.5234  0.2288
  102POPC   C4A 1713   4.311   9.789   7.465 -0.0825 -0.0947  0.0725
  102POPC   C1B 1714   4.569   9.680   8.752  0.0116 -0.0800 -0.2548
  102POPC   C2B 1715   4.552   9.771   8.379  0.1694  0.1434  0.0076
  102POPC   C3B 1716   4.553   9.871   7.940 -0.0505  0.1049 -0.0007
  102POPC   C4B 1717   4.488  10.172   7.699  0.2340  0.0956 -0.0327
  103POPC   NC3 1718   1.603  10.499   9.193 -0.3363  0.1391 -0.1671
  103POPC   PO4 1719   1.665  10.786   9.113 -0.1302 -0.2924  0.0433
  103POPC   GL1 1720   1.929  10.746   8.716 -0.0030 -0.0094 -0.2995
  103POPC   GL2 1721   1.761  11.057   8.546  0.0762 -0.0085  0.1547
  103POPC   C1A 1722   2.175  10.649   8.433 -0.3070  0.1240 -0.0506
  103POPC   D2A 1723   2.519  10.998   8.258 -0.1557  0.4678 -0.0774
  103POPC   C3A 1724   2.568  11.255   7.894  0.2262 -0.0738  0.0576
  103POPC   C4A 1725   2.639  11.434   7.667  0.2690  0.0758 -0.0976
  103POPC   C1B 1726   1.540  11.270   8.223  0.3711  0.1310 -0.1930
  103POPC   C2B 1727   1.186  11.191   7.931 -0.1262  0.0140  0.0183
  103POPC   C3B 1728   1.078  11.479   7.558 -0.3993 -0.2918 -0.0113
  103POPC   C4B 1729   1.158  11.835   7.291 -0.2008 -0.3811  0.1645
  104POPC   NC3 1730   7.332   0.232   9.723 -0.0409 -0.2074  0.0606
  104POPC   PO4 1731   7.017   0.589   9.512  0.3503  0.2089  0.0713
  104POPC   GL1 1732   7.031   0.318   9.227  0.0534 -0.1394  0.1924
  104POPC   GL2 1733   7.160   0.464   9.022 -0.1162  0.0536 -0.0461
  104POPC   C1A 1734   6.850  -0.022   8.972  0.1981 -0.0720  0.2701
  104POPC   D2A 1735   6.590   0.004   8.570 -0.1938  0.1041 -0.0094
  104POPC   C3A 1736   6.726  -0.434   8.440 -0.1283 -0.0888  0.2718
  104POPC   C4A 1737   7.105  -0.672   8.204 -0.2441  0.1888 -0.0098
  104POPC   C1B 1738   7.173   0.765   8.640 -0.0589  0.2278  0.2273
  104POPC   C2B 1739   7.493   0.701   8.260  0.1398  0.4293 -0.4473
  104POPC   C3B 1740   7.789   0.630   7.900  0.0633 -0.3233  0.0890
  104POPC   C4B 1741   7.987   0.295   7.594 -0.0158  0.1846 -0.1795
  105POPC   NC3 1742   4.265   3.714   9.227  0.1615 -0.0746 -0.0951
  105POPC   PO4 1743   4.635   3.404   9.230  0.0728  0.3657  0.1872
  105POPC   GL1 1744   4.556   3.468   8.763 -0.2957  0.1913 -0.0005
  105POPC   GL2 1745   4.240   3.505   8.783 -0.1723  0.1788  0.0687
  105POPC   C1A 1746   4.633   3.738   8.436  0.2001 -0.0399  0.0413
  105POPC   D2A 1747   4.831   3.973   8.168  0.0349 -0.1716 -0.0088
  105POPC   C3A 1748   4.746   3.775   7.778  0.3748  0.3392 -0.0997
  105POPC   C4A 1749   4.524   3.329   7.589 -0.4352 -0.2930  0.2362
  105POPC   C1B 1750   3.992   3.537   8.435  0.2155  0.0706 -0.0886
  105POPC   C2B 1751   3.834   3.491   8.191 -0.0684  0.0218  0.2718
  105POPC   C3B 1752   3.732   3.074   7.968  0.0757  0.0445 -0.1634
  105POPC   C4B 1753   3.592   2.714   8.135 -0.1261  0.2739 -0.3552
  106POPC   NC3 1754   2.751   9.817   9.506 -0.1041 -0.3590  0.0039
  106POPC   PO4 1755   3.094   9.800   9.141  0.0007  0.1545  0.2364
  106POPC   GL1 1756   3.162  10.036   8.646  0.0531  0.0500 -0.3234
  106POPC   GL2 1757   3.118  10.256   8.468 -0.1620 -0.2437 -0.2634
  106POPC   C1A 1758   3.646  10.024   8.401  0.1384 -0.1253  0.1213
  106POPC   D2A 1759   3.717  10.080   8.009 -0.0738  0.2454 -0.2961
  106POPC   C3A 1760   3.392  10.147   7.629  0.1226 -0.0787 -0.0310
  106POPC   C4A 1761   3.163  10.424   7.326 -0.1441 -0.1504 -0.0580
  106POPC   C1B 1762   3.119  10.252   8.024 -0.2280  0.1863 -0.2330
  106POPC   C2B 1763   2.857  10.388   7.767  0.0414 -0.3662  0.7370
  106POPC   C3B 1764   2.718  10.087   7.247  0.3222 -0.1638 -0.2564
  106POPC   C4B 1765   2.608   9.700   7.117 -0.2806  0.2914 -0.1066
  107POPC   NC3 1766   5.616   6.266   8.302 -0.1516  0.0211  0.1203
  107POPC   PO4 1767   5.139   6.252   8.264  0.0657 -0.3620  0.3655
  107POPC   GL1 1768   5.133   6.296   7.790 -0.1128 -0.0755 -0.1952
  107POPC   GL2 1769   4.783   6.197   7.638 -0.0521 -0.3058 -0.1995
  107POPC   C1A 1770   5.260   6.282   7.393 -0.0064 -0.2783 -0.0939
  107POPC   D2A 1771   5.115   6.273   6.888 -0.0919 -0.1590  0.1062
  107POPC   C3A 1772   4.836   6.214   6.550  0.1999 -0.2741 -0.0213
  107POPC   C4A 1773   4.815   6.131   6.221  0.1883 -0.0070 -0.0124
  107POPC   C1B 1774   4.810   5.944   7.210 -0.0466 -0.0966 -0.2564
  107POPC   C2B 1775   4.923   5.720   6.890 -0.3025  0.2272 -0.0279
  107POPC   C3B 1776   5.085   5.276   7.021 -0.3631 -0.1745  0.1035
  107POPC   C4B 1777   4.898   4.898   7.209  0.0741  0.1326 -0.0099
  108POPC   NC3 1778   3.189   9.544   8.683 -0.0400 -0.1662 -0.0270
  108POPC   PO4 1779   2.869   9.142   8.646 -0.0582 -0.2266  0.0615
  108POPC   GL1 1780   2.929   9.108   8.204  0.0385  0.0422  0.0914
  108POPC   GL2 1781   2.833   8.738   8.174 -0.0393 -0.3716  0.0914
  108POPC   C1A 1782   3.176   9.179   7.837 -0.3326  0.4117  0.1288
  108POPC   D2A 1783   3.434   8.925   7.466 -0.0021 -0.0043 -0.2360
  108POPC   C3A 1784   3.755   8.817   7.167  0.0449  0.2564  0.0977
  108POPC   C4A 1785   3.783   8.677   6.757  0.0403 -0.0544  0.4069
  108POPC   C1B 1786   3.075   8.655   7.833 -0.5200 -0.1540 -0.2955
  108POPC   C2B 1787   3.437   8.453   7.723  0.1652  0.1586  0.2216
  108POPC   C3B 1788   3.599   8.442   7.454 -0.1691  0.1478  0.1322
  108POPC   C4B 1789   3.832   8.329   7.062 -0.0341  0.2006  0.3008
  109POPC   NC3 1790   7.407   9.545   9.275  0.1163  0.0082 -0.1416
  109POPC   PO4 1791   7.331   9.992   9.128 -0.1082  0.0083  0.1967
  109POPC   GL1 1792   7.233  10.208   8.829  0.1570  0.0511 -0.2625
  109POPC   GL2 1793   7.555  10.119   8.516 -0.2227 -0.1272 -0.3264
  109POPC   C1A 1794   7.156  10.385   8.368 -0.3263 -0.4010  0.0906
  109POPC   D2A 1795   6.772  10.524   8.086 -0.0261 -0.1758  0.0617
  109POPC   C3A 1796   6.513  10.821   8.191  0.1325 -0.1906 -0.0797
  109POPC   C4A 1797   6.262  10.872   8.584 -0.0483 -0.0943  0.0368
  109POPC   C1B 1798   7.563  10.133   8.109  0.2051  0.1771  0.0964
  109POPC   C2B 1799   7.182  10.247   7.828  0.3476  0.0648 -0.0404
  109POPC   C3B 1800   6.841  10.237   7.598  0.3250  0.0466  0.1538
  109POPC   C4B 1801   6.542  10.554   7.645  0.1881  0.1634 -0.0887
  110POPC   NC3 1802   3.365   7.566   8.774 -0.1779 -0.1355 -0.0830
  110POPC   PO4 1803   3.465   7.925   8.507  0.1100 -0.0987  0.0788
  110POPC   GL1 1804   3.429   7.763   8.150  0.3563 -0.0442 -0.2765
  110POPC   GL2 1805   3.091   7.783   8.095 -0.0625  0.0110 -0.0760
  110POPC   C1A 1806   3.404   7.853   7.666  0.2724  0.2804 -0.2361
  110POPC   D2A 1807   3.376   8.008   7.264  0.4129  0.0287 -0.3534
  110POPC   C3A 1808   3.460   7.820   6.851 -0.0089  0.0161 -0.2252
  110POPC   C4A 1809   3.391   7.475   6.550 -0.3693 -0.1156  0.0538
  110POPC   C1B 1810   2.971   8.055   7.784  0.1252 -0.0180 -0.0755
  110POPC   C2B 1811   2.924   8.282   7.354  0.2489 -0.1325  0.0723
  110POPC   C3B 1812   2.541   8.504   7.203 -0.2922 -0.1875 -0.2856
  110POPC   C4B 1813   2.223   8.745   7.175  0.2536  0.1669  0.1511
  111POPC   NC3 1814   4.038   3.035   9.790 -0.0338  0.0834  0.1481
  111POPC   PO4 1815   4.482   2.878   9.598 -0.0480 -0.1943  0.1838
  111POPC   GL1 1816   4.565   2.767   9.229  0.1211 -0.0354 -0.0631
  111POPC   GL2 1817   4.920   2.679   9.257 -0.1237  0.3716 -0.0392
  111POPC   C1A 1818   4.590   2.606   8.830  0.2614 -0.3881  0.1100
  111POPC   D2A 1819   4.368   2.578   8.393 -0.2168 -0.2728 -0.1229
  111POPC   C3A 1820   3.999   2.731   8.421 -0.0426  0.3232 -0.1925
  111POPC   C4A 1821   3.675   3.065   8.456  0.1639 -0.2312 -0.2134
  111POPC   C1B 1822   5.039   2.449   8.858 -0.0843  0.0761 -0.4107
  111POPC   C2B 1823   5.250   2.133   8.577 -0.0291  0.0592 -0.0035
  111POPC   C3B 1824   5.326   1.777   8.338  0.0886  0.0946 -0.2259
  111POPC   C4B 1825   5.190   1.543   8.076  0.1541  0.0724  0.0313
  112POPC   NC3 1826   2.143   1.436   9.641  0.0579 -0.0035  0.1017
  112POPC   PO4 1827   2.014   1.080   9.464 -0.0983 -0.2296 -0.3122
  112POPC   GL1 1828   1.826   1.114   9.020  0.1764  0.0261 -0.2000
  112POPC   GL2 1829   2.033   1.417   8.855 -0.1518  0.2524 -0.1363
  112POPC   C1A 1830   1.956   0.981   8.617 -0.3294 -0.1140  0.0687
  112POPC   D2A 1831   2.063   0.816   8.139  0.1070  0.2572 -0.1676
  112POPC   C3A 1832   2.129   0.376   8.032 -0.2337 -0.1003  0.3329
  112POPC   C4A 1833   2.468   0.094   7.864  0.3274 -0.1036 -0.0769
  112POPC   C1B 1834   2.445   1.103   8.851  0.1364  0.1061 -0.1879
  112POPC   C2B 1835   2.806   1.074   9.048  0.0701 -0.1214  0.0299
  112POPC   C3B 1836   3.209   1.346   9.243 -0.3317  0.0387  0.1637
  112POPC   C4B 1837   3.611   1.348   9.294  0.0959  0.1090  0.0913
  113POPC   NC3 1838   9.483  10.226   8.602 -0.0479 -0.2766  0.0305
  113POPC   PO4 1839   9.486  10.656   8.914  0.1243  0.2586  0.0484
  113POPC   GL1 1840   9.219  10.789   8.557 -0.4192 -0.2011 -0.3901
  113POPC   GL2 1841   8.967  10.524   8.472  0.0437  0.2653  0.0252
  113POPC   C1A 1842   9.179  11.034   8.089 -0.1216 -0.2497  0.1709
  113POPC   D2A 1843   9.361  11.452   7.851  0.0728 -0.2756  0.0815
  113POPC   C3A 1844   9.557  11.512   7.553 -0.2664 -0.1561 -0.0313
  113POPC   C4A 1845   9.731  11.934   7.373 -0.0056  0.2123 -0.0479
  113POPC   C1B 1846   9.175  10.535   8.068  0.1950 -0.0335 -0.0453
  113POPC   C2B 1847   9.403  10.404   7.718  0.3321  0.2709 -0.1220
  113POPC   C3B 1848   9.799  10.579   7.636  0.1788 -0.4903 -0.2981
  113POPC   C4B 1849   9.903  10.820   7.304 -0.0203 -0.1497  0.1108
  114POPC   NC3 1850   6.265   0.805  10.078  0.0153 -0.1109  0.0366
  114POPC   PO4 1851   6.263   1.141  10.274 -0.1698  0.1816  0.2807
  114POPC   GL1 1852   6.110   1.211   9.790  0.0197 -0.2325  0.2741
  114POPC   GL2 1853   6.140   0.920   9.599 -0.0399  0.2762 -0.0055
  114POPC   C1A 1854   6.196   1.480   9.353  0.0182 -0.2306  0.1234
  114POPC   D2A 1855   6.238   1.832   9.098  0.1400  0.3482 -0.0032
  114POPC   C3A 1856   6.055   1.908   8.660 -0.2819 -0.1880  0.3854
  114POPC   C4A 1857   6.236   2.137   8.373 -0.0333 -0.0099  0.2277
  114POPC   C1B 1858   5.863   1.020   9.318  0.0656  0.0039 -0.0366
  114POPC   C2B 1859   5.582   1.232   9.080  0.2423 -0.1837  0.1795
  114POPC   C3B 1860   5.423   1.281   8.517  0.0903  0.0304 -0.3583
  114POPC   C4B 1861   5.662   1.399   8.156 -0.3542 -0.0275  0.3570
  115POPC   NC3 1862   9.745   2.649   8.940 -0.0294 -0.3839 -0.0417
  115POPC   PO4 1863   9.828   2.588   8.375 -0.3913 -0.1684 -0.3803
  115POPC   GL1 1864  10.009   2.789   8.021 -0.3251  0.0381  0.0961
  115POPC   GL2 1865  10.129   3.162   8.156  0.1658 -0.1217 -0.0952
  115POPC   C1A 1866  10.278   3.014   7.609  0.3085  0.0035  0.1005
  115POPC   D2A 1867  10.539   3.015   7.166  0.3941  0.2147 -0.0121
  115POPC   C3A 1868  10.932   2.980   6.981  0.0802 -0.0804  0.1003
  115POPC   C4A 1869  11.117   2.911   6.623 -0.1156  0.0853 -0.1921
  115POPC   C1B 1870   9.796   3.340   7.846  0.2949 -0.0290  0.1354
  115POPC   C2B 1871   9.869   3.271   7.351 -0.0471 -0.0831  0.4370
  115POPC   C3B 1872   9.894   2.883   7.098  0.1921 -0.3487  0.3642
  115POPC   C4B 1873  10.243   2.636   7.047  0.0362  0.1117  0.0977
  116POPC   NC3 1874   9.187   5.418   9.242  0.1333  0.0626  0.0475
  116POPC   PO4 1875   9.147   5.390   8.800 -0.1262  0.2362 -0.0105
  116POPC   GL1 1876   9.182   5.778   8.452  0.0052  0.0309 -0.2541
  116POPC   GL2 1877   8.926   5.835   8.686  0.1837  0.0843  0.2418
  116POPC   C1A 1878   9.297   5.791   7.995 -0.0438  0.3163 -0.0324
  116POPC   D2A 1879   9.047   5.639   7.665  0.0034 -0.1994  0.0050
  116POPC   C3A 1880   9.399   5.620   7.462 -0.3592  0.0260  0.2329
  116POPC   C4A 1881   9.817   5.343   7.565 -0.0444 -0.4151 -0.1606
  116POPC   C1B 1882   8.838   6.048   8.259  0.2950 -0.3237  0.0249
  116POPC   C2B 1883   8.617   5.928   7.927  0.2242 -0.0114 -0.2072
  116POPC   C3B 1884   8.596   5.776   7.565  0.1716 -0.0370  0.2096
  116POPC   C4B 1885   8.499   5.746   7.121  0.1075 -0.2336  0.0207
  117POPC   NC3 1886   8.044   6.466   8.187  0.0941  0.0640 -0.1042
  117POPC   PO4 1887   8.214   6.778   8.519  0.0012  0.5062  0.0946
  117POPC   GL1 1888   8.191   6.898   8.014  0.1873  0.5502  0.0680
  117POPC   GL2 1889   7.919   6.779   7.774 -0.0787  0.1700  0.1294
  117POPC   C1A 1890   8.424   6.967   7.505 -0.2213  0.0478  0.0508
  117POPC   D2A 1891   8.694   7.085   7.109  0.0387 -0.0288 -0.0994
  117POPC   C3A 1892   9.098   7.000   6.913  0.2427 -0.1739 -0.0019
  117POPC   C4A 1893   9.310   6.637   6.869  0.1015  0.3035 -0.0057
  117POPC   C1B 1894   8.160   6.574   7.493  0.0681 -0.2634 -0.0470
  117POPC   C2B 1895   8.342   6.735   7.080 -0.0417 -0.1895  0.2328
  117POPC   C3B 1896   8.538   6.894   6.676  0.2194 -0.0300  0.2233
  117POPC   C4B 1897   8.895   6.768   6.526  0.0421 -0.1664  0.2796
  118POPC   NC3 1898   8.971   2.334   8.864 -0.2630  0.3918  0.1558
  118POPC   PO4 1899   8.944   2.771   8.723 -0.1468  0.2383 -0.2853
  118POPC   GL1 1900   8.596   2.909   8.440  0.1545 -0.2469  0.2061
  118POPC   GL2 1901   8.202   2.782   8.319  0.0745 -0.1441  0.1388
  118POPC   C1A 1902   8.514   2.829   7.936 -0.0780  0.3063 -0.3068
  118POPC   D2A 1903   8.543   2.635   7.564  0.2198  0.0958 -0.1731
  118POPC   C3A 1904   8.309   2.739   7.223  0.0604 -0.1141 -0.0021
  118POPC   C4A 1905   7.948   2.607   7.043  0.0573  0.1719 -0.2512
  118POPC   C1B 1906   8.168   2.432   7.943  0.3472 -0.0910 -0.4101
  118POPC   C2B 1907   8.126   2.338   7.481  0.2609  0.2796  0.2615
  118POPC   C3B 1908   8.174   2.128   7.049 -0.0072  0.1027  0.2710
  118POPC   C4B 1909   8.490   2.273   6.727  0.2947  0.0520 -0.1811
  119POPC   NC3 1910   9.616   3.726   8.427  0.3691 -0.1396  0.1883
  119POPC   PO4 1911  10.105   3.595   8.542  0.1619 -0.0789 -0.0825
  119POPC   GL1 1912  10.042   3.718   8.105  0.0812  0.1057 -0.2530
  119POPC   GL2 1913   9.615   3.737   7.960 -0.3408 -0.2973  0.0649
  119POPC   C1A 1914  10.122   3.859   7.627 -0.0306  0.0107 -0.1751
  119POPC   D2A 1915  10.384   4.186   7.411 -0.1955  0.2839  0.1400
  119POPC   C3A 1916  10.769   4.374   7.575 -0.3446  0.2160  0.1654
  119POPC   C4A 1917  11.063   4.599   7.874 -0.0693 -0.0106 -0.0944
  119POPC   C1B 1918   9.634   3.767   7.543 -0.0695 -0.1337  0.0703
  119POPC   C2B 1919   9.919   3.868   7.171 -0.1029 -0.2094  0.0962
  119POPC   C3B 1920   9.958   3.983   6.775  0.0773 -0.0288 -0.2438
  119POPC   C4B 1921   9.955   4.103   6.297  0.4516  0.2862 -0.2240
  120POPC   NC3 1922   9.240   6.178   9.255 -0.3112  0.0649 -0.2176
  120POPC   PO4 1923   9.030   6.275   8.892 -0.2606  0.2518  0.0781
  120POPC   GL1 1924   9.207   6.386   8.485 -0.2571 -0.0041  0.3792
  120POPC   GL2 1925   8.986   6.542   8.344 -0.2535  0.1021  0.0358
  120POPC   C1A 1926   9.440   6.331   8.016 -0.1352  0.0093  0.2309
  120POPC   D2A 1927   9.498   6.163   7.639 -0.0854  0.2728 -0.3390
  120POPC   C3A 1928   9.835   5.924   7.796 -0.2404 -0.0387 -0.2226
  120POPC   C4A 1929  10.109   5.883   8.124  0.1353 -0.0044 -0.0712
  120POPC   C1B 1930   9.017   6.486   7.936 -0.1417  0.0543 -0.2255
  120POPC   C2B 1931   9.033   6.188   7.678 -0.2115  0.2416  0.0404
  120POPC   C3B 1932   8.978   5.993   7.232 -0.5095 -0.0452 -0.1928
  120POPC   C4B 1933   9.443   6.178   7.082 -0.0209 -0.0564  0.1168
  121POPC   NC3 1934   2.050   2.886   8.681  0.2627 -0.0299  0.2523
  121POPC   PO4 1935   1.645   3.217   8.617  0.2426 -0.0727 -0.3601
  121POPC   GL1 1936   1.650   3.030   8.267  0.2406 -0.1409  0.3267
  121POPC   GL2 1937   1.963   3.051   8.247  0.1737 -0.0571 -0.0394
  121POPC   C1A 1938   1.583   2.991   7.773  0.2108 -0.0455  0.0977
  121POPC   D2A 1939   1.676   2.941   7.406  0.1286  0.0065 -0.0504
  121POPC   C3A 1940   2.001   2.908   7.182  0.1025  0.1064  0.0813
  121POPC   C4A 1941   2.228   2.973   6.875 -0.1247 -0.2602 -0.0948
  121POPC   C1B 1942   2.050   2.995   7.823 -0.1460 -0.2715 -0.3829
  121POPC   C2B 1943   2.326   2.724   7.504 -0.1618  0.1304  0.0646
  121POPC   C3B 1944   2.608   2.826   7.131  0.0143  0.0436 -0.2516
  121POPC   C4B 1945   2.649   2.668   6.746  0.1847 -0.2951 -0.1115
  122POPC   NC3 1946   7.601  10.429   9.114  0.0688 -0.1914  0.0657
  122POPC   PO4 1947   7.483  10.748   9.283 -0.0752  0.0555 -0.1041
  122POPC   GL1 1948   7.749  10.867   8.887  0.1470 -0.0309 -0.1439
  122POPC   GL2 1949   7.713  11.221   8.800  0.2558  0.1094 -0.1321
  122POPC   C1A 1950   7.507  10.847   8.550  0.1363  0.0042 -0.1420
  122POPC   D2A 1951   7.273  10.783   8.104 -0.3678 -0.1636  0.1636
  122POPC   C3A 1952   6.969  11.055   8.126 -0.3606 -0.2176 -0.1333
  122POPC   C4A 1953   6.681  11.303   8.348  0.2040  0.1198 -0.1460
  122POPC   C1B 1954   7.937  11.049   8.380 -0.0159 -0.0845  0.0292
  122POPC   C2B 1955   8.228  10.804   8.144 -0.0116 -0.2103  0.1481
  122POPC   C3B 1956   8.551  10.851   7.936  0.2506  0.1728  0.4941
  122POPC   C4B 1957   8.468  10.915   7.472  0.0673  0.0510  0.1901
  123POPC   NC3 1958   8.080   1.503   9.094 -0.1880  0.3570  0.1953
  123POPC   PO4 1959   8.225   1.720   8.778 -0.2335 -0.0096 -0.2006
  123POPC   GL1 1960   8.252   1.758   8.337 -0.0680  0.1271  0.0334
  123POPC   GL2 1961   8.470   2.096   8.260 -0.0507 -0.0255  0.2052
  123POPC   C1A 1962   8.098   1.560   8.052  0.1268 -0.0487 -0.2985
  123POPC   D2A 1963   8.139   1.512   7.649 -0.0230 -0.0287  0.0654
  123POPC   C3A 1964   7.987   1.405   7.234  0.1149 -0.0235 -0.1405
  123POPC   C4A 1965   8.088   1.633   6.874  0.0302 -0.2920 -0.0456
  123POPC   C1B 1966   8.425   1.962   7.753 -0.1501 -0.1022 -0.0340
  123POPC   C2B 1967   8.616   2.223   7.337  0.1939 -0.0563  0.0838
  123POPC   C3B 1968   8.926   2.137   6.980  0.0178  0.2892  0.0224
  123POPC   C4B 1969   9.259   2.158   6.833 -0.1768 -0.0731 -0.0886
  124POPC   NC3 1970   9.251   7.906   8.811  0.0724 -0.1633  0.1488
  124POPC   PO4 1971   8.870   8.018   8.634 -0.2858  0.0294  0.1806
  124POPC   GL1 1972   8.702   8.159   8.273  0.0475  0.2846 -0.3735
  124POPC   GL2 1973   8.470   7.893   8.273  0.1181  0.0278 -0.0451
  124POPC   C1A 1974   8.760   8.312   7.882 -0.0233 -0.2672  0.1319
  124POPC   D2A 1975   9.145   8.259   7.609  0.4678  0.1250 -0.0860
  124POPC   C3A 1976   9.229   8.656   7.354  0.1326  0.3084 -0.0798
  124POPC   C4A 1977   9.580   8.562   7.125  0.0019 -0.2178 -0.3248
  124POPC   C1B 1978   8.494   7.891   7.805 -0.3290  0.0678 -0.1945
  124POPC   C2B 1979   8.740   8.060   7.293  0.0254 -0.1151 -0.2581
  124POPC   C3B 1980   9.086   7.916   7.220 -0.2741  0.1289  0.0252
  124POPC   C4B 1981   9.513   8.054   6.911  0.0723  0.1324 -0.2797
  125POPC   NC3 1982   9.863   6.770   8.929  0.0324  0.0970 -0.1806
  125POPC   PO4 1983  10.167   6.760   8.664 -0.1114 -0.0437 -0.3273
  125POPC   GL1 1984  10.147   6.627   8.301  0.0860  0.0133  0.0147
  125POPC   GL2 1985   9.807   6.549   8.270 -0.2606  0.0753 -0.0191
  125POPC   C1A 1986  10.153   6.321   7.964 -0.0736 -0.4067  0.2092
  125POPC   D2A 1987  10.254   6.103   7.605  0.2224  0.0326  0.3484
  125POPC   C3A 1988   9.955   6.332   7.336 -0.0723  0.0713  0.2149
  125POPC   C4A 1989   9.731   6.693   7.224  0.0069 -0.0192 -0.0165
  125POPC   C1B 1990   9.523   6.812   8.117 -0.0840 -0.3317  0.0990
  125POPC   C2B 1991   9.262   6.849   7.754  0.1661 -0.0073 -0.0871
  125POPC   C3B 1992   9.182   6.655   7.463 -0.1137 -0.0457 -0.2763
  125POPC   C4B 1993   8.706   6.603   7.483  0.1081 -0.0279 -0.0614
  126POPC   NC3 1994   1.049   3.949   8.764  0.2983  0.0738 -0.1856
  126POPC   PO4 1995   0.735   4.284   8.626 -0.1845  0.1145  0.0742
  126POPC   GL1 1996   0.931   4.319   8.281 -0.0308 -0.2595  0.2717
  126POPC   GL2 1997   1.302   4.085   8.195 -0.0087  0.1335 -0.0871
  126POPC   C1A 1998   0.946   4.387   7.734  0.1951  0.2666 -0.0126
  126POPC   D2A 1999   0.735   4.435   7.369  0.3694  0.4664 -0.0572
  126POPC   C3A 2000   0.837   4.296   6.974 -0.2342  0.1862 -0.1325
  126POPC   C4A 2001   0.704   4.271   6.564 -0.2616 -0.2963 -0.1213
  126POPC   C1B 2002   1.289   3.876   7.832 -0.0389 -0.0437 -0.0186
  126POPC   C2B 2003   1.185   4.033   7.415  0.1596  0.2146 -0.0857
  126POPC   C3B 2004   1.238   3.999   7.099  0.1337  0.2653 -0.1102
  126POPC   C4B 2005   1.105   3.874   6.733 -0.1461 -0.1598  0.2131
  127POPC   NC3 2006   4.441   1.196  10.019  0.2672  0.0539  0.0581
  127POPC   PO4 2007   4.262   1.539   9.851 -0.1917  0.0713  0.1351
  127POPC   GL1 2008   4.077   1.154   9.625 -0.1326 -0.2306 -0.2762
  127POPC   GL2 2009   4.174   0.839   9.740  0.0309  0.0998  0.1555
  127POPC   C1A 2010   3.918   0.883   9.319  0.0970 -0.3333 -0.2497
  127POPC   D2A 2011   3.715   0.511   9.233  0.1117  0.1361 -0.3405
  127POPC   C3A 2012   3.948   0.147   9.016 -0.1464 -0.1066  0.0942
  127POPC   C4A 2013   4.305   0.056   9.107 -0.3060 -0.1257  0.0340
  127POPC   C1B 2014   4.449   0.930   9.318  0.1199  0.3591  0.0920
  127POPC   C2B 2015   4.586   1.047   8.866  0.1666 -0.0636 -0.3233
  127POPC   C3B 2016   4.705   1.309   8.564  0.4834  0.1111 -0.0260
  127POPC   C4B 2017   4.403   1.516   8.198  0.0852 -0.2268  0.3613
  128POPC   NC3 2018   6.260   9.091   9.042 -0.1843 -0.0091 -0.0015
  128POPC   PO4 2019   6.723   9.081   8.776  0.0029  0.0199 -0.2599
  128POPC   GL1 2020   6.774   9.079   8.347 -0.2365  0.2428 -0.0790
  128POPC   GL2 2021   6.612   8.921   8.121  0.3000  0.0745  0.1705
  128POPC   C1A 2022   6.867   9.324   7.902  0.1483  0.3896 -0.1596
  128POPC   D2A 2023   6.922   9.713   7.647 -0.0736  0.0129 -0.0665
  128POPC   C3A 2024   6.581   9.755   7.562  0.0976 -0.3113 -0.2181
  128POPC   C4A 2025   6.181   9.724   7.373 -0.2685  0.2516  0.1964
  128POPC   C1B 2026   6.405   8.870   7.695  0.3123 -0.0865 -0.0056
  128POPC   C2B 2027   6.112   8.988   7.348 -0.0503 -0.0196 -0.0002
  128POPC   C3B 2028   5.655   8.903   7.327 -0.0420  0.0711 -0.1710
  128POPC   C4B 2029   5.345   8.764   7.585  0.2295 -0.1865 -0.4192
  129POPC   NC3 2030   2.411   5.742   8.548 -0.1822 -0.1300  0.2283
  129POPC   PO4 2031   2.624   5.295   8.599 -0.1570  0.0548 -0.1616
  129POPC   GL1 2032   2.527   5.368   8.131  0.1758  0.0580  0.0929
  129POPC   GL2 2033   2.381   5.620   8.045 -0.0149 -0.1329 -0.2638
  129POPC   C1A 2034   2.564   5.079   7.807  0.1427  0.1360  0.1641
  129POPC   D2A 2035   2.686   4.786   7.446 -0.2343 -0.6869 -0.0852
  129POPC   C3A 2036   2.693   5.122   7.077 -0.5171 -0.1799  0.0603
  129POPC   C4A 2037   2.617   5.550   6.890  0.0062 -0.0830 -0.0880
  129POPC   C1B 2038   2.462   5.619   7.675  0.1427 -0.1347  0.1408
  129POPC   C2B 2039   2.740   5.558   7.397  0.0047  0.2516 -0.0158
  129POPC   C3B 2040   3.072   5.677   7.207  0.2355  0.1502  0.1962
  129POPC   C4B 2041   3.291   5.955   7.222 -0.1074  0.2299 -0.0355
  130POPC   NC3 2042   1.348   7.139   8.231  0.0159  0.0286 -0.0130
  130POPC   PO4 2043   1.038   6.939   8.079 -0.1297  0.0922 -0.1182
  130POPC   GL1 2044   1.096   6.713   7.674 -0.1866 -0.0374 -0.1543
  130POPC   GL2 2045   0.737   6.412   7.623  0.0481 -0.2398 -0.0542
  130POPC   C1A 2046   1.045   6.599   7.170  0.0623 -0.1939  0.1827
  130POPC   D2A 2047   1.108   6.375   6.871 -0.1538  0.0892 -0.1410
  130POPC   C3A 2048   0.972   6.022   6.766  0.0883  0.0414  0.1199
  130POPC   C4A 2049   0.758   6.000   6.329  0.0717 -0.1655  0.1182
  130POPC   C1B 2050   0.440   6.562   7.448  0.2018 -0.1981  0.0916
  130POPC   C2B 2051   0.290   6.672   7.068 -0.1393  0.2065 -0.0662
  130POPC   C3B 2052   0.463   6.585   6.776 -0.2031  0.3181  0.2340
  130POPC   C4B 2053   0.722   6.498   6.500 -0.2680 -0.0114  0.1644
  131POPC   NC3 2054   4.388   5.034   8.239  0.2640  0.0930 -0.1106
  131POPC   PO4 2055   4.152   5.314   8.364 -0.0658  0.1873  0.1524
  131POPC   GL1 2056   4.427   5.512   8.085 -0.2868  0.2204 -0.0124
  131POPC   GL2 2057   4.837   5.506   8.080 -0.0248  0.1775  0.0157
  131POPC   C1A 2058   4.491   5.760   7.756  0.1488 -0.3051  0.3804
  131POPC   D2A 2059   4.239   6.008   7.612 -0.2108 -0.0539 -0.1170
  131POPC   C3A 2060   4.247   6.373   7.379  0.0689  0.2896  0.2925
  131POPC   C4A 2061   4.168   6.446   6.914 -0.1484 -0.0509  0.0977
  131POPC   C1B 2062   4.886   5.189   7.736  0.0381  0.0388 -0.0100
  131POPC   C2B 2063   4.779   5.498   7.363 -0.0221 -0.0097 -0.2099
  131POPC   C3B 2064   4.437   5.609   7.136 -0.3698  0.1256  0.2279
  131POPC   C4B 2065   4.305   5.959   6.945  0.1066  0.0079  0.2031
  132POPC   NC3 2066   1.082   7.927   8.329  0.0246  0.0526  0.0102
  132POPC   PO4 2067   1.079   7.534   8.178  0.1209  0.0126 -0.1872
  132POPC   GL1 2068   1.138   7.350   7.776  0.1831 -0.0773 -0.1018
  132POPC   GL2 2069   1.415   7.172   7.697  0.2387 -0.0761 -0.4519
  132POPC   C1A 2070   0.829   7.223   7.406  0.2791 -0.0675 -0.1666
  132POPC   D2A 2071   0.690   6.998   7.043 -0.1443 -0.0407 -0.0797
  132POPC   C3A 2072   0.962   6.960   6.648  0.2646 -0.1232  0.1007
  132POPC   C4A 2073   1.272   6.689   6.361 -0.0823  0.0361 -0.2193
  132POPC   C1B 2074   1.266   7.014   7.315 -0.3800  0.1481 -0.5213
  132POPC   C2B 2075   1.400   6.957   6.825 -0.2436  0.1215 -0.0337
  132POPC   C3B 2076   1.570   7.059   6.391  0.1628 -0.1516  0.1999
  132POPC   C4B 2077   1.887   7.097   6.140 -0.1671  0.1017  0.0150
  133POPC   NC3 2078   8.973   7.194   9.232 -0.0736  0.1924 -0.1356
  133POPC   PO4 2079   9.245   7.163   8.851 -0.0206 -0.2641 -0.2055
  133POPC   GL1 2080   9.039   7.209   8.453  0.1033 -0.1206 -0.0532
  133POPC   GL2 2081   8.990   7.593   8.443 -0.3326  0.1361  0.2903
  133POPC   C1A 2082   9.021   6.986   8.201  0.1127  0.0772 -0.0778
  133POPC   D2A 2083   8.778   6.972   7.883 -0.1018  0.2618 -0.0314
  133POPC   C3A 2084   8.854   7.146   7.591  0.1227  0.0512 -0.3724
  133POPC   C4A 2085   9.117   7.381   7.257 -0.0625 -0.0505 -0.3024
  133POPC   C1B 2086   8.640   7.415   8.187  0.0346  0.2185  0.2731
  133POPC   C2B 2087   8.324   7.457   7.892  0.1820  0.2342  0.3159
  133POPC   C3B 2088   7.846   7.268   7.732 -0.0973  0.1954  0.1076
  133POPC   C4B 2089   7.438   7.401   7.485 -0.3042  0.2138  0.1531
  134POPC   NC3 2090   1.436   9.433   8.407 -0.3835  0.2121 -0.1226
  134POPC   PO4 2091   1.152   9.425   8.175 -0.3799 -0.2326  0.0244
  134POPC   GL1 2092   1.016   9.510   7.770 -0.2247 -0.2005 -0.1768
  134POPC   GL2 2093   0.836   9.768   7.830 -0.0473  0.2391 -0.0653
  134POPC   C1A 2094   0.904   9.568   7.322 -0.2891  0.1027  0.0964
  134POPC   D2A 2095   0.901   9.754   6.974 -0.3063  0.0033  0.1211
  134POPC   C3A 2096   1.047   9.582   6.631  0.1201 -0.1667 -0.0491
  134POPC   C4A 2097   1.402   9.425   6.412  0.1185 -0.1140 -0.2469
  134POPC   C1B 2098   0.621   9.894   7.535 -0.0285  0.1519  0.0725
  134POPC   C2B 2099   0.499  10.351   7.303  0.0573  0.2843 -0.1048
  134POPC   C3B 2100   0.617  10.780   7.096  0.3602 -0.0183 -0.3535
  134POPC   C4B 2101   0.311  11.116   7.090  0.1230 -0.0557  0.1780
  135POPC   NC3 2102   8.742   4.329   8.722 -0.0011  0.1111 -0.0770
  135POPC   PO4 2103   8.831   4.794   8.720  0.1214  0.1665 -0.1678
  135POPC   GL1 2104   8.750   4.885   8.216 -0.4332  0.0766  0.1832
  135POPC   GL2 2105   8.599   5.140   7.954  0.2560  0.0841  0.2907
  135POPC   C1A 2106   8.821   4.715   7.796 -0.0467 -0.2776  0.1280
  135POPC   D2A 2107   8.967   4.739   7.389  0.1433 -0.3213 -0.2205
  135POPC   C3A 2108   9.126   4.417   7.308  0.1238 -0.1162  0.0374
  135POPC   C4A 2109   9.555   4.213   7.280  0.0890 -0.1820 -0.4272
  135POPC   C1B 2110   8.730   5.286   7.498 -0.1806 -0.2226 -0.0460
  135POPC   C2B 2111   8.945   5.412   7.132  0.2129 -0.0524 -0.1133
  135POPC   C3B 2112   9.274   5.664   7.002  0.0565 -0.1469  0.1883
  135POPC   C4B 2113   9.620   5.550   6.762 -0.1043 -0.0670 -0.0768
  136POPC   NC3 2114   8.718   3.317   8.751  0.1494  0.3637 -0.0952
  136POPC   PO4 2115   8.334   3.295   8.762  0.3330  0.2378  0.1196
  136POPC   GL1 2116   8.066   3.266   8.387  0.1804 -0.0853  0.4062
  136POPC   GL2 2117   7.613   3.121   8.308 -0.0005 -0.0351 -0.2356
  136POPC   C1A 2118   8.065   3.097   7.922  0.1713 -0.1141 -0.0118
  136POPC   D2A 2119   8.015   2.903   7.615 -0.3264 -0.3000  0.1904
  136POPC   C3A 2120   7.759   3.046   7.241  0.1124 -0.1768  0.0068
  136POPC   C4A 2121   7.405   3.110   6.887 -0.1959  0.0955 -0.0784
  136POPC   C1B 2122   7.624   3.364   7.913 -0.0099 -0.0130  0.1145
  136POPC   C2B 2123   7.906   3.417   7.570 -0.2140  0.2197 -0.1860
  136POPC   C3B 2124   8.174   3.258   7.239 -0.2874 -0.0272 -0.2112
  136POPC   C4B 2125   8.571   3.152   7.108  0.2192 -0.1717 -0.3986
  137POPC   NC3 2126   1.320   1.940   8.658  0.0240  0.0537  0.0757
  137POPC   PO4 2127   1.043   1.461   8.799 -0.1445  0.3411  0.0991
  137POPC   GL1 2128   0.976   1.626   8.452  0.1844  0.1834 -0.2325
  137POPC   GL2 2129   1.213   1.608   8.176 -0.0473 -0.1339  0.1002
  137POPC   C1A 2130   0.697   1.733   8.073 -0.2417  0.0009 -0.1298
  137POPC   D2A 2131   0.293   1.987   7.961  0.3595  0.2615  0.1216
  137POPC   C3A 2132   0.016   1.951   7.648  0.1474  0.0831  0.1589
  137POPC   C4A 2133  -0.055   1.669   7.285  0.0634  0.0668  0.2037
  137POPC   C1B 2134   1.468   1.623   7.737 -0.0933 -0.3017  0.3303
  137POPC   C2B 2135   1.699   1.560   7.366  0.2230 -0.0458  0.0363
  137POPC   C3B 2136   2.153   1.529   7.305 -0.0096  0.1658  0.0558
  137POPC   C4B 2137   2.391   1.715   7.488  0.2471 -0.3359  0.1346
  138POPC   NC3 2138   6.204   7.575   8.353 -0.2725 -0.0865  0.1392
  138POPC   PO4 2139   5.713   7.544   8.273 -0.1201 -0.0623  0.0681
  138POPC   GL1 2140   5.676   7.610   7.810  0.1198  0.2934 -0.0500
  138POPC   GL2 2141   5.566   7.863   7.814 -0.1774 -0.1165  0.2151
  138POPC   C1A 2142   5.847   7.485   7.423  0.0946  0.0550  0.1795
  138POPC   D2A 2143   6.018   7.546   7.082  0.1490  0.1097 -0.0688
  138POPC   C3A 2144   6.126   7.908   7.165  0.0375 -0.0479 -0.3871
  138POPC   C4A 2145   5.957   8.022   7.568 -0.2367  0.0520  0.0978
  138POPC   C1B 2146   5.508   7.863   7.328 -0.0033  0.0341 -0.0289
  138POPC   C2B 2147   5.669   7.955   6.976  0.2223 -0.1437 -0.0714
  138POPC   C3B 2148   5.897   8.136   6.754 -0.1336  0.3401  0.0564
  138POPC   C4B 2149   6.285   8.366   6.646 -0.1150  0.0627 -0.0828
  139POPC   NC3 2150   5.061   0.305  10.262  0.0362  0.0314  0.3013
  139POPC   PO4 2151   5.475   0.419  10.127  0.1817 -0.3092 -0.3276
  139POPC   GL1 2152   5.434   0.359   9.710 -0.0451  0.2830 -0.0659
  139POPC   GL2 2153   5.689   0.482   9.375  0.0970 -0.0491  0.1266
  139POPC   C1A 2154   5.317   0.243   9.174  0.0490 -0.1955 -0.1463
  139POPC   D2A 2155   5.424   0.307   8.693 -0.0617  0.1284 -0.1473
  139POPC   C3A 2156   5.745   0.562   8.530 -0.3102 -0.0745  0.0769
  139POPC   C4A 2157   5.907   1.048   8.653  0.1834 -0.1951  0.4617
  139POPC   C1B 2158   5.802   0.178   9.018 -0.0690 -0.1286  0.0268
  139POPC   C2B 2159   5.858  -0.094   8.771  0.1459 -0.0513  0.1403
  139POPC   C3B 2160   5.890  -0.141   8.422  0.2963  0.0565  0.0573
  139POPC   C4B 2161   6.203  -0.171   8.176 -0.2536 -0.0806 -0.1695
  140POPC   NC3 2162   4.990   3.132   9.423  0.0373  0.1346 -0.1456
  140POPC   PO4 2163   5.442   3.028   9.328  0.0912 -0.1808 -0.4998
  140POPC   GL1 2164   5.254   2.957   8.971  0.0981  0.0095  0.1709
  140POPC   GL2 2165   4.912   3.101   8.922 -0.0922  0.3976 -0.0223
  140POPC   C1A 2166   5.405   2.731   8.551 -0.0532  0.1145 -0.0096
  140POPC   D2A 2167   5.588   2.740   8.141  0.1770  0.2250  0.2140
  140POPC   C3A 2168   5.484   2.371   7.860  0.0300 -0.1316  0.3287
  140POPC   C4A 2169   5.480   1.945   7.844  0.0039 -0.0645  0.2214
  140POPC   C1B 2170   4.893   2.833   8.560 -0.0153  0.1962 -0.0665
  140POPC   C2B 2171   4.903   2.412   8.355  0.0821  0.1155 -0.2156
  140POPC   C3B 2172   5.080   2.226   8.076 -0.4040  0.0709 -0.0269
  140POPC   C4B 2173   5.032   2.063   7.636  0.0192 -0.3122  0.1180
  141POPC   NC3 2174   1.655  10.308   8.767 -0.0581  0.1161 -0.1401
  141POPC   PO4 2175   1.734   9.875   8.564 -0.2069  0.0333 -0.0177
  141POPC   GL1 2176   1.713   9.825   8.120 -0.3525  0.0786  0.0644
  141POPC   GL2 2177   1.306   9.905   8.039  0.0815  0.4244 -0.0777
  141POPC   C1A 2178   1.836   9.893   7.771 -0.1466  0.1975 -0.0775
  141POPC   D2A 2179   1.746  10.194   7.386 -0.1947 -0.1156  0.2545
  141POPC   C3A 2180   1.457  10.227   7.138  0.1425  0.0093 -0.1211
  141POPC   C4A 2181   1.148  10.195   6.844 -0.0457  0.0056  0.2312
  141POPC   C1B 2182   1.292   9.832   7.573 -0.0877 -0.0683 -0.0762
  141POPC   C2B 2183   1.418   9.655   7.149 -0.1292  0.2829 -0.0922
  141POPC   C3B 2184   1.665   9.402   6.886 -0.0695  0.0875  0.2477
  141POPC   C4B 2185   1.530   8.974   6.677  0.2685 -0.0878  0.2509
  142POPC   NC3 2186   5.284   9.452  10.097  0.0589 -0.0506 -0.1480
  142POPC   PO4 2187   5.335   9.531   9.634 -0.1147  0.0478 -0.0557
  142POPC   GL1 2188   5.260   9.816   9.335  0.1925  0.0935  0.3647
  142POPC   GL2 2189   4.969  10.064   9.417 -0.3993  0.1200  0.0271
  142POPC   C1A 2190   5.135   9.976   8.936 -0.0711  0.0752  0.0884
  142POPC   D2A 2191   5.039  10.011   8.555  0.2217  0.2363 -0.0015
  142POPC   C3A 2192   5.175  10.014   8.239 -0.2525 -0.0515  0.1379
  142POPC   C4A 2193   5.030   9.715   7.950  0.0661  0.0635  0.0070
  142POPC   C1B 2194   4.935  10.460   9.212  0.1137  0.3846  0.1227
  142POPC   C2B 2195   4.768  10.607   8.746 -0.1211  0.1321  0.1754
  142POPC   C3B 2196   4.958  10.814   8.303  0.0669 -0.0410 -0.0354
  142POPC   C4B 2197   5.281  10.963   8.248 -0.0927  0.2097  0.4042
  143POPC   NC3 2198   8.665   1.433   8.766 -0.0830 -0.2490  0.0164
  143POPC   PO4 2199   8.454   1.214   9.117  0.2067 -0.0921  0.2106
  143POPC   GL1 2200   8.228   1.217   8.717  0.1413  0.1108 -0.2285
  143POPC   GL2 2201   8.329   1.291   8.449  0.3534  0.0130  0.0818
  143POPC   C1A 2202   7.981   1.001   8.365  0.0599  0.0908  0.1160
  143POPC   D2A 2203   7.792   1.152   7.947  0.2785  0.0115 -0.2867
  143POPC   C3A 2204   8.059   1.023   7.530 -0.0785  0.2803 -0.0143
  143POPC   C4A 2205   8.107   0.698   7.212  0.1478 -0.1727 -0.3687
  143POPC   C1B 2206   8.476   1.296   8.015 -0.2698  0.0173 -0.2361
  143POPC   C2B 2207   8.636   1.422   7.651  0.2875 -0.0270 -0.1438
  143POPC   C3B 2208   8.599   1.556   7.299  0.1133  0.2869 -0.0170
  143POPC   C4B 2209   8.358   1.798   7.282  0.0471 -0.1930  0.0198
  144POPC   NC3 2210   0.120   2.349   8.521 -0.1369 -0.2107  0.1296
  144POPC   PO4 2211   0.625   2.376   8.553  0.0501  0.1765  0.1498
  144POPC   GL1 2212   0.541   2.386   8.159  0.1939  0.2073 -0.1197
  144POPC   GL2 2213   0.202   2.454   8.037  0.5390  0.0758  0.0658
  144POPC   C1A 2214   0.548   2.674   7.786  0.1470  0.1190  0.1898
  144POPC   D2A 2215   0.370   2.604   7.313  0.2433  0.2350 -0.2168
  144POPC   C3A 2216   0.042   2.300   7.194 -0.1021 -0.0503  0.0968
  144POPC   C4A 2217  -0.243   2.080   7.004  0.0163 -0.0762 -0.2175
  144POPC   C1B 2218  -0.072   2.523   7.697  0.2205 -0.1347  0.0314
  144POPC   C2B 2219  -0.497   2.490   7.497  0.0462 -0.0787  0.0674
  144POPC   C3B 2220  -0.784   2.252   7.176 -0.0079 -0.2774 -0.2450
  144POPC   C4B 2221  -0.798   2.279   6.788 -0.0532  0.2331  0.1590
  145POPC   NC3 2222   7.638   3.597   8.522 -0.0066  0.1158  0.0985
  145POPC   PO4 2223   7.369   3.845   8.673 -0.0389 -0.3572  0.2139
  145POPC   GL1 2224   7.008   3.903   8.308 -0.1527  0.1283 -0.1409
  145POPC   GL2 2225   6.952   4.168   8.074  0.0572  0.3171  0.1535
  145POPC   C1A 2226   6.710   3.638   8.060  0.2692 -0.1913  0.0452
  145POPC   D2A 2227   6.638   3.174   7.999 -0.0466 -0.0115 -0.2169
  145POPC   C3A 2228   7.089   3.016   7.734 -0.0786  0.1247 -0.0237
  145POPC   C4A 2229   7.542   2.885   7.675  0.0839 -0.0453  0.1087
  145POPC   C1B 2230   6.589   4.399   7.898  0.2799 -0.0197  0.0601
  145POPC   C2B 2231   6.434   4.355   7.412 -0.1128 -0.1042 -0.0626
  145POPC   C3B 2232   6.430   4.264   6.940 -0.2213 -0.1146 -0.0845
  145POPC   C4B 2233   6.576   4.488   6.596  0.1608 -0.1242 -0.2378
  146POPC   NC3 2234   8.131   6.266   8.811  0.0611 -0.0922  0.0857
  146POPC   PO4 2235   8.170   6.048   8.409  0.3630  0.2356  0.0412
  146POPC   GL1 2236   7.970   5.993   8.038 -0.2296  0.0753 -0.0573
  146POPC   GL2 2237   8.201   6.116   7.771 -0.2639  0.1037 -0.1608
  146POPC   C1A 2238   7.873   5.739   7.800  0.2040  0.0059 -0.0507
  146POPC   D2A 2239   7.748   5.306   7.625 -0.1081  0.0358  0.0866
  146POPC   C3A 2240   8.046   4.980   7.498 -0.1278  0.1210  0.2493
  146POPC   C4A 2241   8.417   4.912   7.429  0.1534 -0.8379  0.1992
  146POPC   C1B 2242   8.380   6.184   7.362  0.1307  0.2571  0.0598
  146POPC   C2B 2243   8.494   6.254   6.889  0.2117 -0.2877  0.2150
  146POPC   C3B 2244   8.505   6.429   6.478  0.0760  0.0077 -0.2620
  146POPC   C4B 2245   8.286   6.742   6.228 -0.0184  0.1937 -0.2247
  147POPC   NC3 2246   0.002   6.527   8.861 -0.4395  0.2743 -0.1611
  147POPC   PO4 2247  -0.047   6.384   8.582 -0.0132  0.2513  0.1912
  147POPC   GL1 2248   0.095   6.364   8.209  0.1875 -0.2075 -0.0314
  147POPC   GL2 2249   0.405   6.165   8.133  0.1838 -0.1996 -0.0425
  147POPC   C1A 2250   0.059   6.367   7.790 -0.1977 -0.0981 -0.1523
  147POPC   D2A 2251  -0.041   6.705   7.581 -0.2774 -0.0150  0.0823
  147POPC   C3A 2252  -0.383   6.755   7.579  0.2973  0.0924  0.2653
  147POPC   C4A 2253  -0.773   6.583   7.708 -0.2931  0.4027 -0.2432
  147POPC   C1B 2254   0.050   5.917   7.975  0.1897 -0.1257 -0.3014
  147POPC   C2B 2255   0.116   5.768   7.539 -0.4368 -0.0207 -0.3539
  147POPC   C3B 2256   0.213   6.131   7.353 -0.0953 -0.0545  0.2944
  147POPC   C4B 2257  -0.114   6.332   7.176  0.0923 -0.5056 -0.0052
  148POPC   NC3 2258   7.336   7.038   8.476 -0.0626  0.0213 -0.0951
  148POPC   PO4 2259   7.079   7.215   8.176 -0.3024 -0.4313  0.0001
  148POPC   GL1 2260   6.721   7.083   7.885 -0.1312  0.1500  0.1208
  148POPC   GL2 2261   6.823   7.391   7.678 -0.3375 -0.2847  0.0695
  148POPC   C1A 2262   6.548   7.043   7.454  0.1647  0.1626  0.3581
  148POPC   D2A 2263   6.390   6.772   7.149 -0.0652 -0.3468 -0.2296
  148POPC   C3A 2264   6.371   7.172   6.884 -0.0954 -0.2001 -0.1178
  148POPC   C4A 2265   6.206   7.384   6.595 -0.0945 -0.2317 -0.0476
  148POPC   C1B 2266   7.070   7.730   7.348 -0.0715  0.1085 -0.1591
  148POPC   C2B 2267   7.392   7.678   7.056  0.0197  0.0737  0.0139
  148POPC   C3B 2268   7.431   7.482   6.633  0.1651 -0.1795 -0.2824
  148POPC   C4B 2269   7.189   7.231   6.518 -0.2021  0.0173 -0.0197
  149POPC   NC3 2270   1.063   1.698   9.313 -0.1090  0.0390  0.0402
  149POPC   PO4 2271   0.884   1.960   8.838  0.0673 -0.0228 -0.0252
  149POPC   GL1 2272   1.020   2.185   8.309 -0.0805  0.1552  0.2375
  149POPC   GL2 2273   1.257   2.122   8.136 -0.2622  0.4129 -0.0911
  149POPC   C1A 2274   0.850   2.278   7.813 -0.0327 -0.1168 -0.1293
  149POPC   D2A 2275   0.491   2.170   7.536  0.1364 -0.0905 -0.0102
  149POPC   C3A 2276   0.422   1.726   7.489 -0.3002 -0.0655  0.0120
  149POPC   C4A 2277   0.691   1.441   7.264 -0.1673 -0.2098  0.0887
  149POPC   C1B 2278   1.414   2.145   7.772 -0.0176  0.2535  0.0268
  149POPC   C2B 2279   1.568   2.036   7.352  0.0687  0.2409  0.1781
  149POPC   C3B 2280   1.615   2.105   6.911 -0.1003  0.6247 -0.0593
  149POPC   C4B 2281   1.541   1.815   6.572  0.2480 -0.2239  0.0934
  150POPC   NC3 2282   1.735   5.339   8.554  0.3610 -0.0404  0.1275
  150POPC   PO4 2283   2.093   5.414   8.378 -0.0060 -0.0826 -0.2540
  150POPC   GL1 2284   1.819   5.382   8.033  0.0427 -0.0310  0.0157
  150POPC   GL2 2285   1.628   5.725   7.982 -0.2750 -0.0660 -0.0444
  150POPC   C1A 2286   1.882   5.132   7.523 -0.1233 -0.0353  0.1749
  150POPC   D2A 2287   2.168   4.973   7.164  0.0253 -0.1966  0.1267
  150POPC   C3A 2288   2.165   5.306   6.752 -0.0569  0.1345 -0.0071
  150POPC   C4A 2289   2.278   5.707   6.488 -0.0082  0.1770  0.0218
  150POPC   C1B 2290   1.222   5.814   7.775  0.2932  0.0206  0.0024
  150POPC   C2B 2291   1.022   6.042   7.366  0.0576 -0.0030  0.0676
  150POPC   C3B 2292   0.636   6.267   7.107  0.1316  0.0508  0.2285
  150POPC   C4B 2293   0.440   6.111   6.700 -0.0164 -0.0834 -0.1348
  151POPC   NC3 2294   7.997   7.765   8.620 -0.3715  0.1705  0.1830
  151POPC   PO4 2295   7.591   8.053   8.610  0.3038 -0.1275 -0.1835
  151POPC   GL1 2296   7.529   7.937   8.171 -0.1214  0.0414  0.0989
  151POPC   GL2 2297   7.321   7.920   7.923 -0.2905  0.0964  0.0456
  151POPC   C1A 2298   7.762   7.860   7.743 -0.2820  0.0994  0.1201
  151POPC   D2A 2299   7.985   7.610   7.449  0.2022 -0.4005 -0.0216
  151POPC   C3A 2300   7.876   7.621   7.069 -0.2626  0.2730  0.2815
  151POPC   C4A 2301   7.787   7.265   6.825 -0.3043 -0.1578 -0.4332
  151POPC   C1B 2302   7.395   8.077   7.450  0.0456 -0.2716 -0.0468
  151POPC   C2B 2303   7.701   8.081   7.095 -0.2831 -0.0572  0.3239
  151POPC   C3B 2304   7.915   8.178   6.821 -0.0812 -0.1747 -0.2616
  151POPC   C4B 2305   8.254   8.435   7.001  0.0100  0.1439 -0.0997
  152POPC   NC3 2306   8.098   5.457   8.638 -0.0342 -0.0000  0.0183
  152POPC   PO4 2307   7.665   5.218   8.456 -0.3891 -0.0833 -0.0653
  152POPC   GL1 2308   7.820   4.949   8.135 -0.0850  0.2864 -0.1197
  152POPC   GL2 2309   8.139   5.074   8.149  0.0174 -0.1092 -0.1342
  152POPC   C1A 2310   7.790   4.664   7.879  0.1829 -0.3412  0.1936
  152POPC   D2A 2311   7.774   4.309   7.800  0.0634 -0.1802 -0.0659
  152POPC   C3A 2312   8.032   4.313   7.342  0.0833  0.0023 -0.0134
  152POPC   C4A 2313   8.129   4.307   6.913 -0.1078  0.0819 -0.0272
  152POPC   C1B 2314   8.252   4.643   7.868 -0.1313  0.2558  0.0985
  152POPC   C2B 2315   8.279   4.153   7.867 -0.3565 -0.0758 -0.3318
  152POPC   C3B 2316   8.297   3.659   7.929 -0.1638 -0.2168  0.0386
  152POPC   C4B 2317   8.439   3.228   7.687  0.2753 -0.0629 -0.2128
  153POPC   NC3 2318   4.761   4.281   8.748  0.1002 -0.0305  0.0818
  153POPC   PO4 2319   4.690   4.736   8.585 -0.0659 -0.0868 -0.3654
  153POPC   GL1 2320   4.723   4.698   8.086 -0.2393 -0.1895  0.4260
  153POPC   GL2 2321   5.048   4.771   7.899  0.1865  0.0870 -0.1617
  153POPC   C1A 2322   5.015   4.321   7.889  0.1270 -0.2767  0.0089
  153POPC   D2A 2323   4.999   4.067   7.469 -0.1404 -0.2150  0.0384
  153POPC   C3A 2324   4.634   4.087   7.302  0.3844 -0.3050  0.0041
  153POPC   C4A 2325   4.384   4.076   6.880  0.0246  0.1524 -0.2012
  153POPC   C1B 2326   5.252   4.761   7.567 -0.0236 -0.0742  0.0583
  153POPC   C2B 2327   5.211   4.442   7.254 -0.0514 -0.0557  0.2280
  153POPC   C3B 2328   4.932   4.436   7.003 -0.3433 -0.3349  0.0883
  153POPC   C4B 2329   4.611   4.596   6.615 -0.0538 -0.1324  0.1350
  154POPC   NC3 2330   7.268   5.104   8.739 -0.0016  0.3001 -0.0548
  154POPC   PO4 2331   6.903   4.819   8.478  0.1064  0.3610  0.4147
  154POPC   GL1 2332   6.876   4.717   8.064  0.2704  0.1126 -0.2690
  154POPC   GL2 2333   6.976   4.890   7.739 -0.2311  0.3715  0.1972
  154POPC   C1A 2334   6.940   4.408   7.567 -0.0545 -0.1207  0.4857
  154POPC   D2A 2335   6.973   4.266   7.158  0.1036  0.1033 -0.0468
  154POPC   C3A 2336   6.612   3.897   7.245 -0.2524 -0.0760  0.3361
  154POPC   C4A 2337   6.354   3.746   6.834  0.2911  0.0643 -0.3175
  154POPC   C1B 2338   7.413   4.896   7.503 -0.4016  0.1402 -0.2579
  154POPC   C2B 2339   7.694   4.761   7.330 -0.2146  0.2665  0.0292
  154POPC   C3B 2340   7.681   4.506   6.885  0.3115  0.0179 -0.0145
  154POPC   C4B 2341   7.589   4.591   6.438  0.0689  0.1572  0.3559
  155POPC   NC3 2342   5.737   9.272   9.374 -0.1582 -0.0598 -0.2573
  155POPC   PO4 2343   5.716   8.943   9.084 -0.0671  0.0635  0.1466
  155POPC   GL1 2344   5.663   9.191   8.865 -0.2277  0.0048 -0.1116
  155POPC   GL2 2345   5.489   9.561   8.974  0.1785  0.3593  0.3205
  155POPC   C1A 2346   5.809   9.459   8.632  0.3737  0.0682 -0.0468
  155POPC   D2A 2347   5.612   9.874   8.498 -0.1016 -0.0764 -0.2304
  155POPC   C3A 2348   5.682  10.001   8.842  0.1990 -0.0633  0.0816
  155POPC   C4A 2349   5.941  10.170   9.180  0.1834 -0.1982  0.1350
  155POPC   C1B 2350   5.174   9.548   8.607 -0.2000 -0.1015 -0.0593
  155POPC   C2B 2351   4.971   9.358   8.291 -0.2654 -0.1123 -0.0457
  155POPC   C3B 2352   4.689   9.323   8.059 -0.0338  0.1877  0.1098
  155POPC   C4B 2353   4.304   9.393   7.863 -0.1545  0.0516  0.0516
  156POPC   NC3 2354   4.106   7.815   8.859  0.0061 -0.1384 -0.1588
  156POPC   PO4 2355   4.551   7.698   8.658  0.1080 -0.2520 -0.1238
  156POPC   GL1 2356   4.483   7.805   8.317 -0.1002  0.0675 -0.1702
  156POPC   GL2 2357   4.318   7.706   8.104  0.3517  0.1042 -0.0388
  156POPC   C1A 2358   4.678   7.988   7.925 -0.2354  0.0453  0.0548
  156POPC   D2A 2359   4.422   7.961   7.555  0.0144 -0.1212  0.1860
  156POPC   C3A 2360   4.301   8.201   7.182 -0.2024  0.1437  0.0283
  156POPC   C4A 2361   4.295   8.228   6.746  0.0549 -0.0149 -0.0465
  156POPC   C1B 2362   4.019   7.635   7.790 -0.2726 -0.1527 -0.2849
  156POPC   C2B 2363   4.030   7.417   7.464 -0.2220 -0.0983 -0.1243
  156POPC   C3B 2364   4.236   7.267   6.969  0.0672 -0.1430  0.0824
  156POPC   C4B 2365   4.415   7.361   6.615 -0.1356 -0.1166  0.2627
  157POPC   NC3 2366   3.792   9.824   9.362 -0.0723  0.3127  0.0632
  157POPC   PO4 2367   4.087   9.813   9.616 -0.3805 -0.1757  0.2733
  157POPC   GL1 2368   4.416  10.010   9.425  0.0015 -0.2349  0.2342
  157POPC   GL2 2369   4.513  10.313   9.584 -0.2016 -0.4604 -0.0590
  157POPC   C1A 2370   4.646  10.053   9.043  0.1554  0.0664  0.1108
  157POPC   D2A 2371   4.520  10.137   8.654  0.0113 -0.1965 -0.0956
  157POPC   C3A 2372   4.666  10.268   8.268 -0.1994 -0.1333 -0.1703
  157POPC   C4A 2373   4.644  10.512   8.023 -0.2279  0.1430  0.1244
  157POPC   C1B 2374   4.322  10.683   9.687 -0.1302 -0.1779 -0.2326
  157POPC   C2B 2375   4.211  10.945   9.442  0.5527 -0.0243  0.3322
  157POPC   C3B 2376   4.214  11.106   9.059  0.0145  0.0426 -0.2959
  157POPC   C4B 2377   3.957  11.050   8.620 -0.1302 -0.4358 -0.0216
  158POPC   NC3 2378   2.059   3.554   8.350  0.0143 -0.1673 -0.1157
  158POPC   PO4 2379   2.464   3.702   8.372 -0.1197  0.1697 -0.0696
  158POPC   GL1 2380   2.345   3.909   8.017 -0.1621  0.1487 -0.2025
  158POPC   GL2 2381   2.168   4.198   8.009  0.0229  0.0418  0.1702
  158POPC   C1A 2382   2.180   3.739   7.584  0.4398 -0.1523 -0.1110
  158POPC   D2A 2383   2.071   3.928   7.178 -0.0981  0.1387  0.2577
  158POPC   C3A 2384   2.101   4.192   6.820 -0.5662  0.4385  0.0382
  158POPC   C4A 2385   2.251   4.494   6.579 -0.2557  0.0879  0.1072
  158POPC   C1B 2386   1.866   4.081   7.675 -0.0727 -0.2447 -0.0652
  158POPC   C2B 2387   1.662   3.769   7.482 -0.2975 -0.0213 -0.0091
  158POPC   C3B 2388   1.354   3.461   7.451 -0.0546 -0.3312 -0.4107
  158POPC   C4B 2389   1.209   3.074   7.414  0.0572 -0.0371  0.1915
  159POPC   NC3 2390   9.144   9.800   8.602  0.2490  0.0323 -0.0302
  159POPC   PO4 2391   9.528   9.707   8.614 -0.0486  0.0234 -0.0966
  159POPC   GL1 2392   9.388   9.827   8.154  0.0098  0.0602  0.2885
  159POPC   GL2 2393   9.680   9.911   8.033  0.2413  0.0716 -0.2705
  159POPC   C1A 2394   9.248   9.691   7.728  0.1119 -0.0438  0.3992
  159POPC   D2A 2395   8.825   9.553   7.620 -0.0010 -0.0909 -0.0846
  159POPC   C3A 2396   8.680   9.704   7.290 -0.1061 -0.1392 -0.2341
  159POPC   C4A 2397   8.867   9.888   6.955  0.2001  0.2941  0.4303
  159POPC   C1B 2398   9.675  10.035   7.600 -0.1946  0.3092  0.2800
  159POPC   C2B 2399   9.700  10.286   7.216 -0.1894 -0.0065  0.0238
  159POPC   C3B 2400   9.669  10.518   6.868  0.3219  0.2776  0.1750
  159POPC   C4B 2401   9.454  10.768   6.522 -0.2420  0.0749 -0.2976
  160POPC   NC3 2402   1.871   2.335   8.845 -0.0518  0.1680  0.0108
  160POPC   PO4 2403   2.246   2.052   8.867 -0.0169 -0.1469 -0.1581
  160POPC   GL1 2404   2.078   1.766   8.475  0.1901 -0.0679 -0.3511
  160POPC   GL2 2405   1.806   1.637   8.469  0.2808 -0.2144  0.0662
  160POPC   C1A 2406   2.327   1.479   8.224  0.0668  0.2129 -0.1205
  160POPC   D2A 2407   2.532   1.336   7.832 -0.2906 -0.0295 -0.2553
  160POPC   C3A 2408   2.996   1.178   7.882  0.0643  0.0703  0.0855
  160POPC   C4A 2409   3.471   1.164   7.834  0.0469 -0.1036 -0.1715
  160POPC   C1B 2410   1.760   1.374   8.134 -0.0059 -0.0087  0.0625
  160POPC   C2B 2411   1.525   1.121   7.820  0.2414 -0.3262  0.0301
  160POPC   C3B 2412   1.567   1.033   7.380 -0.2436  0.3273  0.0790
  160POPC   C4B 2413   1.493   1.056   6.956  0.0737 -0.0049  0.4044
  161POPC   NC3 2414   1.003   8.576   9.082  0.1863  0.0684  0.1801
  161POPC   PO4 2415   1.059   8.503   8.600  0.1413 -0.4515  0.1482
  161POPC   GL1 2416   1.132   8.439   8.202 -0.3417  0.0803 -0.1013
  161POPC   GL2 2417   0.802   8.347   8.195  0.0366 -0.2463 -0.3238
  161POPC   C1A 2418   1.150   8.429   7.717  0.0824  0.1900  0.2972
  161POPC   D2A 2419   0.969   8.260   7.498 -0.2045  0.1066  0.0001
  161POPC   C3A 2420   1.015   7.858   7.568  0.3263  0.3598  0.1859
  161POPC   C4A 2421   1.178   7.578   7.277 -0.2521 -0.0549  0.0794
  161POPC   C1B 2422   0.551   8.305   7.817  0.1471  0.2040  0.1054
  161POPC   C2B 2423   0.423   8.233   7.400  0.0214 -0.0717 -0.0885
  161POPC   C3B 2424   0.750   8.062   7.114  0.0226  0.3832 -0.0502
  161POPC   C4B 2425   0.807   7.937   6.626 -0.1163  0.3395  0.0111
  162POPC   NC3 2426   8.660   5.428   8.908  0.0044  0.0881  0.0074
  162POPC   PO4 2427   8.429   5.820   8.778  0.2809 -0.0402 -0.3014
  162POPC   GL1 2428   8.489   5.688   8.398 -0.0401 -0.1891  0.2800
  162POPC   GL2 2429   8.248   5.573   8.144 -0.0012 -0.2542 -0.0352
  162POPC   C1A 2430   8.805   5.526   8.203  0.1809  0.0943  0.1343
  162POPC   D2A 2431   9.194   5.182   7.886  0.1203  0.0402  0.1879
  162POPC   C3A 2432   9.217   5.145   7.468 -0.0548  0.1031  0.0165
  162POPC   C4A 2433   9.506   5.238   7.151 -0.0303  0.1244  0.0053
  162POPC   C1B 2434   8.278   5.368   7.692  0.0768 -0.2466  0.2143
  162POPC   C2B 2435   8.265   5.323   7.245  0.1505 -0.3267 -0.0920
  162POPC   C3B 2436   8.595   5.002   7.008 -0.0773 -0.0961  0.0781
  162POPC   C4B 2437   8.702   4.559   7.030  0.2132 -0.2232  0.3575
  163POPC   NC3 2438   9.289   8.909   8.494  0.3316  0.0429  0.1961
  163POPC   PO4 2439   9.206   9.326   8.412 -0.1040  0.1252  0.0339
  163POPC   GL1 2440   9.267   9.245   7.964 -0.2361 -0.1779  0.2194
  163POPC   GL2 2441   9.576   9.378   7.946  0.1097  0.0334 -0.1517
  163POPC   C1A 2442   9.183   9.212   7.569  0.0698 -0.0825 -0.0893
  163POPC   D2A 2443   9.072   9.472   7.148 -0.0226  0.4263 -0.0520
  163POPC   C3A 2444   9.348   9.864   7.135  0.5952  0.0710 -0.0482
  163POPC   C4A 2445   9.536   9.999   6.716 -0.1311  0.0885 -0.1807
  163POPC   C1B 2446   9.684   9.544   7.435 -0.0432  0.0088 -0.1255
  163POPC   C2B 2447   9.846   9.832   7.019 -0.1757 -0.0549 -0.0849
  163POPC   C3B 2448  10.098  10.213   6.918  0.3747  0.3509 -0.3563
  163POPC   C4B 2449  10.255  10.419   7.259 -0.1998  0.1361  0.1198
  164POPC   NC3 2450   9.256   3.643   9.162 -0.0578 -0.2241 -0.1991
  164POPC   PO4 2451   9.210   3.439   8.748  0.0083 -0.4263 -0.1821
  164POPC   GL1 2452   9.039   3.215   8.383 -0.2275  0.3759  0.0804
  164POPC   GL2 2453   9.223   2.920   8.293  0.0550  0.1530  0.1907
  164POPC   C1A 2454   8.783   3.289   8.059 -0.1157  0.0741 -0.0936
  164POPC   D2A 2455   8.857   3.572   7.733  0.0944 -0.0888  0.0125
  164POPC   C3A 2456   8.492   3.795   7.510 -0.0085 -0.2289 -0.0646
  164POPC   C4A 2457   8.148   3.834   7.264 -0.3293 -0.0200  0.0751
  164POPC   C1B 2458   9.476   2.958   7.900 -0.0287 -0.1811 -0.0456
  164POPC   C2B 2459   9.439   2.893   7.451 -0.1550  0.1265 -0.1611
  164POPC   C3B 2460   9.227   2.622   7.134 -0.1768  0.0706 -0.0607
  164POPC   C4B 2461   8.801   2.616   7.113 -0.1805 -0.2312 -0.0949
  165POPC   NC3 2462   2.086   7.744   8.677 -0.0311 -0.4583 -0.1480
  165POPC   PO4 2463   2.066   7.985   8.366 -0.1205 -0.0470 -0.2147
  165POPC   GL1 2464   2.011   8.108   7.914 -0.0268  0.2693  0.0189
  165POPC   GL2 2465   1.657   8.096   7.927  0.2439  0.0523 -0.0310
  165POPC   C1A 2466   2.189   8.398   7.606 -0.1915  0.0866  0.1238
  165POPC   D2A 2467   2.081   8.139   7.242  0.1010 -0.2008  0.0123
  165POPC   C3A 2468   2.044   7.934   6.874 -0.1783  0.0719 -0.0109
  165POPC   C4A 2469   2.268   7.621   6.754  0.1472  0.0658  0.0219
  165POPC   C1B 2470   1.632   8.378   7.530  0.1569  0.0413 -0.1012
  165POPC   C2B 2471   1.789   8.450   7.018  0.1305 -0.1391 -0.2904
  165POPC   C3B 2472   1.786   8.581   6.696  0.2249 -0.0233  0.0177
  165POPC   C4B 2473   1.642   8.603   6.296  0.1287  0.0866  0.0727
  166POPC   NC3 2474   8.129  10.040   9.182 -0.0351 -0.1853  0.1561
  166POPC   PO4 2475   7.799   9.767   9.027 -0.2106 -0.1356 -0.2068
  166POPC   GL1 2476   8.017   9.903   8.646  0.1957  0.3380 -0.0424
  166POPC   GL2 2477   8.179  10.114   8.531  0.0509 -0.1074  0.1539
  166POPC   C1A 2478   7.932   9.785   8.242  0.3577 -0.0644 -0.0516
  166POPC   D2A 2479   7.853   9.907   7.818  0.1589 -0.1236  0.0729
  166POPC   C3A 2480   7.787   9.699   7.557 -0.0199  0.0840  0.2348
  166POPC   C4A 2481   7.918   9.514   7.228  0.0150 -0.1552  0.0024
  166POPC   C1B 2482   8.166  10.213   8.110 -0.0636  0.2036 -0.0253
  166POPC   C2B 2483   8.270  10.355   7.756  0.2287 -0.3157 -0.3375
  166POPC   C3B 2484   8.199  10.489   7.269 -0.1159 -0.2992 -0.2234
  166POPC   C4B 2485   8.152  10.769   6.969 -0.0218  0.1979  0.2214
  167POPC   NC3 2486   7.622   8.638   8.339 -0.0871 -0.1548 -0.0920
  167POPC   PO4 2487   7.223   8.750   8.351  0.0663  0.0514  0.3032
  167POPC   GL1 2488   7.105   8.906   7.933 -0.0499 -0.2163 -0.0009
  167POPC   GL2 2489   7.503   8.922   7.890 -0.0589 -0.0094 -0.0553
  167POPC   C1A 2490   6.981   9.057   7.493  0.0511 -0.2380  0.0194
  167POPC   D2A 2491   6.514   9.232   7.393 -0.3138  0.1945 -0.1635
  167POPC   C3A 2492   6.384   9.221   6.961 -0.0920  0.2612 -0.2622
  167POPC   C4A 2493   6.225   9.403   6.604 -0.3476  0.1157  0.0895
  167POPC   C1B 2494   7.804   9.020   7.568  0.2749 -0.1450 -0.1019
  167POPC   C2B 2495   8.110   8.864   7.248  0.0706 -0.2753  0.0374
  167POPC   C3B 2496   8.129   9.018   6.914 -0.0835  0.2215  0.1874
  167POPC   C4B 2497   8.025   9.044   6.412 -0.1764  0.2459 -0.3031
  168POPC   NC3 2498   1.183   6.632   4.507  0.0727  0.1370  0.0438
  168POPC   PO4 2499   0.892   7.035   4.408  0.2779  0.2917  0.1311
  168POPC   GL1 2500   0.728   7.239   4.808 -0.0239  0.2049 -0.1168
  168POPC   GL2 2501   0.481   7.194   5.091  0.2002  0.2498 -0.0954
  168POPC   C1A 2502   0.940   7.276   5.229  0.0149 -0.0870 -0.0309
  168POPC   D2A 2503   0.925   6.913   5.558  0.0914 -0.1691  0.0635
  168POPC   C3A 2504   1.241   6.822   5.788 -0.3073  0.2763  0.2183
  168POPC   C4A 2505   1.572   6.767   5.945 -0.0197  0.0164 -0.1174
  168POPC   C1B 2506   0.808   6.801   5.050  0.3893  0.0823 -0.0534
  168POPC   C2B 2507   1.130   6.745   5.174 -0.0690 -0.2641  0.1366
  168POPC   C3B 2508   1.296   6.472   5.436 -0.2416  0.0167  0.1051
  168POPC   C4B 2509   1.547   6.224   5.648 -0.1931  0.3351  0.0490
  169POPC   NC3 2510   1.262   1.564   4.715  0.3207 -0.0905  0.0340
  169POPC   PO4 2511   0.966   1.146   4.609 -0.0538 -0.0708  0.0194
  169POPC   GL1 2512   1.158   0.882   4.936 -0.1043 -0.1455 -0.3258
  169POPC   GL2 2513   0.982   0.711   5.147  0.0752 -0.1312  0.1193
  169POPC   C1A 2514   1.375   0.539   5.281  0.0542  0.4098 -0.0935
  169POPC   D2A 2515   1.650   0.547   5.624  0.0537 -0.4513 -0.3133
  169POPC   C3A 2516   1.777   0.256   5.846  0.1364  0.0194  0.2266
  169POPC   C4A 2517   1.918   0.197   6.305  0.0083  0.0145  0.2741
  169POPC   C1B 2518   1.074   0.871   5.485  0.3053  0.0611  0.0615
  169POPC   C2B 2519   1.164   0.788   5.878  0.1033  0.1360 -0.4070
  169POPC   C3B 2520   1.162   0.821   6.359 -0.1696  0.1229  0.0678
  169POPC   C4B 2521   1.037   0.916   6.696 -0.1314  0.3466  0.3143
  170POPC   NC3 2522   6.308   7.047   5.118 -0.3354  0.0088 -0.3227
  170POPC   PO4 2523   6.696   7.048   5.029 -0.1382 -0.2496  0.0620
  170POPC   GL1 2524   6.845   7.434   5.256  0.0437  0.0255 -0.1406
  170POPC   GL2 2525   7.128   7.286   5.233 -0.0058  0.2151 -0.0646
  170POPC   C1A 2526   6.816   7.668   5.604 -0.0624 -0.0590 -0.1891
  170POPC   D2A 2527   6.817   7.944   5.971  0.1467 -0.0777 -0.1208
  170POPC   C3A 2528   6.584   7.948   6.426  0.0581 -0.0923 -0.0512
  170POPC   C4A 2529   6.391   7.825   6.729  0.1019 -0.1657 -0.0013
  170POPC   C1B 2530   7.132   7.250   5.690  0.2222  0.2122 -0.2005
  170POPC   C2B 2531   6.951   7.445   6.074  0.3881  0.1707  0.3648
  170POPC   C3B 2532   6.534   7.508   6.103  0.2872 -0.0829  0.2503
  170POPC   C4B 2533   6.145   7.695   6.175  0.1154 -0.4225  0.0968
  171POPC   NC3 2534   7.775   9.148   4.652 -0.1583  0.1337 -0.0715
  171POPC   PO4 2535   7.858   9.542   4.754  0.3593 -0.2283  0.1953
  171POPC   GL1 2536   7.772   9.334   5.207 -0.1789  0.1970  0.0840
  171POPC   GL2 2537   8.031   9.237   5.381 -0.0367  0.0481 -0.0821
  171POPC   C1A 2538   7.628   9.527   5.608  0.1125  0.0310 -0.0703
  171POPC   D2A 2539   7.212   9.747   5.797  0.1489  0.0515  0.1527
  171POPC   C3A 2540   7.132   9.498   6.212  0.3507 -0.0215 -0.0272
  171POPC   C4A 2541   7.159   9.441   6.666 -0.1118 -0.2024 -0.1939
  171POPC   C1B 2542   8.401   9.410   5.680 -0.1663 -0.1667 -0.0157
  171POPC   C2B 2543   8.693   9.670   5.914 -0.0562 -0.2126  0.2714
  171POPC   C3B 2544   9.162   9.594   6.055 -0.2538 -0.0497  0.2923
  171POPC   C4B 2545   9.563   9.708   5.927  0.1184  0.0466 -0.2067
  172POPC   NC3 2546   7.691   4.494   4.887 -0.0259 -0.0752 -0.4107
  172POPC   PO4 2547   7.729   4.149   4.659 -0.1271  0.2031 -0.0673
  172POPC   GL1 2548   7.650   4.007   5.091 -0.1343  0.2371  0.0166
  172POPC   GL2 2549   7.520   4.080   5.280  0.0793  0.2074 -0.2184
  172POPC   C1A 2550   7.892   3.779   5.442 -0.1389  0.3180 -0.0175
  172POPC   D2A 2551   8.297   3.895   5.671  0.0178  0.0094 -0.1144
  172POPC   C3A 2552   8.212   4.102   6.123 -0.1855 -0.1498 -0.1280
  172POPC   C4A 2553   7.913   4.187   6.480  0.0144 -0.1941  0.2472
  172POPC   C1B 2554   7.430   4.043   5.562 -0.2529 -0.1065  0.4979
  172POPC   C2B 2555   7.187   4.018   5.841  0.1757 -0.0786 -0.1923
  172POPC   C3B 2556   7.067   3.714   6.155  0.1014 -0.1333 -0.1908
  172POPC   C4B 2557   7.280   3.542   6.612  0.0017 -0.3230  0.3145
  173POPC   NC3 2558   5.889   4.065   4.335  0.0887  0.0219 -0.2947
  173POPC   PO4 2559   5.955   4.253   4.705  0.0313  0.1161  0.0767
  173POPC   GL1 2560   5.822   4.434   5.138  0.1246 -0.2125 -0.2499
  173POPC   GL2 2561   5.421   4.367   5.200 -0.0437  0.2223  0.1672
  173POPC   C1A 2562   6.037   4.808   5.435  0.1352 -0.0012 -0.2778
  173POPC   D2A 2563   5.902   5.006   5.846  0.0243  0.0330  0.3376
  173POPC   C3A 2564   5.526   5.215   5.975  0.1235  0.0258 -0.2268
  173POPC   C4A 2565   5.173   5.132   6.250 -0.1278 -0.2257 -0.1123
  173POPC   C1B 2566   5.299   4.054   5.491 -0.2574  0.0641 -0.0759
  173POPC   C2B 2567   5.491   3.834   5.876 -0.0153  0.0475 -0.0961
  173POPC   C3B 2568   5.567   3.655   6.253  0.3343 -0.0567  0.0210
  173POPC   C4B 2569   5.556   3.725   6.728  0.2767  0.0862 -0.0642
  174POPC   NC3 2570   6.844   4.337   4.507 -0.0644 -0.5150  0.0410
  174POPC   PO4 2571   6.833   4.787   4.679 -0.0942  0.0289 -0.0192
  174POPC   GL1 2572   6.831   5.112   5.026 -0.0536  0.2670  0.1606
  174POPC   GL2 2573   7.075   5.279   5.150  0.0142 -0.2223 -0.2464
  174POPC   C1A 2574   6.602   5.196   5.442  0.0918 -0.0011  0.0811
  174POPC   D2A 2575   6.391   5.238   5.816  0.0067 -0.2010  0.2462
  174POPC   C3A 2576   6.590   5.367   6.091  0.3332 -0.0712  0.0189
  174POPC   C4A 2577   6.584   5.303   6.587  0.1111 -0.1456  0.2458
  174POPC   C1B 2578   7.149   5.274   5.602 -0.2216  0.0973 -0.0884
  174POPC   C2B 2579   7.467   5.422   5.881 -0.0793  0.0596  0.2195
  174POPC   C3B 2580   7.550   5.630   6.277 -0.3935 -0.0075 -0.2884
  174POPC   C4B 2581   7.715   5.472   6.674  0.0798  0.4219 -0.2283
  175POPC   NC3 2582   6.669   2.036   4.127 -0.1620  0.0486  0.3697
  175POPC   PO4 2583   6.889   2.367   4.318  0.2440 -0.0218 -0.0639
  175POPC   GL1 2584   6.617   2.629   4.551  0.0734 -0.3568  0.0551
  175POPC   GL2 2585   6.727   2.812   4.760 -0.1750  0.2081  0.0628
  175POPC   C1A 2586   6.302   2.576   4.880  0.0305  0.2939  0.1487
  175POPC   D2A 2587   6.364   2.490   5.322 -0.2389 -0.0407  0.1138
  175POPC   C3A 2588   6.672   2.258   5.500  0.2670 -0.2403  0.1301
  175POPC   C4A 2589   6.764   2.216   5.927 -0.1997 -0.0067  0.2067
  175POPC   C1B 2590   6.773   2.864   5.077 -0.1027  0.3072 -0.0974
  175POPC   C2B 2591   6.772   2.836   5.466 -0.2578  0.1499 -0.2786
  175POPC   C3B 2592   6.939   3.058   5.875 -0.2345  0.1268 -0.3505
  175POPC   C4B 2593   6.858   3.330   6.126  0.3730  0.6115  0.1841
  176POPC   NC3 2594   3.700   4.213   4.720 -0.1031  0.2570 -0.0474
  176POPC   PO4 2595   3.401   3.992   4.557  0.0251 -0.1857  0.1201
  176POPC   GL1 2596   3.492   3.803   4.984  0.1497  0.2718  0.3344
  176POPC   GL2 2597   3.396   3.505   5.110 -0.2081  0.0798 -0.1862
  176POPC   C1A 2598   3.363   3.912   5.394  0.0340  0.0848 -0.2886
  176POPC   D2A 2599   3.268   3.919   5.821  0.1959  0.1371  0.1139
  176POPC   C3A 2600   3.546   3.801   6.113  0.1539 -0.2409 -0.1216
  176POPC   C4A 2601   3.666   3.969   6.472 -0.1217 -0.0909  0.1403
  176POPC   C1B 2602   3.208   3.514   5.592  0.2650 -0.1783  0.1848
  176POPC   C2B 2603   3.203   3.427   5.979  0.0501 -0.0987  0.0463
  176POPC   C3B 2604   3.447   3.190   6.218 -0.1831  0.4186  0.0016
  176POPC   C4B 2605   3.809   2.985   6.080  0.1248 -0.1440  0.2111
  177POPC   NC3 2606   4.621   4.542   4.766  0.0295 -0.2406 -0.0126
  177POPC   PO4 2607   4.367   4.821   4.926 -0.2323 -0.1231 -0.2223
  177POPC   GL1 2608   4.091   4.601   5.197  0.1082  0.0464 -0.0336
  177POPC   GL2 2609   4.048   4.261   5.018  0.1891  0.0365 -0.1863
  177POPC   C1A 2610   4.104   4.458   5.572  0.2193 -0.0001 -0.1049
  177POPC   D2A 2611   4.262   4.344   6.081 -0.2083 -0.0901  0.0708
  177POPC   C3A 2612   4.642   4.477   6.143  0.4242 -0.0670  0.2539
  177POPC   C4A 2613   4.957   4.783   5.922 -0.1010  0.2116  0.1208
  177POPC   C1B 2614   3.971   4.048   5.346  0.0347  0.0022  0.0732
  177POPC   C2B 2615   3.819   3.603   5.509  0.0017  0.0460 -0.2657
  177POPC   C3B 2616   3.971   3.236   5.684  0.1171  0.0448 -0.1900
  177POPC   C4B 2617   4.316   2.972   5.787  0.0667 -0.2850 -0.2715
  178POPC   NC3 2618   6.945   1.249   3.542  0.1067 -0.1014  0.3026
  178POPC   PO4 2619   6.536   1.462   3.515  0.0344 -0.1252  0.0273
  178POPC   GL1 2620   6.545   1.201   3.896 -0.1697 -0.0270 -0.2569
  178POPC   GL2 2621   6.712   0.951   4.111  0.1238  0.0336 -0.1153
  178POPC   C1A 2622   6.523   1.323   4.353  0.2875 -0.0369 -0.4582
  178POPC   D2A 2623   6.664   1.667   4.604  0.0525  0.1539 -0.4915
  178POPC   C3A 2624   6.646   1.695   5.040 -0.0204 -0.1500 -0.1784
  178POPC   C4A 2625   6.798   1.517   5.512  0.0422  0.2067  0.2591
  178POPC   C1B 2626   6.279   0.914   4.253 -0.1441 -0.1948  0.1738
  178POPC   C2B 2627   5.935   0.712   4.600 -0.1701 -0.1911 -0.0338
  178POPC   C3B 2628   5.520   0.770   4.739 -0.0025 -0.3121  0.1395
  178POPC   C4B 2629   5.361   0.635   5.144  0.0240 -0.1263 -0.0782
  179POPC   NC3 2630   6.644   0.087   3.786 -0.1229 -0.1574  0.1703
  179POPC   PO4 2631   6.450  -0.282   3.766  0.0233  0.2684 -0.1128
  179POPC   GL1 2632   6.227  -0.123   3.972  0.0096  0.1534  0.3347
  179POPC   GL2 2633   6.078  -0.263   4.253 -0.1455 -0.1471 -0.0293
  179POPC   C1A 2634   5.925   0.197   4.040 -0.0747  0.2075 -0.0764
  179POPC   D2A 2635   5.808   0.352   3.695  0.1201  0.0364  0.2337
  179POPC   C3A 2636   5.449   0.270   3.748  0.2897  0.0713 -0.0099
  179POPC   C4A 2637   5.041   0.287   3.648  0.1716 -0.2501  0.0781
  179POPC   C1B 2638   6.330  -0.291   4.508  0.0528  0.2064 -0.0502
  179POPC   C2B 2639   6.594  -0.561   4.786 -0.2321  0.0784  0.2331
  179POPC   C3B 2640   6.853  -0.553   5.223  0.0148 -0.1642  0.0008
  179POPC   C4B 2641   7.036  -0.328   5.668  0.0902  0.1756  0.1563
  180POPC   NC3 2642   1.660   0.532   3.902  0.0955  0.1353  0.1034
  180POPC   PO4 2643   1.650   0.310   4.260 -0.2484  0.1454 -0.0152
  180POPC   GL1 2644   1.770   0.179   4.726  0.1523  0.1411  0.2024
  180POPC   GL2 2645   1.612  -0.153   4.743  0.1504 -0.2690  0.2544
  180POPC   C1A 2646   1.774   0.188   5.232 -0.1250 -0.1426 -0.1231
  180POPC   D2A 2647   1.487   0.052   5.479 -0.0453  0.1396 -0.0833
  180POPC   C3A 2648   1.223   0.312   5.759  0.1142  0.0152 -0.2427
  180POPC   C4A 2649   1.343   0.360   6.192 -0.1247 -0.1179 -0.1472
  180POPC   C1B 2650   1.315  -0.068   5.069  0.3448  0.0882  0.2916
  180POPC   C2B 2651   1.014   0.237   5.148  0.0987 -0.2610  0.0596
  180POPC   C3B 2652   0.771   0.386   5.530 -0.0023  0.3367  0.2124
  180POPC   C4B 2653   0.489   0.185   5.759  0.2915 -0.3521  0.1098
  181POPC   NC3 2654   9.579   9.778   4.997 -0.1553 -0.0275 -0.0950
  181POPC   PO4 2655   9.763   9.390   4.871  0.0148 -0.1878 -0.1043
  181POPC   GL1 2656   9.864   9.299   5.199  0.0458  0.0143 -0.0320
  181POPC   GL2 2657   9.856   8.893   5.332 -0.0597 -0.3313  0.2112
  181POPC   C1A 2658   9.994   9.317   5.534 -0.0954 -0.2562 -0.0699
  181POPC   D2A 2659  10.235   9.674   5.767  0.1938 -0.2423  0.0771
  181POPC   C3A 2660  10.158   9.730   6.231  0.0770 -0.1401 -0.1079
  181POPC   C4A 2661  10.167   9.786   6.614 -0.0675  0.0716 -0.0490
  181POPC   C1B 2662   9.899   8.800   5.807 -0.1133  0.2374 -0.1747
  181POPC   C2B 2663   9.985   8.822   6.354  0.0216  0.0307 -0.0169
  181POPC   C3B 2664   9.849   9.002   6.756  0.0122  0.0388 -0.0526
  181POPC   C4B 2665   9.898   9.319   7.016 -0.0080  0.3873 -0.3047
  182POPC   NC3 2666   9.338   1.488   5.269  0.5013 -0.0080  0.0633
  182POPC   PO4 2667   9.378   1.025   5.259  0.0986 -0.0243  0.0438
  182POPC   GL1 2668   9.436   0.939   5.675  0.1568 -0.1910 -0.2021
  182POPC   GL2 2669   9.660   0.727   5.614  0.0801 -0.0959 -0.0461
  182POPC   C1A 2670   9.447   1.188   6.078 -0.0044 -0.0286 -0.2465
  182POPC   D2A 2671   9.204   1.109   6.381  0.0646 -0.2322  0.2713
  182POPC   C3A 2672   8.851   1.359   6.355  0.0016  0.1825 -0.0249
  182POPC   C4A 2673   8.771   1.690   6.164 -0.0546 -0.1223  0.2507
  182POPC   C1B 2674   9.579   0.734   6.070  0.1199 -0.0590 -0.1035
  182POPC   C2B 2675   9.690   0.754   6.525 -0.2450  0.1669 -0.2664
  182POPC   C3B 2676  10.057   0.700   6.785 -0.0573 -0.0589 -0.1632
  182POPC   C4B 2677  10.442   0.897   6.833 -0.2098 -0.3704 -0.0775
  183POPC   NC3 2678   2.128   8.789   4.380  0.2453  0.0838 -0.1850
  183POPC   PO4 2679   2.200   9.268   4.433 -0.0273 -0.3255  0.1543
  183POPC   GL1 2680   2.075   9.372   4.754 -0.2723  0.4092  0.1652
  183POPC   GL2 2681   1.676   9.360   4.867 -0.1479  0.1384 -0.1840
  183POPC   C1A 2682   2.100   9.500   5.179 -0.1351  0.1095  0.2443
  183POPC   D2A 2683   1.819   9.368   5.557 -0.0834 -0.1251  0.2359
  183POPC   C3A 2684   2.180   9.405   5.835 -0.0466  0.0874  0.0751
  183POPC   C4A 2685   2.556   9.348   6.128  0.2050 -0.0351 -0.1131
  183POPC   C1B 2686   1.685   9.724   5.220 -0.1196  0.4580  0.0609
  183POPC   C2B 2687   1.811   9.876   5.693 -0.2615  0.0190 -0.1911
  183POPC   C3B 2688   1.863   9.901   6.196  0.2369 -0.1162  0.1666
  183POPC   C4B 2689   1.897  10.267   6.431 -0.0679  0.1585 -0.3463
  184POPC   NC3 2690   8.129   1.252   4.340 -0.2400  0.0003  0.1438
  184POPC   PO4 2691   7.892   0.921   4.571 -0.2058 -0.0655 -0.0781
  184POPC   GL1 2692   7.620   0.696   4.802 -0.6367 -0.2250  0.3793
  184POPC   GL2 2693   7.380   0.862   4.834 -0.0798  0.2882 -0.0042
  184POPC   C1A 2694   7.522   0.546   5.212 -0.1777  0.1640  0.1368
  184POPC   D2A 2695   7.640   0.691   5.603  0.1117  0.2807 -0.0697
  184POPC   C3A 2696   7.640   1.109   5.669 -0.1344  0.1306  0.1056
  184POPC   C4A 2697   7.930   1.137   5.969 -0.0900 -0.0374 -0.1326
  184POPC   C1B 2698   7.265   0.958   5.320  0.2760  0.0212  0.0989
  184POPC   C2B 2699   7.121   1.107   5.655  0.2783 -0.1996 -0.1864
  184POPC   C3B 2700   6.857   1.116   5.951 -0.0306 -0.2144 -0.0287
  184POPC   C4B 2701   6.506   1.353   6.137 -0.0263 -0.0519 -0.0920
  185POPC   NC3 2702   1.702   4.437   4.973  0.2079 -0.0295  0.0209
  185POPC   PO4 2703   1.463   4.167   4.652  0.0056  0.4170  0.0882
  185POPC   GL1 2704   1.223   3.936   5.013 -0.1754  0.1016  0.2358
  185POPC   GL2 2705   0.891   4.014   5.100 -0.0219 -0.1595 -0.3164
  185POPC   C1A 2706   1.113   3.580   5.256  0.2513  0.2429 -0.0243
  185POPC   D2A 2707   1.301   3.173   5.439  0.3464  0.0307 -0.1879
  185POPC   C3A 2708   1.429   3.009   5.741 -0.1162 -0.1083 -0.2087
  185POPC   C4A 2709   1.592   3.059   6.105  0.3888  0.3154  0.0265
  185POPC   C1B 2710   1.033   4.067   5.590  0.3355 -0.4293 -0.3797
  185POPC   C2B 2711   1.167   4.225   5.904 -0.2125 -0.2397  0.0096
  185POPC   C3B 2712   1.160   4.628   6.018 -0.1167 -0.1817 -0.1855
  185POPC   C4B 2713   1.308   4.958   6.172 -0.0692 -0.0377 -0.0644
  186POPC   NC3 2714   1.054  10.131   4.617 -0.3375  0.1932  0.2086
  186POPC   PO4 2715   0.758   9.781   4.593 -0.0376  0.1024  0.0712
  186POPC   GL1 2716   0.768   9.785   5.006 -0.2127  0.0240 -0.3377
  186POPC   GL2 2717   1.045   9.997   5.104 -0.4612  0.2895  0.0484
  186POPC   C1A 2718   0.792   9.742   5.437 -0.0099 -0.1383 -0.0900
  186POPC   D2A 2719   0.829  10.041   5.808  0.0946  0.1230 -0.1592
  186POPC   C3A 2720   0.581   9.711   6.137  0.1249 -0.1092  0.1447
  186POPC   C4A 2721   0.616   9.370   6.469 -0.0846  0.2101  0.1048
  186POPC   C1B 2722   1.288  10.134   5.482 -0.0240 -0.0429 -0.2140
  186POPC   C2B 2723   1.443  10.234   5.843  0.0138  0.3151  0.3247
  186POPC   C3B 2724   1.537  10.424   6.115  0.0096  0.0855 -0.2182
  186POPC   C4B 2725   1.486  10.593   6.596  0.1431 -0.2244  0.0187
  187POPC   NC3 2726   9.444   2.491   4.874  0.1926  0.1981 -0.0457
  187POPC   PO4 2727   9.477   2.004   5.104  0.1516 -0.0345 -0.1387
  187POPC   GL1 2728   9.608   1.843   5.471 -0.1634 -0.2029 -0.2761
  187POPC   GL2 2729   9.894   1.788   5.599 -0.3606 -0.0967 -0.1781
  187POPC   C1A 2730   9.495   1.905   5.895 -0.0070 -0.0229  0.1373
  187POPC   D2A 2731   9.537   2.089   6.362  0.0574 -0.0079  0.2623
  187POPC   C3A 2732   9.471   2.524   6.447  0.1081 -0.0326  0.0075
  187POPC   C4A 2733   9.570   2.725   6.790  0.3330 -0.3026 -0.2191
  187POPC   C1B 2734   9.807   1.481   5.912 -0.3042  0.0858 -0.0339
  187POPC   C2B 2735   9.842   1.421   6.313  0.4842 -0.1613 -0.0706
  187POPC   C3B 2736   9.630   1.202   6.651  0.0099 -0.0999  0.2236
  187POPC   C4B 2737   9.610   1.068   7.032 -0.0319 -0.0343  0.1179
  188POPC   NC3 2738   1.301   9.212   4.574 -0.0333 -0.1719 -0.2357
  188POPC   PO4 2739   1.702   9.104   4.471 -0.0705  0.4996  0.2023
  188POPC   GL1 2740   1.711   8.808   4.753 -0.2678 -0.0019  0.2397
  188POPC   GL2 2741   1.858   8.907   5.031 -0.2044  0.0084  0.0189
  188POPC   C1A 2742   1.704   8.415   4.929  0.1014  0.1505 -0.4960
  188POPC   D2A 2743   1.465   8.171   5.204  0.1434  0.0567 -0.0353
  188POPC   C3A 2744   1.678   8.073   5.578  0.0456 -0.1203 -0.1390
  188POPC   C4A 2745   1.442   8.001   5.904  0.2330  0.1211 -0.2154
  188POPC   C1B 2746   1.748   8.868   5.474  0.0449  0.3436  0.0318
  188POPC   C2B 2747   1.711   8.875   5.911 -0.2950 -0.2091 -0.2791
  188POPC   C3B 2748   1.337   9.013   6.159  0.0965  0.1754 -0.0709
  188POPC   C4B 2749   1.076   8.825   6.593  0.0604 -0.0345 -0.0644
  189POPC   NC3 2750   7.082   6.702   5.031 -0.1690  0.0125  0.0925
  189POPC   PO4 2751   7.495   6.460   5.053  0.1878 -0.0843  0.1317
  189POPC   GL1 2752   7.373   6.246   5.406  0.0701 -0.2085 -0.0022
  189POPC   GL2 2753   7.210   5.894   5.389  0.0560 -0.2030 -0.0481
  189POPC   C1A 2754   7.126   6.342   5.805  0.3228  0.0314 -0.4574
  189POPC   D2A 2755   6.727   6.550   6.002 -0.1868  0.0276  0.0214
  189POPC   C3A 2756   7.005   6.956   6.129 -0.2105 -0.2269 -0.1731
  189POPC   C4A 2757   7.425   7.251   6.121  0.2774  0.1063  0.0880
  189POPC   C1B 2758   7.054   5.830   5.740 -0.0829 -0.1143  0.3580
  189POPC   C2B 2759   7.036   5.646   6.123  0.1188 -0.2107 -0.2735
  189POPC   C3B 2760   7.122   5.315   6.396  0.4913 -0.0517  0.2236
  189POPC   C4B 2761   7.340   5.125   6.652 -0.0015  0.0684 -0.0537
  190POPC   NC3 2762   8.769   5.374   4.838  0.0579  0.1759  0.1321
  190POPC   PO4 2763   8.399   5.287   5.097  0.1230  0.0820  0.4849
  190POPC   GL1 2764   8.106   5.167   5.454 -0.3059 -0.2311  0.0591
  190POPC   GL2 2765   7.917   5.335   5.612  0.4007 -0.0996  0.1299
  190POPC   C1A 2766   8.236   5.027   5.899  0.1754  0.2379 -0.0405
  190POPC   D2A 2767   8.704   5.136   6.138 -0.2430  0.4934 -0.0126
  190POPC   C3A 2768   8.903   5.180   6.589 -0.1665 -0.2085  0.2137
  190POPC   C4A 2769   9.280   5.209   6.592 -0.0447  0.1087 -0.1396
  190POPC   C1B 2770   7.926   5.400   6.013 -0.2251  0.1397 -0.1226
  190POPC   C2B 2771   7.747   5.122   6.320 -0.0788  0.0823 -0.2130
  190POPC   C3B 2772   7.827   4.971   6.730  0.1566 -0.2856  0.4885
  190POPC   C4B 2773   8.127   4.819   7.062 -0.0837  0.0024 -0.0671
  191POPC   NC3 2774   8.145   1.268   4.889 -0.0959 -0.0314  0.1428
  191POPC   PO4 2775   7.893   1.535   4.625 -0.1178  0.1964 -0.1024
  191POPC   GL1 2776   7.457   1.445   4.835 -0.1722  0.2322  0.0586
  191POPC   GL2 2777   7.549   1.256   5.038 -0.1212 -0.1338 -0.1807
  191POPC   C1A 2778   6.956   1.358   5.043 -0.1048 -0.1856 -0.0269
  191POPC   D2A 2779   6.484   1.218   4.864  0.0021  0.1674 -0.0938
  191POPC   C3A 2780   6.111   1.225   5.031 -0.2637  0.0646  0.1899
  191POPC   C4A 2781   5.720   0.971   5.138  0.2771 -0.1090 -0.1122
  191POPC   C1B 2782   7.388   1.506   5.360  0.4075 -0.0021  0.0581
  191POPC   C2B 2783   7.537   1.937   5.510 -0.1675 -0.1543 -0.1912
  191POPC   C3B 2784   7.431   2.002   5.897  0.0303  0.0889 -0.2698
  191POPC   C4B 2785   7.391   1.780   6.340 -0.1389 -0.1711  0.2182
  192POPC   NC3 2786   1.123   5.045   5.004 -0.0414  0.4130  0.0233
  192POPC   PO4 2787   1.455   5.031   4.862  0.2294 -0.0635  0.1428
  192POPC   GL1 2788   1.505   4.806   5.197  0.0002 -0.0779 -0.0728
  192POPC   GL2 2789   1.803   4.813   5.304  0.2909  0.2324 -0.1164
  192POPC   C1A 2790   1.457   4.840   5.681 -0.2470  0.1201 -0.2871
  192POPC   D2A 2791   1.759   5.004   5.990 -0.0554 -0.0048  0.0372
  192POPC   C3A 2792   2.070   4.685   6.163  0.1004  0.1087 -0.0241
  192POPC   C4A 2793   2.530   4.849   6.303  0.0806 -0.1672 -0.1263
  192POPC   C1B 2794   2.086   4.984   5.508  0.1012  0.0121  0.1471
  192POPC   C2B 2795   2.308   4.988   5.854 -0.2472 -0.2423 -0.0691
  192POPC   C3B 2796   2.148   5.184   6.202  0.1057  0.1515  0.2531
  192POPC   C4B 2797   1.917   5.003   6.500  0.2809 -0.0225 -0.0350
  193POPC   NC3 2798   2.492   1.664   3.939  0.1567  0.0496  0.1103
  193POPC   PO4 2799   1.997   1.726   4.073  0.1363 -0.2722  0.0559
  193POPC   GL1 2800   2.160   1.730   4.486 -0.0989  0.6196 -0.0043
  193POPC   GL2 2801   2.430   1.904   4.367 -0.2886 -0.0601 -0.0327
  193POPC   C1A 2802   2.038   1.479   4.943 -0.0412  0.1699 -0.0602
  193POPC   D2A 2803   1.920   1.532   5.344  0.1288 -0.0323  0.3619
  193POPC   C3A 2804   2.294   1.418   5.639 -0.0110  0.0383 -0.2420
  193POPC   C4A 2805   2.310   1.148   6.034 -0.1058  0.1096 -0.1544
  193POPC   C1B 2806   2.264   2.062   4.820  0.0620  0.2259  0.3829
  193POPC   C2B 2807   2.427   1.850   5.238  0.0286  0.1902  0.2094
  193POPC   C3B 2808   2.758   1.554   5.305 -0.0668  0.0742 -0.0929
  193POPC   C4B 2809   3.015   1.716   5.598  0.0691  0.0468 -0.1541
  194POPC   NC3 2810   9.131  10.523   4.998  0.2922 -0.2791 -0.0415
  194POPC   PO4 2811   8.636  10.529   5.024 -0.0834 -0.1666 -0.2457
  194POPC   GL1 2812   8.384  10.350   5.277 -0.0778  0.0334 -0.0268
  194POPC   GL2 2813   8.387  10.545   5.571  0.0631  0.0390 -0.2711
  194POPC   C1A 2814   8.084  10.051   5.639 -0.0182  0.0888 -0.0987
  194POPC   D2A 2815   8.207   9.791   5.998 -0.1477 -0.1538  0.4856
  194POPC   C3A 2816   8.136   9.855   6.463  0.2224  0.1937 -0.0847
  194POPC   C4A 2817   8.100   9.502   6.749  0.0043  0.0111 -0.5770
  194POPC   C1B 2818   8.355  10.630   6.104 -0.1322 -0.0291 -0.1276
  194POPC   C2B 2819   8.091  10.821   6.363  0.0381 -0.0007 -0.1263
  194POPC   C3B 2820   7.786  10.996   6.639  0.0689 -0.2020 -0.2875
  194POPC   C4B 2821   7.532  11.079   6.959  0.5149 -0.3193 -0.3038
  195POPC   NC3 2822   5.601   8.636   3.735 -0.3960  0.0859 -0.3255
  195POPC   PO4 2823   5.318   8.430   4.062 -0.3124 -0.1327 -0.1648
  195POPC   GL1 2824   5.275   8.413   4.467 -0.1698 -0.2197  0.2770
  195POPC   GL2 2825   5.244   8.167   4.558 -0.0278  0.1911 -0.0842
  195POPC   C1A 2826   5.163   8.625   4.845 -0.2514 -0.1205  0.0094
  195POPC   D2A 2827   4.981   8.508   5.219  0.1413  0.1658 -0.2144
  195POPC   C3A 2828   5.040   8.674   5.607  0.1924 -0.0653  0.0883
  195POPC   C4A 2829   5.193   9.087   5.771 -0.0089  0.3593  0.0920
  195POPC   C1B 2830   5.677   8.259   4.693  0.0056 -0.0126  0.0693
  195POPC   C2B 2831   5.911   7.972   4.971 -0.1552 -0.0264 -0.4326
  195POPC   C3B 2832   6.001   7.835   5.492  0.1945 -0.1976  0.0529
  195POPC   C4B 2833   5.821   7.783   5.839  0.1011 -0.1788 -0.0746
  196POPC   NC3 2834   5.076   5.208   4.525  0.1159 -0.0219  0.0096
  196POPC   PO4 2835   4.685   5.020   4.631 -0.1305  0.2804 -0.0470
  196POPC   GL1 2836   4.723   5.108   5.133  0.0525 -0.0458  0.3064
  196POPC   GL2 2837   4.580   5.003   5.429 -0.0358 -0.1282 -0.1342
  196POPC   C1A 2838   4.789   5.421   5.476  0.0029  0.1227  0.0384
  196POPC   D2A 2839   4.780   5.320   5.870 -0.2282  0.1341  0.1009
  196POPC   C3A 2840   4.978   5.592   6.171  0.2795  0.1610 -0.0172
  196POPC   C4A 2841   4.642   5.739   6.468 -0.0063 -0.1859  0.2653
  196POPC   C1B 2842   4.569   4.601   5.678  0.0060  0.3443  0.3734
  196POPC   C2B 2843   4.880   4.326   5.720  0.0427 -0.1221  0.2255
  196POPC   C3B 2844   5.082   4.196   6.025  0.0824  0.0984 -0.0331
  196POPC   C4B 2845   5.132   3.796   6.329 -0.0923 -0.0404 -0.5353
  197POPC   NC3 2846   4.011   8.801   3.604 -0.2008  0.2331 -0.0266
  197POPC   PO4 2847   3.886   9.045   3.940 -0.0561  0.0799  0.1556
  197POPC   GL1 2848   3.581   9.101   4.365  0.5043  0.1141 -0.1504
  197POPC   GL2 2849   3.539   8.801   4.582  0.1096  0.1773 -0.2123
  197POPC   C1A 2850   3.553   9.276   4.812  0.1092  0.0009  0.0066
  197POPC   D2A 2851   3.666   9.459   5.217  0.2041 -0.1215 -0.0598
  197POPC   C3A 2852   4.063   9.393   5.457  0.0544 -0.2501  0.2199
  197POPC   C4A 2853   4.332   9.461   5.860 -0.0483 -0.0962 -0.3583
  197POPC   C1B 2854   3.625   8.729   5.059  0.1673 -0.1790 -0.4110
  197POPC   C2B 2855   3.969   8.940   5.352 -0.1173  0.3153 -0.0786
  197POPC   C3B 2856   4.174   8.973   5.792 -0.0565 -0.0594  0.2150
  197POPC   C4B 2857   4.335   9.049   6.209  0.0587 -0.0576 -0.0068
  198POPC   NC3 2858   5.627   0.940   2.661  0.2664 -0.2047  0.1406
  198POPC   PO4 2859   5.971   0.897   3.005 -0.4419 -0.0613 -0.6370
  198POPC   GL1 2860   5.717   0.852   3.440  0.0064 -0.2464  0.1537
  198POPC   GL2 2861   6.008   0.914   3.717 -0.0203  0.3042  0.1586
  198POPC   C1A 2862   5.394   0.771   3.787  0.0987  0.0270  0.2209
  198POPC   D2A 2863   5.038   0.630   3.999 -0.3168 -0.2067 -0.3135
  198POPC   C3A 2864   5.121   0.567   4.442  0.0480  0.1467  0.2790
  198POPC   C4A 2865   5.071   0.355   4.785  0.0336 -0.3355 -0.1601
  198POPC   C1B 2866   5.801   0.792   4.128 -0.2455  0.1431  0.1041
  198POPC   C2B 2867   5.574   0.481   4.274 -0.0427  0.0146 -0.1980
  198POPC   C3B 2868   5.673   0.181   4.517 -0.0756 -0.0135 -0.0819
  198POPC   C4B 2869   5.661   0.299   4.910  0.0956  0.1332 -0.0629
  199POPC   NC3 2870   6.069   8.248   3.670  0.1274 -0.3510  0.0732
  199POPC   PO4 2871   5.870   8.312   4.030  0.2036 -0.0237 -0.0862
  199POPC   GL1 2872   5.989   8.543   4.315 -0.0171 -0.0590 -0.2574
  199POPC   GL2 2873   6.110   8.354   4.471 -0.0324  0.0376  0.0725
  199POPC   C1A 2874   6.153   8.848   4.629 -0.1439 -0.1350  0.0908
  199POPC   D2A 2875   6.123   9.037   5.051 -0.1282 -0.1685  0.0432
  199POPC   C3A 2876   6.261   9.520   5.138  0.0586 -0.2623 -0.2866
  199POPC   C4A 2877   6.324   9.962   5.291 -0.0013 -0.0458  0.2043
  199POPC   C1B 2878   6.046   8.480   4.920 -0.3443 -0.0952  0.0052
  199POPC   C2B 2879   6.060   8.341   5.370  0.0425  0.2736 -0.1922
  199POPC   C3B 2880   5.693   8.374   5.440  0.1967  0.1714  0.1359
  199POPC   C4B 2881   5.457   8.364   5.180  0.3732 -0.3194 -0.3206
  200POPC   NC3 2882   7.338   7.303   4.802  0.1341  0.0782  0.0770
  200POPC   PO4 2883   7.609   7.031   5.080  0.2561 -0.1755 -0.0504
  200POPC   GL1 2884   7.531   6.975   5.493  0.1286 -0.0583 -0.2776
  200POPC   GL2 2885   7.274   6.771   5.554  0.1641 -0.0344 -0.0444
  200POPC   C1A 2886   7.893   6.951   5.898 -0.4788  0.1228 -0.1766
  200POPC   D2A 2887   7.885   6.977   6.384 -0.2701  0.0585 -0.2223
  200POPC   C3A 2888   8.011   6.621   6.757  0.2211 -0.1741  0.0508
  200POPC   C4A 2889   7.969   6.284   6.992 -0.0186  0.1825  0.1742
  200POPC   C1B 2890   7.470   6.701   6.013  0.1229 -0.1989  0.0870
  200POPC   C2B 2891   7.378   6.769   6.401 -0.1096  0.2787 -0.2139
  200POPC   C3B 2892   7.503   6.845   6.799  0.0293 -0.0809 -0.2051
  200POPC   C4B 2893   7.314   7.179   7.046 -0.1884 -0.1674 -0.2971
  201POPC   NC3 2894   7.933   5.513   5.103 -0.1225 -0.1398  0.2534
  201POPC   PO4 2895   7.845   5.921   5.304 -0.1980 -0.4318 -0.1212
  201POPC   GL1 2896   7.804   5.819   5.764  0.3425  0.1347 -0.0464
  201POPC   GL2 2897   7.533   5.983   5.814  0.1486  0.2439 -0.0906
  201POPC   C1A 2898   7.923   5.893   6.185  0.0954 -0.0449 -0.0496
  201POPC   D2A 2899   7.948   6.166   6.427 -0.3505  0.1089  0.1269
  201POPC   C3A 2900   7.823   6.448   6.248  0.0202  0.1590  0.2003
  201POPC   C4A 2901   7.828   6.405   5.758  0.1492  0.2683 -0.0015
  201POPC   C1B 2902   7.447   6.186   6.190 -0.0718  0.1621  0.1651
  201POPC   C2B 2903   7.505   6.324   6.638  0.2050  0.1100  0.1204
  201POPC   C3B 2904   7.502   6.495   7.116  0.1632  0.1046  0.0656
  201POPC   C4B 2905   7.791   6.829   7.196 -0.2157 -0.5381 -0.2116
  202POPC   NC3 2906   1.962   6.290   4.050  0.2541  0.1704  0.1894
  202POPC   PO4 2907   1.647   6.394   4.467 -0.0675 -0.0919  0.1471
  202POPC   GL1 2908   1.736   6.347   4.846 -0.0141  0.1026  0.2288
  202POPC   GL2 2909   1.861   6.073   4.768 -0.1327 -0.1302 -0.0640
  202POPC   C1A 2910   1.757   6.481   5.213 -0.1493 -0.4344 -0.0354
  202POPC   D2A 2911   1.877   6.692   5.570  0.0085 -0.0638 -0.0876
  202POPC   C3A 2912   1.989   7.185   5.424 -0.1168 -0.1279  0.1206
  202POPC   C4A 2913   2.009   7.593   5.323  0.3446  0.2290 -0.0110
  202POPC   C1B 2914   1.813   5.942   5.277 -0.0736  0.3069 -0.4339
  202POPC   C2B 2915   1.983   5.812   5.707  0.0765 -0.0371 -0.0300
  202POPC   C3B 2916   1.839   5.550   6.028 -0.2384  0.1977  0.0935
  202POPC   C4B 2917   1.569   5.357   6.269  0.0895 -0.1513 -0.2429
  203POPC   NC3 2918   3.116   4.797   4.879 -0.0585 -0.3054 -0.1153
  203POPC   PO4 2919   3.353   4.626   4.700  0.0136 -0.1895  0.0236
  203POPC   GL1 2920   3.543   4.611   5.131 -0.2960 -0.1256  0.0311
  203POPC   GL2 2921   3.554   4.926   5.220  0.1884 -0.1148  0.2138
  203POPC   C1A 2922   3.443   4.396   5.582  0.0627  0.1908 -0.3328
  203POPC   D2A 2923   3.715   4.234   5.936 -0.0371 -0.0783 -0.1728
  203POPC   C3A 2924   4.106   3.972   5.852  0.1957  0.0457  0.1791
  203POPC   C4A 2925   4.449   3.964   5.552 -0.1041 -0.1503  0.1639
  203POPC   C1B 2926   3.437   4.938   5.602 -0.1808  0.1642  0.3713
  203POPC   C2B 2927   3.446   4.833   5.946  0.0592  0.0467  0.2800
  203POPC   C3B 2928   3.831   4.633   6.173 -0.3781  0.0763 -0.2793
  203POPC   C4B 2929   4.109   4.476   6.572  0.1555  0.0638 -0.0031
  204POPC   NC3 2930   4.156   9.612   3.258  0.0689  0.1016 -0.0183
  204POPC   PO4 2931   4.019   9.378   3.599  0.0376  0.1176 -0.3458
  204POPC   GL1 2932   3.988   9.565   3.994  0.1642 -0.0531  0.0372
  204POPC   GL2 2933   3.933   9.465   4.342 -0.0667  0.0794  0.2262
  204POPC   C1A 2934   4.119   9.981   4.198 -0.0997 -0.1383  0.0683
  204POPC   D2A 2935   4.303  10.322   4.149 -0.2201  0.2628  0.2367
  204POPC   C3A 2936   4.715  10.319   4.088 -0.0072  0.1342  0.1732
  204POPC   C4A 2937   5.117  10.110   4.268  0.1035  0.4721 -0.3356
  204POPC   C1B 2938   4.147   9.690   4.611  0.3732 -0.3784 -0.1610
  204POPC   C2B 2939   4.513   9.821   4.872 -0.1359  0.1115 -0.0408
  204POPC   C3B 2940   4.544  10.196   5.064  0.0443 -0.2409 -0.0804
  204POPC   C4B 2941   4.697  10.364   5.361 -0.2985 -0.0568 -0.0434
  205POPC   NC3 2942   5.074   6.946   4.212 -0.4724 -0.1845 -0.0149
  205POPC   PO4 2943   4.709   6.964   4.403 -0.0928 -0.0908  0.0156
  205POPC   GL1 2944   4.565   7.306   4.735  0.1246 -0.1185  0.2578
  205POPC   GL2 2945   4.528   7.114   5.005 -0.1066  0.2980  0.3075
  205POPC   C1A 2946   4.528   7.668   4.974 -0.1161  0.1123 -0.1239
  205POPC   D2A 2947   4.177   7.803   5.209  0.0644  0.0671 -0.0699
  205POPC   C3A 2948   3.794   8.122   5.185  0.2509  0.1333  0.4074
  205POPC   C4A 2949   3.555   8.400   5.494  0.0621 -0.2116  0.1090
  205POPC   C1B 2950   4.512   7.194   5.310  0.0458  0.0585  0.0569
  205POPC   C2B 2951   4.282   7.433   5.606 -0.3264 -0.2717  0.1822
  205POPC   C3B 2952   4.063   7.794   5.793  0.0694  0.0880  0.1030
  205POPC   C4B 2953   3.913   7.846   6.071  0.1095 -0.0235 -0.1652
  206POPC   NC3 2954   4.215   3.443   3.681 -0.1066 -0.1816 -0.2524
  206POPC   PO4 2955   4.309   3.204   4.004  0.0705  0.2391 -0.0110
  206POPC   GL1 2956   4.613   3.035   4.290  0.0663 -0.0865 -0.3312
  206POPC   GL2 2957   4.898   3.117   4.340 -0.2599  0.1427 -0.1537
  206POPC   C1A 2958   4.677   2.884   4.720 -0.0853 -0.0179 -0.2061
  206POPC   D2A 2959   4.770   2.862   5.186 -0.4093  0.2628 -0.0905
  206POPC   C3A 2960   4.763   2.726   5.562 -0.0509  0.3403 -0.6681
  206POPC   C4A 2961   4.763   2.244   5.662  0.0713  0.1154  0.2756
  206POPC   C1B 2962   5.037   3.247   4.817 -0.1660  0.1600 -0.3199
  206POPC   C2B 2963   4.964   3.300   5.227 -0.0968 -0.2733 -0.1816
  206POPC   C3B 2964   4.858   3.218   5.655  0.3517  0.1210 -0.1916
  206POPC   C4B 2965   4.750   3.036   6.043 -0.1134  0.2910  0.0606
  207POPC   NC3 2966   4.315   5.821   4.889 -0.0685 -0.2208 -0.1007
  207POPC   PO4 2967   4.463   6.240   5.074  0.1132  0.0295 -0.1621
  207POPC   GL1 2968   4.673   6.406   5.282 -0.0248 -0.2838 -0.1229
  207POPC   GL2 2969   4.790   6.598   5.182  0.3886 -0.1295 -0.0259
  207POPC   C1A 2970   4.649   6.380   5.686  0.0616  0.2559 -0.1131
  207POPC   D2A 2971   4.626   6.732   5.941 -0.0317 -0.0891  0.0157
  207POPC   C3A 2972   4.549   6.608   6.363 -0.3389  0.1391  0.0172
  207POPC   C4A 2973   4.325   6.853   6.684  0.0843  0.2274 -0.0217
  207POPC   C1B 2974   4.817   6.841   5.504 -0.2404  0.1738  0.0500
  207POPC   C2B 2975   5.003   7.047   5.823 -0.2049  0.3731 -0.1400
  207POPC   C3B 2976   4.872   7.397   6.026  0.1098 -0.1934 -0.0509
  207POPC   C4B 2977   4.422   7.597   6.027 -0.1691  0.2581 -0.2218
  208POPC   NC3 2978   5.976   6.186   4.681 -0.0378 -0.0240 -0.1429
  208POPC   PO4 2979   6.421   6.014   4.611  0.1094 -0.1723  0.2677
  208POPC   GL1 2980   6.316   6.129   5.051  0.0515  0.0067 -0.1096
  208POPC   GL2 2981   6.354   5.934   5.240 -0.1221 -0.2791  0.0654
  208POPC   C1A 2982   6.234   6.434   5.349  0.1314 -0.0177 -0.1716
  208POPC   D2A 2983   6.272   6.711   5.689  0.3334  0.4300 -0.0140
  208POPC   C3A 2984   5.994   6.661   5.980 -0.1327  0.0846 -0.0797
  208POPC   C4A 2985   5.974   6.490   6.326  0.1009  0.0536  0.1276
  208POPC   C1B 2986   6.047   6.028   5.540  0.2464 -0.1047 -0.1782
  208POPC   C2B 2987   5.790   6.291   5.670 -0.1916 -0.4300 -0.2172
  208POPC   C3B 2988   5.572   6.418   5.949  0.0043 -0.3585 -0.0093
  208POPC   C4B 2989   5.529   6.917   6.048  0.1841  0.0300  0.1006
  209POPC   NC3 2990   1.104   6.207   4.306 -0.3158 -0.1231  0.0830
  209POPC   PO4 2991   1.367   5.987   4.571 -0.2036  0.2068  0.1889
  209POPC   GL1 2992   1.273   5.911   5.021  0.1870 -0.1616 -0.1397
  209POPC   GL2 2993   1.280   5.533   5.130  0.1951  0.1460 -0.3163
  209POPC   C1A 2994   0.931   5.894   5.303 -0.2696  0.0080 -0.1602
  209POPC   D2A 2995   0.932   5.542   5.539 -0.2908  0.1251 -0.1314
  209POPC   C3A 2996   1.012   5.594   5.944 -0.1582  0.1439 -0.0385
  209POPC   C4A 2997   0.639   5.493   6.108 -0.2253  0.1844  0.0774
  209POPC   C1B 2998   1.374   5.784   5.510  0.1078 -0.3026 -0.5543
  209POPC   C2B 2999   1.411   5.854   5.933  0.1113  0.1123  0.1480
  209POPC   C3B 3000   1.794   6.082   6.201 -0.2640 -0.2550  0.0241
  209POPC   C4B 3001   2.250   6.043   6.068 -0.3293  0.0752  0.0742
  210POPC   NC3 3002   4.222   5.054   4.503  0.0615  0.0405 -0.0721
  210POPC   PO4 3003   3.910   5.323   4.652  0.2037 -0.0286  0.1336
  210POPC   GL1 3004   3.812   5.489   5.121 -0.2888  0.1263 -0.3948
  210POPC   GL2 3005   4.086   5.580   5.337 -0.0463  0.0644 -0.1081
  210POPC   C1A 3006   3.690   5.319   5.518  0.0664  0.2179  0.0037
  210POPC   D2A 3007   3.934   4.877   5.749  0.5075  0.1993  0.0718
  210POPC   C3A 3008   4.263   4.808   6.013  0.0618  0.2645  0.0564
  210POPC   C4A 3009   4.614   4.954   6.223  0.1119 -0.1086  0.1332
  210POPC   C1B 3010   4.195   5.440   5.730  0.2862  0.0378 -0.3525
  210POPC   C2B 3011   4.277   5.468   6.193  0.3095  0.0894  0.3928
  210POPC   C3B 3012   4.136   5.398   6.691 -0.6364 -0.2402  0.1593
  210POPC   C4B 3013   4.032   5.365   7.187 -0.2377 -0.1690 -0.1808
  211POPC   NC3 3014   3.318  10.385   3.865 -0.0095  0.1318  0.0415
  211POPC   PO4 3015   3.568   9.951   3.907  0.2224  0.1531 -0.5456
  211POPC   GL1 3016   3.576   9.832   4.293 -0.0006  0.0683 -0.1644
  211POPC   GL2 3017   3.443   9.585   4.444 -0.1162  0.1452  0.2008
  211POPC   C1A 3018   3.358  10.113   4.561  0.2121  0.0300 -0.0377
  211POPC   D2A 3019   3.185  10.519   4.427 -0.0271 -0.0666 -0.0698
  211POPC   C3A 3020   2.811  10.632   4.636 -0.1104 -0.1177 -0.4514
  211POPC   C4A 3021   2.632  10.315   4.851 -0.0386  0.2654 -0.1531
  211POPC   C1B 3022   3.581   9.779   4.858  0.5304 -0.3291  0.0001
  211POPC   C2B 3023   3.460  10.118   5.135  0.0752 -0.3599  0.0368
  211POPC   C3B 3024   3.146  10.403   5.102  0.2840  0.0033 -0.0876
  211POPC   C4B 3025   2.889  10.708   5.107  0.2822  0.3194 -0.3363
  212POPC   NC3 3026   9.251   5.154   4.867  0.0803 -0.0002 -0.0093
  212POPC   PO4 3027   9.359   4.742   5.071 -0.2155 -0.1687  0.1499
  212POPC   GL1 3028   8.992   4.830   5.332  0.0492 -0.0386 -0.0008
  212POPC   GL2 3029   8.950   5.158   5.303  0.0928 -0.2027  0.2678
  212POPC   C1A 3030   8.931   4.700   5.754 -0.2076  0.4446 -0.3667
  212POPC   D2A 3031   9.101   4.820   6.121 -0.0072 -0.1216 -0.1877
  212POPC   C3A 3032   9.336   4.710   6.519  0.0838  0.1469  0.2240
  212POPC   C4A 3033   9.206   4.820   6.951 -0.2080 -0.1937 -0.0766
  212POPC   C1B 3034   8.876   5.375   5.645  0.2535 -0.0237 -0.2501
  212POPC   C2B 3035   8.519   5.579   5.921  0.3894 -0.1236  0.2158
  212POPC   C3B 3036   8.328   5.428   6.349  0.3138 -0.2052  0.0041
  212POPC   C4B 3037   8.197   5.365   6.799 -0.3644 -0.2389 -0.2275
  213POPC   NC3 3038   6.855   8.488   3.825  0.1867 -0.1426  0.1393
  213POPC   PO4 3039   6.922   8.844   4.174  0.1149 -0.3133  0.1654
  213POPC   GL1 3040   6.847   8.944   4.649 -0.0386  0.1437 -0.0371
  213POPC   GL2 3041   6.581   8.698   4.797 -0.3120 -0.0042  0.1912
  213POPC   C1A 3042   6.610   9.231   4.947  0.0221 -0.1952  0.3706
  213POPC   D2A 3043   6.790   9.522   5.025 -0.3884 -0.0044 -0.1604
  213POPC   C3A 3044   6.747   9.577   5.443 -0.4141  0.0192 -0.0681
  213POPC   C4A 3045   6.530   9.624   5.849 -0.1967  0.3383 -0.2335
  213POPC   C1B 3046   6.485   8.691   5.256  0.1312  0.1103 -0.1359
  213POPC   C2B 3047   6.272   8.681   5.733  0.2905 -0.0707  0.1542
  213POPC   C3B 3048   6.055   8.844   6.082 -0.1571  0.0252 -0.0102
  213POPC   C4B 3049   5.675   8.930   6.280  0.0517 -0.0490  0.1551
  214POPC   NC3 3050   8.644   9.980   4.990 -0.1057  0.1146 -0.0813
  214POPC   PO4 3051   9.095   9.916   5.018 -0.2441 -0.2058  0.1600
  214POPC   GL1 3052   8.921  10.215   5.381 -0.1268  0.1276  0.0844
  214POPC   GL2 3053   8.873  10.524   5.451 -0.0449  0.3872 -0.0582
  214POPC   C1A 3054   8.604  10.136   5.797 -0.1482 -0.1974 -0.0563
  214POPC   D2A 3055   8.585  10.052   6.219 -0.0850  0.0308  0.5195
  214POPC   C3A 3056   8.601   9.698   6.449  0.0848 -0.1172 -0.0761
  214POPC   C4A 3057   8.627   9.374   6.739 -0.6602 -0.0196  0.4889
  214POPC   C1B 3058   8.817  10.587   5.907  0.1310  0.1821 -0.1614
  214POPC   C2B 3059   9.067  10.614   6.296 -0.0030 -0.1579 -0.1290
  214POPC   C3B 3060   8.981  10.886   6.798  0.1864  0.2587 -0.0064
  214POPC   C4B 3061   8.599  10.841   6.948 -0.0146 -0.1669 -0.1743
  215POPC   NC3 3062   7.473  10.056   4.302  0.5231  0.0027  0.2008
  215POPC   PO4 3063   7.140  10.310   4.463  0.0811  0.0058  0.1227
  215POPC   GL1 3064   6.933  10.420   4.842  0.0667  0.0565 -0.0077
  215POPC   GL2 3065   6.727  10.563   4.676  0.2460  0.0507 -0.1917
  215POPC   C1A 3066   7.042  10.485   5.176  0.1118 -0.0249 -0.0964
  215POPC   D2A 3067   6.860  10.667   5.629  0.0474 -0.0441  0.2440
  215POPC   C3A 3068   6.660  10.387   5.952  0.3031  0.3484 -0.2001
  215POPC   C4A 3069   6.789  10.013   6.076 -0.0320 -0.0067  0.1726
  215POPC   C1B 3070   6.497  10.377   5.099 -0.1676 -0.0654 -0.1145
  215POPC   C2B 3071   6.314  10.459   5.549  0.0918 -0.3641 -0.1548
  215POPC   C3B 3072   6.270  10.069   5.821 -0.1943  0.1884 -0.0482
  215POPC   C4B 3073   6.020   9.768   5.880  0.0465  0.2349  0.1388
  216POPC   NC3 3074   3.360   5.624   4.775 -0.1610 -0.2560  0.0149
  216POPC   PO4 3075   3.442   5.153   4.748 -0.0579 -0.1234  0.0230
  216POPC   GL1 3076   3.225   5.379   5.165  0.0303 -0.1000 -0.0831
  216POPC   GL2 3077   3.087   5.121   5.287 -0.2163  0.0253  0.1290
  216POPC   C1A 3078   3.223   5.443   5.636 -0.1157  0.1659 -0.1852
  216POPC   D2A 3079   3.075   5.459   6.006  0.1131 -0.1038  0.0789
  216POPC   C3A 3080   3.314   5.380   6.384 -0.2894  0.3482  0.0750
  216POPC   C4A 3081   3.372   5.671   6.792 -0.0977  0.0774 -0.0666
  216POPC   C1B 3082   2.956   5.061   5.692 -0.0373  0.1630  0.3078
  216POPC   C2B 3083   2.949   5.006   6.079  0.0989 -0.0989  0.0136
  216POPC   C3B 3084   2.999   4.722   6.356 -0.3598  0.0264 -0.1409
  216POPC   C4B 3085   2.715   4.393   6.372 -0.2156  0.0341 -0.0257
  217POPC   NC3 3086   7.880   2.395   4.353  0.2813  0.2702  0.2534
  217POPC   PO4 3087   8.125   2.190   4.708  0.1849  0.0416 -0.0452
  217POPC   GL1 3088   8.123   2.070   5.171  0.1319  0.0797  0.1438
  217POPC   GL2 3089   7.851   2.182   5.238 -0.2573  0.1124  0.0773
  217POPC   C1A 3090   8.071   1.956   5.588  0.0343  0.0617 -0.0599
  217POPC   D2A 3091   8.005   2.174   5.833 -0.2041 -0.0199 -0.1347
  217POPC   C3A 3092   7.826   2.066   6.208 -0.3821 -0.4144  0.0043
  217POPC   C4A 3093   7.967   1.601   6.349 -0.1454 -0.0184 -0.0075
  217POPC   C1B 3094   8.240   2.439   5.503  0.0993  0.2326  0.1522
  217POPC   C2B 3095   8.281   2.631   5.896 -0.4616 -0.1869  0.0563
  217POPC   C3B 3096   7.978   2.641   6.233 -0.0827 -0.1946 -0.0373
  217POPC   C4B 3097   8.006   2.418   6.634  0.3529 -0.1431  0.2105
  218POPC   NC3 3098   0.592   5.481   3.995 -0.0768  0.2037 -0.1815
  218POPC   PO4 3099   0.584   6.016   4.163  0.0319  0.0102 -0.0320
  218POPC   GL1 3100   0.547   5.993   4.547  0.1438 -0.0260  0.1949
  218POPC   GL2 3101   0.882   6.031   4.680  0.0277  0.0464 -0.0406
  218POPC   C1A 3102   0.423   6.325   4.823 -0.0511  0.2520 -0.3609
  218POPC   D2A 3103   0.357   6.662   5.057 -0.0596 -0.3114 -0.0032
  218POPC   C3A 3104   0.425   6.753   5.493  0.0962 -0.0236  0.0408
  218POPC   C4A 3105   0.761   6.583   5.886 -0.0644 -0.2766  0.1143
  218POPC   C1B 3106   0.927   6.329   5.065 -0.0791 -0.0114 -0.2964
  218POPC   C2B 3107   0.572   6.263   5.394 -0.0397 -0.0449 -0.2495
  218POPC   C3B 3108   0.399   6.332   5.714 -0.0380  0.1025  0.0076
  218POPC   C4B 3109   0.393   6.281   6.080 -0.0124  0.0494  0.0540
  219POPC   NC3 3110   5.245   2.855   4.082  0.2511  0.4023  0.0732
  219POPC   PO4 3111   5.494   3.181   4.378  0.0191  0.0934 -0.1157
  219POPC   GL1 3112   5.560   3.259   4.812 -0.0408  0.0514  0.0472
  219POPC   GL2 3113   5.714   3.509   4.911  0.0837 -0.2363 -0.0358
  219POPC   C1A 3114   5.418   3.250   5.309 -0.2575 -0.2268  0.0055
  219POPC   D2A 3115   5.236   3.529   5.592 -0.4400  0.2291 -0.1323
  219POPC   C3A 3116   5.183   3.405   5.968  0.2514  0.0725 -0.0469
  219POPC   C4A 3117   5.210   3.227   6.307  0.0581  0.1806  0.1887
  219POPC   C1B 3118   6.030   3.497   5.203  0.0756  0.2086 -0.1159
  219POPC   C2B 3119   6.386   3.574   5.480 -0.3130  0.0092  0.0938
  219POPC   C3B 3120   6.339   3.413   5.951 -0.1573 -0.1768  0.1244
  219POPC   C4B 3121   6.293   3.185   6.258  0.0992 -0.2207  0.1006
  220POPC   NC3 3122   6.148   3.062   3.981  0.1706  0.0568  0.3177
  220POPC   PO4 3123   5.782   2.827   4.140  0.1267 -0.1608 -0.3550
  220POPC   GL1 3124   5.628   2.719   4.538 -0.2095  0.2793 -0.2385
  220POPC   GL2 3125   5.189   2.749   4.567 -0.0787 -0.2903 -0.0301
  220POPC   C1A 3126   5.428   2.361   4.677 -0.0131 -0.0931  0.2524
  220POPC   D2A 3127   5.137   2.007   4.555  0.2068  0.3001 -0.2057
  220POPC   C3A 3128   4.863   1.907   4.818 -0.3954 -0.1562  0.0704
  220POPC   C4A 3129   4.534   2.106   5.135  0.3366 -0.1889 -0.2231
  220POPC   C1B 3130   5.319   2.859   4.969  0.1002  0.2520  0.0280
  220POPC   C2B 3131   5.324   2.780   5.443 -0.3220  0.1754  0.1677
  220POPC   C3B 3132   5.375   2.916   5.856 -0.0086  0.4936  0.0797
  220POPC   C4B 3133   5.637   3.082   6.105 -0.1790  0.0745 -0.0956
  221POPC   NC3 3134  10.026   3.601   4.843  0.1774 -0.1269 -0.1365
  221POPC   PO4 3135  10.368   3.625   4.684  0.1499  0.0832 -0.0062
  221POPC   GL1 3136  10.597   3.759   5.033  0.4362  0.0506 -0.1824
  221POPC   GL2 3137  10.741   3.960   4.859 -0.2354 -0.0928  0.2664
  221POPC   C1A 3138  10.668   3.726   5.535  0.1267 -0.0083  0.0011
  221POPC   D2A 3139  10.393   3.901   5.764  0.2198  0.1694 -0.1246
  221POPC   C3A 3140  10.395   3.938   6.168 -0.2714  0.0932  0.0355
  221POPC   C4A 3141  10.417   3.947   6.476  0.1966  0.0659 -0.0880
  221POPC   C1B 3142  10.974   4.079   5.249 -0.0375 -0.2166 -0.2130
  221POPC   C2B 3143  10.986   4.064   5.700 -0.0981  0.1107 -0.3435
  221POPC   C3B 3144  10.903   3.864   6.086  0.0259  0.0396  0.0561
  221POPC   C4B 3145  11.010   3.875   6.542 -0.0115  0.1299 -0.0391
  222POPC   NC3 3146   9.245   8.865   4.235  0.1708  0.2744  0.1371
  222POPC   PO4 3147   9.364   8.875   4.733 -0.0425 -0.0232 -0.2341
  222POPC   GL1 3148   9.460   9.069   5.132 -0.0583  0.1657 -0.2153
  222POPC   GL2 3149   9.206   8.983   5.314  0.2111 -0.3540  0.0289
  222POPC   C1A 3150   9.549   9.238   5.645 -0.2907 -0.1282 -0.1093
  222POPC   D2A 3151   9.798   9.245   5.975 -0.0539 -0.0055 -0.0774
  222POPC   C3A 3152  10.187   9.183   5.991  0.1370 -0.4014  0.3242
  222POPC   C4A 3153  10.566   9.329   5.644  0.0509 -0.0854  0.0097
  222POPC   C1B 3154   9.391   8.666   5.433  0.2014 -0.1715  0.0124
  222POPC   C2B 3155   9.539   8.387   5.819  0.0359  0.0523  0.0607
  222POPC   C3B 3156   9.616   8.490   6.233 -0.4124 -0.1019  0.0791
  222POPC   C4B 3157   9.529   8.619   6.612  0.1147  0.0088 -0.0274
  223POPC   NC3 3158   4.684   0.133   2.755 -0.2979 -0.1039  0.1040
  223POPC   PO4 3159   4.622  -0.006   3.256  0.2928  0.0961  0.0902
  223POPC   GL1 3160   4.843  -0.238   3.601  0.1336 -0.3216  0.0941
  223POPC   GL2 3161   5.242  -0.176   3.553  0.1486 -0.2920 -0.1724
  223POPC   C1A 3162   4.677  -0.657   3.875  0.4262 -0.0604  0.0162
  223POPC   D2A 3163   4.993  -1.017   4.187  0.1181  0.0078  0.0409
  223POPC   C3A 3164   4.916  -0.876   4.599  0.2871  0.0553 -0.0205
  223POPC   C4A 3165   5.019  -0.593   4.880  0.3417  0.1045  0.1644
  223POPC   C1B 3166   5.303  -0.132   3.975 -0.0968 -0.1650  0.2386
  223POPC   C2B 3167   5.234   0.058   4.375 -0.2999 -0.4616  0.0501
  223POPC   C3B 3168   5.326  -0.121   4.792 -0.0843 -0.0035  0.0420
  223POPC   C4B 3169   5.116  -0.010   5.146 -0.1930  0.3729 -0.3924
  224POPC   NC3 3170   2.834   8.189   4.783  0.1528 -0.3361 -0.1405
  224POPC   PO4 3171   2.526   8.096   4.535  0.0701 -0.0815 -0.1377
  224POPC   GL1 3172   2.347   8.127   4.939  0.0930  0.2438 -0.2196
  224POPC   GL2 3173   2.450   8.497   5.111 -0.0247  0.3396 -0.0938
  224POPC   C1A 3174   2.163   8.053   5.348 -0.0067 -0.2334  0.0223
  224POPC   D2A 3175   2.310   8.056   5.764  0.0718  0.1473  0.3710
  224POPC   C3A 3176   2.679   7.763   5.733  0.1084  0.3123 -0.2302
  224POPC   C4A 3177   2.983   7.648   5.497 -0.0062  0.1555 -0.4653
  224POPC   C1B 3178   2.157   8.556   5.505  0.1176  0.1363 -0.1516
  224POPC   C2B 3179   1.941   8.411   5.917  0.1320  0.3416 -0.2102
  224POPC   C3B 3180   2.115   8.511   6.335  0.1258 -0.0993  0.1034
  224POPC   C4B 3181   2.252   8.385   6.747 -0.0354  0.0003  0.1568
  225POPC   NC3 3182   9.083   7.998   4.996  0.3880  0.0794  0.1146
  225POPC   PO4 3183   8.550   7.897   4.877 -0.2143 -0.1595  0.0178
  225POPC   GL1 3184   8.625   8.350   5.099  0.1018  0.0780  0.1097
  225POPC   GL2 3185   8.730   8.205   5.335  0.0462  0.1240  0.3411
  225POPC   C1A 3186   8.888   8.656   5.467 -0.3261  0.1515  0.6167
  225POPC   D2A 3187   9.084   8.685   5.848 -0.1338  0.0606 -0.0468
  225POPC   C3A 3188   9.410   8.919   5.996  0.1629 -0.2586  0.1113
  225POPC   C4A 3189   9.513   9.083   6.341 -0.3301  0.3129 -0.0755
  225POPC   C1B 3190   8.693   8.282   5.700  0.1013  0.1505  0.0141
  225POPC   C2B 3191   8.761   8.047   6.208  0.2160 -0.0686 -0.0413
  225POPC   C3B 3192   8.523   7.643   6.403  0.0886 -0.0970  0.2480
  225POPC   C4B 3193   8.243   7.356   6.562 -0.1321 -0.0742 -0.1363
  226POPC   NC3 3194   5.486   5.434   4.600  0.0145 -0.2128 -0.1275
  226POPC   PO4 3195   5.513   4.948   4.525 -0.0224 -0.1497 -0.1376
  226POPC   GL1 3196   5.590   5.065   4.947 -0.5196  0.2768 -0.2709
  226POPC   GL2 3197   5.801   5.242   5.058 -0.1023 -0.2741  0.0064
  226POPC   C1A 3198   5.544   4.801   5.416  0.1741  0.0949  0.4767
  226POPC   D2A 3199   5.377   4.541   5.755 -0.2099 -0.0331  0.1558
  226POPC   C3A 3200   5.519   4.460   6.186  0.1863 -0.0304 -0.1770
  226POPC   C4A 3201   5.621   4.778   6.395 -0.2749 -0.2080 -0.0390
  226POPC   C1B 3202   6.136   5.373   5.344 -0.2447 -0.0508 -0.0606
  226POPC   C2B 3203   5.944   5.486   5.807  0.1453 -0.2715  0.0162
  226POPC   C3B 3204   6.106   5.513   6.119  0.0477 -0.0896 -0.1494
  226POPC   C4B 3205   6.315   5.831   6.228 -0.1805 -0.1790  0.0117
  227POPC   NC3 3206   0.612   8.923   4.601  0.2236  0.0353  0.0613
  227POPC   PO4 3207   1.099   8.773   4.596 -0.1687 -0.0426 -0.1263
  227POPC   GL1 3208   1.240   8.906   5.024  0.1441 -0.4438 -0.1377
  227POPC   GL2 3209   1.348   8.697   5.189 -0.1388 -0.0352  0.2461
  227POPC   C1A 3210   1.417   9.208   5.316 -0.1062  0.2615  0.2070
  227POPC   D2A 3211   1.324   9.258   5.754  0.0924 -0.2364  0.2009
  227POPC   C3A 3212   1.718   9.429   6.042 -0.0838  0.2809 -0.0510
  227POPC   C4A 3213   2.012   9.526   6.442 -0.0268 -0.0641 -0.0822
  227POPC   C1B 3214   1.387   8.576   5.519  0.1294 -0.1152 -0.3438
  227POPC   C2B 3215   1.244   8.542   5.861  0.2369 -0.3340 -0.3666
  227POPC   C3B 3216   0.983   8.583   6.184 -0.3062  0.0692  0.1490
  227POPC   C4B 3217   0.635   8.845   6.207 -0.0870 -0.1547  0.2763
  228POPC   NC3 3218  10.270   0.548   4.790  0.1295  0.0715  0.2520
  228POPC   PO4 3219  10.364   0.163   4.676  0.0080  0.3038 -0.1256
  228POPC   GL1 3220  10.624   0.213   5.076 -0.0807  0.0006 -0.0397
  228POPC   GL2 3221  10.734   0.017   5.048 -0.2971  0.1606  0.1330
  228POPC   C1A 3222  10.772   0.411   5.401 -0.2320  0.2284 -0.3069
  228POPC   D2A 3223  10.750   0.707   5.674 -0.1080 -0.1070 -0.0324
  228POPC   C3A 3224  10.878   1.024   5.935  0.1090  0.2459 -0.2826
  228POPC   C4A 3225  10.430   1.205   5.901 -0.0408 -0.0665  0.2228
  228POPC   C1B 3226  10.750  -0.209   5.523  0.1121 -0.0216  0.2033
  228POPC   C2B 3227  10.954  -0.312   5.903 -0.4021  0.1602  0.0458
  228POPC   C3B 3228  11.114  -0.311   6.245 -0.0821 -0.3919 -0.0271
  228POPC   C4B 3229  11.347  -0.512   6.520  0.0442  0.1294 -0.1468
  229POPC   NC3 3230   8.784   3.080   4.653  0.0612 -0.0869 -0.1563
  229POPC   PO4 3231   8.868   3.275   4.952 -0.0770 -0.1098  0.0571
  229POPC   GL1 3232   9.122   3.300   5.363  0.1024 -0.0791  0.2811
  229POPC   GL2 3233   9.419   3.348   5.569 -0.0212  0.1045  0.1072
  229POPC   C1A 3234   9.022   3.059   5.644  0.1400 -0.0628 -0.0576
  229POPC   D2A 3235   9.272   2.977   5.953  0.1345  0.1464 -0.0092
  229POPC   C3A 3236   9.177   2.973   6.337 -0.1817  0.0642 -0.1319
  229POPC   C4A 3237   9.247   3.340   6.609 -0.2586 -0.3173 -0.0352
  229POPC   C1B 3238   9.676   3.262   6.014 -0.0214  0.0017  0.2417
  229POPC   C2B 3239   9.695   3.040   6.372  0.2480  0.0158  0.3353
  229POPC   C3B 3240   9.971   2.716   6.479  0.0706  0.0070 -0.0317
  229POPC   C4B 3241  10.227   2.340   6.527 -0.1621  0.2110  0.3439
  230POPC   NC3 3242   0.610   3.120   4.861 -0.1770  0.2051  0.1399
  230POPC   PO4 3243   0.955   2.882   4.787 -0.0422  0.0998 -0.0115
  230POPC   GL1 3244   0.900   2.880   5.184  0.0583 -0.1261 -0.0440
  230POPC   GL2 3245   0.866   3.185   5.267  0.2003  0.0223  0.2096
  230POPC   C1A 3246   1.133   2.696   5.451 -0.2986  0.1394  0.0301
  230POPC   D2A 3247   1.148   2.554   5.906  0.3528  0.1805  0.0523
  230POPC   C3A 3248   1.253   2.727   6.288  0.1695  0.0060 -0.0888
  230POPC   C4A 3249   1.330   2.596   6.697 -0.3612 -0.0650 -0.0368
  230POPC   C1B 3250   0.784   3.029   5.774  0.1242 -0.2724 -0.0319
  230POPC   C2B 3251   0.767   2.826   6.193  0.0057  0.0255  0.1405
  230POPC   C3B 3252   0.880   2.478   6.502  0.0100 -0.1792  0.4179
  230POPC   C4B 3253   0.658   2.131   6.593 -0.2720  0.2723  0.0234
  231POPC   NC3 3254   2.682   5.127   4.374  0.1067 -0.2002 -0.0426
  231POPC   PO4 3255   2.792   4.766   4.533  0.0271 -0.3023  0.3260
  231POPC   GL1 3256   2.596   4.707   5.012  0.3171 -0.0422  0.1932
  231POPC   GL2 3257   2.793   4.603   5.202 -0.0384 -0.2051 -0.1662
  231POPC   C1A 3258   2.547   5.009   5.258 -0.0591 -0.3521 -0.0472
  231POPC   D2A 3259   2.278   5.485   5.417  0.1478  0.1089 -0.0545
  231POPC   C3A 3260   1.765   5.400   5.566 -0.0234  0.0497  0.1681
  231POPC   C4A 3261   1.404   5.333   5.800 -0.0073 -0.0396 -0.3768
  231POPC   C1B 3262   2.927   4.607   5.596 -0.0494 -0.2543  0.1218
  231POPC   C2B 3263   3.101   4.466   5.909  0.1023  0.1565  0.0636
  231POPC   C3B 3264   3.262   4.206   6.251  0.0911 -0.0576 -0.1089
  231POPC   C4B 3265   3.007   4.285   6.739 -0.2074  0.0336 -0.1806
  232POPC   NC3 3266   9.902  10.132   4.405 -0.2914 -0.0368  0.1003
  232POPC   PO4 3267  10.216  10.153   4.646 -0.0719  0.1739 -0.0403
  232POPC   GL1 3268  10.291  10.370   5.044 -0.0048  0.0180 -0.3024
  232POPC   GL2 3269  10.464  10.135   5.142 -0.2939 -0.0623 -0.1879
  232POPC   C1A 3270  10.321  10.673   5.421  0.0942  0.0796  0.0272
  232POPC   D2A 3271  10.516  10.742   5.797  0.0225 -0.4285  0.0403
  232POPC   C3A 3272  10.813  11.079   6.129 -0.1125 -0.0103  0.2591
  232POPC   C4A 3273  11.124  11.404   6.301 -0.1057 -0.0901  0.1151
  232POPC   C1B 3274  10.277  10.136   5.572 -0.0197 -0.2333 -0.3359
  232POPC   C2B 3275  10.466  10.110   5.971 -0.0536 -0.3853  0.0376
  232POPC   C3B 3276  10.541  10.039   6.453 -0.0041  0.1810  0.0180
  232POPC   C4B 3277  10.868   9.965   6.598  0.0427 -0.1423 -0.1389
  233POPC   NC3 3278   2.164   1.331   3.833  0.0213  0.0476  0.2719
  233POPC   PO4 3279   2.701   1.159   3.828 -0.1625 -0.4084 -0.0198
  233POPC   GL1 3280   2.836   1.155   4.224  0.1280  0.0342 -0.2208
  233POPC   GL2 3281   2.667   1.385   4.361  0.0373  0.0761 -0.2632
  233POPC   C1A 3282   2.618   0.841   4.530  0.0583  0.0944 -0.1320
  233POPC   D2A 3283   2.261   0.981   4.874 -0.1282  0.3958 -0.0662
  233POPC   C3A 3284   2.381   1.006   5.329 -0.0953  0.3314 -0.2269
  233POPC   C4A 3285   2.534   0.852   5.679 -0.0262 -0.0288 -0.1205
  233POPC   C1B 3286   2.502   1.390   4.665  0.1799  0.1263  0.3261
  233POPC   C2B 3287   2.716   1.126   4.980  0.0242 -0.2350 -0.2708
  233POPC   C3B 3288   2.901   0.936   5.356  0.1159 -0.1230 -0.3077
  233POPC   C4B 3289   3.163   0.669   5.536 -0.0151 -0.1137 -0.1161
  234POPC   NC3 3290   0.482   7.399   4.379 -0.0116 -0.0860  0.0272
  234POPC   PO4 3291   0.311   7.669   4.744 -0.0898 -0.0967 -0.2887
  234POPC   GL1 3292   0.320   7.790   5.188 -0.1315  0.0832  0.0855
  234POPC   GL2 3293   0.151   7.546   5.359 -0.1235 -0.0036  0.0523
  234POPC   C1A 3294   0.359   7.777   5.677  0.0595  0.0237 -0.4781
  234POPC   D2A 3295   0.258   8.061   6.004 -0.3785  0.0937  0.1350
  234POPC   C3A 3296   0.219   8.443   5.929 -0.0745 -0.0358 -0.0502
  234POPC   C4A 3297   0.037   8.884   6.080 -0.1813  0.3020 -0.3300
  234POPC   C1B 3298   0.490   7.317   5.599 -0.1653 -0.1007 -0.0717
  234POPC   C2B 3299   0.497   6.970   5.991 -0.0596  0.2602  0.2695
  234POPC   C3B 3300   0.515   6.925   6.415  0.1339  0.1351  0.2227
  234POPC   C4B 3301   0.225   7.043   6.687 -0.0438 -0.1613 -0.2273
  235POPC   NC3 3302  10.519   9.731   4.748 -0.1784  0.0539  0.3184
  235POPC   PO4 3303  10.136   9.739   5.011  0.2193 -0.0940 -0.0576
  235POPC   GL1 3304   9.956   9.831   5.358 -0.1083 -0.3043  0.2049
  235POPC   GL2 3305   9.877  10.180   5.191  0.1501  0.2053 -0.1051
  235POPC   C1A 3306   9.781  10.055   5.653 -0.1011 -0.4943 -0.2951
  235POPC   D2A 3307   9.988  10.266   6.041  0.0217 -0.1360 -0.0476
  235POPC   C3A 3308  10.258  10.496   6.243 -0.0949 -0.0381 -0.1642
  235POPC   C4A 3309  10.405  10.626   6.665  0.1195  0.1581 -0.0509
  235POPC   C1B 3310   9.809  10.480   5.482 -0.1257 -0.3270  0.0411
  235POPC   C2B 3311   9.791  10.830   5.854  0.0596 -0.0765  0.4473
  235POPC   C3B 3312   9.813  10.796   6.165  0.0822 -0.0425  0.0781
  235POPC   C4B 3313   9.974  10.803   6.674  0.1053 -0.0121 -0.0702
  236POPC   NC3 3314   9.961   9.624   4.478  0.1682 -0.1218 -0.0952
  236POPC   PO4 3315  10.243   9.319   4.750 -0.4582 -0.1077 -0.0890
  236POPC   GL1 3316  10.334   9.245   5.126 -0.3985 -0.1150 -0.1480
  236POPC   GL2 3317  10.483   9.579   5.254  0.2843 -0.0251 -0.1276
  236POPC   C1A 3318  10.302   8.944   5.543  0.1288  0.1534  0.1782
  236POPC   D2A 3319  10.311   8.589   5.745 -0.0026  0.1909 -0.2596
  236POPC   C3A 3320  10.322   8.424   6.167  0.1683  0.0725  0.1050
  236POPC   C4A 3321  10.385   8.206   6.556 -0.1921 -0.0231  0.1057
  236POPC   C1B 3322  10.926   9.438   5.238 -0.2217  0.1852  0.2655
  236POPC   C2B 3323  11.113   9.067   5.283  0.0537  0.0871  0.3040
  236POPC   C3B 3324  11.355   8.631   5.243 -0.1412 -0.0825  0.1421
  236POPC   C4B 3325  11.584   8.284   5.433  0.1188 -0.0493 -0.2389
  237POPC   NC3 3326   1.615   5.584   4.801  0.1806 -0.4524  0.1396
  237POPC   PO4 3327   2.069   5.600   4.698  0.0042 -0.0383 -0.1659
  237POPC   GL1 3328   2.233   5.873   5.017 -0.3971 -0.1072  0.0655
  237POPC   GL2 3329   2.401   6.051   4.865  0.0045  0.1700  0.0025
  237POPC   C1A 3330   2.558   6.010   5.342  0.1193  0.1711 -0.3212
  237POPC   D2A 3331   2.649   6.204   5.721  0.1421 -0.1309 -0.0723
  237POPC   C3A 3332   2.756   5.940   6.135  0.3049 -0.2284  0.0157
  237POPC   C4A 3333   2.898   5.717   6.510  0.2174  0.1998  0.1010
  237POPC   C1B 3334   2.361   6.426   4.980  0.2378  0.0618 -0.0104
  237POPC   C2B 3335   2.239   6.417   5.362 -0.3489  0.1646 -0.0019
  237POPC   C3B 3336   2.247   6.520   5.814 -0.4765  0.2468 -0.2001
  237POPC   C4B 3337   2.044   6.596   6.098 -0.3524 -0.1969  0.2364
  238POPC   NC3 3338   6.697   3.704   4.496 -0.1883 -0.0455 -0.2634
  238POPC   PO4 3339   7.016   3.899   4.607 -0.2196  0.1594 -0.0256
  238POPC   GL1 3340   7.121   3.781   5.128  0.1232  0.1632 -0.2148
  238POPC   GL2 3341   6.992   3.958   5.309  0.2606 -0.0929  0.0695
  238POPC   C1A 3342   7.450   3.570   5.373 -0.3284  0.1720  0.1672
  238POPC   D2A 3343   7.770   3.283   5.430 -0.2633 -0.1540  0.0987
  238POPC   C3A 3344   7.867   3.581   5.892  0.0157  0.1363  0.0802
  238POPC   C4A 3345   7.942   3.701   6.293 -0.2720 -0.1914 -0.1518
  238POPC   C1B 3346   6.731   3.911   5.634  0.2224  0.0346 -0.0497
  238POPC   C2B 3347   6.476   3.926   5.986 -0.1596 -0.1458 -0.2497
  238POPC   C3B 3348   6.529   3.708   6.351  0.2863  0.3850  0.2439
  238POPC   C4B 3349   6.733   3.458   6.651 -0.0903 -0.1291 -0.2490
  239POPC   NC3 3350  10.512   6.148   3.997 -0.1131  0.0285 -0.1905
  239POPC   PO4 3351  10.351   6.207   4.425  0.1447 -0.2279 -0.1384
  239POPC   GL1 3352  10.494   6.230   4.930  0.0242 -0.2907  0.2373
  239POPC   GL2 3353  10.382   5.813   5.036 -0.0031 -0.1979  0.0138
  239POPC   C1A 3354  10.594   6.399   5.363 -0.0078  0.0317  0.0826
  239POPC   D2A 3355  10.473   6.596   5.656  0.1083 -0.0603  0.2868
  239POPC   C3A 3356  10.635   6.649   6.017 -0.3171  0.2790 -0.1551
  239POPC   C4A 3357  10.558   6.619   6.524 -0.1871  0.1055 -0.0873
  239POPC   C1B 3358  10.791   5.848   5.430 -0.0863  0.1002 -0.4645
  239POPC   C2B 3359  11.099   5.844   5.676 -0.0040  0.1351  0.1196
  239POPC   C3B 3360  11.435   6.095   5.892  0.0317  0.1147  0.2358
  239POPC   C4B 3361  11.721   6.351   6.015 -0.3457  0.0526  0.2425
  240POPC   NC3 3362  10.004   6.984   4.257 -0.0974  0.3798 -0.0436
  240POPC   PO4 3363  10.190   6.855   4.487  0.0876 -0.0615  0.0092
  240POPC   GL1 3364  10.330   6.784   4.906  0.0030 -0.1509  0.0845
  240POPC   GL2 3365  10.110   6.818   5.008  0.1332  0.1245  0.3934
  240POPC   C1A 3366  10.571   6.985   5.281  0.2870 -0.1075  0.0148
  240POPC   D2A 3367  10.518   7.183   5.643  0.0708  0.1091  0.3239
  240POPC   C3A 3368  10.497   7.132   6.169 -0.0773  0.0810  0.1644
  240POPC   C4A 3369  10.218   6.961   6.527  0.1054  0.0043  0.0897
  240POPC   C1B 3370   9.863   6.541   5.233 -0.1067  0.0146  0.3779
  240POPC   C2B 3371   9.574   6.425   5.487  0.4421 -0.3166  0.3775
  240POPC   C3B 3372   9.230   6.498   5.835 -0.2699  0.1677  0.2033
  240POPC   C4B 3373   8.828   6.568   6.069  0.2421  0.1357 -0.2570
  241POPC   NC3 3374   4.173  10.459   3.479  0.1861  0.2020 -0.2012
  241POPC   PO4 3375   3.711  10.447   3.538  0.1539  0.3514  0.4004
  241POPC   GL1 3376   3.885  10.668   3.850  0.2289 -0.0991 -0.1963
  241POPC   GL2 3377   3.718  10.538   4.201 -0.2018  0.1425  0.2349
  241POPC   C1A 3378   4.227  10.831   4.081  0.3110  0.2194 -0.0419
  241POPC   D2A 3379   4.685  10.832   4.132  0.1422 -0.1018 -0.1001
  241POPC   C3A 3380   4.784  10.714   4.435 -0.1774 -0.1000  0.2770
  241POPC   C4A 3381   4.824  10.443   4.743  0.1111  0.0064  0.2663
  241POPC   C1B 3382   3.823  10.305   4.568  0.0588 -0.1327  0.0329
  241POPC   C2B 3383   3.874  10.319   5.013  0.1473  0.0296 -0.1873
  241POPC   C3B 3384   4.213  10.591   5.230  0.2973  0.0963 -0.1880
  241POPC   C4B 3385   4.600  10.773   5.069 -0.0361 -0.1732 -0.0156
  242POPC   NC3 3386   1.594   7.059   3.931 -0.1231 -0.2488  0.0459
  242POPC   PO4 3387   1.377   7.088   4.245 -0.1341  0.0966 -0.1463
  242POPC   GL1 3388   1.293   7.036   4.753  0.0809 -0.0283  0.0415
  242POPC   GL2 3389   1.556   6.858   4.830 -0.1958  0.1240  0.2991
  242POPC   C1A 3390   1.431   7.142   5.279  0.1479 -0.2653  0.1343
  242POPC   D2A 3391   1.600   7.165   5.680 -0.1124 -0.3044 -0.0968
  242POPC   C3A 3392   1.507   7.469   6.040 -0.1130 -0.2044 -0.2658
  242POPC   C4A 3393   1.213   7.717   6.244  0.1158  0.1912 -0.2111
  242POPC   C1B 3394   1.964   6.913   4.998 -0.0597  0.1092 -0.3108
  242POPC   C2B 3395   2.476   6.906   5.116 -0.0920  0.0597  0.2461
  242POPC   C3B 3396   2.342   6.885   5.485 -0.1661  0.4335 -0.0190
  242POPC   C4B 3397   2.442   7.011   5.992 -0.1287  0.0529  0.2387
  243POPC   NC3 3398  10.376   4.201   5.307  0.0239 -0.2471 -0.0696
  243POPC   PO4 3399  10.278   4.644   5.171  0.3020 -0.0129 -0.3507
  243POPC   GL1 3400  10.041   4.696   5.448  0.0146  0.1329 -0.0150
  243POPC   GL2 3401   9.674   4.878   5.431  0.0089 -0.0105  0.1533
  243POPC   C1A 3402   9.922   4.700   5.916 -0.0217  0.0427  0.4052
  243POPC   D2A 3403  10.242   4.576   6.255 -0.0452 -0.1284 -0.3296
  243POPC   C3A 3404  10.569   4.809   6.355 -0.2635 -0.1008 -0.0278
  243POPC   C4A 3405  10.965   4.717   6.670 -0.0158 -0.1417  0.2616
  243POPC   C1B 3406   9.425   4.947   5.768  0.0628 -0.1430 -0.1034
  243POPC   C2B 3407   9.494   5.021   6.202 -0.0474 -0.0829 -0.0591
  243POPC   C3B 3408   9.748   4.910   6.481 -0.2619 -0.2991  0.0029
  243POPC   C4B 3409  10.137   4.951   6.798 -0.3745 -0.0767  0.1152
  244POPC   NC3 3410   7.510   9.672   3.826 -0.1072 -0.0123 -0.1613
  244POPC   PO4 3411   7.560   9.489   4.327 -0.0321  0.2412  0.1798
  244POPC   GL1 3412   7.347   9.631   4.706 -0.1275  0.0094  0.0482
  244POPC   GL2 3413   7.104   9.868   4.766  0.0037  0.0356 -0.1948
  244POPC   C1A 3414   7.315   9.559   5.181 -0.2072  0.1700  0.0551
  244POPC   D2A 3415   7.148   9.288   5.482  0.2507 -0.0416 -0.0449
  244POPC   C3A 3416   7.405   9.160   5.861 -0.0438 -0.0684 -0.1404
  244POPC   C4A 3417   7.430   9.131   6.312 -0.0271  0.0759 -0.0131
  244POPC   C1B 3418   7.381  10.133   5.191  0.0485 -0.1655  0.1321
  244POPC   C2B 3419   7.524  10.175   5.622 -0.0781  0.1830  0.1579
  244POPC   C3B 3420   7.724   9.990   5.999  0.4549 -0.0957  0.1817
  244POPC   C4B 3421   7.697   9.621   6.357  0.1050  0.0686 -0.1471
  245POPC   NC3 3422   6.394   4.562   4.874  0.1161  0.1144 -0.2106
  245POPC   PO4 3423   6.640   4.195   4.943 -0.0728 -0.0536 -0.1125
  245POPC   GL1 3424   6.546   4.335   5.316 -0.1000  0.2807 -0.0632
  245POPC   GL2 3425   6.517   4.694   5.414 -0.2231  0.0549  0.0892
  245POPC   C1A 3426   6.115   4.368   5.613  0.0119 -0.1067  0.3294
  245POPC   D2A 3427   6.083   4.363   5.983 -0.1785 -0.2380  0.0327
  245POPC   C3A 3428   6.140   4.609   6.304  0.2477 -0.0604  0.0063
  245POPC   C4A 3429   6.028   4.535   6.705 -0.1044 -0.2442  0.3108
  245POPC   C1B 3430   6.403   4.704   5.803 -0.0735 -0.0215  0.0975
  245POPC   C2B 3431   6.547   4.444   6.091 -0.6128  0.1628  0.2252
  245POPC   C3B 3432   6.817   4.166   6.248 -0.2239 -0.2900 -0.1915
  245POPC   C4B 3433   6.754   3.993   6.647 -0.0111  0.0975 -0.0048
  246POPC   NC3 3434   5.863   9.477   3.453  0.3268  0.1135 -0.1441
  246POPC   PO4 3435   5.537   9.797   3.481 -0.0951  0.2079 -0.1606
  246POPC   GL1 3436   5.747   9.804   3.926 -0.0702 -0.1096 -0.0997
  246POPC   GL2 3437   5.933   9.596   4.010  0.0655  0.1409 -0.1689
  246POPC   C1A 3438   5.492   9.585   4.214 -0.0922  0.1710  0.0957
  246POPC   D2A 3439   5.378   9.549   4.563  0.0240  0.0272 -0.0150
  246POPC   C3A 3440   5.496   9.800   4.853 -0.3735  0.1046 -0.0325
  246POPC   C4A 3441   5.581  10.128   5.122  0.0445 -0.2121 -0.1119
  246POPC   C1B 3442   5.944   9.728   4.495  0.0786  0.2643  0.2384
  246POPC   C2B 3443   6.030   9.894   4.902  0.2139 -0.0165 -0.2380
  246POPC   C3B 3444   5.856   9.842   5.375  0.0657 -0.0438 -0.4772
  246POPC   C4B 3445   5.623   9.579   5.600 -0.1719  0.1665 -0.2908
  247POPC   NC3 3446   8.629   2.202   4.756 -0.0684 -0.1192  0.1396
  247POPC   PO4 3447   8.934   2.609   4.726  0.2836  0.3279  0.2306
  247POPC   GL1 3448   8.695   2.851   5.067 -0.3249  0.0648 -0.1841
  247POPC   GL2 3449   8.563   2.478   5.183 -0.1026 -0.1711  0.2080
  247POPC   C1A 3450   8.522   2.885   5.528 -0.0765  0.0332  0.0411
  247POPC   D2A 3451   8.595   3.088   5.942 -0.3297  0.3461  0.1283
  247POPC   C3A 3452   8.800   3.236   6.136  0.2684  0.0574 -0.0146
  247POPC   C4A 3453   9.151   3.431   6.072 -0.0306 -0.0155  0.1321
  247POPC   C1B 3454   8.827   2.377   5.570 -0.1060  0.1547  0.3759
  247POPC   C2B 3455   8.547   2.122   5.872 -0.0591  0.0228  0.1351
  247POPC   C3B 3456   8.309   2.160   6.224 -0.1850  0.5710  0.0008
  247POPC   C4B 3457   8.420   1.780   6.499  0.1254 -0.1601 -0.2687
  248POPC   NC3 3458  10.385   2.200   5.154  0.0343 -0.1439  0.0393
  248POPC   PO4 3459  10.688   1.853   5.087 -0.0001  0.0240  0.3227
  248POPC   GL1 3460  10.645   1.743   5.421  0.0600  0.2192  0.0127
  248POPC   GL2 3461  10.973   1.597   5.477 -0.0572 -0.0451 -0.0952
  248POPC   C1A 3462  10.382   1.690   5.812 -0.1756  0.1443  0.0819
  248POPC   D2A 3463  10.372   1.579   6.296 -0.1845  0.2721  0.2493
  248POPC   C3A 3464  10.653   1.295   6.472  0.1004  0.1318 -0.0063
  248POPC   C4A 3465  10.628   0.936   6.350  0.1405 -0.0168 -0.0196
  248POPC   C1B 3466  10.877   1.610   5.965 -0.1112  0.0236 -0.3328
  248POPC   C2B 3467  10.988   1.640   6.369  0.0494 -0.0714  0.1552
  248POPC   C3B 3468  11.045   1.614   6.764  0.2916  0.3476  0.0534
  248POPC   C4B 3469  11.178   1.966   7.084 -0.0624 -0.2927  0.0644
  249POPC   NC3 3470   7.892   0.295   4.102 -0.1255  0.1676  0.0443
  249POPC   PO4 3471   7.593   0.443   4.349 -0.1116  0.1803  0.0719
  249POPC   GL1 3472   7.287   0.222   4.553 -0.1220 -0.4594 -0.0107
  249POPC   GL2 3473   7.393   0.018   4.803 -0.0657  0.2398  0.0295
  249POPC   C1A 3474   7.083   0.389   4.890  0.0470  0.1529 -0.0363
  249POPC   D2A 3475   7.031   0.442   5.309  0.0379 -0.4547 -0.0130
  249POPC   C3A 3476   7.132   0.634   5.757 -0.2603  0.1357 -0.2357
  249POPC   C4A 3477   7.114   0.686   6.188 -0.0978 -0.0437  0.1981
  249POPC   C1B 3478   7.512   0.077   5.205  0.0161  0.1649 -0.3192
  249POPC   C2B 3479   7.375   0.060   5.591  0.0202 -0.3962 -0.0008
  249POPC   C3B 3480   7.491   0.202   5.941  0.1496  0.2961  0.2177
  249POPC   C4B 3481   7.596   0.598   6.192  0.1342  0.0763 -0.0021
  250POPC   NC3 3482   5.148   9.280   2.951  0.0630  0.0662  0.0799
  250POPC   PO4 3483   4.912   9.238   3.381 -0.3874 -0.0592  0.3456
  250POPC   GL1 3484   4.935   9.174   3.809  0.0997 -0.0805  0.2064
  250POPC   GL2 3485   5.178   8.893   3.950  0.2962  0.1465  0.0095
  250POPC   C1A 3486   4.763   9.113   4.250 -0.3134  0.0862 -0.1265
  250POPC   D2A 3487   4.750   8.764   4.483  0.0299 -0.1724 -0.1257
  250POPC   C3A 3488   4.695   8.725   4.905  0.0573 -0.1378 -0.0426
  250POPC   C4A 3489   4.530   8.828   5.245  0.3024  0.0260 -0.1142
  250POPC   C1B 3490   5.208   9.104   4.414  0.1076 -0.3074 -0.0353
  250POPC   C2B 3491   5.293   9.127   4.833 -0.0507 -0.1175 -0.1450
  250POPC   C3B 3492   5.267   9.454   5.184  0.0156  0.2662  0.1055
  250POPC   C4B 3493   5.092   9.537   5.585  0.1649 -0.1025  0.1661
  251POPC   NC3 3494   4.771   3.745   4.544  0.0771 -0.2696  0.1564
  251POPC   PO4 3495   4.938   4.114   4.765 -0.0960 -0.0987  0.0035
  251POPC   GL1 3496   4.621   4.162   5.099  0.0041  0.2146  0.3715
  251POPC   GL2 3497   4.928   4.289   5.248  0.2533 -0.1299  0.1665
  251POPC   C1A 3498   4.297   3.801   5.081 -0.0655 -0.3013  0.1311
  251POPC   D2A 3499   3.930   3.594   4.992 -0.2527  0.0524  0.1606
  251POPC   C3A 3500   3.770   3.155   5.211  0.1587 -0.0613 -0.0058
  251POPC   C4A 3501   3.611   2.903   5.647  0.0240 -0.0191  0.1516
  251POPC   C1B 3502   4.949   4.695   5.303 -0.2510 -0.1362  0.0466
  251POPC   C2B 3503   5.162   5.025   5.529  0.1309 -0.2861 -0.1909
  251POPC   C3B 3504   5.226   5.476   5.673 -0.0387  0.1108  0.2768
  251POPC   C4B 3505   4.977   5.821   5.699 -0.0623  0.1420  0.2002
  252POPC   NC3 3506   1.611   3.541   4.645  0.0053  0.1230 -0.2440
  252POPC   PO4 3507   2.043   3.756   4.504 -0.0826 -0.0846 -0.1941
  252POPC   GL1 3508   2.090   3.539   4.831 -0.0401 -0.0009 -0.2390
  252POPC   GL2 3509   2.178   3.752   5.130  0.1395 -0.0965  0.0575
  252POPC   C1A 3510   2.379   3.304   5.081 -0.0985 -0.2641 -0.1151
  252POPC   D2A 3511   2.499   2.948   5.277  0.3074 -0.4187  0.0706
  252POPC   C3A 3512   2.380   2.935   5.734 -0.1086 -0.0186  0.0433
  252POPC   C4A 3513   2.505   2.812   6.168  0.2652 -0.0215 -0.0624
  252POPC   C1B 3514   2.359   3.408   5.540 -0.1324  0.1361  0.0553
  252POPC   C2B 3515   2.577   3.477   5.896 -0.0503  0.2608 -0.0936
  252POPC   C3B 3516   2.731   3.244   6.149 -0.1654  0.0107 -0.2322
  252POPC   C4B 3517   2.998   3.143   6.561 -0.1622 -0.1138  0.2646
  253POPC   NC3 3518   1.967   4.204   4.467  0.0766 -0.1726  0.0930
  253POPC   PO4 3519   2.069   4.105   4.854 -0.2276 -0.1294 -0.2499
  253POPC   GL1 3520   1.727   3.949   5.111  0.0606 -0.2366  0.0016
  253POPC   GL2 3521   1.685   3.614   5.177 -0.0602  0.2225 -0.0332
  253POPC   C1A 3522   1.512   4.138   5.488 -0.0797 -0.0931 -0.1437
  253POPC   D2A 3523   1.691   3.978   5.896 -0.1238  0.3838 -0.0764
  253POPC   C3A 3524   1.480   4.087   6.294  0.2185  0.4146  0.1473
  253POPC   C4A 3525   1.187   4.384   6.476 -0.2382  0.3295  0.4717
  253POPC   C1B 3526   1.572   3.593   5.628  0.0089  0.2980 -0.1755
  253POPC   C2B 3527   1.674   3.516   6.130  0.2791  0.0157 -0.3485
  253POPC   C3B 3528   1.572   3.642   6.604 -0.2362 -0.1085  0.2150
  253POPC   C4B 3529   1.662   3.662   7.009  0.2399  0.2329  0.1167
  254POPC   NC3 3530   7.603   1.972   4.274 -0.1629  0.1214 -0.0874
  254POPC   PO4 3531   7.391   2.435   4.356  0.1506  0.0564  0.1771
  254POPC   GL1 3532   7.376   2.464   4.761  0.3345  0.2789  0.0464
  254POPC   GL2 3533   7.164   2.617   4.829 -0.1170  0.0239  0.2989
  254POPC   C1A 3534   7.373   2.281   5.146  0.0024  0.0372  0.0622
  254POPC   D2A 3535   7.102   2.442   5.416  0.3162 -0.2679 -0.2499
  254POPC   C3A 3536   7.125   2.548   5.867  0.4128 -0.1396  0.1488
  254POPC   C4A 3537   6.893   2.613   6.287 -0.0382 -0.1055  0.3358
  254POPC   C1B 3538   6.808   2.366   5.015  0.0829 -0.3545 -0.2311
  254POPC   C2B 3539   6.435   2.088   4.966 -0.2100 -0.3460  0.0166
  254POPC   C3B 3540   6.298   1.881   5.360  0.1195  0.0524 -0.1855
  254POPC   C4B 3541   6.461   1.796   5.782  0.2961  0.0372  0.0356
  255POPC   NC3 3542   6.729   7.662   4.159 -0.2956 -0.1486  0.2422
  255POPC   PO4 3543   6.493   7.993   4.352  0.0780  0.0909 -0.1464
  255POPC   GL1 3544   6.413   8.096   4.790  0.4080 -0.0707 -0.2433
  255POPC   GL2 3545   6.703   8.204   4.987 -0.4095  0.2099 -0.1480
  255POPC   C1A 3546   6.414   7.759   5.015 -0.2330 -0.0841 -0.1118
  255POPC   D2A 3547   6.355   7.503   5.455  0.0687  0.0047 -0.0233
  255POPC   C3A 3548   6.665   7.160   5.687 -0.3141 -0.1942  0.0086
  255POPC   C4A 3549   6.774   6.762   5.584  0.0509 -0.1339 -0.2237
  255POPC   C1B 3550   6.463   8.034   5.414  0.1549 -0.2217  0.0009
  255POPC   C2B 3551   6.377   8.164   5.843 -0.3091  0.2349  0.2497
  255POPC   C3B 3552   6.463   8.356   6.198 -0.0832  0.0146 -0.1617
  255POPC   C4B 3553   6.503   8.746   6.412  0.1253  0.0552  0.2351
  256POPC   NC3 3554  10.010   5.848   4.661  0.1069 -0.0255 -0.0989
  256POPC   PO4 3555  10.172   5.439   4.791  0.0993 -0.1389 -0.2907
  256POPC   GL1 3556  10.183   5.164   5.222 -0.3355  0.0420 -0.0164
  256POPC   GL2 3557  10.466   4.963   5.498 -0.0862 -0.1125 -0.0597
  256POPC   C1A 3558   9.954   5.173   5.660 -0.0259 -0.1932 -0.1995
  256POPC   D2A 3559   9.703   5.405   5.926  0.0238 -0.0399 -0.0856
  256POPC   C3A 3560   9.612   5.717   6.261  0.1620  0.1407  0.0357
  256POPC   C4A 3561   9.440   6.031   6.555  0.3182  0.3741 -0.1605
  256POPC   C1B 3562  10.347   4.983   5.908  0.1970  0.3414  0.0175
  256POPC   C2B 3563  10.110   5.160   6.205 -0.0946  0.0303 -0.2056
  256POPC   C3B 3564  10.000   5.454   6.399  0.2342 -0.0476  0.0523
  256POPC   C4B 3565  10.193   5.587   6.736  0.2240  0.2596 -0.0051
  257POPC   NC3 3566   7.833   8.308   4.710 -0.0781 -0.0072  0.2138
  257POPC   PO4 3567   7.629   8.622   4.826 -0.1445 -0.2408  0.3643
  257POPC   GL1 3568   7.441   8.751   5.236 -0.1372  0.1203  0.2557
  257POPC   GL2 3569   7.575   8.940   5.460 -0.0295 -0.1843 -0.2618
  257POPC   C1A 3570   7.049   8.800   5.567  0.0910  0.0851 -0.0466
  257POPC   D2A 3571   6.823   9.154   5.850  0.1104  0.0978  0.0607
  257POPC   C3A 3572   6.491   9.085   6.000  0.0486 -0.2349 -0.1823
  257POPC   C4A 3573   6.171   9.362   6.142  0.2304 -0.2527 -0.0263
  257POPC   C1B 3574   7.828   8.859   5.720  0.1063 -0.2286 -0.1098
  257POPC   C2B 3575   8.257   8.923   5.826  0.3711 -0.1962 -0.1482
  257POPC   C3B 3576   8.570   8.705   5.950  0.0214 -0.1947 -0.1117
  257POPC   C4B 3577   8.761   8.503   6.335 -0.1672  0.1111  0.0465
  258POPC   NC3 3578  10.299   2.676   4.937  0.0263  0.1932 -0.0704
  258POPC   PO4 3579  10.633   2.429   4.719  0.0528  0.0048  0.0876
  258POPC   GL1 3580  10.840   2.354   5.217  0.3431  0.1752  0.0763
  258POPC   GL2 3581  10.695   2.266   5.499 -0.2022 -0.0016 -0.3049
  258POPC   C1A 3582  11.236   2.019   5.509 -0.2409  0.1748 -0.1813
  258POPC   D2A 3583  11.682   1.972   5.713  0.2844  0.0004  0.0996
  258POPC   C3A 3584  11.727   2.116   6.228 -0.1195  0.1810  0.1001
  258POPC   C4A 3585  12.049   2.258   6.371  0.0259 -0.0990  0.0384
  258POPC   C1B 3586  10.658   2.130   5.939 -0.1228 -0.0233  0.0042
  258POPC   C2B 3587  10.663   2.073   6.455  0.1843  0.0173 -0.4481
  258POPC   C3B 3588  10.579   1.701   6.747  0.0709 -0.1630  0.2241
  258POPC   C4B 3589  10.632   1.305   7.009  0.0851  0.0703  0.2548
  259POPC   NC3 3590   4.654   8.731   3.500 -0.2060 -0.0760  0.1783
  259POPC   PO4 3591   4.373   8.449   3.766  0.0690 -0.1566  0.0064
  259POPC   GL1 3592   4.376   8.877   3.945 -0.2742  0.1687 -0.2344
  259POPC   GL2 3593   4.378   9.124   3.796 -0.1208  0.1031  0.3596
  259POPC   C1A 3594   4.310   9.181   4.389 -0.3202  0.4343 -0.1683
  259POPC   D2A 3595   4.545   9.395   4.649  0.0192  0.1330 -0.0078
  259POPC   C3A 3596   4.781   9.204   4.911  0.0650 -0.1086 -0.2481
  259POPC   C4A 3597   4.986   9.035   5.237  0.1854 -0.2304  0.0271
  259POPC   C1B 3598   4.468   9.560   4.128 -0.0030  0.4123 -0.1985
  259POPC   C2B 3599   4.551   9.910   4.353  0.0564 -0.1305 -0.1805
  259POPC   C3B 3600   4.426  10.232   4.622 -0.3158  0.0156 -0.0002
  259POPC   C4B 3601   4.230  10.628   4.716 -0.1183 -0.1183 -0.2530
  260POPC   NC3 3602   2.525   3.859   4.681 -0.1671  0.1889 -0.1916
  260POPC   PO4 3603   2.988   3.722   4.711  0.2748 -0.0152 -0.0183
  260POPC   GL1 3604   2.835   3.969   5.094 -0.0957  0.2950 -0.1755
  260POPC   GL2 3605   2.564   4.149   5.147  0.1415  0.1081  0.0682
  260POPC   C1A 3606   2.834   3.824   5.522  0.4271  0.4721  0.0620
  260POPC   D2A 3607   2.775   4.026   5.945 -0.0103  0.2092  0.1047
  260POPC   C3A 3608   2.988   3.800   6.238  0.2932  0.0560 -0.4361
  260POPC   C4A 3609   3.253   3.577   6.450 -0.4984 -0.2355 -0.2490
  260POPC   C1B 3610   2.381   3.999   5.586  0.1022 -0.1635  0.0853
  260POPC   C2B 3611   2.124   3.682   5.899 -0.3058 -0.0303  0.0058
  260POPC   C3B 3612   2.178   3.407   6.276  0.2484  0.2068  0.0382
  260POPC   C4B 3613   1.862   3.177   6.584 -0.2187 -0.0014  0.0107
  261POPC   NC3 3614   7.862   6.652   4.812 -0.0647  0.1110 -0.1666
  261POPC   PO4 3615   8.194   6.820   5.067  0.2465  0.1232  0.4233
  261POPC   GL1 3616   7.981   7.048   5.435 -0.1313 -0.2406 -0.0923
  261POPC   GL2 3617   8.202   7.192   5.557  0.1291  0.2866 -0.0272
  261POPC   C1A 3618   7.754   7.413   5.727 -0.2043  0.2129  0.5328
  261POPC   D2A 3619   7.340   7.695   5.696  0.1653  0.1573 -0.1553
  261POPC   C3A 3620   7.261   8.171   5.798 -0.0864  0.1445  0.0081
  261POPC   C4A 3621   7.307   8.479   5.975 -0.3312  0.2950  0.1377
  261POPC   C1B 3622   8.471   7.020   5.863  0.0800 -0.2590  0.0230
  261POPC   C2B 3623   8.664   7.141   6.287 -0.2069 -0.0869  0.0524
  261POPC   C3B 3624   8.757   7.354   6.660  0.1261  0.3416  0.0949
  261POPC   C4B 3625   8.716   7.602   6.961  0.0658  0.1354 -0.1565
  262POPC   NC3 3626   9.849   0.742   5.015 -0.3091  0.1432 -0.2542
  262POPC   PO4 3627  10.074   1.062   5.132  0.0383 -0.0390 -0.2752
  262POPC   GL1 3628  10.135   0.978   5.526 -0.3148  0.3467  0.1099
  262POPC   GL2 3629  10.091   0.591   5.587  0.0833  0.0337  0.0909
  262POPC   C1A 3630   9.994   1.042   5.995  0.1710 -0.2741  0.1558
  262POPC   D2A 3631  10.170   1.008   6.377  0.0335 -0.0772  0.2255
  262POPC   C3A 3632  10.165   1.317   6.746 -0.1987 -0.1106  0.1604
  262POPC   C4A 3633  10.172   1.201   7.132 -0.0260  0.3322  0.2690
  262POPC   C1B 3634  10.253   0.679   6.022  0.1607  0.3063  0.0232
  262POPC   C2B 3635  10.364   0.485   6.356  0.1045  0.0417 -0.2111
  262POPC   C3B 3636  10.764   0.485   6.575  0.2229 -0.2079  0.1474
  262POPC   C4B 3637  11.167   0.546   6.711 -0.5657 -0.1282  0.1239
  263POPC   NC3 3638   7.496   3.750   4.674  0.0195  0.2976  0.0600
  263POPC   PO4 3639   7.175   3.461   4.454 -0.0663 -0.0989  0.1526
  263POPC   GL1 3640   6.923   3.347   4.897  0.0898  0.1161 -0.1554
  263POPC   GL2 3641   7.128   3.138   4.845 -0.0756 -0.0148  0.1480
  263POPC   C1A 3642   6.839   3.328   5.334  0.1549  0.3817 -0.1075
  263POPC   D2A 3643   7.096   3.498   5.708 -0.0083 -0.2553 -0.0621
  263POPC   C3A 3644   7.420   3.408   5.906 -0.1576 -0.1731 -0.1202
  263POPC   C4A 3645   7.611   3.359   6.258  0.0879 -0.2272 -0.1156
  263POPC   C1B 3646   7.352   3.100   5.234 -0.1547 -0.0588 -0.0202
  263POPC   C2B 3647   7.489   2.946   5.650 -0.4511 -0.0754  0.1211
  263POPC   C3B 3648   7.377   2.915   6.089  0.2072 -0.2074 -0.0405
  263POPC   C4B 3649   7.166   3.071   6.451  0.1640  0.1454 -0.2527
  264POPC   NC3 3650  10.031   3.953   4.516 -0.5049  0.1966  0.0729
  264POPC   PO4 3651  10.192   4.093   4.844 -0.1256  0.1384  0.2231
  264POPC   GL1 3652   9.931   4.004   5.274  0.0675  0.1637  0.0250
  264POPC   GL2 3653  10.123   3.692   5.381 -0.2946  0.0424  0.2079
  264POPC   C1A 3654   9.958   4.215   5.778 -0.5262  0.1075 -0.3489
  264POPC   D2A 3655  10.373   4.413   5.712 -0.3789  0.0666  0.1660
  264POPC   C3A 3656  10.716   4.429   6.018 -0.0708 -0.0386  0.0276
  264POPC   C4A 3657  10.770   4.326   6.484 -0.0129  0.0437  0.0029
  264POPC   C1B 3658   9.911   3.630   5.700  0.2135  0.3797 -0.0954
  264POPC   C2B 3659  10.076   3.562   6.041  0.0115 -0.1306 -0.1169
  264POPC   C3B 3660  10.017   3.607   6.448 -0.0584 -0.2718 -0.1577
  264POPC   C4B 3661   9.779   3.398   6.785 -0.0777 -0.0902  0.1563
  265POPC   NC3 3662   8.841   6.419   4.410  0.1334 -0.2340  0.0496
  265POPC   PO4 3663   9.237   6.662   4.577  0.3119  0.1095  0.0226
  265POPC   GL1 3664   9.357   6.930   4.873 -0.2272  0.0554  0.1322
  265POPC   GL2 3665   9.612   6.888   5.163  0.1548  0.0596 -0.2321
  265POPC   C1A 3666   9.175   7.005   5.271  0.1342 -0.1631  0.1636
  265POPC   D2A 3667   8.924   7.046   5.610  0.0275 -0.3619  0.3891
  265POPC   C3A 3668   9.051   7.036   6.014 -0.0092  0.1363 -0.1317
  265POPC   C4A 3669   9.236   7.159   6.438  0.0619  0.3032  0.1952
  265POPC   C1B 3670   9.548   6.911   5.598 -0.2416 -0.0929  0.1286
  265POPC   C2B 3671   9.564   7.224   5.894 -0.2256  0.1363 -0.2072
  265POPC   C3B 3672   9.782   7.457   6.323 -0.3674  0.2514 -0.1533
  265POPC   C4B 3673   9.854   7.599   6.731 -0.0641  0.0184  0.0751
  266POPC   NC3 3674   5.369   7.411   4.161 -0.0056  0.0394  0.0623
  266POPC   PO4 3675   5.429   7.621   4.619  0.1482 -0.2662  0.2627
  266POPC   GL1 3676   5.590   7.567   4.974  0.2287 -0.2252 -0.1990
  266POPC   GL2 3677   5.450   7.817   5.067 -0.0308 -0.1885  0.0870
  266POPC   C1A 3678   5.825   7.423   5.335 -0.0684 -0.2177  0.0609
  266POPC   D2A 3679   5.863   7.116   5.722  0.3935 -0.0963  0.1439
  266POPC   C3A 3680   6.204   7.156   5.811  0.1580 -0.4038 -0.3144
  266POPC   C4A 3681   6.425   6.862   6.175  0.2158 -0.3077 -0.2719
  266POPC   C1B 3682   5.437   7.789   5.455 -0.2014 -0.0449 -0.3114
  266POPC   C2B 3683   5.210   7.772   5.894 -0.0371  0.0734 -0.1297
  266POPC   C3B 3684   5.339   7.527   6.322  0.1360 -0.3476  0.0713
  266POPC   C4B 3685   5.319   7.133   6.553  0.0310 -0.0238  0.1370
  267POPC   NC3 3686   0.564   5.498   4.482  0.2147  0.1155  0.0686
  267POPC   PO4 3687   0.360   5.321   4.838 -0.3946  0.2793  0.0019
  267POPC   GL1 3688   0.450   5.371   5.310  0.2630 -0.1473 -0.0331
  267POPC   GL2 3689   0.082   5.375   5.267  0.0435  0.0059 -0.1271
  267POPC   C1A 3690   0.395   5.019   5.736 -0.3446 -0.3901  0.0061
  267POPC   D2A 3691   0.497   4.905   6.115 -0.1243  0.2220  0.4267
  267POPC   C3A 3692   0.451   5.221   6.539 -0.4687 -0.0029  0.0130
  267POPC   C4A 3693   0.724   5.544   6.712  0.2148  0.1666  0.2211
  267POPC   C1B 3694   0.098   5.422   5.685 -0.0973  0.2261 -0.2105
  267POPC   C2B 3695   0.117   5.340   6.054 -0.0427  0.3891 -0.2985
  267POPC   C3B 3696  -0.017   5.336   6.375  0.1549 -0.3879  0.0426
  267POPC   C4B 3697   0.184   5.700   6.605 -0.1000 -0.0486  0.0017
  268POPC   NC3 3698   6.830   2.419   3.821 -0.0138 -0.2558 -0.1192
  268POPC   PO4 3699   6.404   2.260   3.676 -0.0836 -0.0538  0.1083
  268POPC   GL1 3700   6.110   2.245   4.005 -0.1576  0.0785 -0.2040
  268POPC   GL2 3701   5.818   2.339   4.294  0.1765  0.0788  0.4658
  268POPC   C1A 3702   6.029   1.862   4.381  0.0593 -0.1096  0.2675
  268POPC   D2A 3703   6.078   1.691   4.826  0.0967 -0.2447  0.0221
  268POPC   C3A 3704   5.800   1.784   5.205  0.2190 -0.0008 -0.0873
  268POPC   C4A 3705   5.708   1.474   5.448 -0.1224 -0.0121  0.0900
  268POPC   C1B 3706   5.956   2.226   4.775 -0.1065  0.0218 -0.1993
  268POPC   C2B 3707   5.952   2.263   5.280  0.2460 -0.1032  0.0842
  268POPC   C3B 3708   5.568   2.271   5.531  0.0058  0.2370  0.0556
  268POPC   C4B 3709   5.254   2.409   5.756 -0.0107  0.3166  0.0274
  269POPC   NC3 3710   8.870   9.047   4.937  0.2465  0.0265  0.1347
  269POPC   PO4 3711   8.693   9.462   5.006 -0.2031  0.2336  0.1823
  269POPC   GL1 3712   8.860   9.361   5.362 -0.0823  0.2338  0.1872
  269POPC   GL2 3713   8.957   9.705   5.404 -0.0817  0.0507 -0.2804
  269POPC   C1A 3714   8.985   9.178   5.794 -0.1328  0.1190  0.1750
  269POPC   D2A 3715   8.771   9.189   6.170 -0.0343 -0.0522  0.0318
  269POPC   C3A 3716   8.355   9.377   6.193 -0.1052  0.0537  0.1212
  269POPC   C4A 3717   7.847   9.264   5.993 -0.3764 -0.0565  0.0382
  269POPC   C1B 3718   9.171   9.936   5.719 -0.0821 -0.0721 -0.0719
  269POPC   C2B 3719   9.133  10.076   6.098  0.3648 -0.0151 -0.1219
  269POPC   C3B 3720   9.088   9.853   6.506 -0.1615 -0.0384  0.0694
  269POPC   C4B 3721   9.171   9.459   6.647 -0.0504 -0.1416  0.1026
  270POPC   NC3 3722   8.039   3.144   3.957 -0.0011 -0.1190  0.0914
  270POPC   PO4 3723   8.047   3.001   4.449  0.1668  0.2936  0.0355
  270POPC   GL1 3724   7.863   2.861   4.890  0.0970 -0.0350  0.2114
  270POPC   GL2 3725   8.180   2.975   5.189  0.4114  0.1863 -0.1700
  270POPC   C1A 3726   7.696   2.620   5.125 -0.1294 -0.1431  0.0121
  270POPC   D2A 3727   7.631   2.487   5.548 -0.3660 -0.2347  0.0128
  270POPC   C3A 3728   7.605   2.503   6.004  0.0433 -0.0575 -0.1537
  270POPC   C4A 3729   7.361   2.316   6.302 -0.3259  0.0260  0.0437
  270POPC   C1B 3730   7.991   2.903   5.609 -0.1817 -0.0917  0.2217
  270POPC   C2B 3731   7.960   3.107   6.055  0.1545  0.0925  0.0343
  270POPC   C3B 3732   7.766   2.982   6.485 -0.3062  0.2784  0.0215
  270POPC   C4B 3733   7.565   2.613   6.692 -0.1473  0.0689  0.3248
  271POPC   NC3 3734   9.836   1.569   5.098 -0.1120  0.1703 -0.0724
  271POPC   PO4 3735   9.974   1.908   5.117  0.3086  0.0732  0.4683
  271POPC   GL1 3736   9.873   2.255   5.300  0.0625  0.5090 -0.0459
  271POPC   GL2 3737   9.534   2.388   5.428  0.1136  0.2901  0.0942
  271POPC   C1A 3738   9.992   2.492   5.575 -0.0217  0.0401  0.2212
  271POPC   D2A 3739  10.337   2.470   5.785  0.1051  0.3464  0.2376
  271POPC   C3A 3740  10.422   2.647   6.188 -0.2159 -0.2255  0.0605
  271POPC   C4A 3741  10.221   3.064   6.232 -0.2914  0.1431 -0.2395
  271POPC   C1B 3742   9.235   2.529   5.790 -0.0942  0.1679 -0.2244
  271POPC   C2B 3743   8.818   2.677   6.035 -0.0779  0.1071  0.2218
  271POPC   C3B 3744   8.479   2.629   6.349  0.0800 -0.0671 -0.0050
  271POPC   C4B 3745   8.223   2.849   6.648 -0.1040  0.0336 -0.0334
  272POPC   NC3 3746   2.639   7.122   4.131 -0.0519  0.0194  0.3717
  272POPC   PO4 3747   2.824   7.160   4.566 -0.1093  0.0384  0.1511
  272POPC   GL1 3748   2.774   7.324   4.927 -0.0302  0.3291 -0.1679
  272POPC   GL2 3749   2.670   7.715   4.920  0.1329  0.0893 -0.0278
  272POPC   C1A 3750   2.880   7.167   5.380 -0.3354 -0.0718  0.1795
  272POPC   D2A 3751   2.924   7.204   5.882 -0.0881 -0.1493  0.0257
  272POPC   C3A 3752   2.776   7.517   6.255  0.2710  0.2110 -0.1279
  272POPC   C4A 3753   2.683   7.322   6.703  0.4185  0.3117  0.0527
  272POPC   C1B 3754   2.648   7.953   5.308  0.1344 -0.2406 -0.1590
  272POPC   C2B 3755   2.674   8.384   5.555  0.3384  0.0756 -0.0186
  272POPC   C3B 3756   2.702   8.795   5.711  0.1595 -0.3446  0.1900
  272POPC   C4B 3757   2.674   9.197   5.694 -0.3074  0.2330  0.1048
  273POPC   NC3 3758   8.547   7.142   5.166  0.3866  0.0767  0.1989
  273POPC   PO4 3759   8.795   7.473   4.978 -0.0067 -0.3322  0.1777
  273POPC   GL1 3760   8.846   7.665   5.390  0.2073 -0.1816  0.1020
  273POPC   GL2 3761   9.186   7.771   5.424 -0.0184 -0.0738  0.1488
  273POPC   C1A 3762   8.903   7.666   5.864 -0.1296 -0.4242 -0.1844
  273POPC   D2A 3763   9.036   7.645   6.350  0.0897  0.2675 -0.1372
  273POPC   C3A 3764   8.966   7.855   6.679 -0.0946  0.0221  0.2547
  273POPC   C4A 3765   8.644   8.178   6.771 -0.1835  0.1256  0.4121
  273POPC   C1B 3766   9.384   7.751   5.895 -0.0395 -0.1733  0.4161
  273POPC   C2B 3767   9.505   7.862   6.415 -0.2415  0.0191  0.0700
  273POPC   C3B 3768   9.876   8.200   6.644  0.1889  0.1432 -0.1259
  273POPC   C4B 3769  10.085   8.524   6.739 -0.0513  0.3115  0.0820
  274POPC   NC3 3770   7.611   1.930   3.713  0.3227 -0.0550  0.3800
  274POPC   PO4 3771   7.391   1.616   3.911 -0.0344  0.2324  0.1950
  274POPC   GL1 3772   7.236   1.632   4.366 -0.1764  0.0040  0.1229
  274POPC   GL2 3773   7.167   1.968   4.485  0.0317  0.2842 -0.2040
  274POPC   C1A 3774   7.008   1.330   4.487 -0.2764 -0.2653  0.2530
  274POPC   D2A 3775   6.942   1.010   4.614  0.0784  0.0205  0.0847
  274POPC   C3A 3776   6.837   0.851   5.022  0.0850  0.0085 -0.0187
  274POPC   C4A 3777   6.697   0.984   5.447  0.3232 -0.0433 -0.3392
  274POPC   C1B 3778   7.157   1.866   4.958  0.0331 -0.0680 -0.1859
  274POPC   C2B 3779   7.008   1.946   5.349 -0.3542 -0.0572  0.0579
  274POPC   C3B 3780   6.978   1.806   5.834  0.0793  0.0739 -0.0189
  274POPC   C4B 3781   6.945   1.618   6.140  0.0521 -0.2398 -0.0215
  275POPC   NC3 3782   9.527   6.265   4.560 -0.0568 -0.3953  0.1080
  275POPC   PO4 3783   9.578   5.974   4.871  0.0744  0.0641 -0.0174
  275POPC   GL1 3784   9.827   5.680   5.230  0.1677 -0.0123  0.0807
  275POPC   GL2 3785   9.625   5.335   5.246  0.0922  0.1821  0.1206
  275POPC   C1A 3786  10.222   5.598   5.465 -0.0433 -0.1352 -0.2270
  275POPC   D2A 3787  10.215   5.540   5.912  0.1611  0.0693 -0.0235
  275POPC   C3A 3788  10.276   5.810   6.226  0.0483  0.2207  0.0961
  275POPC   C4A 3789  10.449   6.231   6.231  0.1727  0.0620 -0.1111
  275POPC   C1B 3790   9.326   5.492   5.520 -0.0394  0.1914 -0.1811
  275POPC   C2B 3791   9.192   5.432   6.013 -0.2011 -0.1837  0.0806
  275POPC   C3B 3792   9.132   5.606   6.453  0.0012 -0.0983  0.0616
  275POPC   C4B 3793   8.795   5.749   6.663  0.0985  0.2750  0.2864
  276POPC   NC3 3794   3.066   0.785   3.706 -0.1969 -0.2284  0.1584
  276POPC   PO4 3795   3.315   0.793   3.263 -0.1325  0.0746 -0.4273
  276POPC   GL1 3796   3.569   0.790   3.705  0.0685  0.0411  0.1360
  276POPC   GL2 3797   3.778   1.203   3.768  0.1998  0.2874  0.0340
  276POPC   C1A 3798   3.530   0.716   4.195 -0.2100 -0.2244 -0.1348
  276POPC   D2A 3799   3.251   0.434   4.492 -0.0048 -0.0456 -0.2588
  276POPC   C3A 3800   3.399   0.293   4.887  0.0250  0.0833 -0.0321
  276POPC   C4A 3801   3.387   0.164   5.366  0.3840 -0.1848 -0.2118
  276POPC   C1B 3802   4.263   1.222   3.918 -0.0276  0.0061 -0.1657
  276POPC   C2B 3803   4.549   1.335   4.082  0.1016  0.0765  0.1828
  276POPC   C3B 3804   5.037   1.311   4.019  0.1118  0.1057  0.3643
  276POPC   C4B 3805   5.324   1.009   4.249 -0.0435 -0.1765 -0.0400
  277POPC   NC3 3806   3.268   7.401   4.708 -0.1547  0.0297  0.1396
  277POPC   PO4 3807   3.193   7.827   4.926  0.1376 -0.0994 -0.1026
  277POPC   GL1 3808   3.155   8.154   5.143  0.2237 -0.0737 -0.0858
  277POPC   GL2 3809   3.071   8.484   5.129  0.1569  0.1804 -0.0368
  277POPC   C1A 3810   3.075   8.127   5.621 -0.1884  0.1948  0.0037
  277POPC   D2A 3811   3.140   8.009   6.051 -0.1981 -0.0841 -0.1719
  277POPC   C3A 3812   3.472   7.967   6.334 -0.1834  0.3145 -0.1534
  277POPC   C4A 3813   3.795   8.245   6.514  0.1698 -0.2743  0.0089
  277POPC   C1B 3814   3.123   8.618   5.534 -0.0898  0.2474 -0.1301
  277POPC   C2B 3815   2.944   8.480   6.001  0.1538 -0.0292 -0.2251
  277POPC   C3B 3816   2.550   8.334   6.112 -0.0057  0.1675 -0.1056
  277POPC   C4B 3817   2.287   8.008   6.326  0.2201 -0.2138 -0.0042
  278POPC   NC3 3818   6.993   4.515   5.187 -0.1051 -0.0486  0.3254
  278POPC   PO4 3819   7.228   4.777   5.048  0.1188  0.1377 -0.0664
  278POPC   GL1 3820   7.134   4.753   5.630  0.2867 -0.0296  0.2191
  278POPC   GL2 3821   7.041   4.502   5.709 -0.1511 -0.0051  0.0955
  278POPC   C1A 3822   6.832   4.959   5.905 -0.0681 -0.1559  0.0028
  278POPC   D2A 3823   6.576   4.877   6.250 -0.1323 -0.1469 -0.1695
  278POPC   C3A 3824   6.201   5.093   6.316  0.0555  0.6002 -0.3755
  278POPC   C4A 3825   6.159   5.533   6.586 -0.1345  0.0461 -0.2425
  278POPC   C1B 3826   7.510   4.418   5.879  0.0337 -0.0129 -0.1850
  278POPC   C2B 3827   7.948   4.537   6.100 -0.1834 -0.0268  0.2257
  278POPC   C3B 3828   8.113   4.631   6.564 -0.0911 -0.3774  0.3187
  278POPC   C4B 3829   8.389   4.951   6.552 -0.5409 -0.1929 -0.2503
  279POPC   NC3 3830   4.912   6.056   4.108  0.0571 -0.1182  0.0630
  279POPC   PO4 3831   5.100   5.692   4.416 -0.0186  0.1915 -0.0465
  279POPC   GL1 3832   5.269   5.806   4.902 -0.0164 -0.1769 -0.3176
  279POPC   GL2 3833   5.663   5.806   4.867  0.1277  0.0366 -0.1404
  279POPC   C1A 3834   4.975   5.895   5.214  0.1356 -0.1712 -0.0915
  279POPC   D2A 3835   4.545   5.903   5.452 -0.0965 -0.0248 -0.1532
  279POPC   C3A 3836   4.498   5.929   5.886  0.0913 -0.0868  0.2470
  279POPC   C4A 3837   4.093   5.960   5.938  0.2273 -0.2045 -0.0448
  279POPC   C1B 3838   5.492   5.847   5.379 -0.0934  0.3061  0.2310
  279POPC   C2B 3839   5.558   5.879   5.757  0.1066  0.3049 -0.0908
  279POPC   C3B 3840   5.560   5.676   6.153 -0.0386 -0.0234 -0.1353
  279POPC   C4B 3841   5.768   5.321   6.438 -0.1760  0.0338 -0.2184
  280POPC   NC3 3842   3.912   2.591   3.576 -0.0178 -0.2621  0.0666
  280POPC   PO4 3843   3.808   2.909   3.874  0.0675  0.1219  0.0387
  280POPC   GL1 3844   3.638   2.747   4.339 -0.3161 -0.1563 -0.3680
  280POPC   GL2 3845   3.323   2.748   4.432 -0.0725  0.0167 -0.0794
  280POPC   C1A 3846   3.597   2.564   4.786 -0.0290  0.2109 -0.1510
  280POPC   D2A 3847   3.745   2.686   5.147  0.0920  0.1313 -0.0199
  280POPC   C3A 3848   3.682   2.441   5.514 -0.0779 -0.0139  0.0584
  280POPC   C4A 3849   3.945   2.594   5.842 -0.1382  0.5881  0.0006
  280POPC   C1B 3850   3.505   2.305   4.437  0.2527 -0.1568  0.0136
  280POPC   C2B 3851   3.681   2.026   4.893 -0.1106 -0.4369 -0.2996
  280POPC   C3B 3852   3.675   1.526   4.966 -0.2152 -0.2066 -0.2464
  280POPC   C4B 3853   3.435   1.140   5.009 -0.4045  0.0168  0.0246
  281POPC   NC3 3854   0.579   2.092   4.869 -0.2392  0.1755  0.2198
  281POPC   PO4 3855   1.060   1.967   4.904 -0.0055  0.2962  0.0061
  281POPC   GL1 3856   1.002   1.748   5.214  0.1091  0.0587 -0.2690
  281POPC   GL2 3857   1.321   1.492   5.251  0.2930 -0.2155 -0.0659
  281POPC   C1A 3858   0.914   1.535   5.641  0.1477  0.0950 -0.1483
  281POPC   D2A 3859   0.879   1.715   6.078 -0.1036  0.0390 -0.2204
  281POPC   C3A 3860   0.966   1.698   6.550 -0.0235  0.2827 -0.0703
  281POPC   C4A 3861   0.884   1.323   6.827 -0.2365 -0.3345  0.1265
  281POPC   C1B 3862   1.353   1.249   5.577 -0.1228 -0.0138  0.2103
  281POPC   C2B 3863   1.312   1.203   6.081 -0.1154 -0.2405 -0.3115
  281POPC   C3B 3864   1.312   1.339   6.551  0.0658 -0.0476  0.0866
  281POPC   C4B 3865   1.322   1.622   6.940 -0.0350  0.2595 -0.3401
  282POPC   NC3 3866   3.686   6.211   4.384  0.0644 -0.0229  0.1270
  282POPC   PO4 3867   3.898   5.825   4.435 -0.4243  0.0418 -0.3119
  282POPC   GL1 3868   3.812   5.958   4.881 -0.0926 -0.1725  0.4221
  282POPC   GL2 3869   3.522   6.103   4.891  0.2594 -0.1437 -0.0503
  282POPC   C1A 3870   3.789   6.014   5.360 -0.1710 -0.2630  0.0738
  282POPC   D2A 3871   4.154   6.192   5.539  0.2671 -0.0531 -0.1234
  282POPC   C3A 3872   4.218   6.453   5.986  0.1137 -0.1063 -0.3302
  282POPC   C4A 3873   4.054   6.690   6.274  0.2694  0.0714 -0.2637
  282POPC   C1B 3874   3.296   6.318   5.296 -0.2293  0.1345  0.1990
  282POPC   C2B 3875   3.208   6.226   5.615  0.1738 -0.3064 -0.1826
  282POPC   C3B 3876   3.108   6.346   5.920 -0.1506  0.0346 -0.0635
  282POPC   C4B 3877   2.849   6.637   5.947  0.2152  0.2018 -0.0671
  283POPC   NC3 3878   8.393   6.115   5.215 -0.0651 -0.2493  0.1839
  283POPC   PO4 3879   8.735   5.869   5.087  0.0292 -0.1341  0.0364
  283POPC   GL1 3880   8.971   5.981   5.465 -0.1433  0.1191 -0.0728
  283POPC   GL2 3881   9.315   6.032   5.344  0.0738  0.1973 -0.4095
  283POPC   C1A 3882   9.326   5.998   5.877 -0.1534  0.1038 -0.2445
  283POPC   D2A 3883   9.651   6.201   6.111 -0.0771 -0.0861  0.2310
  283POPC   C3A 3884   9.904   5.997   6.529 -0.0466 -0.1493 -0.3120
  283POPC   C4A 3885   9.930   6.133   6.912 -0.0211  0.0675  0.0478
  283POPC   C1B 3886   9.737   5.906   5.657 -0.3290  0.1824  0.2069
  283POPC   C2B 3887  10.066   6.048   5.825  0.2353  0.0348 -0.0502
  283POPC   C3B 3888  10.495   5.927   5.759  0.0395 -0.1128 -0.2317
  283POPC   C4B 3889  10.771   5.806   6.047 -0.0480  0.1455  0.1660
  284POPC   NC3 3890   1.761   2.101   4.376 -0.1753  0.1652 -0.2060
  284POPC   PO4 3891   1.650   1.617   4.477  0.2395  0.0200  0.0297
  284POPC   GL1 3892   1.767   1.945   4.892 -0.1883  0.1194  0.0031
  284POPC   GL2 3893   1.546   1.925   5.171  0.0967 -0.3179 -0.0013
  284POPC   C1A 3894   2.017   2.155   5.278  0.2793 -0.2386  0.2320
  284POPC   D2A 3895   2.245   2.266   5.650 -0.0759  0.1276 -0.3874
  284POPC   C3A 3896   2.126   2.323   6.099 -0.0009 -0.1131 -0.3249
  284POPC   C4A 3897   1.969   2.116   6.481 -0.0325 -0.5495  0.0059
  284POPC   C1B 3898   1.573   1.735   5.641 -0.0131 -0.0845  0.2723
  284POPC   C2B 3899   1.792   1.429   5.899 -0.2362 -0.0336 -0.1860
  284POPC   C3B 3900   1.823   1.277   6.318  0.0377  0.0366  0.0518
  284POPC   C4B 3901   1.976   1.093   6.773  0.1122  0.2942  0.4402
  285POPC   NC3 3902   4.219   7.101   4.249  0.0434  0.0908 -0.1272
  285POPC   PO4 3903   4.158   7.536   4.386 -0.0728  0.1005 -0.2787
  285POPC   GL1 3904   4.065   7.452   4.767  0.1933 -0.1149 -0.0719
  285POPC   GL2 3905   3.748   7.598   4.915  0.2788  0.2653  0.1133
  285POPC   C1A 3906   4.030   7.192   5.169 -0.0233 -0.0137 -0.1760
  285POPC   D2A 3907   3.784   7.014   5.493 -0.0325 -0.2065 -0.3121
  285POPC   C3A 3908   3.794   7.299   5.826  0.1481  0.0646  0.3132
  285POPC   C4A 3909   3.994   7.354   6.189 -0.1631 -0.0034  0.0182
  285POPC   C1B 3910   3.769   7.584   5.435 -0.0875 -0.1406  0.2260
  285POPC   C2B 3911   3.575   7.851   5.751  0.1622 -0.2507  0.0141
  285POPC   C3B 3912   3.541   8.286   5.964 -0.2179 -0.2122 -0.4961
  285POPC   C4B 3913   3.346   8.443   6.298  0.1294  0.0028  0.0244
  286POPC   NC3 3914  10.327   7.701   5.000 -0.0466  0.0646  0.1816
  286POPC   PO4 3915   9.945   7.646   4.996 -0.1306  0.3220 -0.4015
  286POPC   GL1 3916  10.104   7.505   5.442 -0.2215  0.0800  0.1940
  286POPC   GL2 3917  10.103   7.237   5.292 -0.2412  0.0623  0.0928
  286POPC   C1A 3918   9.997   7.414   5.856 -0.2605 -0.3769  0.2857
  286POPC   D2A 3919  10.019   7.035   6.052 -0.1100  0.2672  0.1319
  286POPC   C3A 3920   9.579   6.847   6.203  0.0372  0.0667  0.0172
  286POPC   C4A 3921   9.346   6.485   6.334  0.0228 -0.0986 -0.0417
  286POPC   C1B 3922  10.063   6.882   5.543  0.0918 -0.2245  0.2303
  286POPC   C2B 3923   9.931   6.526   5.809  0.1501  0.2470 -0.0869
  286POPC   C3B 3924   9.998   6.513   6.329  0.1929  0.2014 -0.1999
  286POPC   C4B 3925   9.768   6.567   6.746 -0.0339  0.0931  0.0645
  287POPC   NC3 3926   7.049   2.832   4.346  0.1550 -0.1159  0.0223
  287POPC   PO4 3927   6.567   3.126   4.312  0.1504  0.2786 -0.1357
  287POPC   GL1 3928   6.402   3.209   4.628  0.1252 -0.1427  0.2258
  287POPC   GL2 3929   6.065   3.265   4.655  0.0176  0.0359  0.0790
  287POPC   C1A 3930   6.339   3.161   5.077 -0.1344  0.1306 -0.1294
  287POPC   D2A 3931   6.397   3.091   5.532  0.2272  0.1377 -0.0402
  287POPC   C3A 3932   6.021   3.086   5.686 -0.0483 -0.3321  0.0680
  287POPC   C4A 3933   5.766   3.458   5.788 -0.0104 -0.0956 -0.0215
  287POPC   C1B 3934   5.918   2.855   4.904  0.0714  0.1039  0.0437
  287POPC   C2B 3935   5.949   2.777   5.295 -0.1215 -0.1052  0.1577
  287POPC   C3B 3936   5.789   2.691   5.695  0.1307 -0.0660 -0.2708
  287POPC   C4B 3937   5.919   2.692   6.032 -0.1458 -0.0382  0.0441
  288POPC   NC3 3938   3.088   8.801   4.388 -0.0507 -0.0027 -0.0595
  288POPC   PO4 3939   3.111   9.203   4.297  0.3005 -0.1124  0.1807
  288POPC   GL1 3940   3.000   9.319   4.601  0.2622  0.0125  0.0520
  288POPC   GL2 3941   2.626   9.260   4.617  0.0587 -0.0135  0.0983
  288POPC   C1A 3942   3.063   9.432   4.982 -0.2735 -0.2658 -0.0561
  288POPC   D2A 3943   3.231   9.644   5.375 -0.2683  0.0443 -0.3410
  288POPC   C3A 3944   3.167   9.298   5.801  0.2001  0.1530  0.1357
  288POPC   C4A 3945   3.152   8.957   5.991 -0.0255  0.1201 -0.0556
  288POPC   C1B 3946   2.589   9.526   4.880  0.1704 -0.1215  0.4026
  288POPC   C2B 3947   2.692   9.617   5.323  0.0240  0.2025  0.2140
  288POPC   C3B 3948   2.845   9.695   5.744  0.1789 -0.0813  0.0870
  288POPC   C4B 3949   3.022   9.600   6.232  0.0833 -0.2613 -0.0529
  289POPC   NC3 3950   8.189   8.123   5.093  0.2102  0.1991  0.2933
  289POPC   PO4 3951   8.012   7.864   4.901 -0.1678 -0.3900 -0.0872
  289POPC   GL1 3952   8.067   7.744   5.339 -0.2323 -0.0774  0.1820
  289POPC   GL2 3953   8.374   7.578   5.287  0.4145  0.0033 -0.1019
  289POPC   C1A 3954   8.238   7.919   5.685 -0.1158 -0.2093 -0.0821
  289POPC   D2A 3955   8.221   7.955   6.104  0.4082  0.0625  0.0196
  289POPC   C3A 3956   8.198   8.233   6.429  0.0433 -0.0892  0.1401
  289POPC   C4A 3957   8.027   8.604   6.601 -0.1114  0.0691 -0.1085
  289POPC   C1B 3958   8.479   7.519   5.731 -0.2596 -0.0944 -0.1046
  289POPC   C2B 3959   8.183   7.492   6.047  0.0555  0.3348 -0.1597
  289POPC   C3B 3960   7.835   7.500   6.266 -0.3701  0.1620 -0.1276
  289POPC   C4B 3961   7.634   7.875   6.511 -0.0498 -0.1572  0.0823
  290POPC   NC3 3962   9.174   4.375   4.797  0.1505  0.2986  0.0025
  290POPC   PO4 3963   8.714   4.666   4.890  0.1817  0.2693  0.0762
  290POPC   GL1 3964   8.623   4.477   5.276  0.1223  0.3908  0.4189
  290POPC   GL2 3965   8.817   4.222   5.191 -0.2356  0.0560 -0.0771
  290POPC   C1A 3966   8.402   4.380   5.735 -0.0903  0.6020 -0.1199
  290POPC   D2A 3967   8.645   4.445   6.101 -0.0348 -0.0906 -0.1723
  290POPC   C3A 3968   8.459   4.245   6.503  0.2270 -0.3081  0.0320
  290POPC   C4A 3969   8.552   3.859   6.506  0.3078 -0.0310  0.2680
  290POPC   C1B 3970   8.860   4.183   5.570  0.2381  0.1155  0.2125
  290POPC   C2B 3971   9.105   4.192   5.970  0.0879  0.0679 -0.3350
  290POPC   C3B 3972   8.995   4.380   6.378  0.2371  0.1044 -0.3769
  290POPC   C4B 3973   8.829   4.668   6.554  0.1643  0.1565 -0.2423
  291POPC   NC3 3974   4.076   7.868   4.076 -0.2509 -0.3263 -0.3115
  291POPC   PO4 3975   3.812   8.139   4.399  0.0924 -0.0812  0.2692
  291POPC   GL1 3976   3.993   8.443   4.721  0.1413  0.0255  0.0303
  291POPC   GL2 3977   4.309   8.510   4.737 -0.1208 -0.0364 -0.0893
  291POPC   C1A 3978   4.105   8.504   5.173  0.1453 -0.2958  0.4091
  291POPC   D2A 3979   4.170   8.200   5.542  0.0348 -0.0085  0.1487
  291POPC   C3A 3980   4.332   8.151   6.056  0.1045 -0.2483  0.5519
  291POPC   C4A 3981   4.323   7.863   6.421 -0.3558 -0.0625 -0.3395
  291POPC   C1B 3982   4.218   8.877   4.799  0.2176 -0.3195  0.0304
  291POPC   C2B 3983   4.152   9.201   4.939  0.0713 -0.1437  0.0062
  291POPC   C3B 3984   4.484   9.295   5.283 -0.1359  0.0074 -0.1785
  291POPC   C4B 3985   4.711   9.151   5.637 -0.2143  0.0094 -0.2860
  292POPC   NC3 3986   2.777   2.000   3.607  0.2316  0.0385 -0.2160
  292POPC   PO4 3987   3.124   2.173   3.918  0.1680 -0.0923 -0.1773
  292POPC   GL1 3988   3.171   1.955   4.317  0.0792 -0.1199  0.1957
  292POPC   GL2 3989   2.918   1.887   4.351  0.0063  0.2252  0.1188
  292POPC   C1A 3990   3.578   1.793   4.484  0.0632  0.1690  0.1459
  292POPC   D2A 3991   4.027   2.012   4.527 -0.0853 -0.1525  0.1081
  292POPC   C3A 3992   4.064   2.261   4.826 -0.3743 -0.0781 -0.0722
  292POPC   C4A 3993   4.215   2.592   4.877  0.0753  0.0060  0.1340
  292POPC   C1B 3994   2.733   1.801   4.823 -0.1830 -0.0742  0.0430
  292POPC   C2B 3995   2.840   2.088   5.144  0.1582  0.0532  0.1539
  292POPC   C3B 3996   2.720   2.146   5.600 -0.0642 -0.0240  0.2045
  292POPC   C4B 3997   2.589   2.415   5.927  0.2383  0.0561  0.2681
  293POPC   NC3 3998   5.477   6.673   4.540 -0.1609  0.1294  0.0021
  293POPC   PO4 3999   5.637   6.579   4.843  0.2334 -0.0114 -0.1194
  293POPC   GL1 4000   5.388   6.742   5.166 -0.1147  0.1470  0.0169
  293POPC   GL2 4001   5.241   6.477   5.259 -0.1227 -0.1366  0.0191
  293POPC   C1A 4002   5.375   6.807   5.599  0.1170 -0.4211  0.0642
  293POPC   D2A 4003   5.089   6.544   5.950  0.2924  0.3170  0.3376
  293POPC   C3A 4004   5.152   6.664   6.416 -0.1128 -0.0551  0.1238
  293POPC   C4A 4005   4.914   6.716   6.744  0.0201 -0.0279 -0.0989
  293POPC   C1B 4006   5.158   6.258   5.537  0.0125  0.1451  0.3444
  293POPC   C2B 4007   5.258   6.062   6.060  0.2245  0.0443 -0.0035
  293POPC   C3B 4008   5.240   5.914   6.432  0.2889  0.2949 -0.0220
  293POPC   C4B 4009   5.317   5.499   6.587  0.3980 -0.0958 -0.0040
  294POPC   NC3 4010   1.655  10.283   4.263 -0.3833  0.0964  0.0846
  294POPC   PO4 4011   1.944  10.048   4.219 -0.4195 -0.3268  0.0433
  294POPC   GL1 4012   1.840   9.929   4.736 -0.0626  0.2240  0.0997
  294POPC   GL2 4013   1.482   9.863   4.782  0.1658 -0.0781 -0.0554
  294POPC   C1A 4014   1.817  10.154   5.239 -0.2189 -0.2599  0.1258
  294POPC   D2A 4015   1.990  10.378   5.601  0.0057 -0.0040 -0.2237
  294POPC   C3A 4016   1.978  10.331   5.949  0.2887 -0.2294 -0.1133
  294POPC   C4A 4017   2.312  10.384   6.336  0.1659 -0.2785  0.1352
  294POPC   C1B 4018   1.235   9.565   5.065 -0.0669 -0.1811  0.0458
  294POPC   C2B 4019   1.267   9.659   5.434  0.2685  0.2430 -0.2910
  294POPC   C3B 4020   1.338   9.751   5.826 -0.0796  0.3160  0.2095
  294POPC   C4B 4021   1.238   9.952   6.186 -0.1283 -0.1176  0.0766
  295POPC   NC3 4022   9.263   0.776   4.841  0.0889 -0.0808  0.0749
  295POPC   PO4 4023   9.406   0.350   4.889 -0.0685  0.0405 -0.0345
  295POPC   GL1 4024   9.413   0.340   5.394 -0.2417  0.0618 -0.1950
  295POPC   GL2 4025   9.176   0.472   5.543  0.4058  0.1055  0.0306
  295POPC   C1A 4026   9.346   0.006   5.646  0.2115 -0.0147  0.1755
  295POPC   D2A 4027   9.513  -0.128   6.023 -0.0854 -0.2555 -0.2693
  295POPC   C3A 4028   9.636  -0.529   6.263 -0.0357 -0.2650 -0.0325
  295POPC   C4A 4029   9.675  -0.955   6.416  0.0546  0.1613 -0.0591
  295POPC   C1B 4030   9.172   0.453   5.887 -0.0692 -0.2285  0.2819
  295POPC   C2B 4031   9.126   0.569   6.305  0.1260 -0.1921  0.0575
  295POPC   C3B 4032   9.207   0.780   6.748 -0.2642 -0.4232  0.2001
  295POPC   C4B 4033   9.194   0.664   7.239  0.0890  0.0046 -0.0866
  296POPC   NC3 4034   8.264   9.219   4.898 -0.3654 -0.1401 -0.2151
  296POPC   PO4 4035   7.928   8.895   5.051 -0.2360 -0.3502  0.0080
  296POPC   GL1 4036   8.006   8.595   5.299  0.0539 -0.0743 -0.0021
  296POPC   GL2 4037   8.246   8.507   5.562  0.3568  0.3540 -0.1445
  296POPC   C1A 4038   7.778   8.324   5.666  0.1589 -0.0015  0.2160
  296POPC   D2A 4039   7.714   7.931   5.898 -0.2435  0.0220 -0.0021
  296POPC   C3A 4040   7.362   7.815   6.134 -0.1646 -0.1797 -0.0383
  296POPC   C4A 4041   7.067   7.803   6.381  0.2567  0.0554 -0.0856
  296POPC   C1B 4042   8.119   8.491   5.982 -0.2416  0.2691 -0.0543
  296POPC   C2B 4043   7.781   8.326   6.256  0.1553 -0.0821  0.2429
  296POPC   C3B 4044   7.441   8.356   6.555 -0.0737  0.2250  0.2730
  296POPC   C4B 4045   7.118   8.633   6.625  0.1122  0.1755 -0.3314
  297POPC   NC3 4046   6.777   5.781   4.311  0.0577  0.1870  0.2007
  297POPC   PO4 4047   7.170   5.740   4.541 -0.2218 -0.2944  0.1048
  297POPC   GL1 4048   7.057   5.744   4.957  0.1118 -0.1626  0.1834
  297POPC   GL2 4049   6.780   5.942   4.952 -0.1625  0.0381 -0.0133
  297POPC   C1A 4050   6.744   5.650   5.322  0.2858  0.0970 -0.3674
  297POPC   D2A 4051   6.519   5.709   5.770  0.0374  0.1803 -0.0227
  297POPC   C3A 4052   6.738   6.028   6.089  0.2428 -0.0200 -0.1691
  297POPC   C4A 4053   7.008   6.298   6.419 -0.0664 -0.1545 -0.0968
  297POPC   C1B 4054   6.837   6.200   5.249  0.0350 -0.0646 -0.1410
  297POPC   C2B 4055   6.681   6.129   5.613  0.0323 -0.2684  0.0493
  297POPC   C3B 4056   6.323   6.247   5.890 -0.1031  0.1514  0.1886
  297POPC   C4B 4057   5.919   6.041   6.075  0.0143  0.0079  0.1906
  298POPC   NC3 4058   8.088   0.691   5.002  0.2973  0.2336  0.1927
  298POPC   PO4 4059   8.278   0.938   5.246  0.1529 -0.2323 -0.0099
  298POPC   GL1 4060   8.520   1.053   5.643  0.0228 -0.1553 -0.0573
  298POPC   GL2 4061   8.454   0.802   5.775 -0.0118 -0.1192 -0.2472
  298POPC   C1A 4062   8.390   1.279   6.060  0.1715  0.2744 -0.1241
  298POPC   D2A 4063   8.301   1.293   6.541  0.3037 -0.1368  0.2166
  298POPC   C3A 4064   8.616   1.404   6.794  0.0948  0.2361 -0.3790
  298POPC   C4A 4065   8.940   1.743   6.692 -0.1867  0.0758 -0.1299
  298POPC   C1B 4066   8.654   0.466   5.980  0.0086  0.2364  0.0300
  298POPC   C2B 4067   8.573   0.417   6.448 -0.1078 -0.1261 -0.1866
  298POPC   C3B 4068   8.312   0.721   6.793 -0.1264 -0.1249  0.0476
  298POPC   C4B 4069   8.371   1.109   7.149  0.1450  0.3465 -0.0888
  299POPC   NC3 4070   3.667   1.987   3.194  0.0050 -0.2132 -0.0528
  299POPC   PO4 4071   4.007   2.124   3.378  0.0848  0.1423  0.0350
  299POPC   GL1 4072   4.073   2.049   3.876 -0.2964 -0.0916  0.1017
  299POPC   GL2 4073   3.777   1.993   4.063 -0.0024  0.1803 -0.0570
  299POPC   C1A 4074   4.061   1.650   4.186  0.1452 -0.0529 -0.1697
  299POPC   D2A 4075   3.881   1.228   4.307  0.0914 -0.0924 -0.0066
  299POPC   C3A 4076   3.595   1.282   4.521  0.1334 -0.0269  0.1026
  299POPC   C4A 4077   3.203   1.464   4.495 -0.0371  0.0360 -0.1765
  299POPC   C1B 4078   3.526   1.624   4.029 -0.1158 -0.1019  0.0611
  299POPC   C2B 4079   3.335   1.186   4.130  0.0080 -0.0466 -0.1059
  299POPC   C3B 4080   3.178   0.949   4.591  0.0151  0.0096 -0.0109
  299POPC   C4B 4081   3.098   0.676   4.988  0.4898  0.1890 -0.2324
  300POPC   NC3 4082   1.696   7.878   4.378 -0.0423  0.1581  0.0179
  300POPC   PO4 4083   1.754   7.390   4.312  0.1948  0.2153  0.3379
  300POPC   GL1 4084   1.917   7.264   4.681  0.2900 -0.0468 -0.1407
  300POPC   GL2 4085   1.691   7.374   4.935  0.0239  0.0299  0.1246
  300POPC   C1A 4086   2.257   7.307   4.996 -0.0736 -0.3151 -0.2969
  300POPC   D2A 4087   2.439   7.390   5.398  0.0849 -0.0250 -0.1284
  300POPC   C3A 4088   2.272   7.425   5.787  0.0506 -0.2331  0.0234
  300POPC   C4A 4089   1.924   7.717   5.956  0.1576 -0.0612 -0.2709
  300POPC   C1B 4090   1.429   7.584   5.173 -0.0245 -0.2459  0.0003
  300POPC   C2B 4091   1.361   7.626   5.503  0.2269  0.1635 -0.2814
  300POPC   C3B 4092   1.045   7.338   5.878  0.0815 -0.1897  0.0413
  300POPC   C4B 4093   0.934   7.083   6.205 -0.2688  0.0168 -0.0593
  301POPC   NC3 4094   4.592   6.627   4.767 -0.2552 -0.0862  0.2229
  301POPC   PO4 4095   4.987   6.900   4.785  0.1609 -0.2651 -0.0546
  301POPC   GL1 4096   5.037   7.138   5.095  0.1330  0.1874  0.1775
  301POPC   GL2 4097   5.329   7.210   5.298  0.2471  0.0633 -0.0343
  301POPC   C1A 4098   4.926   7.422   5.461  0.4718  0.2705  0.0657
  301POPC   D2A 4099   4.591   7.780   5.589 -0.3432 -0.0694 -0.1133
  301POPC   C3A 4100   4.755   7.994   5.969  0.2549  0.0588  0.2572
  301POPC   C4A 4101   4.826   8.298   6.203  0.0464 -0.0856 -0.3569
  301POPC   C1B 4102   5.448   7.374   5.760  0.0423  0.2900  0.1114
  301POPC   C2B 4103   5.781   7.311   6.245 -0.1215 -0.0507  0.2742
  301POPC   C3B 4104   5.900   7.012   6.647  0.1117  0.2029  0.2894
  301POPC   C4B 4105   5.822   7.086   7.121  0.1658  0.0604 -0.1641
  302POPC   NC3 4106   9.752   7.727   4.571 -0.0382  0.3712 -0.0279
  302POPC   PO4 4107   9.422   7.842   4.651  0.1081 -0.1259 -0.0435
  302POPC   GL1 4108   9.582   7.904   5.132  0.0427 -0.4310 -0.1247
  302POPC   GL2 4109   9.449   8.194   5.294  0.0181 -0.1755  0.1901
  302POPC   C1A 4110   9.795   7.881   5.554  0.0346 -0.1578  0.1578
  302POPC   D2A 4111   9.800   8.068   6.049 -0.3223  0.2664  0.1951
  302POPC   C3A 4112  10.086   7.838   6.224  0.0566  0.2715  0.1861
  302POPC   C4A 4113  10.288   7.467   6.460  0.0222 -0.0998  0.5735
  302POPC   C1B 4114   9.130   8.220   5.651 -0.2192  0.0646  0.0772
  302POPC   C2B 4115   9.193   8.156   6.084  0.0136 -0.1086  0.1470
  302POPC   C3B 4116   9.189   8.309   6.557 -0.0895  0.1265  0.1054
  302POPC   C4B 4117   9.062   8.487   6.945  0.0890 -0.3281  0.3968
  303POPC   NC3 4118   2.970   3.368   4.304  0.2668 -0.1260 -0.2345
  303POPC   PO4 4119   3.250   3.207   4.694  0.0867 -0.1754  0.2863
  303POPC   GL1 4120   3.245   2.868   4.966 -0.0922 -0.0552 -0.0752
  303POPC   GL2 4121   2.862   2.691   5.060  0.3021 -0.1167 -0.1205
  303POPC   C1A 4122   3.230   2.983   5.403  0.0173 -0.0748  0.0127
  303POPC   D2A 4123   2.896   3.139   5.677 -0.0212  0.0793  0.0568
  303POPC   C3A 4124   3.020   2.847   6.029  0.1663  0.0064  0.0942
  303POPC   C4A 4125   3.396   2.749   6.371  0.2076 -0.0078 -0.1864
  303POPC   C1B 4126   2.779   2.639   5.476 -0.1170  0.2094  0.0371
  303POPC   C2B 4127   3.085   2.405   5.766 -0.0284 -0.1660 -0.0942
  303POPC   C3B 4128   3.423   2.420   5.913 -0.1666 -0.2384  0.0920
  303POPC   C4B 4129   3.748   2.231   6.140  0.0329  0.1063 -0.1887
  304POPC   NC3 4130   7.490   8.003   4.107  0.0782  0.2562 -0.1762
  304POPC   PO4 4131   7.361   8.268   4.462  0.0028 -0.2955 -0.1354
  304POPC   GL1 4132   7.167   8.316   4.880  0.1251  0.0422  0.1106
  304POPC   GL2 4133   7.119   8.594   4.876  0.1599  0.1075 -0.3179
  304POPC   C1A 4134   7.046   8.343   5.353  0.1366 -0.1540 -0.0906
  304POPC   D2A 4135   6.780   8.403   5.658 -0.0747  0.2041  0.0434
  304POPC   C3A 4136   6.791   8.693   5.974  0.1032  0.1252  0.2348
  304POPC   C4A 4137   6.994   8.875   6.220  0.2068 -0.0058  0.0887
  304POPC   C1B 4138   6.940   8.944   5.126  0.1142 -0.1553 -0.0285
  304POPC   C2B 4139   6.604   9.115   5.456 -0.1404  0.1271 -0.2208
  304POPC   C3B 4140   6.173   9.286   5.622 -0.1896 -0.0878 -0.0381
  304POPC   C4B 4141   5.780   9.149   5.819 -0.0907 -0.1480  0.3142
  305POPC   NC3 4142   8.906   0.445   5.108 -0.1715  0.1348 -0.0850
  305POPC   PO4 4143   8.767   0.777   5.014  0.4269  0.2330 -0.0197
  305POPC   GL1 4144   8.923   0.885   5.426 -0.0033  0.1844  0.0241
  305POPC   GL2 4145   8.991   1.202   5.471 -0.2246  0.0092 -0.1684
  305POPC   C1A 4146   8.970   0.924   5.856 -0.2326  0.1829 -0.1707
  305POPC   D2A 4147   8.655   0.881   6.227 -0.3277  0.1361  0.2583
  305POPC   C3A 4148   8.784   0.898   6.552 -0.0759 -0.1378 -0.2934
  305POPC   C4A 4149   8.753   0.742   7.078 -0.1682  0.0940  0.0761
  305POPC   C1B 4150   9.103   1.481   5.803 -0.1979 -0.0746 -0.0581
  305POPC   C2B 4151   9.268   1.614   6.282 -0.2882 -0.1772  0.0756
  305POPC   C3B 4152   9.458   1.694   6.721 -0.2500 -0.0996 -0.0709
  305POPC   C4B 4153   9.460   1.861   7.247  0.0807  0.0609  0.0089
  306POPC   NC3 4154   7.073   0.591   4.280 -0.0996  0.0895 -0.0330
  306POPC   PO4 4155   6.998   0.172   4.160  0.2548 -0.1422 -0.0073
  306POPC   GL1 4156   6.656   0.291   4.277  0.0675  0.1756 -0.1919
  306POPC   GL2 4157   6.684   0.547   4.578  0.2315 -0.0606 -0.3076
  306POPC   C1A 4158   6.253   0.440   4.285  0.0453 -0.0381 -0.1828
  306POPC   D2A 4159   6.145   0.283   4.704 -0.0466 -0.1591  0.0657
  306POPC   C3A 4160   6.549   0.321   5.019 -0.2556  0.0993 -0.1869
  306POPC   C4A 4161   6.500   0.520   5.440 -0.0937  0.2218  0.0905
  306POPC   C1B 4162   6.370   0.769   4.726 -0.2802 -0.1072 -0.2081
  306POPC   C2B 4163   6.133   0.690   5.066 -0.0279  0.1667  0.0628
  306POPC   C3B 4164   6.134   0.971   5.481 -0.0744  0.0749  0.2798
  306POPC   C4B 4165   6.248   1.347   5.612  0.0822 -0.1936  0.1729
  307POPC   NC3 4166   2.525   9.048   4.080  0.0406  0.0135 -0.1995
  307POPC   PO4 4167   2.604   8.724   4.368 -0.0702  0.0720 -0.3009
  307POPC   GL1 4168   2.792   8.809   4.775 -0.1576  0.1488  0.1859
  307POPC   GL2 4169   3.142   8.914   4.913  0.0775  0.0794 -0.2434
  307POPC   C1A 4170   2.778   8.927   5.189  0.2072  0.0051 -0.0064
  307POPC   D2A 4171   2.271   9.063   5.421 -0.0389 -0.1592 -0.2082
  307POPC   C3A 4172   2.196   8.888   5.916 -0.2145  0.1170 -0.0716
  307POPC   C4A 4173   1.959   9.066   6.268 -0.2091 -0.2841  0.0370
  307POPC   C1B 4174   3.334   9.059   5.389  0.1730 -0.1604 -0.1022
  307POPC   C2B 4175   3.583   8.843   5.761 -0.1753  0.1961 -0.3483
  307POPC   C3B 4176   3.922   8.687   6.221 -0.0663  0.0432  0.2542
  307POPC   C4B 4177   4.349   8.548   6.382 -0.2308 -0.2003 -0.2027
  308POPC   NC3 4178   6.724   9.317   4.108 -0.0579 -0.0371 -0.0197
  308POPC   PO4 4179   6.331   9.358   3.960 -0.0317 -0.1475  0.3489
  308POPC   GL1 4180   5.981   9.147   4.241 -0.2027 -0.1410 -0.2183
  308POPC   GL2 4181   5.619   8.967   4.167  0.0899  0.1330 -0.0736
  308POPC   C1A 4182   5.779   9.251   4.614  0.0337  0.4610  0.3143
  308POPC   D2A 4183   5.781   9.434   4.992 -0.1288  0.1282  0.0252
  308POPC   C3A 4184   5.787   9.253   5.333  0.2574  0.1977  0.0670
  308POPC   C4A 4185   5.935   8.821   5.441  0.1710 -0.2798  0.1609
  308POPC   C1B 4186   5.647   8.776   4.579 -0.0938  0.1684  0.2510
  308POPC   C2B 4187   5.620   8.797   5.029 -0.0512  0.1840 -0.0914
  308POPC   C3B 4188   5.448   8.889   5.385  0.0705 -0.1312  0.2147
  308POPC   C4B 4189   5.547   8.702   5.830  0.4192  0.1563 -0.0035
  309POPC   NC3 4190   2.770   2.608   3.992  0.0015  0.2067  0.0061
  309POPC   PO4 4191   2.880   2.378   4.329  0.2204 -0.2300  0.1727
  309POPC   GL1 4192   2.807   2.324   4.703 -0.0520  0.2260  0.0015
  309POPC   GL2 4193   3.101   2.273   4.766  0.3250  0.0133 -0.1157
  309POPC   C1A 4194   2.443   2.442   5.109 -0.0003 -0.0361 -0.1095
  309POPC   D2A 4195   2.047   2.674   5.243 -0.2637  0.3833  0.0156
  309POPC   C3A 4196   1.899   2.631   5.657 -0.0583 -0.4263  0.1783
  309POPC   C4A 4197   1.687   2.545   5.936 -0.1762 -0.2526 -0.0737
  309POPC   C1B 4198   3.216   1.927   4.788  0.0118  0.0182 -0.0263
  309POPC   C2B 4199   3.212   1.558   5.070 -0.2257 -0.2467 -0.0521
  309POPC   C3B 4200   3.254   1.265   5.497  0.0131 -0.3600 -0.1232
  309POPC   C4B 4201   3.561   1.092   5.613 -0.2012  0.0812 -0.3275
  310POPC   NC3 4202   6.002   1.788   3.281  0.0765  0.1220 -0.0156
  310POPC   PO4 4203   5.937   2.159   3.545 -0.0262 -0.0898  0.4072
  310POPC   GL1 4204   5.669   1.965   3.809 -0.2749 -0.0604 -0.0930
  310POPC   GL2 4205   5.728   1.761   3.842  0.1413 -0.2925  0.2117
  310POPC   C1A 4206   5.479   1.956   4.231  0.1567 -0.1769  0.1407
  310POPC   D2A 4207   5.586   1.812   4.645 -0.0994  0.0233 -0.3097
  310POPC   C3A 4208   5.440   2.077   5.071 -0.3369  0.0306  0.0233
  310POPC   C4A 4209   5.041   2.274   5.254  0.1762  0.1154  0.5043
  310POPC   C1B 4210   5.524   1.451   4.172  0.2936  0.1422 -0.0759
  310POPC   C2B 4211   5.283   1.460   4.502 -0.2482  0.0514  0.0797
  310POPC   C3B 4212   4.814   1.354   4.652  0.1725 -0.2628 -0.1736
  310POPC   C4B 4213   4.596   1.354   5.028  0.0528  0.1299  0.3070
  311POPC   NC3 4214   1.373   0.768   4.512 -0.0938 -0.2861  0.0273
  311POPC   PO4 4215   1.730   0.877   4.239  0.1944 -0.0677  0.1925
  311POPC   GL1 4216   1.925   0.670   4.651 -0.1534 -0.1875  0.2424
  311POPC   GL2 4217   1.718   0.741   4.914 -0.1122  0.4908  0.1246
  311POPC   C1A 4218   2.163   0.490   5.023 -0.0796  0.1104  0.0650
  311POPC   D2A 4219   2.112   0.531   5.447  0.4037  0.1359 -0.3450
  311POPC   C3A 4220   2.279   0.406   5.784  0.1947 -0.1475  0.3244
  311POPC   C4A 4221   2.235   0.622   6.159 -0.1469 -0.0286 -0.0124
  311POPC   C1B 4222   1.659   0.957   5.281 -0.0836  0.1602  0.1051
  311POPC   C2B 4223   1.930   1.002   5.713 -0.0014  0.2689  0.0691
  311POPC   C3B 4224   1.644   0.827   6.020 -0.0087  0.0934  0.4164
  311POPC   C4B 4225   1.770   0.815   6.440 -0.2620  0.2900  0.0516
  312POPC   NC3 4226   0.409   1.343   4.996 -0.0774  0.0330 -0.1324
  312POPC   PO4 4227   0.462   0.917   5.011 -0.0822  0.0466 -0.4084
  312POPC   GL1 4228   0.607   0.864   5.429  0.2469 -0.0536 -0.1166
  312POPC   GL2 4229   0.623   1.164   5.582 -0.1464  0.2953  0.2040
  312POPC   C1A 4230   0.693   0.697   5.860  0.2710  0.0839 -0.1026
  312POPC   D2A 4231   0.803   0.401   6.165 -0.0877  0.3591 -0.3609
  312POPC   C3A 4232   0.567   0.167   6.358  0.2997  0.0234  0.0576
  312POPC   C4A 4233   0.208   0.046   6.330  0.0583 -0.2143  0.1727
  312POPC   C1B 4234   0.829   1.184   5.971 -0.1322  0.1042 -0.1242
  312POPC   C2B 4235   0.735   1.288   6.375  0.1241  0.0836 -0.1525
  312POPC   C3B 4236   0.461   1.053   6.770  0.0049 -0.3366 -0.2720
  312POPC   C4B 4237   0.748   0.837   7.077 -0.0059 -0.1047 -0.2664
  313POPC   NC3 4238   2.547   5.607   4.619  0.1898 -0.0149 -0.0248
  313POPC   PO4 4239   2.954   5.901   4.760  0.0183 -0.3063  0.3228
  313POPC   GL1 4240   3.032   5.826   5.243  0.0394  0.0285  0.3186
  313POPC   GL2 4241   3.361   5.847   5.335 -0.1764 -0.0470 -0.0615
  313POPC   C1A 4242   2.861   5.741   5.677  0.2329  0.0648 -0.0211
  313POPC   D2A 4243   2.506   5.457   5.870 -0.2885  0.1754  0.3907
  313POPC   C3A 4244   2.634   5.381   6.266  0.0307  0.1684  0.3702
  313POPC   C4A 4245   2.898   5.106   6.595  0.1877 -0.0539 -0.0356
  313POPC   C1B 4246   3.529   5.856   5.809  0.0659 -0.0764 -0.0718
  313POPC   C2B 4247   3.612   5.529   6.007 -0.1093  0.1428 -0.0228
  313POPC   C3B 4248   3.892   5.177   6.233  0.1707 -0.3624  0.0042
  313POPC   C4B 4249   4.124   4.978   6.483  0.0922  0.1383  0.1237
  314POPC   NC3 4250   4.463   1.134   2.778  0.0108  0.1422  0.2848
  314POPC   PO4 4251   4.386   0.938   3.068 -0.3211 -0.0604 -0.1348
  314POPC   GL1 4252   4.402   0.822   3.506 -0.0872 -0.1628 -0.2793
  314POPC   GL2 4253   4.087   0.647   3.729 -0.0104  0.1933  0.1343
  314POPC   C1A 4254   4.505   0.729   3.927  0.0710  0.1321 -0.3252
  314POPC   D2A 4255   4.696   0.879   4.258  0.0042  0.0344  0.0598
  314POPC   C3A 4256   4.425   1.071   4.563  0.2168 -0.0378 -0.1306
  314POPC   C4A 4257   4.141   1.164   4.828 -0.1038 -0.0646 -0.1197
  314POPC   C1B 4258   4.020   0.815   4.142 -0.1140  0.0092  0.0394
  314POPC   C2B 4259   3.819   0.803   4.648 -0.0531 -0.5616  0.1514
  314POPC   C3B 4260   3.630   0.721   5.122  0.1827  0.1154 -0.3108
  314POPC   C4B 4261   3.781   0.575   5.602  0.2669  0.0205  0.1709
  315POPC   NC3 4262   5.328   1.054   3.244 -0.0686  0.2071  0.0751
  315POPC   PO4 4263   5.083   1.371   3.317 -0.1886  0.0041 -0.1084
  315POPC   GL1 4264   4.881   1.780   3.558 -0.1688 -0.0708  0.3223
  315POPC   GL2 4265   5.138   1.968   3.742  0.1633 -0.2490 -0.1370
  315POPC   C1A 4266   4.560   1.882   3.862 -0.0825 -0.0900  0.1354
  315POPC   D2A 4267   4.404   2.167   4.205 -0.3840 -0.0419 -0.1866
  315POPC   C3A 4268   4.561   2.234   4.616  0.0206 -0.2091  0.0000
  315POPC   C4A 4269   4.935   2.444   4.804 -0.0432 -0.1007 -0.2675
  315POPC   C1B 4270   4.943   1.897   4.108  0.1790  0.3094 -0.0173
  315POPC   C2B 4271   4.638   1.751   4.334 -0.1683  0.3408 -0.1487
  315POPC   C3B 4272   4.378   1.621   4.631 -0.1400  0.1926 -0.1021
  315POPC   C4B 4273   4.145   1.698   4.933  0.2050 -0.0229  0.1009
  316POPC   NC3 4274   3.248   6.890   4.441 -0.2813 -0.1445  0.5317
  316POPC   PO4 4275   3.714   6.692   4.540  0.2297 -0.1126  0.1314
  316POPC   GL1 4276   3.774   6.766   5.030 -0.1725  0.1690  0.4712
  316POPC   GL2 4277   4.067   6.568   4.982  0.1974 -0.1457  0.0066
  316POPC   C1A 4278   3.666   6.539   5.441  0.2223 -0.2817  0.0261
  316POPC   D2A 4279   3.696   6.518   5.893 -0.0033  0.0166 -0.4000
  316POPC   C3A 4280   3.624   6.218   6.158  0.3607  0.0899 -0.1533
  316POPC   C4A 4281   3.313   5.894   6.245 -0.2296 -0.2089  0.0415
  316POPC   C1B 4282   4.202   6.739   5.417  0.1780 -0.1244  0.0853
  316POPC   C2B 4283   4.205   6.969   5.827  0.0559 -0.1569  0.2282
  316POPC   C3B 4284   4.402   7.057   6.203  0.3424  0.2679  0.1781
  316POPC   C4B 4285   4.839   7.077   6.390  0.0404  0.0178 -0.2259
  317POPC   NC3 4286   0.758   9.787   4.007 -0.2396 -0.3577 -0.1583
  317POPC   PO4 4287   0.662  10.211   4.320  0.2127  0.0095 -0.2002
  317POPC   GL1 4288   0.594  10.231   4.830  0.4508 -0.1820 -0.0654
  317POPC   GL2 4289   0.373  10.028   4.865 -0.0297  0.4071 -0.0702
  317POPC   C1A 4290   0.712  10.329   5.273  0.4693 -0.0598  0.2539
  317POPC   D2A 4291   0.917  10.469   5.587 -0.0231  0.1192 -0.2092
  317POPC   C3A 4292   0.998  10.441   6.052 -0.3752  0.0165  0.0475
  317POPC   C4A 4293   0.984  10.498   6.440 -0.0473  0.0005 -0.1552
  317POPC   C1B 4294   0.316   9.912   5.342 -0.1494 -0.0209  0.0426
  317POPC   C2B 4295   0.248   9.775   5.721  0.1002 -0.2262  0.0488
  317POPC   C3B 4296   0.085   9.611   6.092 -0.0736 -0.3062  0.3150
  317POPC   C4B 4297   0.170   9.270   6.324 -0.0350 -0.1158 -0.1065
  318POPC   NC3 4298   2.678   6.266   4.480 -0.1336 -0.2682  0.0212
  318POPC   PO4 4299   2.800   6.652   4.291  0.2225  0.1794  0.1152
  318POPC   GL1 4300   2.827   6.706   4.781 -0.4693 -0.1033 -0.1421
  318POPC   GL2 4301   2.853   6.435   4.972 -0.3812 -0.1357 -0.0491
  318POPC   C1A 4302   3.120   6.852   5.040  0.0188 -0.2821  0.0451
  318POPC   D2A 4303   3.366   7.148   5.228  0.0020 -0.2292 -0.1941
  318POPC   C3A 4304   3.334   7.250   5.625 -0.1243 -0.0020 -0.3508
  318POPC   C4A 4305   3.317   7.531   6.001 -0.1114 -0.1750 -0.3247
  318POPC   C1B 4306   2.788   6.573   5.362  0.0079  0.1501  0.2276
  318POPC   C2B 4307   3.176   6.783   5.564  0.0548  0.1685  0.2436
  318POPC   C3B 4308   3.351   6.868   6.009  0.1183 -0.2305 -0.1060
  318POPC   C4B 4309   3.653   7.033   6.214  0.1963  0.0455  0.0433
  319POPC   NC3 4310   2.206   4.770   4.386  0.0333  0.0881 -0.1405
  319POPC   PO4 4311   2.083   4.720   4.823  0.0817  0.0021 -0.0198
  319POPC   GL1 4312   2.165   4.509   5.159 -0.0363  0.1601 -0.0044
  319POPC   GL2 4313   2.056   4.284   5.325 -0.4220 -0.0820  0.0223
  319POPC   C1A 4314   2.466   4.603   5.538 -0.1981 -0.0165  0.1474
  319POPC   D2A 4315   2.458   4.463   5.926  0.0974  0.0473  0.0175
  319POPC   C3A 4316   2.195   4.179   6.067  0.0763  0.1860 -0.1752
  319POPC   C4A 4317   1.998   3.874   6.356 -0.0736  0.1290  0.1291
  319POPC   C1B 4318   1.924   4.412   5.673 -0.2823  0.1118 -0.3417
  319POPC   C2B 4319   1.639   4.473   5.959 -0.0604  0.2064 -0.2745
  319POPC   C3B 4320   1.596   4.634   6.396  0.0889  0.1347  0.0463
  319POPC   C4B 4321   1.865   4.641   6.818 -0.0369 -0.0447 -0.2140
  320POPC   NC3 4322   9.411   3.518   5.005  0.0632 -0.3892 -0.1250
  320POPC   PO4 4323   9.008   3.893   4.853 -0.3541  0.2516 -0.0162
  320POPC   GL1 4324   8.711   3.726   5.177  0.1291 -0.2983  0.2232
  320POPC   GL2 4325   8.361   3.865   5.211 -0.1888 -0.1648  0.0150
  320POPC   C1A 4326   8.690   3.594   5.536 -0.1756  0.0914 -0.1127
  320POPC   D2A 4327   8.827   3.730   5.955 -0.0769 -0.1115 -0.3377
  320POPC   C3A 4328   9.036   3.832   6.296 -0.0585  0.0124 -0.3020
  320POPC   C4A 4329   9.006   3.935   6.756 -0.4294 -0.1346 -0.3142
  320POPC   C1B 4330   8.241   3.441   5.278 -0.0175  0.0423 -0.2744
  320POPC   C2B 4331   8.249   3.355   5.602 -0.3465  0.1042 -0.0585
  320POPC   C3B 4332   8.350   3.540   6.011 -0.1660  0.1228 -0.3716
  320POPC   C4B 4333   8.357   3.324   6.426  0.0082 -0.0368  0.0836
  321POPC   NC3 4334   9.913   8.914   4.819  0.0780 -0.2325  0.0535
  321POPC   PO4 4335  10.226   8.556   4.848 -0.1231  0.1092  0.0948
  321POPC   GL1 4336  10.391   8.581   5.186 -0.0734  0.0970 -0.1628
  321POPC   GL2 4337  10.537   8.265   5.368 -0.1277 -0.2362  0.0508
  321POPC   C1A 4338  10.805   8.714   5.420  0.0582 -0.2527 -0.3349
  321POPC   D2A 4339  10.916   8.937   5.724 -0.0756 -0.2597 -0.2354
  321POPC   C3A 4340  11.079   9.311   5.856  0.4155  0.4597  0.0086
  321POPC   C4A 4341  11.442   9.351   6.049  0.0931  0.2589 -0.0313
  321POPC   C1B 4342  10.459   8.064   5.683  0.2647  0.0388  0.0667
  321POPC   C2B 4343  10.435   7.627   5.913 -0.1366 -0.1548 -0.0481
  321POPC   C3B 4344  10.937   7.473   6.100  0.0557  0.3626 -0.1231
  321POPC   C4B 4345  11.212   7.755   6.146 -0.0963  0.0707 -0.5820
  322POPC   NC3 4346   4.157   4.151   4.122  0.1739 -0.3627  0.0162
  322POPC   PO4 4347   3.982   3.881   4.530 -0.1847  0.0116 -0.1671
  322POPC   GL1 4348   4.052   3.504   4.512 -0.0563  0.0895  0.1166
  322POPC   GL2 4349   4.367   3.447   4.598 -0.3065  0.1380 -0.0143
  322POPC   C1A 4350   4.172   3.074   4.857  0.1868 -0.3318  0.0630
  322POPC   D2A 4351   4.247   3.005   5.274 -0.0722  0.0833  0.1997
  322POPC   C3A 4352   4.256   2.555   5.436  0.1000 -0.0022  0.2473
  322POPC   C4A 4353   4.279   2.248   5.588 -0.0048 -0.1440  0.2245
  322POPC   C1B 4354   4.526   3.400   5.020 -0.1246 -0.1800  0.3026
  322POPC   C2B 4355   4.390   3.427   5.507  0.1810 -0.0796  0.0783
  322POPC   C3B 4356   4.415   3.520   5.895  0.0372  0.1420  0.4850
  322POPC   C4B 4357   4.729   3.480   6.242  0.1974 -0.3536  0.0760
  323POPC   NC3 4358   9.740   4.428   4.991 -0.2103 -0.1066  0.1751
  323POPC   PO4 4359   9.706   4.039   4.874  0.6879  0.0433 -0.2380
  323POPC   GL1 4360   9.465   4.123   5.195  0.2697 -0.1478 -0.0468
  323POPC   GL2 4361   9.201   3.880   5.307  0.2870 -0.4181 -0.0931
  323POPC   C1A 4362   9.440   4.390   5.590  0.0391  0.2332  0.0967
  323POPC   D2A 4363   9.470   4.534   6.048 -0.0230  0.0133  0.2690
  323POPC   C3A 4364   9.475   4.257   6.395  0.2532  0.1779  0.2957
  323POPC   C4A 4365   9.321   4.276   6.795  0.1765 -0.0531 -0.4045
  323POPC   C1B 4366   9.432   3.889   5.724  0.0627  0.2403 -0.4665
  323POPC   C2B 4367   9.540   3.776   6.122 -0.1058  0.1418 -0.0478
  323POPC   C3B 4368   9.510   3.758   6.588  0.1337  0.3490 -0.1785
  323POPC   C4B 4369   9.438   3.716   7.046 -0.0073  0.0399 -0.1224
  324POPC   NC3 4370   4.368   8.331   4.248 -0.0705  0.0286 -0.5388
  324POPC   PO4 4371   4.739   8.241   4.476  0.1152  0.1721 -0.0053
  324POPC   GL1 4372   4.774   8.162   4.810  0.3382 -0.0493 -0.3073
  324POPC   GL2 4373   4.982   7.826   4.822  0.2180  0.0653  0.1026
  324POPC   C1A 4374   4.519   8.166   5.111  0.1492 -0.2617 -0.1101
  324POPC   D2A 4375   4.678   8.246   5.552  0.0351 -0.0270  0.1449
  324POPC   C3A 4376   4.492   8.609   5.718  0.1659  0.2611 -0.2316
  324POPC   C4A 4377   4.733   8.779   6.029  0.0663  0.0123 -0.0151
  324POPC   C1B 4378   5.009   7.951   5.308  0.2817  0.3833 -0.0056
  324POPC   C2B 4379   5.135   8.223   5.692  0.3073  0.1458  0.0641
  324POPC   C3B 4380   5.538   8.211   6.009  0.2791 -0.0479  0.0496
  324POPC   C4B 4381   5.898   8.379   6.048  0.3147  0.2409  0.0360
  325POPC   NC3 4382   2.896   9.391   3.929 -0.0102  0.1034 -0.0268
  325POPC   PO4 4383   2.552   9.793   3.906 -0.0429 -0.0662 -0.2637
  325POPC   GL1 4384   2.588   9.777   4.297  0.1867 -0.2226  0.4474
  325POPC   GL2 4385   2.350   9.840   4.560  0.4113 -0.1682  0.4317
  325POPC   C1A 4386   2.895   9.899   4.644  0.3596  0.3453 -0.1371
  325POPC   D2A 4387   2.952   9.925   5.060 -0.0118 -0.1240  0.1257
  325POPC   C3A 4388   3.132  10.098   5.566 -0.4298  0.1304 -0.0008
  325POPC   C4A 4389   3.273   9.934   5.936  0.3105 -0.1862 -0.1823
  325POPC   C1B 4390   2.264   9.961   4.991 -0.0481  0.0643 -0.0735
  325POPC   C2B 4391   2.270   9.931   5.337 -0.0457 -0.2393 -0.1011
  325POPC   C3B 4392   2.307   9.937   5.811  0.0379  0.0944  0.0051
  325POPC   C4B 4393   2.347   9.813   6.200  0.0704 -0.2877 -0.2392
  326POPC   NC3 4394   0.037   2.855   4.434  0.0294  0.0643  0.1577
  326POPC   PO4 4395   0.150   2.951   4.828 -0.0933 -0.1396 -0.0542
  326POPC   GL1 4396   0.108   2.816   5.279  0.1470 -0.3204  0.0070
  326POPC   GL2 4397   0.444   2.922   5.358 -0.1311 -0.3319  0.2276
  326POPC   C1A 4398  -0.008   2.875   5.688 -0.1804 -0.1260  0.3452
  326POPC   D2A 4399   0.327   2.880   5.959 -0.0998 -0.1930  0.3356
  326POPC   C3A 4400   0.211   3.000   6.339 -0.2583 -0.0404 -0.4424
  326POPC   C4A 4401   0.027   2.828   6.637  0.3126 -0.3170 -0.2496
  326POPC   C1B 4402   0.582   2.608   5.604 -0.0686  0.3506 -0.0999
  326POPC   C2B 4403   0.626   2.326   5.996 -0.0104 -0.0228 -0.0267
  326POPC   C3B 4404   0.379   2.505   6.334 -0.1276  0.0833 -0.1557
  326POPC   C4B 4405   0.305   2.435   6.791  0.1793  0.0264  0.4523
  327POPC   NC3 4406   9.200   2.083   4.694 -0.3160  0.1572 -0.0442
  327POPC   PO4 4407   8.877   1.770   4.948  0.4676  0.1336 -0.0016
  327POPC   GL1 4408   8.915   1.666   5.389  0.0332 -0.0488 -0.2942
  327POPC   GL2 4409   9.156   2.001   5.535 -0.0970  0.0936  0.1217
  327POPC   C1A 4410   8.560   1.646   5.719  0.4037  0.0346 -0.1255
  327POPC   D2A 4411   8.235   1.736   5.976  0.1024  0.1372  0.0386
  327POPC   C3A 4412   7.802   1.635   5.845  0.0929 -0.0027  0.1802
  327POPC   C4A 4413   7.406   1.487   5.875 -0.1302  0.0323  0.2259
  327POPC   C1B 4414   9.062   2.094   5.988 -0.1359  0.1230 -0.0424
  327POPC   C2B 4415   8.857   2.124   6.382 -0.0273 -0.0852 -0.0527
  327POPC   C3B 4416   8.952   2.563   6.572 -0.1152 -0.2193 -0.0556
  327POPC   C4B 4417   8.724   2.900   6.668  0.1724 -0.4081 -0.0421
  328POPC   NC3 4418   9.514   3.155   4.332 -0.2030  0.2644  0.0082
  328POPC   PO4 4419   9.726   3.169   4.788  0.0324 -0.3639 -0.2832
  328POPC   GL1 4420   9.640   2.919   5.109 -0.1057 -0.1071  0.2258
  328POPC   GL2 4421   9.897   2.759   5.226  0.0778 -0.0209  0.3417
  328POPC   C1A 4422   9.566   2.859   5.595  0.2275 -0.0896 -0.0093
  328POPC   D2A 4423   9.669   2.734   5.966  0.1263  0.3423 -0.0663
  328POPC   C3A 4424   9.833   2.302   5.989 -0.1720 -0.0566  0.0862
  328POPC   C4A 4425  10.006   1.944   6.111  0.5131  0.0430  0.1455
  328POPC   C1B 4426  10.080   3.026   5.532  0.1159  0.1858  0.3328
  328POPC   C2B 4427  10.323   3.343   5.688 -0.0214 -0.0401  0.0433
  328POPC   C3B 4428  10.577   3.469   6.153  0.1041  0.0725 -0.0818
  328POPC   C4B 4429  10.686   3.380   6.592  0.2550 -0.2996  0.0547
  329POPC   NC3 4430   1.352   2.753   4.546 -0.0435 -0.1472  0.0517
  329POPC   PO4 4431   1.905   2.731   4.423 -0.1725  0.0917  0.2494
  329POPC   GL1 4432   1.767   2.992   4.896 -0.0832 -0.1992 -0.0758
  329POPC   GL2 4433   1.474   3.009   5.017 -0.3661 -0.0917  0.0261
  329POPC   C1A 4434   1.788   3.107   5.419 -0.3073  0.2430  0.1683
  329POPC   D2A 4435   1.958   3.227   5.805  0.1783 -0.1234 -0.0072
  329POPC   C3A 4436   2.038   2.964   6.099  0.1713 -0.3596 -0.1086
  329POPC   C4A 4437   1.810   2.661   6.372  0.1670 -0.1170  0.2246
  329POPC   C1B 4438   1.594   2.599   5.270 -0.1319 -0.0503  0.3241
  329POPC   C2B 4439   1.523   2.271   5.606  0.0533 -0.3094 -0.0293
  329POPC   C3B 4440   1.711   2.049   5.979 -0.1184  0.2845  0.2081
  329POPC   C4B 4441   1.414   1.686   6.116  0.0130  0.2189  0.1584
  330POPC   NC3 4442   5.499   4.499   4.711 -0.2462 -0.2041  0.0447
  330POPC   PO4 4443   5.421   4.004   4.509 -0.4111  0.0490  0.1872
  330POPC   GL1 4444   5.528   3.955   4.915 -0.1260 -0.0849  0.1172
  330POPC   GL2 4445   5.342   3.784   5.030  0.0846 -0.0246  0.0541
  330POPC   C1A 4446   5.685   3.762   5.390  0.2356 -0.0923 -0.0843
  330POPC   D2A 4447   5.963   3.898   5.669 -0.3169 -0.0760  0.3015
  330POPC   C3A 4448   6.012   3.850   6.082  0.1991  0.6070 -0.2503
  330POPC   C4A 4449   6.293   4.123   6.368  0.1378 -0.1103 -0.3572
  330POPC   C1B 4450   4.897   3.779   5.288 -0.2317 -0.1871  0.6341
  330POPC   C2B 4451   4.843   3.768   5.775  0.0252  0.4169  0.1331
  330POPC   C3B 4452   4.576   3.943   6.058  0.2275 -0.0071  0.0318
  330POPC   C4B 4453   4.696   4.088   6.462 -0.1430  0.2492  0.0436
  331POPC   NC3 4454   2.366  10.209   4.062 -0.0793 -0.0392  0.1157
  331POPC   PO4 4455   1.923  10.475   3.832 -0.1043  0.3570  0.1303
  331POPC   GL1 4456   2.094  10.528   4.288 -0.0281  0.0125  0.1421
  331POPC   GL2 4457   2.150  10.347   4.595 -0.0558  0.3641  0.2906
  331POPC   C1A 4458   2.333  10.803   4.595  0.0189  0.4018  0.0914
  331POPC   D2A 4459   2.634  11.058   4.850 -0.1175  0.0215  0.3754
  331POPC   C3A 4460   2.601  11.066   5.241  0.2745  0.3682  0.0377
  331POPC   C4A 4461   2.758  10.967   5.652 -0.2154  0.1094 -0.0696
  331POPC   C1B 4462   2.133  10.518   4.968  0.1585 -0.1386 -0.1238
  331POPC   C2B 4463   2.362  10.601   5.341  0.1792 -0.0392  0.2124
  331POPC   C3B 4464   2.488  10.401   5.809 -0.1028  0.2931  0.1858
  331POPC   C4B 4465   2.624  10.776   6.082 -0.0603  0.2835  0.0928
  332POPC   NC3 4466   0.007   8.157   4.902 -0.2893  0.0152 -0.0213
  332POPC   PO4 4467   0.269   8.447   4.804  0.1315  0.2709 -0.0430
  332POPC   GL1 4468   0.431   8.315   5.143 -0.2268  0.0955  0.0510
  332POPC   GL2 4469   0.628   8.102   4.931  0.3862 -0.1915 -0.0688
  332POPC   C1A 4470   0.531   8.323   5.567  0.0643  0.1246  0.0315
  332POPC   D2A 4471   0.766   8.546   5.755  0.0741 -0.1556 -0.0967
  332POPC   C3A 4472   0.893   8.962   5.618 -0.2524  0.2945  0.1889
  332POPC   C4A 4473   0.952   9.309   5.417  0.3758  0.0723  0.2749
  332POPC   C1B 4474   0.968   7.849   5.227  0.2140 -0.0374 -0.2324
  332POPC   C2B 4475   0.923   7.745   5.632 -0.3080  0.0023 -0.1369
  332POPC   C3B 4476   0.908   8.083   5.948  0.0515 -0.0998 -0.0484
  332POPC   C4B 4477   0.641   8.298   6.278 -0.0921  0.5170  0.0207
  333POPC   NC3 4478   0.215   3.416   4.698 -0.2038 -0.0242 -0.0800
  333POPC   PO4 4479   0.612   3.641   4.573 -0.3431 -0.0264  0.0253
  333POPC   GL1 4480   0.525   3.540   5.118  0.1795  0.1818  0.1252
  333POPC   GL2 4481   0.272   3.337   5.224  0.1310 -0.0563 -0.2160
  333POPC   C1A 4482   0.703   3.662   5.467 -0.0603 -0.0733  0.1791
  333POPC   D2A 4483   0.966   3.633   5.822  0.1505  0.0735  0.1244
  333POPC   C3A 4484   1.109   3.185   6.060 -0.3543  0.0528 -0.0483
  333POPC   C4A 4485   1.189   3.178   6.547 -0.0537  0.0491  0.0758
  333POPC   C1B 4486   0.379   3.346   5.708 -0.3620  0.0718 -0.2801
  333POPC   C2B 4487   0.548   3.388   6.108 -0.0871  0.4740 -0.1291
  333POPC   C3B 4488   0.754   3.478   6.412 -0.3659 -0.1090 -0.1864
  333POPC   C4B 4489   0.662   3.437   6.831 -0.1595 -0.0024 -0.0055
  334POPC   NC3 4490   8.264  10.428   4.652  0.0367  0.3677  0.2398
  334POPC   PO4 4491   8.116  10.653   4.996 -0.0319  0.1244 -0.1248
  334POPC   GL1 4492   7.931  10.937   5.447  0.0993  0.0307  0.2554
  334POPC   GL2 4493   7.916  10.615   5.538 -0.0175 -0.0216 -0.2318
  334POPC   C1A 4494   8.056  11.046   5.875 -0.1601 -0.2052  0.1548
  334POPC   D2A 4495   8.105  11.266   6.233  0.0190 -0.0013  0.0148
  334POPC   C3A 4496   7.845  11.643   6.502  0.0220 -0.3141  0.0178
  334POPC   C4A 4497   7.508  11.881   6.595  0.0175 -0.2996  0.0764
  334POPC   C1B 4498   7.867  10.442   5.871 -0.0821 -0.2603  0.3862
  334POPC   C2B 4499   7.952  10.315   6.268  0.0513 -0.2453 -0.1512
  334POPC   C3B 4500   8.289  10.383   6.577  0.3592 -0.0776  0.2303
  334POPC   C4B 4501   8.639  10.460   6.530  0.1823 -0.2094  0.2355
  335POPC   NC3 4502   0.191   4.937   5.065  0.0064  0.1146 -0.1011
  335POPC   PO4 4503   0.674   4.948   4.952  0.2409  0.1684  0.0873
  335POPC   GL1 4504   0.739   4.865   5.348 -0.0109 -0.0414 -0.0634
  335POPC   GL2 4505   0.981   4.953   5.489 -0.1369 -0.0280 -0.3396
  335POPC   C1A 4506   0.679   4.527   5.642 -0.1262  0.0366  0.0488
  335POPC   D2A 4507   0.693   4.372   6.035 -0.4435 -0.0528 -0.2227
  335POPC   C3A 4508   0.823   3.932   6.132 -0.1731 -0.2522 -0.0175
  335POPC   C4A 4509   1.214   3.599   6.266  0.0793  0.1760 -0.3636
  335POPC   C1B 4510   0.930   5.070   5.905 -0.4168 -0.0185  0.0492
  335POPC   C2B 4511   1.097   5.350   6.378 -0.0790  0.0330 -0.0373
  335POPC   C3B 4512   1.212   5.702   6.383  0.1849 -0.0816 -0.1023
  335POPC   C4B 4513   1.321   6.124   6.412 -0.0383  0.0733  0.1641
  336POPC   NC3 4514   8.939   6.401   5.240 -0.2200  0.4340 -0.4635
  336POPC   PO4 4515   8.617   6.666   5.321 -0.1735 -0.3142 -0.1819
  336POPC   GL1 4516   8.580   6.297   5.607 -0.0743 -0.0298  0.0383
  336POPC   GL2 4517   8.266   6.131   5.710  0.0889 -0.1775 -0.1042
  336POPC   C1A 4518   8.748   6.054   5.905  0.0115  0.0481 -0.1083
  336POPC   D2A 4519   9.018   6.100   6.285  0.4545  0.0722  0.3671
  336POPC   C3A 4520   9.006   6.300   6.736  0.2108  0.4050  0.1842
  336POPC   C4A 4521   8.843   6.569   7.004  0.0727 -0.1756  0.1081
  336POPC   C1B 4522   8.305   6.237   6.060 -0.0056  0.1291  0.0344
  336POPC   C2B 4523   8.415   5.967   6.388  0.2952 -0.0112 -0.0838
  336POPC   C3B 4524   8.163   5.830   6.674 -0.0579 -0.1915 -0.2625
  336POPC   C4B 4525   7.695   5.895   6.869  0.0579  0.0899  0.1083
  337POPC   NC3 4526   8.551   4.149   4.778 -0.0355  0.2919  0.0472
  337POPC   PO4 4527   8.162   4.310   4.986 -0.2087  0.0979 -0.1668
  337POPC   GL1 4528   7.992   4.276   5.381  0.0998 -0.1441  0.0770
  337POPC   GL2 4529   8.059   4.676   5.585 -0.0966  0.4258 -0.0331
  337POPC   C1A 4530   7.868   4.121   5.793 -0.2466  0.0199 -0.0737
  337POPC   D2A 4531   7.605   3.915   6.107  0.1805  0.1472 -0.2660
  337POPC   C3A 4532   7.347   4.078   6.373  0.1642 -0.2472  0.0958
  337POPC   C4A 4533   7.221   4.305   6.671 -0.0693 -0.1335  0.2600
  337POPC   C1B 4534   7.634   4.925   5.690 -0.1160  0.1927 -0.3474
  337POPC   C2B 4535   7.386   4.927   6.025  0.1748 -0.2392  0.2655
  337POPC   C3B 4536   7.076   4.605   6.154 -0.0327  0.3296  0.3850
  337POPC   C4B 4537   6.957   4.833   6.626 -0.0327 -0.0129 -0.1213
  338W        W 4538   8.733   8.902  11.660 -0.2029 -0.0402 -0.2025
  339W        W 4539  10.040   0.940   0.177  0.4025  0.0666 -0.2102
  340W        W 4540   4.415   7.066  10.451 -0.1744  0.1230  0.2951
  341W        W 4541  10.316   1.957  11.350  0.2096 -0.0297  0.0178
  342W        W 4542   3.591   8.749   1.598 -0.3150  0.1343 -0.1579
  343W        W 4543   5.224   3.503   3.287 -0.3171  0.0327 -0.0454
  344W        W 4544   7.982   9.984  11.044 -0.0518  0.2111 -0.1422
  345W        W 4545   9.372   2.476   0.745  0.2205 -0.0412  0.0744
  346W        W 4546   3.389   0.230  10.270  0.3734  0.1333  0.0212
  347W        W 4547  10.317   8.684   1.764 -0.2877 -0.1515  0.0599
  348W        W 4548   3.714   3.033   4.763  0.1897  0.0605  0.0379
  349W        W 4549   3.013   7.444   3.218  0.0397 -0.2209  0.0851
  350W        W 4550   4.813   4.379  11.324 -0.1321  0.0021  0.0984
  351W        W 4551   3.250   4.553   3.163 -0.2806  0.3478  0.3277
  352W        W 4552   3.222   7.578   9.798 -0.2292 -0.0241  0.0048
  353W        W 4553   4.254   8.243   1.258  0.1391  0.2584  0.0049
  354W        W 4554   9.886   1.336  12.577 -0.3024 -0.0833 -0.2332
  355W        W 4555   1.569   3.770  11.978 -0.2320  0.1987 -0.1906
  356W        W 4556   6.292   4.775   9.396 -0.2975  0.1769  0.0580
  357W        W 4557   9.315   8.981  10.352  0.1179  0.0044  0.2839
  358W        W 4558   3.272   4.244   5.037 -0.0779  0.1654  0.1348
  359W        W 4559   8.671   2.362  12.079 -0.2229 -0.4552  0.0977
  360W        W 4560   5.921   6.546  10.247  0.0084 -0.0095 -0.2790
  361W        W 4561   0.608   4.392   1.975  0.1880 -0.3299 -0.0139
  362W        W 4562   5.710   2.545  12.874 -0.0160  0.1612 -0.1057
  363W        W 4563   7.303   3.113   1.759 -0.1451  0.0433  0.2102
  364W        W 4564   7.820   0.872   1.330 -0.2019  0.3524  0.1799
  365W        W 4565   5.288   3.961   9.167 -0.0350  0.2662 -0.0321
  366W        W 4566   6.551   6.544   8.114  0.0820 -0.2475 -0.2169
  367W        W 4567   4.491   5.021   3.875  0.0051 -0.1378  0.1084
  368W        W 4568   6.131   7.228   3.460  0.1710 -0.1595 -0.1159
  369W        W 4569   5.545   6.910   3.080  0.4893 -0.0496  0.0434
  370W        W 4570   0.172   3.040   3.890 -0.2029  0.1679  0.2187
  371W        W 4571   5.558   8.448  11.318 -0.1373  0.3122  0.0384
  372W        W 4572   8.368   5.010   8.945  0.1220  0.1684  0.0376
  373W        W 4573   1.061  10.138   1.782 -0.0065  0.0303 -0.0491
  374W        W 4574   7.696   6.662   8.682  0.1384 -0.0142 -0.4141
  375W        W 4575   1.879   7.060  10.283 -0.1724  0.0553 -0.0717
  376W        W 4576   3.374   5.753  12.592 -0.1628 -0.0089  0.2061
  377W        W 4577   8.276   1.738   4.375  0.0548 -0.2932 -0.0209
  378W        W 4578   8.530  10.020  11.048  0.0830  0.2292 -0.1013
  379W        W 4579   0.265   9.085   8.647  0.0907  0.2978 -0.1044
  380W        W 4580   8.980   0.781  11.165  0.2849 -0.2349  0.1452
  381W        W 4581   2.845   9.383   2.771  0.1598 -0.2925  0.1250
  382W        W 4582   8.658   6.370  11.654 -0.0608  0.1597  0.1035
  383W        W 4583   0.964   6.377   2.275  0.3017 -0.1842 -0.0075
  384W        W 4584   7.932   8.841   9.141  0.0578 -0.1423 -0.1435
  385W        W 4585   5.897   8.052   2.164  0.1954  0.1739 -0.1794
  386W        W 4586   4.576   6.718   3.358 -0.1708 -0.0304 -0.0583
  387W        W 4587   8.290  10.277  13.247  0.0284 -0.3594 -0.1401
  388W        W 4588   1.202   8.709  10.629  0.3847  0.1063  0.0389
  389W        W 4589   1.001   7.205  10.021 -0.1676 -0.1092  0.0011
  390W        W 4590   3.364   7.794   2.302 -0.0458 -0.1709  0.0514
  391W        W 4591   5.807   8.149   9.991 -0.1025  0.2188  0.2032
  392W        W 4592   9.839   8.178   4.746 -0.1451  0.1227  0.1641
  393W        W 4593   7.033   4.400  10.615 -0.0424 -0.1162  0.1341
  394W        W 4594   5.551   7.681   0.555  0.1771 -0.2460 -0.0897
  395W        W 4595   2.824   6.881   0.186  0.2461 -0.3856 -0.0501
  396W        W 4596   7.179   4.384   3.835  0.1013 -0.0596 -0.1902
  397W        W 4597   9.478   7.375   3.467  0.3441  0.0381  0.1764
  398W        W 4598   7.361   4.381   1.348  0.1456 -0.3214  0.0134
  399W        W 4599   5.780   9.461  11.463  0.0602  0.3181 -0.3136
  400W        W 4600   6.492  10.362  11.011  0.0853  0.1700 -0.1247
  401W        W 4601   3.890  10.056  10.916 -0.2376  0.0089 -0.0222
  402W        W 4602   7.428   0.019   4.089  0.0356  0.0957 -0.0690
  403W        W 4603   6.160  10.035   2.545 -0.1494  0.0202  0.0230
  404W        W 4604   8.770   0.445  10.880  0.2208  0.0388 -0.1187
  405W        W 4605   3.052   3.587   2.971  0.0664  0.0626 -0.0198
  406W        W 4606   4.960   8.639  13.191 -0.2531 -0.3422 -0.0593
  407W        W 4607   5.934   1.810   6.216 -0.2007 -0.1575 -0.3864
  408W        W 4608   3.969   5.316  11.496  0.0833  0.0008 -0.0757
  409W        W 4609   0.299   6.755  10.365 -0.2179 -0.2268  0.2567
  410W        W 4610   1.049   4.164   3.265  0.1391 -0.0347 -0.1457
  411W        W 4611   4.797   0.205   1.086 -0.1192 -0.2278  0.1981
  412W        W 4612   1.381   4.367   2.388  0.2941  0.2289  0.0561
  413W        W 4613   4.813   7.072  12.334  0.1101  0.3092  0.1264
  414W        W 4614   4.180   4.272  12.046 -0.3450 -0.0197 -0.0377
  415W        W 4615  10.420   5.400   1.977 -0.3694 -0.0277  0.0276
  416W        W 4616   9.758   3.720   2.432 -0.0098  0.1217  0.0168
  417W        W 4617   8.904   3.785  11.831  0.2652 -0.1131  0.0017
  418W        W 4618   9.448   6.710   3.645 -0.2854  0.0343 -0.1001
  419W        W 4619   7.037   1.991  11.443 -0.0442 -0.0576  0.2394
  420W        W 4620   8.285   2.035   9.658 -0.0128  0.2963  0.1843
  421W        W 4621   2.735   4.200  10.747  0.2508 -0.5223 -0.1563
  422W        W 4622   5.959   3.433  10.768  0.1847  0.0984  0.2430
  423W        W 4623   8.366   4.640   8.596 -0.0362  0.3284  0.0326
  424W        W 4624  10.118   4.419  10.944  0.0183  0.2211  0.0593
  425W        W 4625   4.539   4.924   1.354 -0.2030 -0.1042  0.0408
  426W        W 4626   1.442   6.520   4.043 -0.0647  0.0764 -0.0507
  427W        W 4627   5.553   3.930  10.892  0.0987 -0.0108 -0.0736
  428W        W 4628   3.944  10.321   9.453  0.3714 -0.3547  0.1084
  429W        W 4629   4.891   4.562   0.998  0.1342  0.1433  0.1082
  430W        W 4630   7.062   2.505   9.992  0.0560  0.2213 -0.0287
  431W        W 4631   6.166   1.566   1.706  0.1320  0.1654  0.2839
  432W        W 4632   7.674   9.227   2.853 -0.4034 -0.0986  0.1368
  433W        W 4633   1.800   1.400   0.100  0.1501  0.1011  0.0036
  434W        W 4634   3.451   0.729  12.283  0.1875 -0.0564  0.0442
  435W        W 4635   0.727  10.182   2.702  0.0970 -0.3136 -0.1223
  436W        W 4636   9.926   0.126  11.557 -0.1528 -0.2652 -0.1889
  437W        W 4637  10.484   2.012   3.751  0.0805  0.0753  0.0639
  438W        W 4638   9.292   5.396  11.340  0.2528  0.2400 -0.2494
  439W        W 4639   9.892   8.312  10.388 -0.1715 -0.1699  0.0381
  440W        W 4640   6.471   7.438   1.744 -0.0988  0.2801  0.0031
  441W        W 4641   2.012   0.496  10.874  0.1705  0.4413 -0.3695
  442W        W 4642   7.725   8.588   2.279  0.1875 -0.2243 -0.1365
  443W        W 4643   5.841   2.309  10.207  0.2991 -0.2539 -0.2205
  444W        W 4644   6.993   3.384  10.014 -0.4237  0.2614  0.0183
  445W        W 4645   5.596   9.004   2.899 -0.1325 -0.0173  0.3433
  446W        W 4646   6.598   8.431   9.473  0.0233  0.3378 -0.2072
  447W        W 4647   9.980   1.157  13.012  0.0235 -0.1941  0.1925
  448W        W 4648   6.710   4.681   2.064  0.0275  0.0572 -0.0502
  449W        W 4649   9.040   7.738   9.634 -0.2811 -0.3042  0.1301
  450W        W 4650   1.743   6.879  11.162  0.1756  0.0591 -0.2063
  451W        W 4651   5.840   7.052   4.961 -0.0409  0.0851  0.4839
  452W        W 4652   4.927   4.693   2.270 -0.1846  0.1627  0.1697
  453W        W 4653  10.206   5.797  11.454  0.0889 -0.0608 -0.0820
  454W        W 4654   4.167   6.958   4.700 -0.1402 -0.2480 -0.3473
  455W        W 4655   0.508   6.964   1.808  0.1670 -0.0234  0.1427
  456W        W 4656   7.942   8.990  10.081 -0.0744  0.0008  0.0660
  457W        W 4657   3.076   0.671  12.786 -0.2304  0.0315 -0.0014
  458W        W 4658   8.837   5.452  12.229 -0.0037 -0.2303 -0.0196
  459W        W 4659   5.034   5.801  12.512  0.1147  0.1461  0.0370
  460W        W 4660   8.064   3.715  11.241 -0.0237  0.0363  0.4107
  461W        W 4661  10.512   8.936   3.989  0.0770 -0.3368 -0.1039
  462W        W 4662   1.846   6.696   0.665  0.1169  0.2377  0.0602
  463W        W 4663   8.930   6.074  11.359  0.2389  0.2172 -0.2522
  464W        W 4664  10.430   4.819  11.817  0.0081 -0.0140  0.1653
  465W        W 4665   9.910   3.816   1.623  0.0430 -0.0909 -0.1156
  466W        W 4666   6.075   5.477  12.709  0.2840  0.2291 -0.3618
  467W        W 4667   4.190   8.976   0.129 -0.1611 -0.2090  0.1396
  468W        W 4668   5.736   8.371   8.998 -0.3812 -0.2294  0.1638
  469W        W 4669   6.237   6.911   8.169  0.1422  0.3234 -0.0058
  470W        W 4670   5.227   3.015   0.108 -0.0004 -0.0726  0.2031
  471W        W 4671   2.403   2.805   3.232 -0.1168  0.3159 -0.2232
  472W        W 4672   6.026   7.287   9.789  0.1829 -0.0852  0.2454
  473W        W 4673   1.151   9.642  13.036  0.0371 -0.0298  0.1498
  474W        W 4674   2.177  10.533   9.116  0.2661  0.2631  0.1105
  475W        W 4675  10.056   0.791   3.588 -0.0436  0.2434  0.3384
  476W        W 4676   0.473   5.749  12.749  0.0590 -0.0458  0.2745
  477W        W 4677   0.262  10.371   3.458  0.2814  0.0596 -0.3322
  478W        W 4678   8.268   3.360   0.042 -0.0559 -0.0864 -0.0292
  479W        W 4679   9.713   0.966   2.694  0.0098  0.2797  0.2832
  480W        W 4680   7.857   6.355  10.840  0.2060 -0.2816  0.0133
  481W        W 4681   2.460   1.412   9.214 -0.1310  0.1982  0.2454
  482W        W 4682   6.785   6.804   1.806  0.5777 -0.1738  0.0344
  483W        W 4683   7.754   0.978   2.588 -0.1693 -0.1389  0.3006
  484W        W 4684   7.600   6.879  12.467 -0.2892  0.1841 -0.0556
  485W        W 4685   4.014   3.512  11.432  0.3471  0.0288  0.0419
  486W        W 4686   5.403   5.624   3.476 -0.3300  0.0569 -0.0087
  487W        W 4687   9.010   0.213   1.975  0.0616  0.0930  0.2123
  488W        W 4688   9.829   6.645   0.648 -0.2526 -0.0659 -0.0627
  489W        W 4689   5.166   0.813   1.530  0.1471 -0.0801  0.1790
  490W        W 4690   9.432   1.909  13.162  0.0120  0.0401  0.3131
  491W        W 4691   8.477   5.186   1.442  0.1440 -0.2532  0.4604
  492W        W 4692   7.567   3.714   1.356 -0.1943 -0.3423 -0.1643
  493W        W 4693   2.193   4.305   9.882 -0.0337  0.1459 -0.0972
  494W        W 4694   3.429   4.738   3.941 -0.0877 -0.2345 -0.1312
  495W        W 4695   9.955   4.803   0.614 -0.1837  0.0903 -0.0803
  496W        W 4696   4.933   1.732   1.220 -0.2659  0.0662  0.1997
  497W        W 4697   4.329   1.188   0.011 -0.2268 -0.1727 -0.2973
  498W        W 4698  10.419   0.325  13.273 -0.2877 -0.1514 -0.1180
  499W        W 4699   7.409   6.509   3.278 -0.2219  0.1158  0.1337
  500W        W 4700   9.066   2.778   0.311  0.1937 -0.0272 -0.1573
  501W        W 4701   5.778   0.197  12.519  0.0468 -0.0240 -0.1070
  502W        W 4702   9.474   7.226  12.028 -0.0950 -0.1703  0.0402
  503W        W 4703   0.562   0.447   5.044 -0.4306  0.0305  0.0180
  504W        W 4704   0.676   5.855  10.753  0.3080  0.1327 -0.1307
  505W        W 4705   4.185   6.727  10.214 -0.0703 -0.1345  0.0637
  506W        W 4706   9.362   2.925  11.667  0.0830 -0.1350  0.0514
  507W        W 4707   9.006  10.392  10.108 -0.0610  0.3572  0.0227
  508W        W 4708   9.439   5.305   9.714  0.0713 -0.2347  0.1058
  509W        W 4709   1.058   8.795  11.651  0.0409  0.1562 -0.3837
  510W        W 4710   8.623   1.368  11.939  0.3292  0.0981 -0.0033
  511W        W 4711   1.447   9.834   3.269  0.0226  0.1676 -0.1222
  512W        W 4712   8.070   3.476   4.525  0.1437  0.3131 -0.1879
  513W        W 4713   8.028   7.408   0.343 -0.1010 -0.2712 -0.0555
  514W        W 4714  10.028   0.593   2.788 -0.2787 -0.0939 -0.1019
  515W        W 4715   6.092   2.924   3.287  0.0086 -0.0782  0.2643
  516W        W 4716   9.752   8.444   9.515 -0.2566  0.0411  0.0775
  517W        W 4717   2.995   2.869   2.356  0.0955 -0.2644  0.0709
  518W        W 4718   9.999  10.449   8.894 -0.2075 -0.0098 -0.0013
  519W        W 4719   1.874   8.284  13.235  0.2586  0.2119 -0.3925
  520W        W 4720   1.175   7.600   3.108  0.0901  0.2387 -0.0231
  521W        W 4721   5.697  10.229   2.535  0.1723 -0.0400 -0.0690
  522W        W 4722   6.908   4.769  11.943  0.1038  0.1912  0.2801
  523W        W 4723   3.105   2.358  12.783 -0.4183 -0.1440 -0.2559
  524W        W 4724   9.153   1.722  10.350 -0.1336  0.1431  0.0176
  525W        W 4725   9.092   1.508  12.965  0.1186  0.0083  0.1489
  526W        W 4726   1.711   8.203  11.766 -0.4014  0.1587 -0.0169
  527W        W 4727   7.751   0.374  10.993 -0.3583  0.2353 -0.0963
  528W        W 4728   1.252   4.775  12.666  0.0318  0.3897  0.1657
  529W        W 4729  10.214   7.911   4.545 -0.1975 -0.1178 -0.0390
  530W        W 4730   9.412   2.858   9.845  0.3373 -0.0015  0.1621
  531W        W 4731   6.157   7.073  11.275 -0.3149 -0.2175 -0.1223
  532W        W 4732   7.546   3.133   3.577 -0.1182  0.0565  0.0632
  533W        W 4733   7.214   5.606   3.378 -0.2167  0.0643 -0.1064
  534W        W 4734   4.915   0.994   2.978  0.0784  0.2170 -0.0827
  535W        W 4735   2.711   8.270   3.617  0.3342  0.1558  0.0888
  536W        W 4736  10.263   9.615  13.204  0.0260 -0.1141 -0.0449
  537W        W 4737   7.087   4.723  11.401 -0.2008 -0.0727  0.1753
  538W        W 4738   5.689   6.472   3.796  0.3085  0.0761  0.1799
  539W        W 4739   2.776   7.882   3.006 -0.1799 -0.1782  0.1843
  540W        W 4740   5.674   5.954   9.129 -0.1540  0.6456 -0.2657
  541W        W 4741   5.947   1.481  11.827 -0.0546 -0.4699  0.4170
  542W        W 4742   5.648   6.053  10.478 -0.3237  0.0337 -0.1065
  543W        W 4743   5.731   5.258   3.813 -0.0776 -0.3988 -0.1943
  544W        W 4744   1.157   8.733  11.182  0.0371  0.3045 -0.3463
  545W        W 4745   0.325   8.101   1.091 -0.2607 -0.3061  0.2565
  546W        W 4746   7.359   2.767   2.810  0.1480 -0.3480 -0.2773
  547W        W 4747   8.642   0.888  12.726  0.0315 -0.1284  0.1618
  548W        W 4748   5.927   0.285   1.686 -0.2642 -0.1549  0.0659
  549W        W 4749   9.724   0.626   1.518  0.4268 -0.0141 -0.1735
  550W        W 4750   0.889   7.648  10.600 -0.1267  0.0899  0.4422
  551W        W 4751   2.023   0.018   0.013 -0.1525 -0.0761 -0.1722
  552W        W 4752   5.969   6.229  11.026 -0.2117  0.1851 -0.0999
  553W        W 4753   0.876   1.206   5.158 -0.0896 -0.2999 -0.0378
  554W        W 4754   2.177   8.675   2.921 -0.4787 -0.0348  0.1661
  555W        W 4755   8.375   9.108   2.730  0.0967 -0.0222  0.1464
  556W        W 4756   1.716   2.097   8.335  0.2386  0.0927 -0.0610
  557W        W 4757   4.249   2.398   2.357  0.2106 -0.1891 -0.0688
  558W        W 4758   3.837   1.667  11.357 -0.1508  0.0014  0.0357
  559W        W 4759  10.364   2.749   2.999 -0.3422 -0.0760 -0.0504
  560W        W 4760   6.282   9.265   0.630  0.0729 -0.1030  0.0834
  561W        W 4761   0.327   9.625  13.235  0.4223  0.0574  0.2116
  562W        W 4762   0.995   2.006   9.724  0.1959 -0.2118  0.1590
  563W        W 4763   4.185   5.466   1.988  0.1904  0.3728  0.1972
  564W        W 4764   1.307  10.251   0.501 -0.2386  0.1580  0.0634
  565W        W 4765   4.966   4.035  12.116  0.0227  0.2187  0.0936
  566W        W 4766   2.665   8.320   1.778 -0.0140 -0.3813  0.0880
  567W        W 4767   2.600  10.535   8.359 -0.2086  0.1363 -0.0347
  568W        W 4768  10.543   6.092   3.538 -0.2502  0.3487  0.3208
  569W        W 4769   9.110   0.442  11.476 -0.0834  0.0456  0.0078
  570W        W 4770   5.064   9.046   0.587 -0.2040  0.0090  0.0407
  571W        W 4771   9.250   4.209  11.694 -0.3507  0.1712  0.0796
  572W        W 4772   9.412   5.238  11.921 -0.4029  0.0059  0.2328
  573W        W 4773  10.340   4.863  11.071 -0.1682 -0.0649 -0.2192
  574W        W 4774   1.872   6.144   2.231  0.1599 -0.0699  0.2672
  575W        W 4775   4.605   5.090   0.166 -0.0463  0.3323 -0.1296
  576W        W 4776   0.440   9.051  11.139  0.1147 -0.2215  0.0605
  577W        W 4777   5.192   2.042   0.712 -0.1378 -0.0288  0.1268
  578W        W 4778   9.994   3.001   8.672  0.0424  0.4096 -0.1711
  579W        W 4779   9.981   4.676  12.129 -0.2483  0.6063 -0.0280
  580W        W 4780   1.672   9.611   4.372 -0.3990  0.0077 -0.1030
  581W        W 4781   2.884   7.845  12.156 -0.3187  0.0152 -0.1713
  582W        W 4782   6.757   1.975  11.889  0.0884  0.2377  0.0180
  583W        W 4783   4.378   7.080   2.553  0.0643 -0.0692  0.0477
  584W        W 4784   6.931   6.909   4.549  0.0113  0.0412 -0.0061
  585W        W 4785   6.942  10.150  11.156  0.0253  0.0073  0.2172
  586W        W 4786   0.965   9.820   2.554  0.0746 -0.2005  0.4114
  587W        W 4787  10.213  10.330   2.818 -0.0670  0.2677  0.0897
  588W        W 4788   2.550   6.388   2.942  0.1034  0.2398  0.2112
  589W        W 4789   1.725   6.237   0.742  0.3653 -0.0359 -0.1853
  590W        W 4790   2.879   4.796  11.969 -0.1564 -0.0632 -0.0837
  591W        W 4791   9.786   4.352   3.039 -0.1274  0.2869  0.1614
  592W        W 4792   6.122   8.358   1.722 -0.0328 -0.0746  0.2910
  593W        W 4793   2.070   5.993   2.741 -0.3592  0.0916 -0.1435
  594W        W 4794   2.395   7.589   9.164  0.1878  0.2702 -0.3698
  595W        W 4795   4.095   2.783  12.210 -0.0355 -0.1933 -0.0378
  596W        W 4796   8.320   4.685  10.142  0.2881  0.2011  0.1411
  597W        W 4797   6.246   8.548  11.262  0.3064 -0.0772  0.1184
  598W        W 4798   1.359   1.226   4.320  0.0507 -0.2066  0.2564
  599W        W 4799   0.696  10.230   3.703  0.3243 -0.2016  0.0611
  600W        W 4800   2.925   6.108   9.834  0.0869 -0.1442  0.1427
  601W        W 4801   3.651   7.456  10.649 -0.1744  0.2113  0.1177
  602W        W 4802   1.315   9.146   1.515 -0.1479 -0.1733  0.0066
  603W        W 4803   6.168  10.171   0.354  0.0076 -0.3044 -0.0164
  604W        W 4804   0.305   8.919  12.149  0.2013  0.2238 -0.2272
  605W        W 4805   8.547   4.882   3.401  0.1914 -0.1609  0.0984
  606W        W 4806   5.574   7.730  10.016 -0.0520  0.4856  0.3119
  607W        W 4807   7.080   3.430   3.561 -0.0568  0.1295 -0.1674
  608W        W 4808   7.269   9.406   2.598 -0.0857 -0.2517  0.2007
  609W        W 4809   5.972   6.319   1.885 -0.1061  0.1829 -0.1801
  610W        W 4810   0.098   5.302   8.200 -0.2729  0.1895 -0.2321
  611W        W 4811  10.342   3.218  10.285 -0.1103 -0.0832 -0.1020
  612W        W 4812   4.965   7.705   1.267 -0.1125 -0.1439  0.2893
  613W        W 4813   8.222   1.266   3.413 -0.4020 -0.3426  0.0049
  614W        W 4814   8.246   4.675   2.617 -0.1506 -0.0811  0.0727
  615W        W 4815   5.941   9.827   3.025  0.0279 -0.3062  0.1549
  616W        W 4816  10.306   0.631  12.109 -0.2087  0.0288  0.0708
  617W        W 4817   9.272   1.469   3.798 -0.2488 -0.1249 -0.1900
  618W        W 4818   3.228   9.210  12.907 -0.0364 -0.1806 -0.3121
  619W        W 4819   8.906   5.853   0.788 -0.3765 -0.3509  0.1505
  620W        W 4820   5.345   6.630   9.085 -0.1895 -0.0528  0.0684
  621W        W 4821   5.036   3.675  10.595 -0.0262  0.3553 -0.0214
  622W        W 4822   6.897   0.348  10.573 -0.1538  0.0306 -0.1133
  623W        W 4823  10.271   3.507  12.512  0.2654  0.3033  0.0326
  624W        W 4824  10.311   4.840   4.177 -0.2256  0.0216 -0.1024
  625W        W 4825   1.721   6.539  10.308  0.0272 -0.3682  0.0501
  626W        W 4826   7.943   6.119   4.852  0.3006 -0.1152 -0.1103
  627W        W 4827   9.098   2.154   1.021 -0.2126 -0.3051  0.3563
  628W        W 4828   6.444  10.258  11.872 -0.0428 -0.3861  0.0170
  629W        W 4829   0.686   5.982   2.948 -0.0654  0.0646  0.2561
  630W        W 4830   9.511   1.053   3.610 -0.0719  0.1320  0.2796
  631W        W 4831   6.828   6.379   3.190  0.0229  0.1693  0.1987
  632W        W 4832   0.042   9.436  12.311 -0.1770  0.0134 -0.2932
  633W        W 4833   4.615   7.000   3.869 -0.3124 -0.1235  0.1069
  634W        W 4834   0.745   9.121   8.910 -0.0462 -0.3013  0.0732
  635W        W 4835   7.582   1.290   4.341  0.3880 -0.1857 -0.0068
  636W        W 4836   0.301   3.484   1.773 -0.0922  0.2664 -0.2174
  637W        W 4837   6.105   8.909   2.562 -0.1471  0.0212 -0.1283
  638W        W 4838   3.423   3.967   1.416 -0.2591 -0.0739  0.0913
  639W        W 4839   2.805  10.234   3.853  0.0513  0.0729  0.3605
  640W        W 4840   1.319   5.724   3.450  0.0645  0.0691 -0.0755
  641W        W 4841   5.104   1.617  11.425  0.1151  0.3738 -0.0855
  642W        W 4842   8.414   8.911   0.978  0.2314  0.0477 -0.1480
  643W        W 4843   6.055  10.258  10.702  0.5174  0.1375 -0.1385
  644W        W 4844   9.264   9.385   1.634 -0.3786 -0.1605 -0.1766
  645W        W 4845   7.212   8.998   3.087  0.0137 -0.0596  0.1923
  646W        W 4846   5.192   4.311   3.745 -0.0845  0.1768  0.1467
  647W        W 4847   5.367   7.540   3.667 -0.1381  0.0202  0.1523
  648W        W 4848   2.810   7.567   1.249  0.2305 -0.0089  0.0946
  649W        W 4849   3.835   1.671   3.607 -0.0877  0.0655  0.0201
  650W        W 4850   1.545  10.303   0.015 -0.0022  0.0381 -0.1631
  651W        W 4851  10.442   0.070  10.359  0.2870  0.1477 -0.2108
  652W        W 4852   9.461   7.911   2.855 -0.2496 -0.0625  0.0869
  653W        W 4853   4.126   4.499   4.561  0.0371  0.0825  0.0141
  654W        W 4854   5.500   9.479  13.193  0.0500  0.2025  0.1823
  655W        W 4855   9.577   0.613   1.020 -0.1124  0.2083 -0.0890
  656W        W 4856   1.750   5.493   1.578  0.0692  0.1859 -0.1552
  657W        W 4857   2.417   1.833   9.337 -0.0355 -0.3752 -0.1690
  658W        W 4858   1.016   0.109   1.841 -0.0501  0.3788 -0.3088
  659W        W 4859   9.415   5.685   0.720  0.2715  0.2494 -0.0847
  660W        W 4860   5.979   8.390  12.869  0.0699 -0.1767  0.4254
  661W        W 4861   7.169  10.378  12.228 -0.0412  0.0316  0.0538
  662W        W 4862   6.591   7.288   9.647 -0.0292  0.2819  0.0377
  663W        W 4863   5.186   6.877   0.513  0.0866 -0.0848  0.0058
  664W        W 4864   3.808   6.722   0.527 -0.2744  0.0998  0.2196
  665W        W 4865   3.673   2.322  12.791  0.2680 -0.0466  0.1876
  666W        W 4866   6.376   4.576   4.335  0.0465  0.4460  0.1723
  667W        W 4867   1.868   3.184   1.305  0.2134  0.0014 -0.3139
  668W        W 4868   6.426   7.481   3.779  0.1619 -0.1489  0.1630
  669W        W 4869  10.316   3.947  10.900  0.1138 -0.0780 -0.0126
  670W        W 4870   7.418   4.401   0.817 -0.0295 -0.0767  0.0337
  671W        W 4871   0.413   4.585   8.955  0.1970 -0.0329  0.2532
  672W        W 4872   1.976   3.520   8.880  0.1535 -0.2783 -0.0347
  673W        W 4873   7.138   1.743   9.258  0.0989 -0.3705  0.0434
  674W        W 4874   8.611   6.873  11.618  0.0349  0.0520  0.1400
  675W        W 4875  10.527   3.744   2.253  0.1550  0.2110  0.2301
  676W        W 4876   1.104  10.048   0.077  0.1454 -0.1111  0.1848
  677W        W 4877   2.447   9.307   0.348  0.0972  0.0658 -0.3346
  678W        W 4878   7.698   8.972   4.178  0.3003  0.5213  0.0933
  679W        W 4879   4.517  10.126  12.781 -0.0976  0.0510  0.1534
  680W        W 4880   8.481  10.134   3.822  0.5064  0.0325  0.1473
  681W        W 4881   9.276   9.534   2.229 -0.0999 -0.0183 -0.0526
  682W        W 4882   5.043   4.473   8.357  0.3777  0.0039  0.2083
  683W        W 4883   3.473   5.461  10.820 -0.0414  0.2550 -0.0383
  684W        W 4884  10.104   9.721  10.404  0.0447  0.2062  0.0118
  685W        W 4885   7.626   6.257   9.002  0.0696  0.3381 -0.4270
  686W        W 4886   4.536   7.389  12.701 -0.4153  0.2528  0.0605
  687W        W 4887  10.421   9.392  11.329 -0.0756 -0.3843  0.0982
  688W        W 4888   4.772   5.381   4.036  0.1762  0.3806 -0.1120
  689W        W 4889   9.816   7.446   1.617  0.1244  0.0162  0.0421
  690W        W 4890   4.849   9.776  10.741 -0.0737 -0.0393  0.4610
  691W        W 4891   8.462   1.074  11.175  0.0416 -0.1923 -0.1503
  692W        W 4892   2.262   8.498   2.455  0.1170  0.1126  0.0458
  693W        W 4893   9.804   4.416   3.506  0.0835  0.1617 -0.1471
  694W        W 4894   1.474   5.234  10.326 -0.4149 -0.0899 -0.0656
  695W        W 4895   6.844   5.352   4.010  0.2296 -0.1928  0.0480
  696W        W 4896   3.631   5.475   0.265  0.1943  0.0824  0.0659
  697W        W 4897   4.467  10.503   1.869  0.0618  0.0759 -0.2210
  698W        W 4898   7.640   7.234   0.672  0.1526  0.0082  0.0532
  699W        W 4899   0.506   5.868  11.751  0.0193  0.2130 -0.3237
  700W        W 4900   2.399   5.384  10.008  0.1587 -0.1392  0.0018
  701W        W 4901   1.868   7.770   2.654 -0.1467  0.0209  0.1071
  702W        W 4902   7.459   4.173  13.222 -0.0409 -0.0331  0.0747
  703W        W 4903   7.950   1.419  10.032  0.0521  0.0050  0.0663
  704W        W 4904   0.632   0.488   8.740 -0.0375  0.0526  0.0944
  705W        W 4905   0.481   1.476  12.189  0.1578  0.1450 -0.2127
  706W        W 4906   5.997   0.141   0.488  0.1149  0.1285  0.1294
  707W        W 4907   4.721   1.906   0.741  0.1289 -0.0559  0.2866
  708W        W 4908   6.595   3.943   1.558  0.0579  0.0713  0.1990
  709W        W 4909   7.684   1.714  12.078  0.0248  0.1427 -0.1722
  710W        W 4910  10.493  10.063   1.927  0.1176  0.1230  0.3576
  711W        W 4911   1.128   0.449  12.190  0.2093 -0.1460  0.0299
  712W        W 4912   7.785   3.411   4.910 -0.1992  0.0682 -0.1392
  713W        W 4913   7.917  10.429  10.936 -0.0912  0.1050 -0.4696
  714W        W 4914   7.274   2.241   1.015 -0.0848 -0.2182  0.1908
  715W        W 4915   6.827   1.545   4.018 -0.3466 -0.0295  0.0274
  716W        W 4916   2.029   4.077   1.885  0.1855 -0.0677 -0.0699
  717W        W 4917   9.193   4.929   9.481  0.0537  0.0080  0.1729
  718W        W 4918   4.160   7.121   1.128  0.2062  0.4068  0.0980
  719W        W 4919   0.849   6.613   9.436 -0.0138 -0.0931 -0.1969
  720W        W 4920   8.337   3.176   4.793 -0.1652  0.2531 -0.2478
  721W        W 4921   7.736   4.117   1.107 -0.0299  0.1021  0.4028
  722W        W 4922   9.375   8.323   3.851 -0.1233 -0.0776  0.1502
  723W        W 4923   6.963   0.259   1.950  0.1389 -0.0229  0.2163
  724W        W 4924   2.077   9.996  12.752  0.1781 -0.4106  0.1952
  725W        W 4925   1.433   3.379  13.032  0.0909  0.0331  0.1264
  726W        W 4926   3.370   5.066   1.438  0.2996  0.3671 -0.2000
  727W        W 4927   4.655   5.480  12.281  0.3321 -0.2156  0.0286
  728W        W 4928   0.665   7.544   1.246 -0.2816  0.1482 -0.1640
  729W        W 4929   6.995   4.338  11.108 -0.0874 -0.3501  0.0229
  730W        W 4930   7.972   7.252  10.009 -0.0595  0.0237  0.2035
  731W        W 4931   8.324   3.297   3.600  0.1386  0.2878 -0.3402
  732W        W 4932   3.833   2.567   2.156 -0.0702 -0.2187  0.2218
  733W        W 4933   4.528   5.777   3.934  0.1542  0.0016  0.0501
  734W        W 4934   2.343   1.029   4.167  0.0504  0.3695 -0.1318
  735W        W 4935   9.118   3.438   4.543  0.0774 -0.0114 -0.1435
  736W        W 4936   6.757   1.228   2.967  0.0880 -0.0102  0.0015
  737W        W 4937   7.577   7.173   0.045 -0.1167 -0.4221 -0.0878
  738W        W 4938  10.174   8.940  11.473  0.3103  0.0527  0.2203
  739W        W 4939   7.314  10.376   2.102 -0.0589  0.1284 -0.4797
  740W        W 4940   7.949   7.237   2.297 -0.0008  0.1451  0.0653
  741W        W 4941   0.834   6.680   0.090  0.2732 -0.1146  0.2080
  742W        W 4942   3.983   6.722  12.717  0.0845  0.2432 -0.0334
  743W        W 4943   7.977   5.488   2.827  0.0621 -0.2013 -0.0574
  744W        W 4944   6.339   8.803   1.869 -0.0094 -0.0112  0.0477
  745W        W 4945   2.902   4.753   3.985 -0.4353 -0.0483 -0.0239
  746W        W 4946   3.962   6.877  10.645 -0.0747  0.0534  0.3342
  747W        W 4947   8.994   1.038   3.990 -0.0102 -0.0945  0.1336
  748W        W 4948   7.635   7.630   8.947  0.0177 -0.0243  0.0503
  749W        W 4949   4.022   1.253   2.917 -0.0141 -0.0175  0.1208
  750W        W 4950   2.424   6.722  12.640 -0.0347 -0.0208  0.0213
  751W        W 4951   4.639   4.698   9.082  0.2870 -0.0469 -0.1522
  752W        W 4952   4.773   5.273   1.049  0.1569  0.1363 -0.4070
  753W        W 4953   5.266   2.651   3.110 -0.2671  0.1020 -0.3507
  754W        W 4954   9.209   3.692  10.500 -0.2632  0.1234 -0.1026
  755W        W 4955   2.096   1.919   9.729 -0.0797 -0.1861  0.4960
  756W        W 4956   0.826   9.519   1.056  0.0409 -0.2978 -0.3305
  757W        W 4957   7.253   5.233   1.546  0.2259  0.0345 -0.1475
  758W        W 4958   9.722   8.220   0.233 -0.0975 -0.2935 -0.1107
  759W        W 4959   4.679   2.300  10.920  0.1475  0.0768 -0.0160
  760W        W 4960  10.270   4.834  10.300  0.0821  0.0416  0.1987
  761W        W 4961   6.388   6.313   8.664 -0.0291  0.0933 -0.1847
  762W        W 4962   6.213   9.054  11.258  0.1829 -0.0326 -0.2125
  763W        W 4963   7.715   6.742  10.103  0.1068  0.0274  0.1686
  764W        W 4964   7.198   1.691   1.319  0.4227 -0.3422  0.2558
  765W        W 4965   7.455   4.225  11.418  0.2841 -0.2651  0.0773
  766W        W 4966   1.254   1.202   0.499  0.2353  0.1765  0.0080
  767W        W 4967   5.341   4.409   3.089  0.1415  0.3387  0.1192
  768W        W 4968   4.759   4.612   3.764 -0.2699 -0.0332 -0.0051
  769W        W 4969   1.250   2.235   1.735 -0.1325  0.0547 -0.2155
  770W        W 4970   5.967   6.390  12.874 -0.3047 -0.1625  0.0915
  771W        W 4971   4.694   2.040   2.989  0.5725  0.2504  0.0095
  772W        W 4972   6.258   3.388  12.453  0.0342 -0.1071 -0.3029
  773W        W 4973  10.538   8.148  12.748  0.0955 -0.0573  0.1915
  774W        W 4974   1.335   0.820  11.064  0.1230 -0.1166 -0.2838
  775W        W 4975   0.368   3.909   2.007 -0.0682  0.0438  0.0265
  776W        W 4976   9.199   2.690   2.008  0.2202 -0.0027 -0.0181
  777W        W 4977   1.654   7.719   8.973  0.0826 -0.1286  0.0143
  778W        W 4978   7.399   4.330   2.577  0.0598 -0.0819  0.1259
  779W        W 4979   5.026  10.509  11.238 -0.0731  0.2241 -0.1006
  780W        W 4980   9.192   9.789   9.189 -0.1721 -0.0125 -0.1008
  781W        W 4981   0.423   7.177   9.360  0.1833 -0.0014  0.4140
  782W        W 4982   0.898   2.471  10.512  0.0881  0.0792  0.0968
  783W        W 4983   2.638   2.574   0.576  0.2936  0.1907  0.0474
  784W        W 4984   3.010   2.972  12.206  0.0990 -0.1201 -0.0502
  785W        W 4985   0.109   5.669   4.109 -0.1060  0.0556 -0.1866
  786W        W 4986   3.953   8.326   1.623 -0.0941  0.1875 -0.1991
  787W        W 4987   4.188   2.543   9.958 -0.2005 -0.1592  0.1597
  788W        W 4988   5.551   2.790  10.054 -0.0312  0.1959  0.1930
  789W        W 4989   7.155   4.692  13.131 -0.0070  0.4670  0.2547
  790W        W 4990   3.197   6.076   0.855 -0.0959  0.1088 -0.1313
  791W        W 4991   9.918   1.605   0.911  0.1760 -0.1589 -0.0956
  792W        W 4992   2.971   8.927  11.224  0.0130  0.2187 -0.0164
  793W        W 4993   6.621   3.672   5.019  0.2746 -0.2184  0.3470
  794W        W 4994   7.510   8.155   0.247 -0.0078 -0.1487 -0.0829
  795W        W 4995   0.821   7.546   0.407 -0.0020 -0.3909  0.1111
  796W        W 4996   3.401   5.385   2.513  0.1999  0.0141  0.2586
  797W        W 4997   8.446   7.686   1.155  0.1211 -0.2477 -0.1252
  798W        W 4998   1.082   9.432   9.182 -0.2109 -0.0002 -0.1521
  799W        W 4999   0.867   6.195  11.942  0.1045 -0.0256 -0.3749
  800W        W 5000   3.672   9.712   0.811 -0.0941 -0.3151 -0.0610
  801W        W 5001   2.331   1.609   3.386  0.0327 -0.1119 -0.3594
  802W        W 5002   3.178   6.559   8.835 -0.1813  0.3629 -0.0861
  803W        W 5003   5.153  10.106   1.817 -0.1691  0.1628  0.1401
  804W        W 5004  10.360   3.342  13.025  0.0750  0.1986  0.2773
  805W        W 5005   7.704   6.850  11.311 -0.0784 -0.1223  0.1256
  806W        W 5006   2.647   3.044   0.092  0.2516 -0.1142 -0.0321
  807W        W 5007  10.356   6.086  11.999 -0.4497 -0.0511  0.1456
  808W        W 5008   9.556   9.385  12.160  0.0297 -0.2051 -0.0422
  809W        W 5009   7.009   7.576  12.779 -0.1696  0.1532  0.2076
  810W        W 5010   4.364   7.533  12.247  0.0951 -0.2010 -0.1412
  811W        W 5011   5.043   8.121  13.051  0.2155  0.1706 -0.0961
  812W        W 5012   6.465   9.585  11.483 -0.1639  0.0790 -0.2083
  813W        W 5013   7.485   5.007   1.898 -0.1838 -0.0902 -0.3051
  814W        W 5014   0.648   0.673   2.425 -0.2678  0.1103 -0.2698
  815W        W 5015   9.138   2.363   1.646  0.1596 -0.1326  0.3140
  816W        W 5016  10.545   0.724   2.540 -0.0083 -0.0561  0.0990
  817W        W 5017   0.979   6.848  10.963  0.3952 -0.0944  0.1077
  818W        W 5018   9.107   0.430  12.601  0.1397  0.1152  0.0878
  819W        W 5019   6.317   9.891   0.763 -0.1131  0.2815  0.0165
  820W        W 5020   5.080   4.443  11.798  0.1440 -0.1269 -0.1327
  821W        W 5021   2.768   5.741  11.166 -0.2717 -0.1018 -0.4042
  822W        W 5022  10.291   4.194   9.653 -0.5575  0.1143  0.3712
  823W        W 5023   0.978   2.089   3.923 -0.1462 -0.2227 -0.1240
  824W        W 5024   0.964   0.129   9.809  0.1069 -0.0256 -0.0116
  825W        W 5025   6.798   4.556   9.701  0.1441 -0.2606 -0.0549
  826W        W 5026   0.648   6.841  12.719  0.2390  0.2198 -0.3474
  827W        W 5027   4.048   2.779  10.744  0.0213 -0.2251  0.3501
  828W        W 5028   8.413   2.942  10.128 -0.2157 -0.2282  0.0642
  829W        W 5029   4.117   2.933   4.426  0.1768 -0.3745 -0.0700
  830W        W 5030   0.091   3.514   2.650 -0.1476 -0.0066  0.3079
  831W        W 5031  10.010   9.156   1.837 -0.4973 -0.2816 -0.1318
  832W        W 5032   2.239   7.611   2.196 -0.0231  0.0262 -0.0745
  833W        W 5033   5.972   3.114  12.119 -0.3559  0.0153 -0.3378
  834W        W 5034   1.979   8.627   3.626  0.1680 -0.2455  0.1047
  835W        W 5035   8.584   5.948  12.325  0.2438 -0.0344 -0.2213
  836W        W 5036   0.554   7.324   3.849 -0.1403 -0.1410 -0.1830
  837W        W 5037   6.580   2.814   9.178 -0.3125 -0.2365 -0.0255
  838W        W 5038   5.101   8.490   0.707 -0.2247  0.0367  0.2040
  839W        W 5039   9.316   2.343   3.908 -0.1162  0.0401 -0.2719
  840W        W 5040   7.507   5.533   5.352  0.0842 -0.0115 -0.1262
  841W        W 5041   2.919   0.284  10.909 -0.0543 -0.2396  0.0037
  842W        W 5042   3.821   2.156  11.620 -0.1526 -0.1412 -0.0132
  843W        W 5043   6.755   2.278   0.682 -0.1455  0.4219  0.3525
  844W        W 5044   7.525  10.001  12.061 -0.4346 -0.1921 -0.0306
  845W        W 5045   3.311  10.169  12.455  0.2927  0.0314 -0.2406
  846W        W 5046   1.254   8.486  10.106 -0.0866 -0.5460  0.2075
  847W        W 5047   2.993   9.452   2.297 -0.0091 -0.4212 -0.0219
  848W        W 5048   5.359   1.172   9.701 -0.1565 -0.2509  0.0846
  849W        W 5049   6.551   0.996   2.531 -0.1908 -0.0829  0.3025
  850W        W 5050   5.011   1.832  13.135 -0.4685 -0.2030  0.0514
  851W        W 5051   3.297   9.647  12.714  0.0336 -0.0524 -0.1098
  852W        W 5052   9.262   1.207  10.402 -0.0736 -0.2299 -0.2081
  853W        W 5053   4.221   3.186   9.326 -0.1773 -0.0056  0.1140
  854W        W 5054   1.653   9.484  11.376 -0.2595 -0.4162  0.0276
  855W        W 5055   1.016   1.368   3.179  0.4273  0.0472  0.0723
  856W        W 5056   0.350  10.535   4.069  0.0049 -0.1258  0.3704
  857W        W 5057   4.762   3.205  10.333  0.1320 -0.0112 -0.2059
  858W        W 5058   5.893   2.854  11.657 -0.1574  0.0169  0.0177
  859W        W 5059   1.156   8.455   0.375  0.0331  0.2194 -0.0008
  860W        W 5060   4.237   0.631  13.020  0.1941 -0.3585 -0.3014
  861W        W 5061   1.400   8.426   9.294 -0.1515  0.3175  0.1834
  862W        W 5062   9.120   6.714  10.061  0.0609 -0.2018  0.0713
  863W        W 5063   2.121   1.318   0.615  0.2702  0.0680 -0.3598
  864W        W 5064   0.744   0.759   9.236 -0.0226 -0.1808  0.1253
  865W        W 5065   2.379   6.100  12.084  0.0545 -0.0795 -0.4102
  866W        W 5066   8.947   8.562  11.253 -0.1963 -0.0034 -0.0177
  867W        W 5067   1.059   7.314   1.825  0.1536  0.5532 -0.1045
  868W        W 5068   6.967   2.484   2.997  0.1824 -0.1047  0.1774
  869W        W 5069   2.066   7.788   4.755  0.0032  0.4343  0.3404
  870W        W 5070   7.661   0.641  12.706  0.0346  0.0742  0.2301
  871W        W 5071   6.123   7.630  11.521  0.3123  0.2762  0.1444
  872W        W 5072   4.498   3.022  10.741  0.1752 -0.0265  0.3912
  873W        W 5073   0.615   6.841   8.879  0.2703  0.1165  0.1251
  874W        W 5074   8.944   4.551   0.588 -0.0036  0.0357 -0.0015
  875W        W 5075   0.405   3.136   9.122  0.0492 -0.1694 -0.1011
  876W        W 5076   8.164   4.153  10.212 -0.1345 -0.0355 -0.0341
  877W        W 5077  10.105   4.791   3.270  0.2522  0.3049  0.2891
  878W        W 5078   8.384   6.013   9.705  0.0843 -0.0011 -0.3404
  879W        W 5079   2.491   5.483   9.060  0.2812 -0.0619  0.2290
  880W        W 5080   8.935   3.560   2.329 -0.0608 -0.0464  0.2029
  881W        W 5081   8.675   2.765   4.271  0.0291 -0.1019 -0.1420
  882W        W 5082   1.823   1.029   2.769 -0.1514  0.0965 -0.0593
  883W        W 5083   7.562   6.498   9.635  0.0748  0.1509  0.0684
  884W        W 5084   7.174   8.837   3.550  0.0625  0.2105 -0.0506
  885W        W 5085   0.580   9.232  12.979  0.1551 -0.1931 -0.0861
  886W        W 5086   8.834   5.037   1.102  0.0977 -0.2257  0.1810
  887W        W 5087   1.401   3.084   2.158 -0.2927  0.0684 -0.0972
  888W        W 5088   0.451   7.173   2.303  0.1627  0.3122  0.1266
  889W        W 5089   5.905   4.781   0.639 -0.0740 -0.2154  0.0138
  890W        W 5090   9.238   0.342  10.987  0.2491  0.1583  0.2073
  891W        W 5091  10.231   0.682   1.871 -0.1571 -0.1390 -0.2589
  892W        W 5092  10.222   3.111  12.110  0.0561  0.0566  0.0855
  893W        W 5093   0.723   7.878   3.120 -0.0584  0.0271  0.0266
  894W        W 5094  10.196   6.753  10.935  0.1907 -0.2905 -0.0825
  895W        W 5095   0.276   7.183   1.352  0.1737  0.2307  0.1339
  896W        W 5096   1.162   2.406   2.255 -0.0590 -0.0354 -0.0798
  897W        W 5097   1.665   0.950   2.319  0.3270  0.0980  0.4893
  898W        W 5098   0.464   9.987  10.717  0.1605  0.1297  0.1997
  899W        W 5099   5.518  10.430   1.689 -0.3207  0.0452 -0.0772
  900W        W 5100   4.803   6.491   3.904  0.1514 -0.3984  0.2535
  901W        W 5101   8.348   3.025   1.760 -0.1296  0.0922 -0.1871
  902W        W 5102   7.156   6.617  11.479  0.1025  0.1677  0.0421
  903W        W 5103   8.252   5.769   1.384  0.0455 -0.0174 -0.0947
  904W        W 5104   9.537   2.130  10.968 -0.2001  0.1111  0.0391
  905W        W 5105   6.018   6.682   8.557 -0.1003 -0.0891  0.0602
  906W        W 5106   7.503   9.814  11.095 -0.0100  0.0974 -0.0865
  907W        W 5107   2.191   1.904  10.574 -0.2089 -0.1303  0.1802
  908W        W 5108   4.130   5.245  11.988 -0.2578 -0.1727 -0.1198
  909W        W 5109   9.797   8.502  11.603 -0.2885 -0.0497 -0.0623
  910W        W 5110   8.436   1.578   9.894 -0.2052  0.0264  0.0985
  911W        W 5111   8.891   6.388  10.430 -0.1401 -0.4635  0.0824
  912W        W 5112   6.572   7.794   3.309  0.1136 -0.1170  0.2061
  913W        W 5113   4.904   9.678  10.258  0.0035  0.1399 -0.0700
  914W        W 5114   0.513   8.914   9.835  0.0413 -0.2323 -0.3183
  915W        W 5115   2.395   2.887   4.214 -0.1914  0.1813  0.3185
  916W        W 5116   4.844   5.748   3.145 -0.1798  0.0416 -0.3619
  917W        W 5117   7.134   7.316   9.779 -0.1908  0.0141 -0.1173
  918W        W 5118   5.194   4.849   1.239  0.1411 -0.1167 -0.0923
  919W        W 5119  10.275   5.655   3.763  0.0265  0.2601  0.1682
  920W        W 5120   9.946   2.085  12.736 -0.2251 -0.0282  0.0447
  921W        W 5121   9.099   8.569   5.028 -0.0628  0.0993 -0.2920
  922W        W 5122  10.124   6.301   3.721  0.1025  0.2650 -0.0253
  923W        W 5123  10.491   6.233   2.356 -0.0571  0.0027 -0.3241
  924W        W 5124   1.841   2.189   1.143 -0.0208 -0.0377  0.0789
  925W        W 5125   5.614   2.969  10.844 -0.2441 -0.0197 -0.0555
  926W        W 5126   7.389   7.949  12.515  0.2099  0.1750 -0.0316
  927W        W 5127   6.167   5.848   3.320  0.1098 -0.2516 -0.0623
  928W        W 5128   3.581   1.767  11.788  0.0927  0.0329  0.1415
  929W        W 5129  10.526   8.170   2.775 -0.0697 -0.0819 -0.0827
  930W        W 5130   5.110   1.258  10.351 -0.1330 -0.1849  0.0514
  931W        W 5131   0.263   8.624   0.251  0.2309  0.2082  0.1421
  932W        W 5132   0.656   9.639   3.482 -0.0614 -0.0916  0.1094
  933W        W 5133   0.870   2.552  12.910 -0.2518  0.0190  0.1182
  934W        W 5134   7.983   6.029  12.558 -0.3148 -0.2673 -0.1809
  935W        W 5135   7.131   4.364   2.152 -0.0141  0.0620 -0.0180
  936W        W 5136  10.195   9.043   8.707  0.1871  0.1098 -0.1093
  937W        W 5137   3.929   6.317   2.486  0.4785 -0.1080 -0.1003
  938W        W 5138   8.664   4.049   1.378 -0.0893  0.0061  0.2141
  939W        W 5139   3.417   0.620   1.874  0.1269  0.0249  0.0490
  940W        W 5140   6.116   7.155   0.069  0.2578  0.1781 -0.0467
  941W        W 5141   0.822   9.526   0.154 -0.1826  0.1453  0.1341
  942W        W 5142   1.949   4.972  10.813 -0.0843  0.2295  0.1450
  943W        W 5143   0.378   6.267  12.613  0.0480 -0.3473  0.0183
  944W        W 5144   7.253   6.809   2.816 -0.0668  0.2348 -0.1227
  945W        W 5145   1.289   1.835  12.259 -0.0239  0.1326 -0.2464
  946W        W 5146   3.004   5.741   1.250  0.2453 -0.1309  0.0756
  947W        W 5147   7.546   7.512  10.910  0.3481 -0.1234 -0.0541
  948W        W 5148   3.711   5.467  12.263  0.4224 -0.3619 -0.1876
  949W        W 5149   6.683   5.543   2.614  0.1460 -0.0717 -0.0021
  950W        W 5150   5.973   3.584  12.105  0.1899 -0.2170  0.1224
  951W        W 5151   2.473  10.396  12.294  0.0394  0.2042  0.2185
  952W        W 5152   0.078   7.246   2.023 -0.1201 -0.1355 -0.0323
  953W        W 5153   2.684   8.187  11.850  0.0352  0.0044 -0.1227
  954W        W 5154   2.912   6.655   9.343  0.1021  0.1706 -0.3098
  955W        W 5155   7.467   7.272   2.604 -0.1218  0.0069  0.1840
  956W        W 5156   5.199   9.621   2.600 -0.0604  0.0365  0.3012
  957W        W 5157   6.316   5.524   4.138  0.2782 -0.6615  0.2078
  958W        W 5158   5.322   5.999   1.070  0.2568 -0.4432 -0.0302
  959W        W 5159   0.538   4.228   3.226 -0.0727 -0.1528 -0.1663
  960W        W 5160   1.694   6.261   7.954 -0.3283  0.1494  0.0676
  961W        W 5161   3.976   7.996   9.773 -0.1774 -0.1537 -0.1031
  962W        W 5162   9.005   0.481   0.885 -0.3623  0.3694  0.1675
  963W        W 5163  10.279   7.251   1.595  0.1563 -0.0718  0.2378
  964W        W 5164   5.599   4.747  10.494  0.2259 -0.0748 -0.0334
  965W        W 5165   5.612   3.528   3.532 -0.0741  0.2966 -0.0894
  966W        W 5166   6.773   7.697   2.848 -0.1051 -0.1692 -0.3020
  967W        W 5167   5.845   3.848   0.561 -0.1558 -0.1391  0.0137
  968W        W 5168   6.013   6.971   0.990  0.3923 -0.0564  0.2418
  969W        W 5169   4.247   6.165   4.058 -0.0504  0.0581  0.0858
  970W        W 5170   1.338   6.917   1.600  0.0914  0.3119  0.3019
  971W        W 5171   7.207   3.481   1.072 -0.0946  0.1072  0.0592
  972W        W 5172   3.075   5.458   4.387  0.1540 -0.0102 -0.0699
  973W        W 5173   9.912   0.927  12.246  0.1137  0.0899  0.2982
  974W        W 5174   4.617   7.648   0.174  0.0685 -0.2858  0.1429
  975W        W 5175   2.974   5.733  11.610 -0.3047  0.0326  0.2120
  976W        W 5176   0.740   1.831   3.408 -0.2638 -0.3879  0.2524
  977W        W 5177   6.464   0.861   0.341  0.0045 -0.2196  0.1925
  978W        W 5178   7.873   9.238   3.769 -0.1695  0.0232  0.0382
  979W        W 5179   2.589   2.805   2.713 -0.1504  0.3306  0.0231
  980W        W 5180   2.860  10.019   1.761  0.1423 -0.0367  0.0924
  981W        W 5181   1.695   2.081   2.230  0.0063 -0.2614 -0.1631
  982W        W 5182   3.886   2.968   0.710 -0.1516  0.1276 -0.1020
  983W        W 5183   9.916   9.679   9.943  0.1550 -0.0661 -0.0747
  984W        W 5184   3.107   5.333   8.749  0.0146 -0.0046 -0.0238
  985W        W 5185   4.267   9.635   9.129 -0.0988  0.1511 -0.0492
  986W        W 5186   8.653   4.955   0.647  0.0362 -0.0351 -0.0258
  987W        W 5187   6.513   2.476   2.172 -0.0457 -0.2668  0.2891
  988W        W 5188   6.008   9.540   9.046  0.1354  0.2614  0.1380
  989W        W 5189   7.147   5.797  13.034  0.4092 -0.1342  0.0621
  990W        W 5190   3.267   7.183  10.936 -0.0368 -0.0859 -0.2311
  991W        W 5191   5.240   3.726  13.187 -0.0822  0.1383 -0.1955
  992W        W 5192   0.823   8.205   1.189  0.2715  0.0959  0.0901
  993W        W 5193   8.422   4.260   3.417  0.4321 -0.1689  0.0601
  994W        W 5194   0.669   0.621  10.439  0.0828 -0.1888 -0.1485
  995W        W 5195   8.373   0.065  12.786  0.1259  0.3073 -0.1499
  996W        W 5196   8.060   0.825   0.760 -0.0490  0.2005 -0.0022
  997W        W 5197   7.195   1.943   3.014  0.0149 -0.0253  0.0608
  998W        W 5198   8.702   5.369   2.211 -0.0237 -0.0035  0.0449
  999W        W 5199   5.929   4.073   3.629  0.1935 -0.1239 -0.0955
 1000W        W 5200   9.697   6.155   2.974  0.2174  0.1204  0.1748
 1001W        W 5201   5.974   1.597  12.505 -0.1125 -0.1143 -0.0037
 1002W        W 5202   6.095   5.014   2.556  0.1367 -0.1711  0.1545
 1003W        W 5203  10.100   8.278   2.152 -0.4235  0.0330  0.2233
 1004W        W 5204   3.764   4.439  12.888 -0.0835  0.0907 -0.1001
 1005W        W 5205   3.717   4.204  12.190 -0.0042 -0.0788  0.2140
 1006W        W 5206   3.154   1.494  12.775  0.0146  0.0630 -0.1733
 1007W        W 5207   2.051   2.785  10.418 -0.0775 -0.1618 -0.1553
 1008W        W 5208   5.226   3.853   2.359  0.0124 -0.2286 -0.0686
 1009W        W 5209  10.349  10.406   0.175  0.1035  0.2118  0.0101
 1010W        W 5210   3.654   1.566  10.476  0.3353  0.0608  0.0173
 1011W        W 5211   7.928   7.435   4.020  0.0768  0.2325 -0.1373
 1012W        W 5212   2.772   1.412  12.451  0.4866  0.1576 -0.1441
 1013W        W 5213   5.682   4.440  12.547 -0.1206  0.1573 -0.0973
 1014W        W 5214   3.952   1.581  13.110  0.1131 -0.3361  0.0395
 1015W        W 5215   5.553   6.682   8.614 -0.1622 -0.1971  0.0227
 1016W        W 5216   2.280   6.960   2.585  0.0573 -0.0816 -0.0710
 1017W        W 5217   6.767  10.113   0.564 -0.0679  0.2141  0.0091
 1018W        W 5218   7.695   1.428   3.406 -0.0569 -0.0054  0.2428
 1019W        W 5219   4.049   3.942   3.638  0.0660 -0.2195 -0.0808
 1020W        W 5220   7.263   8.357  10.083 -0.2395 -0.0523  0.0491
 1021W        W 5221   8.555   1.558   2.479 -0.1719 -0.0037 -0.2218
 1022W        W 5222   7.255   7.799   2.141  0.0095 -0.0036  0.0165
 1023W        W 5223   4.192   2.577   0.768 -0.1207 -0.1509  0.0427
 1024W        W 5224   0.545  10.032   3.156  0.2609  0.0449 -0.0083
 1025W        W 5225   6.877   4.337  11.590  0.0517 -0.0169  0.0679
 1026W        W 5226   0.203   7.016   3.719 -0.1309  0.3401 -0.0759
 1027W        W 5227   0.116   0.182  11.272 -0.1752  0.1036 -0.0245
 1028W        W 5228   6.892   7.998  13.023  0.2499 -0.0245 -0.1193
 1029W        W 5229   0.639   4.466   4.911 -0.2436 -0.2145  0.0494
 1030W        W 5230   9.628   2.609  11.177 -0.2361  0.2165 -0.3115
 1031W        W 5231   3.333   1.841   2.534 -0.0285  0.4844  0.0025
 1032W        W 5232   5.111   6.856   8.697 -0.0377  0.1022 -0.3038
 1033W        W 5233   6.116   9.470   1.115 -0.2213  0.1132  0.0064
 1034W        W 5234   1.109   6.955   3.299  0.1357 -0.2118 -0.0615
 1035W        W 5235   0.971   7.022  12.386 -0.2138  0.5071  0.1209
 1036W        W 5236   4.597   1.706  10.189 -0.0287  0.0843 -0.1296
 1037W        W 5237  10.259   8.229   3.649 -0.0211  0.0493 -0.3037
 1038W        W 5238   1.014   1.678   2.739  0.2975  0.0993 -0.0689
 1039W        W 5239   8.186   7.353   9.600 -0.0451 -0.0192  0.0965
 1040W        W 5240   9.696   0.707   0.495  0.2307 -0.0365  0.0261
 1041W        W 5241   3.578   9.540  13.086 -0.0628 -0.0442 -0.0923
 1042W        W 5242   5.620   5.364  12.444 -0.0830 -0.0792  0.3770
 1043W        W 5243   5.564   3.126   3.171 -0.1074 -0.2615  0.0371
 1044W        W 5244   6.072   4.596  10.819  0.0244 -0.0394 -0.1661
 1045W        W 5245   3.445   6.920   1.947 -0.1036 -0.0000  0.1060
 1046W        W 5246   5.117   2.775   1.307 -0.0076  0.1422  0.1479
 1047W        W 5247   1.776   3.538  10.335  0.0456 -0.1383  0.0204
 1048W        W 5248   4.191   4.700   2.111  0.1909  0.2550  0.0306
 1049W        W 5249   2.229  10.490  12.695 -0.1594  0.2477 -0.1068
 1050W        W 5250   2.868   9.330  12.586  0.4013  0.0482 -0.1892
 1051W        W 5251   0.258   8.065   2.182  0.0383 -0.2469  0.1566
 1052W        W 5252   3.170   3.595   3.485 -0.0885 -0.0244  0.0594
 1053W        W 5253   7.084   5.201   4.515  0.1133 -0.0048  0.1035
 1054W        W 5254   6.452   5.128  12.635  0.2395  0.0664 -0.0298
 1055W        W 5255   8.789   0.978  10.756 -0.0480 -0.2426 -0.3994
 1056W        W 5256   9.752   7.171   2.841  0.1511  0.0302 -0.2021
 1057W        W 5257  10.385   0.850   8.893 -0.2251 -0.0916  0.2024
 1058W        W 5258   7.373   0.585  10.416 -0.1211 -0.0118 -0.1684
 1059W        W 5259   4.055   9.397   2.032  0.0674  0.0646 -0.2781
 1060W        W 5260   8.660   7.583  10.932  0.1819  0.1692  0.0937
 1061W        W 5261   9.648   9.227   4.410  0.2361  0.2660  0.1858
 1062W        W 5262   3.518   3.405  10.507 -0.1028 -0.1357  0.2412
 1063W        W 5263   0.625   2.470  10.058  0.0219  0.3876 -0.2328
 1064W        W 5264  10.011   1.766  13.128  0.3765  0.4422 -0.1310
 1065W        W 5265   1.552   1.476   8.839  0.0241  0.2434 -0.1744
 1066W        W 5266   7.328   8.584   4.008 -0.0241 -0.0418  0.0097
 1067W        W 5267   4.597   9.548   3.555  0.1056  0.0316  0.1769
 1068W        W 5268   5.861   5.582  12.051  0.1119 -0.3335  0.0326
 1069W        W 5269   0.203   8.913   2.347 -0.0380 -0.1593  0.0036
 1070W        W 5270   7.707   5.179  10.464 -0.2048  0.0869  0.0653
 1071W        W 5271   0.022   7.157   2.497  0.1802 -0.0534  0.0751
 1072W        W 5272  10.274   4.437   2.982  0.0375 -0.0918  0.1329
 1073W        W 5273   7.376   3.661   3.995 -0.0857  0.1699  0.0939
 1074W        W 5274   0.045   7.377  12.098 -0.1071  0.0926  0.2166
 1075W        W 5275   8.318   4.860   1.133  0.3047 -0.1383 -0.1893
 1076W        W 5276   8.211   4.123   4.436 -0.0822 -0.0530 -0.1526
 1077W        W 5277   1.969   7.363   3.016 -0.0428  0.3421 -0.3203
 1078W        W 5278   7.691   1.719   2.594 -0.0813  0.0998  0.0283
 1079W        W 5279   4.788   0.996   1.863  0.2819 -0.2393  0.2396
 1080W        W 5280   8.251   5.475   2.422  0.0939  0.0450  0.0785
 1081W        W 5281   3.131   6.417  11.302  0.1863 -0.3065  0.1253
 1082W        W 5282   2.283   9.513  11.999 -0.0912 -0.2021 -0.2454
 1083W        W 5283   6.315   9.200  11.734  0.0745 -0.2412  0.1397
 1084W        W 5284   4.291   5.229   1.049 -0.2239  0.1657  0.0511
 1085W        W 5285   1.667   3.203  10.663  0.1342  0.0284 -0.1596
 1086W        W 5286   2.640   9.331  13.053 -0.3570 -0.1609  0.0942
 1087W        W 5287   7.834  10.277   3.977 -0.0234 -0.0254  0.0189
 1088W        W 5288   7.875   8.471   8.720  0.0675 -0.0768 -0.1154
 1089W        W 5289   8.710   2.335   3.829 -0.0771  0.1341  0.1012
 1090W        W 5290   2.458   6.283   3.995 -0.1115  0.0828 -0.5218
 1091W        W 5291   1.028   0.881   3.385  0.0850 -0.0057 -0.0749
 1092W        W 5292   5.102   5.646   1.817  0.0071  0.1559  0.1991
 1093W        W 5293   5.264   7.395   3.156  0.2272  0.2846  0.1803
 1094W        W 5294   6.636   8.819  11.616 -0.0879  0.3498  0.1981
 1095W        W 5295   9.741   0.828  12.685 -0.0905 -0.0468  0.2089
 1096W        W 5296  10.003   5.168  12.251  0.1909  0.0163  0.0472
 1097W        W 5297   3.518   4.258   0.985  0.0130  0.0832 -0.1363
 1098W        W 5298   0.312   6.284  11.116  0.2598  0.0392  0.2552
 1099W        W 5299   6.371   4.150   1.078 -0.1165  0.2227  0.0672
 1100W        W 5300   3.269   4.326   3.633 -0.1656  0.1238 -0.1386
 1101W        W 5301   5.319   6.450   4.130  0.1574  0.2909  0.1253
 1102W        W 5302   0.725   1.529   9.673 -0.1130  0.2488 -0.1726
 1103W        W 5303   8.136   8.580   1.381  0.0804 -0.0949 -0.1102
 1104W        W 5304   5.847   9.826   0.866  0.3371 -0.4260  0.3639
 1105W        W 5305   5.522   1.441  12.690  0.2006 -0.1270 -0.0396
 1106W        W 5306   2.573   4.266   1.562  0.1199 -0.2271  0.0906
 1107W        W 5307   9.322   8.388   4.634 -0.0717  0.0014  0.4937
 1108W        W 5308   1.522   1.098   9.675  0.4541  0.1399 -0.1600
 1109W        W 5309   3.201   0.556  10.642 -0.1695 -0.1210 -0.0447
 1110W        W 5310   5.421   9.092  10.508  0.1794  0.3985 -0.2197
 1111W        W 5311   3.981   9.834   0.445 -0.1670  0.0159  0.1818
 1112W        W 5312   3.365   9.086   0.280  0.0010 -0.1667 -0.6546
 1113W        W 5313   5.526   3.487   0.310  0.0369  0.0982 -0.0448
 1114W        W 5314   0.881   9.254  11.380  0.3077  0.0627 -0.1257
 1115W        W 5315   9.052   4.052   3.964  0.0445 -0.0781  0.2833
 1116W        W 5316   1.233   7.309   9.022 -0.4089 -0.0090 -0.3548
 1117W        W 5317   7.670   5.626  13.185 -0.1180 -0.3520  0.1376
 1118W        W 5318   7.066   6.084   9.832 -0.2833  0.1325 -0.0674
 1119W        W 5319   3.483   5.672   0.904  0.3587 -0.2584 -0.0468
 1120W        W 5320   2.587   6.286   1.881 -0.1514 -0.0704  0.1875
 1121W        W 5321   9.043   4.614  10.081 -0.2164  0.1737 -0.0043
 1122W        W 5322   7.939   3.171   3.316 -0.0197 -0.0918 -0.3857
 1123W        W 5323   9.827   7.321   0.029 -0.2079  0.0531 -0.0671
 1124W        W 5324   0.885   4.185   9.695 -0.2326 -0.0058  0.3326
 1125W        W 5325   9.540   5.251   2.891  0.1978  0.0497 -0.2134
 1126W        W 5326   2.020   0.640   1.998  0.0678  0.1725 -0.3201
 1127W        W 5327   7.963   7.013   1.837  0.1305 -0.0107 -0.1147
 1128W        W 5328   9.706   0.196   8.437 -0.4164 -0.3553  0.1676
 1129W        W 5329   5.555   3.043  12.389 -0.0547 -0.4597  0.2678
 1130W        W 5330   6.956   0.555  12.939 -0.0433 -0.1641 -0.3092
 1131W        W 5331   6.149   6.132   9.080 -0.1063  0.1337 -0.2759
 1132W        W 5332   4.757   1.504   1.703 -0.2300  0.0727  0.2125
 1133W        W 5333   1.897   5.057  12.122 -0.1783  0.2465  0.1629
 1134W        W 5334   7.199   4.659   3.084 -0.1233 -0.1447  0.1697
 1135W        W 5335   1.658   7.479  12.202  0.1414  0.0095 -0.0198
 1136W        W 5336   3.558   3.308   0.376 -0.2705 -0.1485 -0.0526
 1137W        W 5337   6.724   9.602  10.476  0.3366 -0.1222  0.2846
 1138W        W 5338   8.946   8.012   9.185 -0.2861  0.3334 -0.1549
 1139W        W 5339   0.746   8.447   4.541  0.2980  0.1138  0.2998
 1140W        W 5340   5.040  10.249   2.751 -0.2776 -0.2388 -0.0091
 1141W        W 5341   2.423   5.597  12.191 -0.1193 -0.1056  0.0345
 1142W        W 5342   2.248   8.822   1.540  0.1073 -0.0778 -0.0367
 1143W        W 5343   7.758   2.455  12.605 -0.1956 -0.0488 -0.1676
 1144W        W 5344   8.329   0.882  13.120 -0.0516 -0.0285 -0.4432
 1145W        W 5345   0.455   6.398  11.641  0.2731 -0.2371  0.0634
 1146W        W 5346   0.680   5.234   0.815  0.0827  0.0138  0.2092
 1147W        W 5347   0.984   0.154   1.284  0.3076  0.1705 -0.1430
 1148W        W 5348   3.857   7.924   3.028  0.4563  0.2022  0.1634
 1149W        W 5349   4.894   3.446   2.050 -0.2659  0.1840  0.0774
 1150W        W 5350   5.315   4.420   2.485  0.2271  0.0310 -0.2288
 1151W        W 5351   2.334   0.002   9.935 -0.1224 -0.1377  0.0827
 1152W        W 5352   2.031   9.594   4.050  0.0998  0.0482 -0.0289
 1153W        W 5353   7.602   9.328   9.747  0.2267  0.2849  0.0926
 1154W        W 5354   7.151   6.076  11.499 -0.0294 -0.4670  0.1767
 1155W        W 5355   8.476   7.314  10.026  0.0005 -0.1982  0.1549
 1156W        W 5356   9.163   2.444  11.336 -0.3843 -0.1840 -0.1278
 1157W        W 5357   7.733   7.653   1.288  0.1727 -0.0828  0.4123
 1158W        W 5358   6.495   9.179   2.795 -0.1573 -0.1436  0.0517
 1159W        W 5359  10.200   7.235  10.625 -0.1046 -0.0196 -0.2691
 1160W        W 5360   7.153   8.149   1.607 -0.5429 -0.1699  0.2389
 1161W        W 5361   6.036   3.328   0.485  0.5454 -0.1400  0.1580
 1162W        W 5362   9.960   8.047  11.828  0.1503  0.1485 -0.0279
 1163W        W 5363   6.850   0.126   9.707  0.2162 -0.2071  0.1647
 1164W        W 5364   8.598   7.963   9.574  0.0783  0.0834 -0.0755
 1165W        W 5365   5.879  10.275  12.832 -0.0031  0.1690  0.3884
 1166W        W 5366   1.868   0.247  10.064  0.0989  0.2174 -0.1186
 1167W        W 5367   0.348   9.514  11.397  0.0188 -0.0171  0.1526
 1168W        W 5368   6.407   7.553  11.976  0.3842  0.1354  0.2618
 1169W        W 5369   0.733   1.111  11.306 -0.2686 -0.2818  0.1639
 1170W        W 5370   8.724   4.014  12.232  0.2036 -0.1863  0.1589
 1171W        W 5371   2.819   9.319   1.828 -0.1524 -0.1035 -0.2921
 1172W        W 5372   9.255  10.058  11.651  0.0475  0.2196  0.0217
 1173W        W 5373   6.668   5.392  10.094  0.1173 -0.1053  0.0434
 1174W        W 5374   8.175   9.005   4.034 -0.1566  0.1836 -0.0584
 1175W        W 5375   0.899   0.401   0.109  0.1729 -0.4091 -0.4806
 1176W        W 5376   2.953   6.552   0.977 -0.0925 -0.1489  0.1825
 1177W        W 5377   3.960   8.774   2.622 -0.0949  0.1512 -0.0464
 1178W        W 5378   3.809   3.799  10.604 -0.1894 -0.2383 -0.0135
 1179W        W 5379   5.438   5.949   9.577 -0.0021 -0.2630 -0.1694
 1180W        W 5380   8.294  10.223  10.624  0.0402  0.0172  0.1421
 1181W        W 5381   9.859   0.394   4.579  0.1992 -0.0392 -0.0823
 1182W        W 5382   6.852   2.007   2.242 -0.1771  0.2459  0.1785
 1183W        W 5383   1.454   7.332  11.613 -0.0578  0.3206  0.3114
 1184W        W 5384   8.288   1.057  11.639  0.1628 -0.0496 -0.3586
 1185W        W 5385   4.054   2.996   2.274 -0.2597 -0.0377  0.0303
 1186W        W 5386   7.972   1.332  11.391  0.0844 -0.0360 -0.2413
 1187W        W 5387  10.062   8.825   1.323  0.1474 -0.0861 -0.0745
 1188W        W 5388  10.105   4.310   1.752 -0.0781  0.0068  0.1970
 1189W        W 5389   3.241   4.223  12.310  0.1224  0.0513 -0.2798
 1190W        W 5390   2.650   4.436   8.889  0.2387 -0.0139 -0.1112
 1191W        W 5391   3.397   0.812  10.277  0.1599  0.1468 -0.1842
 1192W        W 5392   7.629   8.243   5.195  0.0430 -0.0561 -0.3212
 1193W        W 5393   2.324   7.041  10.507 -0.0518  0.2773 -0.0877
 1194W        W 5394   1.393   7.838  11.826 -0.3846  0.3129 -0.1819
 1195W        W 5395   1.225   8.253  11.012 -0.0465  0.0889 -0.1793
 1196W        W 5396   0.739  10.066   0.490  0.4999  0.2995  0.1159
 1197W        W 5397   8.499   5.842  11.491  0.1255 -0.2184 -0.0934
 1198W        W 5398   9.458   9.619  12.613  0.0347  0.3025 -0.0927
 1199W        W 5399   9.205   3.378   9.562  0.0360 -0.0322 -0.0119
 1200W        W 5400   5.618   2.735   1.571 -0.2422  0.2402 -0.1514
 1201W        W 5401   3.533   4.102   2.751 -0.0740  0.1854  0.0398
 1202W        W 5402   1.603   2.510   9.514 -0.1130  0.0280  0.0485
 1203W        W 5403   4.747   8.409   2.969  0.0353  0.0306 -0.1625
 1204W        W 5404  10.042   1.833   9.238 -0.0123 -0.0635  0.1286
 1205W        W 5405   8.151  10.000   4.947 -0.0685 -0.0152  0.0720
 1206W        W 5406   1.554   3.066   3.443  0.0127  0.1113 -0.0031
 1207W        W 5407   0.737   2.318   3.464 -0.1317  0.1217  0.1901
 1208W        W 5408   4.544   9.199   9.533  0.3420 -0.1343 -0.3262
 1209W        W 5409   6.603   3.338   3.267 -0.1041  0.4083 -0.0736
 1210W        W 5410  10.126   9.406   2.289 -0.1787 -0.1318 -0.0424
 1211W        W 5411   8.233   4.695   3.761  0.0436 -0.0834  0.0555
 1212W        W 5412   1.561   0.542   2.557  0.2035  0.1844  0.5819
 1213W        W 5413   0.335   0.093   0.292  0.2292  0.0522  0.1918
 1214W        W 5414   8.339   0.794   1.917 -0.0478 -0.2368 -0.0293
 1215W        W 5415   8.580   2.013   5.336  0.0935 -0.0639  0.0986
 1216W        W 5416  10.039   0.894  10.853 -0.1672 -0.1520  0.1023
 1217W        W 5417   5.794   9.301  12.809  0.2343 -0.0232  0.1653
 1218W        W 5418   4.609   2.504   2.899  0.0268 -0.0020 -0.2496
 1219W        W 5419   6.172   4.564   2.219  0.0881  0.1986 -0.1185
 1220W        W 5420   4.374   0.358   0.759 -0.2076  0.1051 -0.1423
 1221W        W 5421   4.782   1.461   0.031  0.5352 -0.0852  0.2379
 1222W        W 5422   0.136   4.268   9.292  0.2127 -0.1503 -0.1333
 1223W        W 5423   7.060   4.576   8.888 -0.4153 -0.2729 -0.0257
 1224W        W 5424   9.526   7.993  10.435 -0.1232  0.0999 -0.2001
 1225W        W 5425   2.773   5.226  11.710 -0.5554  0.0023 -0.2282
 1226W        W 5426   1.571   4.803  11.136  0.2426 -0.2874  0.1766
 1227W        W 5427   2.628   7.686  11.053  0.0817  0.1180  0.0541
 1228W        W 5428   0.519   2.400   2.151 -0.0572 -0.0467 -0.1616
 1229W        W 5429   2.049   4.835   0.429 -0.1662 -0.2073  0.0956
 1230W        W 5430   3.421   8.641  12.991  0.3047 -0.0136 -0.1539
 1231W        W 5431   7.287   3.157   4.008 -0.2209  0.0510 -0.0423
 1232W        W 5432   3.411   7.994  12.194  0.0528 -0.4227 -0.0713
 1233W        W 5433   0.614   0.023  11.266  0.0210 -0.1853  0.0963
 1234W        W 5434   7.855   9.490  10.360  0.1870 -0.1515  0.1280
 1235W        W 5435   3.960   4.025   9.479 -0.0395  0.0865 -0.2132
 1236W        W 5436   7.526   3.933   2.202  0.0184  0.1949  0.0399
 1237W        W 5437  10.056   4.415   3.997  0.0351 -0.3395 -0.0514
 1238W        W 5438   5.553   7.952   4.219 -0.1216 -0.0492 -0.1513
 1239W        W 5439   7.455   0.327   1.863  0.1672  0.2374 -0.1824
 1240W        W 5440   1.744   5.225   0.177  0.0980  0.0310 -0.0749
 1241W        W 5441   7.201   4.461   0.303 -0.0195 -0.0130  0.1395
 1242W        W 5442   2.647   5.531   5.116 -0.0203 -0.1288 -0.4570
 1243W        W 5443   7.130   7.883   5.179 -0.2816 -0.1741  0.4574
 1244W        W 5444   6.851   0.143  11.138  0.2159 -0.0698 -0.3101
 1245W        W 5445  10.535  10.228   9.462 -0.0261  0.1734 -0.5043
 1246W        W 5446   3.469   5.224   9.026 -0.1582 -0.2025  0.0403
 1247W        W 5447   6.070   8.044  12.025  0.0919  0.4035  0.1850
 1248W        W 5448   5.029   6.561   1.939 -0.1234 -0.2747  0.2661
 1249W        W 5449   4.926  10.217   0.884 -0.1787  0.1601 -0.0489
 1250W        W 5450   2.862   7.255  11.189  0.0415 -0.1334  0.0221
 1251W        W 5451   7.020   8.328  12.320  0.1290 -0.0486 -0.1002
 1252W        W 5452   8.193   0.360   9.171  0.3459  0.1985 -0.2834
 1253W        W 5453  10.437   9.063   3.214 -0.1172 -0.0613  0.1917
 1254W        W 5454  10.380   4.394   0.607  0.1723 -0.0415 -0.1224
 1255W        W 5455   8.864   8.205   4.599  0.1801 -0.0828  0.3579
 1256W        W 5456  10.238   8.483   9.400  0.0796 -0.0444 -0.1604
 1257W        W 5457   3.877   5.153  10.771 -0.1821 -0.0172  0.3146
 1258W        W 5458   6.561   3.852  10.036  0.0367 -0.2367  0.0246
 1259W        W 5459   7.007   3.690   1.469  0.2227  0.0493  0.3689
 1260W        W 5460   9.967   7.597   3.680  0.0549 -0.0440  0.1477
 1261W        W 5461   8.771   9.858   0.002 -0.0195 -0.1640  0.1444
 1262W        W 5462   8.459   7.759   9.104  0.1178  0.1202 -0.3044
 1263W        W 5463   8.049   0.035   0.331 -0.0673 -0.3714  0.1322
 1264W        W 5464   9.372   4.297  12.742 -0.0231 -0.0163 -0.0998
 1265W        W 5465   9.526   6.335   4.046  0.0804 -0.0747  0.2012
 1266W        W 5466   5.706   8.747   9.542 -0.0911  0.0353 -0.0452
 1267W        W 5467   3.520   5.168  10.394 -0.3719  0.1923 -0.5402
 1268W        W 5468   9.437   0.069  12.374 -0.1189  0.1603 -0.2543
 1269W        W 5469   5.394   8.495   1.153  0.0339  0.1242  0.2133
 1270W        W 5470   8.832   2.227   2.963 -0.2154  0.1763 -0.1710
 1271W        W 5471  10.321   2.137  12.338 -0.1086 -0.1088  0.0684
 1272W        W 5472  10.167   5.175   2.349  0.0891  0.2657 -0.5206
 1273W        W 5473   9.892   8.448   3.941 -0.2331  0.3289 -0.1006
 1274W        W 5474   6.956   6.151  10.863 -0.1919 -0.4530 -0.1732
 1275W        W 5475   9.338   6.010  11.052  0.0946 -0.3074 -0.3034
 1276W        W 5476   1.117   9.055  12.146 -0.0056 -0.1343  0.1708
 1277W        W 5477   2.098   6.429   3.403 -0.2602 -0.0487  0.1745
 1278W        W 5478   4.328   9.973   0.019 -0.0535  0.1839  0.0621
 1279W        W 5479  10.094   8.412  12.598 -0.2464 -0.0732  0.2727
 1280W        W 5480  10.310   2.120  11.834 -0.1245  0.2938  0.2993
 1281W        W 5481   5.200   1.521   0.793 -0.2113  0.5077  0.2166
 1282W        W 5482   2.683   3.791  10.426 -0.0809  0.0099 -0.0035
 1283W        W 5483   6.856  10.252   1.960  0.0698 -0.1925  0.1100
 1284W        W 5484   7.591   4.806   1.459 -0.3933  0.2311 -0.1445
 1285W        W 5485   3.191  10.533  10.677  0.3443  0.2902 -0.0577
 1286W        W 5486   8.163   5.835   4.319 -0.0768  0.0931  0.1133
 1287W        W 5487   3.327   2.807  12.824  0.0437 -0.0746 -0.1035
 1288W        W 5488   7.034   9.206   2.043 -0.0386  0.0126  0.1513
 1289W        W 5489   2.360   3.377   3.295 -0.1480 -0.1299  0.2648
 1290W        W 5490   6.513   4.608  10.535 -0.1734  0.1762 -0.3032
 1291W        W 5491  10.319   4.692   1.981 -0.0833 -0.1708 -0.0319
 1292W        W 5492   8.595   8.382   9.269  0.0261 -0.1718  0.3017
 1293W        W 5493   4.912   3.840  11.650  0.1089  0.2900  0.2131
 1294W        W 5494   7.544   5.824   2.448  0.0387 -0.0164  0.1684
 1295W        W 5495   7.387   8.486  11.864 -0.1246  0.1316 -0.2642
 1296W        W 5496   0.374   0.622  11.285 -0.1396 -0.0404  0.1450
 1297W        W 5497   6.471   2.536  11.023 -0.1565  0.2408  0.5105
 1298W        W 5498   9.234   9.748   3.706 -0.1208  0.0184  0.1728
 1299W        W 5499   9.024   9.658   3.085  0.1208  0.0762  0.0717
 1300W        W 5500   6.915   1.514   0.317  0.1488 -0.1330  0.1646
 1301W        W 5501   3.704   4.994   9.401  0.1636 -0.1195  0.1144
 1302W        W 5502   8.780   9.585   3.627 -0.0325 -0.3575  0.1011
 1303W        W 5503   9.923   5.565  11.829 -0.0488  0.0495  0.0033
 1304W        W 5504   4.691   6.028   8.806  0.4224 -0.1778 -0.2988
 1305W        W 5505   2.480   3.890   9.862  0.1903  0.0506 -0.1211
 1306W        W 5506   2.692  10.329   9.686  0.0048  0.0292 -0.0373
 1307W        W 5507   3.380   7.327  10.255  0.4450  0.2742 -0.3925
 1308W        W 5508   3.325   5.985  11.224  0.0686 -0.1260 -0.2441
 1309W        W 5509   5.682   0.905   9.976 -0.1487  0.0490  0.3591
 1310W        W 5510   1.320   8.695  12.488 -0.2731  0.0911  0.0726
 1311W        W 5511   5.356   7.957   1.970 -0.3489  0.0517  0.1165
 1312W        W 5512   0.377   6.515  13.188  0.0064 -0.1195 -0.1694
 1313W        W 5513   3.151  10.182  12.030  0.1394  0.2164  0.2465
 1314W        W 5514   8.643   8.681   2.766 -0.1978 -0.4122 -0.1678
 1315W        W 5515   2.655   9.302  11.576  0.1132 -0.1069 -0.4060
 1316W        W 5516   8.456   1.903  11.861  0.1513 -0.1192  0.1050
 1317W        W 5517   5.981   9.447  12.008  0.2061  0.1731  0.0033
 1318W        W 5518   3.968   6.229  11.930  0.0864 -0.0203  0.1722
 1319W        W 5519   6.744  10.445  10.160  0.0487  0.0278 -0.1783
 1320W        W 5520   9.852  10.169   3.920 -0.0778  0.0651 -0.1344
 1321W        W 5521   2.329   6.733   4.173  0.0854  0.0493  0.1908
 1322W        W 5522   1.879   8.720  13.036  0.0366  0.0723 -0.0955
 1323W        W 5523   5.105   4.804  12.305  0.2303  0.0531 -0.3808
 1324W        W 5524   3.672   1.611   2.808 -0.0419  0.0872 -0.0590
 1325W        W 5525   5.749   6.381   2.568  0.1399  0.2471 -0.0307
 1326W        W 5526   1.443   4.422  10.012 -0.1042 -0.1988  0.4365
 1327W        W 5527   8.989   5.762   2.516  0.4054 -0.1709  0.2390
 1328W        W 5528   1.897   9.408  12.423  0.4196  0.1494 -0.3025
 1329W        W 5529   3.634   7.700  11.820 -0.1670 -0.0978  0.0041
 1330W        W 5530   8.958   9.156   3.453 -0.1058 -0.1161 -0.2049
 1331W        W 5531   7.934   8.241   3.294  0.0878 -0.0124 -0.0068
 1332W        W 5532   1.737   8.190  11.188  0.0700 -0.1467 -0.1687
 1333W        W 5533   0.983   7.752   8.991  0.1976 -0.0339 -0.1706
 1334W        W 5534   5.400   3.965  12.407  0.0373 -0.3641 -0.0329
 1335W        W 5535   7.304   4.035   1.689 -0.3194 -0.1654 -0.2796
 1336W        W 5536   5.187   8.763   3.100 -0.1042 -0.1073  0.1781
 1337W        W 5537   0.417   8.540   2.598  0.2848  0.0179  0.0442
 1338W        W 5538   6.590   0.446   0.520  0.0499  0.0921  0.1443
 1339W        W 5539   1.868   8.934  12.584  0.4128 -0.0117  0.1100
 1340W        W 5540   8.013   4.506   8.302  0.1205  0.0517  0.0957
 1341W        W 5541   2.026   8.937  10.686 -0.1991  0.0657 -0.2560
 1342W        W 5542   4.947   6.332  11.788  0.5251  0.2470 -0.0687
 1343W        W 5543   6.509  10.325   1.075 -0.0896 -0.0793 -0.0094
 1344W        W 5544   3.119   1.583  10.530 -0.0350  0.3042 -0.1888
 1345W        W 5545   1.528   3.942  10.253  0.1852 -0.2722 -0.2024
 1346W        W 5546   1.584   9.852   0.340 -0.1966  0.0040  0.1716
 1347W        W 5547   6.870   0.705   1.657  0.1745  0.2133  0.0257
 1348W        W 5548   9.345   6.420   5.005 -0.2334 -0.2078 -0.0404
 1349W        W 5549   4.017   4.445   1.010  0.2934  0.0626  0.3117
 1350W        W 5550   0.949   4.474  10.632  0.0301 -0.3658 -0.3313
 1351W        W 5551   8.290   9.992   1.521 -0.0437  0.3696 -0.1196
 1352W        W 5552   9.041   9.220   9.830  0.1531 -0.1177  0.0723
 1353W        W 5553   8.227   2.377   0.496 -0.0852  0.3800 -0.1354
 1354W        W 5554   5.987   2.733   2.853  0.1339  0.2491 -0.1783
 1355W        W 5555   7.333   3.548   1.904 -0.0970  0.0657 -0.0403
 1356W        W 5556   2.375   8.002  12.368  0.2569  0.3968  0.2072
 1357W        W 5557   7.265   2.681   9.547 -0.0075 -0.2201 -0.1312
 1358W        W 5558   3.385   9.619   2.595 -0.1904  0.1517 -0.0419
 1359W        W 5559   3.648   9.640  11.198  0.0794  0.2652 -0.0513
 1360W        W 5560   6.890   8.159   2.174  0.0538  0.0865 -0.1236
 1361W        W 5561   2.905   8.802  12.586  0.1063 -0.0282  0.1901
 1362W        W 5562   5.076   1.798   3.085 -0.1015 -0.0137  0.1575
 1363W        W 5563   7.495   5.385   4.836 -0.1369  0.1419  0.1194
 1364W        W 5564   2.511   4.309   0.974 -0.0091 -0.0316  0.1762
 1365W        W 5565   0.182   4.592   5.402  0.0996  0.1725 -0.0350
 1366W        W 5566   5.620   3.924   3.982 -0.1183  0.1988  0.0289
 1367W        W 5567   8.363   8.451   0.420 -0.1063  0.1833 -0.0598
 1368W        W 5568   7.987   1.545   2.973 -0.0537  0.1787 -0.2291
 1369W        W 5569  10.249   2.832   0.173 -0.0617 -0.0253 -0.0434
 1370W        W 5570   5.578   8.716   8.578 -0.1333 -0.3635  0.1062
 1371W        W 5571   0.575   0.166   8.280 -0.2363  0.4280 -0.3475
 1372W        W 5572   6.358   6.766   9.007  0.1057  0.1826  0.1293
 1373W        W 5573   5.951   0.350  11.447  0.0258  0.0520  0.0631
 1374W        W 5574   7.231   3.964   1.021  0.4011 -0.0577  0.0850
 1375W        W 5575   3.276   0.459   0.307  0.1263  0.2724 -0.1482
 1376W        W 5576   9.457   7.662   3.928 -0.2362  0.1155 -0.0160
 1377W        W 5577   8.216   0.531  12.742 -0.1958  0.1035  0.0073
 1378W        W 5578   2.399   3.760   3.637 -0.2149 -0.1832  0.3137
 1379W        W 5579   7.413   0.442   3.869  0.4567  0.0853  0.0460
 1380W        W 5580   2.378   6.133  10.070  0.1852  0.1826 -0.0862
 1381W        W 5581   8.574   2.932   0.385 -0.1510 -0.0652  0.0154
 1382W        W 5582   6.513   7.391  11.554 -0.2585  0.2756  0.3213
 1383W        W 5583   1.983   6.137  10.328  0.0083  0.0038  0.1378
 1384W        W 5584   8.547   2.140   3.382  0.3662  0.0553 -0.1770
 1385W        W 5585   0.735   8.198   2.304  0.2401  0.3666 -0.0648
 1386W        W 5586   2.112   0.406  12.956 -0.0956 -0.1409  0.0289
 1387W        W 5587   4.699   1.320   0.744  0.3210 -0.0403  0.0764
 1388W        W 5588   4.288   5.423   2.507  0.1202 -0.0470 -0.2384
 1389W        W 5589   0.429   2.026   0.242 -0.4958  0.1372  0.0268
 1390W        W 5590  10.519   1.035   4.276 -0.1217 -0.0797 -0.1307
 1391W        W 5591   0.998   1.452  12.240  0.4085 -0.0011 -0.3685
 1392W        W 5592   0.490   9.152  11.750  0.0981 -0.0111 -0.0003
 1393W        W 5593   1.121   0.316   0.672  0.0659  0.2449  0.1725
 1394W        W 5594   0.779  10.306  11.645 -0.3726  0.3391 -0.2846
 1395W        W 5595   3.420   0.303  12.738  0.0772 -0.1698 -0.0858
 1396W        W 5596   3.907   6.046  10.126 -0.1448  0.2222 -0.1349
 1397W        W 5597   4.520   6.172   3.013  0.3383 -0.3910  0.0297
 1398W        W 5598  10.238   7.588   2.861 -0.1695  0.3150 -0.4326
 1399W        W 5599   7.668   0.543   0.377 -0.1795  0.0327 -0.1439
 1400W        W 5600   2.859  10.252   0.484  0.0809  0.2403  0.0253
 1401W        W 5601   5.279   6.098  11.528 -0.1528  0.1896 -0.0392
 1402W        W 5602   2.241   7.818   3.135  0.1351  0.1799 -0.2085
 1403W        W 5603   3.361   2.737   1.384 -0.3165  0.1073  0.1343
 1404W        W 5604   6.907   9.444   2.985 -0.1060  0.1127 -0.1365
 1405W        W 5605   3.319   1.915   0.797  0.3514  0.2111  0.1596
 1406W        W 5606   6.330   5.235   0.193 -0.0659 -0.0554  0.2615
 1407W        W 5607   6.198   6.594   4.931 -0.3796  0.0589 -0.1742
 1408W        W 5608   6.415   9.529   1.986  0.1184  0.0798  0.1043
 1409W        W 5609   4.169   7.062   0.617  0.1703 -0.1461  0.0529
 1410W        W 5610   5.753   6.252   5.177 -0.1887  0.0871 -0.2213
 1411W        W 5611   4.231   7.486  13.145  0.0309  0.0734 -0.1967
 1412W        W 5612   9.635   9.552  13.056 -0.3684 -0.2863  0.1133
 1413W        W 5613   1.741   5.486   3.331 -0.2714  0.0199 -0.2223
 1414W        W 5614   8.358   9.030   1.449 -0.0536  0.2196 -0.1723
 1415W        W 5615   6.068   7.801   4.054  0.0546  0.2631  0.0323
 1416W        W 5616   7.815   0.515   3.274 -0.0965 -0.2464  0.3569
 1417W        W 5617   0.225   2.654   2.558 -0.1856  0.1201  0.0628
 1418W        W 5618   7.842   3.870   4.198 -0.1104  0.2177 -0.2975
 1419W        W 5619   6.796   4.234   3.438 -0.0610 -0.0482 -0.2288
 1420W        W 5620   2.997  10.379   2.889  0.1831  0.0960 -0.3772
 1421W        W 5621   2.826   8.400   9.234  0.2441  0.1611 -0.1803
 1422W        W 5622   2.932   1.562   1.100  0.3788  0.3248 -0.3165
 1423W        W 5623   8.771   3.394   2.849  0.1073 -0.0667 -0.1849
 1424W        W 5624   1.281   3.573  11.617 -0.1697  0.1991  0.0032
 1425W        W 5625   6.289   3.214  11.650  0.0226 -0.2284 -0.0799
 1426W        W 5626   1.270   3.110   3.036 -0.1776 -0.2512 -0.0854
 1427W        W 5627   4.230   7.846   2.579 -0.0834 -0.0117  0.0961
 1428W        W 5628   9.530   6.241  10.661  0.1014  0.0709  0.0887
 1429W        W 5629   8.623   8.666   3.724  0.1214 -0.0911  0.0254
 1430W        W 5630   4.672   2.127  12.783 -0.1810  0.2189  0.0178
 1431W        W 5631   4.499   2.011   1.689  0.3071  0.0180  0.0401
 1432W        W 5632   4.828   8.127  10.518 -0.2306 -0.1401 -0.0271
 1433W        W 5633   0.083   9.985   0.175  0.0612 -0.1385  0.2403
 1434W        W 5634   9.926   6.736   3.788  0.5187 -0.2629  0.0970
 1435W        W 5635   9.028   4.566  10.745 -0.1205 -0.0145 -0.0858
 1436W        W 5636   6.531   4.746   8.752  0.4597 -0.1648 -0.1020
 1437W        W 5637   2.338   6.921  13.208  0.0494 -0.0346 -0.2926
 1438W        W 5638   5.033   1.019   8.139  0.0565 -0.3669 -0.0235
 1439W        W 5639   8.523   8.629   1.826  0.3398  0.0197 -0.2112
 1440W        W 5640   3.158   7.867  10.223  0.0053  0.0685 -0.0538
 1441W        W 5641   5.831   4.531  13.079  0.0304  0.1849 -0.1837
 1442W        W 5642   8.925   0.961   1.699 -0.1794  0.2967  0.2917
 1443W        W 5643   7.649   4.597  12.298  0.0355 -0.0523  0.0167
 1444W        W 5644   3.344   3.681  13.252 -0.1039  0.0506  0.2655
 1445W        W 5645   9.644   6.711   9.830  0.2479  0.0795  0.1760
 1446W        W 5646   4.147   4.209  12.517 -0.0146  0.0240  0.0341
 1447W        W 5647   6.670   6.796   8.573 -0.0410 -0.0595  0.0823
 1448W        W 5648   8.041   9.387   4.293  0.0989 -0.0496  0.1837
 1449W        W 5649  10.157   2.408   0.623 -0.0066  0.2509 -0.1768
 1450W        W 5650   3.008   2.038   2.073 -0.3238  0.0221  0.0368
 1451W        W 5651   0.843   6.816   2.450  0.1197 -0.1120 -0.1950
 1452W        W 5652   1.891   0.269   2.262 -0.0046 -0.3474  0.1713
 1453W        W 5653   8.333   6.612   0.648  0.1358  0.2452 -0.3329
 1454W        W 5654   0.282   5.797   3.247  0.1969  0.3736 -0.0774
 1455W        W 5655   7.581   2.587   9.933 -0.1100  0.2051 -0.3079
 1456W        W 5656   9.317   4.546   3.768  0.1284 -0.1743  0.1668
 1457W        W 5657   7.182   0.116  11.603  0.0943  0.1024  0.2490
 1458W        W 5658   6.012   6.622   2.944 -0.0669 -0.1229 -0.0425
 1459W        W 5659   9.079   4.956   4.035 -0.3081 -0.0934 -0.3625
 1460W        W 5660   0.568   6.711  11.254  0.0982  0.0296  0.2084
 1461W        W 5661   2.306   2.844   4.733  0.1064  0.2263 -0.1821
 1462W        W 5662   0.499   6.050   1.709  0.1664 -0.0655  0.1849
 1463W        W 5663   2.976   1.299   1.578  0.3198  0.1292  0.2433
 1464W        W 5664   4.196   1.294  11.323 -0.0970 -0.2683  0.2449
 1465W        W 5665   4.870   0.841  12.622  0.1352 -0.0903 -0.0265
 1466W        W 5666   9.714   4.257  12.327  0.3039 -0.0902 -0.1038
 1467W        W 5667   8.181   3.460   1.934 -0.1180 -0.1995  0.0002
 1468W        W 5668   1.413   4.288   9.521 -0.0471  0.2463 -0.1543
 1469W        W 5669   1.980   1.663  11.272 -0.0782  0.1342 -0.2723
 1470W        W 5670   2.482   1.497   2.434  0.1933 -0.0750 -0.1872
 1471W        W 5671   5.645   7.418   2.833  0.1565  0.0594  0.0442
 1472W        W 5672  10.083   5.371  13.089 -0.0955  0.1975 -0.2220
 1473W        W 5673   1.117   4.115   0.464  0.0073  0.1690 -0.0808
 1474W        W 5674   9.288   7.844   3.401  0.0857 -0.0423 -0.2121
 1475W        W 5675   9.330   4.266  10.489  0.0184  0.0155  0.0994
 1476W        W 5676  10.394   9.296  10.579 -0.0576 -0.1526 -0.0011
 1477W        W 5677   3.766   9.820   2.347 -0.1442  0.0496  0.0694
 1478W        W 5678   9.548   8.174   9.130 -0.0286  0.2186  0.0597
 1479W        W 5679   4.963   5.314  11.543 -0.1570  0.2315  0.0357
 1480W        W 5680   1.207   9.660  11.229 -0.0665  0.0409  0.0447
 1481W        W 5681   7.602   0.526   0.896 -0.0709 -0.0417 -0.2110
 1482W        W 5682   8.113   6.821  10.966  0.0330  0.1495  0.0720
 1483W        W 5683   1.353   7.912  12.319 -0.1886  0.0344  0.0437
 1484W        W 5684   8.564   3.074   3.214  0.0870  0.1240  0.0356
 1485W        W 5685   0.340   0.762   9.964 -0.0669 -0.4639  0.2038
 1486W        W 5686   6.287   6.407   9.881  0.2566 -0.0361  0.0909
 1487W        W 5687   4.324   0.426   3.118  0.0542 -0.0592  0.1727
 1488W        W 5688   3.596   1.839  12.295 -0.1843 -0.1407 -0.1185
 1489W        W 5689   5.437   5.043   9.172  0.0908 -0.3212 -0.0163
 1490W        W 5690   4.527   2.828   2.275  0.3512 -0.1143 -0.0204
 1491W        W 5691   7.106  10.119  10.282  0.0907  0.0368  0.0547
 1492W        W 5692  10.471   9.430   8.538 -0.0530  0.1579  0.1139
 1493W        W 5693   5.355   0.562   3.266 -0.0325  0.1933  0.0451
 1494W        W 5694   3.987   4.886   1.245  0.0543  0.0921  0.3636
 1495W        W 5695   8.879   0.477   4.134  0.1858 -0.2125 -0.3938
 1496W        W 5696   5.234   4.711  11.343 -0.1481  0.1202  0.3209
 1497W        W 5697   6.952   9.395   3.598 -0.0340 -0.0374 -0.0871
 1498W        W 5698   3.953   8.602  12.824  0.1701 -0.1625  0.2030
 1499W        W 5699   8.035   1.187  10.923 -0.5639 -0.0232  0.2308
 1500W        W 5700   6.873   4.023   4.103  0.4527  0.2146  0.1933
 1501W        W 5701   8.190   8.514   3.962  0.0219  0.0931 -0.4110
 1502W        W 5702   6.743   5.484   3.085  0.1942 -0.3486  0.0469
 1503W        W 5703   3.620   4.762   0.864 -0.1972  0.2381 -0.2327
 1504W        W 5704   9.632   8.052   4.212  0.2020 -0.0871  0.0582
 1505W        W 5705  10.321   3.233   5.186 -0.1132 -0.0889  0.0276
 1506W        W 5706   7.906   2.981   1.993  0.3697 -0.2710  0.1598
 1507W        W 5707   2.040   3.518   0.612  0.1219  0.0825  0.2767
 1508W        W 5708   2.287   5.859  11.114  0.0383  0.1495  0.0434
 1509W        W 5709  10.179   2.575   2.446  0.0632  0.0514  0.0872
 1510W        W 5710   3.637   2.941   1.778  0.0196 -0.0980 -0.1436
 1511W        W 5711   5.192   6.218   3.658 -0.2712  0.2550 -0.2780
 1512W        W 5712   5.641   5.040  10.039  0.1378  0.1820 -0.0241
 1513W        W 5713   3.385   2.522  10.341  0.0195 -0.0433 -0.2270
 1514W        W 5714   0.185   1.857  12.260 -0.2787  0.3181  0.1318
 1515W        W 5715   0.886   0.002   3.978 -0.1813 -0.0963 -0.1875
 1516W        W 5716   5.418   9.571   2.161  0.3916 -0.1546  0.3472
 1517W        W 5717   9.900   8.612   3.151  0.2226 -0.1829 -0.0590
 1518W        W 5718   3.033   9.728  10.856 -0.0951  0.0075 -0.1107
 1519W        W 5719  10.201   6.851   2.587 -0.2799 -0.1207 -0.0032
 1520W        W 5720   6.691   2.516  11.873 -0.1967  0.0923 -0.1355
 1521W        W 5721   1.901   9.731   9.979 -0.2380 -0.1035  0.0010
 1522W        W 5722   0.562   5.503  10.328 -0.2069 -0.2978  0.2085
 1523W        W 5723  10.200  10.196  12.418 -0.1657 -0.0083  0.0602
 1524W        W 5724   6.443   4.566  11.727  0.2141 -0.2658 -0.1004
 1525W        W 5725   3.602   9.450   2.084  0.3229  0.2432  0.2807
 1526W        W 5726   8.102   3.797   2.812 -0.0683  0.4176  0.4243
 1527W        W 5727  10.203   3.338   9.006  0.4084 -0.1396 -0.0059
 1528W        W 5728   5.770   8.833  12.750 -0.1057 -0.0495 -0.0890
 1529W        W 5729   4.752   5.773  11.097  0.1662  0.0383  0.1289
 1530W        W 5730   3.048   3.628  10.004  0.1042  0.4066  0.0133
 1531W        W 5731   2.348   0.379   0.190  0.0969  0.3024  0.3819
 1532W        W 5732   6.184   3.706   9.712  0.2164  0.3449 -0.2998
 1533W        W 5733   0.744   8.728   2.987  0.1140  0.2542  0.1227
 1534W        W 5734   4.258   7.033  12.975  0.1016  0.1935 -0.2243
 1535W        W 5735   8.540   9.013   2.261  0.2978  0.0286 -0.1985
 1536W        W 5736   9.740   9.572   2.550  0.0311 -0.2210 -0.1340
 1537W        W 5737   4.438   3.374   2.314  0.1039 -0.0095  0.2786
 1538W        W 5738   1.932   6.669  10.764 -0.2257  0.2810  0.2028
 1539W        W 5739   2.714   5.411   3.983  0.0621  0.0967 -0.2507
 1540W        W 5740  10.487   0.101   1.079 -0.0977 -0.1517 -0.0179
 1541W        W 5741   6.798   2.107   2.690 -0.0190 -0.1189  0.2396
 1542W        W 5742   0.870   9.306   0.622  0.0441  0.4780 -0.0744
 1543W        W 5743   6.279   6.611   1.577  0.2092  0.1877  0.0618
 1544W        W 5744   2.666   3.293   4.697 -0.2759  0.1154  0.1483
 1545W        W 5745   8.845   2.308   2.075  0.0215  0.0909 -0.1842
 1546W        W 5746   4.607   5.004   1.864 -0.1029 -0.1187 -0.1612
 1547W        W 5747   7.423   5.056   0.675  0.0788  0.1003 -0.2747
 1548W        W 5748   0.142   2.983   1.643 -0.3074  0.2527 -0.2872
 1549W        W 5749   0.067   1.041   8.462  0.4425  0.1630  0.2159
 1550W        W 5750   5.092   6.143  11.050  0.1248 -0.1863  0.0241
 1551W        W 5751   6.639   4.358   8.483 -0.2022 -0.1182  0.0630
 1552W        W 5752   4.828   4.445   2.892 -0.2125 -0.2029 -0.1441
 1553W        W 5753   3.513   6.935   0.082  0.1449 -0.0071 -0.0318
 1554W        W 5754   3.742   7.331   1.875 -0.0109  0.1004 -0.0620
 1555W        W 5755   1.777   4.775  10.349 -0.0023 -0.3838 -0.2854
 1556W        W 5756   1.254  10.504  12.692  0.0372  0.0742  0.2112
 1557W        W 5757   9.011   4.580  13.028  0.1106 -0.1069 -0.0484
 1558W        W 5758   9.967   8.526  12.137 -0.0805  0.1273  0.3026
 1559W        W 5759   1.713   1.058   0.538 -0.0989  0.0777 -0.0269
 1560W        W 5760   6.077   1.206   2.569  0.1204  0.1308 -0.0191
 1561W        W 5761  10.435   0.406   9.907 -0.4019 -0.3643  0.0749
 1562W        W 5762   8.399   9.556  11.118  0.0989 -0.0064 -0.0270
 1563W        W 5763   3.439   6.638   0.948  0.0281  0.0442  0.0626
 1564W        W 5764  10.372   7.224  11.278  0.0451 -0.1861 -0.1215
 1565W        W 5765   7.556   6.752   9.157  0.3242  0.1307  0.0358
 1566W        W 5766   5.136   8.546   2.169 -0.1902 -0.0671  0.0071
 1567W        W 5767   9.335   8.824   8.954 -0.1317 -0.1666  0.1070
 1568W        W 5768   3.549   0.831  12.779  0.0705  0.5078 -0.1187
 1569W        W 5769   9.805   4.143  11.768  0.4085 -0.1354 -0.4301
 1570W        W 5770   5.092   3.898   8.696  0.1064  0.0773 -0.2152
 1571W        W 5771   8.309   6.679   4.117 -0.3007  0.1262 -0.4646
 1572W        W 5772  10.010   3.582  11.040 -0.0754 -0.3596  0.1844
 1573W        W 5773   2.220   5.271   4.225 -0.1280  0.1617  0.1656
 1574W        W 5774   2.735   6.200  11.488 -0.0009 -0.2266  0.6574
 1575W        W 5775   8.748   0.657  10.394  0.0201 -0.1032 -0.1069
 1576W        W 5776   2.979   7.814   3.898 -0.0381 -0.1151 -0.1451
 1577W        W 5777   1.986   6.855   9.014 -0.2110  0.2005 -0.2007
 1578W        W 5778   5.591   9.123  11.891  0.0224 -0.1118 -0.1435
 1579W        W 5779  10.061   8.776  12.956  0.0291 -0.0396  0.1014
 1580W        W 5780   0.883   2.823   0.511 -0.0423 -0.1045 -0.2402
 1581W        W 5781   7.137   9.715   4.163  0.3795  0.0111  0.0966
 1582W        W 5782   5.205   7.249   1.261 -0.1138  0.0768 -0.3952
 1583W        W 5783   4.878   7.901   2.837 -0.3039 -0.1116 -0.2010
 1584W        W 5784   6.379   9.409   4.540 -0.4891  0.2642 -0.1922
 1585W        W 5785   1.232   4.538   4.848  0.0027  0.0353  0.1701
 1586W        W 5786   5.637  10.544  10.514 -0.0514  0.1470  0.2098
 1587W        W 5787   4.099   4.044   3.129 -0.2568 -0.0607 -0.0225
 1588W        W 5788  10.049   6.872   1.939  0.3949 -0.1338 -0.4803
 1589W        W 5789   8.068   1.616   2.055 -0.0379  0.1565 -0.2625
 1590W        W 5790   9.208   7.445   2.994 -0.0857  0.0465 -0.1235
 1591W        W 5791   7.089   0.736   2.485  0.0260 -0.4530 -0.1820
 1592W        W 5792   4.992   7.245  11.775  0.1414  0.4742 -0.0060
 1593W        W 5793   6.609   8.389   0.036  0.0638 -0.1707 -0.0389
 1594W        W 5794   1.547   5.156   3.681  0.1675 -0.1341  0.0332
 1595W        W 5795   8.504   8.438   0.989 -0.3603 -0.0227  0.0999
 1596W        W 5796   0.284   4.744   1.803 -0.1467  0.1066  0.0914
 1597W        W 5797   0.689   4.010   2.772 -0.0306  0.2585 -0.3540
 1598W        W 5798   9.499   9.542  10.402 -0.1889 -0.1244  0.3641
 1599W        W 5799   0.328   9.730   1.266 -0.0014 -0.1746 -0.0391
 1600W        W 5800   5.836   8.089   2.829  0.4038 -0.1040 -0.2800
 1601W        W 5801   0.245   1.305   9.571 -0.2125  0.0338 -0.0936
 1602W        W 5802   7.928   2.865   0.795 -0.0062  0.2403  0.1963
 1603W        W 5803   1.782   2.116  11.326 -0.0430  0.2666 -0.0622
 1604W        W 5804   5.996   0.306  10.905  0.0824  0.0529  0.1972
 1605W        W 5805   9.390   4.498   2.797 -0.0190  0.0316  0.3085
 1606W        W 5806   1.973   5.656  12.431 -0.0612 -0.1637 -0.0221
 1607W        W 5807   0.749   6.496  12.376  0.1973  0.0471  0.0443
 1608W        W 5808   3.914   6.112   8.772 -0.1306  0.1013  0.0204
 1609W        W 5809   0.901   5.192   4.229 -0.1435 -0.0310  0.0503
 1610W        W 5810   2.445   4.741   3.287 -0.1520 -0.0522  0.3463
 1611W        W 5811   2.023   4.010   8.559  0.0430  0.0616  0.0274
 1612W        W 5812   6.541  10.525   0.389  0.0743  0.1451  0.1349
 1613W        W 5813   5.458   2.111   3.346  0.1958 -0.0761  0.3194
 1614W        W 5814   1.058   5.764   8.875 -0.2186  0.2924  0.2247
 1615W        W 5815   8.111   7.001   2.781  0.2087 -0.1981  0.2507
 1616W        W 5816   1.581   9.842   3.919  0.1442 -0.0547 -0.1085
 1617W        W 5817   3.485   5.661   3.512 -0.0783  0.1571  0.1426
 1618W        W 5818   2.969   8.104  10.948  0.1443  0.0503  0.2188
 1619W        W 5819   6.332   1.020  12.880 -0.0308  0.4967 -0.2378
 1620W        W 5820   1.888   9.592   2.159 -0.1400  0.0535 -0.2441
 1621W        W 5821   5.447   0.402   1.803 -0.1427  0.0011 -0.2126
 1622W        W 5822   9.798   7.619  12.514 -0.1379  0.1478 -0.1922
 1623W        W 5823   0.035   7.613   4.332  0.0796 -0.0796  0.0106
 1624W        W 5824   8.099   4.198   3.915 -0.1763  0.0309 -0.0871
 1625W        W 5825   4.151   1.465  10.326 -0.0790  0.0390 -0.0565
 1626W        W 5826   9.045   3.110   9.084 -0.0507  0.0900  0.1693
 1627W        W 5827   4.627   6.928   9.790  0.1867 -0.0570 -0.2281
 1628W        W 5828   2.690   5.950   2.648 -0.0096  0.0737 -0.1146
 1629W        W 5829   0.364   4.632   0.532 -0.0237  0.0803 -0.0604
 1630W        W 5830  10.040  10.080  11.065  0.1532  0.0879 -0.0121
 1631W        W 5831   5.829   8.514   1.333  0.1145  0.1473  0.3092
 1632W        W 5832   4.543   8.044   9.075  0.0523 -0.0296  0.0215
 1633W        W 5833   9.662   2.252   4.414  0.0283  0.0927  0.2145
 1634W        W 5834   0.016   1.617  10.015  0.1634  0.3020  0.1223
 1635W        W 5835   4.903  10.119   3.197 -0.0778 -0.0492 -0.0207
 1636W        W 5836   4.105   7.590   3.349  0.4333  0.0243 -0.1082
 1637W        W 5837   0.721   8.884  12.592 -0.2178 -0.0160  0.2907
 1638W        W 5838   6.806   8.821   0.118 -0.0190 -0.1841 -0.0351
 1639W        W 5839   2.048   1.198   1.313  0.0336  0.1830 -0.1060
 1640W        W 5840   4.765   4.475   9.926  0.1689  0.1355  0.1082
 1641W        W 5841   8.046   0.041   3.135 -0.0831 -0.1380  0.1968
 1642W        W 5842   4.408   8.168   0.503  0.2515  0.0724 -0.2636
 1643W        W 5843   2.306   0.729  11.824  0.4254  0.0677  0.0662
 1644W        W 5844   8.853   6.299   9.728  0.0803  0.2108  0.0385
 1645W        W 5845  10.394   5.293  11.941  0.3264  0.2176 -0.0154
 1646W        W 5846   0.203   2.492   1.739 -0.0057 -0.1257  0.3883
 1647W        W 5847   6.442   4.938   0.625 -0.1296 -0.1897 -0.0193
 1648W        W 5848   8.784   0.733   0.121 -0.2186 -0.1513 -0.0140
 1649W        W 5849   6.678   6.305   1.862 -0.1024 -0.3557 -0.0664
 1650W        W 5850   9.761   1.410   3.862 -0.0398 -0.1192 -0.2817
 1651W        W 5851   6.169   3.037   0.822  0.2278  0.4344  0.3222
 1652W        W 5852   7.683   8.785  11.471  0.1295 -0.3598 -0.2073
 1653W        W 5853   1.721   8.495   1.368  0.0961 -0.1155  0.2938
 1654W        W 5854   4.205   7.117   3.600 -0.3152  0.1207  0.1169
 1655W        W 5855   1.514  10.018  10.774 -0.0367  0.1488  0.0752
 1656W        W 5856   9.226   4.944   0.783 -0.0870  0.1728 -0.0294
 1657W        W 5857   2.012   5.910   8.247 -0.0494  0.3894  0.1662
 1658W        W 5858   4.200   7.424  10.709  0.3004 -0.0992  0.1333
 1659W        W 5859   7.017   3.844   9.260 -0.1182  0.0272  0.5262
 1660W        W 5860   4.290   5.629   8.912 -0.0317 -0.0588 -0.0647
 1661W        W 5861   0.612   1.759  12.533 -0.0070  0.0311  0.1506
 1662W        W 5862   6.048   0.164   7.078 -0.0406  0.0511 -0.1492
 1663W        W 5863   4.746   4.456  12.258  0.2312  0.2979  0.1875
 1664W        W 5864   4.645   4.853  12.536 -0.1569 -0.2467  0.2674
 1665W        W 5865   0.414   4.537  10.503  0.0313  0.1453 -0.2641
 1666W        W 5866   5.238   3.549   4.362  0.2856  0.2027  0.0864
 1667W        W 5867   0.873   4.745   9.128 -0.2327 -0.1448  0.0576
 1668W        W 5868   0.126   4.595  11.394 -0.0747 -0.3951 -0.1193
 1669W        W 5869   7.968   0.876   9.170  0.3287  0.2883 -0.1837
 1670W        W 5870   0.304   9.160   2.877  0.0551  0.0205 -0.1974
 1671W        W 5871   8.544   9.312   9.435 -0.0850  0.3201 -0.0664
 1672W        W 5872   3.754   1.710   2.266 -0.2093 -0.1659 -0.0723
 1673W        W 5873   9.918   6.449  10.169  0.2333  0.0113 -0.1737
 1674W        W 5874   5.461   6.925  11.354  0.2472 -0.0526  0.3250
 1675W        W 5875  10.517   9.346   4.339  0.0822 -0.3865 -0.0047
 1676W        W 5876   9.781   5.547  10.006  0.0153  0.1292  0.0205
 1677W        W 5877   7.780   5.214   9.010  0.1701  0.0955 -0.0524
 1678W        W 5878   4.944   4.729   9.515  0.1070  0.0474  0.2413
 1679W        W 5879   1.083   8.435   4.161 -0.0743 -0.1449  0.1773
 1680W        W 5880   7.683   2.019   1.217  0.2407  0.0674 -0.2027
 1681W        W 5881  10.291   1.634  12.506 -0.1231 -0.0887  0.1474
 1682W        W 5882   8.081   7.667   0.829  0.3104 -0.3160  0.2778
 1683W        W 5883   3.998   3.502   0.728 -0.2684 -0.0211 -0.1671
 1684W        W 5884   4.147   8.575  12.051  0.0892 -0.0984  0.0050
 1685W        W 5885   9.427   8.943   1.843  0.0847  0.2231  0.3346
 1686W        W 5886   7.752   9.274   1.916 -0.1529 -0.0197 -0.2008
 1687W        W 5887   0.905   0.059   4.718 -0.3564  0.0922 -0.2826
 1688W        W 5888   4.145   4.121  13.084  0.2623 -0.3570  0.0281
 1689W        W 5889   8.749   8.800   9.085 -0.0914  0.4000  0.3351
 1690W        W 5890   0.182   9.854   3.458  0.2277 -0.0551 -0.1467
 1691W        W 5891   9.719   9.608   1.058  0.0001  0.2054  0.0469
 1692W        W 5892   4.052   0.024   2.981 -0.3019 -0.3128 -0.2496
 1693W        W 5893   7.212   6.744   3.658 -0.0372 -0.0691  0.0666
 1694W        W 5894   6.580   6.472  10.840 -0.0790 -0.2547 -0.1722
 1695W        W 5895   8.897   8.459  12.041 -0.1316 -0.1103 -0.1356
 1696W        W 5896   4.742   2.475   1.560 -0.0809 -0.3833  0.0346
 1697W        W 5897   5.283   3.642   1.857  0.0481 -0.0710  0.2151
 1698W        W 5898   6.618   6.662   1.229  0.0803 -0.2293  0.4171
 1699W        W 5899   0.133   6.569   2.611  0.0876 -0.1815  0.0021
 1700W        W 5900   1.737   9.631   1.508  0.0897 -0.2069 -0.0705
 1701W        W 5901   5.017   4.551   4.508  0.0447 -0.4337  0.0730
 1702W        W 5902   4.302   1.163   0.507  0.1105  0.2455  0.0269
 1703W        W 5903   2.788   5.697  13.075 -0.0703 -0.3328  0.2260
 1704W        W 5904  10.308   9.569   1.823 -0.2539 -0.0255  0.1282
 1705W        W 5905   0.219   9.648  10.392  0.4490  0.1825 -0.2500
 1706W        W 5906   5.261   9.899  12.233 -0.0830  0.0527  0.2692
 1707W        W 5907   4.507   2.596  13.073  0.2076  0.0864  0.3842
 1708W        W 5908   2.114   9.286   2.863  0.5442  0.0762 -0.0227
 1709W        W 5909   3.603   7.221   2.384  0.0832  0.0059  0.0856
 1710W        W 5910   9.886   0.271   3.204  0.1369  0.2169  0.0290
 1711W        W 5911   8.486   6.653   0.178  0.0700  0.1249  0.1143
 1712W        W 5912   9.798   4.925  10.110 -0.2083 -0.3603  0.1337
 1713W        W 5913   5.407   9.734   0.698  0.1908 -0.0962 -0.1591
 1714W        W 5914   8.063  10.241  12.710  0.0124 -0.2029 -0.1702
 1715W        W 5915   5.594   5.852   8.616 -0.4752  0.0389 -0.2163
 1716W        W 5916   9.643   7.300  10.711  0.1120  0.2583 -0.2760
 1717W        W 5917   3.458   0.343   3.567  0.1357 -0.0931 -0.2238
 1718W        W 5918   1.880   0.202   9.569 -0.0611 -0.2320 -0.0400
 1719W        W 5919   7.058   8.812  12.038  0.1066  0.0420  0.2001
 1720W        W 5920   2.432  10.094  13.059 -0.3938  0.2832  0.2711
 1721W        W 5921   6.493   5.556   1.664  0.1281 -0.2158 -0.0794
 1722W        W 5922   5.833   6.977   7.638 -0.2020 -0.1057  0.0422
 1723W        W 5923   7.635   3.707  13.072  0.1375 -0.0054 -0.1062
 1724W        W 5924   8.085   8.785   3.545  0.1395  0.0722 -0.1728
 1725W        W 5925   7.991   9.217   1.014  0.3057 -0.0379  0.1508
 1726W        W 5926   1.883   7.146  11.771  0.1317 -0.0267 -0.0511
 1727W        W 5927   6.305  10.065  11.381 -0.0427  0.4715 -0.0751
 1728W        W 5928   1.863   2.238  12.744  0.1233 -0.2432 -0.2900
 1729W        W 5929   7.872   2.982  10.157  0.1073  0.0242  0.0157
 1730W        W 5930   2.089   5.995   1.819 -0.0326  0.1318  0.2116
 1731W        W 5931   9.650   9.068  12.915 -0.2878  0.0623 -0.2599
 1732W        W 5932   7.495   8.807   9.860 -0.1763 -0.4410 -0.0167
 1733W        W 5933   8.479   0.375   4.767 -0.4407  0.2200 -0.0243
 1734W        W 5934   2.128   7.155   8.621  0.1376 -0.0862 -0.0748
 1735W        W 5935   9.564   1.396  13.264  0.1225  0.0321 -0.1717
 1736W        W 5936   8.341   1.438   3.862 -0.0125 -0.0490  0.2896
 1737W        W 5937   2.934   4.293   0.740 -0.0420 -0.2746 -0.0834
 1738W        W 5938   2.828   1.627  11.077  0.0649 -0.2086 -0.0732
 1739W        W 5939   8.274   6.760  10.032 -0.2971  0.0788  0.3007
 1740W        W 5940   8.563   0.861   3.076 -0.4918 -0.3719 -0.2229
 1741W        W 5941   7.424   6.489   1.065  0.0638  0.2974  0.1877
 1742W        W 5942   7.895   4.444  12.786  0.2159 -0.2783  0.1060
 1743W        W 5943   5.967   3.353   1.163 -0.0922 -0.0681  0.0330
 1744W        W 5944   8.686   0.117  10.505  0.1540 -0.1311  0.0552
 1745W        W 5945   3.049   9.715   0.920 -0.1132 -0.0548  0.0426
 1746W        W 5946   4.830  10.387  12.391  0.0237  0.1346  0.3329
 1747W        W 5947   8.564   3.602   4.739 -0.0233  0.0359  0.2162
 1748W        W 5948   0.432   5.060   4.239 -0.3006  0.1424 -0.0257
 1749W        W 5949   5.060   7.669  10.320  0.0387  0.0852 -0.1502
 1750W        W 5950   4.313   4.524   1.518  0.1480  0.0473  0.4799
 1751W        W 5951   2.860   1.578   0.115  0.2683 -0.2033 -0.0257
 1752W        W 5952   4.677   2.631   9.986 -0.3211  0.2207  0.4955
 1753W        W 5953   6.008   5.588   9.319  0.2415 -0.3630  0.2117
 1754W        W 5954   7.588  10.491  11.935 -0.0804 -0.0608 -0.2086
 1755W        W 5955   4.401   2.183   6.118  0.1370  0.1887 -0.0481
 1756W        W 5956   3.268   9.116   9.886  0.1652  0.2216  0.2122
 1757W        W 5957   5.947   6.834  12.102 -0.0770 -0.0836  0.1566
 1758W        W 5958   5.141   9.796   1.174 -0.0255  0.0342  0.2858
 1759W        W 5959   2.459   4.707   0.623 -0.2572  0.0960 -0.1814
 1760W        W 5960   8.666   4.517  11.141 -0.4636  0.1545 -0.1796
 1761W        W 5961  10.319   8.432  11.001 -0.3705 -0.0170  0.0646
 1762W        W 5962   4.173   6.369  11.460  0.0965  0.0940  0.0516
 1763W        W 5963   6.029   9.123   2.100 -0.2098 -0.1814  0.1368
 1764W        W 5964   1.904   4.266  10.308  0.2660  0.1191  0.2490
 1765W        W 5965   8.461   6.556   9.075  0.0864 -0.0566  0.1094
 1766W        W 5966   9.417   1.197  12.764  0.0177  0.1144 -0.2339
 1767W        W 5967   6.780   9.581  12.352 -0.1467  0.1692  0.2599
 1768W        W 5968   8.755   1.846   4.433 -0.0203  0.2872 -0.1128
 1769W        W 5969   2.325   8.658   8.995  0.1826 -0.0439  0.0731
 1770W        W 5970   8.713   5.958   3.183  0.2111  0.3802  0.1966
 1771W        W 5971  10.188   1.070   3.014 -0.0446 -0.1144 -0.0042
 1772W        W 5972   1.673   4.679   1.132  0.0355  0.0492 -0.1068
 1773W        W 5973   4.656   0.318  10.578 -0.1338 -0.0852 -0.0013
 1774W        W 5974   9.748   1.080   1.011  0.2415 -0.2193 -0.0743
 1775W        W 5975   6.272   2.342   1.026  0.1745  0.0608 -0.0872
 1776W        W 5976   1.243   1.107  11.466 -0.2015  0.1029 -0.0473
 1777W        W 5977   6.346   7.482  11.045  0.1260 -0.2111 -0.0029
 1778W        W 5978   1.549   8.164   1.748 -0.0797 -0.0746 -0.2645
 1779W        W 5979   2.807   6.849  12.151  0.3163 -0.1702 -0.3350
 1780W        W 5980   4.813   7.119   2.984  0.1611  0.0542  0.0172
 1781W        W 5981   7.502   2.693   1.936 -0.3029  0.0072 -0.3337
 1782W        W 5982   6.625   9.024  12.954 -0.2544  0.0809 -0.5645
 1783W        W 5983   8.667   9.170  10.746 -0.3490 -0.3014 -0.1431
 1784W        W 5984   0.335   9.406   9.772  0.0619 -0.2006  0.0200
 1785W        W 5985   2.988   5.018   3.079 -0.0285 -0.0332  0.0525
 1786W        W 5986   7.351   6.427  11.887 -0.3503 -0.5593  0.4335
 1787W        W 5987   9.290   4.789   1.420 -0.2073  0.0506  0.0407
 1788W        W 5988   0.662   0.998   9.660 -0.0274  0.0065  0.2597
 1789W        W 5989   8.425   7.762  12.273  0.3988  0.1467 -0.0963
 1790W        W 5990   1.610   1.972  11.790  0.3801 -0.1637 -0.1306
 1791W        W 5991   9.584   2.187   9.185 -0.0168  0.2080 -0.3043
 1792W        W 5992   1.886   3.489   3.505  0.4254  0.0320  0.2027
 1793W        W 5993   6.823   9.225  11.784 -0.0113  0.0070 -0.1102
 1794W        W 5994   7.547   8.551   9.310  0.1559  0.1036 -0.1543
 1795W        W 5995   1.465   0.073  12.233 -0.1092 -0.0813  0.1404
 1796W        W 5996   2.461   0.248  11.111 -0.1482 -0.1547  0.2776
 1797W        W 5997  10.022   3.202   9.440 -0.3869  0.0907  0.0300
 1798W        W 5998   0.108   1.234   9.093  0.0956  0.2223 -0.0482
 1799W        W 5999   6.524   7.695   7.919 -0.0697  0.1726 -0.2382
 1800W        W 6000   7.574   8.377  12.287 -0.0240 -0.1860 -0.3033
 1801W        W 6001   5.229   4.623  12.736  0.0509 -0.1195  0.0230
 1802W        W 6002   3.184   9.108   1.587 -0.0758  0.3457  0.2804
 1803W        W 6003   4.752   5.152  10.620 -0.0728 -0.1294 -0.3464
 1804W        W 6004   2.446   7.123   9.052  0.0845  0.1093  0.0558
 1805W        W 6005   8.768   4.201  11.639  0.1961  0.1316  0.0731
 1806W        W 6006   5.075   0.432   0.515 -0.0878  0.2950  0.1409
 1807W        W 6007   7.687   8.515   3.679 -0.1546  0.0335 -0.1713
 1808W        W 6008   3.021   1.059  12.020 -0.0138  0.0272  0.1048
 1809W        W 6009  10.512  10.509  12.661  0.3540  0.0777  0.3113
 1810W        W 6010   4.979   6.762   0.976  0.2764 -0.0329  0.0875
 1811W        W 6011   9.756   1.280  11.065  0.2762  0.1940 -0.0959
 1812W        W 6012   1.883   9.036  11.201  0.1355  0.1405  0.0876
 1813W        W 6013   2.805   4.599   2.920  0.0039  0.0480 -0.0806
 1814W        W 6014   2.438   1.510   1.429  0.2200  0.0096  0.1464
 1815W        W 6015   5.266   0.105   0.884 -0.1802  0.0854 -0.1402
 1816W        W 6016   9.305   8.690  11.626 -0.1735 -0.3049 -0.1628
 1817W        W 6017   1.934   3.073   2.289 -0.1108  0.0515  0.2398
 1818W        W 6018   0.655  10.351   1.319  0.1373 -0.4265 -0.3138
 1819W        W 6019  10.002   8.955   0.554 -0.1289  0.0688 -0.0252
 1820W        W 6020  10.118   5.471  11.000 -0.1819 -0.1293 -0.1825
 1821W        W 6021   0.655   0.559   3.838  0.1172 -0.0364 -0.0417
 1822W        W 6022  10.030   7.831   1.974 -0.1552 -0.3024  0.2550
 1823W        W 6023  10.537   9.545   3.014  0.0123  0.1494 -0.1464
 1824W        W 6024   5.672   3.681   3.032  0.0665  0.2905 -0.1267
 1825W        W 6025   8.009   8.236  13.172  0.1902  0.1620 -0.1803
 1826W        W 6026   5.240   9.311   1.459 -0.1872 -0.1114 -0.2722
 1827W        W 6027   2.592   0.626   4.021  0.0156 -0.0553 -0.2752
 1828W        W 6028   6.289   8.881  10.188  0.0470  0.0652 -0.1326
 1829W        W 6029   9.316   8.547   0.374  0.0055 -0.0666  0.0576
 1830W        W 6030   5.931   6.873   4.502 -0.0879 -0.0039  0.0731
 1831W        W 6031   5.766   1.333   2.949  0.1683  0.0555  0.1597
 1832W        W 6032   3.499   6.340   0.569  0.1291 -0.1064 -0.0306
 1833W        W 6033   0.593   8.288   0.688 -0.4530 -0.1806  0.5595
 1834W        W 6034   5.592   7.425  10.463  0.0988  0.0381 -0.0885
 1835W        W 6035   5.751   8.472  10.484  0.1526 -0.0497 -0.0551
 1836W        W 6036   1.709   0.923  10.701  0.0391 -0.0433 -0.2044
 1837W        W 6037   5.392   8.094  10.345  0.3206 -0.1309 -0.0325
 1838W        W 6038   6.338   8.409  11.784  0.1048  0.0101  0.3309
 1839W        W 6039   4.695   0.823  13.174  0.0923 -0.0730  0.2729
 1840W        W 6040   8.232   6.380   3.045  0.0488  0.2799 -0.2168
 1841W        W 6041   0.004   6.841   1.675  0.0209  0.3325  0.1883
 1842W        W 6042   9.419   2.011   2.022 -0.1724  0.0503  0.1290
 1843W        W 6043   2.815   7.390  12.216  0.0405  0.1802 -0.1891
 1844W        W 6044   7.961   1.588   1.184 -0.1312  0.1589 -0.3757
 1845W        W 6045   4.901   6.802  10.484  0.1571  0.6045 -0.0132
 1846W        W 6046   4.794   6.024   4.661  0.4906  0.2080 -0.1763
 1847W        W 6047   9.024   9.366  11.747 -0.1018  0.2468 -0.1444
 1848W        W 6048   5.984   3.353   2.303  0.0344  0.3292 -0.0179
 1849W        W 6049   8.723   5.279   3.111 -0.1626 -0.0303  0.1967
 1850W        W 6050   3.316   7.570   1.082 -0.2117 -0.2910 -0.0478
 1851W        W 6051   8.978   2.051   0.064 -0.3686 -0.0852 -0.2251
 1852W        W 6052   7.654   4.182  10.058 -0.0456 -0.2713  0.0577
 1853W        W 6053   7.889   7.391  11.888 -0.1090  0.1111  0.1266
 1854W        W 6054   3.098   9.473   0.069  0.1152 -0.3250  0.1818
 1855W        W 6055   9.843   2.168   0.287 -0.0119 -0.0850 -0.0448
 1856W        W 6056   2.499   5.010   2.789 -0.3050 -0.2024 -0.0421
 1857W        W 6057   9.443   1.860   1.477 -0.0360 -0.0927  0.1670
 1858W        W 6058   3.753   7.401   0.155  0.0005  0.2926  0.0410
 1859W        W 6059   9.273   3.737   3.628  0.2258 -0.2137  0.2358
 1860W        W 6060   6.579   7.213   8.347  0.0912  0.2230 -0.0011
 1861W        W 6061   7.102   1.272   1.625  0.1242 -0.3774  0.1778
 1862W        W 6062   2.599   3.353   0.534 -0.0435 -0.2065  0.0123
 1863W        W 6063   2.455   2.915  12.099  0.2641  0.5790 -0.0676
 1864W        W 6064   4.398   5.103   8.788  0.2362  0.1257 -0.2546
 1865W        W 6065   3.594   6.345   3.599  0.1805 -0.0781 -0.2796
 1866W        W 6066   3.344   7.249   9.346 -0.1539 -0.2179 -0.0930
 1867W        W 6067   5.951   3.170  12.807 -0.0128  0.1498  0.0460
 1868W        W 6068   0.235   7.379   8.334 -0.1762  0.1397  0.0529
 1869W        W 6069   1.930  10.017  11.135 -0.0335 -0.1354 -0.1275
 1870W        W 6070   3.177   9.041   2.071  0.1409  0.1686  0.0466
 1871W        W 6071   0.324   1.012  12.867  0.2267  0.1608  0.1653
 1872W        W 6072  10.055   4.581   4.570 -0.0480 -0.2476  0.1268
 1873W        W 6073   9.850   3.409  10.213 -0.1503 -0.3099 -0.0682
 1874W        W 6074  10.451   7.681   9.121 -0.1204 -0.2633  0.1636
 1875W        W 6075   1.640   4.925   8.240  0.0869  0.0137 -0.1702
 1876W        W 6076   4.104   8.203   2.117 -0.2156  0.0503  0.2446
 1877W        W 6077   5.045   5.223   9.465  0.3063 -0.1788 -0.1886
 1878W        W 6078   5.804   7.943   1.659 -0.0591 -0.0865 -0.0709
 1879W        W 6079   8.925   2.917   0.819  0.0698 -0.2314  0.3619
 1880W        W 6080   6.991   9.055   1.309  0.1042  0.0490 -0.2059
 1881W        W 6081  10.423   4.491  10.559 -0.2127  0.2335 -0.2589
 1882W        W 6082   5.919   2.580   0.768 -0.1277  0.1476 -0.0209
 1883W        W 6083   7.977   5.774  12.023  0.0563 -0.1437 -0.1950
 1884W        W 6084   9.765   2.379  13.162  0.2137  0.0990 -0.0926
 1885W        W 6085   5.749   9.308   0.823  0.0600  0.1487  0.0494
 1886W        W 6086   0.426   2.943   3.382  0.2890 -0.2290 -0.1605
 1887W        W 6087   6.189   4.706  12.612 -0.1583 -0.4480 -0.1377
 1888W        W 6088   3.322   6.744  12.251  0.1437  0.0513  0.2068
 1889W        W 6089  10.530   5.147  13.113 -0.0049 -0.0281 -0.1423
 1890W        W 6090   8.260   5.388   1.856 -0.3902  0.0811  0.0170
 1891W        W 6091   8.870   9.123  12.667  0.1288  0.0913 -0.3312
 1892W        W 6092   3.278   6.047  10.220 -0.3447 -0.1015  0.2349
 1893W        W 6093   5.819   5.220   0.997  0.1044  0.1721 -0.0594
 1894W        W 6094   2.835   1.345   9.596 -0.0847 -0.2263 -0.0790
 1895W        W 6095   4.024   0.370   2.159 -0.1817  0.1011 -0.1644
 1896W        W 6096   5.540   5.939   2.582  0.0801  0.0770  0.2524
 1897W        W 6097   5.552   2.509   2.560 -0.1627 -0.2772 -0.1204
 1898W        W 6098   6.493   7.485   0.493 -0.0767  0.1433  0.0590
 1899W        W 6099   9.075   0.878  12.920 -0.0262 -0.0684 -0.1150
 1900W        W 6100   9.509   2.316  12.335  0.0117  0.1575 -0.2138
 1901W        W 6101   7.409   0.259  12.903  0.0715  0.0591 -0.2564
 1902W        W 6102   6.358   7.960   9.698 -0.3362  0.1063  0.1645
 1903W        W 6103   1.787   3.557   2.125 -0.1184 -0.1190 -0.2959
 1904W        W 6104   4.764   3.563   3.007  0.0782 -0.0468  0.0897
 1905W        W 6105   3.680   1.160  11.337  0.1677 -0.1940 -0.1587
 1906W        W 6106   0.361  10.332  10.360 -0.3602 -0.0031 -0.0376
 1907W        W 6107   7.204   6.553   0.378 -0.2781  0.0144  0.2445
 1908W        W 6108   2.639   0.577  12.978  0.0450 -0.2273  0.3055
 1909W        W 6109   8.590   6.000   4.480 -0.0793 -0.1446  0.1006
 1910W        W 6110   6.521   9.237   0.204  0.0016 -0.3183  0.1257
 1911W        W 6111   4.703   9.680   0.873 -0.2105 -0.1763  0.1509
 1912W        W 6112   2.609   0.108   4.122 -0.0626 -0.1723 -0.0729
 1913W        W 6113   5.816   6.493   9.213  0.0104 -0.0586 -0.3958
 1914W        W 6114   0.231   1.652   4.636 -0.0281 -0.0857 -0.1283
 1915W        W 6115   7.838   2.697  11.722  0.1473 -0.1692  0.0660
 1916W        W 6116   5.184   4.555   9.140 -0.0010  0.0179  0.0461
 1917W        W 6117   1.368  10.074   2.709  0.1865  0.0412  0.0827
 1918W        W 6118   4.830   9.620   1.600 -0.1616  0.2565 -0.1921
 1919W        W 6119   1.621   6.261   9.390  0.2456  0.1922  0.0671
 1920W        W 6120   2.537   5.076   2.242 -0.2037  0.1325 -0.1085
 1921W        W 6121   7.247   7.615   4.345 -0.2481  0.2087  0.2527
 1922W        W 6122   9.227   3.108   1.185 -0.2360 -0.0592 -0.0798
 1923W        W 6123   7.868   3.779   9.986  0.1554  0.1439 -0.0336
 1924W        W 6124   6.783   7.791   0.859  0.2894  0.2039 -0.2381
 1925W        W 6125   4.628   8.495  12.282  0.0802 -0.2099 -0.2014
 1926W        W 6126   2.758   8.500   2.701  0.0333 -0.0685 -0.1797
 1927W        W 6127   1.364   7.951   9.299  0.0835  0.2047  0.0441
 1928W        W 6128   1.543   6.518   8.917 -0.0682 -0.0305  0.0775
 1929W        W 6129   1.092   0.423   3.614  0.1577  0.3445  0.1260
 1930W        W 6130   6.297   1.393   3.050 -0.0329 -0.0113  0.0765
 1931W        W 6131   8.503   8.682  10.656  0.0591  0.0862 -0.0164
 1932W        W 6132   0.712   0.740   1.386 -0.0798  0.1026 -0.1104
 1933W        W 6133   6.032   5.394   1.466  0.2787 -0.0153 -0.1813
 1934W        W 6134   9.295  10.192   9.734 -0.0968  0.2015 -0.0729
 1935W        W 6135   7.502   9.225  10.252  0.1111  0.1061  0.1404
 1936W        W 6136   2.461   0.961  13.214 -0.2436 -0.0531  0.0373
 1937W        W 6137   0.943   5.893  11.497  0.2671  0.0265 -0.3689
 1938W        W 6138   2.158   5.430  10.872 -0.1816 -0.0207  0.5222
 1939W        W 6139   7.281   7.572   9.337 -0.1477 -0.2043  0.0472
 1940W        W 6140   8.403   9.483   3.090 -0.4836  0.0816 -0.1809
 1941W        W 6141   7.857   7.736  13.195  0.0017 -0.0982  0.0825
 1942W        W 6142   5.059   2.174   6.142  0.3573 -0.1038 -0.1093
 1943W        W 6143   5.309   7.244  12.315  0.0992 -0.0225  0.2431
 1944W        W 6144   8.080   9.494   1.500 -0.0950 -0.0621 -0.2184
 1945W        W 6145   4.302   3.151   0.988 -0.2258  0.1534  0.1002
 1946W        W 6146   3.031   8.638   8.637 -0.0153 -0.0333  0.1694
 1947W        W 6147   6.016   5.873  12.429  0.2361 -0.0714  0.0700
 1948W        W 6148   6.382   0.073  10.482  0.1380 -0.1817 -0.2019
 1949W        W 6149   7.890   2.215  12.107 -0.0717 -0.0053  0.1801
 1950W        W 6150   1.718   4.136   1.010  0.0221 -0.1820 -0.2850
 1951W        W 6151   7.002   0.769   3.751  0.0155  0.1385 -0.2475
 1952W        W 6152  10.031   8.071  11.247 -0.1547  0.3648 -0.0572
 1953W        W 6153  10.501   1.159   0.232  0.1272 -0.1275 -0.0654
 1954W        W 6154   3.479   4.562   0.047  0.0592  0.1984 -0.1757
 1955W        W 6155   0.478   1.563  11.517  0.0358  0.4322 -0.1081
 1956W        W 6156   8.890   2.398   0.637 -0.2470  0.1960 -0.1422
 1957W        W 6157   9.010   9.810  10.302  0.0200  0.2639  0.1697
 1958W        W 6158   9.253   5.356   2.264 -0.1191  0.0307  0.1107
 1959W        W 6159   1.790   4.205  12.009 -0.0692 -0.0018 -0.0759
 1960W        W 6160   8.353   5.263  11.450  0.1453 -0.2525 -0.3076
 1961W        W 6161   2.876   6.964  10.235  0.0532  0.0521 -0.3284
 1962W        W 6162   7.056   7.375   0.537  0.0839  0.0467 -0.1283
 1963W        W 6163   9.294   9.693   9.860 -0.0787  0.1088 -0.3697
 1964W        W 6164   1.754   8.459   2.680 -0.1930  0.1815 -0.0670
 1965W        W 6165   1.295   1.496  11.848  0.0519 -0.0952  0.0303
 1966W        W 6166   9.325   1.658  11.223  0.1702  0.0802 -0.3055
 1967W        W 6167   7.412   1.857   0.121 -0.0506 -0.2074 -0.0819
 1968W        W 6168   3.022   4.993  10.827  0.2610  0.0176  0.2370
 1969W        W 6169   3.568   0.273  12.164 -0.0323  0.0123  0.2672
 1970W        W 6170   4.426   6.142   0.141 -0.0194 -0.3540  0.2773
 1971W        W 6171   4.801   3.668   2.489 -0.3131  0.0692  0.0206
 1972W        W 6172   5.167   1.025   2.491 -0.0016  0.2738 -0.0313
 1973W        W 6173   8.868   3.541  13.025 -0.1941  0.0896  0.0000
 1974W        W 6174   2.895   4.653   0.101 -0.0171 -0.1222 -0.0496
 1975W        W 6175   7.613   0.859   4.084 -0.0883  0.0655  0.1514
 1976W        W 6176   6.007   4.147   1.839 -0.1270 -0.0479  0.4531
 1977W        W 6177   9.216   0.790   2.441  0.0574  0.1668  0.1838
 1978W        W 6178   1.200   9.973   8.551 -0.0059 -0.2323 -0.0912
 1979W        W 6179   4.778   9.857   2.712  0.1058 -0.1529  0.0843
 1980W        W 6180   9.858   9.130   0.946  0.0555  0.1572  0.1505
 1981W        W 6181   8.491   6.199  11.085 -0.2285  0.3063 -0.1411
 1982W        W 6182   6.519   6.408   3.684 -0.1518  0.0779 -0.1744
 1983W        W 6183   0.995   2.046   0.919 -0.1980  0.4323  0.2920
 1984W        W 6184   3.543   5.977  12.142  0.2006 -0.1726 -0.2109
 1985W        W 6185   9.327   8.981  12.533  0.0964 -0.1710 -0.0425
 1986W        W 6186   3.913  10.167   2.639  0.0254 -0.1493 -0.0468
 1987W        W 6187   4.333   7.063   3.090  0.1358 -0.1144  0.0724
 1988W        W 6188   2.659   8.587  11.075  0.1981  0.0442 -0.0570
 1989W        W 6189   4.663   7.263   3.452  0.2972 -0.3760  0.0411
 1990W        W 6190   5.562   8.412   1.876  0.0334  0.0104 -0.1387
 1991W        W 6191   1.866   9.945  13.181 -0.2699  0.1681  0.0156
 1992W        W 6192   9.730   9.610   1.807  0.0035  0.2943  0.1232
 1993W        W 6193   2.429   1.625   0.426 -0.0959 -0.1652 -0.1915
 1994W        W 6194   7.277   3.965  10.750  0.0307  0.0413 -0.2066
 1995W        W 6195   6.482   3.128  12.814  0.2210  0.1525 -0.2654
 1996W        W 6196  10.147   3.365  11.608 -0.1408 -0.0612  0.1156
 1997W        W 6197  10.115   4.492  11.463 -0.2414 -0.1350 -0.0227
 1998W        W 6198   8.932   0.353   3.065  0.0384 -0.0982  0.0239
 1999W        W 6199   9.365  10.410   2.717 -0.0083 -0.2364 -0.0665
 2000W        W 6200   2.673   6.216   9.434  0.0254 -0.3001  0.3145
 2001W        W 6201   5.964   6.752   3.419 -0.1183 -0.2495  0.1555
 2002W        W 6202   3.136   5.468  10.424  0.2441 -0.1350  0.0428
 2003W        W 6203   7.412   1.504   9.643  0.0082  0.2574 -0.0671
 2004W        W 6204   1.440   3.600  12.526 -0.0423  0.2262 -0.0368
 2005W        W 6205   6.978   5.103   9.705 -0.1815  0.2894  0.1391
 2006W        W 6206   4.222   5.193  12.467  0.0121  0.1772 -0.1850
 2007W        W 6207   2.396   8.559   9.520  0.4088 -0.0551  0.1472
 2008W        W 6208   4.250   2.331  11.913 -0.0526  0.0167  0.0272
 2009W        W 6209  10.310   6.451   2.940  0.4057 -0.0615  0.2482
 2010W        W 6210  10.035   6.810   0.243  0.2330  0.2409  0.0599
 2011W        W 6211   0.827   9.771   8.322  0.2509  0.2265  0.1437
 2012W        W 6212   8.652   8.191  12.387  0.1016 -0.1663 -0.4415
 2013W        W 6213   5.269   0.834  10.349  0.3638  0.2414  0.0630
 2014W        W 6214   0.531   6.945   2.799 -0.1499 -0.1432 -0.1776
 2015W        W 6215   7.005   3.462   2.299  0.2575  0.0406 -0.1947
 2016W        W 6216   5.806   6.139   3.045  0.2512 -0.2301  0.1663
 2017W        W 6217   5.792   6.401   4.271  0.0702 -0.1186 -0.0282
 2018W        W 6218   5.032   5.268  11.051 -0.1654  0.1464  0.1131
 2019W        W 6219   3.533   2.253   3.651 -0.0798  0.2447  0.1349
 2020W        W 6220   6.459  10.293   1.598 -0.2941 -0.2576 -0.0103
 2021W        W 6221   8.544   9.118   9.856 -0.2624 -0.1501 -0.0162
 2022W        W 6222   9.050   7.302  11.001  0.3723  0.2191 -0.0203
 2023W        W 6223  10.508   9.967   1.436  0.1968 -0.1126  0.2050
 2024W        W 6224   8.198   1.845  12.818  0.1112 -0.0661  0.0223
 2025W        W 6225   6.785   8.136   1.262 -0.0932 -0.2121  0.2133
 2026W        W 6226   4.166   1.712   2.604 -0.0054 -0.1444 -0.3277
 2027W        W 6227   6.009   9.326   2.984 -0.0618  0.2464  0.0473
 2028W        W 6228   6.651   8.542   2.533 -0.0097 -0.4240 -0.1450
 2029W        W 6229   9.904   2.982   3.112  0.1380  0.1118  0.1107
 2030W        W 6230   5.702   5.046   8.648  0.3942 -0.2116 -0.1132
 2031W        W 6231   4.518   6.376   1.918 -0.1936 -0.0904 -0.1657
 2032W        W 6232   8.053   3.787   0.309  0.1282 -0.3021 -0.0999
 2033W        W 6233   1.981   8.159  12.653 -0.1010 -0.1017 -0.0059
 2034W        W 6234   3.050   0.684   0.666 -0.0424 -0.0052 -0.1274
 2035W        W 6235   7.551   1.124  12.479 -0.0256 -0.0661 -0.0716
 2036W        W 6236   1.879   0.832   0.980  0.0062 -0.0710  0.1241
 2037W        W 6237   5.998   4.114  10.909  0.1996  0.1430 -0.2623
 2038W        W 6238   0.834   5.680  13.123 -0.0690 -0.1741  0.2214
 2039W        W 6239   0.426   1.247   3.417 -0.0812  0.2146 -0.2652
 2040W        W 6240   0.514   2.857  13.105  0.0773 -0.0807 -0.0853
 2041W        W 6241   6.493   3.875   8.527 -0.0683  0.0018 -0.1628
 2042W        W 6242   1.358   4.926  13.142 -0.0921  0.0743  0.2659
 2043W        W 6243   7.990  10.246   3.526  0.0549  0.0854  0.0309
 2044W        W 6244   6.310  10.114   3.302 -0.0916 -0.3643  0.1477
 2045W        W 6245   5.737   0.243   0.910  0.1250  0.4633  0.2146
 2046W        W 6246   8.643   2.553   9.735  0.2252 -0.0420 -0.2104
 2047W        W 6247   1.524   6.948   9.289  0.4249 -0.2205 -0.0665
 2048W        W 6248   0.218   3.682  11.642 -0.0880  0.1950 -0.4160
 2049W        W 6249   3.206   6.794   0.505  0.3335  0.3587 -0.3714
 2050W        W 6250   3.984   5.704   1.057  0.2123  0.0135 -0.0381
 2051W        W 6251   2.584   8.104  11.337  0.1345  0.1519 -0.3611
 2052W        W 6252   5.467   2.310   9.691  0.4646 -0.3989 -0.1832
 2053W        W 6253   6.886   4.788  10.924  0.1051 -0.1533  0.0812
 2054W        W 6254   2.040   0.534   9.166  0.0078 -0.0291  0.2948
 2055W        W 6255   4.818   6.651   1.484  0.1663  0.4476  0.2975
 2056W        W 6256  10.517   9.156   2.002  0.1327 -0.1262 -0.0199
 2057W        W 6257   4.666  10.055   1.872 -0.1885 -0.1028  0.1353
 2058W        W 6258   8.690  10.431   1.769 -0.2287  0.2303 -0.1271
 2059W        W 6259   0.131   7.753  10.133  0.1093  0.2204 -0.1806
 2060W        W 6260   0.261   7.064   4.684  0.0555 -0.3666 -0.1378
 2061W        W 6261  10.372  10.520   3.249  0.1039 -0.0463  0.1009
 2062W        W 6262   1.894   6.010  12.117 -0.3751  0.0118 -0.3948
 2063W        W 6263   8.430   8.949   5.313 -0.1318  0.0289  0.2062
 2064W        W 6264   1.551   9.912  11.525  0.4125  0.1045 -0.0304
 2065W        W 6265   2.997   9.647  11.821  0.1175 -0.0822  0.3054
 2066W        W 6266   0.165   4.892  10.010 -0.0487  0.0360 -0.1569
 2067W        W 6267   3.917   4.208   1.451  0.3423  0.0696  0.0404
 2068W        W 6268   6.000   5.248   0.517 -0.3228 -0.1898  0.1750
 2069W        W 6269   3.748   9.722   2.919  0.0443  0.1364 -0.1348
 2070W        W 6270   9.366   4.159   3.311 -0.1119 -0.0988 -0.0900
 2071W        W 6271   1.258   0.632  13.090  0.0489 -0.0574 -0.0813
 2072W        W 6272   0.378   9.655  11.949  0.0161 -0.0267  0.2152
 2073W        W 6273  10.120   6.307  11.591  0.2120  0.3442 -0.0259
 2074W        W 6274   8.000   6.407   5.268  0.0425 -0.0821  0.1494
 2075W        W 6275   0.054   6.216   9.348 -0.2826  0.1539 -0.3272
 2076W        W 6276   9.499   0.251  11.860  0.4801  0.0549  0.0675
 2077W        W 6277   9.113   3.871   1.027  0.1739 -0.0627 -0.1930
 2078W        W 6278   5.546   4.583  11.787  0.0824 -0.0889 -0.0404
 2079W        W 6279   3.353   2.351   3.008  0.1813  0.0453  0.0597
 2080W        W 6280   9.920   0.221   1.385  0.0321  0.0727 -0.0265
 2081W        W 6281   7.256   4.196   4.875  0.1966 -0.3375  0.2995
 2082W        W 6282   3.682   1.386  12.692 -0.1550 -0.0685  0.0104
 2083W        W 6283   0.488   8.339  12.672  0.0959 -0.1563 -0.0690
 2084W        W 6284   0.151   6.722  12.791  0.1103  0.1075  0.1042
 2085W        W 6285   8.209   5.834   3.099 -0.0739 -0.1138  0.2676
 2086W        W 6286   5.859   3.816  10.465  0.2237 -0.0279 -0.2815
 2087W        W 6287   4.029   0.783   1.509  0.1100 -0.1470 -0.2599
 2088W        W 6288   7.005   7.318   2.461 -0.0628 -0.0794  0.1138
 2089W        W 6289   5.600   4.086   2.074 -0.2054  0.1043 -0.2234
 2090W        W 6290  10.448   1.446  13.074 -0.1412 -0.0434 -0.2589
 2091W        W 6291   2.145   8.312  12.003 -0.0620 -0.1282 -0.0752
 2092W        W 6292   0.167   8.084  10.923 -0.0266  0.0968  0.0706
 2093W        W 6293   6.379   5.212   1.094 -0.0459 -0.4351 -0.2540
 2094W        W 6294   2.963   9.261  10.754 -0.0141  0.2971  0.2301
 2095W        W 6295   4.097  10.184  11.863  0.2682  0.0619 -0.1609
 2096W        W 6296   3.251   5.933   4.313  0.1195  0.1568  0.0815
 2097W        W 6297   6.017   1.683   2.689  0.0744  0.0107  0.2505
 2098W        W 6298   8.009   8.857   2.956  0.3617  0.0647 -0.0511
 2099W        W 6299   7.023   8.976   2.540  0.1890  0.0088  0.0602
 2100W        W 6300  10.417   3.632  11.305 -0.0168 -0.1008 -0.0106
 2101W        W 6301   0.974   4.023  11.192  0.2015  0.0293 -0.1469
 2102W        W 6302   3.070   4.277  13.192 -0.1360  0.0873  0.1151
 2103W        W 6303   1.079   1.650   1.343 -0.3790 -0.1614 -0.2245
 2104W        W 6304   8.414   7.780   4.436  0.0213 -0.0503 -0.0800
 2105W        W 6305   4.977   3.111   3.020 -0.0135  0.1297  0.0509
 2106W        W 6306   9.559   4.093   3.847 -0.0033 -0.0486 -0.0967
 2107W        W 6307   6.643   7.297  12.590 -0.4035 -0.1000  0.1867
 2108W        W 6308   0.846   9.485  12.016 -0.1091 -0.2247  0.0018
 2109W        W 6309   6.392   6.598  12.140 -0.2735  0.0515  0.0200
 2110W        W 6310   1.030   9.380   2.913  0.0257 -0.1500 -0.0171
 2111W        W 6311   1.968   7.746   9.382  0.2107  0.1513 -0.0830
 2112W        W 6312   0.871   3.313   2.133  0.2451 -0.0120  0.1621
 2113W        W 6313   0.716  10.435  10.777 -0.2782 -0.0254 -0.1962
 2114W        W 6314   9.244   6.021   1.087 -0.0745  0.1855  0.0269
 2115W        W 6315   9.026   2.831   2.978 -0.0102  0.0181 -0.0496
 2116W        W 6316   8.395   0.210   2.715 -0.1454  0.0143 -0.1580
 2117W        W 6317   9.404   3.630   0.662 -0.0791  0.4024  0.0245
 2118W        W 6318   3.065   2.492   0.053  0.0421  0.0178  0.0317
 2119W        W 6319   9.923   4.729   1.572 -0.0180 -0.1954  0.0723
 2120W        W 6320   5.934   2.325   0.001  0.2190  0.0564  0.1012
 2121W        W 6321   1.387   2.552  12.875  0.0920 -0.1205  0.1526
 2122W        W 6322   0.898   0.938   0.252  0.0455 -0.3578 -0.1109
 2123W        W 6323   2.997  10.037  10.439  0.2629  0.2680 -0.2753
 2124W        W 6324   8.406   9.244   0.253 -0.0878  0.1908 -0.1924
 2125W        W 6325   7.262   7.118  11.131 -0.0120  0.0143  0.1938
 2126W        W 6326   7.897   1.781   1.615  0.1590  0.0337 -0.0561
 2127W        W 6327   8.592  10.179  10.225 -0.1738 -0.0172  0.1576
 2128W        W 6328  10.518   5.374   2.816  0.3193  0.1404  0.2101
 2129W        W 6329   2.746   8.977   3.551 -0.1425 -0.0839 -0.1935
 2130W        W 6330   7.593   1.759  10.044  0.1005 -0.1722 -0.0298
 2131W        W 6331   6.640   6.458   4.803 -0.0692 -0.1064  0.0298
 2132W        W 6332  10.152   3.295   3.852 -0.0311  0.0103 -0.2508
 2133W        W 6333   6.441   6.634  10.356 -0.2085 -0.0690 -0.0557
 2134W        W 6334  10.379   1.988   4.719 -0.0520  0.4012  0.1489
 2135W        W 6335   1.600   3.262   0.760 -0.1070 -0.1907 -0.5326
 2136W        W 6336   0.512   4.565   9.516  0.2026 -0.0337 -0.0053
 2137W        W 6337   4.031   2.659  13.060 -0.1488  0.0895  0.1011
 2138W        W 6338   0.745   4.836   8.681 -0.2433 -0.1076  0.2660
 2139W        W 6339   4.418   7.955  10.752 -0.0429  0.2068 -0.0851
 2140W        W 6340   2.029   2.565  11.362  0.2687  0.0140  0.2395
 2141W        W 6341   4.043   9.319  12.262  0.0662 -0.2066  0.0251
 2142W        W 6342   4.415   4.187   9.761 -0.1062  0.0039  0.2386
 2143W        W 6343   0.856   4.060   0.968 -0.0670 -0.1146  0.1329
 2144W        W 6344   0.291   3.361  11.295 -0.1692 -0.2435 -0.0315
 2145W        W 6345   9.131   6.688   2.705  0.1340  0.2894 -0.2190
 2146W        W 6346   4.339   5.958   2.169 -0.2841  0.0307 -0.4345
 2147W        W 6347   0.608   9.968   0.967 -0.3694  0.0428  0.3036
 2148W        W 6348   9.619   3.253   3.764  0.0113 -0.2540 -0.0571
 2149W        W 6349   5.002   0.740   9.914  0.0579  0.0189  0.0099
 2150W        W 6350   4.934   5.746   1.271 -0.2665 -0.3369  0.2579
 2151W        W 6351   8.358   2.466   1.838 -0.1694 -0.1748 -0.0531
 2152W        W 6352   9.391   3.424  12.471  0.0726  0.0830 -0.0588
 2153W        W 6353   1.787   1.760  12.567  0.0836 -0.0287 -0.1360
 2154W        W 6354   1.033   7.646   9.590 -0.1964 -0.1231 -0.0115
 2155W        W 6355   6.087   2.098  11.225 -0.3993  0.0454  0.4433
 2156W        W 6356   9.649   8.896   8.137  0.1701 -0.0350  0.3010
 2157W        W 6357   8.323   8.191  11.955  0.0539 -0.0036 -0.1892
 2158W        W 6358   1.986   9.644   3.192  0.0081 -0.1144 -0.0416
 2159W        W 6359   2.300   4.759  10.229 -0.1612 -0.0867 -0.1841
 2160W        W 6360   9.436   8.202  11.820 -0.0612 -0.2641  0.3453
 2161W        W 6361   4.520   2.008  10.580  0.1519 -0.1856 -0.1773
 2162W        W 6362   7.167   8.515   2.425 -0.0231 -0.0503 -0.2035
 2163W        W 6363   1.382   5.054  11.991 -0.1675 -0.2732 -0.0603
 2164W        W 6364   0.763   7.335   3.202 -0.3530 -0.0416  0.2666
 2165W        W 6365   8.306   4.167  12.670  0.1591 -0.0211  0.2596
 2166W        W 6366   1.717   5.707   0.694  0.0716 -0.0630  0.0455
 2167W        W 6367   6.213   6.101   1.466 -0.3315 -0.2370 -0.1098
 2168W        W 6368   1.614   6.221  10.648  0.2471  0.4835  0.0273
 2169W        W 6369   4.673   8.636   0.461 -0.0390 -0.1219  0.2623
 2170W        W 6370   7.711   7.465   3.588 -0.2229  0.1443  0.0489
 2171W        W 6371  10.202  10.317   1.270  0.3226 -0.0282 -0.0679
 2172W        W 6372   1.570   8.588  11.470  0.0849  0.1572  0.2374
 2173W        W 6373   5.056   4.745   1.759 -0.4367  0.4370  0.0639
 2174W        W 6374   2.035   4.277   1.326  0.2458 -0.1524  0.0051
 2175W        W 6375   8.534   1.474  10.874  0.0661 -0.1388 -0.0919
 2176W        W 6376   3.671   5.280   3.793  0.0281  0.4602  0.4651
 2177W        W 6377   6.290   8.140   1.253 -0.0165 -0.3567 -0.0788
 2178W        W 6378  10.399   8.253  10.398  0.1347  0.0183 -0.1273
 2179W        W 6379   5.824   8.855   1.696  0.1170 -0.1093 -0.2874
 2180W        W 6380   7.542   1.313   1.396 -0.2471 -0.3131  0.0730
 2181W        W 6381   4.866   8.431  10.030 -0.2477  0.1161  0.0330
 2182W        W 6382   2.929   2.653  11.336  0.0373 -0.0370 -0.3245
 2183W        W 6383   1.970   5.383   3.803 -0.2349  0.5202 -0.0347
 2184W        W 6384  10.460   4.613  12.281  0.1302  0.0055 -0.1199
 2185W        W 6385   9.709   8.185   2.472 -0.1621 -0.1147  0.0852
 2186W        W 6386   6.098   5.666  10.810  0.3990  0.0762 -0.0671
 2187W        W 6387   1.948   7.751   1.702  0.1762 -0.2475  0.0042
 2188W        W 6388   3.341   0.843  13.210  0.0229  0.1613 -0.1665
 2189W        W 6389   1.084   3.356   4.820  0.1184  0.0767  0.1209
 2190W        W 6390   2.757   4.588   2.390 -0.1434 -0.1762  0.0586
 2191W        W 6391  10.151  10.245  10.223  0.1362  0.1764  0.1949
 2192W        W 6392   6.633   8.996   3.750  0.2647 -0.0713  0.0740
 2193W        W 6393  10.200   6.476   1.657  0.0023 -0.3854 -0.0438
 2194W        W 6394   4.042   5.748   0.088 -0.2959  0.2007 -0.3928
 2195W        W 6395   8.962   1.987  11.141 -0.1717 -0.2698  0.1128
 2196W        W 6396   6.684   4.656  12.680 -0.3579  0.2655 -0.3445
 2197W        W 6397   6.777   3.462   1.799  0.0126  0.1451  0.2995
 2198W        W 6398   3.030   9.829   4.128 -0.3581  0.1681  0.1714
 2199W        W 6399   0.295   3.779   0.380 -0.1059  0.0919 -0.0038
 2200W        W 6400   7.919   1.177   3.779 -0.2085  0.2013  0.2514
 2201W        W 6401   5.306   6.562   1.330  0.0542 -0.0858  0.0857
 2202W        W 6402   3.516   4.959  11.009  0.1084 -0.0388  0.1252
 2203W        W 6403   4.110   9.156  10.423  0.0965 -0.2040  0.1289
 2204W        W 6404   2.310  10.171  11.837  0.1251 -0.0848  0.3161
 2205W        W 6405   4.351   3.692   4.146  0.0431 -0.2903 -0.1780
 2206W        W 6406   2.407   3.240  11.714 -0.0255 -0.2589 -0.1739
 2207W        W 6407   2.175   5.024   0.921 -0.0508 -0.1713 -0.0191
 2208W        W 6408   1.286   8.121   8.834 -0.2238 -0.0241  0.1888
 2209W        W 6409  10.514   7.626   3.816  0.0720 -0.2305  0.1493
 2210W        W 6410   9.160   6.147   0.507  0.0046 -0.1991  0.1687
 2211W        W 6411   8.821   2.526   8.250  0.2216  0.1683  0.1844
 2212W        W 6412   4.589   4.330   3.404  0.1773 -0.0171  0.0112
 2213W        W 6413   5.078   4.732   3.333 -0.1325 -0.1186 -0.2233
 2214W        W 6414   5.051   9.233   0.058 -0.0222  0.1185  0.0406
 2215W        W 6415   1.181   0.925  12.633  0.1650 -0.0368  0.0124
 2216W        W 6416   4.517  10.025  10.392  0.1719 -0.2156  0.1336
 2217W        W 6417   4.268  10.154   1.589 -0.1579 -0.1095  0.2327
 2218W        W 6418   5.086   1.380  10.846 -0.0886 -0.0738 -0.0768
 2219W        W 6419   1.393   7.371   3.540  0.1991 -0.1123  0.1367
 2220W        W 6420   7.667   8.467   1.598 -0.5245 -0.0657  0.0510
 2221W        W 6421   4.596   8.273   0.024  0.3226 -0.1927  0.0948
 2222W        W 6422   4.243   8.999   2.267 -0.0792  0.2446  0.5708
 2223W        W 6423   1.806   5.148   4.579  0.0353 -0.2900 -0.0504
 2224W        W 6424   6.030  10.447  11.662  0.0629  0.2600 -0.2912
 2225W        W 6425   6.865   2.997   9.589  0.0222 -0.3008  0.5593
 2226W        W 6426   5.426   8.301  10.797 -0.2187 -0.0656  0.0960
 2227W        W 6427   4.074   4.444  10.830  0.0983  0.0294  0.1920
 2228W        W 6428   9.226   8.763   2.556 -0.0563 -0.1301  0.0285
 2229W        W 6429  10.245   8.863   4.410 -0.0246 -0.0294 -0.0395
 2230W        W 6430   1.397   8.789   0.008 -0.0545  0.1340 -0.1075
 2231W        W 6431   3.464   9.424  10.737  0.1433 -0.0384 -0.1838
 2232W        W 6432  10.398   0.665  11.448 -0.0176  0.0168 -0.2768
 2233W        W 6433   1.970   7.138  12.820  0.4629  0.1801  0.0243
 2234W        W 6434   9.686   0.298   3.643 -0.0771  0.1101  0.0584
 2235W        W 6435   2.005   6.852   1.478  0.0716  0.1705 -0.0006
 2236W        W 6436   6.639   3.804   3.698  0.1755 -0.1183  0.2125
 2237W        W 6437   2.799   3.250   3.457  0.1020  0.1520  0.3824
 2238W        W 6438   0.590   2.079  12.989 -0.0297  0.4306 -0.0691
 2239W        W 6439   8.693   4.783   2.396 -0.0284 -0.0411  0.0937
 2240W        W 6440   9.548   9.292  11.689  0.0380  0.0494 -0.1099
 2241W        W 6441   9.717   9.091  10.643  0.1695 -0.3048 -0.3086
 2242W        W 6442   9.505   0.417   2.881  0.1541  0.2296 -0.2384
 2243W        W 6443   6.462   8.482   4.106  0.3649 -0.0652 -0.0214
 2244W        W 6444   4.215   1.890  11.585 -0.2506 -0.0244  0.0996
 2245W        W 6445   7.259   1.540  10.495 -0.3266  0.3234  0.0763
 2246W        W 6446  10.156   4.412  12.661  0.3030  0.1244 -0.0904
 2247W        W 6447   1.711   9.781  10.398 -0.0009  0.0729 -0.3647
 2248W        W 6448   0.517   1.916   9.884  0.0393  0.3203  0.0631
 2249W        W 6449  10.335   7.022  12.455 -0.2096  0.2158  0.3474
 2250W        W 6450   5.757   5.141  11.788  0.0870  0.0770 -0.1404
 2251W        W 6451   7.323   5.583   1.056  0.0649  0.0328  0.0233
 2252W        W 6452   6.360   3.674   1.957  0.0760  0.1658  0.2104
 2253W        W 6453   0.918   2.728   4.218 -0.0617 -0.0579 -0.0246
 2254W        W 6454   4.327   8.121  11.337 -0.0563 -0.3539  0.1135
 2255W        W 6455   5.550   9.679  11.844 -0.0383 -0.0276 -0.0608
 2256W        W 6456   4.605   1.469   3.100 -0.0012 -0.2728 -0.2275
 2257W        W 6457   1.112   4.478   1.824 -0.0269  0.0598 -0.0593
 2258W        W 6458   0.004   1.973  13.246  0.1818 -0.0796  0.1928
 2259W        W 6459  10.156   9.761   2.724  0.0677  0.3602 -0.0868
 2260W        W 6460   1.914   3.452  12.570 -0.0760  0.1115 -0.1441
 2261W        W 6461   7.333   3.647   0.322 -0.2574  0.1572  0.1381
 2262W        W 6462   2.503   2.202   3.957 -0.4109  0.0706  0.2767
 2263W        W 6463   3.535   4.764   9.975 -0.3329 -0.0728 -0.2261
 2264W        W 6464   1.328   0.498   1.542 -0.0495  0.2171  0.2957
 2265W        W 6465   7.642   6.313  11.272  0.0270  0.3243 -0.1977
 2266W        W 6466   8.241   7.902   2.939 -0.2129  0.0705 -0.1633
 2267W        W 6467   9.839  10.266   9.849 -0.1414 -0.0026  0.2962
 2268W        W 6468   2.730   3.823   3.232 -0.0904 -0.1739 -0.3178
 2269W        W 6469   2.567   0.933   9.634  0.1014  0.0063 -0.1737
 2270W        W 6470   1.633   0.882   1.392 -0.1955 -0.4301 -0.3488
 2271W        W 6471   6.800   5.191   1.866  0.0661  0.1611 -0.2113
 2272W        W 6472   5.547   0.268  11.128 -0.0386 -0.0726  0.2896
 2273W        W 6473   8.868   0.073   2.652 -0.0144 -0.0818 -0.0471
 2274W        W 6474   2.661   2.473   1.116 -0.2042  0.1623 -0.1729
 2275W        W 6475   0.563   7.331  10.245  0.1493 -0.3013 -0.1334
 2276W        W 6476   8.629   7.462   9.547 -0.1620 -0.2541 -0.0377
 2277W        W 6477   9.834   5.912   8.915 -0.3614 -0.2163 -0.2956
 2278W        W 6478   5.335   4.028   9.726 -0.4079  0.1140 -0.0556
 2279W        W 6479   7.804   1.902   0.423 -0.0051 -0.4697 -0.1216
 2280W        W 6480   4.459   3.104   0.081 -0.0189  0.0967  0.5192
 2281W        W 6481   6.715   3.879  11.715 -0.1299 -0.0225  0.0012
 2282W        W 6482   1.249   2.827  11.995 -0.1651 -0.1474 -0.1409
 2283W        W 6483   3.107   3.466   0.658 -0.1982 -0.3063  0.1604
 2284W        W 6484   9.035  10.167   4.575  0.3146  0.0194  0.1847
 2285W        W 6485   5.744   2.087  12.522  0.1597 -0.2819 -0.0259
 2286W        W 6486   7.000   8.248   9.053 -0.1680  0.0761  0.0567
 2287W        W 6487   8.623   5.626   9.365 -0.3029 -0.1557  0.3445
 2288W        W 6488   4.746   8.937  12.611  0.0530 -0.1164  0.3524
 2289W        W 6489   5.523   9.463  12.304 -0.3660 -0.0836  0.0344
 2290W        W 6490   0.273   6.951  11.636  0.1229  0.1870 -0.1755
 2291W        W 6491  10.031   8.206   1.645 -0.2046  0.1794  0.0902
 2292W        W 6492   4.005   3.396  11.953  0.0623 -0.0547 -0.1379
 2293W        W 6493   3.593   1.166   2.332 -0.0233 -0.2136  0.1131
 2294W        W 6494   2.471  10.400   3.086  0.0967 -0.0433  0.1246
 2295W        W 6495   6.543   4.227  10.836  0.0470  0.2386  0.1329
 2296W        W 6496   4.284   8.591  11.477  0.3188  0.0980 -0.4105
 2297W        W 6497   6.971   0.596   2.938  0.0464 -0.0482  0.1208
 2298W        W 6498   9.278   3.848   1.507  0.1620  0.1816 -0.3481
 2299W        W 6499   6.804   5.622   0.149  0.0511 -0.0153 -0.0167
 2300W        W 6500   7.711   7.696   2.445 -0.0201  0.0894 -0.0122
 2301W        W 6501   8.033   7.205   3.289 -0.0428  0.0809 -0.0571
 2302W        W 6502   2.677   7.957   9.974 -0.0594  0.1213  0.3185
 2303W        W 6503   0.351   6.160   8.974  0.1366  0.1644 -0.0766
 2304W        W 6504   9.926   4.692   2.728  0.2156  0.0491  0.0691
 2305W        W 6505   8.174   9.990   2.451  0.0481 -0.0246 -0.3518
 2306W        W 6506   1.218   9.963  11.859 -0.2155  0.0624  0.0579
 2307W        W 6507   1.271   5.833   9.361  0.2198 -0.2740 -0.1265
 2308W        W 6508   0.670   0.397  10.924  0.0138  0.0344 -0.3876
 2309W        W 6509   2.756   2.491  12.054  0.1766  0.2193  0.2014
 2310W        W 6510   5.380   7.459   1.818 -0.0137  0.2356 -0.0073
 2311W        W 6511   9.411   1.889  12.034  0.0959  0.1347  0.2431
 2312W        W 6512  10.116   5.794   0.119  0.0012  0.1192 -0.1137
 2313W        W 6513   8.836   3.835  10.792 -0.0100 -0.1933  0.2462
 2314W        W 6514   7.502   5.895   3.780 -0.3252  0.0147  0.0758
 2315W        W 6515   3.348   8.593   2.827  0.0341 -0.0656 -0.4380
 2316W        W 6516   1.235   1.143  10.507  0.3445 -0.0893  0.0658
 2317W        W 6517   3.051   6.520   1.996 -0.0695  0.0394 -0.2889
 2318W        W 6518   8.312   4.385   9.122  0.0572  0.1472 -0.0305
 2319W        W 6519   1.888   6.666   8.495 -0.0151 -0.0517 -0.0647
 2320W        W 6520   9.225   2.199  10.122  0.0408 -0.0195  0.1441
 2321W        W 6521   5.810  10.487   0.050 -0.2349 -0.2320 -0.0599
 2322W        W 6522   1.519   2.917  13.210 -0.2454 -0.1620  0.0124
 2323W        W 6523   1.772   0.028  10.624  0.1294 -0.1161 -0.1712
 2324W        W 6524   9.575   4.682  13.074  0.3404 -0.3172  0.1651
 2325W        W 6525   4.477   3.655  11.433 -0.2621  0.0330 -0.2035
 2326W        W 6526   1.073  10.231   9.954 -0.4652  0.1330 -0.0592
 2327W        W 6527   7.059   7.397  10.351 -0.1853  0.0854  0.0836
 2328W        W 6528   7.266  10.266  12.916 -0.1136 -0.2082 -0.2066
 2329W        W 6529   2.436   6.457   0.181  0.0428  0.2669 -0.0801
 2330W        W 6530   2.547   8.946   2.679 -0.3179 -0.1902 -0.0381
 2331W        W 6531   8.049   1.912  11.560  0.1466  0.1965  0.2695
 2332W        W 6532   9.309   8.924   3.072  0.0629 -0.0422 -0.3230
 2333W        W 6533   5.821   7.450   3.864 -0.2643  0.3755 -0.0562
 2334W        W 6534   2.537   7.475   0.749 -0.1166 -0.0953 -0.0140
 2335W        W 6535   4.334   3.973   8.767 -0.0400  0.0318 -0.2970
 2336W        W 6536   8.762   1.284   2.099  0.0380  0.0343  0.2609
 2337W        W 6537   7.759   2.255   0.760  0.0564  0.2410  0.0056
 2338W        W 6538   4.418   0.224   1.391 -0.0870  0.1211 -0.0662
 2339W        W 6539   1.464   3.321  12.087  0.1165 -0.0093  0.2241
 2340W        W 6540   0.147   9.170   9.104  0.0115 -0.2474  0.1573
 2341W        W 6541   7.636   5.123   1.117  0.0832 -0.4777 -0.1126
 2342W        W 6542   1.422   0.533   9.871 -0.1575  0.0790  0.2125
 2343W        W 6543   8.386   7.350  11.642 -0.0962  0.3453 -0.0280
 2344W        W 6544   4.276   7.973   4.681 -0.1438 -0.0429 -0.1734
 2345W        W 6545   4.693   5.995   8.129  0.0200 -0.0497  0.5171
 2346W        W 6546   2.791   8.869   9.087 -0.0821  0.0479  0.1226
 2347W        W 6547   7.116   1.458  11.381 -0.0161  0.2737 -0.1736
 2348W        W 6548   7.957   2.526   2.627  0.1577 -0.1026 -0.0303
 2349W        W 6549   0.272   8.528  11.823 -0.0624 -0.2468 -0.1683
 2350W        W 6550   8.881   6.751   8.833 -0.0977 -0.1727  0.1205
 2351W        W 6551   6.869   3.530   4.050 -0.1314  0.0323  0.1821
 2352W        W 6552   7.465  10.334   1.401 -0.0943 -0.0420  0.1643
 2353W        W 6553  10.453   3.416   0.234  0.1366 -0.4789  0.0951
 2354W        W 6554   8.464   2.241   4.247 -0.0241  0.0381  0.1486
 2355W        W 6555   4.285   6.694   1.432  0.1392  0.1966  0.3609
 2356W        W 6556   0.601   2.680   3.786 -0.5809 -0.1778 -0.1942
 2357W        W 6557  10.069   2.330  10.426  0.1796 -0.0175 -0.0506
 2358W        W 6558   9.382   2.368   0.241  0.0470  0.0447  0.2744
 2359W        W 6559   2.523   7.515   8.671  0.1450 -0.1837  0.2180
 2360W        W 6560   5.931   8.250  10.898  0.0924 -0.0560  0.1394
 2361W        W 6561   2.228   1.542  12.362 -0.0921  0.2126 -0.0640
 2362W        W 6562   7.792   6.184   4.121 -0.1672 -0.0543  0.0148
 2363W        W 6563   8.907   8.329   0.705  0.2579  0.1523  0.0465
 2364W        W 6564   5.074   5.535   0.587 -0.0258  0.1643 -0.2780
 2365W        W 6565   4.263   4.515  10.061  0.2015  0.0219 -0.1593
 2366W        W 6566   3.493   1.936  10.037 -0.0845  0.0066 -0.0367
 2367W        W 6567   0.419   4.601   8.394 -0.1233 -0.2039 -0.0551
 2368W        W 6568   2.505   4.478   3.718  0.3512  0.1651 -0.2781
 2369W        W 6569   3.225   1.597   1.983  0.1305  0.0784  0.3505
 2370W        W 6570   8.889   6.616   9.307  0.1582 -0.0026 -0.1726
 2371W        W 6571   9.751   3.164  11.349  0.0619 -0.2336  0.0404
 2372W        W 6572   1.304   2.395   4.211  0.0416 -0.0323 -0.0198
 2373W        W 6573   1.835   6.885   4.356 -0.1627  0.1338  0.1240
 2374W        W 6574   9.562   3.643   1.164 -0.1572  0.0227  0.0157
 2375W        W 6575  10.162   0.523  12.593  0.2830 -0.0752  0.0662
 2376W        W 6576   1.082   1.650  12.695 -0.2168 -0.1556 -0.1113
 2377W        W 6577   5.582   3.443   0.801  0.1036  0.0272 -0.2472
 2378W        W 6578  10.205   3.880  11.722  0.1448 -0.0121  0.1320
 2379W        W 6579   3.368   2.240  12.081  0.2591 -0.0248  0.2143
 2380W        W 6580   9.919   5.557   2.079  0.0872 -0.1105  0.0235
 2381W        W 6581   6.810   6.514  11.869  0.1557  0.1091  0.1505
 2382W        W 6582   8.930   2.969   9.548  0.1522  0.1273 -0.0662
 2383W        W 6583   9.597   6.573   1.596 -0.4764 -0.2023 -0.0390
 2384W        W 6584   5.831   8.581   2.824  0.2542 -0.0660  0.3175
 2385W        W 6585   2.721   3.229   2.971 -0.1475  0.1552 -0.4150
 2386W        W 6586   1.016   9.028   1.061  0.1208 -0.0371 -0.2894
 2387W        W 6587   5.744   3.913  11.479 -0.4020 -0.2763  0.0091
 2388W        W 6588   8.894   8.201   3.136  0.3332 -0.0966 -0.4100
 2389W        W 6589   1.171   2.275  12.038  0.2253  0.1744 -0.0477
 2390W        W 6590   7.001   4.668   2.627 -0.5305  0.1619 -0.3186
 2391W        W 6591   5.264   8.755   9.084  0.1426 -0.0287  0.2439
 2392W        W 6592   6.318   3.546   4.204 -0.0097 -0.0573 -0.3014
 2393W        W 6593   6.580   8.625   9.015  0.2951  0.0315  0.3463
 2394W        W 6594   6.463   5.456  13.021 -0.0823  0.3526 -0.1890
 2395W        W 6595   1.052   0.602   8.438 -0.2336 -0.1707  0.1128
 2396W        W 6596   7.742   2.022   2.178  0.0376  0.1093  0.3668
 2397W        W 6597   4.383   4.238   9.245  0.3268  0.1033 -0.0734
 2398W        W 6598   0.677   1.777   0.638 -0.0302  0.1970 -0.2016
 2399W        W 6599   9.594   5.255   0.981 -0.0795  0.0749  0.3199
 2400W        W 6600   6.763   1.295  10.539  0.1965 -0.3344 -0.0982
 2401W        W 6601   6.638   4.455   9.191 -0.1390 -0.0482  0.3643
 2402W        W 6602   5.154   8.699  11.717  0.2154 -0.2056 -0.0168
 2403W        W 6603   2.117   0.114   2.740 -0.2363 -0.0474 -0.0462
 2404W        W 6604   7.786   6.006  10.380  0.1134 -0.1105 -0.2707
 2405W        W 6605   7.369  10.185   0.138 -0.0876 -0.2069 -0.1642
 2406W        W 6606   8.485   8.501   9.865 -0.2384 -0.3511 -0.1422
 2407W        W 6607   6.784   6.307   0.317  0.0663  0.0049 -0.2501
 2408W        W 6608   4.994   4.654  10.856 -0.0521  0.1314 -0.0077
 2409W        W 6609   7.377   7.907  13.005  0.1160 -0.0636  0.0356
 2410W        W 6610   9.442   8.408   2.120  0.3335  0.0002 -0.0298
 2411W        W 6611   7.771   1.161  12.054  0.0596  0.2894  0.0942
 2412W        W 6612   9.909   2.245   2.192  0.0043  0.0896  0.0161
 2413W        W 6613   4.167   9.711   0.908  0.1408 -0.3314 -0.0523
 2414W        W 6614   7.393   0.784   9.282  0.1687  0.0212 -0.2111
 2415W        W 6615   2.030   6.099   0.393  0.1670  0.2326 -0.0011
 2416W        W 6616   0.568  10.376   9.384 -0.1423 -0.4388  0.0417
 2417W        W 6617  10.486   4.123  11.413  0.0876  0.2333 -0.0122
 2418W        W 6618   7.971   6.350   9.328  0.0680  0.1448  0.2867
 2419W        W 6619   9.800   7.273   0.968  0.1893 -0.0600  0.1139
 2420W        W 6620   4.117   9.463   0.118 -0.3396 -0.2192  0.2008
 2421W        W 6621   4.634   4.963   3.391  0.2743  0.0731  0.1954
 2422W        W 6622   8.359   4.175  11.928  0.0545  0.0271  0.1682
 2423W        W 6623   7.678   0.075   2.322 -0.2387  0.2415 -0.1936
 2424W        W 6624   8.452   5.710  10.920  0.2871 -0.0080 -0.1056
 2425W        W 6625   8.994   9.266   0.691 -0.2077  0.1463 -0.0734
 2426W        W 6626   3.996   1.865  10.608 -0.1245  0.2403  0.1763
 2427W        W 6627   2.602   0.217   8.872  0.1209 -0.0943  0.0436
 2428W        W 6628   9.387   4.289  13.267  0.0624  0.0591  0.2652
 2429W        W 6629   2.269   2.052   1.315  0.0542 -0.0813 -0.4035
 2430W        W 6630  10.357   5.698   0.599 -0.2215 -0.1314  0.2267
 2431W        W 6631   1.500   7.807  11.336  0.0854  0.0199 -0.1194
 2432W        W 6632   2.203   6.137   9.556 -0.1485  0.2833 -0.2082
 2433W        W 6633   1.206   9.763   9.517  0.1894  0.0953  0.2632
 2434W        W 6634  10.453   3.544  12.014 -0.2829 -0.0663 -0.1506
 2435W        W 6635   3.078   6.411   3.067 -0.0717 -0.1345 -0.0902
 2436W        W 6636   2.190   6.037   0.957 -0.0075  0.0200  0.0683
 2437W        W 6637   7.527   9.504   1.561  0.0816 -0.0362 -0.0597
 2438W        W 6638   2.191   5.646   0.556  0.2485 -0.2490 -0.2010
 2439W        W 6639   7.887   7.896  10.589  0.4644 -0.0335 -0.0258
 2440W        W 6640   0.838   1.961   1.802  0.0204 -0.1101  0.1031
 2441W        W 6641   5.823   5.360  13.143  0.1491 -0.0618 -0.1505
 2442W        W 6642   5.436   2.248   1.571 -0.3947 -0.0460  0.1869
 2443W        W 6643   0.394   2.062   1.606 -0.0519  0.0205  0.0360
 2444W        W 6644   1.368   1.325   2.795 -0.0023 -0.0508 -0.1167
 2445W        W 6645   1.528   8.925   1.084  0.0335 -0.2286  0.1582
 2446W        W 6646   0.265   7.187  12.590  0.0187  0.0722 -0.4826
 2447W        W 6647   2.305   9.098   9.230  0.0149 -0.0563  0.0540
 2448W        W 6648   8.085   8.290   1.802  0.2736 -0.1823 -0.3580
 2449W        W 6649   3.544   3.347   0.868 -0.4649 -0.1275 -0.0481
 2450W        W 6650   3.294   1.254   0.869 -0.2963 -0.1983  0.5371
 2451W        W 6651   5.273   8.044   0.901  0.3008 -0.1742 -0.2524
 2452W        W 6652   5.651   9.300   1.749 -0.1570  0.1210  0.1022
 2453W        W 6653   4.057   6.186   3.528 -0.2465 -0.1860 -0.1023
 2454W        W 6654   9.271   7.597  12.422 -0.0119  0.1971  0.1333
 2455W        W 6655   1.158   0.678  10.324 -0.0853 -0.2333 -0.0576
 2456W        W 6656   6.019   4.838  11.406 -0.2091  0.0264  0.1558
 2457W        W 6657   3.150   5.334  11.200  0.1653  0.0886  0.1646
 2458W        W 6658   7.467   4.144   3.197  0.2641 -0.1000  0.0767
 2459W        W 6659   4.717   6.870  13.072  0.1008  0.0904  0.0112
 2460W        W 6660   7.193   2.042   4.003  0.0953 -0.4646 -0.1169
 2461W        W 6661   3.929   5.382   0.641 -0.2065 -0.0385  0.0754
 2462W        W 6662   4.163   8.271  12.464 -0.3659  0.1405 -0.0426
 2463W        W 6663   0.076   4.056  12.690 -0.1174 -0.3239 -0.1970
 2464W        W 6664   0.073   2.261   2.291 -0.0357  0.1166  0.0342
 2465W        W 6665   9.048   6.536   3.976 -0.0707 -0.0507  0.0740
 2466W        W 6666   2.692   5.870   3.752  0.0242  0.3348 -0.0645
 2467W        W 6667   4.906   8.425   8.952 -0.1334  0.0850  0.1542
 2468W        W 6668   0.632   5.357  10.927  0.1573  0.4132  0.1992
 2469W        W 6669   6.132   7.716  10.135  0.2356 -0.0751 -0.1577
 2470W        W 6670   5.281   4.154  11.397  0.0826 -0.1657 -0.2619
 2471W        W 6671   5.351   7.371  11.012  0.1482  0.1988 -0.1974
 2472W        W 6672   7.654   5.083   5.224 -0.2079  0.1861  0.1540
 2473W        W 6673   9.675   9.162   1.434 -0.2760  0.1761  0.0698
 2474W        W 6674   2.193   4.983   8.178  0.1880  0.1618  0.1108
 2475W        W 6675   9.889   0.334   1.884 -0.1716  0.0731  0.2971
 2476W        W 6676   6.853  10.009  11.634  0.4587  0.0076  0.1511
 2477W        W 6677  10.508   9.174   9.611  0.0496 -0.1413  0.0320
 2478W        W 6678   3.170   0.080   0.664  0.0107 -0.2217  0.2089
 2479W        W 6679   1.162   3.874   2.605  0.3593  0.1815  0.0209
 2480W        W 6680   2.195   7.861   4.248 -0.0953 -0.0193 -0.0733
 2481W        W 6681   4.459   8.569   2.186 -0.1715  0.0802 -0.1352
 2482W        W 6682   9.972   5.461  12.640  0.1734 -0.0548 -0.2977
 2483W        W 6683   3.448   2.714   0.427 -0.1369 -0.0405  0.0793
 2484W        W 6684   4.834   5.853   0.810 -0.1520 -0.0758  0.1033
 2485W        W 6685   1.954   8.034   1.160 -0.1449 -0.0195  0.0648
 2486W        W 6686   4.493   4.182  10.286  0.0683  0.1111  0.2257
 2487W        W 6687   8.132   4.406   9.704 -0.1769  0.3388  0.0290
 2488W        W 6688   3.275   5.902  13.152  0.0774 -0.1222  0.1706
 2489W        W 6689   4.153   1.561   1.762  0.0290  0.1906  0.1520
 2490W        W 6690   1.078   7.181  10.565  0.5378  0.2339 -0.2523
 2491W        W 6691   3.931   9.310   0.546 -0.1607 -0.1584 -0.0328
 2492W        W 6692   4.000   3.174   2.840 -0.0735  0.0798  0.3054
 2493W        W 6693   6.591   5.153  10.608  0.0764 -0.1003  0.0982
 2494W        W 6694   0.500   6.065   2.231  0.0686  0.0775  0.4070
 2495W        W 6695   3.733   3.125   1.253 -0.0740  0.1976  0.2236
 2496W        W 6696   6.378   6.326  12.584 -0.0329 -0.1006  0.2315
 2497W        W 6697  10.549   9.478   0.358  0.0699  0.1927 -0.0850
 2498W        W 6698   2.816  10.115  11.566 -0.1725  0.0761 -0.1894
 2499W        W 6699   9.482   0.272   0.602 -0.1186 -0.0615  0.1697
 2500W        W 6700   2.120   5.145   3.207 -0.1695 -0.2421 -0.1210
 2501W        W 6701   9.458   3.324   2.788 -0.1909  0.1236 -0.3315
 2502W        W 6702   9.210   2.167   2.605  0.0747 -0.0054 -0.3410
 2503W        W 6703   2.742   7.262  10.698  0.2699  0.1954  0.0746
 2504W        W 6704   9.634   6.537  11.614  0.2187  0.0574 -0.1662
 2505W        W 6705  10.545   8.231   0.103  0.0629 -0.1473  0.4161
 2506W        W 6706   8.764   1.576   3.556  0.2639 -0.0703 -0.0080
 2507W        W 6707   2.676   2.178  12.936  0.2127  0.0055 -0.2184
 2508W        W 6708   7.278   7.868  10.395 -0.0885  0.1505 -0.1745
 2509W        W 6709   5.085   8.872   1.158 -0.1633 -0.2136 -0.3735
 2510W        W 6710   5.074   9.795   3.635 -0.1983 -0.1175  0.2815
 2511W        W 6711   3.143   8.886  12.129 -0.0986  0.1314 -0.0372
 2512W        W 6712   8.153   9.913   3.050 -0.0730  0.1029 -0.0729
 2513W        W 6713   7.343   0.116   1.012  0.0268 -0.2153 -0.3154
 2514W        W 6714   6.582   5.960   2.366  0.0150  0.2596  0.0780
 2515W        W 6715   8.272  10.434   4.116 -0.0726 -0.1327  0.3152
 2516W        W 6716   2.675   4.986   0.983 -0.2213  0.2897  0.1170
 2517W        W 6717   9.470   3.356   1.589  0.2290  0.0877 -0.0933
 2518W        W 6718   4.952   7.942   0.544 -0.2281 -0.0315 -0.0699
 2519W        W 6719   2.413  10.132   9.268  0.0851 -0.2014  0.1725
 2520W        W 6720   1.580   8.814  10.409 -0.2190  0.0068 -0.3251
 2521W        W 6721   2.342   9.338   1.830  0.1097  0.2100  0.0962
 2522W        W 6722   1.920   1.174   3.419  0.4185  0.0020 -0.1319
 2523W        W 6723   1.531   7.883   4.842 -0.2971  0.0598  0.0470
 2524W        W 6724   3.672   7.838   1.750 -0.0293  0.1295 -0.1691
 2525W        W 6725   4.646   5.776   1.710 -0.1288  0.0168 -0.1265
 2526W        W 6726   2.606   3.104   9.484 -0.1897  0.0045 -0.1161
 2527W        W 6727   9.832   3.978   0.186  0.2741 -0.0581 -0.2223
 2528W        W 6728   0.721   4.529   1.477  0.1486 -0.2004  0.1483
 2529W        W 6729   3.913   9.352   2.509 -0.2525  0.3830  0.1714
 2530W        W 6730   0.188   4.475   2.855 -0.1341 -0.3573  0.1717
 2531W        W 6731   8.456  10.382   1.130 -0.2378  0.0226  0.1265
 2532W        W 6732  10.316   1.581   4.438 -0.3362 -0.2068 -0.0150
 2533W        W 6733   7.243   5.362   9.234  0.0919 -0.1063  0.2376
 2534W        W 6734   0.407   0.243   2.165  0.1194 -0.2283 -0.2122
 2535W        W 6735   5.906   6.736   2.164  0.4034 -0.0243  0.0362
 2536W        W 6736   5.545   7.338   8.870 -0.0002  0.0426  0.1176
 2537W        W 6737  10.045   7.600   8.440 -0.1569  0.0509 -0.0119
 2538W        W 6738   5.059   1.747  10.478 -0.3905  0.0399 -0.1408
 2539W        W 6739   9.745   3.682  11.614 -0.1359 -0.2843  0.1403
 2540W        W 6740   1.298   8.942   0.487 -0.1281 -0.0688 -0.3426
 2541W        W 6741   3.778   4.941  13.018 -0.2676  0.0318 -0.0354
 2542W        W 6742   3.903   0.615  12.004 -0.2404  0.0292 -0.0205
 2543W        W 6743   9.954   1.270   9.845 -0.0898  0.3583  0.0523
 2544W        W 6744   2.748   0.113   2.534 -0.0064 -0.0719 -0.0973
 2545W        W 6745   3.564   7.126   0.623 -0.0803 -0.3859  0.2023
 2546W        W 6746   1.083  10.300   9.452 -0.2384  0.2519 -0.3255
 2547W        W 6747   8.950   1.888   1.755 -0.0262 -0.2134 -0.3419
 2548W        W 6748   4.552   4.327   1.966 -0.0384 -0.0158 -0.2043
 2549W        W 6749   0.552   5.002  10.300 -0.0894  0.0440  0.1116
 2550W        W 6750   0.243   5.091  12.228  0.0309  0.1934 -0.3166
 2551W        W 6751   7.466   5.609  10.443 -0.1562 -0.2913  0.0474
 2552W        W 6752   6.031   2.761   1.843 -0.0409  0.0922  0.1928
 2553W        W 6753   8.897   3.804   0.565 -0.3188 -0.5052  0.3988
 2554W        W 6754   6.669   5.982  13.149 -0.0790 -0.1736 -0.2690
 2555W        W 6755   4.751   7.040   0.680  0.2835 -0.2006 -0.2044
 2556W        W 6756   3.125   6.914   2.394 -0.0053 -0.3772  0.0118
 2557W        W 6757  10.271   8.885   2.327 -0.0038  0.1406 -0.1173
 2558W        W 6758   5.243   5.758   9.027 -0.0447 -0.4003 -0.2924
 2559W        W 6759   7.686   0.148  11.460 -0.4108 -0.1866 -0.3416
 2560W        W 6760   1.827   4.406  10.836 -0.0005 -0.0665  0.1298
 2561W        W 6761   9.534   6.848   8.581 -0.1462 -0.0087  0.3338
 2562W        W 6762   0.633   3.039   1.768 -0.1193  0.0828  0.0542
 2563W        W 6763   5.742   5.632   9.853  0.3531 -0.0460  0.0554
 2564W        W 6764   9.895   2.876   3.594  0.2997  0.0465 -0.2778
 2565W        W 6765   5.169   8.573  10.451  0.0116  0.1136 -0.0211
 2566W        W 6766   4.804   8.457   1.233 -0.1179 -0.0330  0.3759
 2567W        W 6767   1.687   2.465  10.440  0.3325 -0.0603 -0.1343
 2568W        W 6768   5.857   4.957   0.144 -0.2331  0.2547 -0.0873
 2569W        W 6769   6.570   7.954  11.663  0.3885 -0.1522  0.0894
 2570W        W 6770   3.484   9.911  11.713 -0.2779  0.4192  0.0740
 2571W        W 6771   3.007   5.130   1.769  0.0644  0.1725 -0.3831
 2572W        W 6772   9.660   6.176   1.284  0.2981  0.2279 -0.1353
 2573W        W 6773   8.287   9.775   0.072 -0.2017  0.2228 -0.1345
 2574W        W 6774   3.277   6.405   0.097  0.1697 -0.2986 -0.0524
 2575W        W 6775   1.504   2.775   1.433 -0.1692 -0.0708  0.1002
 2576W        W 6776  10.436   3.010   2.513  0.0446 -0.0020 -0.0807
 2577W        W 6777   8.850   8.423   4.122 -0.0242  0.2233  0.0277
 2578W        W 6778   6.887   4.116  12.705  0.0133 -0.2366  0.1418
 2579W        W 6779   0.083   4.403   4.906  0.1006 -0.1972 -0.1883
 2580W        W 6780   4.594   9.348  12.326 -0.1700  0.0029 -0.0281
 2581W        W 6781   0.971   3.677   3.079  0.0340 -0.0145  0.0530
 2582W        W 6782   4.318   7.961   3.568  0.0543 -0.2545 -0.1843
 2583W        W 6783   8.506   9.634   4.083 -0.0320 -0.0136 -0.0287
 2584W        W 6784   9.509   2.415  11.783 -0.4572  0.0763 -0.5336
 2585W        W 6785   3.186   8.652   0.139  0.3666  0.1068  0.1340
 2586W        W 6786   9.225   2.671  10.364  0.2020 -0.0667  0.1219
 2587W        W 6787   1.001   0.343   9.030  0.1962 -0.2693  0.0901
 2588W        W 6788   9.604   6.686   1.100  0.4905 -0.0675 -0.1293
 2589W        W 6789   8.826   9.183   1.189 -0.0058  0.1850  0.0113
 2590W        W 6790   5.724   4.371  11.282 -0.1032 -0.0496 -0.4220
 2591W        W 6791   0.494   1.557   9.202 -0.0014  0.0080  0.0972
 2592W        W 6792   2.933   5.052   0.508 -0.4068 -0.0890  0.0996
 2593W        W 6793   1.044   7.527  13.172  0.0035  0.1732 -0.2159
 2594W        W 6794   6.959   9.623  11.317  0.1415 -0.0508 -0.1255
 2595W        W 6795   1.803   0.700  11.785 -0.2124  0.0995  0.1179
 2596W        W 6796   2.297   3.368   1.034  0.0533 -0.1246 -0.1266
 2597W        W 6797   9.781   4.322   9.480 -0.1942  0.2213 -0.1346
 2598W        W 6798   6.156   7.067   4.123 -0.0022  0.1539 -0.0497
 2599W        W 6799   3.079   9.242   1.073 -0.1395  0.0555 -0.0768
 2600W        W 6800   2.622   7.028   9.562  0.1013  0.1066 -0.1203
 2601W        W 6801  10.008   7.804   0.300  0.2058  0.0001  0.2522
 2602W        W 6802   3.864   8.271  10.795  0.1742  0.1128 -0.1105
 2603W        W 6803   5.903   9.617   2.093 -0.2112 -0.1348 -0.1669
 2604W        W 6804   3.265   3.740   2.535  0.0468  0.4000  0.0404
 2605W        W 6805  10.155   8.463   2.619 -0.2648  0.1476 -0.1563
 2606W        W 6806   5.212   3.312   3.806  0.0033  0.1795 -0.2868
 2607W        W 6807   6.872   7.063  12.982  0.0536  0.1351 -0.0140
 2608W        W 6808   2.887   8.794   9.605  0.0378 -0.0515 -0.0617
 2609W        W 6809   0.208   2.430  13.178  0.0499  0.1099  0.0536
 2610W        W 6810   9.203   7.966  10.044  0.1966  0.1296 -0.1637
 2611W        W 6811   5.982   8.591   2.166  0.4555 -0.2221 -0.0087
 2612W        W 6812   8.152   8.553  11.119  0.1410  0.1104 -0.1404
 2613W        W 6813   1.441   0.781   3.003 -0.3052  0.2824  0.2619
 2614W        W 6814   6.989  10.378  10.702  0.3333 -0.1346 -0.1978
 2615W        W 6815   6.117   2.803   0.330 -0.0234 -0.1473 -0.2851
 2616W        W 6816   7.763   2.679  11.216  0.0135 -0.0780 -0.1121
 2617W        W 6817   9.935   0.008  10.539  0.1915 -0.2872 -0.3244
 2618W        W 6818   3.245   2.694   3.952  0.1904 -0.2770 -0.3876
 2619W        W 6819   9.127   8.741   3.689 -0.3197 -0.2763  0.0183
 2620W        W 6820   7.530   2.663  12.169 -0.1809 -0.1215 -0.0475
 2621W        W 6821   4.221   2.374   1.445  0.3849  0.2613  0.0841
 2622W        W 6822   7.796   2.775   3.043  0.0415 -0.0352 -0.0291
 2623W        W 6823   8.189   0.269  10.629  0.2142  0.0662  0.0598
 2624W        W 6824   8.219   1.982   0.046  0.2448  0.0133 -0.0087
 2625W        W 6825   3.831   0.495  10.339 -0.0145  0.0596  0.3362
 2626W        W 6826   5.263  10.062  10.532 -0.0475  0.1503 -0.2682
 2627W        W 6827   1.238   7.316   1.359  0.0538  0.3053  0.0833
 2628W        W 6828   4.090   5.345   4.114  0.2022 -0.0760 -0.0602
 2629W        W 6829   1.190  10.137   4.123 -0.0850  0.0594  0.1155
 2630W        W 6830   2.947   0.933   9.949  0.2091 -0.0794 -0.4470
 2631W        W 6831   3.488   0.951   9.793  0.0625 -0.2686 -0.0948
 2632W        W 6832   0.308   4.317   1.240  0.0275  0.2767  0.1786
 2633W        W 6833   8.825  10.002   9.824  0.2909  0.0025  0.1703
 2634W        W 6834   2.499   2.035  12.000  0.0925  0.0950 -0.0624
 2635W        W 6835   6.765   8.591   1.070 -0.1102 -0.2788 -0.1542
 2636W        W 6836   1.352   2.246   1.221 -0.1014 -0.4234  0.1437
 2637W        W 6837   1.948   4.004  11.146 -0.0381  0.2857 -0.0873
 2638W        W 6838   8.357   2.800   8.854 -0.1789  0.1149  0.1439
 2639W        W 6839   2.414   0.386   2.252  0.3890 -0.1726 -0.2225
 2640W        W 6840   0.755   9.825  11.579 -0.0634 -0.0285 -0.2166
 2641W        W 6841  10.142   3.836  12.901  0.1089  0.3188  0.0202
 2642W        W 6842   6.871   4.039   9.700  0.3246 -0.0174  0.2370
 2643W        W 6843   1.657   7.694   3.216  0.0987 -0.0042 -0.1672
 2644W        W 6844   5.614   2.561   2.094 -0.0482 -0.1251  0.1198
 2645W        W 6845   8.043   8.130   1.186 -0.1588  0.3330  0.0719
 2646W        W 6846   7.741   8.415   4.197 -0.1829  0.2706  0.2926
 2647W        W 6847   2.177   0.726   3.047 -0.3217 -0.0274 -0.0501
 2648W        W 6848   2.887   7.361   3.705 -0.2306 -0.1200  0.2073
 2649W        W 6849   2.079   7.113   9.491  0.1343  0.1024  0.5242
 2650W        W 6850   7.309   9.057   4.880 -0.1847 -0.3267 -0.0611
 2651W        W 6851   3.680   3.051  11.589 -0.0514 -0.1955 -0.1832
 2652W        W 6852   8.751   7.221   2.023 -0.2452 -0.0424 -0.1974
 2653W        W 6853   3.702   4.471   4.322 -0.1102  0.0067  0.3659
 2654W        W 6854   8.939   7.152   4.448 -0.0577 -0.1272 -0.2722
 2655W        W 6855   9.140   3.697   3.056 -0.3910  0.0622 -0.0830
 2656W        W 6856   2.399   9.228  10.350  0.1928 -0.3489  0.1364
 2657W        W 6857   1.605   6.282  12.687 -0.4674  0.1476  0.0687
 2658W        W 6858   9.482  10.548  10.116 -0.2186  0.3314 -0.2612
 2659W        W 6859   5.848   1.082   1.032 -0.3580  0.0888  0.0034
 2660W        W 6860   2.189   3.107   1.777  0.3116  0.2462 -0.1920
 2661W        W 6861   3.978   1.089  12.995 -0.0986 -0.1207  0.4338
 2662W        W 6862   8.945   1.744   1.277  0.1891  0.0258  0.2002
 2663W        W 6863   5.862   4.304   0.819  0.0878 -0.0543 -0.0758
 2664W        W 6864   5.155   5.925  11.981  0.1727  0.0974  0.0660
 2665W        W 6865   7.652  10.358  10.263  0.1823  0.1579  0.2843
 2666W        W 6866   7.023   9.446   1.595  0.2991  0.0888  0.1065
 2667W        W 6867   7.803   0.539   9.464  0.1674  0.1480 -0.2420
 2668W        W 6868   7.115   9.222   9.723 -0.3709  0.2345 -0.0247
 2669W        W 6869   0.903   0.870  10.856 -0.0185  0.2489  0.0492
 2670W        W 6870   8.261   8.733  13.234  0.0355 -0.0321  0.0416
 2671W        W 6871   3.337   7.895   4.495  0.2315 -0.2257  0.3905
 2672W        W 6872   7.539   0.607   2.302 -0.2702  0.0211  0.1965
 2673W        W 6873   3.427   6.741   9.243 -0.0371  0.0825  0.3935
 2674W        W 6874   0.286   0.767   9.457 -0.0417 -0.2743 -0.3057
 2675W        W 6875   5.461   0.961  10.778  0.2640 -0.2377  0.0011
 2676W        W 6876   1.519   9.283   2.458 -0.0427 -0.3807  0.1348
 2677W        W 6877   5.090   1.988  11.753 -0.3989  0.0612 -0.1394
 2678W        W 6878   9.749   6.829  10.678  0.0327  0.1928 -0.2096
 2679W        W 6879   3.540   4.470   9.482  0.1032  0.0593 -0.1222
 2680W        W 6880   3.305   5.937   0.385  0.2154 -0.1622  0.1022
 2681W        W 6881   9.793   8.778  10.206  0.1168  0.0742  0.4439
 2682W        W 6882   0.919   6.044   1.382  0.0922 -0.1832 -0.1663
 2683W        W 6883   1.342   1.109   9.137  0.2467 -0.3459 -0.0238
 2684W        W 6884   2.270   1.454   0.008 -0.1671 -0.3383 -0.3371
 2685W        W 6885   1.750   7.009   2.709 -0.0136 -0.1354 -0.0347
 2686W        W 6886   3.547   1.003   1.544  0.0324 -0.0246  0.0294
 2687W        W 6887   0.468   0.300  13.169  0.2111 -0.2544  0.0691
 2688W        W 6888   5.028   6.589  12.738  0.0569  0.3724  0.3474
 2689W        W 6889   9.823   7.835   1.290  0.2076  0.0965 -0.1778
 2690W        W 6890   4.844   6.299   1.141  0.2360 -0.0359  0.0757
 2691W        W 6891   4.411   3.236   3.184 -0.1664  0.0003 -0.1732
 2692W        W 6892   7.801   7.896  10.024  0.1130  0.0586 -0.0127
 2693W        W 6893   2.592   1.160  11.178 -0.1907 -0.1172 -0.4308
 2694W        W 6894   8.191   3.422  12.413 -0.1596 -0.0529 -0.0947
 2695W        W 6895   0.235   1.153  11.708 -0.1263 -0.0378  0.0731
 2696W        W 6896   7.380   9.589  10.613 -0.2247 -0.0211 -0.0464
 2697W        W 6897   3.576   9.326  11.934 -0.2868 -0.3528  0.0056
 2698W        W 6898   3.142  10.010   1.350  0.2763 -0.2785  0.2639
 2699W        W 6899   0.467   5.817   9.852 -0.0460 -0.0229  0.1502
 2700W        W 6900   5.028   3.895   1.528  0.1853 -0.1247 -0.1325
 2701W        W 6901  10.324   8.937   9.214  0.1752  0.2137 -0.5021
 2702W        W 6902   3.528   0.525   0.810  0.1566 -0.1552 -0.1254
 2703W        W 6903   8.653   1.745  13.211  0.1687  0.0246 -0.3579
 2704W        W 6904  10.070   6.750  11.423 -0.0776 -0.2589  0.1860
 2705W        W 6905   9.933   3.564   2.848  0.0080 -0.0615  0.0460
 2706W        W 6906   4.222  10.520   2.343  0.1754  0.1613 -0.1070
 2707W        W 6907   9.180   5.628   4.591  0.1103 -0.0160  0.0122
 2708W        W 6908   5.801   4.156   9.994 -0.0215  0.1864  0.0981
 2709W        W 6909  10.397   6.217   0.923  0.2838  0.1115  0.1801
 2710W        W 6910   5.427   7.839   9.511 -0.2396  0.0596  0.2333
 2711W        W 6911   0.461   8.350   9.159 -0.0482  0.1145 -0.1443
 2712W        W 6912   8.901   4.235   0.135 -0.2568 -0.0264  0.3182
 2713W        W 6913   5.908   1.777  10.791 -0.1180 -0.1966 -0.1217
 2714W        W 6914   2.669   5.420  10.708 -0.0156  0.0581 -0.1531
 2715W        W 6915   4.292   0.437  11.706  0.0892  0.0812 -0.1812
 2716W        W 6916   7.047   5.227  11.835  0.2561  0.2692 -0.0861
 2717W        W 6917   1.603   7.374   1.834  0.1444 -0.1415  0.0075
 2718W        W 6918   5.490   6.371  10.087  0.0905 -0.1494 -0.0719
 2719W        W 6919   8.837   8.431   0.170  0.1020  0.0546 -0.2263
 2720W        W 6920   8.701   2.887  10.564  0.1292 -0.1294  0.1238
 2721W        W 6921   3.844   2.115   2.596  0.1197  0.0215  0.0121
 2722W        W 6922   7.403   8.881  12.572 -0.1094 -0.1048  0.0569
 2723W        W 6923  10.213   4.131  10.231  0.0840 -0.0639 -0.2726
 2724W        W 6924   6.929  10.119   9.692  0.3707  0.0007 -0.0374
 2725W        W 6925   1.150   1.483   1.814 -0.0252 -0.4668  0.3315
 2726W        W 6926   0.547   6.814   9.811  0.1893  0.0025 -0.0402
 2727W        W 6927   8.485   8.716   4.271  0.1152 -0.0963  0.1467
 2728W        W 6928   9.610   6.180   0.778  0.0027  0.3624 -0.3037
 2729W        W 6929   4.901   4.271   0.546 -0.0873  0.0521 -0.0412
 2730W        W 6930   8.365   2.757  11.381 -0.1338 -0.1708  0.1977
 2731W        W 6931   5.505  10.289  12.408 -0.2756  0.0651  0.0503
 2732W        W 6932   8.160   0.198  11.272 -0.0744  0.0584  0.0195
 2733W        W 6933  10.250   5.616   8.508  0.4211 -0.0379  0.0828
 2734W        W 6934   7.227   0.493   3.348 -0.0260  0.0180  0.2547
 2735W        W 6935   2.047   6.153  11.645  0.1356  0.2059 -0.1853
 2736W        W 6936   7.136   6.087   1.116 -0.0253  0.0186  0.1113
 2737W        W 6937   1.194  10.198   2.283  0.1008  0.1659  0.0750
 2738W        W 6938   1.909   6.666   2.331 -0.0424  0.4235 -0.0453
 2739W        W 6939   8.562   9.860   1.975  0.2702 -0.1196 -0.0989
 2740W        W 6940   5.976   9.221   9.833 -0.3962 -0.1193 -0.0889
 2741W        W 6941   4.447  10.236   2.867  0.1140  0.1461  0.0834
 2742W        W 6942   9.514   9.196   0.151  0.1801  0.1492  0.2310
 2743W        W 6943   3.554   3.911   3.577  0.0961  0.0835  0.2553
 2744W        W 6944   1.630   1.313   3.840 -0.0339  0.1618  0.0447
 2745W        W 6945   5.849   4.771   9.243 -0.0093 -0.0524  0.0764
 2746W        W 6946   9.422   3.905  12.059  0.0970 -0.1570 -0.0012
 2747W        W 6947   1.461   8.711   2.377 -0.1680 -0.1912 -0.1457
 2748W        W 6948   3.146   5.260   1.052  0.1983  0.0213 -0.2895
 2749W        W 6949   0.518   2.456  11.131  0.1366  0.5105  0.3133
 2750W        W 6950   5.387   1.071   1.063 -0.0882 -0.1343 -0.1860
 2751W        W 6951   6.506   9.108   2.255 -0.0201  0.4462 -0.1661
 2752W        W 6952   4.429   6.800  11.440  0.5667  0.1521  0.1874
 2753W        W 6953   0.749   5.975   9.369 -0.2096 -0.0583  0.2061
 2754W        W 6954   8.130   5.886   1.882  0.0760  0.1502  0.0028
 2755W        W 6955   9.098   3.928   2.549 -0.0468 -0.0266 -0.1048
 2756W        W 6956   5.784   7.489   0.996  0.2860  0.0668  0.1427
 2757W        W 6957   5.900   8.020  12.480 -0.4832  0.2918 -0.1043
 2758W        W 6958   1.106   6.959   1.014 -0.1992  0.1894 -0.0612
 2759W        W 6959   0.935   1.059   1.684  0.2074 -0.1793 -0.0573
 2760W        W 6960   6.776   6.408  11.303 -0.0679 -0.0712  0.0763
 2761W        W 6961   8.466   6.548  10.739 -0.3491 -0.0898 -0.3262
 2762W        W 6962   3.008   0.705   9.487  0.2752  0.1882 -0.2099
 2763W        W 6963   5.478   8.847   0.762  0.0805 -0.0638 -0.0721
 2764W        W 6964   7.472   1.058  11.287  0.2906  0.0193  0.2100
 2765W        W 6965   2.961   1.965   3.101  0.3113 -0.0272  0.2071
 2766W        W 6966   8.686   6.157   9.284 -0.0288  0.0652 -0.3077
 2767W        W 6967   0.775   6.234   0.952 -0.1862  0.3472 -0.1239
 2768W        W 6968   8.735   1.103   9.601 -0.1463 -0.1308 -0.0075
 2769W        W 6969   3.235   3.531   1.208  0.4137 -0.0699 -0.1091
 2770W        W 6970   3.284  10.537  11.650 -0.0948 -0.2185  0.1026
 2771W        W 6971   3.863   2.902   0.149 -0.1956 -0.0434 -0.0785
 2772W        W 6972   1.056   4.845   2.846 -0.3444  0.0522  0.1526
 2773W        W 6973   3.748   8.970   2.133  0.4350  0.1695 -0.0591
 2774W        W 6974   4.803   1.306   2.249  0.2472  0.0291  0.1246
 2775W        W 6975   5.576   5.082   1.625 -0.0791  0.0735  0.1074
 2776W        W 6976   6.823   6.549   2.298 -0.0110  0.1557  0.0566
 2777W        W 6977   9.517   1.401  12.292 -0.1660  0.0688 -0.0175
 2778W        W 6978   2.072   4.982   2.062 -0.2785 -0.1719  0.2705
 2779W        W 6979   9.692   3.467   9.652  0.2352  0.0587 -0.3500
 2780W        W 6980  10.481   7.677   1.836  0.2070 -0.2321 -0.1583
 2781W        W 6981   9.258   3.575   4.060 -0.0220  0.0367  0.0384
 2782W        W 6982   7.795   4.846  10.809  0.1584  0.1490  0.3163
 2783W        W 6983   6.837   5.124   0.312  0.1670 -0.2690  0.2866
 2784W        W 6984   9.487   6.284   2.430 -0.0432  0.1185  0.2141
 2785W        W 6985   6.047   5.127  12.358 -0.2383 -0.0240  0.1087
 2786W        W 6986   0.298   7.859   1.498  0.2392 -0.2006 -0.0447
 2787W        W 6987   7.301   7.909   9.871  0.1107 -0.6656  0.0344
 2788W        W 6988   0.166   7.617  12.888  0.2325  0.1297  0.1735
 2789W        W 6989   1.333   2.329   0.604  0.0552  0.0559 -0.2204
 2790W        W 6990   5.038   5.688   3.770  0.1869  0.1126 -0.1844
 2791W        W 6991   6.148   2.661  12.064  0.1616  0.1327  0.0658
 2792W        W 6992   7.042   6.228   3.722 -0.0614 -0.1603 -0.1537
 2793W        W 6993  10.208   3.682  10.523  0.0492  0.0091 -0.0825
 2794W        W 6994   4.828   8.371   9.526  0.2853 -0.0875  0.4071
 2795W        W 6995   2.466  10.406  10.759 -0.1612  0.2498  0.0815
 2796W        W 6996  10.499   6.433  12.391 -0.1901 -0.3667  0.2818
 2797W        W 6997   1.394   2.122  12.705 -0.2667 -0.0214 -0.0737
 2798W        W 6998   4.807   0.061   0.595 -0.1207 -0.1873 -0.1389
 2799W        W 6999   9.694   3.270  11.860  0.4549 -0.0556  0.0990
 2800W        W 7000   3.228   7.072   1.057 -0.1956 -0.0187 -0.0711
 2801W        W 7001   5.444   8.936  12.432  0.3728 -0.0358  0.0687
 2802W        W 7002   3.833   8.279  11.333  0.2158 -0.2176 -0.5060
 2803W        W 7003   7.929   5.837   9.636  0.0662  0.0872 -0.1400
 2804W        W 7004   1.242   9.598  10.680 -0.2984 -0.3058  0.1306
 2805W        W 7005   9.680   9.196   2.206  0.0361 -0.1360  0.0110
 2806W        W 7006   0.911   4.986   1.811  0.2019 -0.2615  0.1718
 2807W        W 7007   7.925   8.004   3.815 -0.0207  0.1162  0.0985
 2808W        W 7008   9.507   3.000  10.901  0.1210 -0.1299  0.1028
 2809W        W 7009   4.943   9.489   0.476 -0.0261 -0.0426  0.2531
 2810W        W 7010   9.430   0.079   4.502 -0.2199 -0.1149 -0.2078
 2811W        W 7011   9.419   7.554  10.268 -0.0620 -0.5088 -0.0674
 2812W        W 7012   5.469   1.596  13.130 -0.4449 -0.0425 -0.0446
 2813W        W 7013   5.894   6.729  11.575  0.0388  0.0304 -0.2735
 2814W        W 7014   5.519   8.954   2.061  0.4578 -0.0399 -0.2065
 2815W        W 7015   3.808   3.822   1.813  0.1600 -0.0288 -0.1915
 2816W        W 7016   0.405   7.550  10.745 -0.3860  0.1481 -0.1553
 2817W        W 7017   7.830   1.050   0.283  0.2319  0.2215 -0.0347
 2818W        W 7018   7.820   4.608   1.059  0.0183 -0.2068  0.0838
 2819W        W 7019   6.737  10.258   4.197  0.0263  0.1869 -0.0186
 2820W        W 7020  10.512   4.658   9.646 -0.1463  0.1626 -0.0398
 2821W        W 7021   5.785   9.713   2.568  0.0325  0.0518  0.0656
 2822W        W 7022   9.031   5.601   2.985 -0.1575 -0.1570 -0.0819
 2823W        W 7023   3.155   9.267   3.507 -0.1072 -0.1758 -0.2558
 2824W        W 7024   7.088   8.281  10.564 -0.0003  0.3388 -0.1143
 2825W        W 7025   8.215   0.580   0.346 -0.1107 -0.0258 -0.1565
 2826W        W 7026   8.936   3.447  10.098  0.2798  0.0854  0.0474
 2827W        W 7027   1.930   9.031   3.309  0.0394 -0.0838  0.1306
 2828W        W 7028   6.853   4.799   3.569 -0.3466 -0.0832 -0.0187
 2829W        W 7029   3.286   2.796  11.764  0.0330  0.1377 -0.0521
 2830W        W 7030   0.038   1.539  11.081 -0.0941  0.2078  0.0557
 2831W        W 7031   3.496   5.037   2.905 -0.0267 -0.1322 -0.0661
 2832W        W 7032   5.616   2.243   0.508  0.1935  0.1593 -0.1013
 2833W        W 7033   5.894   5.308  11.231 -0.0009 -0.2560 -0.1851
 2834W        W 7034   2.624   8.709  12.137 -0.0394  0.1584  0.0959
 2835W        W 7035   3.902  10.131   3.182 -0.1749  0.2476  0.1720
 2836W        W 7036   6.627   7.181   4.144  0.0594 -0.1981 -0.2155
 2837W        W 7037  10.341   6.626   0.673  0.2252 -0.3430  0.3991
 2838W        W 7038  10.136   5.737  12.241 -0.1310  0.1191 -0.2853
 2839W        W 7039   0.393   6.444   4.070  0.0586  0.0935  0.2760
 2840W        W 7040   0.442   8.197  13.203  0.0751 -0.4007  0.1511
 2841W        W 7041   7.584   1.512  10.929 -0.1324  0.1985 -0.2343
 2842W        W 7042   4.706  10.320  10.854  0.3432  0.0585  0.2006
 2843W        W 7043   9.997   3.185   0.375  0.1876  0.2342  0.1089
 2844W        W 7044   1.530   4.657  12.219  0.0254 -0.0211  0.1755
 2845W        W 7045   7.054  10.196   3.868 -0.1816  0.1700 -0.1286
 2846W        W 7046   4.850   2.691  10.680 -0.2111 -0.1902 -0.1299
 2847W        W 7047   0.950   8.561   2.504  0.2359 -0.1983 -0.3455
 2848W        W 7048  10.132   2.620  12.937  0.0623 -0.1848 -0.1941
 2849W        W 7049   6.044   1.321   3.465  0.3430 -0.2691 -0.1033
 2850W        W 7050  10.240   8.609   0.872 -0.0889 -0.2339 -0.4326
 2851W        W 7051   8.596   3.881  10.378 -0.1131 -0.2226  0.0801
 2852W        W 7052   0.661   3.642   0.682 -0.3620 -0.2750  0.0549
 2853W        W 7053   8.518   7.006   9.339  0.0861 -0.0026  0.1076
 2854W        W 7054   1.290   0.338   9.429 -0.0257  0.0616 -0.1823
 2855W        W 7055   4.176   0.404   2.639 -0.1265 -0.0991 -0.1148
 2856W        W 7056   7.496   7.456   8.064 -0.3412  0.1197 -0.1834
 2857W        W 7057   5.217   0.605   2.821 -0.1723 -0.0661 -0.3114
 2858W        W 7058   8.342   4.673  12.574  0.4551 -0.0638 -0.2738
 2859W        W 7059   9.479   6.027  13.127  0.3626  0.0571 -0.0660
 2860W        W 7060   6.698   5.502   4.690 -0.0851  0.3240  0.1399
 2861W        W 7061   1.566   5.521  12.122  0.1011  0.0734  0.0258
 2862W        W 7062   8.288   9.804   1.012 -0.2181 -0.3260  0.0801
 2863W        W 7063   8.476   8.156   1.449  0.4639  0.2374  0.1110
 2864W        W 7064   8.761   2.590   3.398  0.2727 -0.0996  0.0077
 2865W        W 7065   1.096   9.103  12.941 -0.5051  0.1619 -0.1880
 2866W        W 7066   8.034   8.598   0.868 -0.1669 -0.1105 -0.3279
 2867W        W 7067   5.078   3.684  11.217 -0.0289 -0.0963  0.1059
 2868W        W 7068   2.377   3.281   3.879 -0.1815 -0.0125 -0.1693
 2869W        W 7069   7.133   0.641  12.512  0.1606 -0.1824  0.1559
 2870W        W 7070   3.435   7.984  10.642 -0.0394 -0.2909  0.3559
 2871W        W 7071   6.588   3.759   2.349  0.0429  0.2583 -0.1691
 2872W        W 7072   1.944   3.069   3.979 -0.1039  0.1554 -0.0293
 2873W        W 7073   3.703   4.773   1.859  0.2005  0.2072 -0.1971
 2874W        W 7074   2.774   4.310   3.312  0.1327  0.1685  0.0325
 2875W        W 7075   6.223   7.089   9.330 -0.0072 -0.1772  0.2624
 2876W        W 7076   0.273   2.685  12.699 -0.0109 -0.3063  0.0640
 2877W        W 7077   8.692   5.265  13.194  0.1077 -0.1324 -0.0034
 2878W        W 7078   5.271   1.309   0.200  0.5044  0.1214  0.2878
 2879W        W 7079   9.046   5.756   2.034 -0.2475  0.0129 -0.2657
 2880W        W 7080   1.180   6.241   2.702 -0.0798  0.2445  0.1516
 2881W        W 7081  10.069   9.545   3.155 -0.2205 -0.0675 -0.0951
 2882W        W 7082   0.683   3.700   2.305  0.1475 -0.2734  0.0006
 2883W        W 7083   8.611   4.581  12.141 -0.0183 -0.0209 -0.2092
 2884W        W 7084   0.098   1.811   1.177 -0.0395  0.1310  0.0781
 2885W        W 7085   6.484   8.041   3.875  0.0825  0.2723  0.0868
 2886W        W 7086   0.147   8.767   1.027 -0.2763 -0.1105  0.0770
 2887W        W 7087   4.494   3.741  11.962 -0.1303  0.1048  0.1804
 2888W        W 7088   1.931   4.467  11.411 -0.0961 -0.0364 -0.0152
 2889W        W 7089   0.423   5.964   3.679  0.0336  0.0571  0.0224
 2890W        W 7090   8.381   3.804   9.808 -0.1292  0.0270  0.2123
 2891W        W 7091   7.875   0.173  12.708  0.2013 -0.1231  0.0063
 2892W        W 7092   5.426   5.099   3.449 -0.0439  0.0294 -0.0049
 2893W        W 7093   0.487   5.281  12.614  0.0208 -0.0770  0.1429
 2894W        W 7094   7.140   5.964   0.257  0.0264  0.1414  0.0109
 2895W        W 7095   2.700   2.174   1.650 -0.0131 -0.2144 -0.3335
 2896W        W 7096   1.144   8.010  12.777 -0.0132 -0.2222  0.0054
 2897W        W 7097   4.858   6.475   8.640  0.0033 -0.3053 -0.0985
 2898W        W 7098   3.413   4.681  11.992  0.2761 -0.1584  0.1443
 2899W        W 7099   9.403   2.347   3.015  0.1933 -0.0428 -0.2450
 2900W        W 7100   4.466   4.302   1.123  0.3339 -0.0685  0.0533
 2901W        W 7101   4.640   1.878  11.939 -0.0224  0.0750 -0.0311
 2902W        W 7102   1.980   9.870  12.209  0.0144  0.0332 -0.1684
 2903W        W 7103   3.678  10.530  13.246  0.0575 -0.0548  0.0199
 2904W        W 7104   5.068  10.129  12.743  0.0907  0.0354  0.1121
 2905W        W 7105   2.096   6.989   0.977 -0.0017  0.1795 -0.2025
 2906W        W 7106   0.593   5.727   8.906 -0.0375  0.0718 -0.0203
 2907W        W 7107   0.130   6.926   0.833  0.0843 -0.0403 -0.2809
 2908W        W 7108   8.345   4.558  11.554  0.0459 -0.1466 -0.1149
 2909W        W 7109   6.270   5.730  10.337  0.1535  0.1033  0.3018
 2910W        W 7110   9.922   5.985  11.029 -0.0156  0.1474  0.0463
 2911W        W 7111   4.855   7.997  12.039  0.2656 -0.1477 -0.3072
 2912W        W 7112   7.532   3.196   0.781  0.0444  0.0389 -0.1057
 2913W        W 7113   0.328   6.150  12.110  0.1451 -0.0156  0.1964
 2914W        W 7114   5.100   8.564   8.404  0.1282 -0.2471 -0.0670
 2915W        W 7115   8.573   5.520  10.434 -0.1440 -0.1574  0.1141
 2916W        W 7116   2.527   0.584   0.650  0.1268 -0.0016 -0.2533
 2917W        W 7117   8.605   3.677   1.800 -0.2173  0.1476 -0.3794
 2918W        W 7118  10.338   4.323  11.859  0.1591 -0.3003 -0.1612
 2919W        W 7119  10.174   2.015   4.240 -0.1231 -0.5435  0.1153
 2920W        W 7120   7.128   5.540   2.448 -0.3471 -0.0522  0.2176
 2921W        W 7121   2.005   4.106  13.219 -0.0708 -0.2532  0.3458
 2922W        W 7122   4.129   4.893   0.657  0.0449 -0.0439 -0.1618
 2923W        W 7123   9.875   2.033   3.114 -0.0913  0.1414  0.2171
 2924W        W 7124   7.535   7.719  11.677 -0.1164  0.1152  0.2952
 2925W        W 7125   4.503   3.313   9.793  0.0199  0.1771 -0.0864
 2926W        W 7126   2.805   1.074   0.844 -0.3514 -0.0876  0.0834
 2927W        W 7127   3.618   6.200   9.198 -0.0649  0.1448 -0.1881
 2928W        W 7128   9.713   0.871   3.174  0.3878 -0.0221  0.0892
 2929W        W 7129   9.334   1.920   0.493 -0.1553  0.0060  0.0580
 2930W        W 7130   2.764   5.839   4.246  0.0463 -0.1128 -0.2854
 2931W        W 7131   6.125   8.244   0.268  0.0332  0.1621 -0.0216
 2932W        W 7132   8.465   4.059   0.484  0.3871 -0.1268  0.1201
 2933W        W 7133   2.700   3.691  13.206  0.3455 -0.1657 -0.0886
 2934W        W 7134   0.743   7.605   8.578  0.1316  0.1542  0.2099
 2935W        W 7135   2.378   8.973  11.321  0.5557  0.0546  0.1481
 2936W        W 7136   1.449   1.983   0.202 -0.1836  0.2603  0.0383
 2937W        W 7137  10.328   3.943   9.090 -0.1023  0.0397  0.2498
 2938W        W 7138   9.864   7.080  11.130 -0.3486 -0.0082  0.2369
 2939W        W 7139   8.896   9.087   2.931  0.1314  0.1814  0.0194
 2940W        W 7140   5.101   2.673   9.682  0.0315  0.0853 -0.0112
 2941W        W 7141   7.899   5.586  11.455  0.1352  0.2927 -0.0868
 2942W        W 7142   5.206   6.953   2.677  0.0021  0.0602  0.0043
 2943W        W 7143   4.189   6.138   9.183 -0.0511 -0.2234  0.2028
 2944W        W 7144   0.386   2.218  12.557 -0.0076 -0.2036  0.2561
 2945W        W 7145   8.876   4.038   3.457  0.1450 -0.0480  0.2382
 2946W        W 7146   4.564   1.486  10.646 -0.2337 -0.3492 -0.2359
 2947W        W 7147   2.111   3.055   9.615 -0.1740  0.0969  0.0430
 2948W        W 7148   3.659  10.286   0.563 -0.3398  0.0984  0.0843
 2949W        W 7149   1.838   5.780  11.328  0.0397  0.2486 -0.0650
 2950W        W 7150   9.753   6.039   1.744  0.2571 -0.1443  0.0699
 2951W        W 7151   0.044   8.390   0.635 -0.0578 -0.2550 -0.2465
 2952W        W 7152   5.097   7.413   0.802  0.1468  0.2072 -0.1079
 2953W        W 7153   0.101   5.614   1.565  0.2486 -0.1373  0.1048
 2954W        W 7154   0.548   5.010   1.427 -0.3607 -0.0754 -0.1912
 2955W        W 7155   2.965   8.343   0.731 -0.1097  0.0742 -0.1064
 2956W        W 7156   1.521   1.494   9.340  0.4159 -0.0468  0.0849
 2957W        W 7157   9.032   0.169   0.443  0.2715  0.1249 -0.1943
 2958W        W 7158   1.018   7.148   2.809 -0.1374 -0.0556 -0.0432
 2959W        W 7159   9.321   9.821  10.721  0.0300 -0.0563  0.3223
 2960W        W 7160   9.180  10.355   1.639 -0.0948  0.1814 -0.2053
 2961W        W 7161   6.684   7.464   4.630  0.1039 -0.1031  0.1499
 2962W        W 7162  10.252   7.795   9.679  0.1927  0.0056 -0.2415
 2963W        W 7163  10.437   3.224  11.033  0.0152  0.0239  0.2267
 2964W        W 7164   1.081   1.894  11.037  0.0857 -0.2468  0.0807
 2965W        W 7165   6.294   9.440  12.480 -0.0401 -0.1210  0.0392
 2966W        W 7166   1.927   6.650  12.616  0.1885 -0.0442  0.1874
 2967W        W 7167   8.124   8.902   0.454  0.0279 -0.0076 -0.0035
 2968W        W 7168   3.683   6.722  11.893 -0.2295 -0.1838 -0.1857
 2969W        W 7169   3.936  10.434   1.854 -0.1394 -0.0329  0.2226
 2970W        W 7170   5.668   1.517   1.182 -0.2868 -0.0131 -0.2426
 2971W        W 7171   0.620   1.767   1.191 -0.3282  0.0043  0.0256
 2972W        W 7172   0.569   2.295   0.672 -0.3451 -0.0263 -0.3112
 2973W        W 7173   7.844   9.517  10.922 -0.0564  0.0439 -0.1348
 2974W        W 7174   6.630   7.846  11.212 -0.1903 -0.1945  0.3356
 2975W        W 7175   4.520   4.435   0.118 -0.0853  0.0134  0.2205
 2976W        W 7176   9.037   7.965  12.129 -0.0527 -0.2281 -0.4399
 2977W        W 7177   8.114   4.885   9.733  0.2538  0.0753  0.1317
 2978W        W 7178   1.596   0.496  10.482 -0.1018  0.2365 -0.2949
 2979W        W 7179   3.247   0.096   2.561 -0.3365 -0.1347  0.0608
 2980W        W 7180   1.452   9.385  10.055  0.0400  0.1943  0.4126
 2981W        W 7181   0.135   8.677   8.945 -0.2300  0.0184  0.0016
 2982W        W 7182   2.963   1.713  10.049 -0.2592  0.0758  0.0678
 2983W        W 7183   9.294   0.659   3.363 -0.2589  0.0606  0.2371
 2984W        W 7184   7.316   1.187  11.791  0.1546 -0.2078  0.0242
 2985W        W 7185   5.804   6.143   0.851 -0.1120  0.3817 -0.0992
 2986W        W 7186   7.674   4.585   9.723 -0.2797 -0.1225  0.0171
 2987W        W 7187   1.223   2.151  10.612  0.0078  0.0204  0.1384
 2988W        W 7188   8.516   7.968  13.152  0.1831  0.5230 -0.3028
 2989W        W 7189   0.750   4.595   0.977  0.2578 -0.0270 -0.3152
 2990W        W 7190   2.960   9.363   0.524  0.1080  0.0566  0.3510
 2991W        W 7191   5.457   4.389  10.845  0.1599  0.1706 -0.1231
 2992W        W 7192   0.391   3.063  10.298  0.1446  0.3289  0.0930
 2993W        W 7193   6.094   7.782   0.174 -0.0047 -0.2510  0.0370
 2994W        W 7194   0.630   4.524   2.651  0.0354  0.0918 -0.0390
 2995W        W 7195   1.704   8.582   3.205 -0.3849 -0.1266 -0.0934
 2996W        W 7196  10.131   2.721  10.749  0.0881 -0.1038 -0.2248
 2997W        W 7197   5.958  10.444   2.157 -0.2928 -0.0209 -0.5002
 2998W        W 7198   7.725   7.231   9.303  0.0582 -0.0671 -0.1506
 2999W        W 7199   5.273   0.937   2.036 -0.0640  0.2360  0.0659
 3000W        W 7200   1.749   7.384   8.472 -0.0947  0.0741 -0.2238
 3001W        W 7201   4.738   8.896   9.182  0.0933 -0.4191  0.1362
 3002W        W 7202   9.280   6.664  12.616  0.1763  0.2368 -0.0536
 3003W        W 7203   5.186   4.237   1.830 -0.1061 -0.0202 -0.2789
 3004W        W 7204   1.046   5.347  10.564  0.3156 -0.0005  0.2440
 3005W        W 7205  10.501   3.219   9.414 -0.0668  0.0904  0.0728
 3006W        W 7206   1.852   1.126   1.871 -0.1394 -0.2234  0.1242
 3007W        W 7207   9.582   3.637   4.550  0.0881 -0.2033 -0.2982
 3008W        W 7208   9.177   6.344   3.341 -0.1247  0.2344 -0.3964
 3009W        W 7209  10.355   7.385   3.390  0.2362 -0.1016 -0.1170
 3010W        W 7210   2.349   8.834   0.006  0.1191  0.0309 -0.1225
 3011W        W 7211  10.188   8.025  10.775  0.0072  0.3219 -0.0545
 3012W        W 7212   3.294   9.129   3.011 -0.4527  0.3387  0.3762
 3013W        W 7213   3.122   7.636  10.714 -0.2434  0.5421 -0.2518
 3014W        W 7214   3.895   6.273   3.041 -0.1626 -0.2039 -0.0663
 3015W        W 7215   5.427   6.044   2.045  0.1040  0.1229  0.0146
 3016W        W 7216  10.320   5.730   2.335 -0.0168  0.0735  0.2336
 3017W        W 7217   0.433   4.165   0.715 -0.0995 -0.0130 -0.0203
 3018W        W 7218   9.244   4.010   8.637  0.0929  0.0552  0.1186
 3019W        W 7219   9.191   6.458  11.380  0.1991 -0.3650  0.1205
 3020W        W 7220   4.957   3.123  12.582  0.2211 -0.0345 -0.0878
 3021W        W 7221   6.903   2.173   0.164  0.0860  0.0040  0.3168
 3022W        W 7222   0.005   8.077   9.429 -0.4319 -0.3062  0.0076
 3023W        W 7223   1.733   3.534  11.373  0.1435  0.1489 -0.0116
 3024W        W 7224   2.481   9.025  10.820 -0.1357  0.0393  0.0718
 3025W        W 7225   2.044   3.589   1.673 -0.0929 -0.5533 -0.0618
 3026W        W 7226   0.561   4.096  10.322  0.0090  0.0850 -0.0200
 3027W        W 7227   5.676   7.391  11.525  0.0675 -0.0040  0.0328
 3028W        W 7228   5.214   8.141   9.835  0.0445  0.0882 -0.2713
 3029W        W 7229   2.970   4.142   2.753  0.5527  0.2589  0.1374
 3030W        W 7230  10.337   7.778   1.370  0.1416 -0.3929  0.2559
 3031W        W 7231   7.957   6.836   9.612  0.1227 -0.1625 -0.0514
 3032W        W 7232   2.466   5.744   9.635 -0.0407  0.2877 -0.0545
 3033W        W 7233   9.180   3.258  12.028  0.0280 -0.0324  0.0217
 3034W        W 7234   5.980   0.564  11.872  0.0901 -0.1018  0.0514
 3035W        W 7235  10.220  10.023   3.251  0.1233 -0.1109 -0.0507
 3036W        W 7236   3.837   3.415   4.083  0.0788 -0.1074  0.1810
 3037W        W 7237   7.514   6.438  10.465  0.1682  0.4350 -0.0943
 3038W        W 7238   6.897   6.199   7.917 -0.1200 -0.0736  0.0591
 3039W        W 7239   9.063   4.929   2.088 -0.0466  0.2732  0.0103
 3040W        W 7240  10.512   7.110   4.232  0.2824  0.1263 -0.0428
 3041W        W 7241   8.712  10.044   9.349 -0.2215  0.1048 -0.2010
 3042W        W 7242   2.040   9.228  12.958 -0.1721 -0.0860  0.0498
 3043W        W 7243   6.403   4.088   4.413  0.1682 -0.1194  0.0540
 3044W        W 7244   7.371   1.440   2.932 -0.1640  0.3486 -0.1568
 3045W        W 7245   4.319  10.146   0.670 -0.0167  0.2457 -0.1493
 3046W        W 7246   9.400   3.018   0.688  0.2934  0.3875  0.1342
 3047W        W 7247   1.335   0.467  12.621 -0.1273 -0.1303  0.1688
 3048W        W 7248   1.610   3.724   8.446  0.3150 -0.0249 -0.2747
 3049W        W 7249   9.952   1.688   8.602 -0.1724  0.2676  0.1211
 3050W        W 7250   9.223   3.774   0.078  0.2070 -0.0485  0.2002
 3051W        W 7251   0.586   8.597   8.689  0.1959 -0.3732  0.0776
 3052W        W 7252   7.495   8.124   9.108 -0.2038 -0.0433  0.1760
 3053W        W 7253   1.270   8.213  11.552 -0.1783  0.2286  0.0905
 3054W        W 7254   5.303   6.180  12.772 -0.4311 -0.0288  0.1085
 3055W        W 7255   1.653   7.791   0.828  0.0586  0.0337  0.2117
 3056W        W 7256   2.796   7.276   2.823 -0.0372  0.2356 -0.2596
 3057W        W 7257   2.573   7.641   4.007 -0.1241 -0.0400  0.0114
 3058W        W 7258  10.349   7.200   1.112 -0.0115  0.0799  0.0170
 3059W        W 7259   5.068   5.120   3.735  0.2219 -0.4295  0.0411
 3060W        W 7260   5.278   5.604   2.839  0.1049  0.1076 -0.2150
 3061W        W 7261   0.582   6.275   3.374 -0.2790 -0.1133  0.0728
 3062W        W 7262   2.863   7.629  13.069 -0.0080 -0.0316  0.1537
 3063W        W 7263   6.369   1.183  11.416 -0.1439 -0.0164  0.2492
 3064W        W 7264   1.473   6.766   3.564 -0.1484 -0.3592 -0.0607
 3065W        W 7265   0.010   5.231   4.456  0.2350 -0.1244  0.1895
 3066W        W 7266   9.599   0.340   0.102  0.0628  0.1986 -0.4010
 3067W        W 7267   3.244   1.133   1.955 -0.2318  0.1353 -0.0963
 3068W        W 7268   7.169   2.244   3.501 -0.0868 -0.0821  0.2972
 3069W        W 7269   5.763   3.360  11.673 -0.0752 -0.2246  0.2400
 3070W        W 7270   7.310  10.152  11.616 -0.3331  0.2662 -0.3888
 3071W        W 7271   8.380   4.574   1.607  0.2636  0.3598  0.4419
 3072W        W 7272   8.245   0.308  13.198  0.0939 -0.0910 -0.0898
 3073W        W 7273   5.263   5.642  11.276  0.0422 -0.0859 -0.1946
 3074W        W 7274   4.996   5.184  12.695 -0.5104  0.1967 -0.2296
 3075W        W 7275   3.633   5.266  12.726 -0.0187  0.3935 -0.3104
 3076W        W 7276   6.722   2.712   1.190 -0.0452  0.0448 -0.1343
 3077W        W 7277   5.539   0.014  11.555  0.0473  0.0900  0.1096
 3078W        W 7278   5.704   2.574  12.290 -0.1159 -0.0775  0.1447
 3079W        W 7279   8.254   2.508  10.432 -0.0864 -0.0536 -0.1784
 3080W        W 7280   1.501   5.470   8.977 -0.1068 -0.0656 -0.1992
 3081W        W 7281   9.664   5.139  12.956  0.0653  0.0676 -0.1043
 3082W        W 7282   1.054   5.713  10.189  0.2328  0.2255  0.2531
 3083W        W 7283   7.647   8.577  10.876  0.0734 -0.2613 -0.3007
 3084W        W 7284   5.418   8.023   8.275 -0.0496 -0.2806 -0.0702
 3085W        W 7285   2.133   2.297  10.212  0.0543 -0.1980  0.0750
 3086W        W 7286   8.122   0.514   2.404  0.2187 -0.1087  0.0895
 3087W        W 7287   1.597   7.735  12.714 -0.0354  0.1378 -0.0511
 3088W        W 7288   0.388   7.607   3.503 -0.1000  0.1186 -0.0873
 3089W        W 7289   6.042   8.720   8.750 -0.0514 -0.0574  0.2758
 3090W        W 7290   2.267   0.524   8.665 -0.0192  0.0234 -0.3043
 3091W        W 7291   4.595   4.921   2.846 -0.1521  0.2018 -0.1623
 3092W        W 7292  10.149   9.854   0.993  0.2627 -0.1082 -0.1751
 3093W        W 7293   5.721   0.516   0.095 -0.2297  0.0419  0.2906
 3094W        W 7294   7.238   9.908   1.758 -0.2008 -0.0706  0.1269
 3095W        W 7295   6.538   3.250   0.403  0.2152  0.4275 -0.0230
 3096W        W 7296   6.674   3.437  11.422  0.2575  0.1713 -0.3000
 3097W        W 7297   8.050  10.283   0.772 -0.1429 -0.1970  0.1984
 3098W        W 7298   4.393   3.211  11.768 -0.0024 -0.1600 -0.2349
 3099W        W 7299   9.009   5.265  12.715 -0.1611 -0.0023 -0.1515
 3100W        W 7300   4.055   0.228  12.205 -0.0993  0.1150  0.0034
 3101W        W 7301   5.321  10.012   9.830  0.1542  0.0057  0.0652
 3102W        W 7302   1.473   4.112   1.948 -0.0255 -0.2947  0.0695
 3103W        W 7303   5.810   8.930  10.264  0.2561  0.0724 -0.0582
 3104W        W 7304   1.177   9.682   4.349  0.3516 -0.4431  0.0930
 3105W        W 7305   5.774   0.648  12.336  0.0432  0.2092  0.2674
 3106W        W 7306   2.711   6.303   3.439  0.1599 -0.0467  0.1288
 3107W        W 7307   0.748   4.211  12.069  0.0910  0.1154  0.2162
 3108W        W 7308   0.126   1.821  12.794 -0.2187  0.2568 -0.2646
 3109W        W 7309   6.425   1.307  12.344 -0.0924 -0.0172  0.0559
 3110W        W 7310   1.817   2.813   1.933  0.0034  0.1453  0.2209
 3111W        W 7311   0.058   1.251   3.808  0.3470  0.0348 -0.2418
 3112W        W 7312   9.026   2.267   5.121 -0.5258  0.1081  0.1474
 3113W        W 7313   7.369   9.551   2.096 -0.0287 -0.1713 -0.2924
 3114W        W 7314   4.551   9.250  10.943  0.1291 -0.1883 -0.2270
 3115W        W 7315   4.381   8.680  13.010 -0.2542 -0.2522  0.1045
 3116W        W 7316   3.179   6.303  11.815 -0.0408 -0.0396  0.0875
 3117W        W 7317   4.618   2.972   1.389  0.2429 -0.2787  0.3955
 3118W        W 7318   4.239   6.246  12.503 -0.1678  0.2042 -0.0304
 3119W        W 7319   7.679  10.194   3.132  0.3075 -0.0745  0.1870
 3120W        W 7320   6.127   5.944   8.549  0.1615  0.0817 -0.3890
 3121W        W 7321   6.485   3.573  12.070 -0.1876  0.2950  0.1608
 3122W        W 7322   5.372   0.943  12.643 -0.0051 -0.1003 -0.1034
 3123W        W 7323   4.815  10.460   1.517  0.1807 -0.2257 -0.1162
 3124W        W 7324   5.417   6.948   1.761  0.0839 -0.1594 -0.3182
 3125W        W 7325   3.315  10.405  12.888 -0.1847  0.0607 -0.1449
 3126W        W 7326   9.909  10.199   8.359 -0.0083  0.0334  0.4332
 3127W        W 7327   5.900   6.818  12.601 -0.2379  0.0538 -0.0510
 3128W        W 7328   9.341   5.799  10.024  0.1828  0.3595  0.2164
 3129W        W 7329   2.618   6.062   8.189 -0.0955 -0.1808 -0.0834
 3130W        W 7330   7.794   5.255   0.261  0.1200  0.2709  0.1469
 3131W        W 7331   7.973   7.689   8.129 -0.0318 -0.0706 -0.1733
 3132W        W 7332   2.777   3.914   1.270 -0.0627 -0.0438 -0.2009
 3133W        W 7333   5.352   3.633  11.625  0.0892 -0.1960 -0.2326
 3134W        W 7334   9.834   7.175  11.625 -0.0561 -0.0885  0.1122
 3135W        W 7335   7.455   9.067   9.279  0.0430  0.1858 -0.2006
 3136W        W 7336   4.288   9.120   2.763  0.3000 -0.0747 -0.0317
 3137W        W 7337   8.102   3.906   2.303 -0.1441 -0.0574 -0.1277
 3138W        W 7338   8.207   6.505  12.478 -0.0854 -0.1190  0.0035
 3139W        W 7339   5.264   5.403   8.704 -0.2406  0.0256 -0.0597
 3140W        W 7340  10.244   2.759   9.680  0.0083 -0.0926  0.1131
 3141W        W 7341  10.122   9.294  12.233 -0.0086  0.0784 -0.3974
 3142W        W 7342   8.040   1.714  11.023 -0.0086  0.0046 -0.1925
 3143W        W 7343   4.840   0.464  11.098 -0.2782  0.1288 -0.2230
 3144W        W 7344   3.302   8.509  11.827 -0.2157  0.1639  0.3877
 3145W        W 7345   1.561   9.999   1.943  0.1268 -0.2042 -0.1642
 3146W        W 7346   0.655   7.802   0.841  0.1103 -0.1663  0.2496
 3147W        W 7347   1.935   0.690   9.802  0.3623  0.3325 -0.0988
 3148W        W 7348   4.219   8.992   0.876  0.1096 -0.0535 -0.2887
 3149W        W 7349  10.465   9.550   9.977  0.2958 -0.4812 -0.1144
 3150W        W 7350   5.045   9.476  11.993  0.0824 -0.3395  0.0012
 3151W        W 7351   5.067   1.811  12.245  0.0648  0.0306  0.1510
 3152W        W 7352   0.671   3.979   0.139  0.3996  0.3641 -0.1062
 3153W        W 7353   3.012   1.095   0.277  0.0206 -0.0999 -0.1406
 3154W        W 7354   4.317   5.801   0.608  0.2216 -0.0391  0.0727
 3155W        W 7355   1.104   4.441  13.083 -0.2263 -0.1745  0.0811
 3156W        W 7356   8.760   7.454  10.482 -0.5286  0.0920 -0.0021
 3157W        W 7357   6.495   5.305   9.451 -0.1437  0.0607 -0.4380
 3158W        W 7358   3.805   4.343   0.507 -0.2403 -0.0254 -0.1591
 3159W        W 7359   7.782  10.298   4.973  0.1996  0.2778 -0.0260
 3160W        W 7360   8.396   9.709  10.602 -0.0702  0.0676 -0.1432
 3161W        W 7361   6.291   1.003   2.114  0.3156 -0.0609 -0.2280
 3162W        W 7362   1.407   2.573   3.406 -0.4877 -0.2126  0.2473
 3163W        W 7363   4.823   7.357   4.040  0.1121 -0.0480 -0.1711
 3164W        W 7364   4.736   8.982   2.987 -0.0079 -0.1299  0.2598
 3165W        W 7365   2.808   6.274  10.945  0.3059 -0.0950  0.1462
 3166W        W 7366   2.756   6.373  12.028 -0.0465  0.1828 -0.1014
 3167W        W 7367   1.210   2.179   3.235 -0.0909  0.1353  0.0131
 3168W        W 7368   7.857   5.520   2.156 -0.3284 -0.0117  0.0822
 3169W        W 7369   2.114   1.966   2.499 -0.1997  0.1505 -0.1194
 3170W        W 7370   1.345   6.622   0.077  0.1100 -0.3926  0.0397
 3171W        W 7371   4.023   6.998   0.138  0.1168 -0.1497 -0.1506
 3172W        W 7372   4.592   5.998   9.467  0.0291  0.1627  0.0318
 3173W        W 7373   6.262   0.518   3.285 -0.0510  0.0360 -0.3283
 3174W        W 7374   7.014   8.646   9.725 -0.3219  0.0794  0.0107
 3175W        W 7375   7.691   5.089   9.913 -0.0635  0.0537  0.1843
 3176W        W 7376   0.151   5.840   2.011 -0.1393  0.0892 -0.1135
 3177W        W 7377   0.392   1.011   1.745 -0.0686  0.1976  0.2404
 3178W        W 7378   9.671   4.066   1.982  0.1941  0.0685 -0.1829
 3179W        W 7379   9.426  10.228   4.186  0.0330 -0.1116 -0.2305
 3180W        W 7380   0.388   3.788   3.508  0.2196  0.2117  0.1724
 3181W        W 7381   2.209   3.880   2.333  0.4071 -0.2247 -0.1609
 3182W        W 7382   0.240   0.985   0.589  0.0152  0.2061 -0.5268
 3183W        W 7383   9.595   3.439  10.627  0.5524 -0.0043  0.1659
 3184W        W 7384   4.363   9.710  12.044  0.0263 -0.0414 -0.2353
 3185W        W 7385   5.392   1.219  11.229 -0.3145 -0.3483  0.0740
 3186W        W 7386   1.266   3.600   2.178  0.0975 -0.1576 -0.0012
 3187W        W 7387   8.916   8.660   3.268  0.1941 -0.0385 -0.5412
 3188W        W 7388   4.071   4.254   2.617  0.0704  0.1116 -0.2303
 3189W        W 7389   8.773   1.450   4.130 -0.2792 -0.1832  0.1632
 3190W        W 7390   1.923   4.083   3.734 -0.0535  0.1929 -0.2528
 3191W        W 7391   8.756   4.616   3.809  0.2594  0.0323  0.1191
 3192W        W 7392   2.783   3.571   2.162 -0.1679  0.1359  0.2510
 3193W        W 7393   4.281   4.790  12.159  0.0948  0.1023 -0.0368
 3194W        W 7394   3.523   3.344  11.162 -0.1142  0.0082 -0.0816
 3195W        W 7395   5.709   7.876  11.689  0.1534 -0.1347 -0.3560
 3196W        W 7396   5.486   3.485  10.694  0.2002 -0.0626  0.0608
 3197W        W 7397  10.274   2.352   0.127  0.1847  0.2170  0.1886
 3198W        W 7398   4.025   6.376  10.496  0.4080  0.4176 -0.0160
 3199W        W 7399   4.958   2.358  12.121  0.3659 -0.1322  0.0811
 3200W        W 7400   0.620   2.440   9.058 -0.0573 -0.1427 -0.0337
 3201W        W 7401   5.195   0.256   1.368  0.1791 -0.1608 -0.1896
 3202W        W 7402   5.520   5.519   9.370  0.0259 -0.2053  0.1831
 3203W        W 7403   6.002   0.646  12.766 -0.0635 -0.2169 -0.0759
 3204W        W 7404  10.156   5.205   9.913  0.0330 -0.2347 -0.0125
 3205W        W 7405   6.472   2.664   4.081  0.0470  0.0236  0.0848
 3206W        W 7406   2.099   2.803  13.238  0.0166 -0.0667 -0.0649
 3207W        W 7407   3.845   6.475   1.422  0.1704  0.0676 -0.0185
 3208W        W 7408   4.695   8.069   0.958 -0.1496  0.1094 -0.2459
 3209W        W 7409   8.353   9.640   4.600  0.3066  0.0009  0.0517
 3210W        W 7410   3.944   5.923  11.485  0.0774  0.2216 -0.3893
 3211W        W 7411   2.086   1.213  11.342  0.2357 -0.1862 -0.1908
 3212W        W 7412   9.059   4.298   9.597  0.2219 -0.2017  0.0665
 3213W        W 7413   1.365   0.845   0.898  0.0394  0.4316  0.1514
 3214W        W 7414   6.403   5.034   3.373  0.1463  0.1080  0.0944
 3215W        W 7415   8.442   8.162   2.154 -0.1688  0.2385 -0.0328
 3216W        W 7416   9.013   1.862   3.221 -0.2531 -0.1122  0.2188
 3217W        W 7417   5.222   3.276   1.175  0.1954  0.0147  0.1707
 3218W        W 7418   5.520   3.005  11.369  0.0184 -0.1176  0.2282
 3219W        W 7419   9.954   2.299  11.539  0.0909 -0.0194  0.1236
 3220W        W 7420   5.845   8.355  11.714 -0.1064 -0.6264  0.2052
 3221W        W 7421   1.280   3.898   9.779  0.4486  0.1964 -0.0571
 3222W        W 7422   7.393   5.677  11.295  0.0359 -0.1791  0.1942
 3223W        W 7423   2.933   6.332   2.543 -0.0037 -0.1626 -0.0412
 3224W        W 7424   9.895   3.009   2.643 -0.0358 -0.1100  0.1326
 3225W        W 7425   8.426   2.492   2.949 -0.0383  0.2185 -0.3298
 3226W        W 7426   6.119   6.463   1.138 -0.1795 -0.4160  0.2476
 3227W        W 7427   4.709   6.128  12.666  0.0439  0.0179  0.0544
 3228W        W 7428   6.449   1.907   0.917  0.1301  0.2288  0.0349
 3229W        W 7429   1.570   4.066  11.526 -0.0749  0.5499  0.0226
 3230W        W 7430   0.549   8.806   0.633  0.0585 -0.4061 -0.2262
 3231W        W 7431   4.015   0.512  11.242  0.0301  0.0716  0.0786
 3232W        W 7432   6.189   3.627  12.887 -0.2710  0.0073  0.0294
 3233W        W 7433   2.363   3.157  12.932  0.2139  0.1469 -0.0173
 3234W        W 7434   8.500   6.452   4.804  0.3328 -0.0379 -0.2177
 3235W        W 7435   9.426   1.359   9.606  0.1215  0.1956 -0.0940
 3236W        W 7436   1.485   8.317  10.611 -0.1232  0.0320 -0.0410
 3237W        W 7437   4.994   7.849   8.996  0.0485  0.0005  0.2444
 3238W        W 7438   3.209   9.979   9.909 -0.2768  0.0218  0.1302
 3239W        W 7439   8.682   8.695   1.344  0.0528  0.0968  0.0840
 3240W        W 7440   7.449   5.471   4.146  0.0467  0.1315 -0.0894
 3241W        W 7441   8.630   9.965   3.278  0.0104 -0.0978 -0.0655
 3242W        W 7442   1.977   5.731   9.307  0.0833  0.0105  0.1533
 3243W        W 7443   0.361   2.035   8.885 -0.0120  0.0576  0.0837
 3244W        W 7444   9.031   1.358  12.467 -0.1872  0.1162  0.0026
 3245W        W 7445   0.755   0.365   3.180  0.1333  0.0080  0.2374
 3246W        W 7446   9.630   9.127  11.203 -0.1911  0.3844 -0.0445
 3247W        W 7447   5.793   2.914   2.422  0.0383 -0.1468  0.3760
 3248W        W 7448   3.167   8.217   8.834  0.2130 -0.3882 -0.0365
 3249W        W 7449   3.493   8.237   9.935  0.1889  0.2223 -0.1705
 3250W        W 7450   4.596   8.205   2.488  0.1466 -0.1845  0.2127
 3251W        W 7451   8.606   5.567  12.669 -0.1764  0.0173 -0.0503
 3252W        W 7452   5.093   9.660  12.976 -0.0884 -0.1776 -0.0008
 3253W        W 7453   2.065   2.731   1.293  0.0744  0.1299  0.1522
 3254W        W 7454   0.598   9.512   9.298  0.2737 -0.1794 -0.0818
 3255W        W 7455  10.118   8.352   9.874 -0.0493  0.0484 -0.0742
 3256W        W 7456   7.066   3.853  11.383 -0.0826 -0.4537  0.1664
 3257W        W 7457   6.642  10.015   2.434  0.1231  0.0510 -0.2592
 3258W        W 7458   5.466   4.062  11.892 -0.3974  0.0161 -0.1867
 3259W        W 7459   0.704   0.468   0.875  0.1390 -0.2339 -0.1129
 3260W        W 7460  10.288   8.424  11.714 -0.1958 -0.0055  0.0060
 3261W        W 7461   4.342   6.574   9.610 -0.2802  0.0580 -0.2063
 3262W        W 7462   5.182  10.347   0.326  0.2990 -0.1396  0.2826
 3263W        W 7463   7.712   3.434   9.481 -0.0031  0.0211 -0.0725
 3264W        W 7464   0.410   1.300  10.714  0.0851 -0.1357  0.1319
 3265W        W 7465   6.159   5.010  13.003  0.0054 -0.0094 -0.0434
 3266W        W 7466   2.342   5.181   4.750 -0.0725  0.2572  0.0397
 3267W        W 7467   5.083   6.784  11.977  0.0852 -0.1482  0.0116
 3268W        W 7468   5.657   7.997   3.718  0.0149 -0.0370 -0.0468
 3269W        W 7469   3.664   8.421   1.992  0.0355 -0.1063  0.0434
 3270W        W 7470   6.229   8.828   9.699 -0.1748  0.0073 -0.0203
 3271W        W 7471   0.257   8.851   1.597 -0.1064  0.0088  0.0388
 3272W        W 7472   5.771   7.176  10.869 -0.2903 -0.1524 -0.1338
 3273W        W 7473   6.729   4.544   0.322 -0.2718  0.2009  0.0189
 3274W        W 7474   8.364   2.599   4.634  0.2008 -0.0021  0.2550
 3275W        W 7475   2.670   5.553   0.305  0.0332 -0.1385  0.3585
 3276W        W 7476   2.693   1.967   1.221 -0.0925  0.0966  0.4782
 3277W        W 7477   4.097   1.315   2.268 -0.1484  0.0358  0.0616
 3278W        W 7478   6.287   6.900   9.867 -0.0621 -0.2368 -0.3487
 3279W        W 7479   7.329   9.145   3.966  0.0164 -0.1711  0.1101
 3280W        W 7480   0.405   2.587  10.614 -0.1312  0.2407  0.2643
 3281W        W 7481   0.291   1.551   0.368 -0.1468 -0.1772 -0.1794
 3282W        W 7482   4.961   4.646   0.279 -0.1063 -0.0161 -0.3107
 3283W        W 7483   1.365   5.108   1.640  0.0496 -0.1702  0.1530
 3284W        W 7484   7.897   0.771  10.404 -0.1643  0.1542 -0.1167
 3285W        W 7485  10.368   0.905  12.974  0.3536  0.0715  0.2383
 3286W        W 7486   3.163   1.274  11.092 -0.1377 -0.0438 -0.0946
 3287W        W 7487   0.237   8.101   4.463 -0.3239 -0.0482  0.4357
 3288W        W 7488   9.155  10.238   1.152  0.0639  0.0647  0.1501
 3289W        W 7489   8.865   7.588   8.926  0.4502 -0.1285  0.0955
 3290W        W 7490   4.289   8.640   3.172  0.1773  0.2354  0.5317
 3291W        W 7491   1.389   3.261   0.291  0.0386 -0.2220  0.2046
 3292W        W 7492   4.536   2.527   1.107  0.1689  0.0082  0.4706
 3293W        W 7493   7.042   9.958   2.948 -0.0673  0.0741  0.0679
 3294W        W 7494   2.201   1.522   1.897  0.0374 -0.4257 -0.1069
 3295W        W 7495   9.306   9.869  12.208  0.1553  0.3161  0.2322
 3296W        W 7496   8.427   6.524   9.603 -0.0801 -0.6643  0.2226
 3297W        W 7497   1.114   0.331  10.670  0.0042  0.3156 -0.3103
 3298W        W 7498   7.658   7.950   1.697 -0.0697  0.1335 -0.0111
 3299W        W 7499   2.121   3.999   0.752 -0.1569  0.1840 -0.1964
 3300W        W 7500   0.290   9.254   0.826  0.0819  0.2063 -0.0019
 3301W        W 7501   1.551  10.213   3.576 -0.1589  0.0931 -0.1157
 3302W        W 7502   9.036   6.127   0.019 -0.0621 -0.0167 -0.2782
 3303W        W 7503   4.401   0.692   1.824  0.1849  0.0004 -0.2042
 3304W        W 7504   9.350   3.362  13.018  0.1077  0.4081  0.0734
 3305W        W 7505   1.046   4.159   1.415  0.1142 -0.0776  0.0144
 3306W        W 7506   5.934   4.838   3.626 -0.2307 -0.2163 -0.0623
 3307W        W 7507   6.934   2.207  10.881  0.2857  0.1088  0.0565
 3308W        W 7508   3.637   1.386   6.718 -0.0366  0.2234 -0.1284
 3309W        W 7509   5.263   1.427   2.132  0.2755 -0.1099 -0.1443
 3310W        W 7510   0.923   4.475  11.640 -0.2420  0.0869 -0.2396
 3311W        W 7511   1.313   1.893  10.100 -0.0375 -0.0348  0.0398
 3312W        W 7512  10.248   9.717  12.637  0.2535 -0.0637 -0.2241
 3313W        W 7513   8.471   4.204   2.600  0.2795 -0.1818  0.0041
 3314W        W 7514   2.256   4.893  11.204  0.3167 -0.2073 -0.0156
 3315W        W 7515   7.476   9.810  12.963  0.3918  0.0004 -0.1936
 3316W        W 7516   6.863   8.858  12.531  0.1025 -0.1916  0.0629
 3317W        W 7517   5.806   6.694   5.351 -0.1502 -0.0927 -0.0438
 3318W        W 7518   6.620   2.633  12.968 -0.2780 -0.0154  0.0071
 3319W        W 7519   9.170   9.447   4.981 -0.1793 -0.2667 -0.1725
 3320W        W 7520   4.918   4.233   9.422 -0.1455 -0.3340 -0.1392
 3321W        W 7521   8.377   5.134   2.784 -0.1862 -0.1177  0.2697
 3322W        W 7522   4.019   0.578   7.659 -0.0968  0.0702 -0.1830
 3323W        W 7523   1.594   4.158  12.525 -0.1477  0.0308  0.2260
 3324W        W 7524   9.981   5.552   9.544  0.0107 -0.0249  0.3538
 3325W        W 7525   6.291   6.568   9.423 -0.1918  0.1419 -0.3982
 3326W        W 7526   8.114   0.339   1.900 -0.4321  0.1339  0.0703
 3327W        W 7527   7.511   4.986   4.287 -0.0594 -0.1644 -0.0151
 3328W        W 7528   1.979   8.236   9.422  0.2513 -0.0466  0.1728
 3329W        W 7529   3.120   2.942  10.381  0.1127 -0.0238  0.2208
 3330W        W 7530   3.275   0.343   4.033  0.0959 -0.2974 -0.0228
 3331W        W 7531   4.362   3.094   1.894  0.3412 -0.1577  0.4583
 3332W        W 7532   5.146   2.529   1.820 -0.1927  0.3220 -0.3230
 3333W        W 7533   5.352   5.525  11.787  0.1301 -0.2889  0.1521
 3334W        W 7534   7.906   7.524   4.526 -0.2913 -0.0232  0.2055
 3335W        W 7535   4.620   0.453  12.772 -0.1672 -0.1701 -0.0449
 3336W        W 7536  10.344   2.064   8.808  0.0059 -0.0238  0.1996
 3337W        W 7537   0.600   8.027   3.622  0.1876  0.0654  0.3182
 3338W        W 7538   0.397   9.963   9.192  0.0265  0.1356 -0.1188
 3339W        W 7539   2.851   4.644  11.130 -0.1203  0.1724  0.0753
 3340W        W 7540   3.346   4.231  12.796 -0.1349 -0.2374 -0.2677
 3341W        W 7541   2.777   9.246  12.085 -0.0967 -0.0373  0.2326
 3342W        W 7542   7.359   0.953   0.495  0.2767  0.0575 -0.3158
 3343W        W 7543   6.315   6.530   4.412  0.4380 -0.1207  0.2642
 3344W        W 7544  10.253   9.945   9.722  0.0133  0.0044 -0.3383
 3345W        W 7545   6.047   8.059  11.314 -0.0462 -0.2122  0.1799
 3346W        W 7546   0.090   6.566  10.790  0.2516 -0.0382  0.0866
 3347W        W 7547   0.867   9.291   4.860  0.1562 -0.2266  0.1680
 3348W        W 7548   3.523   8.385   0.543  0.0196  0.3025 -0.0560
 3349W        W 7549   8.092   0.971  12.671  0.2660  0.4835 -0.3203
 3350W        W 7550   1.217   5.387   4.610 -0.0867 -0.2198 -0.0243
 3351W        W 7551   9.897   9.396  12.655  0.2478 -0.0103  0.0368
 3352W        W 7552   7.363   6.054   0.709 -0.1496  0.2279  0.2290
 3353W        W 7553   9.545   8.945   9.415  0.0378  0.4169 -0.0054
 3354W        W 7554   0.052   5.613  13.048 -0.3366  0.0824  0.0709
 3355W        W 7555   8.043   8.754   4.476  0.2674 -0.0400 -0.0384
 3356W        W 7556   3.224   4.931   4.345  0.2897  0.0513 -0.0880
 3357W        W 7557   6.253   6.866   2.509 -0.1784 -0.0033  0.1748
 3358W        W 7558   8.180   9.037  12.064  0.2948  0.1546 -0.0409
 3359W        W 7559   0.207   8.984  12.733 -0.0687  0.0162 -0.4239
 3360W        W 7560   2.674   2.027  10.795 -0.0114  0.0749  0.1052
 3361W        W 7561   1.414   5.835  11.769 -0.1489 -0.2681 -0.3189
 3362W        W 7562   1.439   9.963   9.116 -0.0975 -0.1115  0.0465
 3363W        W 7563   2.233   6.029   3.674  0.1178  0.3465 -0.1113
 3364W        W 7564   1.728   8.104   2.238  0.0263  0.0556 -0.0300
 3365W        W 7565   0.015   3.020  11.557  0.6917  0.2773 -0.0695
 3366W        W 7566   7.403   7.070   3.356  0.0151 -0.0356 -0.0886
 3367W        W 7567   6.084   4.301   9.253  0.0521  0.0490 -0.3076
 3368W        W 7568   0.391   2.174   3.837 -0.2194 -0.1156  0.1108
 3369W        W 7569   2.891   2.650   1.603 -0.0148 -0.1062 -0.0099
 3370W        W 7570   5.301   6.246   0.058 -0.0028 -0.3010 -0.0149
 3371W        W 7571   8.515   3.539   0.439 -0.0641  0.0856 -0.1419
 3372W        W 7572   0.208   1.813   9.516  0.3119 -0.0200  0.0782
 3373W        W 7573   5.893   8.764  10.986 -0.0907 -0.1371 -0.0516
 3374W        W 7574   1.650   9.526  13.118  0.1218 -0.2494  0.0791
 3375W        W 7575   8.023   8.030   4.291 -0.1255 -0.2587  0.0432
 3376W        W 7576   5.791   9.469  10.444  0.1687 -0.0886  0.2744
 3377W        W 7577   4.594   4.048   3.864 -0.3764  0.1388  0.0204
 3378W        W 7578   1.147   4.773  10.238  0.3198 -0.0202 -0.1190
 3379W        W 7579   1.262  10.539   4.380  0.0911 -0.1428 -0.1739
 3380W        W 7580   9.031   6.667   1.814  0.1397  0.1060  0.1275
 3381W        W 7581  10.267   9.161   2.746 -0.2222  0.2831 -0.1327
 3382W        W 7582   3.301   5.791   2.216 -0.0673  0.0958 -0.0868
 3383W        W 7583   9.172   5.922   1.613  0.1352 -0.3711  0.0838
 3384W        W 7584   9.880   5.521   0.485  0.0533  0.4076  0.0360
 3385W        W 7585   9.839   0.635   4.008  0.0649 -0.0118 -0.0740
 3386W        W 7586   3.658   7.640   2.656 -0.0751 -0.0108 -0.0462
 3387W        W 7587   8.193   5.766  12.955  0.2148 -0.0279  0.1089
 3388W        W 7588   2.597   0.229  12.607 -0.1159 -0.6225 -0.0213
 3389W        W 7589   4.353   5.339   4.951  0.3249  0.0849 -0.1649
 3390W        W 7590   0.120   2.459   3.417 -0.0337 -0.1676 -0.2305
 3391W        W 7591   7.453   2.678   0.882  0.0291 -0.3622  0.2859
 3392W        W 7592   2.190   2.337   0.289  0.0441 -0.2787 -0.3242
 3393W        W 7593   8.989   7.282  10.053  0.0594 -0.0824 -0.0216
 3394W        W 7594   2.066   9.015   3.903 -0.0348  0.2380  0.0135
 3395W        W 7595   1.639   4.237   4.091  0.1302 -0.3884 -0.1128
 3396W        W 7596   0.245   9.908   9.742  0.1713  0.1109  0.2541
 3397W        W 7597   1.318   9.413   0.270  0.2438 -0.0501  0.2400
 3398W        W 7598   1.357   8.075   3.024  0.0604  0.0141  0.1069
 3399W        W 7599   7.734   2.016  11.178  0.1141  0.0326 -0.1216
 3400W        W 7600   2.478   1.829   2.979  0.0790 -0.1747  0.0521
 3401W        W 7601   7.172   6.467   9.249  0.1878  0.5198  0.0840
 3402W        W 7602   4.862   4.832  13.047  0.3672  0.0218 -0.1403
 3403W        W 7603   0.906   3.980   1.947  0.0703 -0.3581 -0.0260
 3404W        W 7604   8.048   5.050   2.251  0.2628 -0.2322 -0.3648
 3405W        W 7605   8.299   9.579   9.012 -0.0932  0.1062  0.0745
 3406W        W 7606   0.204   3.421   3.181  0.0362 -0.1688  0.0151
 3407W        W 7607   7.683   6.992   2.952  0.2195  0.0581 -0.1308
 3408W        W 7608  10.474   0.127   0.579 -0.1447 -0.2614 -0.1205
 3409W        W 7609   7.159   9.279   0.414  0.2349 -0.0385  0.0837
 3410W        W 7610   9.767   4.252   2.508  0.3881 -0.1727  0.0946
 3411W        W 7611  10.461   2.244  12.853  0.1102 -0.1299  0.2056
 3412W        W 7612   3.025   2.815   2.955  0.0203  0.0341  0.1101
 3413W        W 7613   6.467   4.671   2.597 -0.2118  0.3975 -0.0936
 3414W        W 7614   3.353   9.327  12.365  0.1600  0.1751  0.1649
 3415W        W 7615   4.265   8.771  10.734 -0.4321 -0.0099  0.0476
 3416W        W 7616  10.159   7.552  11.992 -0.0222 -0.0979 -0.0100
 3417W        W 7617   6.045   1.604   0.634  0.0157 -0.1730 -0.2348
 3418W        W 7618   0.435   2.531   3.062 -0.1844  0.3036 -0.0560
 3419W        W 7619   9.718   0.535   2.332 -0.0236 -0.0834  0.0024
 3420W        W 7620   2.045   4.568   1.760 -0.0320 -0.1006 -0.2650
 3421W        W 7621   9.339   0.777  11.749 -0.0948  0.3353  0.1034
 3422W        W 7622   8.627   9.557   8.562  0.2638 -0.1121  0.1863
 3423W        W 7623   5.610   8.199   0.564 -0.0735  0.1595  0.3774
 3424W        W 7624   9.130   7.602   1.832  0.1055  0.1049  0.2621
 3425W        W 7625   1.252   8.005   3.560  0.1038  0.1759 -0.0248
 3426W        W 7626   2.779   8.623  13.077 -0.0005  0.1209 -0.0819
 3427W        W 7627   9.007   1.729   2.281 -0.0801  0.0669  0.0477
 3428W        W 7628   6.225   0.342   0.135 -0.1704 -0.3804  0.0816
 3429W        W 7629   9.032   7.371   0.981  0.0944 -0.0972 -0.0742
 3430W        W 7630   8.677   9.427  13.122  0.1092  0.0716  0.1457
 3431W        W 7631   6.217   2.314   9.326  0.1120  0.0307 -0.0734
 3432W        W 7632   3.923   9.313   1.114  0.0537 -0.3709 -0.1027
 3433W        W 7633   3.616   1.080  10.681 -0.0166 -0.0741  0.1890
 3434W        W 7634   4.702   4.175   4.305  0.1752  0.1333 -0.4149
 3435W        W 7635   8.194   5.903   0.167  0.0579  0.0382 -0.2489
 3436W        W 7636   3.873   7.125   9.356 -0.0107  0.3985  0.2438
 3437W        W 7637   2.651   0.857  12.566  0.4267 -0.2197  0.2474
 3438W        W 7638   0.244   6.746   3.200  0.0198  0.1043 -0.2415
 3439W        W 7639   6.147   2.878  10.864  0.0926  0.4648 -0.2397
 3440W        W 7640   2.993   6.233   4.034 -0.4937  0.2268  0.0418
 3441W        W 7641   5.421   3.269  12.941  0.2012 -0.0464  0.3459
 3442W        W 7642   5.163   7.064  12.814 -0.0460  0.1057  0.0608
 3443W        W 7643   8.841   5.966  10.073  0.0175 -0.0533 -0.3724
 3444W        W 7644   3.782   5.702   9.101  0.1043 -0.0256 -0.1969
 3445W        W 7645   7.977   5.108   1.514 -0.2866 -0.0243 -0.3338
 3446W        W 7646   8.869   3.561   1.371  0.2715  0.4225 -0.3422
 3447W        W 7647   5.371   7.551  12.925  0.0362 -0.3685 -0.2595
 3448W        W 7648   4.744  10.131  11.347  0.0561 -0.0342 -0.3736
 3449W        W 7649   5.602   1.400  10.085  0.4225 -0.0360 -0.1353
 3450W        W 7650   4.866   1.170   1.204 -0.3573  0.0200  0.4297
 3451W        W 7651   9.183   7.152  10.482  0.1494  0.1414 -0.1550
 3452W        W 7652   5.540   9.527   2.993 -0.0333 -0.0634  0.1565
 3453W        W 7653   5.271   0.639  12.004  0.1983 -0.2006 -0.0339
 3454W        W 7654   9.042   9.164   9.333  0.0179 -0.1587 -0.0916
 3455W        W 7655  10.522   3.314   4.293  0.1436  0.0497 -0.2680
 3456W        W 7656   4.311   6.217   0.993  0.2242 -0.2540  0.1373
 3457W        W 7657   6.981   5.164   2.713  0.1655  0.0819 -0.2374
 3458W        W 7658   1.974   7.329   0.623  0.0422 -0.0792  0.1743
 3459W        W 7659   1.011   3.060   9.647 -0.1782  0.4492  0.1570
 3460W        W 7660   5.513   0.174  12.005  0.1375  0.0160  0.4298
 3461W        W 7661   2.455   1.926   0.020  0.1503  0.2029 -0.0510
 3462W        W 7662   0.021   8.454   2.340 -0.0539 -0.2303  0.2381
 3463W        W 7663   1.230   6.527  10.237 -0.1005  0.0898  0.2392
 3464W        W 7664   2.518   1.542   0.895 -0.0375  0.0582  0.2515
 3465W        W 7665   0.449   8.022   2.653 -0.3270  0.4071  0.2022
 3466W        W 7666   3.851   7.531   0.865  0.1760 -0.0340 -0.0164
 3467W        W 7667   8.038   8.233  12.338 -0.1572 -0.0021 -0.1547
 3468W        W 7668   5.908   7.823   4.525  0.0952 -0.0925  0.1430
 3469W        W 7669   5.287  10.150  11.497 -0.0010  0.1850  0.0468
 3470W        W 7670   6.511   3.939   0.615  0.0099 -0.1128  0.0914
 3471W        W 7671   6.567   9.545   1.491  0.0865  0.0773 -0.1955
 3472W        W 7672   4.967   7.256   2.200 -0.1161  0.0552 -0.0924
 3473W        W 7673   3.181   6.332   4.562 -0.2909  0.0364  0.0665
 3474W        W 7674   8.084   1.281   1.645  0.4214 -0.1994  0.0236
 3475W        W 7675   2.168   6.429  13.015 -0.1493 -0.2567 -0.2719
 3476W        W 7676   3.005   5.013   2.556 -0.0896  0.0643  0.1827
 3477W        W 7677   7.902   9.974  13.113 -0.1646 -0.0592 -0.1009
 3478W        W 7678   4.795   4.208   2.458  0.0986 -0.0289  0.1626
 3479W        W 7679  10.117   9.414   0.634 -0.1221  0.2380  0.0048
 3480W        W 7680   4.454   8.750   1.349  0.3104 -0.3453 -0.2879
 3481W        W 7681   9.605   2.394   1.823 -0.1109 -0.0023 -0.0810
 3482W        W 7682   0.775   2.072   2.967  0.1058 -0.0285  0.0812
 3483W        W 7683   0.753   3.624   9.005  0.2096  0.2037 -0.1430
 3484W        W 7684   5.909   6.039  10.061 -0.2138 -0.3866 -0.0846
 3485W        W 7685   5.646   4.761   2.615 -0.3048  0.1070 -0.0406
 3486W        W 7686   7.386   3.513   9.048  0.1415  0.2428 -0.3298
 3487W        W 7687   0.373   9.987   1.740  0.1124 -0.2453  0.1763
 3488W        W 7688   4.356   9.648   1.745  0.1242 -0.0416 -0.1544
 3489W        W 7689  10.151   7.167   0.645  0.0472 -0.3105  0.0903
 3490W        W 7690   0.072   4.366  10.130 -0.0009  0.2471  0.0198
 3491W        W 7691   1.662   5.345   9.488 -0.2849  0.1130  0.0561
 3492W        W 7692   0.092   1.828   2.825 -0.1697 -0.2972  0.0508
 3493W        W 7693   5.743   5.739  11.483  0.0340  0.0112  0.0432
 3494W        W 7694   9.665   7.670  12.000  0.2165  0.0981 -0.2629
 3495W        W 7695   1.517   0.554   2.043 -0.1267 -0.3549 -0.3239
 3496W        W 7696   5.721   9.838   9.413  0.0849  0.1602  0.0522
 3497W        W 7697   8.271   2.522   9.355  0.1110  0.0188  0.2010
 3498W        W 7698   0.580  10.419   1.792 -0.1795 -0.0769 -0.2270
 3499W        W 7699   0.929   2.590   3.095 -0.2392  0.1462  0.0341
 3500W        W 7700   0.420   2.488   4.265 -0.2811  0.0260 -0.0655
 3501W        W 7701   6.162   7.870   0.674  0.0140 -0.1685  0.0856
 3502W        W 7702   9.872   1.886   1.795 -0.1374 -0.0728  0.0135
 3503W        W 7703   1.342   9.577  12.211  0.1848 -0.4415  0.0711
 3504W        W 7704   8.017   1.958   9.241 -0.1846 -0.2428  0.1871
 3505W        W 7705   2.807   7.152  12.949 -0.1852  0.0465 -0.0141
 3506W        W 7706   1.451   9.309   9.539  0.0019 -0.1051 -0.4223
 3507W        W 7707   7.308   3.668   3.080  0.0356 -0.0593 -0.0965
 3508W        W 7708   7.757   3.213  11.519  0.0642  0.2086  0.0655
 3509W        W 7709   8.464   6.649   2.637 -0.0035  0.3207  0.0338
 3510W        W 7710   3.045   8.204   1.281 -0.2982  0.3518 -0.1953
 3511W        W 7711   8.750  10.077   0.839 -0.1434  0.2169  0.0403
 3512W        W 7712   8.985   4.243   2.921  0.1919  0.1139  0.0407
 3513W        W 7713   0.627   1.939   4.241 -0.2544 -0.1412 -0.1113
 3514W        W 7714   0.040   3.796   0.850  0.1038 -0.0799  0.1841
 3515W        W 7715   5.803   6.711   1.463  0.2039 -0.0414  0.1134
 3516W        W 7716  10.274   2.360   9.954 -0.1766 -0.1976  0.2454
 3517W        W 7717   1.147  10.352   8.926  0.0366 -0.0082 -0.3060
 3518W        W 7718   3.809   4.380   3.815  0.1201  0.0426 -0.0101
 3519W        W 7719   7.175   5.699  10.861 -0.0481 -0.0801 -0.1917
 3520W        W 7720   6.551   8.154   2.914 -0.0862 -0.0597  0.0029
 3521W        W 7721   8.784   0.997  12.233  0.2276  0.0051  0.1710
 3522W        W 7722   0.490   7.788   4.020  0.1687  0.1268 -0.1815
 3523W        W 7723   8.527   1.015   4.169 -0.0897  0.0987 -0.1484
 3524W        W 7724   9.266   8.452  10.324  0.0618 -0.0631  0.1921
 3525W        W 7725   1.172   2.494   0.106 -0.0430 -0.1366 -0.0387
 3526W        W 7726   6.418   6.987   4.564  0.1215  0.2871 -0.2095
 3527W        W 7727   2.176   9.226   0.808 -0.1871 -0.2648  0.2262
 3528W        W 7728   0.758   4.979  11.874  0.0027  0.0163  0.0070
 3529W        W 7729   5.258   8.794   1.648 -0.1925  0.0478 -0.1106
 3530W        W 7730   8.887   9.254  10.299 -0.1567 -0.5253 -0.0840
 3531W        W 7731   4.023   7.828  11.607  0.0733 -0.0038  0.1013
 3532W        W 7732   4.757   3.914   0.231 -0.0247  0.1209  0.0340
 3533W        W 7733   4.071   3.563   3.156  0.2199 -0.1880  0.3483
 3534W        W 7734   4.077   8.305   2.827 -0.0990 -0.2155  0.0593
 3535W        W 7735   7.673   5.714   8.319 -0.1068  0.3305 -0.1108
 3536W        W 7736   8.836   6.886  10.763  0.3918  0.0433  0.0235
 3537W        W 7737   9.645   1.081  11.869 -0.0277  0.1631 -0.1255
 3538W        W 7738   6.299   1.804  12.828 -0.1675 -0.0710 -0.1340
 3539W        W 7739   7.995   3.829  12.298  0.2320  0.0923  0.0624
 3540W        W 7740   1.201   3.026   3.970  0.0042 -0.1625  0.0997
 3541W        W 7741   3.648   7.878   3.592  0.2832  0.0485  0.1938
 3542W        W 7742  10.373   8.874  11.996  0.0290 -0.2630 -0.2216
 3543W        W 7743   4.139   8.700   1.829 -0.0462  0.1533 -0.4235
 3544W        W 7744   9.490   5.679  12.742  0.0503 -0.0774  0.1809
 3545W        W 7745   2.427   5.995   3.248  0.1823 -0.1872 -0.2154
 3546W        W 7746   7.845   9.300   8.950 -0.0675 -0.0461  0.1667
 3547W        W 7747   4.714   2.762   3.365 -0.0730  0.0499 -0.3025
 3548W        W 7748   5.629   6.003  11.919  0.0732  0.0217 -0.2830
 3549W        W 7749   8.492   6.300  10.115 -0.2660 -0.3249  0.0264
 3550W        W 7750   0.597   8.059   1.846  0.2380  0.1555 -0.2189
 3551W        W 7751   6.517   0.767   2.949  0.3389  0.0151 -0.2496
 3552W        W 7752   4.332   6.011  10.461  0.0799 -0.3842 -0.1615
 3553W        W 7753   4.236   3.978  10.689 -0.0226  0.2850 -0.3028
 3554W        W 7754  10.538   0.820   3.565  0.0300  0.3428  0.2550
 3555W        W 7755   1.567   4.351   3.348 -0.0275  0.2707  0.0393
 3556W        W 7756   1.001   1.212  13.058 -0.2878 -0.0652 -0.0407
 3557W        W 7757   0.556   3.700   9.953  0.0183  0.1262 -0.3063
 3558W        W 7758   0.344   7.160  11.154 -0.1073  0.1084 -0.3300
 3559W        W 7759   4.815   3.265   3.449 -0.3290  0.3714  0.1617
 3560W        W 7760   7.152   4.050  11.892 -0.1694  0.1754 -0.0135
 3561W        W 7761   5.174   6.380   0.672 -0.0978 -0.0674 -0.3022
 3562W        W 7762   7.682   3.368   4.263  0.0704  0.1359 -0.1050
 3563W        W 7763   2.489   8.269   3.023  0.1709 -0.0116 -0.0970
 3564W        W 7764   9.090  10.263   2.184  0.0350 -0.2060 -0.0811
 3565W        W 7765   6.477   4.967   1.508  0.0964  0.4316 -0.0088
 3566W        W 7766   5.706  10.066  10.327 -0.0755  0.3053  0.0390
 3567W        W 7767   2.785   4.076   2.283  0.0205 -0.1030  0.5096
 3568W        W 7768   1.912   3.107  11.260 -0.0954  0.1193  0.5267
 3569W        W 7769   5.538   2.615   0.117  0.1614  0.2861  0.1208
 3570W        W 7770   4.875   2.827  11.686 -0.0501 -0.3268 -0.2897
 3571W        W 7771   7.149   8.706  11.541 -0.2417  0.1708  0.0945
 3572W        W 7772   7.200   1.328   0.840 -0.1030  0.0451  0.2350
 3573W        W 7773   9.305   9.235   1.038  0.3507  0.0004  0.1129
 3574W        W 7774   4.757   5.873  10.148  0.2371 -0.1588 -0.1462
 3575W        W 7775   3.564   3.629  12.186  0.1864 -0.1331 -0.0831
 3576W        W 7776  10.301   7.645   8.021 -0.2323 -0.0176 -0.2848
 3577W        W 7777   2.878   5.220   9.245 -0.0274  0.0517  0.2141
 3578W        W 7778   2.127   9.812   0.318  0.0881  0.1366 -0.3321
 3579W        W 7779   5.021   8.869  10.106  0.1295 -0.0362 -0.0469
 3580W        W 7780   7.064   3.810   2.648 -0.2945 -0.3887 -0.0308
 3581W        W 7781   7.550   6.465   1.568  0.1067 -0.2213  0.0072
 3582W        W 7782  10.012   6.076   2.204 -0.3066 -0.3079 -0.0681
 3583W        W 7783   2.640   9.766   0.566  0.3538  0.1062  0.1080
 3584W        W 7784   9.636   7.765  13.233  0.4215 -0.0354 -0.1541
 3585W        W 7785   2.891   3.955   4.278 -0.2850  0.0550 -0.1122
 3586W        W 7786   0.196   1.393  12.571  0.0883 -0.1327 -0.0995
 3587W        W 7787   4.192  10.047   2.123 -0.2275  0.2325 -0.2348
 3588W        W 7788   5.279   0.189  13.246  0.4074  0.0081 -0.1425
 3589W        W 7789   3.573   8.583   3.640  0.0019 -0.1776  0.1553
 3590W        W 7790   9.397   0.058   3.195  0.0688 -0.0949  0.3967
 3591W        W 7791   8.596   7.008   8.383  0.0821 -0.0247 -0.1557
 3592W        W 7792   7.274   4.726   9.929  0.1155  0.0755  0.1574
 3593W        W 7793   6.262   2.160  11.800 -0.0451  0.1346  0.0525
 3594W        W 7794   6.015   8.490  12.172  0.1871 -0.0130  0.2540
 3595W        W 7795   9.870   2.795  11.732 -0.1489  0.0169  0.1910
 3596W        W 7796   0.692   9.191   3.210 -0.0744  0.0514  0.0032
 3597W        W 7797   0.809   9.294   4.374 -0.1658  0.0237  0.3527
 3598W        W 7798   7.354   4.093   4.250 -0.1680  0.0071 -0.0236
 3599W        W 7799   3.280   9.666   1.707 -0.1456  0.1684  0.1099
 3600W        W 7800   6.770  10.247   0.058  0.0549 -0.1149  0.0434
 3601W        W 7801   7.793  10.458   1.829 -0.2145  0.0347  0.2357
 3602W        W 7802   6.084   4.472   3.932  0.0412 -0.0782 -0.1627
 3603W        W 7803   8.115   3.373   2.474  0.3804 -0.3422 -0.0837
 3604W        W 7804   5.729   5.876  12.873  0.2015 -0.2242  0.2090
 3605W        W 7805   3.599   4.530  11.211  0.2199  0.0497  0.3085
 3606W        W 7806  10.360   9.872   4.173  0.0277 -0.3251  0.0911
 3607W        W 7807   6.018  10.312   0.808 -0.0067 -0.2523  0.2334
 3608W        W 7808   8.916   9.707  12.818  0.0697  0.2711  0.2348
 3609W        W 7809   1.750   5.818   3.755  0.0313 -0.1799  0.1999
 3610W        W 7810   6.437   3.472   1.376  0.0469  0.0078  0.0818
 3611W        W 7811   7.935   4.286   1.531  0.3551  0.1284  0.0122
 3612W        W 7812   3.359   5.529   2.983  0.0292 -0.0198  0.1436
 3613W        W 7813   5.151   3.494   9.107 -0.0155  0.4108 -0.1099
 3614W        W 7814   9.828   3.707   4.093  0.0160 -0.3453 -0.2947
 3615W        W 7815   2.173   7.776   0.654  0.0773 -0.0270  0.0394
 3616W        W 7816   0.721   4.482   0.207  0.2422  0.0544 -0.0428
 3617W        W 7817   9.821   1.359   9.276  0.1592 -0.0250 -0.1804
 3618W        W 7818   9.733   2.790   0.371  0.2155  0.0252 -0.1759
 3619W        W 7819   2.851   4.759   9.935 -0.0636 -0.0612 -0.2682
 3620W        W 7820   0.363   5.989  13.169 -0.2609 -0.0764 -0.0052
 3621W        W 7821   6.416   8.727   0.769 -0.1592 -0.0663  0.1862
 3622W        W 7822   7.299   2.897  13.242  0.2602 -0.3721 -0.0708
 3623W        W 7823   4.993   1.476  11.913  0.1240 -0.0906  0.1328
 3624W        W 7824   5.453   5.910   3.992 -0.1439 -0.1178 -0.0368
 3625W        W 7825   9.956   7.646  10.445  0.0223  0.2739 -0.1565
 3626W        W 7826   2.456   9.903   3.483 -0.1205  0.0548  0.2280
 3627W        W 7827   2.496   6.816   1.712  0.1018 -0.3540 -0.0211
 3628W        W 7828   6.455   9.695  12.002  0.0054 -0.1104  0.1913
 3629W        W 7829   0.195   9.695   2.122 -0.1674  0.2076 -0.2133
 3630W        W 7830   8.107   2.716  12.130 -0.3090  0.4972  0.1410
 3631W        W 7831   3.265   6.309  10.709  0.2416 -0.2871  0.0482
 3632W        W 7832   3.643   3.047  12.110  0.0318 -0.1031  0.1446
 3633W        W 7833   7.691   2.285  10.339  0.3051  0.1263 -0.2038
 3634W        W 7834   6.760   3.914  10.486 -0.1169  0.0118  0.2109
 3635W        W 7835   8.969   9.153  11.157 -0.2507  0.0647  0.1381
 3636W        W 7836   0.571  10.071   0.038  0.2163  0.1955 -0.1473
 3637W        W 7837   6.895   5.566  11.522  0.2622 -0.1030  0.1315
 3638W        W 7838   5.229   9.348   0.959  0.1667  0.2536  0.3882
 3639W        W 7839   4.035   4.636   0.104  0.2043 -0.2371  0.0656
 3640W        W 7840   2.319   5.893   2.238  0.2934  0.2293  0.2974
 3641W        W 7841   8.464   5.553  11.874 -0.3419  0.0412 -0.1252
 3642W        W 7842   6.683  10.484  11.526 -0.2159  0.3262 -0.2209
 3643W        W 7843   5.091   2.224  11.309  0.2125 -0.0920 -0.3099
 3644W        W 7844   0.030   5.534   9.759  0.2027  0.1069 -0.0542
 3645W        W 7845   3.357   6.710   1.527  0.2019 -0.0140  0.3361
 3646W        W 7846   2.030   0.719  10.306 -0.1714 -0.0597  0.0165
 3647W        W 7847  10.520   8.918   0.514  0.0058  0.0836  0.4616
 3648W        W 7848  10.183   4.620   9.295 -0.2047  0.0780 -0.2499
 3649W        W 7849   8.155   3.647  10.391  0.3831  0.2515  0.1349
 3650W        W 7850   1.759   0.697   3.409  0.0593  0.0045  0.2089
 3651W        W 7851   3.216   1.502   3.064  0.0017 -0.0549 -0.2465
 3652W        W 7852  10.533   4.238   3.355  0.2182  0.0117  0.0835
 3653W        W 7853   1.609   0.171   3.517  0.1790 -0.2371  0.1835
 3654W        W 7854   5.275   0.683  11.153  0.2961 -0.3999  0.0287
 3655W        W 7855   3.710   7.738  13.054 -0.1077  0.1240 -0.0859
 3656W        W 7856   6.000   7.474   8.797 -0.0099 -0.1443 -0.1065
 3657W        W 7857  10.377  10.451   9.851  0.1953  0.1931  0.4387
 3658W        W 7858   2.644   7.325   2.236 -0.0090 -0.0302 -0.2299
 3659W        W 7859   3.951  10.516   1.362  0.0464 -0.1866 -0.1288
 3660W        W 7860   8.749   6.027   1.343  0.1508  0.4822  0.3743
 3661W        W 7861   5.905   5.840   8.046  0.0067  0.1604  0.0148
 3662W        W 7862   2.246   7.004   2.119  0.0258 -0.0241 -0.5233
 3663W        W 7863  10.306   6.322  11.098 -0.1996  0.1283  0.0649
 3664W        W 7864   9.168   0.310  10.394  0.0809  0.2182 -0.1676
 3665W        W 7865   6.182   8.622   9.248 -0.0507 -0.3299  0.2209
 3666W        W 7866   7.775   2.930   9.650  0.2374  0.0348  0.1160
 3667W        W 7867   9.299   7.142   2.635  0.1137  0.4002  0.0028
 3668W        W 7868   0.378   2.862   8.406  0.0716  0.2631 -0.0405
 3669W        W 7869   1.982   1.117  10.023 -0.1888 -0.0524 -0.1825
 3670W        W 7870   7.042   5.243  13.113 -0.1346  0.1610 -0.2081
 3671W        W 7871   6.035   0.171  12.927 -0.0653 -0.0814  0.0069
 3672W        W 7872   2.103   2.288   9.316  0.1286  0.0877 -0.0076
 3673W        W 7873   5.150   9.067  12.900 -0.0582  0.3391 -0.1920
 3674W        W 7874   8.675   2.278  11.452  0.3535  0.1957  0.0810
 3675W        W 7875   2.354   5.831   0.047 -0.1037  0.1366 -0.0791
 3676W        W 7876   5.349   5.568  12.840  0.1424  0.1422 -0.2898
 3677W        W 7877   9.637   5.470   4.731 -0.3154 -0.1466  0.0214
 3678W        W 7878   6.132   3.974   2.371 -0.3238 -0.1908  0.1286
 3679W        W 7879   4.840   8.477   3.918  0.0034  0.1545 -0.0756
 3680W        W 7880   9.726   2.119   2.621 -0.0959  0.1208 -0.2515
 3681W        W 7881  10.097   6.185   0.509 -0.2364  0.1109 -0.1555
 3682W        W 7882   4.266   7.814   0.877 -0.0317 -0.1562  0.0009
 3683W        W 7883   1.023   1.060  10.028  0.0249  0.0806  0.0816
 3684W        W 7884   5.447   1.769  11.131 -0.3572 -0.0278 -0.0688
 3685W        W 7885   8.084   4.254   8.721 -0.1787 -0.0593 -0.0855
 3686W        W 7886   0.159   0.493  12.384 -0.3114 -0.1032  0.0498
 3687W        W 7887   5.130   3.995   2.806 -0.0537 -0.1534 -0.0894
 3688W        W 7888   0.640   0.399  12.216  0.1373 -0.0649 -0.1588
 3689W        W 7889   8.989   6.918   0.081  0.0962 -0.0676 -0.1319
 3690W        W 7890   3.863   2.540  11.281  0.3476 -0.2906 -0.1495
 3691W        W 7891   7.700   1.076   9.725  0.0299  0.0057 -0.3975
 3692W        W 7892   4.279   2.109   0.452 -0.2244  0.0575  0.0016
 3693W        W 7893   7.700   7.429   1.753  0.1362  0.0924 -0.3911
 3694W        W 7894   6.412   8.589   8.447  0.0929 -0.0102  0.3144
 3695W        W 7895   6.171   1.721   9.747  0.0759 -0.1974 -0.0505
 3696W        W 7896   2.393   4.776   9.699 -0.0782  0.0958  0.1791
 3697W        W 7897   1.530   7.429  13.071  0.1617  0.0603 -0.0723
 3698W        W 7898   2.494   3.520   8.849  0.1566  0.2167  0.1106
 3699W        W 7899   8.744   8.668   8.451  0.2496  0.0465 -0.1184
 3700W        W 7900   8.151   4.018  10.780 -0.2527  0.0067 -0.0570
 3701W        W 7901   4.515   5.588   0.150 -0.0001 -0.3942 -0.0949
 3702W        W 7902   3.132   1.943  13.133 -0.2614  0.2642 -0.2584
 3703W        W 7903   7.985   9.273   3.263 -0.0874 -0.0784 -0.3142
 3704W        W 7904   3.296   5.078  12.421 -0.0837 -0.1123 -0.1086
 3705W        W 7905   9.212   1.807   4.259 -0.1748 -0.2968  0.2034
 3706W        W 7906   8.896   5.230   9.674 -0.0410  0.0091  0.0998
 3707W        W 7907   5.269   2.502  11.736  0.0163  0.1588 -0.1816
 3708W        W 7908   7.566   6.051   9.972 -0.3331 -0.1906 -0.0735
 3709W        W 7909   7.202   1.037   9.757  0.0010 -0.0782 -0.0422
 3710W        W 7910   6.208   9.469   2.498 -0.0144  0.1175  0.3601
 3711W        W 7911  10.259   9.630  10.930  0.0874 -0.0206  0.0143
 3712W        W 7912   0.218   9.427   1.653 -0.0436  0.2117  0.2239
 3713W        W 7913   8.798  10.051   1.489 -0.2750  0.1461 -0.0892
 3714W        W 7914   6.274   6.293  13.254  0.0228  0.3045  0.2623
 3715W        W 7915   5.158   4.866   4.895 -0.1418 -0.0565  0.2163
 3716W        W 7916   4.229   2.797  11.570 -0.3242 -0.0437  0.0121
 3717W        W 7917   2.186   3.664   2.970 -0.2169  0.0539 -0.0802
 3718W        W 7918   6.825   6.883   0.463  0.1898  0.0960 -0.0136
 3719W        W 7919   3.482   7.553   3.278  0.1606  0.3151 -0.1262
 3720W        W 7920   9.707   2.641   9.454  0.1173  0.1975  0.0143
 3721W        W 7921   7.944   5.587   1.021 -0.1044  0.2470 -0.0675
 3722W        W 7922   7.258   2.090  10.232  0.0780  0.5122  0.0688
 3723W        W 7923   8.810   2.442  10.356  0.1761 -0.0219 -0.3766
 3724W        W 7924   3.374   2.027   9.418  0.0422  0.4516 -0.0953
 3725W        W 7925   6.174   1.510   1.137 -0.0556 -0.4288  0.1159
 3726W        W 7926   9.761   8.536   0.688  0.1271  0.3478  0.0978
 3727W        W 7927   4.285   0.246   0.153 -0.0265 -0.3422 -0.3989
 3728W        W 7928   7.687   7.531   9.717  0.0974  0.0983 -0.3021
 3729W        W 7929   7.616   4.697   2.278 -0.0812 -0.0955  0.1321
 3730W        W 7930   1.751   8.953   0.633  0.4463 -0.2167  0.1775
 3731W        W 7931   9.401   7.514   9.178  0.1117 -0.2672 -0.1996
 3732W        W 7932   2.950   5.909   1.721 -0.3480 -0.1437 -0.0317
 3733W        W 7933   3.405   8.944  10.918  0.1590  0.0535  0.0128
 3734W        W 7934   8.314   9.304  10.334  0.0072 -0.3283 -0.0856
 3735W        W 7935   6.985   3.010   3.368 -0.0099  0.0418  0.0671
 3736W        W 7936   2.334   4.201  11.624  0.0935 -0.4992  0.0558
 3737W        W 7937   4.163   7.189   1.674  0.0962  0.1648  0.2154
 3738W        W 7938   8.148   7.774   1.547 -0.1489 -0.0668  0.1603
 3739W        W 7939   0.696   4.582   9.994  0.0845 -0.1029  0.0036
 3740W        W 7940   3.680   0.870   7.447  0.0992  0.2302  0.0655
 3741W        W 7941   9.685   0.471  12.326 -0.0293  0.1157 -0.4117
 3742W        W 7942   9.661   0.374  10.789 -0.0994 -0.0656 -0.0936
 3743W        W 7943   0.813   1.586   2.125 -0.1279  0.1641 -0.0773
 3744W        W 7944   3.878   7.277  12.871 -0.1075 -0.0505 -0.1200
 3745W        W 7945   7.230   8.904   0.845  0.1465  0.4735  0.1317
 3746W        W 7946   1.587   3.031   2.707 -0.1806 -0.1079  0.1754
 3747W        W 7947   5.400   4.008  10.370 -0.1474 -0.0267 -0.0223
 3748W        W 7948   3.649   1.984  13.212  0.0297  0.0328  0.0695
 3749W        W 7949   9.026   2.616   1.194 -0.0189  0.1764  0.0317
 3750W        W 7950   2.425  10.364   0.240 -0.0957  0.0128 -0.1860
 3751W        W 7951   3.035   0.271  12.342 -0.0608  0.2349 -0.1540
 3752W        W 7952   3.696   7.666   9.479  0.1113 -0.4144  0.0283
 3753W        W 7953   4.484   7.582  11.155 -0.0172 -0.0607 -0.0140
 3754W        W 7954   5.217   9.143   2.418  0.0455  0.1482  0.1743
 3755W        W 7955   8.484  10.026   4.340 -0.1974 -0.0645 -0.2361
 3756W        W 7956   8.166   6.347   4.482  0.2311  0.0292 -0.2123
 3757W        W 7957   9.947   4.322   1.277 -0.0847  0.1641 -0.0252
 3758W        W 7958   2.440   4.968   9.020 -0.0373  0.1647  0.3771
 3759W        W 7959  10.229   2.321   8.288  0.1324  0.0718  0.2261
 3760W        W 7960   9.454  10.008  10.207  0.1763 -0.2153  0.3600
 3761W        W 7961   7.194   4.715   9.365  0.2446  0.0812 -0.0580
 3762W        W 7962   5.386   6.703   2.275  0.2389 -0.3871  0.0584
 3763W        W 7963   3.440   8.796  11.381 -0.0644 -0.3181 -0.0030
 3764W        W 7964   5.827   6.455   9.749 -0.1689 -0.4351  0.1682
 3765W        W 7965   2.808   6.778  11.155  0.0437 -0.0849  0.0010
 3766W        W 7966   2.115   9.515  11.161 -0.1078 -0.0669  0.2108
 3767W        W 7967   3.796   2.565   3.084  0.1172 -0.1802  0.0887
 3768W        W 7968   5.393   1.153   7.823  0.0013 -0.3094 -0.1171
 3769W        W 7969   3.826   8.483   9.637 -0.0618  0.0324  0.1680
 3770W        W 7970   2.314  10.444   1.100 -0.2613  0.0803  0.0842
 3771W        W 7971   7.964   7.244  12.400 -0.1048 -0.2048 -0.0404
 3772W        W 7972   0.773   1.851  12.018  0.2915  0.2624 -0.2930
 3773W        W 7973   7.776   0.075   9.774  0.0684 -0.2382  0.2130
 3774W        W 7974   4.033   0.856   2.601  0.0213 -0.1229  0.0516
 3775W        W 7975   9.821   5.003   4.948 -0.0461 -0.0791 -0.4081
 3776W        W 7976   9.008   4.088   9.097 -0.0202 -0.0180 -0.0160
 3777W        W 7977  10.316   4.902  12.667  0.1465  0.1669 -0.0686
 3778W        W 7978   7.436   0.893  10.832 -0.0203 -0.0554  0.1714
 3779W        W 7979   8.845   5.918  11.858  0.0180  0.0021 -0.3504
 3780W        W 7980   4.646   4.685  10.365 -0.0166  0.2449  0.1570
 3781W        W 7981   5.953   4.086  12.827 -0.5393  0.2931 -0.2613
 3782W        W 7982   7.164   8.035   3.122  0.1071  0.3938 -0.1557
 3783W        W 7983   7.623   6.201   8.498  0.2422 -0.1195  0.0843
 3784W        W 7984   0.904   3.345  11.979 -0.2302 -0.2124 -0.1536
 3785W        W 7985   4.555   8.941  10.333 -0.3137 -0.2661 -0.1169
 3786W        W 7986   8.528   0.622   3.843  0.2439  0.0370 -0.0109
 3787W        W 7987   5.510   8.041  12.876 -0.1469  0.0060 -0.5174
 3788W        W 7988   4.393   5.805   3.384  0.0768 -0.2606 -0.0484
 3789W        W 7989   8.880   0.861   4.499 -0.3638  0.1213 -0.3242
 3790W        W 7990   3.033   8.938   2.559 -0.0307  0.2240 -0.1592
 3791W        W 7991   4.858   3.003  13.064 -0.0334 -0.0802  0.0565
 3792W        W 7992   9.195   5.280   1.326 -0.1424 -0.1877 -0.2077
 3793W        W 7993   0.047   5.774   4.611 -0.0016 -0.2009 -0.1717
 3794W        W 7994   0.666   0.368   1.704 -0.1502 -0.0630  0.0987
 3795W        W 7995   6.702   7.111   1.003  0.2325 -0.3301 -0.1515
 3796W        W 7996   4.629   9.302  11.717  0.0693  0.1221 -0.1211
 3797W        W 7997   6.696   6.783   9.587 -0.0732 -0.0830 -0.0971
 3798W        W 7998   6.832   7.804   1.789  0.1516 -0.0975 -0.1780
 3799W        W 7999   1.846   4.345   9.236  0.3023  0.3431 -0.1529
 3800W        W 8000   3.733   3.458   3.580 -0.1698  0.2655  0.0967
 3801W        W 8001   0.760   6.432   0.507 -0.0568 -0.0181 -0.2145
 3802W        W 8002   3.696   8.903   0.687  0.1409 -0.0069 -0.0707
 3803W        W 8003   2.104   4.904   3.657 -0.2105  0.0635  0.1624
 3804W        W 8004   5.136   3.188   1.641  0.1682  0.1001 -0.2815
 3805W        W 8005   7.161   7.348   1.027 -0.2655  0.1818 -0.0771
 3806W        W 8006   3.795   8.212  11.856  0.2588  0.2055  0.1014
 3807W        W 8007   5.049   7.823   4.200 -0.0170 -0.2451 -0.0980
 3808W        W 8008   3.360   1.536   0.381  0.1985 -0.1764 -0.1110
 3809W        W 8009   6.035   0.622   0.787  0.1544 -0.0150  0.2058
 3810W        W 8010   0.855   2.232   1.347 -0.0107 -0.1654  0.3969
 3811W        W 8011   8.214   2.739   3.306  0.2789 -0.0303 -0.0317
 3812W        W 8012   8.539  10.542  11.022 -0.0241 -0.0196  0.0990
 3813W        W 8013   4.788   5.538   4.874 -0.0356 -0.0195 -0.0577
 3814W        W 8014   8.848   9.358   2.522 -0.1419  0.0600 -0.0088
 3815W        W 8015   6.330   6.814  13.003 -0.2526 -0.0729  0.0015
 3816W        W 8016   0.570  10.539   8.885  0.1878 -0.1281 -0.1477
 3817W        W 8017   1.658   3.948   2.404 -0.0272  0.1837  0.0489
 3818W        W 8018   4.111   4.780   9.151 -0.1418  0.0903 -0.0744
 3819W        W 8019   8.245  10.270   1.930 -0.0087 -0.1906 -0.1351
 3820W        W 8020   1.830   2.760   3.064  0.3257 -0.1898  0.0009
 3821W        W 8021   0.402   0.239  11.686 -0.1242  0.1097  0.1029
 3822W        W 8022   1.735   1.524  12.083  0.2550 -0.0452 -0.0223
 3823W        W 8023   1.014   7.109  11.716  0.0700  0.0388 -0.1149
 3824W        W 8024   4.567   8.761  11.870 -0.0019  0.5520  0.0496
 3825W        W 8025   9.705   0.914   9.521  0.1937 -0.1345  0.1021
 3826W        W 8026   8.520   1.443   0.832 -0.2134 -0.1151 -0.0846
 3827W        W 8027   7.864   0.624   3.729  0.2489 -0.0205  0.3491
 3828W        W 8028   8.356   5.454   4.109  0.2301 -0.1487 -0.0360
 3829W        W 8029   3.584   0.510  11.550  0.0277 -0.2950  0.0765
 3830W        W 8030   3.710   7.912   0.258  0.3310 -0.2860 -0.0051
 3831W        W 8031   2.650   1.041   1.312  0.0742 -0.0396 -0.7836
 3832W        W 8032  10.085   9.735   8.657  0.1382  0.0054 -0.0277
 3833W        W 8033   4.142   7.536   0.467  0.0159 -0.1252  0.0944
 3834W        W 8034   4.060  10.312   0.252 -0.0506  0.0838 -0.3936
 3835W        W 8035  10.074   6.462   9.659 -0.0455  0.5574  0.2137
 3836W        W 8036   7.308   6.557  10.918  0.1635 -0.0419 -0.3381
 3837W        W 8037   1.958   5.529  11.732  0.0694 -0.1037  0.1029
 3838W        W 8038   5.696   0.456   2.873  0.1743 -0.0589  0.0860
 3839W        W 8039   8.610   2.824  11.858 -0.1677 -0.2349  0.4337
 3840W        W 8040   1.025   6.105   3.257  0.0272  0.0766  0.0813
 3841W        W 8041  10.109   9.476   1.334  0.1851  0.1263  0.1707
 3842W        W 8042   2.225   1.288   2.886 -0.2361  0.0571 -0.1534
 3843W        W 8043   1.661   3.305   1.766  0.1302 -0.0489  0.1311
 3844W        W 8044   4.404   6.647   4.242 -0.0164  0.0897 -0.0044
 3845W        W 8045   1.575   4.643   3.761  0.2702  0.0953 -0.1897
 3846W        W 8046   6.320   2.577  11.543  0.0381  0.0257  0.1270
 3847W        W 8047   1.840   6.307  11.108 -0.0425  0.3103  0.2049
 3848W        W 8048   9.455   9.446   9.493  0.0344  0.5012 -0.1481
 3849W        W 8049   0.279   4.551   2.320 -0.1564  0.0309  0.1026
 3850W        W 8050   6.698   2.130  12.973  0.1929 -0.1269  0.1427
 3851W        W 8051   5.723   4.908  12.752 -0.2338 -0.2532 -0.1325
 3852W        W 8052   4.797   8.354  11.641 -0.2367 -0.0187 -0.1199
 3853W        W 8053   2.208   0.631  12.448  0.1927 -0.0796  0.0460
 3854W        W 8054   1.942   6.383   9.883  0.2864 -0.0481 -0.0334
 3855W        W 8055   8.437   7.376   3.105 -0.1760  0.0104  0.1481
 3856W        W 8056   4.179   7.457   9.493 -0.1868  0.0027 -0.2850
 3857W        W 8057   6.415   6.998  10.730 -0.1820 -0.1597  0.1870
 3858W        W 8058   7.774   9.452  13.155  0.2312  0.1652  0.0657
 3859W        W 8059   4.997   7.380   4.529 -0.2187 -0.1435 -0.0274
 3860W        W 8060   9.069   2.767  10.936 -0.1307 -0.0754 -0.0072
 3861W        W 8061   6.779   5.162  12.257  0.0385 -0.0616  0.2163
 3862W        W 8062   7.232   5.501  12.286  0.1626  0.0677 -0.0108
 3863W        W 8063   8.583   5.622   2.769 -0.1582  0.0342 -0.1683
 3864W        W 8064   3.163   0.847   2.371 -0.2065 -0.0557  0.1942
 3865W        W 8065   0.527   5.105   9.129 -0.0821  0.0637  0.1438
 3866W        W 8066   7.445   5.581   8.823  0.0436  0.0564 -0.3086
 3867W        W 8067   3.426   2.175   0.335  0.0669 -0.0677 -0.0359
 3868W        W 8068   0.409   1.697   3.776 -0.1273 -0.0517  0.1534
 3869W        W 8069   9.970   7.616  11.502 -0.2131  0.1410 -0.0675
 3870W        W 8070   6.100   8.259   3.205  0.2858  0.0252 -0.0605
 3871W        W 8071   1.110   2.639  12.457 -0.0319  0.2605 -0.0090
 3872W        W 8072   5.407   5.561   1.406 -0.0332  0.3775 -0.2246
 3873W        W 8073   5.492  10.313  11.078  0.2786 -0.1674  0.0455
 3874W        W 8074   0.696   7.929  12.877  0.1508 -0.2403 -0.0982
 3875W        W 8075   2.438   7.951   1.077  0.2464 -0.2134 -0.0845
 3876W        W 8076   9.317   6.663  10.507  0.1395  0.1395 -0.5339
 3877W        W 8077   3.153   4.773   1.052 -0.0644  0.0743 -0.1641
 3878W        W 8078   9.814   1.824   4.657 -0.2946 -0.0396  0.1841
 3879W        W 8079   0.005   6.667  11.319 -0.1258 -0.1017  0.2177
 3880W        W 8080   2.465   3.593   4.237  0.0379  0.2316  0.2527
 3881W        W 8081   2.011  10.026   1.363 -0.1641  0.3486 -0.0620
 3882W        W 8082   1.612   1.273   1.011 -0.2238  0.0463  0.0263
 3883W        W 8083   2.528   2.955   1.433  0.2092  0.0736 -0.2110
 3884W        W 8084   3.875   3.904  11.813  0.1232  0.0492  0.3631
 3885W        W 8085   9.644   2.564  10.635 -0.4130 -0.3337  0.1397
 3886W        W 8086   7.742   4.532   2.966 -0.1954  0.1877  0.1510
 3887W        W 8087  10.387   2.007   1.941  0.3137 -0.2371 -0.0427
 3888W        W 8088   4.124   7.366  10.080  0.0535 -0.3111  0.4848
 3889W        W 8089   3.283   4.833   2.213  0.1866  0.2246  0.2548
 3890W        W 8090   7.563  10.182   0.948 -0.0730  0.0713  0.0629
 3891W        W 8091   0.346   9.100  10.619  0.0037 -0.2572 -0.0069
 3892W        W 8092   9.070  10.014  11.061  0.2597  0.0681  0.0892
 3893W        W 8093   7.561   2.328   2.866 -0.1664  0.0074 -0.3788
 3894W        W 8094   1.658   6.348   2.656 -0.3115 -0.1927  0.4836
 3895W        W 8095   3.601   4.587  12.450 -0.3128 -0.0297  0.1087
 3896W        W 8096   6.650  10.521   3.201 -0.0968 -0.0713 -0.3571
 3897W        W 8097   6.385   4.042  12.026  0.2114 -0.0774  0.1802
 3898W        W 8098   0.609   4.242   3.868  0.0944  0.0319  0.1438
 3899W        W 8099   8.367   6.965   2.213 -0.0031 -0.0383  0.0889
 3900W        W 8100   8.825   6.170   1.885 -0.2956  0.1080 -0.0811
 3901W        W 8101   7.284   8.167   3.661 -0.0493 -0.1840 -0.5963
 3902W        W 8102   5.595  10.058   2.078 -0.0281 -0.5987 -0.1313
 3903W        W 8103   6.250   2.456   3.245  0.2089 -0.0769  0.0820
 3904W        W 8104  10.452   1.058   0.963  0.2192  0.0074 -0.0899
 3905W        W 8105   7.676   2.994   2.533  0.1599  0.0743 -0.0525
 3906W        W 8106   4.133   2.146  13.231 -0.1537  0.1657  0.0288
 3907W        W 8107   4.538   6.920   8.759 -0.0795  0.4094 -0.2768
 3908W        W 8108   5.709   7.512   0.008 -0.0022  0.0265 -0.1057
 3909W        W 8109   6.287   0.782  12.363 -0.0976 -0.2996  0.1835
 3910W        W 8110   0.145   0.211   9.543 -0.0446  0.1369  0.2699
 3911W        W 8111   1.301   5.133   0.483 -0.2072  0.0576  0.0587
 3912W        W 8112   5.593   5.414   0.380  0.0230  0.2411 -0.0078
 3913W        W 8113   8.110   1.756   3.517  0.3006  0.0274  0.0264
 3914W        W 8114   2.721   0.619  12.074  0.1534 -0.1982 -0.2195
 3915W        W 8115   5.828   3.362   9.486  0.1477 -0.1003  0.2269
 3916W        W 8116   0.315   9.353   4.716  0.0401  0.1667  0.1036
 3917W        W 8117   1.986  10.231  10.190  0.3090 -0.0490  0.0933
 3918W        W 8118   1.607   9.849   0.872 -0.1082 -0.0584  0.0337
 3919W        W 8119   6.639  10.531  12.231  0.3795 -0.2198  0.3183
 3920W        W 8120   6.545   1.629   2.688  0.0647  0.1551 -0.0601
 3921W        W 8121   1.109   3.085  11.513 -0.0155  0.0013 -0.0228
 3922W        W 8122   4.578   8.340  10.974 -0.1614 -0.0462  0.1110
 3923W        W 8123  10.496   5.894  12.522 -0.2026 -0.1717 -0.0284
 3924W        W 8124   9.088   9.220   4.511  0.0006  0.1217 -0.2993
 3925W        W 8125   1.924   4.936  13.079  0.2125 -0.2730 -0.0836
 3926W        W 8126   8.009   0.335   4.594  0.0395 -0.2227 -0.0424
 3927W        W 8127   7.415   4.865   2.694  0.3083 -0.3183 -0.0576
 3928W        W 8128   7.060   5.921  12.487 -0.2266  0.0187  0.2806
 3929W        W 8129   9.349   9.932   2.552 -0.1577 -0.0284 -0.0555
 3930W        W 8130   7.261   2.979   9.956  0.1599  0.0705 -0.2495
 3931W        W 8131   6.860   5.567   9.645 -0.2924 -0.1603 -0.1301
 3932W        W 8132   6.117   7.109   2.930 -0.0783  0.1871  0.0689
 3933W        W 8133   9.494  10.222   4.786  0.2451  0.0295  0.1423
 3934W        W 8134   6.090   7.520  10.576  0.0508 -0.0300 -0.4615
 3935W        W 8135   2.989   6.171  12.836 -0.0191  0.1032  0.0412
 3936W        W 8136   5.546   6.495  11.866  0.1214 -0.0212 -0.0512
 3937W        W 8137  10.484   1.573  11.600 -0.1179 -0.0162  0.0675
 3938W        W 8138   8.481   8.421  11.496  0.0595 -0.3222  0.0677
 3939W        W 8139   7.116   5.803   2.868  0.1758  0.3211 -0.0092
 3940W        W 8140   3.957   9.261  10.904  0.3665  0.1790 -0.0692
 3941W        W 8141   2.490   0.091  13.071 -0.1392 -0.0070 -0.0844
 3942W        W 8142   2.858  10.346  12.653  0.1015 -0.1492  0.5247
 3943W        W 8143   2.839   0.607   2.618  0.1692 -0.0691 -0.0386
 3944W        W 8144   9.430  10.333  10.597 -0.0101  0.0569  0.0054
 3945W        W 8145   9.629   5.326  10.423  0.0916 -0.1177  0.4882
 3946W        W 8146   9.146   4.471  11.279  0.3842  0.0547 -0.0175
 3947W        W 8147   5.931   5.115  10.670 -0.2433 -0.2938  0.4469
 3948W        W 8148   4.165   3.647  12.758  0.2211  0.3485 -0.1243
 3949W        W 8149  10.539   5.786  11.126  0.1139  0.1106  0.1175
 3950W        W 8150   5.695   9.247   2.445  0.4248  0.0859 -0.4567
 3951W        W 8151   3.846   5.621   8.645 -0.0852 -0.2573  0.1129
 3952W        W 8152   7.849   6.785   3.404 -0.0395  0.1083  0.2739
 3953W        W 8153   4.684   2.411   2.040  0.2169 -0.1653 -0.3269
 3954W        W 8154   5.354   7.624  11.935 -0.0873 -0.1660  0.0198
 3955W        W 8155   4.141   3.542  10.978  0.1761 -0.0963  0.3126
 3956W        W 8156   0.453   5.394  11.920  0.0234  0.1123 -0.0039
 3957W        W 8157   5.454  10.071   3.006  0.1504 -0.2300 -0.1872
 3958W        W 8158   4.963   5.936   0.290 -0.1852  0.1507 -0.1308
 3959W        W 8159   7.688   4.013  12.711 -0.1134  0.2738  0.2410
 3960W        W 8160   9.332   1.131  11.380  0.3242 -0.0940  0.2084
 3961W        W 8161   8.590   3.763  12.680  0.0608  0.0490 -0.1528
 3962W        W 8162   5.103   8.582  12.640  0.3501  0.3731 -0.0524
 3963W        W 8163   4.604   3.404  12.869 -0.1358 -0.1539  0.1903
 3964W        W 8164   0.469   0.163  12.663 -0.0107  0.0578  0.2078
 3965W        W 8165   2.852   2.630  12.532  0.0335  0.0837  0.0088
 3966W        W 8166   9.788   1.883  12.318 -0.0893  0.1423 -0.1103
 3967W        W 8167   7.683   2.850   4.089  0.1524  0.0005  0.3211
 3968W        W 8168   2.225   9.929   2.398  0.0596  0.1602 -0.1147
 3969W        W 8169   6.766   3.563   9.553 -0.2650  0.1290  0.1877
 3970W        W 8170   9.710   7.246   3.915 -0.0635  0.0491  0.2133
 3971W        W 8171   8.885   6.857   4.895  0.2329 -0.0565 -0.3618
 3972W        W 8172   8.606   2.924   2.680  0.0627  0.0761  0.0353
 3973W        W 8173   8.567   9.478  11.975 -0.3075  0.2675 -0.0340
 3974W        W 8174   5.563   1.587   3.358  0.0834  0.0893  0.2826
 3975W        W 8175   9.947  10.427   3.540  0.0524  0.2178 -0.1625
 3976W        W 8176   0.281   5.051   8.625 -0.0862 -0.2030 -0.1193
 3977W        W 8177   8.872  10.262   0.360 -0.0173 -0.0359  0.0104
 3978W        W 8178   4.685   9.966   1.291  0.4009 -0.1507  0.0949
 3979W        W 8179   2.507   3.581  10.901 -0.1270 -0.2113  0.1249
 3980W        W 8180   3.191   3.187   1.996 -0.0929 -0.2112 -0.0217
 3981W        W 8181   8.144   1.886   0.830  0.0968  0.0009  0.4736
 3982W        W 8182   5.563   8.545  10.018 -0.2336  0.1065  0.0251
 3983W        W 8183   6.633   1.207   1.776  0.1084 -0.0017  0.1300
 3984W        W 8184   0.384   0.251  10.087 -0.0470 -0.0713  0.0043
 3985W        W 8185   2.176   0.424   1.027 -0.0768  0.4266  0.3264
 3986W        W 8186   5.916   2.777  10.441 -0.1006  0.2394  0.2340
 3987W        W 8187   1.856   9.308  10.353  0.1013  0.0080  0.1850
 3988W        W 8188   4.219   7.832   1.770  0.4163 -0.0334  0.2854
 3989W        W 8189   1.144   9.025   2.584  0.2581 -0.2407  0.2384
 3990W        W 8190   1.026   3.757  10.167 -0.1756 -0.1747  0.0215
 3991W        W 8191   5.910   4.017  12.368 -0.2061 -0.1451 -0.1640
 3992W        W 8192   7.395   9.028   1.702 -0.1037  0.0578  0.0442
 3993W        W 8193  10.014   8.849   9.708 -0.0306  0.1145  0.2501
 3994W        W 8194   2.111   2.417  10.767  0.0239  0.2312  0.2402
 3995W        W 8195   5.318   2.644  11.054  0.0410  0.2690 -0.2349
 3996W        W 8196   3.461   9.760  12.195 -0.0288 -0.2947  0.1722
 3997W        W 8197   0.244   4.956   3.771  0.2355 -0.1131 -0.0791
 3998W        W 8198   8.860   8.803   9.597 -0.3093 -0.1859  0.0803
 3999W        W 8199   6.060   4.351   2.677  0.2423  0.3306 -0.1171
 4000W        W 8200  10.383   7.368   8.714  0.1394 -0.3065 -0.1238
 4001W        W 8201   1.394   1.710   3.089 -0.2636 -0.1341  0.3869
 4002W        W 8202   0.405   0.081   0.787 -0.0034 -0.1768 -0.0997
 4003W        W 8203   7.309   6.052   3.274 -0.0687 -0.4820 -0.0321
 4004W        W 8204   0.697   6.031   8.542  0.0831  0.1660 -0.0820
 4005W        W 8205   0.981   5.610  11.090 -0.1585 -0.0257  0.1063
 4006W        W 8206   4.989   3.545  12.233  0.1728 -0.3809  0.3833
 4007W        W 8207   6.330   1.757  12.119  0.2078 -0.1646  0.0935
 4008W        W 8208   5.121   7.333   0.253 -0.3612 -0.0083  0.2975
 4009W        W 8209   4.463   2.448  12.307 -0.0781 -0.1714 -0.2948
 4010W        W 8210   3.744   9.014   9.719 -0.0788 -0.0612 -0.1420
 4011W        W 8211   4.132   5.091   9.626 -0.1790 -0.0448  0.2931
 4012W        W 8212   9.865   6.016  12.818 -0.0323  0.0256 -0.0119
 4013W        W 8213   5.099  10.467  11.865  0.0175 -0.1138  0.0141
 4014W        W 8214   3.178   7.934   3.398 -0.1141 -0.1322  0.0764
 4015W        W 8215   0.641   0.190   2.721  0.1349  0.0760 -0.0715
 4016W        W 8216   1.252   4.552   4.228 -0.1174  0.0155 -0.0310
 4017W        W 8217   7.877   5.521  12.691 -0.2636  0.1740  0.2080
 4018W        W 8218   2.063   6.601   2.896  0.1799  0.2766  0.3652
 4019W        W 8219   6.632   2.238   9.852 -0.0624  0.0744 -0.1278
 4020W        W 8220   1.473   4.447  10.525  0.1940 -0.0793  0.0567
 4021W        W 8221   2.580   9.922   1.146  0.0563 -0.1109 -0.0186
 4022W        W 8222   4.712   0.989  10.426  0.0886  0.1739 -0.0858
 4023W        W 8223   8.681   4.670   2.893  0.2712 -0.0695 -0.0316
 4024W        W 8224   2.702   7.778   3.504 -0.1897 -0.0450 -0.0226
 4025W        W 8225   9.717   6.472  12.859  0.0150  0.3603 -0.3445
 4026W        W 8226   9.549   1.219   4.815  0.3292  0.1191 -0.1639
 4027W        W 8227   3.512   2.144   2.103  0.0004  0.4358  0.1819
 4028W        W 8228   4.005   3.533   2.332 -0.3958  0.0720  0.0221
 4029W        W 8229   2.383   9.054   8.183  0.0454  0.1001  0.1310
 4030W        W 8230   6.262   3.143  10.381 -0.0354 -0.1739 -0.0199
 4031W        W 8231   1.073   3.368   2.618 -0.0411  0.0883  0.1598
 4032W        W 8232   6.970   0.744   0.251 -0.2625  0.0464  0.3167
 4033W        W 8233   7.280   3.253  11.459  0.1553 -0.0536  0.0003
 4034W        W 8234   7.855   2.792   3.630  0.0279 -0.4077 -0.0841
 4035W        W 8235   2.677   6.564  13.015  0.0314 -0.0151 -0.1326
 4036W        W 8236   3.669   4.728  10.577 -0.1291  0.3598  0.4844
 4037W        W 8237   7.602   5.039   9.426  0.4404 -0.2955  0.2180
 4038W        W 8238   0.777   7.075   1.382  0.1659 -0.1803 -0.1251
 4039W        W 8239   1.852   3.670   1.063 -0.0226 -0.3170 -0.0666
 4040W        W 8240   9.367   4.931  11.451  0.3033  0.1045 -0.5321
 4041W        W 8241   0.450   8.839   9.306  0.1326  0.1094  0.0944
 4042W        W 8242   4.433   0.150  11.130  0.0083  0.2499 -0.1511
 4043W        W 8243   6.988   8.141   2.662  0.0078 -0.0458 -0.0161
 4044W        W 8244   2.409   4.039   8.814 -0.0300 -0.2451 -0.0739
 4045W        W 8245   8.264   1.018  12.115  0.0413 -0.0295 -0.2713
 4046W        W 8246   5.096   7.063   3.665 -0.0081  0.2248 -0.0274
 4047W        W 8247   3.833   2.858  12.649 -0.0198 -0.3420  0.1176
 4048W        W 8248   3.235   7.063   3.456 -0.0161 -0.1131  0.0236
 4049W        W 8249   7.355   2.395   0.163  0.0645  0.2982 -0.1376
 4050W        W 8250   1.610   7.767   9.776  0.1118 -0.2345  0.1006
 4051W        W 8251   3.169   5.193   3.933  0.1656  0.1438 -0.1138
 4052W        W 8252  10.386  10.242   8.689  0.1550 -0.1729  0.1489
 4053W        W 8253   3.934   9.764   1.370  0.0819  0.0626 -0.1583
 4054W        W 8254   6.824   5.459  12.668 -0.3683 -0.1182  0.1054
 4055W        W 8255   8.492   8.926   3.254 -0.0295 -0.3566 -0.1982
 4056W        W 8256   7.731   0.720   1.829 -0.4558 -0.2410 -0.0172
 4057W        W 8257   8.913   0.014   0.913  0.2320 -0.1392 -0.2050
 4058W        W 8258   4.533   3.985   1.527  0.1672 -0.2713  0.5016
 4059W        W 8259  10.512   8.105  11.372 -0.0958  0.2838 -0.0290
 4060W        W 8260   8.553   7.016   0.457 -0.3162 -0.0792  0.1128
 4061W        W 8261   8.742   5.856   4.000  0.1202  0.0418 -0.1418
 4062W        W 8262   2.576   2.573   0.053 -0.2149  0.1707  0.1573
 4063W        W 8263   6.450   7.253   8.933  0.1473  0.0651 -0.0926
 4064W        W 8264   0.456   7.728   9.260 -0.1652 -0.2457  0.0901
 4065W        W 8265   6.773   3.553   0.097 -0.2904 -0.0659 -0.2774
 4066W        W 8266   5.494  10.216   0.778 -0.0123 -0.3391 -0.0263
 4067W        W 8267   3.762   7.149   3.213 -0.1368  0.4664 -0.0062
 4068W        W 8268   8.969   4.398   2.433 -0.0282  0.1061 -0.3536
 4069W        W 8269   0.001   9.376  11.812 -0.0569 -0.0956 -0.0423
 4070W        W 8270   6.091   2.131   0.455 -0.0435 -0.2472  0.4347
 4071W        W 8271   0.732   5.045   9.595  0.2350  0.1324  0.1634
 4072W        W 8272   4.421   9.632   0.495 -0.1643 -0.2585  0.1700
 4073W        W 8273   3.420   5.867   9.556  0.0092  0.4130 -0.2394
 4074W        W 8274   3.051   2.322   3.439 -0.1559  0.0379 -0.1352
 4075W        W 8275   4.733   8.237   3.474 -0.0254  0.2339 -0.1469
 4076W        W 8276   6.684   5.655  10.714 -0.0011 -0.1938  0.2056
 4077W        W 8277   5.207   7.995   3.284 -0.0047  0.1069 -0.0682
 4078W        W 8278   9.453   5.250   4.288 -0.0110  0.0904  0.0204
 4079W        W 8279   8.229   5.206   3.731 -0.3928 -0.0102  0.1198
 4080W        W 8280   1.463   0.010   0.920 -0.1013  0.3055 -0.1173
 4081W        W 8281   6.296   4.019   3.950 -0.2530 -0.0268  0.1571
 4082W        W 8282   8.792   7.796   2.296  0.1924 -0.1780  0.0355
 4083W        W 8283   0.504   1.570   3.045 -0.4015  0.2668 -0.0300
 4084W        W 8284   9.268   2.823   1.552  0.2005 -0.2345 -0.4876
 4085W        W 8285   4.760   8.780   1.873 -0.0390  0.0773  0.0553
 4086W        W 8286   0.941   3.217   9.134  0.1369 -0.1417 -0.1579
 4087W        W 8287   8.624   2.475   0.176 -0.1577  0.0225 -0.0325
 4088W        W 8288   0.563   9.782  10.099 -0.0551 -0.1608  0.3050
 4089W        W 8289  10.199   7.855   3.302  0.0344  0.4944 -0.0751
 4090W        W 8290   5.364   4.195   0.738  0.1306 -0.1166 -0.1738
 4091W        W 8291   2.255   9.617   9.314  0.0636 -0.0209  0.2158
 4092W        W 8292   7.215   6.573   9.999 -0.0932  0.3004 -0.1063
 4093W        W 8293   3.487   8.500   4.142  0.1871  0.1872  0.2755
 4094W        W 8294   8.056   6.443   0.213 -0.0982 -0.2603 -0.3500
 4095W        W 8295   8.167   0.207   3.638  0.3831 -0.2381  0.0778
 4096W        W 8296   6.848   4.276   1.781  0.0827 -0.1268 -0.0288
 4097W        W 8297   9.057   3.299  10.810 -0.2322 -0.1146 -0.0620
 4098W        W 8298   0.180   7.226   3.121  0.1256 -0.1757 -0.0198
 4099W        W 8299   2.254   1.114   2.239  0.0547 -0.1856  0.4224
 4100W        W 8300   1.866   9.213   9.861  0.0867  0.0295 -0.1804
 4101W        W 8301   4.061   3.338   0.275 -0.0411  0.0716 -0.3690
 4102W        W 8302   5.858   1.611   6.673 -0.1630 -0.2489 -0.0047
 4103W        W 8303   4.875   1.810  10.983 -0.0252  0.1957  0.2067
 4104W        W 8304   5.972   5.721   3.799 -0.1917 -0.2489 -0.1319
 4105W        W 8305   9.303   0.173   3.987 -0.1613 -0.0253  0.0932
 4106W        W 8306   2.800   2.105  11.260 -0.0562  0.0378  0.0908
 4107W        W 8307   3.942   0.799   0.730 -0.3262 -0.0185 -0.0382
 4108W        W 8308   8.065   0.240  12.206 -0.0008  0.1099  0.0361
 4109W        W 8309   3.790   8.717   3.113 -0.1719 -0.2371  0.3013
 4110W        W 8310   5.470   7.192   2.339  0.1635  0.0944  0.1134
 4111W        W 8311   9.191   5.030  13.121  0.2789  0.1496 -0.4221
 4112W        W 8312   4.279   0.902   7.968 -0.0523 -0.3536 -0.0183
 4113W        W 8313   4.674   4.022  12.906  0.1934  0.2243 -0.0440
 4114W        W 8314   1.088   3.976  10.607 -0.0096  0.2512 -0.0861
 4115W        W 8315   5.588   4.109   2.750 -0.3483  0.0135  0.3349
 4116W        W 8316   7.095   0.372   1.354  0.0659 -0.1214 -0.1327
 4117W        W 8317   1.802   7.657  11.718 -0.0214 -0.0823  0.0537
 4118W        W 8318   3.523   6.354   1.822 -0.1312 -0.0421 -0.2201
 4119W        W 8319   2.619   4.380   4.242  0.1097  0.0858 -0.0423
 4120W        W 8320   5.927   1.425  12.960  0.1105 -0.2284 -0.0225
 4121W        W 8321   8.168   1.471  11.923 -0.0233  0.1976  0.1318
 4122W        W 8322   7.518   2.516   2.409 -0.1797  0.1441 -0.0411
 4123W        W 8323   5.946   0.218   2.563  0.0436 -0.3796 -0.1225
 4124W        W 8324   5.052   6.698  11.426  0.2817 -0.0230  0.2387
 4125W        W 8325  10.401   3.714   3.399 -0.2728  0.2022  0.0214
 4126W        W 8326   7.083   7.126  12.487  0.0954  0.2841  0.2335
 4127W        W 8327   1.784   1.722   3.451  0.0596  0.1500 -0.3256
 4128W        W 8328   7.340   6.915  10.314  0.1712 -0.0871 -0.2354
 4129W        W 8329   9.176   9.535   0.224 -0.1092 -0.0780  0.0775
 4130W        W 8330   2.696   6.377  10.408 -0.1302  0.0638 -0.0070
 4131W        W 8331   0.464   8.392   9.635 -0.2066 -0.4100  0.1633
 4132W        W 8332   4.406   9.453   1.243  0.1002 -0.2075 -0.1331
 4133W        W 8333   1.009   2.761   1.363 -0.0535 -0.2482  0.0616
 4134W        W 8334   8.114   3.191  10.517  0.2124 -0.0190 -0.2514
 4135W        W 8335   5.844   9.671   0.382  0.0521 -0.0447  0.1516
 4136W        W 8336   0.823   3.583   9.539 -0.1987 -0.1040 -0.1757
 4137W        W 8337   1.116   6.187  12.576  0.0079  0.0230  0.0950
 4138W        W 8338   9.752   1.279   5.477 -0.1254  0.0524  0.2198
 4139W        W 8339   9.401   2.529   8.613 -0.0944  0.2011  0.0199
 4140W        W 8340   4.469   4.626   9.547 -0.1631 -0.0255  0.0440
 4141W        W 8341   2.192   0.723   2.559 -0.0504  0.0696 -0.1036
 4142W        W 8342   7.727   6.900   0.973 -0.1066 -0.0213  0.1810
 4143W        W 8343   7.885   8.499   0.353  0.0943  0.0044  0.2430
 4144W        W 8344   2.644   8.187   2.351  0.0282  0.0522 -0.1842
 4145W        W 8345   5.730   8.021   1.072 -0.2135 -0.0060 -0.3351
 4146W        W 8346   0.227   3.169   0.929  0.1117 -0.0876  0.4342
 4147W        W 8347  10.000   1.803   3.604 -0.0097  0.0766  0.1616
 4148W        W 8348   8.842   7.388  11.492 -0.0706 -0.0303  0.2211
 4149W        W 8349   5.106   1.285  12.971  0.1177 -0.3694 -0.1020
 4150W        W 8350   8.383   3.397   1.421  0.1208  0.2647 -0.1316
 4151W        W 8351   0.468   1.134   0.106  0.0534 -0.3800  0.0612
 4152W        W 8352   1.514   7.859  10.824 -0.1001  0.0679  0.3354
 4153W        W 8353   8.052   6.097  11.525  0.0541  0.2196  0.2699
 4154W        W 8354   6.668   1.725   1.344 -0.2430  0.1128  0.1492
 4155W        W 8355   6.280   8.774  12.566  0.2927  0.0027 -0.1469
 4156W        W 8356   6.249   9.900   9.345  0.1394 -0.2415  0.0027
 4157W        W 8357   8.171   7.563  10.347 -0.2178 -0.0982 -0.1667
 4158W        W 8358   2.505   1.081   0.405  0.0605 -0.3453  0.0782
 4159W        W 8359   3.180   8.066   0.360 -0.3702  0.0492  0.0074
 4160W        W 8360   7.160   7.770   8.874 -0.1703 -0.2984  0.2455
 4161W        W 8361   4.189   1.295   3.420 -0.0498  0.2715  0.0978
 4162W        W 8362   1.773   9.444   1.067 -0.2319  0.4042  0.2097
 4163W        W 8363   2.177   1.700  12.861 -0.0584 -0.3145 -0.0774
 4164W        W 8364   1.132   4.466   5.403 -0.0197  0.2634  0.0364
 4165W        W 8365   4.473   1.742  12.987  0.0130 -0.3005  0.3460
 4166W        W 8366   1.001   4.315  12.524  0.3391 -0.3052  0.2809
 4167W        W 8367   5.199   7.624  11.471  0.0791  0.0687  0.2759
 4168W        W 8368   6.576   2.146  11.385  0.2489  0.0783  0.1927
 4169W        W 8369   0.010   2.870  10.597  0.0801 -0.0546  0.0389
 4170W        W 8370  10.254  10.277   0.692  0.1607  0.1937 -0.1970
 4171W        W 8371   1.589   4.778   0.623 -0.1173  0.0200 -0.1534
 4172W        W 8372   8.537   4.973   4.123 -0.0926  0.1794  0.0425
 4173W        W 8373   6.296   4.273   8.794  0.1919 -0.1015  0.0771
 4174W        W 8374   1.904   6.649  11.625 -0.2819 -0.1514 -0.1141
 4175W        W 8375   2.271   9.134   8.727  0.0864  0.0189 -0.1436
 4176W        W 8376   2.378   6.987   4.633  0.0388  0.0859  0.4202
 4177W        W 8377   3.644   7.115  12.259  0.0317 -0.0090  0.0846
 4178W        W 8378   4.064   6.167  13.002 -0.1588 -0.2097 -0.0981
 4179W        W 8379   8.122   2.389  13.034 -0.0448  0.0692  0.1491
 4180W        W 8380   2.786   0.264   9.849  0.1284 -0.0648  0.0452
 4181W        W 8381   1.482   7.260   0.736  0.2266 -0.0602 -0.1931
 4182W        W 8382   9.357   8.261   0.944 -0.0929 -0.4403 -0.2703
 4183W        W 8383   1.368   7.088   2.206  0.0288  0.1017  0.1754
 4184W        W 8384   4.061   8.273   8.711 -0.0734 -0.0094  0.1494
 4185W        W 8385   1.746   5.644  10.373  0.0628 -0.0502 -0.2625
 4186W        W 8386   2.836   5.828   8.934  0.1366  0.0657  0.0468
 4187W        W 8387   2.233   7.542  12.154  0.4437  0.2291 -0.0523
 4188W        W 8388   5.984   3.253   1.796 -0.3754 -0.2082  0.3975
 4189W        W 8389  10.237   1.496   5.428  0.0025  0.1058 -0.0937
 4190W        W 8390   0.248   6.119  10.618  0.3336 -0.2869  0.2493
 4191W        W 8391  10.516   2.718   2.129 -0.4220 -0.0798 -0.0255
 4192W        W 8392   3.029   3.605  10.996  0.0933  0.1950 -0.3981
 4193W        W 8393   8.228   1.101   1.190 -0.0201  0.1409 -0.2240
 4194W        W 8394   6.333   7.568   9.284  0.0023  0.1098  0.0053
 4195W        W 8395   0.881   0.275  11.756  0.0567 -0.2253 -0.0053
 4196W        W 8396   1.727   6.842   1.914 -0.1702  0.0716  0.1719
 4197W        W 8397   3.143   1.421  11.670  0.1841  0.2647 -0.0494
 4198W        W 8398   8.331   1.009  10.482 -0.1494 -0.0694  0.0613
 4199W        W 8399   8.407   8.984  12.601 -0.0919 -0.0987 -0.0623
 4200W        W 8400   6.968   8.111   4.138  0.0514 -0.1523 -0.5670
 4201W        W 8401   8.302   9.663   3.542  0.0431  0.1706  0.0981
 4202W        W 8402   0.978   7.152   8.611 -0.1103 -0.3336 -0.3450
 4203W        W 8403  10.051   6.587   1.067  0.0786  0.1224 -0.0726
 4204W        W 8404   8.455   3.837  11.564  0.0692  0.4519 -0.0738
 4205W        W 8405   0.868   1.230   9.277  0.2422 -0.0609  0.1324
 4206W        W 8406   9.419   2.833  13.190 -0.0119  0.1251 -0.0128
 4207W        W 8407  10.029   4.549   9.875  0.1448 -0.4881 -0.2699
 4208W        W 8408   3.199   5.689   3.917 -0.0765 -0.3472 -0.0866
 4209W        W 8409   2.135   5.443   1.945 -0.1817  0.2126 -0.1198
 4210W        W 8410   7.030   2.605   0.453 -0.4393  0.2601 -0.3058
 4211W        W 8411   9.843   8.660   1.934  0.2196  0.1792  0.2044
 4212W        W 8412   3.384   8.523   1.062 -0.1689  0.1296 -0.1000
 4213W        W 8413   8.763   3.617   3.917 -0.1203  0.1580 -0.0441
 4214W        W 8414   6.660   0.981   9.599 -0.1657  0.1686  0.3160
 4215W        W 8415  10.078   0.521  10.481 -0.0948 -0.2335  0.2961
 4216W        W 8416   6.283   1.563  10.593  0.0087 -0.0196 -0.0378
 4217W        W 8417   2.245   4.664   2.530 -0.0331  0.0704  0.1166
 4218W        W 8418   5.936   4.787   4.761 -0.0425  0.0882 -0.3126
 4219W        W 8419   6.315   3.716   0.241  0.1828  0.2407  0.1025
 4220W        W 8420   0.952   6.613  11.494 -0.3929  0.0470 -0.3198
 4221W        W 8421   8.786   9.070   1.674  0.0806 -0.3707  0.0199
 4222W        W 8422   6.665   8.360  11.367  0.1031  0.0111  0.3277
 4223W        W 8423   8.588   5.068  12.428 -0.2555 -0.1405  0.3055
 4224W        W 8424  10.175   1.339   8.904  0.0401 -0.0605  0.0171
 4225W        W 8425  10.255   7.248   9.609  0.1229 -0.1976 -0.1609
 4226W        W 8426   3.027   0.294   3.155 -0.0796  0.4428 -0.1890
 4227W        W 8427   0.599   8.299   4.054  0.0302 -0.0338 -0.1151
 4228W        W 8428   5.183   5.223   1.951 -0.2225 -0.1401  0.0397
 4229W        W 8429   3.396   7.607   0.481  0.0954 -0.2297 -0.1874
 4230W        W 8430   0.833   2.869  10.198 -0.2143 -0.3897  0.0619
 4231W        W 8431   9.072   9.602   4.145  0.1335  0.0001  0.1888
 4232W        W 8432   9.359   0.554   4.323  0.1050 -0.0552 -0.1754
 4233W        W 8433   7.031   5.782   3.857  0.3940  0.1943 -0.1294
 4234W        W 8434   4.385   2.682  11.092 -0.1455  0.2857 -0.0348
 4235W        W 8435   9.764   5.533  11.323 -0.1399 -0.2231 -0.1673
 4236W        W 8436   0.310   7.042  13.174  0.0896 -0.1146  0.1234
 4237W        W 8437   8.312   2.677  10.887 -0.2889  0.1105 -0.1255
 4238W        W 8438   6.860   2.526  11.363 -0.2645 -0.0983  0.2998
 4239W        W 8439   3.643   0.965   1.066 -0.0033 -0.0511  0.1064
 4240W        W 8440   8.307   6.627  11.340  0.0424  0.0020  0.0016
 4241W        W 8441   4.150   5.819   1.564  0.1916 -0.2114 -0.0999
 4242W        W 8442   1.779   2.752  10.920 -0.0516  0.1117 -0.1464
 4243W        W 8443   8.998   5.456  10.080  0.1763  0.1269 -0.0979
 4244W        W 8444   9.137   6.080   4.238 -0.1351 -0.0452 -0.0749
 4245W        W 8445   5.906   2.388   1.366  0.1631  0.2977 -0.3299
 4246W        W 8446   5.748   3.632  13.157  0.0802  0.2891  0.0587
 4247W        W 8447   0.488   9.135   1.278  0.1635 -0.0394 -0.1923
 4248W        W 8448   8.595   6.812  12.128  0.2080 -0.0494 -0.0271
 4249W        W 8449   5.205   8.276   0.250  0.0661  0.0099  0.1516
 4250W        W 8450   8.128   0.359   0.797 -0.2520  0.0742 -0.2276
 4251W        W 8451   3.932   0.850   3.249 -0.1281 -0.0258 -0.1311
 4252W        W 8452   0.363   8.542   2.040  0.1726 -0.0748  0.0612
 4253W        W 8453   3.374   8.904   3.916 -0.1847  0.0554 -0.2373
 4254W        W 8454   6.114   2.757  12.599  0.1853  0.3398  0.1151
 4255W        W 8455   8.944   7.037  12.410 -0.0933 -0.2166  0.0155
 4256W        W 8456   0.230   6.441   0.437 -0.1994 -0.0682 -0.2595
 4257W        W 8457   8.112   5.932   3.798 -0.0646  0.0043 -0.1225
 4258W        W 8458   9.435   5.489   1.774 -0.2950 -0.1334  0.2150
 4259W        W 8459   3.887   0.958  10.124  0.0882  0.1645  0.1958
 4260W        W 8460   8.029   8.340   9.187 -0.1388  0.0711 -0.1075
 4261W        W 8461   0.860   9.100   9.413  0.0070  0.1489 -0.2827
 4262W        W 8462   5.610   8.975  13.209 -0.0585  0.0548  0.2432
 4263W        W 8463   6.420   2.028  10.851  0.2858  0.0188 -0.2690
 4264W        W 8464   3.927   0.378   1.650  0.1085  0.2159  0.1060
 4265W        W 8465  10.514   6.695   0.041 -0.0239  0.0001  0.2189
 4266W        W 8466   4.130   5.662   9.936  0.3582  0.1056 -0.0037
 4267W        W 8467   6.732   9.780   4.401 -0.1064  0.1392 -0.3899
 4268W        W 8468   1.944   1.228   4.475 -0.3242 -0.1130 -0.0922
 4269W        W 8469   6.645   2.959  10.671 -0.4455 -0.0657  0.0810
 4270W        W 8470   5.560   9.893  12.690 -0.3653  0.1669 -0.3282
 4271W        W 8471   5.090   0.574  12.984  0.0304  0.0137 -0.0190
 4272W        W 8472   1.083   1.562   4.081 -0.0684  0.2985 -0.3016
 4273W        W 8473   3.648   9.986  12.759  0.0941 -0.0855  0.2554
 4274W        W 8474   8.064   2.478   1.111 -0.1987 -0.3399 -0.3589
 4275W        W 8475   7.691   0.273   1.467  0.1003  0.1714 -0.2382
 4276W        W 8476   0.475   5.263  13.233  0.2973 -0.0146  0.2457
 4277W        W 8477   4.481   7.311  11.581  0.4459 -0.0937 -0.0620
 4278W        W 8478   3.332   6.906  10.554  0.1063 -0.0821 -0.0120
 4279W        W 8479   4.847   5.353  10.092  0.0159  0.1227  0.0199
 4280W        W 8480   3.671   6.435  12.342 -0.2643  0.2134 -0.0687
 4281W        W 8481   5.779   6.146   0.051 -0.1826 -0.0681  0.1159
 4282W        W 8482   0.656   1.011   3.060 -0.0660 -0.0686  0.3049
 4283W        W 8483   7.890   1.571  13.270 -0.2103  0.2782 -0.0683
 4284W        W 8484   9.484   6.221  12.408  0.0029 -0.3099  0.0193
 4285W        W 8485   4.650   1.262   3.582 -0.0978  0.0709  0.0515
 4286W        W 8486   0.424   8.178  12.186 -0.2112  0.0649  0.0204
 4287W        W 8487   0.597   5.542   0.432  0.0558 -0.0342 -0.0304
 4288W        W 8488   2.984   4.589  12.505  0.0998  0.0205  0.1998
 4289W        W 8489  10.104   1.124   4.577 -0.1357 -0.1441  0.3390
 4290W        W 8490   3.357   4.741   9.131 -0.2148  0.0084  0.4391
 4291W        W 8491   9.473   7.667   0.961 -0.2303 -0.0108  0.2022
 4292W        W 8492   8.098   6.947  11.584 -0.2779 -0.3593  0.1127
 4293W        W 8493   7.230   3.790   9.889 -0.2286 -0.0564 -0.2607
 4294W        W 8494   3.243   1.287   3.569 -0.0495  0.1844 -0.1589
 4295W        W 8495   8.757   9.705   0.478  0.1514  0.2655  0.0398
 4296W        W 8496   3.420   2.664  12.369 -0.0760  0.0873  0.0610
 4297W        W 8497   7.888   4.377   3.487 -0.2246  0.3774  0.0487
 4298W        W 8498   7.734   5.504   1.674  0.3354  0.2399 -0.0275
 4299W        W 8499  10.117   8.115   5.139 -0.1717 -0.1000 -0.3689
 4300W        W 8500   7.180   1.700  11.907 -0.0623  0.0392 -0.1614
 4301W        W 8501   6.486   0.724  10.513 -0.3275 -0.1585 -0.1370
 4302W        W 8502   8.319   8.298   4.619  0.0614 -0.0622  0.4386
 4303W        W 8503   9.825  10.134  13.248 -0.0220 -0.0135  0.0532
 4304W        W 8504   9.546   5.853   2.151  0.0323 -0.1166 -0.2035
 4305W        W 8505   4.019   5.292   9.129  0.1311 -0.0717  0.2873
 4306W        W 8506   7.557   6.349   4.585 -0.2255  0.1037  0.2156
 4307W        W 8507   3.183   5.164  10.018 -0.0615 -0.1307 -0.3858
 4308W        W 8508   6.539   5.886   3.862  0.1329 -0.0796 -0.4080
 4309W        W 8509   1.162   6.312   9.352  0.0625  0.0899  0.0376
 4310W        W 8510   6.737   9.771   3.903  0.3175  0.1022  0.1787
 4311W        W 8511   0.566   7.662   2.248 -0.2089  0.0224  0.0091
 4312W        W 8512   7.522   7.493   3.055 -0.1483 -0.0136 -0.0509
 4313W        W 8513   8.702   0.480  12.951 -0.5899  0.3494 -0.1214
 4314W        W 8514   8.671   0.727   9.930 -0.1706 -0.0136  0.1092
 4315W        W 8515   4.779   2.959   0.911  0.1217  0.0809  0.1585
 4316W        W 8516   7.754   7.891  11.241 -0.1531  0.1567 -0.0785
 4317W        W 8517   7.114   7.172   4.182 -0.3602  0.0968  0.1115
 4318W        W 8518   6.838   1.751  10.690  0.1101  0.2220 -0.3603
 4319W        W 8519   2.161   0.516   4.222  0.2432  0.2428 -0.0143
 4320W        W 8520   8.365   6.251   1.174  0.1163 -0.1546 -0.3157
 4321W        W 8521   2.223   3.094   2.870 -0.2439  0.2043 -0.1094
 4322W        W 8522   7.304   4.078  12.392  0.2014  0.0808 -0.2971
 4323W        W 8523   5.548   7.365   9.707 -0.2838  0.4994 -0.1589
 4324W        W 8524   2.077  10.372   2.330  0.1479 -0.0048  0.0257
 4325W        W 8525   9.635   2.703   2.315 -0.0746 -0.1185 -0.0852
 4326W        W 8526   9.781   5.474   8.658 -0.0758  0.3058  0.2164
 4327W        W 8527   5.824   9.967  11.403 -0.0163 -0.5544 -0.1498
 4328W        W 8528   3.781   3.437   9.095 -0.2510  0.2876  0.1899
 4329W        W 8529   4.370   6.991   9.271  0.1020  0.2726  0.0192
 4330W        W 8530   4.871   4.925   4.190 -0.4882 -0.2612 -0.2669
 4331W        W 8531   9.258   1.149   2.051  0.2228  0.2019 -0.0791
 4332W        W 8532   2.146   7.532   1.100 -0.2224  0.2311 -0.0971
 4333W        W 8533   9.546   3.979  11.282  0.0609  0.0795  0.0951
 4334W        W 8534   5.538   3.057   1.936 -0.0107 -0.2000 -0.1912
 4335W        W 8535   1.726   2.278   2.733 -0.0804  0.0875  0.1938
 4336W        W 8536   1.053   3.791  12.156 -0.3306  0.2675 -0.0683
 4337W        W 8537  10.093   6.887   9.894 -0.1428 -0.1468 -0.0001
 4338W        W 8538   2.991   2.992   0.582  0.1796  0.2116  0.2254
 4339W        W 8539   7.786   3.306   1.636 -0.2207 -0.2195 -0.0715
 4340W        W 8540   2.922  10.176  11.028  0.0260  0.4705  0.2806
 4341W        W 8541   6.129   2.306  12.816  0.0878 -0.0961 -0.1461
 4342W        W 8542   4.669   7.546   9.233  0.1681  0.2219 -0.0852
 4343W        W 8543   1.841  10.313   1.697 -0.1135  0.3024  0.0974
 4344W        W 8544   1.520   3.368   3.808  0.0569 -0.3366  0.1429
 4345W        W 8545   8.120   6.903  12.733  0.0785 -0.0817  0.1265
 4346W        W 8546   9.419   8.982   0.590  0.1372  0.2163 -0.4008
 4347W        W 8547   5.455   4.171  12.938  0.0834  0.5312  0.2230
 4348W        W 8548   3.989   7.833  10.461  0.1520  0.1031 -0.0350
 4349W        W 8549   0.896   0.876  12.119 -0.0123 -0.2662 -0.0977
 4350W        W 8550   5.356   5.013  13.050 -0.2745 -0.1487 -0.2794
 4351W        W 8551   3.100   1.090   2.829  0.0499  0.0340 -0.0293
 4352W        W 8552   8.683   4.877  12.880  0.1870 -0.1841  0.0656
 4353W        W 8553   0.737   8.136   8.638  0.0096  0.3035 -0.3981
 4354W        W 8554   7.389   7.312   2.111  0.1418  0.1082  0.1353
 4355W        W 8555   8.832   1.292   3.093 -0.1580  0.1369  0.1590
 4356W        W 8556   4.498   3.745   9.948  0.1710 -0.1904  0.1523
 4357W        W 8557   8.585   0.039   9.984  0.0095  0.1875  0.2970
 4358W        W 8558   2.676   7.592  12.614 -0.0320  0.2457 -0.1082
 4359W        W 8559   7.970   8.692   9.649  0.2664  0.3295 -0.0496
 4360W        W 8560   5.240   0.698   0.115  0.2552 -0.0630  0.1142
 4361W        W 8561   4.999   2.283   1.161 -0.0286  0.2054  0.1041
 4362W        W 8562   7.554   0.658   9.897 -0.0390 -0.0143  0.1766
 4363W        W 8563   5.607   3.442   1.448 -0.0300 -0.1521 -0.2289
 4364W        W 8564   5.203   3.191   0.611 -0.1901 -0.0108  0.2068
 4365W        W 8565  10.345  10.474   4.142 -0.4177 -0.2146 -0.2600
 4366W        W 8566   9.961   0.550  13.050  0.3118  0.1409 -0.0773
 4367W        W 8567   8.820   3.551   3.410 -0.1151  0.0922 -0.1884
 4368W        W 8568   1.175   8.963   3.142  0.2234 -0.0056 -0.1741
 4369W        W 8569   5.070   8.468  11.159  0.1118  0.1307 -0.1558
 4370W        W 8570   6.349   1.494   2.191  0.1238  0.2473 -0.0004
 4371W        W 8571   2.302   0.218   1.488 -0.1331  0.1465 -0.0820
 4372W        W 8572   2.279   2.958   0.417 -0.1252 -0.0185  0.0113
 4373W        W 8573  10.131   5.513   8.999 -0.0764 -0.0043 -0.1865
 4374W        W 8574   0.590   5.100   2.227 -0.2151 -0.0325 -0.1201
 4375W        W 8575   9.918   3.727  12.106 -0.2997  0.0469  0.1363
 4376W        W 8576   5.321   7.787  10.758  0.0759 -0.2173 -0.0564
 4377W        W 8577   4.879   1.858   2.114 -0.0344  0.1141 -0.0908
 4378W        W 8578   5.602   2.957   1.085  0.2008 -0.2774 -0.0367
 4379W        W 8579   0.138   0.588   1.564 -0.0720 -0.1526 -0.3462
 4380W        W 8580   5.951   1.220  10.826  0.2900  0.3003 -0.1428
 4381W        W 8581   4.845   1.309   9.784  0.0638 -0.2504 -0.0429
 4382W        W 8582   5.143   6.330   4.778 -0.2160 -0.0566 -0.1182
 4383W        W 8583   0.803   0.587   9.920 -0.4611 -0.4899 -0.0910
 4384W        W 8584   9.222   7.199   2.087  0.3165  0.0919 -0.0557
 4385W        W 8585   4.479   5.759   1.152  0.5280 -0.1338 -0.1277
 4386W        W 8586   6.016   2.255   1.899 -0.3809  0.2258  0.1257
 4387W        W 8587  10.142   9.955   0.319  0.1426  0.0727  0.0950
 4388W        W 8588   6.281   4.725   0.160  0.0476  0.0433 -0.2719
 4389W        W 8589   2.005   9.549   8.861  0.0403 -0.0650  0.0433
 4390W        W 8590   6.809   5.634  12.022 -0.2153 -0.0395  0.0837
 4391W        W 8591   9.020   3.109   2.487 -0.0131 -0.0606 -0.0681
 4392W        W 8592   8.065   9.297  12.466  0.0357 -0.1969 -0.0598
 4393W        W 8593   7.637   9.485  12.138 -0.0759  0.1203 -0.0811
 4394W        W 8594   0.828   7.374  11.036 -0.3184 -0.1810  0.3816
 4395W        W 8595   2.267   8.271   0.225  0.0100  0.0113  0.1475
 4396W        W 8596   1.036   7.800   2.052  0.1307  0.1067 -0.0636
 4397W        W 8597   2.056   5.285   8.924 -0.1753  0.1403 -0.0286
 4398W        W 8598   1.834   8.687   9.194  0.1695  0.1105 -0.1328
 4399W        W 8599   6.649   9.592   0.561  0.0513  0.0167 -0.1452
 4400W        W 8600   2.946   5.739   9.422 -0.0462  0.1155  0.2330
 4401W        W 8601   2.575   8.058   0.575 -0.1548 -0.3265  0.2760
 4402W        W 8602   9.097   5.009   3.494  0.0897 -0.0643 -0.2870
 4403W        W 8603   1.684   6.569  12.072  0.0075 -0.0345 -0.1239
 4404W        W 8604   8.954   5.332  11.783  0.2043 -0.1241  0.0995
 4405W        W 8605   6.745   0.343   2.480  0.1634 -0.1871  0.1813
 4406W        W 8606   1.166   3.126   1.687 -0.0285 -0.1102  0.0244
 4407W        W 8607   6.985   5.276   0.793 -0.1637 -0.0876  0.0431
 4408W        W 8608  10.177   1.931  10.757 -0.1066 -0.0509  0.0040
 4409W        W 8609   3.940   5.570  10.448  0.0473 -0.2370 -0.1872
 4410W        W 8610   6.199   7.241  12.834  0.3483 -0.1195  0.0868
 4411W        W 8611   6.851   8.685   2.022 -0.1739 -0.0381 -0.0416
 4412W        W 8612   6.337   8.411   9.942  0.3426  0.0092 -0.2792
 4413W        W 8613   1.367   5.273  12.502  0.0548 -0.3703  0.4299
 4414W        W 8614   2.568   4.817   8.487 -0.0165 -0.0404  0.2059
 4415W        W 8615   1.727   2.406   0.016 -0.0650  0.1317 -0.0367
 4416W        W 8616   3.730   9.228  11.471  0.2510  0.0170  0.1132
 4417W        W 8617   9.667   4.302   4.402 -0.1616  0.0694  0.0297
 4418W        W 8618   7.077   7.900   0.477  0.1199 -0.0998  0.3208
 4419W        W 8619   9.259   9.784   0.991 -0.0126  0.3116 -0.0757
 4420W        W 8620   9.647   2.949  12.704 -0.2073  0.4354 -0.0831
 4421W        W 8621   5.110   0.963  11.703  0.1384 -0.1713 -0.5192
 4422W        W 8622   0.445   6.312   9.681 -0.1603  0.0475  0.2039
 4423W        W 8623   0.071   5.836  10.245 -0.2245 -0.1585  0.0929
 4424W        W 8624   8.626   0.570  11.835 -0.1061  0.1014  0.0181
 4425W        W 8625   7.579   1.370   1.957 -0.2610  0.1317 -0.1979
 4426W        W 8626   1.350   7.300  10.980  0.2662 -0.1829  0.1805
 4427W        W 8627   9.838   5.986  10.307  0.0665 -0.0873  0.0605
 4428W        W 8628   0.852   6.599   3.011 -0.0902 -0.3453 -0.2367
 4429W        W 8629   0.479   5.797  11.191 -0.0715 -0.0844 -0.1373
 4430W        W 8630   7.209   2.509  12.547 -0.1314 -0.0346  0.0478
 4431W        W 8631   1.858   2.431   1.641 -0.0496  0.2741 -0.0300
 4432W        W 8632   8.355  10.214   9.711 -0.1120 -0.0072 -0.0615
 4433W        W 8633   8.154   7.009  13.262 -0.0005 -0.0707  0.1543
 4434W        W 8634   6.369   4.394  12.996  0.0850  0.2429 -0.1010
 4435W        W 8635   0.849   5.780   2.517 -0.0410 -0.0187  0.0045
 4436W        W 8636   0.551   8.786  13.052  0.0111  0.4574 -0.1870
 4437W        W 8637   1.698   3.825  12.921  0.0823 -0.1349 -0.0501
 4438W        W 8638   8.558   7.512   0.642  0.0561  0.0404 -0.1906
 4439W        W 8639   8.766   3.583   9.179  0.1350  0.3536 -0.1135
 4440W        W 8640   9.452   1.745   2.877 -0.4156  0.1698 -0.1356
 4441W        W 8641   3.161   9.868   0.501 -0.1655 -0.0690 -0.3723
 4442W        W 8642   1.490   9.343   1.948 -0.1163  0.3439 -0.0849
 4443W        W 8643   8.541   6.876   4.536  0.0147 -0.5631  0.1796
 4444W        W 8644   5.556   5.634   0.841 -0.2969  0.0450 -0.3759
 4445W        W 8645   2.925   2.676   9.570 -0.1622 -0.0425  0.3360
 4446W        W 8646   5.529   2.463   3.704  0.0355  0.0982 -0.1277
 4447W        W 8647   4.431   8.344   1.691 -0.2366 -0.0246 -0.0284
 4448W        W 8648   8.421   0.549  12.335 -0.1836  0.1810  0.0621
 4449W        W 8649   4.352   5.348  10.274 -0.2512  0.1436 -0.2710
 4450W        W 8650   3.742   0.113   2.580 -0.1034  0.0661  0.0419
 4451W        W 8651   3.503   9.110   2.556  0.2024 -0.0893  0.0408
 4452W        W 8652   5.341   1.912  12.769  0.0563 -0.0313  0.3904
 4453W        W 8653   5.538   1.476  10.651  0.0769  0.0447  0.1405
 4454W        W 8654   5.505   8.223   2.446 -0.2186 -0.0914 -0.1268
 4455W        W 8655   8.618   0.462   8.947  0.0998  0.2231  0.2032
 4456W        W 8656   7.072   2.685  10.910  0.1564 -0.0968 -0.4306
 4457W        W 8657   0.081  10.489   9.031 -0.1431  0.0037  0.0463
 4458W        W 8658   6.984   2.494   2.429  0.1794 -0.3189  0.0328
 4459W        W 8659   4.824   8.750  10.814 -0.3050 -0.2486 -0.2010
 4460W        W 8660   4.860   9.985   0.426  0.0621 -0.0733  0.1536
 4461W        W 8661   3.177   6.977   3.937  0.2577  0.2114 -0.0578
 4462W        W 8662   0.829   5.529   4.934  0.1182  0.2142  0.0939
 4463W        W 8663   5.862   8.586   0.071  0.4237 -0.2913  0.1688
 4464W        W 8664   3.430   8.430  11.028 -0.0185  0.0270 -0.1249
 4465W        W 8665   3.081   2.445   0.625  0.0049  0.1968 -0.0165
 4466W        W 8666   6.487   6.493   2.808  0.0111  0.3805 -0.1074
 4467W        W 8667   5.656   4.754   3.145 -0.0404  0.0150 -0.0387
 4468W        W 8668   0.779   3.055   3.027  0.0803  0.2927  0.1510
 4469W        W 8669   5.750   1.440   9.561 -0.1136  0.0346  0.1494
 4470W        W 8670   9.771   9.969  12.794 -0.0955  0.2845  0.0418
 4471W        W 8671   4.587   7.518   0.708 -0.1674 -0.0766 -0.1008
 4472W        W 8672   2.947   8.732   1.205 -0.1813  0.1686  0.1647
 4473W        W 8673   1.353   1.351   2.301 -0.2772  0.1061  0.1631
 4474W        W 8674   5.555   7.659   1.380 -0.3359  0.1331 -0.1310
 4475W        W 8675   3.411   2.774  11.218 -0.0781 -0.6707  0.0135
 4476W        W 8676   3.059   8.647  10.737  0.1253 -0.1973 -0.1378
 4477W        W 8677   2.980   5.891  10.682  0.1891 -0.1740  0.0268
 4478W        W 8678   6.803   0.986  12.531  0.1928 -0.1126  0.0065
 4479W        W 8679  10.028   0.446  11.154  0.0452 -0.0468 -0.1497
 4480W        W 8680   0.032   1.037   4.798  0.2651 -0.1841  0.1585
 4481W        W 8681   7.502   8.743  10.385 -0.2538 -0.1623  0.1469
 4482W        W 8682   1.398   3.942   3.621  0.5356 -0.2011  0.0701
 4483W        W 8683   1.581   4.050   8.909 -0.0697  0.1896  0.1618
 4484W        W 8684   0.513   0.652   0.334  0.0368 -0.1418 -0.3854
 4485W        W 8685   5.972   7.739  12.893 -0.1268  0.1093  0.0982
 4486W        W 8686   3.551   2.930   2.801 -0.0687  0.0326  0.2414
 4487W        W 8687   2.333   6.329  11.228  0.0624  0.1943 -0.1194
 4488W        W 8688   9.633  10.014   9.021  0.3365 -0.1384  0.1498
 4489W        W 8689   4.260   6.634   2.259  0.2849 -0.1040 -0.3176
 4490W        W 8690   6.273   7.450   4.345  0.0004  0.1473  0.1672
 4491W        W 8691   3.559   9.591   3.478  0.0343 -0.0738  0.0611
 4492W        W 8692   8.488   2.720   0.821  0.3684  0.0157 -0.1941
 4493W        W 8693   9.201   9.322  12.980  0.1087 -0.2780 -0.1971
 4494W        W 8694   6.314   9.997   2.004  0.1424 -0.0087  0.0205
 4495W        W 8695   1.506   4.919   8.890 -0.0935  0.2036 -0.2924
 4496W        W 8696   9.532   4.798   4.591  0.1737  0.2607  0.0098
 4497W        W 8697   1.478   3.219   4.319  0.2055  0.1984  0.2147
 4498W        W 8698   8.334   2.020   2.251  0.0705  0.2640 -0.0730
 4499W        W 8699   2.319   8.442  12.934  0.1617  0.2580  0.0494
 4500W        W 8700   0.122   1.107   3.089  0.4108  0.1348 -0.0350
 4501W        W 8701   3.752   3.645   1.227  0.2768  0.0172  0.1890
 4502W        W 8702   0.032   1.666   3.439  0.2875  0.0324  0.0011
 4503W        W 8703   6.499   2.993  11.297  0.2468  0.0689  0.3393
 4504W        W 8704   2.726   1.717   1.820 -0.1257 -0.3153  0.0755
 4505W        W 8705   1.323   3.551   8.924 -0.0718  0.1562  0.0779
 4506W        W 8706   9.517   5.218  12.469  0.0100 -0.0750 -0.0756
 4507W        W 8707   9.887   2.593  12.469  0.0291 -0.0913  0.2545
 4508W        W 8708  10.445   7.638  11.573  0.0079  0.2784  0.2410
 4509W        W 8709   4.043   5.723  11.935  0.1220 -0.0432  0.0725
 4510W        W 8710   3.281   3.709   4.023 -0.0691 -0.2019  0.1231
 4511W        W 8711   6.981   9.781  12.919 -0.2055  0.2189 -0.3293
 4512W        W 8712   6.638   9.953  10.071 -0.0859 -0.1106  0.1233
 4513W        W 8713   3.843   4.561   2.947 -0.2139 -0.1060  0.3326
 4514W        W 8714   9.595   8.301   9.974  0.2821  0.2879  0.0507
 4515W        W 8715   0.597   3.495   2.867  0.4102  0.0411  0.0505
 4516W        W 8716   0.702   2.554   1.672 -0.2337  0.1622 -0.0634
 4517W        W 8717   1.259   2.577  10.206  0.1551 -0.2489  0.0349
 4518W        W 8718   7.253   6.923   0.710  0.0089 -0.3222  0.2112
 4519W        W 8719  10.271   1.286   3.446  0.0210 -0.1925 -0.2402
 4520W        W 8720   1.310   7.573   8.619 -0.1730  0.2300  0.0470
 4521W        W 8721   3.413   7.443   3.806 -0.0760 -0.0638  0.0206
 4522W        W 8722   0.631   6.357   2.636 -0.1799 -0.1562 -0.1423
 4523W        W 8723   9.853   8.656  11.104 -0.0516 -0.2063  0.1836
 4524W        W 8724   6.096   1.092   0.564  0.1636 -0.0443 -0.0011
 4525W        W 8725   4.381   3.614  13.241 -0.0180  0.0818  0.2951
 4526W        W 8726   9.626   1.667  12.790 -0.0318  0.0038  0.0318
 4527W        W 8727   4.206   6.514   8.769  0.0320 -0.1375  0.1648
 4528W        W 8728   2.806   8.989   0.183 -0.2980 -0.0406  0.1622
 4529W        W 8729  10.083   9.143   0.090  0.1497  0.1853  0.2987
 4530W        W 8730   1.076   1.912  11.677 -0.0631 -0.1373  0.0013
 4531W        W 8731   2.302   5.686  10.412  0.0459  0.0762 -0.1520
 4532W        W 8732   1.744   3.916  10.647 -0.3548 -0.0228 -0.1691
 4533W        W 8733   0.366   3.347   9.593 -0.3195 -0.2848 -0.0771
 4534W        W 8734   0.324   6.797  12.296  0.1475 -0.1706  0.2903
 4535W        W 8735   8.501   2.220   0.889 -0.1763  0.1835 -0.0210
 4536W        W 8736   9.796   3.793  12.528  0.2077 -0.3700  0.0449
 4537W        W 8737   5.906   8.996  12.253  0.0722 -0.2268 -0.3390
 4538W        W 8738   2.059  10.081  10.684  0.0905  0.1381  0.0104
 4539W        W 8739   6.263   4.206  10.382 -0.1633  0.1123 -0.0396
 4540W        W 8740   3.370   3.229   3.162  0.2154  0.1605 -0.0998
 4541W        W 8741   9.780   8.738   2.438 -0.2863  0.0270  0.0755
 4542W        W 8742   9.436   1.055   1.527  0.1129 -0.1674  0.2137
 4543W        W 8743   1.482   4.507  11.690  0.1311  0.3509 -0.1837
 4544W        W 8744   6.350   1.017   1.024  0.2223 -0.3790  0.1309
 4545W        W 8745   7.772  10.243  11.401 -0.0625 -0.1793 -0.0050
 4546W        W 8746   4.234   5.259   3.508 -0.1728  0.2507  0.1403
 4547W        W 8747  10.533   3.911   9.964 -0.2045 -0.0957  0.1707
 4548W        W 8748   8.296   1.533  10.381  0.0099  0.1745  0.2998
 4549W        W 8749   0.200   3.673  10.833 -0.2333  0.4075  0.0178
 4550W        W 8750   4.436   5.444   3.032 -0.1374 -0.1084 -0.2750
 4551W        W 8751   8.458   6.365   2.225  0.1018  0.0599 -0.0414
 4552W        W 8752   9.587   8.807   3.544 -0.1254  0.3038  0.3873
 4553W        W 8753   3.155   8.253   2.566  0.1507  0.1775  0.1670
 4554W        W 8754   5.399   9.450   3.771 -0.2703 -0.0103  0.2520
 4555W        W 8755  10.164   7.470   2.287  0.1862  0.0212 -0.0022
 4556W        W 8756   9.247   2.694  12.641 -0.1041  0.0579  0.0667
 4557W        W 8757   4.396   2.669   4.042 -0.0282  0.2143  0.1964
 4558W        W 8758   6.834   4.342  13.187  0.2063  0.0627  0.2586
 4559W        W 8759   3.528   7.957   4.040 -0.0098  0.1009  0.1966
 4560W        W 8760   7.753   7.186   8.646 -0.4030 -0.1522 -0.2087
 4561W        W 8761   6.366   0.428   6.783 -0.0805 -0.0656  0.0844
 4562W        W 8762   3.278   7.529  12.144  0.0194  0.0947 -0.2857
 4563W        W 8763   0.229   1.519   4.185 -0.0786  0.1474 -0.1966
 4564W        W 8764   8.536   4.975   1.981  0.4721  0.2210  0.2311
 4565W        W 8765   3.044   8.231   8.356 -0.1436  0.1184 -0.0107
 4566W        W 8766   8.894   1.411  11.290 -0.0748 -0.0006  0.0607
 4567W        W 8767   9.635   9.744  11.836  0.1282  0.1286  0.0815
 4568W        W 8768   0.862   6.959   0.548 -0.5052 -0.3140  0.0628
 4569W        W 8769   6.037   4.670  12.013  0.1943  0.0904  0.0988
 4570W        W 8770   8.305   4.091   1.780 -0.0528  0.1860  0.0312
 4571W        W 8771   7.592   8.248  10.456  0.3270 -0.2388  0.1514
 4572W        W 8772   8.546   5.229   8.457  0.1743 -0.0210  0.0032
 4573W        W 8773   8.117   9.418   8.525 -0.1901 -0.1039 -0.0105
 4574W        W 8774   0.983   8.836   2.106 -0.0082 -0.1527 -0.0056
 4575W        W 8775   7.971   4.731   1.846 -0.5296 -0.0498  0.2107
 4576W        W 8776   0.901   7.745   4.767  0.0685 -0.1537  0.1361
 4577W        W 8777   8.383   5.700   4.779  0.1648  0.1571 -0.2352
 4578W        W 8778   6.159   0.681   2.573 -0.4335  0.2118 -0.0155
 4579W        W 8779   7.087   2.452  13.009 -0.1840 -0.0498 -0.0066
 4580W        W 8780   1.127   9.391   3.424  0.0881 -0.2120 -0.2624
 4581W        W 8781   5.781   1.867   1.587 -0.0338  0.0481 -0.4012
 4582W        W 8782   2.217   6.638  10.288 -0.2266 -0.3716 -0.1483
 4583W        W 8783  10.367   9.180   0.957  0.3928 -0.3207 -0.0778
 4584W        W 8784   8.988   1.903   9.120 -0.3369  0.1760  0.1722
 4585W        W 8785   3.700   6.735   2.361  0.0868 -0.1741 -0.1061
 4586W        W 8786   0.415   4.235   4.514  0.1248  0.1257  0.0174
 4587W        W 8787   4.366   1.114   1.051  0.1042 -0.3295 -0.0881
 4588W        W 8788   6.811  10.049  12.120 -0.1850 -0.1810 -0.0967
 4589W        W 8789   7.752   4.308   9.314 -0.1809 -0.1352 -0.1887
 4590W        W 8790   5.950   5.108   9.626  0.1271 -0.0526 -0.1115
 4591W        W 8791   8.568   4.056   9.382  0.0502  0.2188  0.2081
 4592W        W 8792   3.987   4.850  11.195  0.1919 -0.3241 -0.1771
 4593W        W 8793   8.349   6.865   3.246  0.1813 -0.1007  0.1625
 4594W        W 8794   9.637   8.474  12.825  0.1069  0.0473  0.2928
 4595W        W 8795   6.732   5.918   3.436 -0.3284  0.2792  0.0275
 4596W        W 8796   5.892   6.945   8.946  0.0821  0.1041  0.3958
 4597W        W 8797   7.198   7.975  11.997 -0.1603 -0.0907 -0.0155
 4598W        W 8798   7.888   9.982  10.448  0.2327 -0.1817  0.3552
 4599W        W 8799   7.780   9.024   0.129 -0.1471 -0.0609 -0.2003
 4600W        W 8800   7.554   4.727   8.959 -0.0839  0.2686  0.0217
 4601W        W 8801   4.515   4.634   4.281  0.1353 -0.0454 -0.0599
 4602W        W 8802   5.156   6.851  10.917  0.4452 -0.1228 -0.0213
 4603W        W 8803   2.357   4.679   1.239 -0.1830  0.1583 -0.0605
 4604W        W 8804   9.376   9.669   4.543 -0.0961 -0.2678  0.1688
 4605W        W 8805   9.073   4.900   3.014 -0.0327  0.3071  0.0038
 4606W        W 8806   3.606   9.817   8.887 -0.1444 -0.5338  0.3026
 4607W        W 8807   6.298   1.279   0.134  0.1257 -0.0315 -0.0958
 4608W        W 8808   6.689   7.113  12.100 -0.0841  0.1170  0.0498
 4609W        W 8809   9.040   1.889   3.810 -0.0848  0.2460  0.1221
 4610W        W 8810   4.122   6.640  12.139  0.0087  0.1543 -0.0048
 4611W        W 8811   7.144   4.589  12.378  0.3886  0.3822 -0.0792
 4612W        W 8812  10.041   5.190   2.955  0.0840 -0.0012  0.1017
 4613W        W 8813   3.926  10.336  12.461 -0.1982 -0.1382 -0.0963
 4614W        W 8814   7.771   3.247  12.952  0.0141  0.2949 -0.0011
 4615W        W 8815   4.643  10.295   2.377  0.2073  0.1572  0.1986
 4616W        W 8816   3.147   8.799   0.630  0.0652  0.3849  0.1185
 4617W        W 8817   2.446  10.522   3.578 -0.1155 -0.2762  0.1363
 4618W        W 8818   0.998   8.984   9.921 -0.3532 -0.0677  0.0990
 4619W        W 8819   2.028   9.836  11.584 -0.3048 -0.2290 -0.0277
 4620W        W 8820   2.788   0.645   0.126 -0.1713  0.0928 -0.1547
 4621W        W 8821   7.212   6.414   1.944 -0.4529  0.1787 -0.1328
 4622W        W 8822   2.908   5.944   3.089  0.0998  0.3410 -0.2194
 4623W        W 8823   6.597  10.214   2.867  0.0250  0.1519 -0.0442
 4624W        W 8824   9.508   5.333   8.255  0.2822  0.2471 -0.0082
 4625W        W 8825  10.076   6.122   5.339 -0.1344 -0.2216  0.0714
 4626W        W 8826   7.641   2.146  11.686  0.3072 -0.1158 -0.0705
 4627W        W 8827   6.540  10.133  10.559  0.2179 -0.4133  0.0676
 4628W        W 8828   9.663  10.233   1.020 -0.4470  0.0571  0.0653
 4629W        W 8829   7.647   8.228   9.705 -0.0633  0.0030 -0.0812
 4630W        W 8830   6.117   9.503  13.156 -0.2540 -0.2985  0.3437
 4631W        W 8831   2.363   4.430   9.301  0.1444  0.0631  0.2993
 4632W        W 8832   0.115   2.622  10.096  0.1718 -0.0873 -0.1954
 4633W        W 8833   1.522   8.632   8.742  0.1564  0.0548  0.0372
 4634W        W 8834  10.095   0.739   0.777  0.4643  0.0645  0.1343
 4635W        W 8835   2.538   8.391   1.303  0.2514 -0.1871 -0.1219
 4636W        W 8836   4.943   7.059   1.725  0.2641  0.1521 -0.2027
 4637W        W 8837   0.615   0.358   9.501 -0.1202  0.2785  0.3193
 4638W        W 8838   1.092   1.464   0.887  0.0258  0.1000 -0.1446
 4639W        W 8839   1.806   0.531   0.131  0.1667 -0.3207 -0.3474
 4640W        W 8840   6.124   9.185  10.695  0.1586 -0.0147  0.0417
 4641W        W 8841   7.111   7.572   3.356 -0.2178 -0.1221 -0.4160
 4642W        W 8842  10.055   1.646   2.254  0.1542  0.1423  0.0888
 4643W        W 8843   9.508   1.511   1.865  0.1821  0.1764 -0.1330
 4644W        W 8844   7.062   9.291  10.854 -0.0407  0.1212  0.0173
 4645W        W 8845   6.466   9.828   0.131  0.1180 -0.0162 -0.0396
 4646W        W 8846   0.499   5.332   9.886 -0.0004  0.0153 -0.2544
 4647W        W 8847   8.632   0.824   1.337 -0.0627 -0.2917  0.2860
 4648W        W 8848   0.516   7.220  12.169 -0.3751  0.0133 -0.0341
 4649W        W 8849   6.386   8.634   2.961 -0.0935 -0.1412 -0.0445
 4650W        W 8850   8.196   4.550  10.633  0.1094  0.1426 -0.2835
 4651W        W 8851   8.459   4.188   8.330 -0.1809  0.0425  0.0549
 4652W        W 8852   7.383   3.424   2.610  0.0158  0.2939  0.0440
 4653W        W 8853   5.188   8.128  12.513 -0.0241  0.1501 -0.0184
 4654W        W 8854   1.343   6.818   0.553  0.0126  0.2249 -0.0962
 4655W        W 8855   4.875   7.693   3.596 -0.0590 -0.0902 -0.0850
 4656W        W 8856   8.372   7.300   1.697 -0.1607 -0.1099 -0.0815
 4657W        W 8857   2.630   1.626  11.512 -0.1706 -0.0299  0.0677
 4658W        W 8858   3.548   6.520  10.363 -0.0522  0.0150 -0.0745
 4659W        W 8859   2.533   9.776  11.389 -0.0167 -0.2432  0.1731
 4660W        W 8860   2.455   1.129  12.205 -0.1794 -0.1562  0.1255
 4661W        W 8861   7.094   8.181  11.524 -0.0141  0.0669 -0.0572
 4662W        W 8862   8.116   2.935  12.723  0.2008  0.0289 -0.1629
 4663W        W 8863   3.718   7.455   1.374  0.0245  0.3514  0.0435
 4664W        W 8864   4.728   1.830   5.873  0.0580 -0.1687  0.1295
 4665W        W 8865   0.305   7.346   8.868  0.2191  0.4103 -0.0642
 4666W        W 8866   7.101   8.929  10.189  0.1788 -0.3176  0.1052
 4667W        W 8867   1.648   4.882   3.273 -0.0422 -0.1609  0.1208
 4668W        W 8868   8.415   2.428   2.453 -0.0225 -0.0809 -0.1314
 4669W        W 8869   4.622   6.326   2.510  0.0690 -0.0517  0.1266
 4670W        W 8870   9.173   6.858   1.301  0.2718 -0.1085  0.2437
 4671W        W 8871   1.897   2.716   9.155 -0.0530 -0.0914 -0.3605
 4672W        W 8872   0.856   8.489   1.789 -0.0241  0.0301  0.0891
 4673W        W 8873   2.164   8.604  11.005  0.2452 -0.3697 -0.2191
 4674W        W 8874   3.466   1.381  13.164 -0.0331  0.0993 -0.2492
 4675W        W 8875   8.599   6.151   2.711  0.0802  0.2975  0.0797
 4676W        W 8876   7.757   1.076  13.015  0.0018 -0.0080 -0.1211
 4677W        W 8877   9.382   8.352   3.351 -0.1939  0.1579 -0.3797
 4678W        W 8878   2.484   0.629   3.522  0.0208 -0.1055  0.1154
 4679W        W 8879   2.943  10.421   3.425 -0.0084  0.0642 -0.0640
 4680W        W 8880   6.801   4.257  12.174  0.2212  0.1533 -0.3535
 4681W        W 8881   7.571   2.523   1.393  0.1196  0.0428  0.0295
 4682W        W 8882   3.263  10.440   0.227  0.0078 -0.0974 -0.0902
 4683W        W 8883   6.662   1.404  12.765  0.0846 -0.0324  0.0234
 4684W        W 8884   3.537   7.410  11.324 -0.1046  0.2909  0.0122
 4685W        W 8885   3.085   4.310   1.228 -0.0456 -0.5680  0.2402
 4686W        W 8886   2.671   4.288   0.353  0.2459  0.2268  0.0396
 4687W        W 8887   8.976   6.278   2.361  0.0463  0.0698 -0.2101
 4688W        W 8888   2.758   9.813  12.844  0.3641  0.3585  0.2339
 4689W        W 8889   9.546   1.631  10.659  0.2425 -0.1133  0.2249
 4690W        W 8890   5.544   8.131  12.140  0.1624  0.1247  0.1808
 4691W        W 8891   4.687   6.529   9.110  0.4892  0.2044  0.1997
 4692W        W 8892   9.442   5.257   0.390  0.1947  0.4324  0.0213
 4693W        W 8893   4.227   8.924  12.485  0.1026  0.0350 -0.3942
 4694W        W 8894  10.243   2.592   8.744 -0.2045  0.1793 -0.2799
 4695W        W 8895   8.155   3.183  11.968 -0.1002 -0.3143 -0.0806
 4696W        W 8896   9.262   0.946   0.906 -0.1848  0.0637  0.2814
 4697W        W 8897   1.473   2.040   9.578  0.0326  0.1694  0.1434
 4698W        W 8898   9.741   1.260   2.250  0.1729 -0.2510 -0.0012
 4699W        W 8899   5.113   7.441   2.712  0.1285  0.0109 -0.1467
 4700W        W 8900  10.525   9.712   0.799 -0.0938  0.4001  0.0340
 4701W        W 8901   6.699   5.078  11.480  0.0429 -0.0304 -0.2547
 4702W        W 8902   4.106   1.463  12.248  0.0246 -0.1627 -0.0660
 4703W        W 8903   8.021   2.695   1.561  0.0327 -0.0550  0.0096
 4704W        W 8904   4.869   1.700  12.675  0.4167  0.2986  0.2467
 4705W        W 8905   3.972   8.766   1.274  0.0859 -0.2126 -0.1171
 4706W        W 8906   0.779   3.510   1.719 -0.2698 -0.3026  0.1001
 4707W        W 8907   0.121   8.214   9.997 -0.3059  0.2150 -0.1198
 4708W        W 8908   1.450   1.237   3.333 -0.0826 -0.2251  0.1584
 4709W        W 8909   8.325   6.198   3.492  0.0650  0.0989 -0.0436
 4710W        W 8910   7.249   1.018   3.132  0.4408  0.0794  0.0254
 4711W        W 8911   8.169   7.267   8.381 -0.1927 -0.2340  0.0795
 4712W        W 8912   3.397   9.321   0.722  0.2152  0.1837 -0.0490
 4713W        W 8913   9.335   6.302   1.927 -0.1443 -0.1736  0.4989
 4714W        W 8914   9.867   2.741   4.624 -0.0558  0.0778  0.0949
 4715W        W 8915   7.067   7.272   2.972 -0.0258  0.2413  0.1803
 4716W        W 8916   5.127   0.158  10.780 -0.0020 -0.4324 -0.1576
 4717W        W 8917   3.338   4.200   0.412  0.1052  0.0692  0.0288
 4718W        W 8918   9.205   0.692   0.427  0.1189 -0.2171  0.1063
 4719W        W 8919   1.844   4.403   2.251 -0.1176  0.0466  0.0764
 4720W        W 8920   6.042   8.955   1.040 -0.3961  0.2696  0.1246
 4721W        W 8921   8.933   7.289  11.979  0.1470  0.1358 -0.2199
 4722W        W 8922   7.197   7.825   1.209  0.0955 -0.1615  0.1111
 4723W        W 8923   7.388   6.177  12.761  0.1681 -0.1861  0.3504
 4724W        W 8924   8.888   1.742   0.731 -0.0556 -0.3483  0.0794
 4725W        W 8925  10.005   3.329   1.333  0.0852 -0.1782  0.0158
 4726W        W 8926   2.189   9.733   0.800 -0.1089 -0.1345  0.0536
 4727W        W 8927   9.153   1.268   4.409 -0.0694 -0.2810  0.1116
 4728W        W 8928   8.575  10.077  12.857  0.1374 -0.0672  0.0242
 4729W        W 8929   4.081   3.730  12.303  0.3055 -0.2683 -0.0060
 4730W        W 8930  10.242   1.610   3.959  0.1143  0.2645  0.2154
 4731W        W 8931   8.502   8.091   4.050  0.2094 -0.0880  0.0953
 4732W        W 8932   9.147   0.222  13.170  0.0991  0.2642 -0.0582
 4733W        W 8933   0.462   3.796   1.130 -0.0687 -0.2087 -0.2501
 4734W        W 8934   4.662   7.340   1.129 -0.0728  0.0883 -0.1011
 4735W        W 8935   7.289   9.927   0.616 -0.0833 -0.0171 -0.0269
 4736W        W 8936   2.728   1.406   2.993 -0.0015 -0.3085  0.3492
 4737W        W 8937   2.750   5.168   9.720  0.1499 -0.0389  0.0408
 4738W        W 8938   0.236   7.787  12.400 -0.0616 -0.0347  0.1737
 4739W        W 8939   1.695   3.915   1.504  0.1089  0.1115  0.1507
 4740W        W 8940   0.566   1.652  11.041 -0.0901  0.0484  0.2420
 4741W        W 8941   3.320   0.541   2.806  0.1776 -0.1771  0.0965
 4742W        W 8942   6.965   9.337   9.146 -0.0553  0.2616  0.2162
 4743W        W 8943   5.025   4.176  12.577 -0.0787 -0.2069  0.0355
 4744W        W 8944   3.269   4.580   2.659 -0.2423 -0.0924  0.0919
 4745W        W 8945   2.426   2.654  12.804  0.2881  0.1514 -0.0177
 4746W        W 8946   2.668   0.587   1.157 -0.2707 -0.1078 -0.0327
 4747W        W 8947   7.390   5.561   9.674  0.0963 -0.0986 -0.2333
 4748W        W 8948   3.885   5.613  11.051  0.1235  0.3036 -0.5636
 4749W        W 8949   4.711   0.088  11.564 -0.1896 -0.1511 -0.0894
 4750W        W 8950   8.758   6.472  13.041 -0.4603 -0.2466 -0.0134
 4751W        W 8951   6.332   2.047   2.471  0.2625 -0.1873  0.0970
 4752W        W 8952   2.195   2.417   0.865  0.0071  0.1325 -0.1647
 4753W        W 8953   8.192   4.820  13.040  0.1086  0.1267  0.0773
 4754W        W 8954   2.408   7.179  12.473  0.0920 -0.4057 -0.1487
 4755W        W 8955   0.801   9.826   1.471  0.0761  0.2060 -0.1401
 4756W        W 8956   0.170   0.688   2.095 -0.1113 -0.3269 -0.0507
 4757W        W 8957   6.136   4.728   3.012 -0.0833 -0.1080  0.0845
 4758W        W 8958  10.308   5.197   9.353  0.0909 -0.1513 -0.1093
 4759W        W 8959   2.933   8.693   3.941  0.1630 -0.0965 -0.3812
 4760W        W 8960   7.600   2.821   0.431  0.5041  0.1072  0.4365
 4761W        W 8961   7.237   1.686   3.470 -0.2523  0.1833 -0.0093
 4762W        W 8962   6.595   2.780   0.660 -0.0321  0.2450 -0.1744
 4763W        W 8963   0.423   5.886   4.992 -0.2240  0.1291  0.0143
 4764W        W 8964   9.972   1.050   1.470  0.0144 -0.0622 -0.2108
 4765W        W 8965   7.784   7.353  11.280  0.1644  0.1678  0.0573
 4766W        W 8966   1.503   5.808  12.541  0.3400  0.3220 -0.0523
 4767W        W 8967   2.977   7.839   0.843 -0.3885 -0.1289  0.0676
 4768W        W 8968   8.975   3.118   3.684 -0.0510  0.1233  0.2593
 4769W        W 8969   5.864   5.488   2.560 -0.2096 -0.0427  0.0281
 4770W        W 8970   0.890   0.937   0.792  0.1956 -0.0192 -0.0028
 4771W        W 8971   4.484   8.461  10.350 -0.1416  0.1725  0.3343
 4772W        W 8972   2.315   8.064   1.980  0.0396 -0.4289  0.1119
 4773W        W 8973   0.658   3.636  10.495 -0.1260  0.0638 -0.1933
 4774W        W 8974   9.943   2.307  12.065 -0.0734  0.1005  0.0262
 4775W        W 8975   4.458   7.301   2.103 -0.0080  0.1672  0.1604
 4776W        W 8976   2.078   8.250   3.968  0.2140  0.2728  0.0454
 4777W        W 8977   5.290   5.010  11.862 -0.0057  0.0061  0.2631
 4778W        W 8978   4.510   5.313   0.571  0.3260  0.3179  0.0702
 4779W        W 8979   2.770   5.134  10.300  0.0674 -0.3048 -0.1013
 4780W        W 8980   6.397   6.022  10.905 -0.1159  0.0560  0.3146
 4781W        W 8981   2.381   6.543   0.696  0.0424  0.1951  0.2164
 4782W        W 8982   5.594   1.891  11.620  0.3284 -0.0921 -0.2586
 4783W        W 8983   5.581   8.990  11.386 -0.1230 -0.0239 -0.3291
 4784W        W 8984  10.300   9.802  12.111 -0.0106 -0.0350  0.2716
 4785W        W 8985  10.523   3.725   9.510 -0.3391 -0.1754 -0.1261
 4786W        W 8986  10.346   5.635   3.258  0.1661  0.1142  0.2143
 4787W        W 8987   1.421   7.037  12.103  0.1718 -0.0767  0.0392
 4788W        W 8988   1.987   2.394   4.006  0.2357  0.0266  0.2720
 4789W        W 8989   7.929   6.432   0.994  0.0657 -0.1744  0.0340
 4790W        W 8990   2.520   0.367   2.955 -0.0903  0.3159 -0.0061
 4791W        W 8991   1.580   1.384   1.519  0.0453  0.0725  0.1608
 4792W        W 8992   7.230   5.039   3.790  0.0855 -0.1772 -0.1012
 4793W        W 8993   0.157  10.170  12.268  0.1555  0.1236 -0.2088
 4794W        W 8994   6.320   4.013   3.373 -0.0393 -0.4646  0.0806
 4795W        W 8995   3.659   6.031   0.095  0.0797  0.4771 -0.0279
 4796W        W 8996   7.507   7.839   4.713  0.2344 -0.0565 -0.1120
 4797W        W 8997   2.001   1.840   0.266 -0.1199 -0.1137  0.3032
 4798W        W 8998   1.158   9.799  10.154  0.0456  0.0043 -0.4639
 4799W        W 8999   0.119   4.916  10.571  0.0779  0.1349 -0.1191
 4800W        W 9000   8.380  10.108   0.477  0.1339  0.1774  0.3237
 4801W        W 9001   0.438   2.208   2.631 -0.0171  0.1716  0.0435
 4802W        W 9002   2.289   0.268  11.968  0.0766 -0.1288  0.1021
 4803W        W 9003   3.846   1.668   9.551  0.0364 -0.1565 -0.2266
 4804W        W 9004   0.051   6.172   1.398 -0.4447  0.2443 -0.0929
 4805W        W 9005   2.779   6.863   3.330 -0.2922  0.2505  0.3943
 4806W        W 9006   8.423   3.649  12.035 -0.4158 -0.4577  0.1072
 4807W        W 9007   2.003   5.578   1.040 -0.1372 -0.0699 -0.2581
 4808W        W 9008   0.808   0.112  10.330 -0.0550  0.1356 -0.0283
 4809W        W 9009   1.334   3.384   9.396  0.3968 -0.0099 -0.0455
 4810W        W 9010   0.597   5.737  12.270  0.0623 -0.1140 -0.0595
 4811W        W 9011   1.288   4.893  10.729 -0.0984  0.0044  0.0640
 4812W        W 9012  10.238   0.067   9.377  0.1057  0.0373  0.1366
 4813W        W 9013   6.934   7.611  11.712 -0.1751 -0.0137 -0.1240
 4814W        W 9014   7.879   4.964   2.757  0.0805 -0.0593  0.1557
 4815W        W 9015   7.522   5.977  10.839  0.2337  0.0379 -0.0424
 4816W        W 9016   7.636   2.141  13.031  0.4929 -0.0847  0.1347
 4817W        W 9017   0.774   4.836  13.067  0.2610 -0.2077 -0.0488
 4818W        W 9018   5.965   7.003  10.457 -0.0745  0.0512  0.0974
 4819W        W 9019   2.730   3.366  11.310 -0.0130  0.0883 -0.0761
 4820W        W 9020   9.566   8.084  12.331  0.0469 -0.2876 -0.0916
 4821W        W 9021   4.030   1.893   1.337 -0.1065 -0.0300 -0.2264
 4822W        W 9022   8.174   4.784  12.103  0.1449 -0.3433  0.1911
 4823W        W 9023   1.078   2.048  13.070 -0.2089 -0.2843 -0.1355
 4824W        W 9024   3.579   5.951  10.627 -0.1395  0.1503  0.0123
 4825W        W 9025   2.185   2.349   3.036 -0.0523  0.0953 -0.2981
 4826W        W 9026   2.296   8.076   9.075 -0.1473  0.0381  0.1184
 4827W        W 9027   1.186   5.811  10.684  0.3459 -0.2106 -0.0261
 4828W        W 9028   5.280   9.582  10.664 -0.1238 -0.1208 -0.1385
 4829W        W 9029   1.424   5.543  11.294 -0.0234 -0.1544 -0.1809
 4830W        W 9030   4.888   8.213   1.889  0.3283 -0.2528 -0.0696
 4831W        W 9031   6.360   9.403  10.200 -0.1973  0.0398  0.2291
 4832W        W 9032   8.066   5.926   2.537  0.2236  0.0796  0.0590
 4833W        W 9033   0.718   4.993   0.318  0.0945  0.0640  0.1150
 4834W        W 9034   1.006   5.985   1.988  0.1655 -0.0721 -0.0276
 4835W        W 9035   4.999   9.771  11.617 -0.2142  0.0125  0.0377
 4836W        W 9036   6.307   5.003  11.038  0.1227  0.0766 -0.2037
 4837W        W 9037   3.915   7.813  12.240 -0.0163 -0.2176 -0.2197
 4838W        W 9038   5.618   1.120   1.507 -0.1389 -0.2439  0.0183
 4839W        W 9039   1.123   3.941   9.293 -0.0774  0.0232 -0.1994
 4840W        W 9040   9.502   2.813   2.892 -0.0136 -0.3346  0.0196
 4841W        W 9041   2.492   2.470  11.078 -0.2802 -0.0256 -0.1814
 4842W        W 9042   0.687   2.479   9.536 -0.1683  0.0312 -0.3527
 4843W        W 9043   3.819   4.950  12.220  0.1304  0.0599  0.3226
 4844W        W 9044   9.577   5.795   9.412 -0.5321  0.2602 -0.0493
 4845W        W 9045   4.246   5.814   8.457  0.0971 -0.0603  0.0769
 4846W        W 9046   3.386   5.225   0.628  0.1198  0.2675  0.3168
 4847W        W 9047   7.614   7.232   4.325 -0.3142  0.1618  0.0529
 4848W        W 9048   2.249   7.368  11.594  0.1192 -0.0320  0.3316
 4849W        W 9049   7.951   4.101  11.602 -0.0902  0.0756  0.2947
 4850W        W 9050   8.415   5.162   9.479 -0.2785  0.0174 -0.0728
 4851W        W 9051   6.005   4.846   1.586  0.1118  0.0715  0.2074
 4852W        W 9052   9.053   1.228   4.951 -0.0508 -0.1810 -0.2504
 4853W        W 9053   6.947   0.213   0.116 -0.1863  0.2436  0.1071
 4854W        W 9054   9.960   3.386   1.818 -0.0067  0.2239  0.0108
 4855W        W 9055   6.026  10.369   2.871 -0.0867  0.1637  0.0053
 4856W        W 9056   9.442   9.828   1.449 -0.1011  0.1716 -0.4188
 4857W        W 9057   3.204   4.848   9.589 -0.0562 -0.4327 -0.0447
 4858W        W 9058   7.469   5.517  11.790 -0.1478  0.1035 -0.0051
 4859W        W 9059   2.940   7.809   8.650 -0.1484 -0.2648  0.0012
 4860W        W 9060   5.803   7.639  11.025 -0.0142 -0.2422 -0.0053
 4861W        W 9061   7.489   1.464   0.431 -0.3391  0.1107 -0.0240
 4862W        W 9062   5.608   8.308   3.307 -0.1773 -0.0557  0.3292
 4863W        W 9063   1.613   2.236  12.232 -0.1849 -0.0805  0.3397
 4864W        W 9064   9.346   6.864  11.000 -0.1464 -0.2401  0.0103
 4865W        W 9065   1.934   1.414  10.558  0.2338  0.3454 -0.0135
 4866W        W 9066   4.720   5.426   3.541  0.1627  0.3772 -0.1731
 4867W        W 9067   9.840   9.811  12.277  0.3031  0.0114  0.0141
 4868W        W 9068   9.011   5.638   3.494 -0.3333 -0.1093  0.1037
 4869W        W 9069   1.770   4.965  11.658 -0.1601 -0.1186 -0.3815
 4870W        W 9070   2.715   4.582  12.920  0.6398 -0.0958  0.0223
 4871W        W 9071   5.461   7.716  12.404 -0.3823 -0.1548 -0.0989
 4872W        W 9072  10.404   2.121   1.469 -0.2812 -0.3456 -0.1091
 4873W        W 9073   2.001   1.994   1.823  0.1206 -0.0239  0.2905
 4874W        W 9074   1.373   6.019  11.115  0.2068 -0.0911  0.0195
 4875W        W 9075   6.878   4.231   0.752 -0.3025 -0.1071 -0.1210
 4876W        W 9076   6.641   2.760  12.439  0.3179  0.1835  0.0081
 4877W        W 9077  10.022   0.365   0.354  0.0394  0.0165  0.3681
 4878W        W 9078   7.321   2.078   2.413  0.0401 -0.1115  0.1161
 4879W        W 9079   5.817   1.520  11.361  0.0997  0.1111 -0.2565
 4880W        W 9080   5.933   7.306   2.427 -0.1190 -0.0673 -0.0647
 4881W        W 9081   5.500   6.491   1.759 -0.1176  0.3485 -0.1160
 4882W        W 9082   4.044   4.263   1.961  0.5457  0.1787  0.0581
 4883W        W 9083   5.598   6.220   7.811 -0.3766  0.0255 -0.0250
 4884W        W 9084   5.458   1.972  10.696  0.0081  0.1833 -0.1559
 4885W        W 9085   5.921   7.755   9.612 -0.1641 -0.0214  0.3226
 4886W        W 9086   3.426  10.144   2.723  0.3352  0.0120 -0.3711
 4887W        W 9087   0.784   6.438   1.778 -0.2774  0.0443 -0.0976
 4888W        W 9088   3.225   6.982   2.928  0.1839  0.1127  0.4712
 4889W        W 9089   6.764   9.703   9.443 -0.0480  0.4954  0.0054
 4890W        W 9090   5.605  10.197  11.900  0.0471  0.1283 -0.4076
 4891W        W 9091   1.072   4.018  11.693  0.2726  0.2340  0.1973
 4892W        W 9092   1.213   4.625   0.293 -0.0526  0.0487  0.2713
 4893W        W 9093   5.204   5.046  10.613 -0.2226  0.2403  0.0566
 4894W        W 9094  10.123   7.911   4.057  0.0373  0.2679 -0.1327
 4895W        W 9095   0.918   7.554   3.609  0.2630 -0.0719  0.1958
 4896W        W 9096   7.241   3.337   9.551 -0.0452  0.1163  0.0829
 4897W        W 9097   8.807   4.523   1.977 -0.1827  0.2021 -0.1743
 4898W        W 9098   5.468   0.611   0.764  0.0466 -0.2505 -0.0364
 4899W        W 9099   0.028   6.563  11.920 -0.0645  0.2279  0.2004
 4900W        W 9100   2.925  10.232   0.980 -0.2037 -0.1502  0.1212
 4901W        W 9101  10.038   5.142   1.884  0.1651  0.0906  0.1640
 4902W        W 9102   8.290   0.231   9.644  0.1751 -0.1849 -0.1790
 4903W        W 9103   1.442   1.388  12.452  0.2433 -0.0990  0.0101
 4904W        W 9104   8.077   2.591   9.842  0.1319  0.1037 -0.2072
 4905W        W 9105   4.411   2.291   3.534 -0.2590  0.0113 -0.0837
 4906W        W 9106   9.823   2.683   0.849 -0.2680 -0.3667  0.1012
 4907W        W 9107   8.671   2.808   2.149 -0.2006  0.1092  0.0444
 4908W        W 9108   2.801   8.904  10.385 -0.0069  0.1424 -0.3411
 4909W        W 9109   0.491   1.617   2.508 -0.2113 -0.1449 -0.0611
 4910W        W 9110   9.528   5.155   3.747 -0.0418  0.0094 -0.1170
 4911W        W 9111   4.054   5.070   5.299 -0.1082 -0.2055 -0.3198
 4912W        W 9112  10.406   0.567   9.303  0.2881  0.0166  0.0249
 4913W        W 9113   9.324  10.353   0.698  0.0009 -0.0777  0.1539
 4914W        W 9114   6.619   1.635  13.217  0.0391 -0.0555 -0.1523
 4915W        W 9115   4.664   5.485   8.607  0.0213 -0.1356 -0.0393
 4916W        W 9116   6.454   1.979   1.942  0.1313 -0.1547  0.0009
 4917W        W 9117   8.547   3.897  13.231  0.0368  0.4535  0.0786
 4918W        W 9118   7.772   0.296  10.304  0.1988  0.3742 -0.1496
 4919W        W 9119  10.299   9.188  12.821  0.0159 -0.0164 -0.3479
 4920W        W 9120   9.848   3.323   5.238 -0.0446 -0.1517 -0.2223
 4921W        W 9121   2.772   1.297   2.076  0.1635  0.4332 -0.2285
 4922W        W 9122   5.755   4.293  10.470 -0.2150  0.1044  0.4919
 4923W        W 9123   7.205   0.072  10.207  0.2486  0.1908 -0.4044
 4924W        W 9124   9.638   1.354   8.839  0.0100  0.3334  0.1468
 4925W        W 9125   4.532   7.813   2.172  0.1893 -0.0561 -0.0514
 4926W        W 9126   9.873   2.005  10.072 -0.2366  0.1431 -0.0929
 4927W        W 9127   0.181   6.902   8.066  0.0777 -0.0136  0.3638
 4928W        W 9128   0.657   2.978  11.306 -0.2300  0.0418 -0.1831
 4929W        W 9129   1.191   4.936   0.951 -0.0660  0.0995 -0.2453
 4930W        W 9130   8.414   9.799  11.608  0.0323  0.1571 -0.1386
 4931W        W 9131   9.622   2.364   3.475 -0.2376 -0.1348  0.0020
 4932W        W 9132   7.173   6.868  12.049  0.2222  0.4161 -0.1185
 4933W        W 9133   5.172   5.339  12.231  0.1197 -0.1290 -0.2427
 4934W        W 9134   8.221   2.922   2.381  0.1744  0.2054  0.0919
 4935W        W 9135   7.836   2.734  10.699  0.1029  0.0518 -0.0770
 4936W        W 9136   8.911   2.573   2.533 -0.0060  0.1723  0.1915
 4937W        W 9137   2.433   5.030  12.954  0.1288 -0.5205 -0.4123
 4938W        W 9138   6.152   2.746   4.421  0.2009  0.1011  0.0202
 4939W        W 9139   2.509   2.025   2.130  0.3618 -0.1581  0.2271
 4940W        W 9140   2.636   5.593   1.936  0.0909 -0.0519  0.2832
 4941W        W 9141   4.357  10.124  12.270  0.0011 -0.0167 -0.1381
 4942W        W 9142   0.246   2.016  11.253 -0.0383  0.1849  0.0039
 4943W        W 9143   3.048   8.432  11.390  0.1260 -0.0760  0.2991
 4944W        W 9144   9.736   9.456   3.628 -0.0630 -0.6032 -0.1143
 4945W        W 9145   5.412   8.514  13.042  0.0531  0.1527 -0.2547
 4946W        W 9146   4.614   0.183  10.055  0.0713 -0.2325  0.0182
 4947W        W 9147   9.784   0.942   1.900  0.2060  0.0951  0.1328
 4948W        W 9148   5.385   6.808  10.400 -0.1148  0.2679  0.0265
 4949W        W 9149   2.243   0.217  10.388 -0.2323 -0.3121 -0.2057
 4950W        W 9150  10.108   4.773  13.066 -0.2048  0.2619  0.1291
 4951W        W 9151   6.149   8.345   2.566 -0.2543  0.3265 -0.1891
 4952W        W 9152   2.518   3.250   2.465 -0.1680  0.1933 -0.2640
 4953W        W 9153   4.577   4.331  10.782  0.0343  0.0269 -0.1361
 4954W        W 9154   1.280   5.991  13.019 -0.3514  0.1797 -0.3209
 4955W        W 9155   1.467   6.630   3.073  0.0266  0.0539 -0.1173
 4956W        W 9156   8.232   8.598   2.232  0.2760  0.0703 -0.1156
 4957W        W 9157   8.846   7.769   2.837  0.0424 -0.0424  0.0178
 4958W        W 9158   4.547   6.838   1.916  0.1862 -0.1457  0.3273
 4959W        W 9159   9.072   4.050  10.073  0.2250 -0.1387 -0.4813
 4960W        W 9160   9.679   4.768   1.124 -0.2668 -0.3316 -0.1541
 4961W        W 9161   5.156   2.879   2.215  0.1701 -0.1280  0.0428
 4962W        W 9162   6.390   4.185   0.214 -0.1596 -0.2065 -0.0499
 4963W        W 9163   6.512   1.102  10.919  0.2540  0.2222 -0.1446
 4964W        W 9164   3.435   8.431  10.470 -0.3013  0.0849  0.0103
 4965W        W 9165   0.104   3.502   3.789 -0.0354  0.0770  0.0807
 4966W        W 9166   2.339   4.406  11.134  0.0658 -0.0542 -0.1286
 4967W        W 9167   0.404   5.571   9.356 -0.0458  0.2276  0.1104
 4968W        W 9168   3.160   7.205  12.541 -0.0292 -0.0137  0.0043
 4969W        W 9169   7.805  10.452   4.471 -0.0060  0.0488  0.2858
 4970W        W 9170   2.491   7.943  12.907 -0.1310 -0.0900 -0.1403
 4971W        W 9171   9.092   6.195   2.883 -0.0809  0.2394  0.3224
 4972W        W 9172   0.952   7.764   2.669 -0.4055  0.0965 -0.0308
 4973W        W 9173   4.161   5.938   2.705  0.1129 -0.1119 -0.0612
 4974W        W 9174   6.689   2.166  10.433 -0.3165  0.3235  0.3358
 4975W        W 9175   4.342   6.138  10.970 -0.1655  0.0866  0.1138
 4976W        W 9176   9.855   7.995  12.842  0.0871 -0.0005  0.1318
 4977W        W 9177   5.420   4.790   9.638 -0.1339 -0.0746  0.2428
 4978W        W 9178   4.533   5.454   9.728  0.3474  0.0586 -0.0607
 4979W        W 9179  10.270   5.302   0.280 -0.1099  0.2077  0.1739
 4980W        W 9180   2.722   0.808   2.086 -0.2462 -0.3045 -0.4206
 4981W        W 9181  10.459   1.147  10.813 -0.0485  0.2946  0.0559
 4982W        W 9182   6.899   2.990  11.619  0.1852 -0.1070  0.0158
 4983W        W 9183   2.060   4.491   3.954 -0.1060  0.0302  0.2216
 4984W        W 9184   7.623   1.094   0.927  0.0418  0.1243 -0.0008
 4985W        W 9185   3.258   4.675   0.531 -0.0233 -0.0428  0.1800
 4986W        W 9186   3.511   6.687  10.988  0.0194 -0.1371  0.0258
 4987W        W 9187   7.804   3.063  12.362  0.5761  0.1387 -0.0276
 4988W        W 9188   7.972   5.035  12.540  0.0179 -0.0372 -0.1496
 4989W        W 9189   6.434   5.806   9.408  0.0352 -0.3686  0.0077
 4990W        W 9190   6.745   5.469   9.100 -0.1275 -0.2438  0.1428
 4991W        W 9191   4.015   3.881  10.092  0.0173 -0.0365  0.1778
 4992W        W 9192   2.175   4.519  12.831  0.0190  0.2500 -0.0533
 4993W        W 9193   0.952   7.695  11.607 -0.0199 -0.1863 -0.2331
 4994W        W 9194   4.985   1.739   0.393 -0.3420 -0.2022  0.0992
 4995W        W 9195   6.160   0.569   1.243 -0.4178 -0.0021 -0.2876
 4996W        W 9196   8.393   5.121   4.618 -0.1992 -0.0852  0.2685
 4997W        W 9197   0.301   5.895   0.719  0.0589  0.0624  0.0145
 4998W        W 9198   7.568   7.583   5.239  0.0209  0.0881 -0.0424
 4999W        W 9199  10.133   7.932   2.495  0.0450 -0.4324 -0.1744
 5000W        W 9200   4.305   5.735  12.526 -0.0510 -0.1229  0.0075
 5001W        W 9201   8.070   6.893   9.055  0.3232  0.0008  0.1799
 5002W        W 9202   1.083   6.474   3.630 -0.0233 -0.3527 -0.0641
 5003W        W 9203   9.756   4.608   9.011 -0.3172 -0.0748  0.0354
 5004W        W 9204   3.795   8.445   9.077 -0.0156  0.1062 -0.0285
 5005W        W 9205   4.118   5.348  12.923 -0.1143 -0.1775  0.1906
 5006W        W 9206   2.713   9.459   9.064 -0.0450  0.0434  0.0489
 5007W        W 9207   8.056   9.516   2.776 -0.0528 -0.3689  0.2177
 5008W        W 9208   0.012   6.770   9.493  0.4450  0.1439 -0.0290
 5009W        W 9209   5.930   6.724   0.049 -0.0976 -0.2049 -0.1786
 5010W        W 9210   8.725  10.508   4.431  0.0356  0.0477  0.1423
 5011W        W 9211   0.154   1.879  10.773 -0.0976 -0.2291 -0.0152
 5012W        W 9212   7.442   7.145  11.594 -0.1602 -0.0517 -0.0704
 5013W        W 9213   0.174  10.477  13.071  0.3297  0.0211  0.0863
 5014W        W 9214   6.837   0.486  10.013 -0.2373 -0.0848 -0.0248
 5015W        W 9215   9.123   0.232   3.549  0.0983 -0.0568  0.2246
 5016W        W 9216   4.649   1.222  12.789  0.2103 -0.2026  0.0737
 5017W        W 9217   3.520   2.537   9.488  0.2192  0.1322  0.2733
 5018W        W 9218   1.032   8.374   3.233 -0.2095 -0.1893 -0.1120
 5019W        W 9219   4.222   9.560  11.215 -0.3437  0.2445 -0.1348
 5020W        W 9220   8.739   1.892   8.614 -0.0080 -0.0006  0.0852
 5021W        W 9221   1.325   8.043   2.527  0.1707  0.0051  0.0501
 5022W        W 9222   4.464   5.406   1.481  0.1249  0.3382 -0.1214
 5023W        W 9223   1.094   3.703   0.089 -0.2698  0.2510  0.2540
 5024W        W 9224   8.528   0.331   1.110  0.0457 -0.1874  0.0110
 5025W        W 9225   5.218   7.218   8.389 -0.1180 -0.0698 -0.1877
 5026W        W 9226   2.714   7.767  10.487  0.0007  0.0836  0.0067
 5027W        W 9227   2.622   9.204   1.370  0.0643  0.2287 -0.3564
 5028W        W 9228   8.546   5.581   9.901  0.1454  0.0233 -0.1873
 5029W        W 9229   4.987   5.741   9.675  0.4293  0.0693  0.4005
 5030W        W 9230   3.090   1.438   2.524  0.3391  0.0735  0.0688
 5031W        W 9231  10.524   3.368   1.346 -0.1103  0.0036  0.1540
 5032W        W 9232   2.396   8.645   3.367  0.0046  0.0515  0.1437
 5033W        W 9233   3.204   0.921  11.495  0.2443  0.2395  0.1192
 5034W        W 9234   8.533   1.610   9.418  0.6186 -0.1697  0.0753
 5035W        W 9235   2.604   9.438   0.927 -0.1205  0.1167 -0.1415
 5036W        W 9236   2.766   4.314  11.921 -0.1745  0.1518 -0.2169
 5037W        W 9237   9.303   7.309   9.608 -0.0702 -0.1682 -0.0404
 5038W        W 9238   6.143   8.745   3.860 -0.2137 -0.2244  0.2782
 5039W        W 9239   2.325   3.477   2.076  0.1404  0.0039 -0.0714
 5040W        W 9240   9.300   6.031   3.707 -0.0485  0.1142  0.0011
 5041W        W 9241   1.190   8.617   1.358 -0.0901 -0.0566  0.0441
 5042W        W 9242   3.444   6.249   2.332  0.5100 -0.2595  0.0530
 5043W        W 9243   9.041   6.117   4.731  0.0965 -0.1468 -0.0248
 5044W        W 9244   9.045   9.044   0.248 -0.0140  0.0829 -0.0250
 5045W        W 9245   3.021   8.024   9.631  0.2768 -0.0331  0.0351
 5046W        W 9246   5.385   6.454   9.543 -0.0236 -0.0490  0.0918
 5047W        W 9247   5.955   4.817   4.258  0.1034  0.2397  0.1251
 5048W        W 9248   3.307   8.692   9.076 -0.1209  0.1643 -0.1737
 5049W        W 9249   9.478   6.993   0.352  0.0464  0.0153  0.1925
 5050W        W 9250   0.135   6.614   4.472 -0.5512  0.1667  0.2957
 5051W        W 9251   5.510   3.473  12.140 -0.0904 -0.0930 -0.1477
 5052W        W 9252   3.331  10.511   1.382  0.2027  0.0571  0.0233
 5053W        W 9253   8.318   7.469  13.174 -0.0724  0.1144  0.1022
 5054W        W 9254   6.956   6.858   3.235 -0.2032 -0.0936  0.2372
 5055W        W 9255   1.851   6.025   3.215 -0.1194 -0.0826 -0.1497
 5056W        W 9256   3.022   2.065  11.731  0.1834 -0.0657  0.1827
 5057W        W 9257   8.520   7.819  11.402  0.4592 -0.1421  0.0603
 5058W        W 9258   1.667   0.781  12.838 -0.0278  0.0834 -0.1758
 5059W        W 9259   0.849   9.486   9.789 -0.3795 -0.1599  0.2488
 5060W        W 9260   1.005   9.385  12.549  0.1394  0.2046  0.0352
 5061W        W 9261   2.478   7.857   1.540 -0.0314  0.0144 -0.2761
 5062W        W 9262   3.924   6.026   9.649  0.0057  0.3489  0.1383
 5063W        W 9263  10.419   7.737   0.082 -0.0435 -0.2915 -0.1053
 5064W        W 9264   2.301   6.200  10.699 -0.1318 -0.1135  0.2328
 5065W        W 9265   8.934   8.957   8.122  0.0483  0.0510 -0.1093
 5066W        W 9266   3.583   4.562   1.369 -0.2715  0.4835  0.2770
 5067W        W 9267   9.928   0.204  10.026 -0.0652  0.0789 -0.0769
 5068W        W 9268   8.159   0.643   2.920 -0.1653 -0.0491 -0.0321
 5069W        W 9269   0.450   6.578   1.378 -0.0555 -0.0176 -0.0738
 5070W        W 9270   0.456   1.407   8.345  0.2646  0.2469  0.1694
 5071W        W 9271   6.597   2.658   0.170 -0.2672  0.0151 -0.1395
 5072W        W 9272   0.179   4.030   3.918  0.0853 -0.0584  0.3383
 5073W        W 9273   2.879   0.817  10.431  0.0833  0.0324  0.0257
 5074W        W 9274   9.615   9.941   3.474 -0.2959 -0.0441 -0.0346
 5075W        W 9275   6.536   3.291   2.244  0.2821  0.2994  0.1718
 5076W        W 9276   0.689   9.979   2.140 -0.1549 -0.0731  0.0047
 5077W        W 9277   8.887   3.781   9.701 -0.0907 -0.0592 -0.1680
 5078W        W 9278   7.226   1.792  11.033  0.0751 -0.2681  0.2187
 5079W        W 9279   8.638   7.694   1.815 -0.1385  0.1366  0.0123
 5080W        W 9280   4.632   0.622   2.668  0.0158 -0.0380 -0.1635
 5081W        W 9281   7.302   8.370  12.765  0.1822  0.1411 -0.2727
 5082W        W 9282   1.696  10.144  11.912  0.2458  0.4039  0.2237
 5083W        W 9283   6.301   7.421   0.971 -0.1351  0.0341  0.0109
 5084W        W 9284   7.081   8.192   0.855  0.1520 -0.2271  0.1222
 5085W        W 9285   4.736   3.518   1.010  0.0207  0.1481  0.0127
 5086W        W 9286   2.112   2.488   8.393  0.1527 -0.0747 -0.1820
 5087W        W 9287   9.669   6.030  11.449 -0.0916  0.1147  0.0022
 5088W        W 9288  10.538   1.515  10.525 -0.2357 -0.1707  0.0090
 5089W        W 9289   1.468   8.013  10.201 -0.2462 -0.0124  0.1733
 5090W        W 9290  10.211   3.397   9.811  0.0689 -0.1198 -0.0272
 5091W        W 9291   0.165   3.992  11.989  0.4119 -0.1129 -0.0753
 5092W        W 9292   0.746   7.309   9.018  0.0132  0.0260 -0.0404
 5093W        W 9293   5.912   1.106  12.529  0.1387  0.0615 -0.0895
 5094W        W 9294  10.331   3.943  12.327  0.0740  0.0586  0.1860
 5095W        W 9295   4.121   7.153  11.882  0.1311  0.1778 -0.0747
 5096W        W 9296  10.247   1.630   3.039  0.0611  0.3659 -0.2008
 5097W        W 9297   8.551   6.420   8.073  0.2079 -0.2958 -0.3945
 5098W        W 9298   4.359   5.696  11.315 -0.2042  0.2080  0.1012
 5099W        W 9299   8.594  10.310   2.249 -0.0778 -0.1429  0.0605
 5100W        W 9300   0.513   4.137  11.613  0.1511  0.1691 -0.1508
 5101W        W 9301   6.779   3.503  12.836  0.2176  0.1062 -0.0391
 5102W        W 9302   8.739   6.354   0.880  0.1681 -0.0625  0.1975
 5103W        W 9303   4.603   8.760   9.729  0.0454 -0.1170 -0.2469
 5104W        W 9304   4.824   2.467   3.823 -0.0365  0.3283 -0.1160
 5105W        W 9305   1.849   3.143   0.277  0.0859 -0.1574 -0.2796
 5106W        W 9306   8.236   0.757   3.417  0.2092  0.0293  0.1715
 5107W        W 9307   9.603   4.510  11.449  0.1272  0.2609 -0.0501
 5108W        W 9308  10.031   6.192  12.381  0.0240  0.0705 -0.3033
 5109W        W 9309   2.711   7.440   1.706  0.2886  0.1346 -0.1041
 5110W        W 9310   4.923   1.001  11.250 -0.1486  0.0908 -0.1021
 5111W        W 9311   6.804  10.063   3.426  0.0846 -0.2162 -0.0137
 5112W        W 9312   1.527   7.149  12.595 -0.1660  0.0722 -0.0577
 5113W        W 9313   3.347   7.375  12.967  0.2744  0.3058 -0.0217
 5114W        W 9314   9.552   8.621  10.680  0.0047 -0.0894  0.2407
 5115W        W 9315   4.657   6.311   0.627 -0.0713 -0.1169 -0.0864
 5116W        W 9316   4.620   5.352  13.012 -0.2931  0.0794  0.1245
 5117W        W 9317   1.814   3.335   3.021  0.4448 -0.3790 -0.0256
 5118W        W 9318   1.515   4.733   9.396  0.1907  0.2319  0.2554
 5119W        W 9319  10.165   3.058  12.673  0.3372  0.0297  0.1381
 5120W        W 9320   9.665   6.014   0.344  0.0855  0.5148  0.0018
 5121W        W 9321   3.983   6.665   0.961  0.2965  0.3239  0.0992
 5122W        W 9322   6.870   2.824   1.978 -0.0377  0.0653  0.3408
 5123W        W 9323   7.259   6.778  12.851 -0.2631  0.1547 -0.1356
 5124W        W 9324   6.642  10.210   9.265 -0.0033  0.0198 -0.1648
 5125W        W 9325   2.461   8.021   9.526  0.4818  0.2365 -0.3587
 5126W        W 9326   1.605   9.072  12.168  0.0268  0.0648 -0.1407
 5127W        W 9327   6.036   2.449   2.399 -0.0066  0.2727  0.1154
 5128W        W 9328   6.953   3.971   0.327  0.0096  0.1138 -0.3746
 5129W        W 9329   4.399   3.316  12.415 -0.1413 -0.2150 -0.0254
 5130W        W 9330   5.497   6.451  11.230 -0.0362 -0.2298 -0.3032
 5131W        W 9331  10.005   4.042  11.280  0.1153 -0.0773 -0.5346
 5132W        W 9332   0.297   0.440   9.111  0.2174  0.0298 -0.3256
 5133W        W 9333   0.405   3.241  11.763 -0.7003  0.1697 -0.2036
 5134W        W 9334   5.591   8.969   1.243 -0.0188 -0.0012  0.0376
 5135W        W 9335   0.253   2.307   9.746  0.2530 -0.0645 -0.0044
 5136W        W 9336   5.800   3.648   1.941 -0.0509 -0.0758 -0.1421
 5137W        W 9337   0.314   1.969  11.787  0.1177 -0.2832  0.0450
 5138W        W 9338   1.657   6.328   3.615 -0.0783  0.3729  0.0880
 5139W        W 9339   7.225   3.645  12.681 -0.2552 -0.0295  0.1391
 5140W        W 9340   8.931  10.261   4.037 -0.0546 -0.0853 -0.1917
 5141W        W 9341   2.873   2.891   4.488  0.0582 -0.2772 -0.2250
 5142W        W 9342   0.424   9.750  12.454  0.0384  0.1965  0.1938
 5143W        W 9343   2.970   8.403   3.171 -0.2726 -0.1191 -0.0835
 5144W        W 9344   3.404   8.698   9.621  0.3319 -0.0920  0.0595
 5145W        W 9345   7.380   2.795  11.585 -0.4005  0.0615 -0.0354
 5146W        W 9346   3.930   1.326   1.247 -0.1741 -0.1318 -0.0453
 5147W        W 9347   1.420   4.130   0.015 -0.0786 -0.0637  0.1897
 5148W        W 9348   1.887   7.435   9.982 -0.3625  0.0614  0.0970
 5149W        W 9349   6.870   9.504   8.576 -0.1802  0.0803  0.0751
 5150W        W 9350   1.465   8.410  12.897  0.1962  0.0490 -0.1107
 5151W        W 9351   8.434   1.281  12.524  0.1578 -0.1642 -0.3676
 5152W        W 9352   1.426   7.504  10.345 -0.1846 -0.0559 -0.0340
 5153W        W 9353  10.018   6.333   4.798 -0.0678  0.1834  0.1259
 5154W        W 9354   9.251   7.910   2.157 -0.3572 -0.4675  0.1844
 5155W        W 9355   7.684   9.000   0.640 -0.2133  0.0506 -0.0404
 5156W        W 9356   1.813   5.799  10.819 -0.0376 -0.1897 -0.0766
 5157W        W 9357   8.751   7.498   4.108 -0.0779 -0.2730  0.3046
 5158W        W 9358   3.470   0.917   0.476 -0.4412 -0.2661 -0.2263
 5159W        W 9359   0.834  10.398   3.188  0.1219  0.1505  0.3104
 5160W        W 9360   8.467   1.617  11.489  0.0256 -0.0097  0.2034
 5161W        W 9361   6.316   1.683  11.573 -0.1410 -0.0430  0.0669
 5162W        W 9362   6.992   0.851  10.680 -0.1102  0.1745 -0.2370
 5163W        W 9363   2.601   3.789  11.785  0.0509 -0.0520 -0.0938
 5164W        W 9364   4.573   0.714   1.347 -0.0205  0.0304 -0.0189
 5165W        W 9365   8.365   0.946   2.421 -0.0353  0.1588  0.0306
 5166W        W 9366   3.774   4.774   3.474  0.0102 -0.1461 -0.1360
 5167W        W 9367   6.667   7.996  12.130  0.0305  0.0533 -0.2252
 5168W        W 9368   7.839   1.314  10.487 -0.0701  0.1168 -0.1066
 5169W        W 9369   0.325   0.999  12.268  0.1344  0.2175  0.1637
 5170W        W 9370   0.346   0.923   1.100  0.2769  0.1167  0.0750
 5171W        W 9371   0.669   5.189   3.577 -0.1405 -0.0533  0.0641
 5172W        W 9372   2.770   6.783   2.792 -0.1562  0.1991 -0.1050
 5173W        W 9373   8.341   6.328   1.696  0.0866  0.1708 -0.1474
 5174W        W 9374   3.708   8.151  12.706 -0.3202 -0.1592  0.1855
 5175W        W 9375   6.940   7.109   1.455 -0.1184 -0.0244  0.4214
 5176W        W 9376   1.514   6.103   0.324  0.0192 -0.3268 -0.3064
 5177W        W 9377   2.992   8.267   4.283  0.0642 -0.1084 -0.2758
 5178W        W 9378   3.672   1.269   3.300 -0.3375 -0.0551  0.1823
 5179W        W 9379   3.227   2.319   1.634 -0.3927  0.3843  0.0113
 5180W        W 9380   6.287   2.016   1.426  0.3940  0.1173  0.2467
 5181W        W 9381  10.548   1.369  12.095  0.1058  0.2754  0.1165
 5182W        W 9382   2.047   2.565   9.716  0.2827  0.2949  0.1402
 5183W        W 9383   4.750   6.093  10.676 -0.1501 -0.0885  0.0998
 5184W        W 9384   6.325   2.489  10.526  0.4648 -0.1235 -0.1548
 5185W        W 9385   8.406   0.779   9.408 -0.1420 -0.2159  0.1662
 5186W        W 9386   3.799   5.335   3.304  0.0347  0.1274  0.3494
 5187W        W 9387   7.142  10.476   0.523  0.1153 -0.1147  0.0605
 5188W        W 9388   3.686   7.046   4.122  0.1618  0.2019  0.1538
 5189W        W 9389   1.552   0.363  10.972  0.0958  0.0514  0.5081
 5190W        W 9390   7.345   5.410  12.732  0.0767  0.1722  0.0551
 5191W        W 9391   2.918   4.009   3.655  0.2645  0.1248 -0.0069
 5192W        W 9392   3.012   5.550   3.445  0.0873 -0.1608  0.2448
 5193W        W 9393   8.524   1.683   3.097  0.2624 -0.0655 -0.1016
 5194W        W 9394   5.530   5.415  10.880 -0.1291  0.1629  0.0641
 5195W        W 9395   0.496   2.587  12.263 -0.0268 -0.2992  0.0419
 5196W        W 9396   7.496   1.076  10.230  0.2650  0.1211  0.2793
 5197W        W 9397  10.374   2.099   3.242 -0.1330 -0.4521  0.0929
 5198W        W 9398   1.705   8.602   4.147 -0.0558 -0.2210  0.0833
 5199W        W 9399   4.852   6.601   2.837 -0.0965  0.6541 -0.4309
 5200W        W 9400   6.854   5.302  11.016  0.0865 -0.1475  0.0979
 5201W        W 9401   7.829   6.739   4.170 -0.0682  0.2230 -0.0451
 5202W        W 9402   6.207   4.709   1.055 -0.3506 -0.4467 -0.1952
 5203W        W 9403   9.908   0.042  12.620  0.1098  0.0575  0.2066
 5204W        W 9404   2.682   6.351   8.893  0.0008 -0.0568 -0.2464
 5205W        W 9405   0.632   7.357   9.753 -0.1348  0.1059 -0.0312
 5206W        W 9406   6.267   4.166  11.387 -0.2327 -0.0676  0.0105
 5207W        W 9407   8.192   2.693   4.127 -0.1881 -0.0991  0.0417
 5208W        W 9408   3.972   0.440   1.081  0.0157  0.0799 -0.2563
 5209W        W 9409   2.702   8.979   0.775  0.3291 -0.0717  0.1636
 5210W        W 9410   7.657   4.614  13.205 -0.4058  0.0031  0.2926
 5211W        W 9411   6.516   9.100   1.186  0.1546  0.1025  0.0936
 5212W        W 9412   0.167   0.577   8.561 -0.0751 -0.2773  0.1681
 5213W        W 9413  10.446   4.924   0.712 -0.0396 -0.0485  0.0996
 5214W        W 9414   9.605   8.558   5.013 -0.0310 -0.0948 -0.2261
 5215W        W 9415   1.801   0.219  11.840  0.0005 -0.1159  0.4535
 5216W        W 9416   5.599   4.885  12.248 -0.1018 -0.1266 -0.1170
 5217W        W 9417   6.481  10.023  12.941 -0.2740 -0.1940 -0.2286
 5218W        W 9418   2.813   5.240  12.245 -0.0417  0.1630 -0.0473
 5219W        W 9419   1.959   6.504   1.096 -0.3295 -0.1474  0.0344
 5220W        W 9420  10.103   1.061   4.043 -0.1426 -0.1144 -0.0565
 5221W        W 9421   1.038   2.412  11.012  0.0298  0.0825  0.1414
 5222W        W 9422   0.139   9.512  12.786 -0.2095 -0.1330 -0.3222
 5223W        W 9423   4.484   4.542   2.455  0.0882  0.0425 -0.0243
 5224W        W 9424   7.939   8.864  10.544  0.0809  0.1206 -0.1736
 5225W        W 9425   4.745   6.518  12.295  0.0889 -0.1612 -0.1550
 5226W        W 9426   4.710   6.266  11.381 -0.0104  0.2538 -0.1199
 5227W        W 9427   4.833   6.618   0.285  0.1337  0.0259 -0.0441
 5228W        W 9428   3.870   0.483   9.787  0.3614  0.0693  0.0233
 5229W        W 9429   8.615   0.106   3.880 -0.1898  0.0733  0.3439
 5230W        W 9430   9.358   5.921   3.217  0.2939 -0.0038 -0.0451
 5231W        W 9431   2.861  10.339  13.189  0.0592  0.0645  0.3881
 5232W        W 9432  10.367   1.469   4.963 -0.1520 -0.1073 -0.1169
 5233W        W 9433   0.939   0.597  11.283 -0.2688 -0.0629 -0.3536
 5234W        W 9434   1.786   5.233   0.665  0.0831 -0.0005  0.0545
 5235W        W 9435   3.601   9.552   9.791 -0.1773  0.1860 -0.0490
 5236W        W 9436   7.697   3.388   2.181 -0.1135 -0.0401 -0.3142
 5237W        W 9437   8.155   3.340   9.912  0.4414 -0.3672  0.1013
 5238W        W 9438   3.722   8.939   9.210  0.0931 -0.1849  0.2425
 5239W        W 9439   9.191   6.498   0.901 -0.0592  0.1350 -0.0328
 5240W        W 9440   6.902   9.709   2.032  0.4056  0.0622  0.5369
 5241W        W 9441  10.119   5.925   2.797  0.3474  0.2659 -0.2325
 5242W        W 9442   9.337   5.748  11.646  0.2302  0.0635  0.0621
 5243W        W 9443   3.752   2.587  11.850 -0.0469 -0.2114  0.1304
 5244W        W 9444   7.364   5.006  12.200  0.4341 -0.3364 -0.0454
 5245W        W 9445   4.856   9.648   2.158 -0.1951  0.0917  0.0340
 5246W        W 9446   1.766   9.115   0.137 -0.2739 -0.0666 -0.0747
 5247W        W 9447   7.408   0.097  10.658 -0.1313 -0.3470 -0.1446
 5248W        W 9448   5.911   5.166   3.276  0.1061 -0.0707 -0.3649
 5249W        W 9449   6.878   7.789   9.551  0.1268 -0.1324 -0.2805
 5250W        W 9450   8.204   9.204  13.036 -0.0149 -0.2199 -0.2930
 5251W        W 9451   3.819   7.139  11.044 -0.1319  0.0305  0.1732
 5252W        W 9452   3.888  10.140  11.427  0.0762 -0.0188  0.2555
 5253W        W 9453   0.823   8.649  12.035  0.1750  0.3077 -0.0416
 5254W        W 9454   1.168   2.889   2.512 -0.2215  0.1464  0.0024
 5255W        W 9455   3.290   2.618   2.009 -0.2168  0.2331  0.1332
 5256W        W 9456   4.266   2.898   3.623 -0.0830  0.0230 -0.2924
 5257W        W 9457   4.682   8.378  12.772 -0.0505  0.2404 -0.3964
 5258W        W 9458   4.336   0.615  10.845 -0.4731  0.2537 -0.0109
 5259W        W 9459   2.570   4.678  11.518 -0.0381  0.0022 -0.6293
 5260W        W 9460   4.054   8.595   0.589 -0.0938  0.3079 -0.1272
 5261W        W 9461   3.135   0.480  11.885 -0.1608 -0.2514  0.0133
 5262W        W 9462   5.540   2.357   1.025  0.2022 -0.0418  0.0164
 5263W        W 9463  10.367   5.976   8.883  0.0248 -0.2028 -0.3322
 5264W        W 9464   5.182   2.781   3.582  0.2041 -0.2831 -0.0159
 5265W        W 9465   1.852   7.305   2.290  0.1602  0.2710  0.3535
 5266W        W 9466   7.504   0.643   2.916 -0.0699  0.1573 -0.3293
 5267W        W 9467   7.306   4.511  11.812 -0.1327 -0.0047  0.2547
 5268W        W 9468   3.406   6.516   4.089  0.0195  0.1283  0.2269
 5269W        W 9469   7.720   5.135  13.068 -0.0561  0.2664  0.2383
 5270W        W 9470   7.209   6.663   8.763  0.0659 -0.1899  0.5542
 5271W        W 9471   7.302   0.346  11.168 -0.1317  0.1382 -0.0935
 5272W        W 9472   6.886   9.148  11.287  0.0240 -0.0792  0.1658
 5273W        W 9473   6.998   9.771  10.829 -0.2090  0.0709  0.1361
 5274W        W 9474   5.406  10.087  13.154  0.2836  0.3837 -0.2554
 5275W        W 9475   9.320   0.953  12.316 -0.2856  0.1180 -0.1013
 5276W        W 9476   8.550   6.620   3.683  0.0682 -0.0751 -0.0524
 5277W        W 9477   9.972   8.109   2.978 -0.1049 -0.0233 -0.0944
 5278W        W 9478   0.614   0.144   3.578  0.0043  0.0575 -0.4307
 5279W        W 9479   2.647   3.035  10.852 -0.0812 -0.1783 -0.0638
 5280W        W 9480   1.938   9.060   2.014 -0.0151 -0.0688  0.1962
 5281W        W 9481   4.895   2.236   9.552 -0.3314  0.0350 -0.0346
 5282W        W 9482   2.489   6.577   9.801 -0.1281  0.0833  0.1987
 5283W        W 9483   2.076  10.511  11.032 -0.2641  0.1549 -0.2260
 5284W        W 9484   9.876   3.432  12.871 -0.0222  0.1275  0.2116
 5285W        W 9485   5.997   7.108   1.793 -0.0741 -0.2299 -0.1145
 5286W        W 9486   1.796   3.989   9.896 -0.0504 -0.3908 -0.0412
 5287W        W 9487   6.811   1.904   3.644  0.3384  0.1244  0.2307
 5288W        W 9488   7.675   6.716  13.240  0.2945  0.1547  0.3386
 5289W        W 9489   3.973   5.699   3.710  0.2444  0.1213  0.1540
 5290W        W 9490   6.848   3.805   3.213  0.1182  0.0492 -0.1400
 5291W        W 9491   3.838   1.352  11.810 -0.0628  0.0070  0.2374
 5292W        W 9492   1.448   5.755   8.487  0.0847  0.1068 -0.1456
 5293W        W 9493   9.650  10.335   1.536  0.0622  0.0743  0.0446
 5294W        W 9494   4.504   5.451  11.737  0.0289  0.2130 -0.0628
 5295W        W 9495   8.345   3.817   3.585 -0.1381 -0.1544 -0.1344
 5296W        W 9496   0.311   1.430   2.001 -0.2587  0.2897 -0.0725
 5297W        W 9497   4.813   3.919   1.980 -0.0651 -0.2455 -0.0279
 5298W        W 9498   8.924   3.106  12.718  0.0541 -0.0314  0.0754
 5299W        W 9499   1.863   4.943  12.603 -0.1640 -0.1732 -0.0858
 5300W        W 9500   5.250   5.252   0.974  0.0373  0.0076 -0.1398
 5301W        W 9501   5.917   5.804   1.219 -0.3148  0.0733  0.0996
 5302W        W 9502   7.862   0.297   2.758 -0.1401  0.2537 -0.0137
 5303W        W 9503   6.510   4.570  11.170  0.1292 -0.0763  0.1538
 5304W        W 9504   3.158   4.364   4.197 -0.2398 -0.0228  0.0012
 5305W        W 9505   7.371   4.483   8.011 -0.0948 -0.1728  0.0671
 5306W        W 9506   4.894   5.816  11.615 -0.0840  0.0172 -0.0538
 5307W        W 9507  10.453   5.031   1.644  0.2176  0.0011  0.3543
 5308W        W 9508   7.844   2.337   0.223 -0.0055 -0.0230  0.2323
 5309W        W 9509   3.757   8.864  10.589  0.1530  0.2788 -0.1051
 5310W        W 9510   0.170   3.534  10.270 -0.0243 -0.2645  0.4253
 5311W        W 9511   1.349   0.874   3.730 -0.1220  0.0973  0.2007
 5312W        W 9512   8.258  10.271  11.422 -0.1866  0.0276 -0.2317
 5313W        W 9513   1.900  10.384  11.565  0.1923 -0.0456 -0.0263
 5314W        W 9514   3.868   5.918  12.639  0.0585 -0.2880 -0.0998
 5315W        W 9515   8.525   4.070  11.101  0.1265 -0.0932  0.3061
 5316W        W 9516   7.509   6.387   3.750  0.0380  0.0906  0.1226
 5317W        W 9517   7.235   4.801   1.111  0.3030 -0.0575 -0.0411
 5318W        W 9518   1.215   6.397   0.751 -0.0514  0.1693  0.2672
 5319W        W 9519   8.464   3.263  12.871 -0.0820 -0.0914 -0.0291
 5320W        W 9520   8.405   8.739   4.812 -0.0679  0.0377  0.1757
 5321W        W 9521   7.429  10.106  10.714  0.3863 -0.0055  0.0111
 5322W        W 9522   7.098   6.232   4.625  0.0445 -0.2430 -0.0772
 5323W        W 9523   6.849   4.939  10.185 -0.0797 -0.3500 -0.1577
 5324W        W 9524   1.170   1.170   1.253  0.2139  0.0663  0.0386
 5325W        W 9525   9.336   7.001   0.840 -0.1378  0.3206 -0.1088
 5326W        W 9526   1.910   5.802   8.822 -0.1012  0.0926  0.0698
 5327W        W 9527   6.617   3.895  11.179 -0.0143  0.1160 -0.0602
 5328W        W 9528   0.864   2.341   4.526  0.0928  0.0400 -0.1957
 5329W        W 9529   1.256   4.367   0.910  0.1611  0.0468  0.1047
 5330W        W 9530   0.805   7.794  12.382 -0.4164  0.2353  0.1416
 5331W        W 9531   5.124   2.338   2.299  0.2558 -0.3090 -0.2150
 5332W        W 9532   5.584   8.674  12.012  0.1122  0.2554 -0.0126
 5333W        W 9533   9.807   4.775  12.592 -0.1042 -0.0093 -0.0300
 5334W        W 9534   9.752   6.457  11.154 -0.2412 -0.1301 -0.1029
 5335W        W 9535   4.280   6.581  13.184  0.1020  0.1439  0.1305
 5336W        W 9536   5.375   5.723   0.024 -0.1743 -0.2033  0.0570
 5337W        W 9537  10.089   0.902   2.301 -0.0002  0.1128 -0.1197
 5338W        W 9538   8.758   3.894   4.416 -0.2295  0.1479 -0.0073
 5339W        W 9539   7.517   8.795   2.730 -0.3359 -0.2766  0.0272
 5340W        W 9540   2.536   7.286   0.276 -0.2008 -0.1598 -0.2341
 5341W        W 9541  10.214   4.243   0.048  0.2332 -0.3732 -0.0031
 5342W        W 9542   0.537   3.282   1.356  0.2326 -0.0423  0.0228
 5343W        W 9543  10.058   7.665   0.861  0.1967 -0.0189  0.0023
 5344W        W 9544   7.905   9.815   0.697  0.0710 -0.0126  0.3204
 5345W        W 9545   8.413   0.864   4.645 -0.2276  0.1448  0.4079
 5346W        W 9546   3.776   1.467   9.988  0.2806 -0.1003 -0.0423
 5347W        W 9547   2.458   3.378   9.908  0.1525 -0.0972 -0.2067
 5348W        W 9548   8.939   9.620   9.534  0.0460 -0.0237  0.0461
 5349W        W 9549   5.052   0.648   1.038 -0.0484 -0.2225  0.0151
 5350W        W 9550   2.752   9.819  10.045  0.1118 -0.3243  0.1650
 5351W        W 9551   4.482  10.531  13.024 -0.0961 -0.0127 -0.0335
 5352W        W 9552   6.259   1.727   3.830 -0.1840  0.0476  0.1783
 5353W        W 9553   0.714   4.868  12.435 -0.0268  0.2936  0.0775
 5354W        W 9554   7.430   1.882   1.813  0.3477  0.3631 -0.3835
 5355W        W 9555   1.279   9.491   1.188 -0.3680  0.0363 -0.1992
 5356W        W 9556   0.263   2.936   0.208  0.3475 -0.2145 -0.0024
 5357W        W 9557   1.304   3.096  10.118  0.1370 -0.0316 -0.1301
 5358W        W 9558   3.870   8.406   0.988 -0.0596  0.0193 -0.3030
 5359W        W 9559   4.985   5.029   0.612 -0.0317 -0.0905 -0.0130
 5360W        W 9560   0.994   5.301   9.150  0.0473  0.0489  0.0226
 5361W        W 9561   8.947   4.649  11.763  0.0407  0.0987  0.3102
 5362W        W 9562   3.051  10.417  10.044  0.2524  0.1747  0.0616
 5363W        W 9563   2.951   4.717   3.521 -0.6201 -0.0447 -0.0611
 5364W        W 9564   2.774   4.629  10.419  0.0773 -0.1403 -0.1709
 5365W        W 9565   6.956   2.922  12.770 -0.1866 -0.2494  0.0296
 5366W        W 9566  10.449   1.532   0.728  0.1915  0.1725  0.0661
 5367W        W 9567   1.731  10.398  12.710  0.1348 -0.1470  0.0551
 5368W        W 9568   9.157   2.492   9.562 -0.3791 -0.0735  0.0325
 5369W        W 9569   4.375   1.128   1.625 -0.1063  0.4298  0.1703
 5370W        W 9570   6.710   8.539  12.824 -0.0184  0.0797  0.1581
 5371W        W 9571   3.403   1.423   1.334 -0.0818 -0.1763 -0.1684
 5372W        W 9572   6.917   7.032  11.594  0.0732  0.2342 -0.0112
 5373W        W 9573   3.828   0.495  10.815  0.0862  0.2376  0.2184
 5374W        W 9574   6.769   0.417   3.425  0.4296 -0.0990 -0.0756
 5375W        W 9575   7.226   9.782   3.364  0.3347  0.0666  0.0498
 5376W        W 9576   2.202  10.527   1.879  0.0795  0.1392  0.0594
 5377W        W 9577   2.834   0.150   0.241 -0.1710  0.2282 -0.3229
 5378W        W 9578   7.532   5.235   2.364 -0.1487  0.0808 -0.0747
 5379W        W 9579   5.610   6.880   4.027 -0.1848  0.1321  0.0930
 5380W        W 9580  10.203   0.382   2.309 -0.0525 -0.0664  0.0446
 5381W        W 9581   8.173   3.877   1.310  0.2616 -0.0228 -0.3975
 5382W        W 9582   4.678   5.625  10.574 -0.1569 -0.2277  0.0540
 5383W        W 9583   7.569   1.672  11.581  0.0475 -0.0169  0.2373
 5384W        W 9584   1.257   5.182   3.230  0.5005 -0.0916 -0.1402
 5385W        W 9585   4.704   9.181   0.880  0.0040 -0.0922 -0.2421
 5386W        W 9586   8.781   5.002  11.406 -0.0896  0.0879 -0.1455
 5387W        W 9587   3.741   6.068   8.201 -0.0844 -0.0650 -0.2910
 5388W        W 9588   2.406   9.365   2.464 -0.1113  0.1184  0.0888
 5389W        W 9589   1.509   4.718   1.924 -0.2302  0.0544  0.0617
 5390W        W 9590   1.085   5.741  12.167  0.1732  0.0075 -0.1920
 5391W        W 9591  10.465   4.896   2.787 -0.1758  0.3713 -0.3549
 5392W        W 9592   8.037   7.275   1.332 -0.0429  0.0849  0.1809
 5393W        W 9593   2.937   1.647   0.605 -0.1632  0.1221  0.3368
 5394W        W 9594   6.843   7.473   9.148  0.1999 -0.1614  0.1096
 5395W        W 9595   1.740   1.870  13.072  0.1664 -0.1981 -0.2266
 5396W        W 9596   5.958   7.926   8.074 -0.1666 -0.1516  0.1399
 5397W        W 9597   2.921   5.525   2.760  0.0194 -0.0539  0.5527
 5398W        W 9598   1.324   1.675  10.590 -0.1664 -0.0513 -0.0746
 5399W        W 9599   8.545   4.913   5.540 -0.1281 -0.0497  0.3876
 5400W        W 9600   2.766   4.743   9.328 -0.0099 -0.1935  0.3167
 5401W        W 9601   8.394   1.243   2.856 -0.1011 -0.4691  0.1475
 5402W        W 9602   6.287   7.941  10.838  0.2229  0.0776  0.1765
 5403W        W 9603   2.378   2.529   8.922 -0.0382  0.1129  0.4041
 5404W        W 9604  10.208   2.924   1.049 -0.0555  0.2318 -0.0737
 5405W        W 9605   7.954   6.736   1.400  0.2203  0.0188 -0.0201
 5406W        W 9606   6.661   6.099  12.238 -0.2969 -0.1145 -0.1741
 5407W        W 9607   9.903   4.942  11.688 -0.1727 -0.0992  0.1515
 5408W        W 9608  10.030   1.382   1.793 -0.0055 -0.3087 -0.4004
 5409W        W 9609   5.932   1.972   1.098 -0.4319  0.0637 -0.2210
 5410W        W 9610  10.439   0.200  11.742 -0.1622  0.2750  0.0748
 5411W        W 9611   1.626   6.873   1.138 -0.0259  0.1991 -0.0741
 5412W        W 9612   1.224   1.508   9.781 -0.1256 -0.1952 -0.5587
 5413W        W 9613   9.230   8.730  13.012 -0.0158  0.1004 -0.2944
 5414W        W 9614   9.383   6.725   2.261 -0.1868  0.0677 -0.5231
 5415W        W 9615   8.547   5.613   3.516 -0.0401 -0.0061  0.1924
 5416W        W 9616   4.339   2.589   0.231  0.1463 -0.0507 -0.0617
 5417W        W 9617   1.948   1.711   1.403  0.2383 -0.0590 -0.2121
 5418W        W 9618   7.570   1.727   0.811  0.0906 -0.0856  0.0201
 5419W        W 9619   2.478   5.230   0.593  0.0686 -0.0298 -0.0934
 5420W        W 9620   6.984   5.957   1.632 -0.0025  0.1497  0.1002
 5421W        W 9621   1.589   5.822   2.796  0.2254  0.5429  0.1606
 5422W        W 9622   9.446   2.472   8.101 -0.1245  0.2471 -0.0151
 5423W        W 9623   3.396   4.144  11.806 -0.1205 -0.1982  0.2345
 5424W        W 9624   4.485   6.194   1.469  0.1893  0.3726  0.0153
 5425W        W 9625   6.319   0.215   9.996  0.1621 -0.1689  0.4496
 5426W        W 9626   0.191   2.804  11.068 -0.1753 -0.6660  0.3027
 5427W        W 9627  10.465   7.857   0.566  0.2653  0.0576  0.1108
 5428W        W 9628   3.489   0.213  11.013 -0.1474  0.2821 -0.0043
 5429W        W 9629   8.772   2.605   9.236 -0.1668  0.3094 -0.0295
 5430W        W 9630   6.348   5.200   9.002 -0.1045 -0.0367  0.0436
 5431W        W 9631   8.670   8.827   0.522 -0.0847 -0.1054  0.5778
 5432W        W 9632   2.611   9.416  11.093 -0.2534 -0.4021 -0.2502
 5433W        W 9633   8.361   2.958   9.614  0.2433  0.0944 -0.1471
 5434W        W 9634   9.781  10.505  11.049  0.1280  0.0278  0.0196
 5435W        W 9635   7.494   7.135   1.353 -0.0507 -0.0988 -0.0847
 5436W        W 9636   5.121   8.466  12.128 -0.2916 -0.1386 -0.1683
 5437W        W 9637   2.805  10.219   4.330 -0.0426  0.0089  0.0231
 5438W        W 9638   5.841   1.054  11.542  0.1805 -0.2414  0.1351
 5439W        W 9639   5.209   8.114   1.473  0.0667 -0.0560  0.0522
 5440W        W 9640   2.133   6.222  12.506  0.1121 -0.1918 -0.3033
 5441W        W 9641   8.895   9.175   8.738  0.2329 -0.3186 -0.2658
 5442W        W 9642   7.584   3.699   0.777  0.2452 -0.1923 -0.0942
 5443W        W 9643   4.927   7.221  11.211  0.1753 -0.2897 -0.0067
 5444W        W 9644   9.342   1.311   2.612  0.0945 -0.1412 -0.1273
 5445W        W 9645   3.471  10.281  10.329 -0.1013 -0.2124  0.1765
 5446W        W 9646   0.917   8.989   3.605  0.1468 -0.2516 -0.0914
 5447W        W 9647   9.050   6.740  11.911 -0.0417  0.2187 -0.0309
 5448W        W 9648   2.202   8.417   9.944  0.0527  0.1825  0.0955
 5449W        W 9649   1.244   8.891   4.033  0.3286 -0.2360 -0.0503
 5450W        W 9650   0.920  10.386   0.876 -0.1061  0.2314  0.2375
 5451W        W 9651   0.649   8.969   2.529 -0.0212 -0.1353  0.3087
 5452W        W 9652   8.061   3.722  12.839 -0.1152 -0.0426 -0.0589
 5453W        W 9653   7.438   6.815   4.570  0.1209 -0.2460  0.1330
 5454W        W 9654   4.253   4.651   3.600 -0.2130  0.1137  0.3946
 5455W        W 9655   7.348   5.137  10.829 -0.0911  0.1232 -0.0934
 5456W        W 9656   7.048   1.612   2.654 -0.0488 -0.3854 -0.1859
 5457W        W 9657   5.768   9.670   9.944  0.1333  0.0562 -0.0965
 5458W        W 9658   3.933   3.749   2.732  0.0286 -0.0529 -0.0434
 5459W        W 9659   5.879   4.982   2.049  0.1249  0.1298 -0.1704
 5460W        W 9660   7.958   4.292   0.693  0.0584  0.0071  0.0760
 5461W        W 9661   7.731   4.002  11.034  0.1037 -0.0368  0.0819
 5462W        W 9662  10.379   0.460   3.257 -0.1053 -0.0499  0.3445
 5463W        W 9663   1.539   8.132   0.485 -0.4723  0.2658  0.1268
 5464W        W 9664   2.503   9.835  10.849  0.1508 -0.0798 -0.1755
 5465W        W 9665   1.055   4.653  12.139  0.0652 -0.0323 -0.0917
 5466W        W 9666   4.937   7.552  12.204  0.1631  0.1136  0.2029
 5467W        W 9667   6.707   7.575   1.325 -0.1817 -0.0411  0.1476
 5468W        W 9668   5.460   2.537   9.261  0.0128 -0.2493 -0.0455
 5469W        W 9669  10.333   2.842   9.128 -0.0937 -0.0009 -0.2214
 5470W        W 9670   4.248   8.157  12.939  0.2518  0.2336  0.0937
 5471W        W 9671   8.587   6.918  12.970 -0.1238 -0.2565 -0.0739
 5472W        W 9672   2.629   3.929  11.314  0.0277 -0.0689  0.1370
 5473W        W 9673   4.628   7.997   3.969 -0.1721  0.0343  0.1616
 5474W        W 9674   0.984  10.029  10.637  0.0973  0.0487  0.0601
 5475W        W 9675   6.093   7.767   3.526 -0.2227  0.0105  0.6135
 5476W        W 9676   7.107   6.042   2.360  0.2221 -0.3615  0.0307
 5477W        W 9677   9.233   0.178   9.501  0.0058 -0.5323  0.0048
 5478W        W 9678   0.831   8.118   9.404  0.2534 -0.2024 -0.0994
 5479W        W 9679   7.048   9.278  12.786  0.2600  0.0541  0.1032
 5480W        W 9680   4.013   6.214   1.906 -0.3263  0.2086 -0.2389
 5481W        W 9681   8.763   8.369  12.939  0.0596 -0.0488  0.0649
 5482W        W 9682   0.305   4.841  12.789  0.1499 -0.0530 -0.1077
 5483W        W 9683   9.628   8.721   1.149 -0.0573 -0.0852 -0.2540
 5484W        W 9684   8.211   2.173   1.454 -0.2179 -0.2407 -0.1343
 5485W        W 9685   6.412  10.431  12.606  0.0259 -0.0549 -0.6351
 5486W        W 9686   6.776   9.064   0.713 -0.0428  0.0987 -0.1511
 5487W        W 9687   3.188   8.309   3.737  0.2705  0.0522  0.4505
 5488W        W 9688  10.373   8.457   3.215  0.2536 -0.1969  0.1370
 5489W        W 9689   9.090   6.460  10.898  0.3847  0.1353 -0.0704
 5490W        W 9690   4.456   6.384  11.917 -0.0445 -0.0452 -0.0102
 5491W        W 9691   2.439  10.233   1.571 -0.2187 -0.2059  0.0180
 5492W        W 9692   6.670   4.356  10.152  0.2242 -0.0657  0.2611
 5493W        W 9693   4.205   1.000  10.540  0.2123  0.0114  0.0794
 5494W        W 9694   0.254   4.804   4.613  0.1570 -0.0074  0.1937
 5495W        W 9695   8.171  10.469  10.213  0.1191  0.1800  0.1814
 5496W        W 9696   6.934   0.956  12.009  0.3553 -0.1007  0.0783
 5497W        W 9697   2.146   6.468   1.942 -0.0993  0.0144 -0.0157
 5498W        W 9698   7.224   7.655  11.267  0.0913  0.0290 -0.0174
 5499W        W 9699   4.884   7.412  13.092  0.0049  0.0173 -0.1302
 5500W        W 9700   7.678   5.513  10.910 -0.0273  0.0964 -0.5042
 5501W        W 9701   1.364   6.545  11.159  0.1541 -0.2718  0.0390
 5502W        W 9702   8.647   1.328   4.609 -0.1229  0.1322 -0.1508
 5503W        W 9703   8.192   8.842  11.621 -0.1585  0.0705  0.1826
 5504W        W 9704   7.143  10.426   9.369  0.3309  0.0430 -0.2709
 5505W        W 9705   7.072   5.696  10.082  0.1546  0.1903 -0.2958
 5506W        W 9706   0.744   8.854   4.120  0.0281 -0.4045 -0.1197
 5507W        W 9707   5.447   2.549  10.543 -0.2644 -0.3673 -0.1377
 5508W        W 9708   6.531   0.186   1.321  0.2110  0.1716 -0.0924
 5509W        W 9709   7.977   7.061   4.593  0.0870  0.3216 -0.1007
 5510W        W 9710   7.434   3.553  11.003  0.0977  0.0167 -0.3051
 5511W        W 9711   6.799   9.517   2.458  0.2518 -0.2299  0.0962
 5512W        W 9712   2.010   1.953  12.108 -0.1863  0.1251  0.2099
 5513W        W 9713   8.476   9.806   5.438  0.0040 -0.0866 -0.4258
 5514W        W 9714   1.294   5.952   1.009 -0.0753 -0.1069 -0.1970
 5515W        W 9715   4.267   1.667   0.803 -0.1374 -0.0661  0.0822
 5516W        W 9716   0.117  10.462   1.610 -0.2717 -0.1853  0.0075
 5517W        W 9717   2.414   4.358   4.679 -0.1167 -0.1541 -0.2140
 5518W        W 9718   0.079   8.079   3.966 -0.0211  0.0709 -0.1732
 5519W        W 9719   7.493   8.482   0.673 -0.1014 -0.0784 -0.1457
 5520W        W 9720   8.760   2.701   1.689 -0.0346  0.3071  0.1388
 5521W        W 9721   5.104   9.216   1.944  0.3825 -0.0917  0.0218
 5522W        W 9722   2.268   2.399   4.496 -0.0062 -0.0315 -0.1187
 5523W        W 9723   0.782   3.153   0.942  0.1654 -0.0679 -0.1440
 5524W        W 9724   8.002   4.768   9.172  0.2071  0.2302 -0.1506
 5525W        W 9725   9.120   5.490  10.871 -0.1412  0.0238 -0.1875
 5526W        W 9726   9.902   8.294   1.122  0.0858 -0.0383 -0.0638
 5527W        W 9727   4.742   7.824  11.565  0.0879  0.0680  0.0331
 5528W        W 9728   1.101   9.461   3.916  0.2207 -0.0784 -0.0955
 5529W        W 9729   5.157   8.061   3.782  0.0910  0.0122  0.1452
 5530W        W 9730   7.927   4.307   2.535  0.2011 -0.0593  0.0036
 5531W        W 9731   0.512   7.641  13.261 -0.0481  0.0898  0.4458
 5532W        W 9732   4.772   8.921   2.344  0.0528  0.0782 -0.1668
 5533W        W 9733   9.721   8.217  10.891 -0.3567 -0.0487 -0.1792
 5534W        W 9734   7.931   6.200   1.471 -0.2266 -0.0517  0.0739
 5535W        W 9735   9.885   0.070  12.081 -0.3427  0.1610  0.4486
 5536W        W 9736   0.720   6.053  10.319  0.1252 -0.0447  0.1979
 5537W        W 9737   6.377   2.490   1.568  0.1300 -0.1831  0.0288
 5538W        W 9738   8.701   7.735   3.389  0.1453  0.1534 -0.0449
 5539W        W 9739   2.880   9.631   1.415 -0.3373 -0.1870 -0.1273
 5540W        W 9740   4.979   2.262   3.316  0.0691  0.0558 -0.0278
 5541W        W 9741   5.546   1.804   0.357  0.5702  0.1359  0.1964
 5542W        W 9742   7.513   2.887  12.741 -0.0951  0.1096  0.0526
 5543W        W 9743   7.794   8.351  12.754  0.4043 -0.1391 -0.0283
 5544W        W 9744  10.357  10.482   2.322 -0.1966  0.3663  0.0812
 5545W        W 9745   2.338   9.568  12.647  0.1884 -0.1518 -0.1037
 5546W        W 9746   7.060   5.853   9.291  0.1894  0.0535 -0.2181
 5547W        W 9747   5.846   6.758  11.038 -0.3099  0.2171 -0.0442
 5548W        W 9748   0.975  10.506  12.143  0.1537  0.1125 -0.1526
 5549W        W 9749   9.771   5.694   3.090  0.2506 -0.0074  0.2081
 5550W        W 9750   5.966  10.437  11.171 -0.3482 -0.1421  0.0494
 5551W        W 9751   6.459   6.818   3.173 -0.0766 -0.2115 -0.2168
 5552W        W 9752   4.426   9.560  10.248  0.2012  0.0459 -0.0494
 5553W        W 9753   1.220   2.120   2.764 -0.0272 -0.2610  0.0845
 5554W        W 9754   7.128   6.150  10.301 -0.1034 -0.3192  0.1957
 5555W        W 9755   2.674   3.107  12.529 -0.3061  0.0713  0.0723
 5556W        W 9756   3.803   9.334   8.811 -0.0701  0.0311  0.3617
 5557W        W 9757   2.149   8.371   8.622 -0.0079 -0.1642 -0.2782
 5558W        W 9758   0.110   3.552   9.082 -0.4407  0.4261  0.1803
 5559W        W 9759   9.513   4.096   1.003 -0.3451  0.1486  0.1201
 5560W        W 9760   9.952   1.415  11.543  0.1269 -0.0664 -0.1363
 5561W        W 9761   4.641   2.486   0.574 -0.1944 -0.0295 -0.2057
 5562W        W 9762   2.293   7.999   2.654 -0.0879  0.2281  0.1224
 5563W        W 9763   9.932   0.284   5.160 -0.2762 -0.0238  0.1031
 5564W        W 9764   9.968   1.931   1.320  0.0226 -0.2186  0.3281
 5565W        W 9765   6.621   4.932  13.101  0.0165  0.0274  0.1271
 5566W        W 9766   4.494   7.599  10.329 -0.0827  0.0887 -0.2057
 5567W        W 9767   7.789  10.454  13.179 -0.1069  0.0049 -0.2120
 5568W        W 9768   6.306   7.056   0.609  0.1835  0.0520 -0.0167
 5569W        W 9769   8.607   1.430   1.587 -0.0273  0.1543  0.1104
 5570W        W 9770   3.868   0.087  11.697  0.1162  0.2540  0.1922
 5571W        W 9771   3.796   5.382   1.562 -0.0207 -0.1078  0.4155
 5572W        W 9772   1.341   2.696   1.890 -0.0783 -0.0291  0.1047
 5573W        W 9773   5.254   2.814  12.799 -0.4664  0.0002 -0.0734
 5574W        W 9774   2.228   6.315   1.490  0.0504 -0.0980  0.0268
 5575W        W 9775   2.238   4.002  10.756  0.0177 -0.0863  0.2808
 5576W        W 9776   5.276  10.262   1.295  0.2154  0.0124  0.1289
 5577W        W 9777   8.837   0.736   2.149 -0.0215 -0.1381  0.0975
 5578W        W 9778   0.344   3.361   2.267  0.1469 -0.1214 -0.1167
 5579W        W 9779   0.315   2.048   3.186 -0.1522 -0.0400 -0.1888
 5580W        W 9780   8.019   7.500   2.824 -0.1039 -0.2661  0.2127
 5581W        W 9781   7.522   8.398   3.094 -0.2977 -0.1285 -0.0659
 5582W        W 9782   5.818   1.372   0.187  0.0369 -0.1720 -0.2378
 5583W        W 9783  10.241   2.532   4.390  0.0522  0.5645  0.1036
 5584W        W 9784   9.652   3.897  10.339 -0.2128  0.1857  0.5490
 5585W        W 9785   1.809   0.280   1.718  0.1358  0.2789 -0.0668
 5586W        W 9786   3.692   6.220   0.995 -0.2154  0.3188  0.2768
 5587W        W 9787   8.049   3.009   9.203 -0.0377 -0.2470 -0.1538
 5588W        W 9788   8.814   8.810  10.101  0.2834 -0.1097  0.2344
 5589W        W 9789   7.339  10.335   2.696 -0.4671  0.2594  0.1473
 5590W        W 9790   4.610   9.116  13.090 -0.1765  0.2370  0.0068
 5591W        W 9791   8.718   4.740   9.644 -0.1176 -0.1847  0.1844
 5592W        W 9792   7.878   6.898   0.448 -0.2382  0.0193  0.4100
 5593W        W 9793   1.225   5.188   9.553  0.1892 -0.0660 -0.1907
 5594W        W 9794   2.341   0.979   0.940  0.2608 -0.0623  0.0383
 5595W        W 9795   9.377   7.379   1.370  0.0978  0.3091  0.1587
 5596W        W 9796   8.162   5.321  10.159  0.0401 -0.3339  0.3136
 5597W        W 9797   1.594   2.636   3.889  0.3254 -0.2486 -0.1044
 5598W        W 9798   6.622   5.073   4.363 -0.0514 -0.1363  0.0815
 5599W        W 9799   1.886   3.945   3.256 -0.0235 -0.1105 -0.0031
 5600W        W 9800   6.409   5.501  11.657 -0.1231  0.0670  0.1959
 5601W        W 9801   4.199   9.293  12.822  0.0958 -0.0823 -0.3350
 5602W        W 9802   0.272   1.313   1.387 -0.0774  0.0525 -0.0464
 5603W        W 9803   8.159   1.217   9.541 -0.3961 -0.1973 -0.1245
 5604W        W 9804  10.232   5.575   4.325  0.1871  0.0963 -0.1439
 5605W        W 9805   0.849   2.027  10.236 -0.0441 -0.1633 -0.0313
 5606W        W 9806   8.795   8.540   2.238 -0.0567 -0.0228  0.0255
 5607W        W 9807   3.860   0.277   0.434  0.1429 -0.1221 -0.1578
 5608W        W 9808   1.517   8.950   3.545  0.2649  0.1116 -0.1882
 5609W        W 9809   1.435   8.669   1.846 -0.2818  0.2684  0.1649
 5610W        W 9810   4.292  10.410  11.494 -0.0436  0.2248  0.0116
 5611W        W 9811   7.459   9.035   2.242 -0.0646  0.1268 -0.1088
 5612W        W 9812   8.363   1.696   4.835  0.1352 -0.1443 -0.0002
 5613W        W 9813   4.979   3.782   3.652 -0.1142 -0.1906 -0.0982
 5614W        W 9814   1.935   5.957  12.859 -0.0518 -0.0672 -0.1178
 5615W        W 9815   6.286   4.237   9.855  0.0720  0.2011 -0.1260
 5616W        W 9816   3.549   1.564  10.977 -0.0093  0.0441 -0.0978
 5617W        W 9817  10.499   6.122   0.149 -0.1767 -0.1987 -0.1121
 5618W        W 9818   3.522   3.825  10.102  0.2455 -0.1937  0.0010
 5619W        W 9819   1.898   6.889   3.275  0.2799  0.1790  0.0109
 5620W        W 9820   2.810   7.474   9.539 -0.0264  0.0335  0.2525
 5621W        W 9821   0.351   2.609  11.628 -0.2122  0.1507  0.1683
 5622W        W 9822   7.712   2.386   3.368  0.0581  0.0720  0.3583
 5623W        W 9823   7.504   9.527   0.804 -0.0225  0.0416  0.2112
 5624W        W 9824   6.929   6.311   8.539 -0.0148 -0.1612  0.2578
 5625W        W 9825   9.450   7.996   9.574 -0.1732 -0.0161 -0.5588
 5626W        W 9826   0.125   9.165  10.175  0.1882  0.0366 -0.3220
 5627W        W 9827   3.404   3.253  10.039 -0.1901  0.0426 -0.0252
 5628W        W 9828   4.900   5.106   8.966  0.3395  0.0587 -0.0106
 5629W        W 9829   2.413   1.046  10.411  0.2904 -0.1019  0.1040
 5630W        W 9830   8.303   3.680   4.081  0.2197  0.0653  0.0672
 5631W        W 9831   8.371   9.741   9.567  0.1004 -0.3859 -0.0040
 5632W        W 9832   5.672   2.066   2.448 -0.1622 -0.0378 -0.1288
 5633W        W 9833   1.440   8.415   4.476  0.3170  0.0156 -0.2729
 5634W        W 9834   6.246   5.889  11.935 -0.1502 -0.2371  0.0624
 5635W        W 9835   7.966   9.588  11.405 -0.2748  0.1215 -0.0782
 5636W        W 9836   7.147   2.341  11.779  0.0465  0.1720 -0.1377
 5637W        W 9837   8.581   3.380   9.666 -0.3148  0.0109  0.1500
 5638W        W 9838   7.916  10.247   1.307 -0.1755 -0.0353  0.2759
 5639W        W 9839   4.088   6.233   0.516  0.2026 -0.1328  0.1029
 5640W        W 9840   8.284   2.414  11.752 -0.4125  0.2324 -0.0452
 5641W        W 9841   9.531   4.455   1.636  0.1308  0.2503 -0.2320
 5642W        W 9842   0.965   0.641   2.824  0.3145  0.0747  0.1700
 5643W        W 9843   4.752   0.995  12.144  0.1838  0.0667 -0.4248
 5644W        W 9844   3.925   0.897   2.084 -0.0148 -0.0794 -0.0187
 5645W        W 9845   6.778   0.695  11.098  0.0895 -0.5171  0.0521
 5646W        W 9846   9.784   5.008   8.551  0.0778  0.2330  0.1666
 5647W        W 9847   3.004   9.903   2.691  0.1182 -0.2383  0.1751
 5648W        W 9848   7.194   6.875   2.282  0.1686 -0.0708  0.0885
 5649W        W 9849   2.277   3.846   0.311 -0.2655 -0.0345 -0.3981
 5650W        W 9850   5.848   1.980  12.012 -0.0249 -0.2995  0.2357
 5651W        W 9851   0.961   1.547  11.410 -0.0433 -0.2447 -0.3338
 5652W        W 9852   9.226   5.844  10.494 -0.1968 -0.2118  0.0629
 5653W        W 9853   4.615   6.863  11.917  0.0891 -0.1413  0.1950
 5654W        W 9854   4.389   3.522  10.408  0.2614 -0.2416 -0.0259
 5655W        W 9855   9.567   6.364   8.814  0.0914 -0.0081  0.0793
 5656W        W 9856   0.846   8.959   1.617  0.0072  0.2957  0.1214
 5657W        W 9857   7.351   6.885   7.823 -0.1804  0.2422  0.0974
 5658W        W 9858   1.603   5.857   9.672 -0.1700 -0.0758 -0.1058
 5659W        W 9859   3.160   8.593  10.093 -0.2156 -0.0284 -0.1367
 5660W        W 9860   1.117   4.766   2.346  0.0577 -0.2508  0.1183
 5661W        W 9861   9.338   3.696  10.960 -0.0688  0.1377 -0.2762
 5662W        W 9862   1.954   1.503   2.469  0.0916 -0.0563 -0.0528
 5663W        W 9863   1.546   3.582   2.683 -0.1925 -0.1488 -0.2272
 5664W        W 9864   6.341   2.018   2.969 -0.0468  0.0677  0.3895
 5665W        W 9865   2.884   5.150  12.738  0.3823 -0.1317 -0.1093
 5666W        W 9866   0.282  10.080   8.071  0.0191 -0.3201 -0.0944
 5667W        W 9867   4.920   6.379   3.259  0.2661 -0.1857 -0.0608
 5668W        W 9868   7.247   2.253   9.210 -0.3077 -0.0919 -0.3722
 5669W        W 9869   6.437  10.458   2.446 -0.3590 -0.0942 -0.1695
 5670W        W 9870   9.489   0.778  13.182 -0.3323 -0.3242 -0.0752
 5671W        W 9871   1.609   2.201   3.690  0.1100  0.3321 -0.2699
 5672W        W 9872   5.187   6.315  12.255 -0.0818 -0.2045 -0.2716
 5673W        W 9873   4.475   8.647   2.676  0.0321 -0.2246  0.0994
 5674W        W 9874   7.944   8.580  11.922 -0.0228  0.1998  0.2945
 5675W        W 9875   3.551   9.763  10.240  0.0633 -0.2889 -0.2293
 5676W        W 9876   8.302   1.582   0.377  0.0425 -0.2078 -0.1282
 5677W        W 9877   1.803   8.584   0.300  0.0080  0.0840 -0.0331
 5678W        W 9878   1.705   2.142   3.199  0.3080 -0.1345  0.2118
 5679W        W 9879   6.239   9.750   9.831 -0.0941 -0.1729  0.0990
 5680W        W 9880   0.448   0.273   1.272 -0.0105 -0.1009 -0.3430
 5681W        W 9881   3.000   7.266   0.596  0.3308  0.2301  0.1504
 5682W        W 9882   5.730   4.741   1.163  0.1408  0.0202 -0.2558
 5683W        W 9883   9.537   2.790   3.939 -0.2302 -0.2081 -0.1414
 5684W        W 9884   9.375   0.156   1.046 -0.1438  0.0289 -0.2003
 5685W        W 9885   9.813   7.625   9.494  0.0481 -0.1784  0.1765
 5686W        W 9886   1.116   7.453  12.071  0.0036  0.0044 -0.0189
 5687W        W 9887   3.940   7.920   8.370  0.1351 -0.0246  0.2603
 5688W        W 9888   0.430   7.944   0.394 -0.2551 -0.0627 -0.0497
 5689W        W 9889   4.071   9.990   3.639  0.0484 -0.0772 -0.0603
 5690W        W 9890  10.468   0.279   1.914 -0.1984  0.2438 -0.0985
 5691W        W 9891   3.421  10.041  10.846 -0.1110  0.2298  0.1160
 5692W        W 9892   0.349   1.465   0.896 -0.0350 -0.2846  0.1507
 5693W        W 9893   1.445   7.946  13.205  0.0071  0.0152  0.0322
 5694W        W 9894   0.791   4.947  10.742 -0.0863  0.2631  0.3342
 5695W        W 9895   0.975   8.058   0.040 -0.0046  0.1109  0.4119
 5696W        W 9896   0.870   3.391  13.051 -0.2651  0.0585 -0.1781
 5697W        W 9897   9.706   4.799   4.131 -0.3821 -0.1962 -0.1315
 5698W        W 9898  10.482   1.896   8.286  0.0254  0.1995  0.0975
 5699W        W 9899  10.140   9.792   3.636  0.1020 -0.0188 -0.2322
 5700W        W 9900  10.126   1.215   0.580  0.0267  0.0384 -0.0086
 5701W        W 9901   5.690   3.391   3.986  0.3037  0.0259 -0.0414
 5702W        W 9902   8.966   1.444   9.309 -0.1801 -0.2390 -0.2989
 5703W        W 9903   8.167   9.423   9.849  0.0451 -0.3401  0.1198
 5704W        W 9904   2.086   2.886  11.756  0.2835  0.2580 -0.1028
 5705W        W 9905   5.560   5.182   2.889  0.1386 -0.0337  0.1364
 5706W        W 9906   1.991   3.552  10.926  0.0986 -0.3293 -0.1423
 5707W        W 9907   9.130   4.138   2.001 -0.0795 -0.1277 -0.1641
 5708W        W 9908   9.874   2.222   9.601  0.1542  0.3547 -0.0979
 5709W        W 9909   2.124   7.235   3.968  0.3647  0.2228  0.2133
 5710W        W 9910   5.493   9.280   0.408  0.1388 -0.0061  0.0409
 5711W        W 9911   8.569   7.137  11.151  0.1297  0.2459  0.3896
 5712W        W 9912   6.078   3.852   2.830  0.1828  0.0183  0.1012
 5713W        W 9913   2.445   9.739   3.012 -0.0701  0.2242  0.1822
 5714W        W 9914   8.441   1.855   1.803  0.0746 -0.0196 -0.0094
 5715W        W 9915   4.848   2.673   0.124 -0.0666 -0.1202 -0.1457
 5716W        W 9916   0.451   5.300   1.788  0.1474  0.1479 -0.1985
 5717W        W 9917   4.382   1.452  11.817  0.0951 -0.0037 -0.1242
 5718W        W 9918   9.698   4.035  10.795 -0.1430 -0.0107  0.1591
 5719W        W 9919   1.477   3.670  10.979  0.1752 -0.1328 -0.4525
 5720W        W 9920   8.863   0.936   9.128 -0.1024 -0.2360  0.0798
 5721W        W 9921   9.094   2.253   3.464 -0.0155  0.0156 -0.0309
 5722W        W 9922   7.148   3.101  10.581 -0.3385 -0.1948 -0.1831
 5723W        W 9923   6.764   1.389   1.028 -0.1549  0.2454  0.1541
 5724W        W 9924   2.721   3.122   1.863 -0.0476  0.1807  0.0130
 5725W        W 9925   3.049   3.123   1.503  0.0857 -0.1054 -0.3183
 5726W        W 9926   3.093   3.956   9.632 -0.1383 -0.1388 -0.2428
 5727W        W 9927   1.744   1.927  10.386  0.3636  0.1267 -0.1231
 5728W        W 9928   4.381   0.070  12.544 -0.1042 -0.3919  0.1878
 5729W        W 9929   8.612   0.717   0.708  0.0997  0.0600  0.1482
 5730W        W 9930   5.422   6.733  12.379 -0.1952 -0.0556  0.0506
 5731W        W 9931   6.068   0.882   0.007  0.0286  0.2855 -0.1032
 5732W        W 9932   3.283   1.278  10.133 -0.0112  0.2828 -0.1267
 5733W        W 9933   4.313   8.054  10.163  0.1831 -0.0999 -0.0079
 5734W        W 9934   9.233   4.816  12.638 -0.0746  0.2238 -0.1051
 5735W        W 9935   0.339   2.146  10.294 -0.2345  0.3071 -0.0822
 5736W        W 9936   8.606   3.927   2.995  0.0427 -0.2365 -0.3693
 5737W        W 9937   4.428   8.487   0.865  0.1474 -0.0060 -0.2941
 5738W        W 9938   1.776   9.070   8.814  0.2148 -0.0667  0.3060
 5739W        W 9939   1.997   4.490  12.340  0.2320 -0.0477 -0.1065
 5740W        W 9940   4.062   1.680   3.103  0.0719  0.0957  0.2153
 5741W        W 9941   1.853   8.500   1.972  0.1850 -0.0868 -0.0723
 5742W        W 9942   1.489  10.517   9.727 -0.1956 -0.3142  0.2148
 5743W        W 9943   8.175   8.206   9.614  0.0726  0.3984 -0.0709
 5744W        W 9944   2.010   0.985   0.083  0.0393 -0.1983  0.0224
 5745W        W 9945   6.883  10.162  12.605 -0.0417  0.0040  0.1524
 5746W        W 9946   3.847   3.432  10.155 -0.5394 -0.1635  0.0274
 5747W        W 9947   7.748   3.971   9.007  0.0889  0.1752  0.0183
 5748W        W 9948   8.667   4.017   2.122 -0.0265 -0.0653  0.1734
 5749W        W 9949   6.211   0.990   1.529 -0.0303 -0.1131 -0.2517
 5750W        W 9950   6.895   3.731  12.270  0.2959 -0.2451 -0.0179
 5751W        W 9951   1.398  10.513   1.526 -0.1423 -0.3071  0.1189
 5752W        W 9952   8.957   3.149   4.186  0.0183 -0.0454 -0.1014
 5753W        W 9953   3.085   8.284  13.030 -0.0233  0.3817 -0.2223
 5754W        W 9954   1.671   0.739  12.349 -0.0931 -0.3565 -0.4464
 5755W        W 9955   3.166   3.181  11.471 -0.0346 -0.2459 -0.1951
 5756W        W 9956  10.472   0.627  10.964  0.2847 -0.0030 -0.2302
 5757W        W 9957   7.009  10.493   1.536 -0.2614 -0.2243 -0.1989
 5758W        W 9958  10.541   2.891  13.063  0.3932 -0.0174  0.0862
 5759W        W 9959   7.487   2.919   4.582  0.1540 -0.1496  0.1755
 5760W        W 9960   3.612   8.764  10.089  0.0928 -0.1521 -0.1258
 5761W        W 9961   9.377  10.207   5.300 -0.0633 -0.0837  0.2432
 5762W        W 9962   8.957  10.356  13.106  0.1844  0.3677  0.0789
 5763W        W 9963   9.972   5.992   4.063 -0.2274  0.0553 -0.0197
 5764W        W 9964   8.772   2.085   2.483 -0.2274 -0.1760 -0.0271
 5765W        W 9965   6.446   9.682   2.854 -0.0865  0.1776 -0.3494
 5766W        W 9966   7.946   9.034  11.166  0.2144  0.0491 -0.1319
 5767W        W 9967   5.072   5.258   3.132 -0.3541 -0.2783  0.4058
 5768W        W 9968   0.894   6.628   4.066  0.1920 -0.3015  0.2727
 5769W        W 9969   0.940   7.541   4.235  0.1203  0.0527  0.0249
 5770W        W 9970   7.576   3.322  10.024 -0.1762 -0.2881 -0.2771
 5771W        W 9971   3.502   5.201  11.845 -0.0946  0.1981  0.1003
 5772W        W 9972   1.569   7.734   1.366  0.2014 -0.1696 -0.2649
 5773W        W 9973   8.094   0.767   4.157 -0.1636 -0.0085 -0.1289
 5774W        W 9974   1.087   4.711   9.706  0.3104  0.1107 -0.1361
 5775W        W 9975   2.863  10.011   3.174  0.2831  0.1749  0.1157
 5776W        W 9976  10.176   0.287   3.793 -0.3102 -0.0840 -0.1091
 5777W        W 9977   0.484   0.748   3.422  0.1415  0.3818 -0.2359
 5778W        W 9978   4.868   2.697  11.222 -0.2748  0.2236  0.2056
 5779W        W 9979   1.564   5.939   1.823 -0.2252  0.1574  0.0796
 5780W        W 9980   9.515   3.270   0.251 -0.0237  0.0782  0.1398
 5781W        W 9981   7.671   4.129  12.030 -0.0927  0.2202  0.0254
 5782W        W 9982   5.602   3.028   3.655 -0.1205  0.0448 -0.0795
 5783W        W 9983   8.608   0.922   8.672 -0.0553  0.0580 -0.1385
 5784W        W 9984   9.376   9.364   8.923 -0.2004 -0.0353  0.0669
 5785W        W 9985   4.031   2.706   2.677 -0.0479 -0.2299 -0.0146
 5786W        W 9986   9.030   1.081   3.494 -0.0308  0.1903 -0.1846
 5787W        W 9987   9.927   0.201   0.888 -0.2018 -0.1196 -0.0700
 5788W        W 9988   9.999   6.393  10.693 -0.1416  0.1157  0.1101
 5789W        W 9989   0.678   8.046  10.851 -0.0027 -0.5544  0.1413
 5790W        W 9990   0.877   8.210   2.797 -0.1554  0.0378 -0.3361
 5791W        W 9991   4.037   4.873   3.950 -0.0975  0.2047 -0.3000
 5792W        W 9992   1.909   7.024  12.294 -0.0660  0.1710  0.1000
 5793W        W 9993   7.629   6.907  10.772 -0.4249 -0.0580 -0.2429
 5794W        W 9994   0.392   2.768   0.721 -0.1134  0.1117 -0.0153
 5795W        W 9995   3.052   3.778  12.057 -0.0931  0.0712 -0.1372
 5796W        W 9996   9.681   2.053   8.246 -0.1632 -0.2814  0.2720
 5797W        W 9997   6.491   0.144   1.993  0.0720  0.1817  0.0554
 5798W        W 9998   3.946   1.823  12.633  0.1393 -0.2334 -0.0066
 5799W        W 9999   5.903  10.542   9.507 -0.0568  0.3232 -0.1233
 5800W        W10000   0.474   1.207   4.484  0.1291  0.1550 -0.5346
 5801W        W10001   9.148   2.693   5.327 -0.2868 -0.0654 -0.1306
 5802W        W10002   8.676   3.337  11.718 -0.3581  0.3105  0.1732
 5803W        W10003   5.033   6.176   9.868  0.0479 -0.0757 -0.3282
 5804W        W10004   7.442   5.922   1.613 -0.0132  0.1578 -0.2651
 5805W        W10005   7.657   0.117   3.542  0.3507 -0.1711  0.0001
 5806W        W10006   8.139   0.030   2.325 -0.0320 -0.0449  0.1843
 5807W        W10007  10.204   0.650   4.316  0.4945  0.4312 -0.0749
 5808W        W10008  10.450   5.358  12.543  0.0907 -0.2467  0.2847
 5809W        W10009   9.186   1.200  10.916  0.1209  0.0313 -0.2637
 5810W        W10010  10.163   6.418   9.125 -0.2181  0.1378  0.3203
 5811W        W10011   9.346   6.715   9.087  0.0966 -0.0640  0.0886
 5812W        W10012   4.780   9.274   9.984  0.2647  0.1049  0.0815
 5813W        W10013   3.690   7.296   9.799  0.0700 -0.1387  0.0041
 5814W        W10014   5.697   3.125   0.034 -0.1753 -0.4829 -0.0379
 5815W        W10015   7.262   9.731   9.691 -0.0978  0.0425 -0.0692
 5816W        W10016  10.092   7.468   4.250  0.1968  0.0926  0.3162
 5817W        W10017   0.773   0.790  13.033  0.1843 -0.3727  0.0654
 5818W        W10018   8.051   3.800   0.815  0.0048 -0.0970 -0.1008
 5819W        W10019   0.230   4.242   0.229  0.0023  0.0513  0.1745
 5820W        W10020   2.860   6.907   1.366  0.1862 -0.0117  0.0837
 5821W        W10021   0.705   9.891   9.567  0.0294  0.0161  0.0952
 5822W        W10022   9.022   9.422  12.293 -0.3237 -0.1308 -0.2269
 5823W        W10023   9.418   3.609  10.007  0.0050  0.0412  0.0539
 5824W        W10024   3.996   9.673  10.076 -0.0642 -0.0102 -0.0328
 5825W        W10025   1.410   4.191  10.998  0.3667  0.1941 -0.2355
 5826W        W10026   8.537   9.499  12.572 -0.0909  0.0685  0.1479
 5827W        W10027   7.169   6.090   8.849 -0.0893  0.0097  0.0309
 5828W        W10028   2.052   4.651   2.961  0.0355  0.4316  0.1442
 5829W        W10029   4.761   9.175   1.485  0.0657 -0.0394 -0.2150
 5830W        W10030   2.145   0.363   3.733  0.0874 -0.1176  0.0699
 5831W        W10031   6.739   3.779   1.077  0.1152  0.1218 -0.0069
 5832W        W10032   7.598  10.173   9.515  0.2434 -0.0450  0.2223
 5833W        W10033   9.209   4.144  10.934 -0.3375  0.1720  0.3628
 5834W        W10034   1.290   2.786  10.638 -0.2549 -0.2228  0.1355
 5835W        W10035   2.031   7.379   0.068  0.1253  0.3195 -0.0727
 5836W        W10036   7.877   1.681   9.636  0.0277 -0.0155 -0.0892
 5837W        W10037   4.338   4.922  11.665 -0.0577  0.1118  0.1217
 5838W        W10038  10.049   2.922   4.180 -0.2703  0.0856  0.1909
 5839W        W10039   1.314   2.265  11.402 -0.1362 -0.1891  0.0048
 5840W        W10040   7.730   6.865   2.450 -0.2301  0.2867 -0.0477
 5841W        W10041   1.020   4.239  10.215  0.3255  0.4905 -0.2823
 5842W        W10042   5.078   0.027   1.923 -0.0037 -0.2214 -0.1039
 5843W        W10043   5.593   0.634   1.277  0.3666  0.0746 -0.0505
 5844W        W10044   7.429   9.187   1.194 -0.1975  0.0738 -0.1751
 5845W        W10045  10.045   1.463  12.120  0.2890 -0.3323 -0.1662
 5846W        W10046   1.844   8.361  10.281 -0.5577 -0.0787 -0.3921
 5847W        W10047   0.493   5.473   2.833  0.1499  0.0514  0.2345
 5848W        W10048   3.599  10.109   1.449 -0.1489 -0.4216  0.0014
 5849W        W10049   0.318  10.119   8.605  0.4927 -0.2476  0.2252
 5850W        W10050   6.054   9.948  11.837 -0.1524  0.1310 -0.0114
 5851W        W10051   7.946   3.581   3.781  0.0743 -0.2577  0.3615
 5852W        W10052   5.116   3.134  10.979 -0.0524  0.1658  0.2873
 5853W        W10053   1.859   8.120   3.043  0.1554 -0.0630 -0.1627
 5854W        W10054   7.615   8.933  12.095  0.0555  0.1342 -0.1895
 5855W        W10055   1.933   6.620   9.480 -0.0634  0.1982  0.1169
 5856W        W10056   3.430   2.534   2.497 -0.1802 -0.0332  0.2729
 5857W        W10057   9.498   7.424  11.265 -0.2731  0.0222 -0.1612
 5858W        W10058  10.087   9.188  11.006 -0.1930  0.1501 -0.3153
 5859W        W10059   2.706   6.720   2.268  0.2618 -0.0332 -0.0808
 5860W        W10060   0.340   0.083   4.593 -0.2550  0.2423  0.0421
 5861W        W10061   8.349   8.839   9.391  0.0594  0.4716  0.1697
 5862W        W10062   3.505   2.065  10.526 -0.2797 -0.0814  0.1520
 5863W        W10063  10.004   3.195  10.746  0.1384  0.1506 -0.0271
 5864W        W10064   7.267   1.210   2.488  0.0541 -0.0127  0.2938
 5865W        W10065   1.137   9.726   0.650  0.0712 -0.1767 -0.1243
 5866W        W10066   6.386   2.256   0.105  0.0979  0.0479 -0.0103
 5867W        W10067   6.443   6.826  11.672 -0.1150 -0.2796  0.0014
 5868W        W10068   0.689   0.795  11.647  0.0842 -0.1227  0.2447
 5869W        W10069   1.784   7.709   3.887 -0.3888 -0.2923 -0.0188
 5870W        W10070   0.621   9.774  12.897  0.1346 -0.0756 -0.0387
 5871W        W10071   4.386   1.910  12.383  0.2744 -0.2392  0.0743
 5872W        W10072   3.897   5.213  10.013 -0.0372  0.4430 -0.1750
 5873W        W10073   0.540   7.900   9.767  0.3750  0.1937  0.0181
 5874W        W10074   4.277   4.365   0.535  0.1179 -0.1263 -0.0226
 5875W        W10075   4.658   9.585  12.839  0.0097 -0.4270  0.3463
 5876W        W10076   6.225   1.556  11.080  0.0724 -0.1929 -0.0180
 5877W        W10077   2.740   8.815   1.676 -0.2061 -0.3417  0.0465
 5878W        W10078   4.412   5.828  12.974  0.0700 -0.2523 -0.0021
 5879W        W10079   7.513   8.187   1.143 -0.2461 -0.1264  0.1321
 5880W        W10080   6.694   1.598  11.197  0.2409  0.0785  0.1722
 5881W        W10081   3.878   5.667   2.317  0.0032 -0.4248 -0.0906
 5882W        W10082   3.535   3.445   1.607 -0.1590  0.0364  0.1144
 5883W        W10083   7.813   3.778   1.818 -0.1771 -0.0565  0.0566
 5884W        W10084   1.981  10.385  12.234 -0.0049 -0.2007 -0.3307
 5885W        W10085   3.030   7.370   8.440 -0.0163  0.1889 -0.1522
 5886W        W10086   5.728   5.654   3.014  0.1901  0.2988  0.1201
 5887W        W10087   3.102   2.564  10.850 -0.0756  0.1332 -0.0904
 5888W        W10088   9.567   7.394   5.404  0.1763 -0.1801  0.2345
 5889W        W10089   3.275   4.780  12.952 -0.0572  0.0366  0.0006
 5890W        W10090   2.188   4.644  11.823  0.1986  0.3834 -0.0723
 5891W        W10091   7.757   7.728  12.202  0.3601  0.0729  0.1551
 5892W        W10092   6.955   3.583  10.832 -0.1718  0.0450 -0.1094
 5893W        W10093   1.035   5.668  12.618  0.0830  0.0913 -0.2383
 5894W        W10094   8.783   7.513  12.455 -0.3586 -0.2880  0.0356
 5895W        W10095   7.963   2.444   2.129  0.1270 -0.1417  0.0339
 5896W        W10096   1.585   1.948   9.055 -0.0023  0.0337 -0.1331
 5897W        W10097   9.410   4.557   2.219 -0.3270  0.3011  0.1202
 5898W        W10098   0.045  10.046  10.176  0.1057 -0.2887 -0.2155
 5899W        W10099   0.910   2.175  12.512  0.0133  0.0657  0.1125
 5900W        W10100   5.803   3.949   9.531  0.3537 -0.1164 -0.1495
 5901W        W10101   8.864   1.747  12.234 -0.0868  0.1634  0.2091
 5902W        W10102   6.934   4.725   0.697 -0.1121  0.0632 -0.1576
 5903W        W10103   3.215   7.429   2.629  0.1921  0.3177  0.2895
 5904W        W10104   0.235   2.696   8.905 -0.2457 -0.2531  0.1924
 5905W        W10105   4.961   4.037   3.246  0.0299  0.2154 -0.0751
 5906W        W10106   5.159   7.246  10.590  0.2197 -0.0995 -0.0464
 5907W        W10107   7.277   0.639  11.596  0.1741  0.3115 -0.1719
 5908W        W10108   6.427   9.941  12.463 -0.0217  0.1483  0.0060
 5909W        W10109   7.152   0.112   3.631  0.1350  0.0421 -0.1519
 5910W        W10110  10.495   6.645   1.203  0.0351 -0.1128  0.4055
 5911W        W10111   7.285   7.759   2.677  0.0966 -0.1625  0.1662
 5912W        W10112   8.076   2.038   4.038 -0.1143  0.1289  0.2842
 5913W        W10113   3.428   2.849   0.892  0.0698 -0.0236 -0.1257
 5914W        W10114   3.138   0.334   1.075 -0.0675  0.1190 -0.3169
 5915W        W10115  10.297   8.765  10.208 -0.0534  0.2191 -0.1022
 5916W        W10116   2.834   6.103   0.106 -0.1748 -0.2605 -0.1798
 5917W        W10117   8.346   6.775   1.122  0.3408 -0.0307  0.3699
 5918W        W10118   1.140   4.726   1.419  0.1605  0.2313 -0.0314
 5919W        W10119   1.351   5.420   2.479 -0.4531  0.2327 -0.1246
 5920W        W10120   8.944   4.554   3.351  0.1287  0.1884 -0.0286
 5921W        W10121   6.511   1.369   0.606  0.0812 -0.0915 -0.1604
 5922W        W10122   0.485   9.559   8.769 -0.2968 -0.2743 -0.1823
 5923W        W10123   7.744   9.473   2.401  0.0067 -0.4094  0.3831
 5924W        W10124   2.161   4.360   0.353 -0.0792  0.2869 -0.0342
 5925W        W10125   4.454   2.960   2.731 -0.3176 -0.1947 -0.0869
 5926W        W10126  10.505   7.656  11.078  0.3869 -0.2056 -0.0658
 5927W        W10127   1.572   2.306  10.949  0.2174  0.2975 -0.3154
 5928W        W10128  10.383   6.674   4.027  0.2399 -0.0110  0.1047
 5929W        W10129   8.280   3.302  11.446  0.0201  0.0782 -0.0284
 5930W        W10130   8.370   1.112  10.025 -0.2296 -0.1390  0.1776
 5931W        W10131   4.005   6.943   8.890 -0.0054  0.2960 -0.2482
 5932W        W10132   1.981   4.164   2.828  0.0022  0.1044  0.1732
 5933W        W10133   7.362   4.421  12.803 -0.1014 -0.0373 -0.1129
 5934W        W10134   9.952   4.305   0.780 -0.1903 -0.1041 -0.0896
 5935W        W10135   7.332   7.219   8.944  0.3905  0.3393 -0.0722
 5936W        W10136   8.080   7.687   3.366  0.2385 -0.3140 -0.0506
 5937W        W10137   5.983   1.077  12.074 -0.3600 -0.3993 -0.2037
 5938W        W10138  10.260   6.786  10.400  0.0314 -0.0981 -0.0420
 5939W        W10139   0.656   5.593   2.123 -0.0999  0.3175  0.1643
 5940W        W10140   9.262  10.261   9.219 -0.1084  0.3224 -0.2011
 5941W        W10141   9.272   8.757   9.881  0.0971  0.0743  0.1062
 5942W        W10142   6.164   4.068   5.158  0.2034 -0.1594 -0.1613
 5943W        W10143   9.790   8.041   3.604  0.2302  0.0883  0.2713
 5944W        W10144   9.032   7.850  13.228  0.0796  0.1125  0.0583
 5945W        W10145   1.860   8.733  11.854 -0.1030 -0.0200 -0.2071
 5946W        W10146   0.104   9.187   8.099 -0.0575  0.1734 -0.4507
 5947W        W10147   9.757   6.730   4.676 -0.0341 -0.1573 -0.0925
 5948W        W10148   3.146   3.125   9.481 -0.0958  0.1758  0.2443
 5949W        W10149   0.691   3.160   3.885  0.1285 -0.0491 -0.2346
 5950W        W10150   0.392   0.733   4.247 -0.3162  0.0034  0.0514
 5951W        W10151   0.629   1.260   0.583 -0.2193 -0.1784 -0.1150
 5952W        W10152   2.447   2.935  11.299 -0.1528  0.2225 -0.1885
 5953W        W10153   7.437   2.754  10.382  0.0212 -0.1343  0.0688
 5954W        W10154   8.279   6.080  10.556 -0.1161  0.4474  0.0074
 5955W        W10155   3.909   4.281  10.377  0.1332  0.0484  0.2291
 5956W        W10156   3.173   2.244   9.803  0.0149  0.1562 -0.1208
 5957W        W10157  10.109   5.301   0.880 -0.1533  0.2240 -0.0975
 5958W        W10158   9.285   0.317   2.441  0.0232  0.2972 -0.3101
 5959W        W10159   9.101   0.503  12.094  0.3108 -0.0264 -0.0013
 5960W        W10160   2.440   7.189   1.311  0.1940 -0.1111 -0.1716
 5961W        W10161   5.663   2.946   0.569 -0.0938 -0.3284 -0.0100
 5962W        W10162   8.671   4.793  10.450 -0.0137  0.1145  0.1937
 5963W        W10163   3.832   0.990  12.363 -0.0950 -0.1460 -0.0618
 5964W        W10164   3.817   4.876  11.712 -0.1373 -0.1889 -0.0607
 5965W        W10165   6.179   5.155  10.165 -0.1432  0.1206 -0.1983
 5966W        W10166   3.867   6.520   9.903 -0.1154  0.1020  0.0483
 5967W        W10167   7.900   5.367   4.543 -0.3978 -0.0029 -0.0353
 5968W        W10168   4.458   3.451   0.516 -0.1326  0.0635 -0.3322
 5969W        W10169   6.195   8.196  10.382  0.1570 -0.1217 -0.2833
 5970W        W10170   5.246   8.262   9.269  0.2390  0.1363  0.3263
 5971W        W10171   8.073   6.490  10.434 -0.2059  0.3694  0.3714
 5972W        W10172   7.930   8.487  10.122 -0.1420 -0.1232 -0.3143
 5973W        W10173   7.014   9.429   0.979  0.2323 -0.0289  0.3033
 5974W        W10174   9.503   3.986   2.822  0.0846  0.2465 -0.0103
 5975W        W10175   9.525   2.881  12.149  0.1979 -0.0572  0.1212
 5976W        W10176   3.744   4.301   9.939 -0.0966 -0.2803  0.1612
 5977W        W10177   8.994   5.189  10.511 -0.2368  0.1198  0.0670
 5978W        W10178   4.761   5.574   9.145 -0.5335 -0.0049  0.2747
 5979W        W10179   0.913   2.564   0.920  0.2477 -0.1213  0.4045
 5980W        W10180   1.958   6.752   3.819 -0.2429 -0.1707 -0.2479
 5981W        W10181   6.935   6.503   0.891  0.0814  0.1129  0.4206
 5982W        W10182   4.419  10.058   3.321  0.1744 -0.0813  0.0594
 5983W        W10183   7.142   8.785  13.026  0.1689 -0.0317  0.4441
 5984W        W10184   5.397   4.944   0.285  0.0995  0.2170  0.1080
 5985W        W10185   3.268   5.706   9.042  0.2731 -0.1879 -0.1408
 5986W        W10186   2.680   8.565  10.030 -0.0033  0.2566 -0.0496
 5987W        W10187   5.212   5.849  10.616 -0.2932 -0.0618 -0.1452
 5988W        W10188   3.400  10.080   0.919 -0.1700 -0.2922  0.2257
 5989W        W10189   0.898   3.321   0.332 -0.0752  0.0421 -0.0633
 5990W        W10190   3.262   1.842   3.461 -0.0828  0.2230 -0.0600
 5991W        W10191   8.032   6.509   1.997  0.1613  0.2113  0.1936
 5992W        W10192   7.723   5.044   3.662 -0.0284  0.0219 -0.3883
 5993W        W10193   7.184   3.357  13.134 -0.1973  0.0977  0.4142
 5994W        W10194   9.027   0.336   9.895  0.0394 -0.0662  0.1467
 5995W        W10195   0.740   2.842  10.854  0.0092  0.0030 -0.0759
 5996W        W10196   5.828   7.921  10.515  0.0623 -0.1921 -0.0318
 5997W        W10197   4.783   1.070   0.352  0.3282  0.5628  0.1181
 5998W        W10198   2.250   6.566  12.221 -0.1930 -0.2976 -0.0250
 5999W        W10199   0.880   5.280   2.564 -0.2982 -0.2951 -0.0436
 6000W        W10200   0.671   9.561   1.855 -0.2620  0.3897 -0.0751
 6001W        W10201   8.690   3.056   1.260  0.1885 -0.0527 -0.0742
 6002W        W10202   5.966   6.339  12.056 -0.2854  0.2097 -0.1319
 6003W        W10203   1.712   9.616  10.899 -0.2546  0.1098 -0.0922
 6004W        W10204   8.064   8.393   2.708 -0.2522  0.0589 -0.0266
 6005W        W10205   6.311   3.146   2.675 -0.1371 -0.0025 -0.1538
 6006W        W10206   3.741   7.047  10.235 -0.1684  0.1400  0.0344
 6007W        W10207   0.141  10.198   1.075 -0.1787  0.0763 -0.1272
 6008W        W10208   3.718   9.267   1.637 -0.0071  0.2070 -0.1024
 6009W        W10209   7.994   3.605  11.807 -0.1291  0.0296  0.1680
 6010W        W10210   9.531   5.008   1.960  0.2273  0.0183 -0.0398
 6011W        W10211   8.338   2.230  12.437  0.1061 -0.0710  0.0522
 6012W        W10212   1.766   3.627   0.110  0.0197  0.0358  0.0650
 6013W        W10213   6.413   7.354   2.674 -0.3936 -0.0173  0.0799
 6014W        W10214   8.580   3.738   0.981  0.2610  0.0631 -0.2449
 6015W        W10215   2.011   2.522   3.533  0.5548 -0.0577  0.1193
 6016W        W10216   9.709   5.163   1.447  0.0696 -0.2175  0.0598
 6017W        W10217   7.872   8.133   0.720  0.0081 -0.1377 -0.0830
 6018W        W10218   6.046   0.606   5.852 -0.0063  0.1331 -0.3821
 6019W        W10219   4.286   4.105  11.565 -0.2042 -0.0781  0.1046
 6020W        W10220   9.153   0.790  10.062  0.0199  0.1144 -0.0308
 6021W        W10221   6.640   4.422   3.857 -0.4063  0.1502 -0.3361
 6022W        W10222   4.575   4.525  11.762  0.0842 -0.2112  0.2992
 6023W        W10223   4.004   6.692   1.848 -0.1902 -0.2883  0.2172
 6024W        W10224   6.737   0.974   1.290 -0.2022 -0.0714 -0.2184
 6025W        W10225   9.279   4.028   4.426  0.0748 -0.0134 -0.0780
 6026W        W10226   9.091   9.827   1.865 -0.3949 -0.3478 -0.0448
 6027W        W10227   9.907   2.381   3.946  0.0996  0.2988 -0.4934
 6028W        W10228   7.616   5.571   0.620  0.0486 -0.0414  0.0949
 6029W        W10229  10.468   8.234   8.995  0.2477 -0.0031  0.2174
 6030W        W10230   8.447   0.372   3.209 -0.2469  0.3236 -0.0162
 6031W        W10231   1.233   9.657   1.727 -0.0519  0.1157 -0.3164
 6032W        W10232   4.863  10.133  13.174  0.1919  0.0627 -0.1686
 6033W        W10233   3.756   4.474   8.539 -0.4542  0.0311  0.0376
 6034W        W10234   1.214   9.489  11.681 -0.0242  0.0097  0.0472
 6035W        W10235   1.577   9.101  12.891 -0.1867  0.0668  0.0706
 6036W        W10236   5.349   5.355   4.107  0.0686  0.0430 -0.3545
 6037W        W10237   6.297   7.056  12.362  0.3383  0.2151 -0.2923
 6038W        W10238   9.408   1.518   0.841  0.1791  0.0601 -0.1024
 6039W        W10239   1.544   4.578   2.897 -0.1673 -0.4027  0.0679
 6040W        W10240   6.994   0.070   2.871 -0.1245 -0.0550 -0.2066
 6041W        W10241  10.475   1.126   2.125 -0.2363 -0.0089 -0.1244
 6042W        W10242   4.839   6.330  13.095 -0.1865 -0.3526  0.0143
 6043W        W10243   5.637   1.483   2.442  0.0258 -0.1923  0.0173
 6044W        W10244   6.531   9.101  12.196  0.0057 -0.1891 -0.4581
 6045W        W10245  10.252   9.427   9.045 -0.2969 -0.0727 -0.1324
 6046W        W10246   1.565   0.883  10.203  0.0948  0.3282  0.1069
 6047W        W10247  10.201   8.752   3.657  0.0577  0.0815 -0.2491
 6048W        W10248   6.686   0.105  12.976  0.1291  0.2151  0.1360
 6049W        W10249   1.444   9.979  12.851 -0.0891 -0.2303 -0.0334
 6050W        W10250   9.540   7.880  11.470 -0.0103 -0.1441 -0.0825
 6051W        W10251   3.378  10.092   3.389 -0.6024  0.1773 -0.0725
 6052W        W10252   2.478   8.531   0.841  0.0636 -0.3784  0.0348
 6053W        W10253   8.407   3.556  10.862  0.2613  0.0000  0.2805
 6054W        W10254   2.173   1.037  10.845 -0.1373  0.1976  0.1336
 6055W        W10255   1.027   5.455   3.788 -0.2463  0.3157  0.0267
 6056W        W10256   0.174   5.109   0.342 -0.2228 -0.0064  0.1907
 6057W        W10257   1.096  10.506   2.734  0.0310  0.1400  0.3349
 6058W        W10258   9.690   5.062   2.429 -0.2379 -0.1374  0.0461
 6059W        W10259   1.385   9.721   2.270 -0.0548  0.0465 -0.0817
 6060W        W10260   3.266   7.278   1.543  0.1369 -0.3349 -0.1864
 6061W        W10261   3.106   1.049  12.477  0.2337  0.1300 -0.0242
 6062W        W10262   8.847   4.845   1.595  0.1678  0.0257  0.3076
 6063W        W10263   8.878   8.662  12.497 -0.3208 -0.0699 -0.0641
 6064W        W10264   1.141   0.492   4.158  0.2429  0.0343  0.4059
 6065W        W10265   2.158   7.340   1.753 -0.0731 -0.4618  0.0839
 6066W        W10266   9.858   8.992   4.017 -0.0513 -0.0861  0.1012
 6067W        W10267   4.780   0.589  11.739 -0.2860 -0.0223 -0.1937
 6068W        W10268   7.516   1.965   9.482 -0.1314 -0.1409 -0.0194
 6069W        W10269   7.318   5.476   2.017  0.0872  0.0716  0.1768
 6070W        W10270   5.054   9.374  12.476  0.1298  0.0977 -0.1102
 6071W        W10271   3.218   9.333  11.192  0.0030  0.0641  0.1604
 6072W        W10272   6.898   7.314   1.927  0.1985 -0.1168  0.0722
 6073W        W10273   7.584   1.641  12.904 -0.0454 -0.0240  0.4352
 6074W        W10274   6.330  10.399  13.213  0.0997  0.0636 -0.2073
 6075W        W10275   8.593   5.025  11.882 -0.0782 -0.0529  0.0138
 6076W        W10276   8.503   4.375  13.046 -0.0293 -0.2525 -0.4619
 6077W        W10277   1.415  10.462  11.640  0.0468 -0.1681  0.1142
 6078W        W10278   6.364   3.291   9.425 -0.2315 -0.1711  0.0514
 6079W        W10279   8.166   4.792  11.104  0.2401  0.1044 -0.0650
 6080W        W10280   5.564   0.676  11.593  0.1913 -0.0443 -0.3121
 6081W        W10281   9.657   6.884  13.129 -0.3800  0.0750 -0.1451
 6082W        W10282   3.709   5.821   1.859 -0.1308  0.0160 -0.1506
 6083W        W10283   1.114   2.201   9.251 -0.0248 -0.0831  0.0672
 6084W        W10284   0.527   9.280  12.376  0.3392 -0.2927 -0.1006
 6085W        W10285   0.650   3.734   4.049  0.3395 -0.1251 -0.0411
 6086W        W10286   7.549   7.070   9.802 -0.2316 -0.0040 -0.0432
 6087W        W10287   9.977   7.201  12.788  0.1408  0.1840  0.1640
 6088W        W10288   9.877   8.979  11.945  0.0752  0.1641 -0.2266
 6089W        W10289   6.989   9.831   0.192 -0.2808  0.2363  0.0814
 6090W        W10290   5.435  10.455  12.850  0.2194  0.0688  0.0220
 6091W        W10291   2.082   7.628  12.619 -0.3470  0.1772 -0.1436
 6092W        W10292   0.050   5.322  10.184 -0.2496 -0.0268 -0.0659
 6093W        W10293   1.081   9.959   1.087  0.1828 -0.2022 -0.0274
 6094W        W10294   8.470   3.236   0.821  0.0337  0.2179 -0.0577
 6095W        W10295   2.308   8.084  10.315  0.1030  0.1057 -0.1701
 6096W        W10296   0.256   5.108   9.525  0.1462  0.1033  0.0484
 6097W        W10297   8.119   7.003   3.733 -0.0790  0.3078  0.1116
 6098W        W10298   1.639   0.271  13.012 -0.2091 -0.1183  0.4606
 6099W        W10299   3.170   3.099  10.924  0.0090  0.1491  0.0259
 6100W        W10300   7.442   2.264  10.762  0.0362 -0.2195 -0.2544
 6101W        W10301   9.464   1.925   3.415  0.0125  0.0234 -0.0731
 6102W        W10302   5.925   4.113   0.063  0.1905  0.1695  0.0942
 6103W        W10303   4.157   6.272   4.600 -0.0396 -0.1578  0.4390
 6104W        W10304   1.059   7.838   1.451 -0.0330  0.4526 -0.0738
 6105W        W10305   8.652   1.879  10.564  0.2401  0.3540  0.0376
 6106W        W10306   7.875   5.495   3.916 -0.0592  0.2466  0.0370
 6107W        W10307   7.581   3.694  11.467  0.1905 -0.1655 -0.1271
 6108W        W10308   4.288   2.599   1.893  0.3510  0.1174 -0.0006
 6109W        W10309   1.257   4.360   9.045  0.0682 -0.1836  0.1785
 6110W        W10310   3.930   6.620   9.317  0.1083  0.0125  0.2460
 6111W        W10311   4.589   9.554   3.038  0.2420 -0.0334 -0.0362
 6112W        W10312   9.924   6.328   0.061  0.2588  0.1806  0.0931
 6113W        W10313   1.521  10.496   2.075 -0.0438  0.2146  0.1067
 6114W        W10314  10.415   0.660   0.411  0.1181 -0.1010  0.0501
 6115W        W10315   5.533   0.468  10.653 -0.2945 -0.1492  0.0020
 6116W        W10316   1.270   1.878   2.165 -0.2167  0.0002 -0.0286
 6117W        W10317   1.928  10.213   9.500 -0.3096  0.1356 -0.1550
 6118W        W10318   4.614   7.761   4.397  0.1291 -0.2098 -0.3450
 6119W        W10319   2.400   8.590  10.489  0.3353  0.1546  0.0705
 6120W        W10320  10.223   3.097   4.689  0.0100 -0.0093 -0.1706
 6121W        W10321   7.943   1.426  12.532  0.0434 -0.0903  0.1481
 6122W        W10322   9.436   7.332   4.332 -0.0776 -0.2246  0.1127
 6123W        W10323   6.572   7.599  13.000 -0.2243  0.0183  0.0462
 6124W        W10324   9.782   1.732   9.703 -0.0841  0.2511  0.3113
 6125W        W10325   1.052   7.998   0.549  0.0093  0.0289 -0.1909
 6126W        W10326   1.017   7.112   9.458 -0.3463 -0.0145  0.0878
 6127W        W10327   4.402   7.903   9.569  0.3941 -0.3341  0.2047
 6128W        W10328   3.304   8.995  10.433  0.2267 -0.2161  0.1820
 6129W        W10329   5.802   1.909  12.978 -0.2466 -0.0227 -0.1435
 6130W        W10330   8.041   2.813   0.261 -0.3076  0.1973  0.0102
 6131W        W10331   1.129   1.728   0.478 -0.0361  0.1306 -0.0701
 6132W        W10332   7.442   7.639   0.200 -0.0319 -0.1342 -0.1734
 6133W        W10333   9.508   4.746  12.019  0.1683  0.0414  0.2102
 6134W        W10334   8.401   5.830   0.881 -0.0228  0.0437 -0.0974
 6135W        W10335   9.820   0.090   2.706  0.0297 -0.4013 -0.0303
 6136W        W10336   0.305   5.212   3.238  0.1065 -0.0605 -0.0061
 6137W        W10337   1.167   1.322  10.992 -0.0507 -0.0373 -0.3148
 6138W        W10338   1.469   9.485   8.924  0.0806  0.1031  0.4019
 6139W        W10339   3.146   4.979  11.554  0.3779  0.0040  0.2261
 6140W        W10340   8.254   4.608   4.607  0.1123 -0.4503  0.1339
 6141W        W10341   1.376   2.780   0.467 -0.0071 -0.1196 -0.2374
 6142W        W10342   3.278   3.832  10.616 -0.2358  0.0476  0.2002
 6143W        W10343   1.741   8.160   3.537  0.0689 -0.0550  0.0367
 6144W        W10344   3.264   5.530   1.603  0.0549  0.1179  0.1174
 6145W        W10345   3.909   0.030  10.014 -0.2180  0.1308 -0.2340
 6146W        W10346   7.947   0.763  11.234  0.0886 -0.3417  0.2067
 6147W        W10347   7.255   7.565   1.710 -0.0385  0.1565  0.4149
 6148W        W10348   8.671   1.243   0.002  0.1579  0.0813  0.1948
 6149W        W10349   2.742   9.413   3.337  0.1055 -0.1522  0.0657
 6150W        W10350   1.297   8.482   3.691 -0.1342  0.0798  0.1780
 6151W        W10351   8.955   5.310   1.812 -0.1008  0.1176  0.1590
 6152W        W10352   4.688   1.654   2.631  0.1787 -0.3872 -0.0696
 6153W        W10353   0.239   7.755   3.038  0.1096  0.0545  0.3848
 6154W        W10354   4.372   8.010   3.095  0.2150 -0.0738  0.0227
 6155W        W10355   3.047   7.697  11.233  0.1683  0.0303  0.2443
 6156W        W10356   0.252   0.216   3.124  0.0113  0.0480  0.0278
 6157W        W10357   6.127   9.813  10.478 -0.2667 -0.5179 -0.2531
 6158W        W10358   7.710   2.492   9.452  0.0282  0.3133 -0.3573
 6159W        W10359   9.852   8.870  12.453 -0.0225  0.0400 -0.2057
 6160W        W10360   7.180   7.028   9.376 -0.3030  0.2249  0.2382
 6161W        W10361   2.947   2.387   2.581 -0.0346  0.1126 -0.0966
 6162W        W10362   1.912   5.434  12.874  0.0297 -0.0154  0.3626
 6163W        W10363   0.016   0.531  10.467  0.1120  0.3935 -0.0411
 6164W        W10364   4.425   2.953   0.540  0.0982 -0.0915  0.1472
 6165W        W10365   3.699   8.958  12.236 -0.0474 -0.0842 -0.1385
 6166W        W10366   6.915   2.242  12.279 -0.1084 -0.0152  0.2656
 6167W        W10367   8.757   4.425   4.291  0.2209  0.5043 -0.0793
 6168W        W10368   5.987   9.158   0.212  0.2883  0.0359 -0.2295
 6169W        W10369  10.389   2.708   3.801  0.2783  0.0557 -0.3172
 6170W        W10370   7.044   4.963  12.671 -0.1022  0.4134  0.2800
 6171W        W10371   2.219   1.514  11.846  0.0949  0.0963  0.3064
 6172W        W10372   6.886   8.595   8.659  0.0712 -0.2646 -0.0015
 6173W        W10373   5.447   1.950   2.005 -0.0845 -0.0666 -0.1359
 6174W        W10374   9.645   9.783   2.999  0.2568  0.3097 -0.0292
 6175W        W10375   1.830   7.386  11.185 -0.1566  0.0881  0.1006
 6176W        W10376   4.070  10.241  13.002 -0.0147  0.0644 -0.2238
 6177W        W10377   0.852   3.626  10.940  0.0265 -0.3212 -0.0377
 6178W        W10378  10.536   2.329  10.775  0.0595  0.1777 -0.1326
 6179W        W10379   5.094   9.274   9.168 -0.0187 -0.0680 -0.0550
 6180W        W10380   8.824   6.787   2.306  0.0931  0.0995  0.1495
 6181W        W10381   2.592   5.415   3.113  0.0098 -0.2510 -0.0426
 6182W        W10382   6.565   8.189   0.573  0.1936 -0.1892 -0.1327
 6183W        W10383   0.291  10.317   2.188 -0.0724  0.1598  0.1782
 6184W        W10384   9.472   6.763  12.114 -0.1437  0.0807 -0.1416
 6185W        W10385  10.542   0.377   4.166 -0.1753 -0.0860  0.0254
 6186W        W10386   0.245   3.673  12.436  0.1064  0.1441  0.1555
 6187W        W10387   8.295   7.961  12.689 -0.2125  0.3022 -0.0598
 6188W        W10388   2.279   4.011   4.032  0.0916 -0.1524 -0.2550
 6189W        W10389  10.101   9.467   9.546  0.3832 -0.2019  0.2353
 6190W        W10390  10.386   6.318  10.332 -0.1111 -0.2975  0.0166
 6191W        W10391   9.385   8.296  11.285 -0.0710 -0.2453 -0.1080
 6192W        W10392   5.988   8.818  11.724 -0.0694  0.1823  0.2182
 6193W        W10393   1.112   5.406   2.001 -0.0684  0.2245  0.0213
 6194W        W10394   7.334   4.212   9.068 -0.0140 -0.3849  0.1900
 6195W        W10395   0.097  10.118   2.985  0.0493 -0.4448 -0.1962
 6196W        W10396   8.911   2.947  11.463  0.0911 -0.2744  0.1827
 6197W        W10397   3.783   9.520  12.617  0.1197 -0.2822 -0.0516
 6198W        W10398   3.325  10.124   9.454 -0.3484 -0.0851  0.2377
 6199W        W10399   5.227   7.449   9.259  0.3293  0.0829 -0.1029
 6200W        W10400   6.649   7.660  10.005 -0.0188  0.0661 -0.1152
 6201W        W10401   0.145   0.745   0.043 -0.0662  0.0618  0.3551
 6202W        W10402   0.127   8.595   4.301  0.0851 -0.1967 -0.0448
 6203W        W10403   2.108   8.253   1.609  0.1076 -0.0957  0.0850
 6204W        W10404   2.268   9.637  13.166  0.2348 -0.0353 -0.0789
 6205W        W10405   8.678   0.120   0.106 -0.2614 -0.0711  0.2303
 6206W        W10406   9.582   5.823   4.356 -0.1633 -0.1088  0.1827
 6207W        W10407   4.246  10.409  10.680 -0.0651  0.1493 -0.0234
 6208W        W10408   6.751   5.925  11.233  0.0423  0.1580 -0.0466
 6209W        W10409   9.428   0.245   1.565  0.0690  0.1393  0.1130
 6210W        W10410   0.731   2.866   8.816  0.2448 -0.1368 -0.0586
 6211W        W10411   3.136   3.718  12.593 -0.0830  0.1361  0.1281
 6212W        W10412   6.319   0.212   0.861 -0.2460 -0.0476 -0.0241
 6213W        W10413   2.432   0.641  10.647 -0.3167 -0.3654  0.0798
 6214W        W10414   1.544   1.792   2.632 -0.2529 -0.0086  0.0719
 6215W        W10415   7.632   6.982   3.831 -0.2170 -0.2839  0.2023
 6216W        W10416  10.240   1.885   0.432 -0.0329 -0.0458 -0.2564
 6217W        W10417   1.484   1.795   1.097 -0.1866  0.1682  0.0320
 6218W        W10418   8.451   7.986  10.673  0.0166 -0.0920  0.2410
 6219W        W10419   5.068   3.713   0.599 -0.0693  0.3094 -0.0686
 6220W        W10420  10.325   3.263   2.966 -0.3095  0.2206  0.1916
 6221W        W10421   4.569   7.805  12.962  0.2697 -0.0948  0.3263
 6222W        W10422   7.044   4.751   4.170 -0.2109  0.0081 -0.0490
 6223W        W10423   6.569   3.650   2.866 -0.0748 -0.0616 -0.3387
 6224W        W10424   6.503   3.025  12.046 -0.2441  0.1228  0.1527
 6225W        W10425   4.574   0.610   0.357 -0.0398  0.0174  0.1860
 6226W        W10426   5.953   5.275   4.446 -0.0811  0.1326  0.1418
 6227W        W10427   1.618   5.205   2.864 -0.0141 -0.1455  0.0222
 6228W        W10428   5.989   6.007   9.572 -0.3860 -0.0584  0.0438
 6229W        W10429   6.642   0.593   0.983  0.0840 -0.2711 -0.0256
 6230W        W10430   4.122   7.725  12.703  0.1431 -0.2665  0.0654
 6231W        W10431   7.658   1.875   3.100 -0.1380 -0.2397  0.0089
 6232W        W10432   4.990   4.306  13.135  0.1533 -0.1376  0.1605
 6233W        W10433  10.094   6.832   9.352 -0.2111  0.2549  0.2113
 6234W        W10434   0.838   1.265   2.682 -0.0765  0.1011 -0.1236
 6235W        W10435   9.770   7.796   9.970  0.2616  0.1486 -0.3261
 6236W        W10436   1.918  10.322   0.442 -0.1959  0.0868  0.1258
 6237W        W10437   8.594   6.309   8.630 -0.2240 -0.1068 -0.1385
 6238W        W10438   1.357   1.130   8.456 -0.1969  0.0668  0.1929
 6239W        W10439   1.976   8.335   4.506 -0.0431 -0.0439  0.2949
 6240W        W10440   7.348  10.244   9.891 -0.1345 -0.1398 -0.0080
 6241W        W10441   9.028  10.294  12.139  0.0583  0.1550  0.0028
 6242W        W10442   9.931   6.734  12.499 -0.0055 -0.1473  0.0630
 6243W        W10443   7.185   9.417  13.234 -0.4714  0.3252 -0.1817
 6244W        W10444   9.752   9.106   2.760 -0.4132 -0.0690 -0.1277
 6245W        W10445   9.297   1.435   3.286  0.1709  0.0487 -0.0407
 6246W        W10446   7.237   6.568   4.192 -0.1459 -0.2526  0.2843
 6247W        W10447   6.130   7.635   1.428  0.0298 -0.1175  0.0283
 6248W        W10448   1.755   1.775  10.862  0.0697  0.2698 -0.0585
 6249W        W10449   4.909   0.805   3.511 -0.1912 -0.0164 -0.1237
 6250W        W10450   0.515   1.165   3.975 -0.1147 -0.0940 -0.0716
 6251W        W10451   3.587   9.580   0.318 -0.1249 -0.1842  0.1790
 6252W        W10452   3.111   7.371   4.218  0.2929  0.1377  0.2508
 6253W        W10453   3.916   3.998   0.870  0.1421 -0.1066 -0.0870
 6254W        W10454   8.819   4.531   9.203 -0.1472 -0.2280 -0.1083
 6255W        W10455   5.235   9.333  11.567 -0.0549 -0.2236  0.0702
 6256W        W10456   3.682   7.160   4.717 -0.3577  0.0289 -0.0479
 6257W        W10457   5.793   7.325   4.383 -0.1574  0.1246  0.1148
 6258W        W10458   4.420   9.833  11.562  0.1295 -0.0403 -0.1210
 6259W        W10459   9.742   2.956  10.350 -0.3139  0.1490 -0.1289
 6260W        W10460   2.896   0.782  11.045 -0.0454 -0.2735 -0.3648
 6261W        W10461   5.319   4.246   1.224  0.0142  0.0363 -0.1197
 6262W        W10462   3.591   2.114   1.239 -0.0491 -0.0896 -0.0258
 6263W        W10463   3.611   3.047   9.457  0.0864  0.1163 -0.0003
 6264W        W10464   4.182   2.306  12.740  0.0256  0.2450  0.2400
 6265W        W10465   2.632   3.716   2.730  0.2249  0.1474  0.1408
 6266W        W10466   2.456   2.869   0.919  0.4239 -0.2439 -0.0060
 6267W        W10467  10.128   9.449   4.055 -0.0739 -0.1074  0.0902
 6268W        W10468   2.732   2.386   3.059 -0.2892  0.2813  0.0483
 6269W        W10469   6.120   5.599   0.825  0.0069 -0.1449  0.0385
 6270W        W10470  10.013   2.985   2.122  0.1795  0.0191  0.2019
 6271W        W10471   2.463   5.824  11.598 -0.2336  0.0538 -0.1084
 6272W        W10472   9.358   4.969   8.943  0.1733  0.0007 -0.0744
 6273W        W10473   0.671   6.928   3.510  0.0338 -0.1526 -0.0142
 6274W        W10474   6.935   0.987  11.464  0.0479 -0.0862 -0.0993
 6275W        W10475   6.836   6.788   4.003  0.0989  0.0125  0.0235
 6276W        W10476   4.616   7.103   0.224  0.1840  0.2237 -0.2341
 6277W        W10477   9.412   6.287  10.198  0.0098 -0.0333 -0.1674
 6278W        W10478   7.526   8.336  11.374 -0.0843 -0.4250 -0.0259
 6279W        W10479   5.943   0.455   9.782 -0.1396 -0.2314  0.0104
 6280W        W10480   1.099   7.607   0.945 -0.3135 -0.1788  0.2329
 6281W        W10481   5.777   2.340  11.654  0.4600 -0.0214  0.4328
 6282W        W10482  10.202   2.784  10.194 -0.1391 -0.0315 -0.0068
 6283W        W10483   6.392   7.254  10.283  0.1982  0.2433  0.0445
 6284W        W10484   9.180   2.296  10.719 -0.0076  0.0747  0.2386
 6285W        W10485   0.974   5.182  12.791 -0.0772  0.1949  0.1137
 6286W        W10486   4.215   3.783   1.197  0.0156 -0.0486  0.1197
 6287W        W10487   7.935   5.340   9.548 -0.5052  0.1748  0.2282
 6288W        W10488   2.444   6.695  10.820 -0.0708  0.4888  0.1850
 6289W        W10489   6.348   5.951   1.939  0.0149 -0.0027 -0.1104
 6290W        W10490   3.654   3.767  12.713  0.2001  0.2174  0.1713
 6291W        W10491   8.837   9.138   4.028  0.1111  0.2820  0.1147
 6292W        W10492   4.645   6.533  10.100 -0.1359  0.1250  0.1487
 6293W        W10493   8.084   2.158   3.132 -0.3474  0.0589  0.0860
 6294W        W10494   2.329   9.360   3.640 -0.1872 -0.1748 -0.0931
 6295W        W10495   3.549   3.812  11.216  0.4081  0.0998  0.0689
 6296W        W10496   6.851   0.942   0.704  0.1045  0.1107 -0.2593
 6297W        W10497   2.344   6.986   3.582  0.1086 -0.1347  0.0218
 6298W        W10498   8.934   7.720   4.539  0.1588  0.3520 -0.2291
 6299W        W10499   7.006   4.762   1.646  0.1579 -0.0196 -0.2349
 6300W        W10500   1.213   7.178   0.237 -0.3661  0.3829  0.0214
 6301W        W10501  10.123   2.486   3.371 -0.0366 -0.1051  0.0518
 6302W        W10502   0.869  10.530   0.369 -0.1058  0.0302 -0.2028
 6303W        W10503   1.305   3.643   1.641  0.1601  0.1501  0.0013
 6304W        W10504   8.674   1.690  12.704 -0.0023  0.2184  0.0632
 6305W        W10505   0.976   9.542   8.713  0.0260  0.2416 -0.1867
 6306W        W10506   8.696   0.132  12.151 -0.1086  0.2688  0.2193
 6307W        W10507   3.844   1.314   0.681  0.0126 -0.0176 -0.1435
 6308W        W10508   0.924   3.842   3.614 -0.2226 -0.1466  0.2090
 6309W        W10509   1.565   9.315   3.978 -0.1227  0.1641  0.0207
 6310W        W10510   1.890   0.279  12.571  0.3184 -0.0252  0.1379
 6311W        W10511   4.261   1.021  12.043 -0.0379  0.0527 -0.0202
 6312W        W10512   4.625   2.886  12.118 -0.2427  0.0363  0.1444
 6313W        W10513   8.110   2.364  11.277 -0.0768  0.2616 -0.2877
 6314W        W10514  10.232   7.191   3.837 -0.0135 -0.1003  0.0885
 6315W        W10515   7.953   2.207  10.786 -0.0863 -0.0012 -0.2287
 6316W        W10516   9.184   4.317  12.255 -0.1044 -0.5380 -0.1490
 6317W        W10517   6.195   9.071   3.432  0.0118  0.1812 -0.0131
 6318W        W10518   6.892   3.563   0.644 -0.0864 -0.3573 -0.1486
 6319W        W10519   8.756   7.224   2.585  0.0956  0.0327 -0.2303
 6320W        W10520   1.803   5.799   4.304  0.2842  0.0889 -0.0788
 6321W        W10521   0.421   4.388  12.411 -0.0784 -0.0247  0.0268
 6322W        W10522   5.766   1.967   9.370 -0.4942  0.2662 -0.0363
 6323W        W10523   0.190   4.348  10.932 -0.0032 -0.2177  0.0842
 6324W        W10524   8.814   6.874   0.920  0.2869  0.0360  0.0329
 6325W        W10525   7.457   8.065  10.867 -0.0757 -0.3823 -0.3319
 6326W        W10526   3.517   9.050   1.164  0.0314  0.1205  0.3488
 6327W        W10527   9.029   2.712   3.967  0.1120  0.1820  0.1749
 6328W        W10528   7.494   9.342  11.256 -0.4746 -0.1527 -0.1166
 6329W        W10529   2.081   0.733   0.534  0.1624  0.3340  0.1034
 6330W        W10530   2.251   7.708   3.660 -0.2295  0.0111 -0.2301
 6331W        W10531   1.619   5.239   1.164  0.2266 -0.0492  0.1718
 6332W        W10532   7.158   2.175   1.484 -0.1360  0.0462  0.1561
 6333W        W10533   8.732   2.400  10.839 -0.0635  0.0126  0.0561
 6334W        W10534   8.278   0.681  10.874  0.1395 -0.0329 -0.0732
 6335W        W10535   1.896   5.001   1.511 -0.2861  0.0262 -0.1696
 6336W        W10536   5.429   2.180  12.091  0.0134 -0.0394  0.0268
 6337W        W10537   9.282   5.006  10.047 -0.1600 -0.0881  0.1866
 6338W        W10538   2.667   5.187  11.177  0.1882 -0.1226  0.0431
 6339W        W10539   9.850   4.904   9.542  0.2935  0.0796  0.0125
 6340W        W10540   8.012   3.338   0.523  0.2345  0.1970 -0.2349
 6341W        W10541   6.339   0.266   2.887  0.0582 -0.1009 -0.0260
 6342W        W10542   8.637   4.718   0.164  0.1565  0.0988  0.2024
 6343W        W10543   6.402   8.398   2.124  0.0684 -0.0274  0.0138
 6344W        W10544   2.648   5.112   3.505 -0.5374 -0.0371 -0.3226
 6345W        W10545   1.480  10.404   3.081 -0.0828 -0.1440  0.2775
 6346W        W10546   7.856   0.091   1.050  0.0448 -0.0674 -0.1779
 6347W        W10547   6.621   8.753  11.020  0.1312  0.0463 -0.0496
 6348W        W10548   0.276   9.981   3.929 -0.1634 -0.1681  0.0915
 6349W        W10549   9.524   0.755  11.045  0.1657 -0.3167 -0.2556
 6350W        W10550   5.702   7.101  13.012 -0.0050  0.0897  0.1540
 6351W        W10551   6.970   3.243   9.127 -0.2984  0.0158  0.1833
 6352W        W10552   3.109   4.475  11.561  0.3339  0.0044  0.2424
 6353W        W10553   4.428   3.206  11.230  0.1258  0.0575  0.3290
 6354W        W10554   7.289   2.107   0.543 -0.0443  0.0788  0.0675
 6355W        W10555   0.739   0.286   4.331  0.0500 -0.0074  0.1709
 6356W        W10556   1.845   7.927  12.152 -0.2072 -0.5349  0.1337
 6357W        W10557   6.787   2.330   1.798 -0.1208 -0.3088  0.4412
 6358W        W10558   1.573   1.198   4.803  0.2266 -0.0668 -0.0131
 6359W        W10559   0.963   7.963   3.989  0.1351 -0.1393 -0.0056
 6360W        W10560   3.566   5.454   4.275  0.0231  0.1302  0.0959
 6361W        W10561   2.887   0.002  11.318  0.1456  0.3530 -0.2613
 6362W        W10562   9.900   0.878  11.413  0.0109  0.2156  0.3230
 6363W        W10563   6.385   2.198  12.358 -0.4157 -0.1234  0.0343
 6364W        W10564   2.002   0.385  11.382 -0.1785  0.2503 -0.1614
 6365W        W10565   6.055   3.296   9.032  0.0195 -0.4076 -0.0867
 6366W        W10566   9.323   7.924  12.832 -0.1194  0.1071 -0.2771
 6367W        W10567   7.424   0.826  12.120 -0.1801  0.0950  0.1287
 6368W        W10568  10.303   5.936  10.689 -0.0699  0.0245 -0.1724
 6369W        W10569  10.285   0.680   1.265  0.3061  0.0459  0.1120
 6370W        W10570   8.871   7.721   1.390 -0.0361  0.0571 -0.3262
 6371W        W10571   4.716   5.012  12.023  0.1107  0.2295  0.0346
 6372W        W10572   4.441   0.553  12.216  0.3245 -0.2500 -0.2582
 6373W        W10573   7.566   9.684   0.260 -0.0165  0.0424  0.0564
 6374W        W10574   2.415   5.467   2.529  0.2894  0.3954 -0.1654
 6375W        W10575   1.283   4.190  12.067 -0.2207 -0.6128  0.3468
 6376W        W10576   1.320   8.535  11.969  0.0307  0.2574  0.0414
 6377W        W10577   8.449   8.427   3.113  0.0106  0.0529  0.0728
 6378W        W10578   3.308   1.812  11.345 -0.2607  0.0762 -0.0768
 6379W        W10579   1.090   2.507   3.753 -0.1004 -0.2259 -0.2593
 6380W        W10580   4.055   7.050   2.166 -0.1388  0.2023  0.0962
 6381W        W10581  10.452   4.201   4.409 -0.1287 -0.0196  0.1219
 6382W        W10582   6.731   3.075  13.245 -0.4416 -0.1693  0.0826
 6383W        W10583   2.335   2.795   2.159  0.2573  0.0647  0.0767
 6384W        W10584   4.888   6.097   2.079  0.2076 -0.0961 -0.0534
 6385W        W10585   5.689   6.197   1.394 -0.0290  0.0291  0.0703
 6386W        W10586   2.610   6.279  12.472 -0.0304 -0.0373 -0.0891
 6387W        W10587   8.659   9.574   9.994  0.1548  0.1265 -0.1304
 6388W        W10588   9.647   5.745  10.688  0.1121  0.0376  0.0205
 6389W        W10589  10.510   2.653   1.327 -0.0991  0.0405  0.0177
 6390W        W10590   3.233   4.767  10.330 -0.1054  0.3170  0.1192
 6391W        W10591   2.831   2.861  12.972  0.3826 -0.1089 -0.1434
 6392W        W10592   2.656   2.360   9.792  0.0306  0.3361 -0.0362
 6393W        W10593   1.435   6.843  11.588 -0.2273  0.0409  0.2204
 6394W        W10594   2.179   5.233   9.416  0.1526 -0.1284 -0.2110
 6395W        W10595   9.057   2.751  12.208  0.1695 -0.2514 -0.0825
 6396W        W10596   7.644   3.231   0.174  0.0917  0.0075 -0.1590
 6397W        W10597   5.201   6.289   2.438 -0.1982  0.3359 -0.0834
 6398W        W10598   1.054   6.609  12.921 -0.3468  0.0500 -0.1029
 6399W        W10599   5.382   5.962   0.521  0.0411  0.2581 -0.2788
 6400W        W10600   8.615   4.305  10.658 -0.2277 -0.0150 -0.0885
 6401W        W10601  10.359   8.829  12.488  0.0386  0.3252 -0.1184
 6402W        W10602   6.474   9.422   3.273 -0.2093 -0.1285  0.2086
 6403W        W10603   1.470   6.408   9.843 -0.0395  0.0011  0.0671
 6404W        W10604   7.672   3.505  12.531  0.1416  0.0107 -0.0694
 6405W        W10605   9.764   7.076   2.361 -0.2219 -0.0526  0.0490
 6406W        W10606   0.759   4.696   3.635  0.2515 -0.3564  0.1130
 6407W        W10607   8.890   5.030   9.147  0.1477  0.0202  0.2248
 6408W        W10608   4.622   7.928   1.510  0.5387  0.1746  0.0949
 6409W        W10609   9.844   8.570   9.026 -0.1842  0.1282  0.0319
 6410W        W10610   9.137   4.433   1.050 -0.1520  0.1924 -0.0722
 6411W        W10611   7.480   3.886   9.441 -0.2440  0.1445  0.1218
 6412W        W10612   7.644   5.977   1.111 -0.0896  0.2598  0.1873
 6413W        W10613   1.395   7.403   2.638 -0.1982  0.0095 -0.2496
 6414W        W10614   4.685   3.498  10.888  0.0113 -0.0729 -0.1364
 6415W        W10615   7.498   4.725   8.469  0.1690  0.0591 -0.0261
 6416W        W10616  10.089   1.565  10.271 -0.1027  0.0287  0.2495
 6417W        W10617   0.130   2.460   0.395 -0.0697 -0.3376 -0.0991
 6418W        W10618   1.520   7.496   9.390 -0.1687  0.0914 -0.2355
 6419W        W10619   3.923   8.788  11.148  0.0455  0.0470 -0.1141
 6420W        W10620   4.344   6.650   0.410 -0.1531  0.5103  0.2313
 6421W        W10621   5.575   5.516   2.131  0.0477  0.0949  0.2565
 6422W        W10622   9.763   7.064  10.250 -0.2669  0.0334 -0.0985
 6423W        W10623   1.642   0.695   9.397  0.0751 -0.0220 -0.3699
 6424W        W10624   3.517   4.311   1.809  0.0858  0.1992 -0.1449
 6425W        W10625   7.012   8.624   1.515  0.1392  0.2461 -0.1425
 6426W        W10626   5.401   5.173  11.412 -0.1767 -0.0948  0.3958
 6427W        W10627   4.435  10.369   1.092  0.1534 -0.2123  0.1415
 6428W        W10628   4.483   5.134   9.316 -0.0741  0.0860 -0.2096
 6429W        W10629   9.766   9.988  10.640 -0.1101  0.1103  0.0085
 6430W        W10630   3.409   8.203   9.350 -0.1744 -0.4117 -0.4236
 6431W        W10631   2.898   2.772   3.556 -0.1375  0.0133  0.2302
 6432W        W10632   7.531   9.391  12.658 -0.2273  0.1195  0.1984
 6433W        W10633   8.738   6.872   9.791  0.1025  0.2522 -0.0249
 6434W        W10634  10.500   7.700  10.592  0.0450 -0.1119  0.0189
 6435W        W10635   8.238   8.548  12.754  0.0474  0.4037  0.1213
 6436W        W10636   5.394   2.983   2.714  0.2537  0.0177 -0.3199
 6437W        W10637   9.046   5.700   0.289 -0.1093  0.2309  0.4022
 6438W        W10638   2.208   5.351   1.428  0.0968 -0.0045 -0.3165
 6439W        W10639   7.964   6.025   0.674  0.0532 -0.1664 -0.3547
 6440W        W10640   7.251   6.879   1.737  0.0394 -0.0689 -0.0520
 6441W        W10641   9.251   4.512   4.270 -0.2540  0.0384 -0.1394
 6442W        W10642   7.992   6.317   9.943 -0.1618  0.2498  0.2939
 6443W        W10643   9.297   9.942  13.200  0.0131 -0.0482  0.2226
 6444W        W10644   2.776   5.775  10.254 -0.2317 -0.3164  0.0238
 6445W        W10645   6.341   7.079   1.403  0.0262 -0.2240 -0.2170
 6446W        W10646   0.126   9.010  11.477  0.0967  0.1103 -0.1762
 6447W        W10647   2.376   5.148  11.953 -0.3344 -0.0732 -0.0693
 6448W        W10648   4.687   1.945  11.430  0.3344 -0.0401  0.1354
 6449W        W10649   8.963  10.253   3.576 -0.0100  0.0204  0.1546
 6450W        W10650   4.042   1.904  12.035  0.0408 -0.1528  0.1210
 6451W        W10651   3.765   0.021  10.567 -0.1925 -0.0360  0.1425
 6452W        W10652   7.217   6.511  12.388  0.1683  0.5176  0.2957
 6453W        W10653   2.579  10.274  10.271 -0.5285  0.0397 -0.2480
 6454W        W10654   5.937  10.011  13.223 -0.3102 -0.0253  0.0644
 6455W        W10655  10.303   1.978   9.663 -0.2051  0.0004  0.0803
 6456W        W10656   8.459   1.727   1.236  0.2892 -0.2393  0.3891
 6457W        W10657   3.140   6.222   9.233  0.0957 -0.0508 -0.1336
 6458W        W10658   9.713   9.574  10.918  0.3742  0.2413 -0.1456
 6459W        W10659   4.381   9.528   2.403  0.0809 -0.1363  0.3189
 6460W        W10660   8.524   8.924  11.173  0.2707  0.0220 -0.1911
 6461W        W10661   5.010   2.663   2.664  0.0807  0.0926 -0.0012
 6462W        W10662   3.931   8.086   0.630 -0.1755 -0.1208 -0.1878
 6463W        W10663   5.231   2.378  12.504  0.0003 -0.0904 -0.3172
 6464W        W10664  10.377   0.107  12.241 -0.1098  0.0885  0.0704
 6465W        W10665   6.799   6.711  12.561  0.1251  0.1775  0.1541
 6466W        W10666   0.394   6.596   9.256  0.2681  0.1276  0.2838
 6467W        W10667   3.753   8.696  11.747 -0.2120 -0.1252  0.2169
 6468W        W10668   6.659   9.784   1.087  0.0942 -0.0239  0.0671
 6469W        W10669   7.519   5.931  12.282  0.2543 -0.0085  0.1332
 6470W        W10670   0.086   7.711   2.509 -0.2362  0.2853 -0.3526
 6471W        W10671   2.254   7.745  10.706  0.0801 -0.2800  0.3180
 6472W        W10672   6.257   2.876   2.270 -0.1138  0.0763  0.0872
 6473W        W10673   1.515   9.093  11.665 -0.0766 -0.1954  0.2233
 6474W        W10674   4.349   4.496  11.270  0.0099  0.1942  0.2889
 6475W        W10675   9.582   1.716   2.374 -0.0952  0.0944  0.2282
 6476W        W10676   9.776  10.410   9.355 -0.0954 -0.1184  0.2798
 6477W        W10677   6.783   3.223  12.400  0.2071  0.1837  0.0118
 6478W        W10678   9.128   7.243   3.911  0.2481  0.2109 -0.1034
 6479W        W10679   8.458   0.612  11.334 -0.0598  0.1485  0.1492
 6480W        W10680   7.442   0.158   0.143  0.1077  0.0825  0.0233
 6481W        W10681   3.200   4.692   1.702 -0.0353 -0.2038 -0.1316
 6482W        W10682   3.729   8.469  12.289 -0.1061 -0.0050  0.0845
 6483W        W10683   1.846   5.746   0.015 -0.2024  0.3696  0.3434
 6484W        W10684   4.855   7.190  10.225  0.0979 -0.1861  0.2206
 6485W        W10685   3.412  10.316  11.211  0.1576  0.1762 -0.1961
 6486W        W10686   0.914   8.438  12.871 -0.0097 -0.3060  0.0784
 6487W        W10687   1.499   6.388   1.210 -0.0890  0.2598  0.1336
 6488W        W10688   7.072   2.980   0.844 -0.0197  0.2503  0.1275
 6489W        W10689   6.014   9.685   1.598  0.0734 -0.2468 -0.2989
 6490W        W10690   5.789   5.442  10.361  0.3336 -0.0498  0.0690
 6491W        W10691   3.165   3.904   0.876 -0.2486 -0.0075 -0.0265
 6492W        W10692   4.363   9.705  10.786  0.2701  0.0215 -0.1526
 6493W        W10693   0.895   3.268   4.361  0.1749 -0.3357 -0.0605
 6494W        W10694   2.952   9.768  12.347 -0.2245  0.0850  0.0494
 6495W        W10695   2.922   5.423   2.252  0.0835 -0.2644 -0.1795
 6496W        W10696   1.350   3.346   1.259 -0.1760 -0.2375  0.3160
 6497W        W10697   9.544  10.080  11.127  0.1567  0.0813 -0.3730
 6498W        W10698   6.170   2.780  13.091 -0.3334 -0.0571 -0.2729
 6499W        W10699   8.196   9.231  10.792 -0.1269  0.2432 -0.0473
 6500W        W10700   0.561   3.718  12.052  0.0415  0.2676 -0.1201
 6501W        W10701   8.761   6.656  11.182 -0.0894 -0.2564  0.0594
 6502W        W10702   0.293   6.349   0.992 -0.1368  0.1635 -0.1626
 6503W        W10703   9.567  10.087   1.967 -0.0551  0.0059 -0.4157
 6504W        W10704   5.619   9.272  10.970  0.0563  0.0769  0.3028
 6505W        W10705   8.951   1.684   2.752 -0.0471  0.1762  0.3202
 6506W        W10706   0.738   2.602   2.622  0.4049  0.1059 -0.1155
 6507W        W10707   9.811   4.199  12.973 -0.1258 -0.2635  0.0079
 6508W        W10708   0.682   3.403   3.384 -0.0961  0.1760  0.0795
 6509W        W10709   5.346   4.411  12.217  0.0263 -0.2437  0.0284
 6510W        W10710   7.703   3.891  10.475  0.1212 -0.1496 -0.0789
 6511W        W10711   2.676   3.967  12.335 -0.1713  0.3750 -0.2904
 6512W        W10712   8.570   3.139   9.204 -0.2541 -0.1139  0.0995
 6513W        W10713   2.357   3.569  12.375  0.1034 -0.0574  0.2013
 6514W        W10714   3.133   8.582   1.630  0.1568  0.1500 -0.1603
 6515W        W10715  10.010   7.595  10.991 -0.1682  0.1648 -0.0426
 6516W        W10716   2.140   3.773  11.987  0.3046 -0.2028  0.1587
 6517W        W10717   3.170   6.741  13.039  0.0775  0.2706 -0.0489
 6518W        W10718   5.743   3.608  12.651  0.1314  0.1448 -0.0219
 6519W        W10719   2.893   4.125  10.140 -0.0222 -0.3892 -0.1630
 6520W        W10720   4.107   4.862   2.568  0.1732  0.1079 -0.0132
 6521W        W10721   0.491   8.392   1.471  0.3808  0.0624 -0.2120
 6522W        W10722   4.513   0.304   3.601 -0.2105 -0.1398  0.1407
 6523W        W10723   0.317   0.153  10.660 -0.0643 -0.1507  0.0437
 6524W        W10724   5.749   7.103   8.479 -0.2222  0.1533  0.0708
 6525W        W10725   1.944   7.331   9.026  0.1365 -0.0507 -0.0267
 6526W        W10726   9.691   0.845   4.503 -0.1760 -0.0954  0.0032
 6527W        W10727   8.732   0.330   9.382 -0.3442 -0.3032  0.1373
 6528W        W10728   6.714   4.639   3.087  0.2578 -0.0861  0.2056
 6529W        W10729   7.295   8.933  11.096  0.0333  0.1596  0.1806
 6530W        W10730   8.507   3.519   8.360  0.0627 -0.0632  0.3146
 6531W        W10731   6.239   5.969  11.378 -0.0412  0.2191  0.0571
 6532W        W10732   4.550   3.870  12.442  0.4465 -0.4163  0.0303
 6533W        W10733   1.941   8.132  10.718  0.0351 -0.1304 -0.0143
 6534W        W10734  10.177   5.838   9.898 -0.3033  0.0640 -0.3794
 6535W        W10735  10.366   8.084   0.990 -0.0401  0.3922 -0.0325
 6536W        W10736   3.156   1.847   1.426 -0.0273 -0.1577  0.1394
 6537W        W10737   8.979   7.886   0.946 -0.3022 -0.0662 -0.0280
 6538W        W10738   2.888   3.367  10.580  0.2287 -0.0775  0.1950
 6539W        W10739   3.197   7.774   1.585 -0.0629 -0.1861 -0.0922
 6540W        W10740   2.020   3.571   9.782  0.1039 -0.0572  0.3300
 6541W        W10741   2.125   9.978   1.938  0.1835  0.1728  0.1998
 6542W        W10742   4.239   0.172  10.337 -0.3108 -0.2098 -0.1237
 6543W        W10743  10.463   6.728   2.183  0.0253 -0.2463  0.2010
 6544W        W10744   6.988   0.148  12.569  0.1891 -0.0886 -0.1459
 6545W        W10745   0.857   3.318  10.035  0.2118 -0.1106  0.0496
 6546W        W10746   6.936   6.586  10.499  0.1616  0.0877 -0.2179
 6547W        W10747  10.324   1.499   9.503 -0.2596 -0.1636 -0.1953
 6548W        W10748   9.806   9.579   9.094  0.0824 -0.2969 -0.2425
 6549W        W10749   9.162   7.514   0.502  0.0384  0.0977 -0.0528
 6550W        W10750   4.984   0.536   2.165 -0.2326  0.0255 -0.3342
 6551W        W10751   8.017   9.201   9.428  0.1154  0.0084  0.0667
 6552W        W10752   1.128  10.465   3.551  0.4919  0.0121 -0.2220
 6553W        W10753   1.465   4.086   2.940 -0.0838  0.0261 -0.0751
 6554W        W10754   3.576   2.905  10.701  0.0283 -0.1100  0.0422
 6555W        W10755   2.879   6.392   0.494  0.1451  0.2511 -0.1940
 6556W        W10756   9.952   3.851   9.376 -0.0243 -0.0317  0.2422
 6557W        W10757   1.143   0.799   9.526 -0.2195  0.3133 -0.2338
 6558W        W10758   2.337   6.974   3.043  0.1507  0.3618  0.0125
 6559W        W10759   1.375   1.019   1.890  0.0579 -0.3191 -0.2531
 6560W        W10760  10.334   6.745   3.433  0.3203  0.4293 -0.1283
 6561W        W10761   0.300   7.449   0.393  0.1689 -0.1260  0.0405
 6562W        W10762  10.193   2.435   1.817  0.4400 -0.0309 -0.2265
 6563W        W10763   0.029   6.151  11.550  0.0332 -0.0166  0.0907
 6564W        W10764   6.303   8.664   1.308 -0.4566 -0.3171  0.0283
 6565W        W10765   3.569   7.574  12.542  0.2035  0.2106 -0.2113
 6566W        W10766   8.070   7.841  11.697 -0.3620  0.1559 -0.1353
 6567W        W10767   8.559   7.239   1.147  0.0384  0.1061 -0.0837
 6568W        W10768   1.670   8.931   2.808  0.2106 -0.0313 -0.1233
 6569W        W10769   7.125   0.311  12.046  0.2943 -0.1336 -0.0445
 6570W        W10770   7.167   0.443   0.577 -0.0250  0.1045  0.1130
 6571W        W10771   0.785   5.202   3.090 -0.3603  0.1308 -0.1740
 6572W        W10772   8.679   4.569   1.220  0.0398  0.0910  0.0398
 6573W        W10773   7.138   7.030   0.114  0.1475 -0.1379  0.0552
 6574W        W10774   9.870   3.041   9.891  0.1811 -0.0148 -0.0793
 6575W        W10775   1.508   9.542  12.634 -0.2063 -0.0286 -0.0641
 6576W        W10776   2.997   3.342   0.190 -0.4957 -0.1078 -0.1453
 6577W        W10777   7.138   8.469  11.115  0.1763  0.1713 -0.0874
 6578W        W10778   9.316   3.483  11.443 -0.3155 -0.1057  0.1163
 6579W        W10779   6.806   9.958   1.500 -0.1836 -0.0174  0.1045
 6580W        W10780   2.321   7.027  11.993 -0.0489  0.2309  0.0324
 6581W        W10781   7.351   2.358  11.268 -0.1471  0.1249 -0.1694
 6582W        W10782   3.944  10.513  11.064 -0.4879  0.1447 -0.2183
 6583W        W10783   1.488   3.509   9.893 -0.2438 -0.5125 -0.2293
 6584W        W10784   3.634   6.558   8.776 -0.0448 -0.0840 -0.2500
 6585W        W10785   7.394   0.696  13.195 -0.1225  0.2038 -0.0276
 6586W        W10786   4.001   6.642  11.045  0.0706  0.1422 -0.0607
 6587W        W10787   0.071   9.068  13.236 -0.2003  0.1086  0.3715
 6588W        W10788   9.790  10.286   3.080 -0.1718  0.2219 -0.2021
 6589W        W10789   8.841   6.213   3.688  0.0123  0.3039 -0.1278
 6590W        W10790   6.741   1.413  11.680 -0.1428  0.1879 -0.1063
 6591W        W10791   6.816   8.365  11.877 -0.2742 -0.1543  0.0243
 6592W        W10792   4.160   4.697  12.651 -0.1747 -0.1716 -0.3124
 6593W        W10793  10.143   6.025   1.340  0.0335 -0.3435 -0.0959
 6594W        W10794   7.498   4.534   5.412 -0.6136 -0.0280 -0.1276
 6595W        W10795   6.329   5.051   4.790  0.1886 -0.1112  0.1625
 6596W        W10796   6.373   4.802   9.891 -0.0752  0.2967 -0.0453
 6597W        W10797   0.373   4.165   9.731  0.1782  0.2014  0.0384
 6598W        W10798   2.243   6.887  11.253  0.1385  0.1091  0.1977
 6599W        W10799   7.509   4.919  12.691  0.1471 -0.0187  0.0005
 6600W        W10800   3.772   9.950   0.015 -0.0354 -0.1581  0.0312
 6601W        W10801   3.425   8.010   0.843  0.1199 -0.0142  0.0268
 6602W        W10802  10.236   7.387  10.114 -0.1386 -0.4420  0.1742
 6603W        W10803   9.269  10.127   3.129  0.2302 -0.2510  0.1149
 6604W        W10804   7.312   2.680   3.812 -0.0783 -0.1508  0.3160
 6605W        W10805   4.463   6.658   0.891  0.1761 -0.0503 -0.0152
 6606W        W10806   6.711   9.112  10.463  0.3029 -0.2664  0.0043
 6607W        W10807   6.816   5.376   1.316 -0.1252 -0.0775 -0.1264
 6608W        W10808   8.629   5.747  13.229  0.0442 -0.0537 -0.0347
 6609W        W10809   2.327   4.143   3.192  0.0358  0.0235 -0.0784
 6610W        W10810   1.027   8.577   9.602  0.1900 -0.2546  0.1680
 6611W        W10811   5.738   6.873   2.604  0.3339  0.0280  0.0311
 6612W        W10812   7.223   1.655   2.216 -0.0475 -0.0819  0.1256
 6613W        W10813   8.207   1.860   2.694  0.1860  0.1159  0.3098
 6614W        W10814   5.455   6.452  10.736  0.0438  0.1003  0.2330
 6615W        W10815   7.394   7.411  12.062  0.1317  0.2283  0.0257
 6616W        W10816   1.497  10.016   1.312 -0.1559 -0.2004 -0.1972
 6617W        W10817   5.216   9.751   0.180 -0.3632 -0.1057 -0.1245
 6618W        W10818   8.768   9.568   9.075  0.0358 -0.0658 -0.5275
 6619W        W10819   4.987   0.742  10.719  0.2050 -0.0169 -0.3703
 6620W        W10820   2.643   8.705  11.673  0.0917 -0.0211  0.1251
 6621W        W10821   4.763   7.944   9.950 -0.0454  0.0648  0.1567
 6622W        W10822   5.596   1.796   2.889  0.0459 -0.0759  0.1078
 6623W        W10823   8.198   1.371   5.466  0.2206  0.0550  0.0806
 6624W        W10824   3.698   5.659  13.015 -0.3203 -0.1263 -0.0990
 6625W        W10825   7.016   8.793   9.170 -0.0740 -0.1082  0.0194
 6626W        W10826   0.408   8.324   3.114 -0.1236  0.0416 -0.1319
 6627W        W10827   6.490   4.669  12.224 -0.3127 -0.0499  0.3988
 6628W        W10828   6.691   8.257  10.885  0.3458 -0.0593  0.1471
 6629W        W10829   7.320   4.629   4.583  0.1532  0.0015  0.3480
 6630W        W10830  10.259   1.996   0.905 -0.1499 -0.1754 -0.1128
 6631W        W10831  10.432   4.586   3.690 -0.1855 -0.0910  0.2601
 6632W        W10832   7.659   3.198  10.640 -0.0333 -0.0316  0.1453
 6633W        W10833   0.601   8.725  11.452 -0.1504 -0.1562  0.2287
 6634W        W10834   7.707   6.478  12.213 -0.3008 -0.0316  0.2268
 6635W        W10835   4.392   6.138   9.966  0.0625 -0.2232 -0.0463
 6636W        W10836   3.337   6.999   8.801 -0.0483  0.1101  0.1929
 6637W        W10837   2.802   1.200  10.732 -0.1086  0.1042 -0.0002
 6638W        W10838   3.361   4.290  10.395  0.0077  0.0540  0.0042
 6639W        W10839   7.925   4.838   8.690 -0.0273 -0.3771 -0.1321
 6640W        W10840   2.020   5.116   2.581 -0.2833 -0.1529 -0.2957
 6641W        W10841   1.846   7.783   0.254  0.0816  0.3664  0.0688
 6642W        W10842   5.139   4.873   2.778  0.2447 -0.3209 -0.1037
 6643W        W10843   2.469   2.454  11.607 -0.1023 -0.0878  0.0116
 6644W        W10844   8.285   8.126  10.224 -0.1632 -0.2281  0.1921
 6645W        W10845   6.819   5.295   3.510 -0.0431  0.1686 -0.3543
 6646W        W10846   8.571   5.917   2.245  0.0642 -0.2509  0.0865
 6647W        W10847   5.231   2.208   2.823 -0.2093  0.1172 -0.2499
 6648W        W10848  10.483   5.758   1.073  0.0764  0.2503  0.4199
 6649W        W10849  10.085   7.385   9.150  0.3691 -0.0199  0.2698
 6650W        W10850   2.590   3.841   1.820  0.2746 -0.1285  0.0640
 6651W        W10851   7.715   4.583   3.897  0.0566  0.1390 -0.2367
 6652W        W10852   8.878  10.454   3.157 -0.0343  0.0454 -0.1719
 6653W        W10853   3.793   5.490   9.589 -0.0883  0.1969 -0.1638
 6654W        W10854   2.381   6.399   2.451 -0.1479  0.0739 -0.0641
 6655W        W10855   9.691   9.876   9.519 -0.0544 -0.2188 -0.2867
 6656W        W10856   0.381   9.159   4.200  0.2377 -0.2079 -0.0227
 6657W        W10857   8.502   7.137   8.863 -0.1786  0.1219  0.1994
 6658W        W10858   4.744   3.845   9.038 -0.0795 -0.0649  0.0480
 6659W        W10859   6.394   5.919   0.339 -0.0330  0.0221 -0.1769
 6660W        W10860   9.132   3.867  12.534 -0.4722 -0.0922  0.1169
 6661W        W10861   2.066   3.163  10.176 -0.2104 -0.1825 -0.1748
 6662W        W10862   1.729   1.196  11.633  0.2844 -0.0533 -0.2768
 6663W        W10863   9.620   0.619  10.352 -0.0928  0.3125  0.1023
 6664W        W10864   1.155   6.031   9.826  0.0925 -0.4162  0.0864
 6665W        W10865   7.499   0.277  12.350  0.1246  0.0854  0.0643
 6666W        W10866   7.842   4.679  10.219 -0.1748  0.0246  0.1295
 6667W        W10867  10.501   2.408  11.398 -0.0276 -0.1673  0.0639
 6668W        W10868   1.982   3.595   4.017  0.0156  0.2842  0.0528
 6669W        W10869   9.244   6.846   9.575  0.2074 -0.2186  0.0399
 6670W        W10870   6.673   0.509  12.159  0.1428 -0.0661 -0.1700
 6671W        W10871  10.151   8.263   0.548 -0.4249 -0.1201  0.0992
 6672W        W10872   5.538   4.611   2.074  0.1184  0.0489  0.1360
 6673W        W10873   6.525   9.826  10.946  0.1699  0.2722 -0.0472
 6674W        W10874   3.258   4.265   2.281 -0.0320 -0.3300 -0.1209
 6675W        W10875   8.681   6.239   0.349  0.1125  0.0582 -0.1961
 6676W        W10876  10.290   7.592  12.467  0.0074 -0.4761 -0.0265
 6677W        W10877   9.074   9.064   2.188  0.0907  0.1408  0.0499
 6678W        W10878   0.307   9.886   2.583  0.1287 -0.1252  0.2538
 6679W        W10879   6.277   4.485   3.419  0.0160  0.1871  0.3662
 6680W        W10880   2.484   6.101  12.957  0.3261 -0.0686 -0.1052
 6681W        W10881   4.834   0.302   0.077 -0.0157  0.4864 -0.2048
 6682W        W10882   7.761   0.838  11.658 -0.1091 -0.0288  0.2208
 6683W        W10883   3.378   8.872  12.565 -0.1133  0.2063 -0.0314
 6684W        W10884   2.394   7.735   0.158 -0.1986 -0.3913 -0.1688
 6685W        W10885   1.503   6.341  11.604 -0.1035  0.0325  0.1199
 6686W        W10886   9.844  10.457   2.255 -0.2239 -0.2894 -0.2353
 6687W        W10887   5.346   4.732   0.791 -0.1393 -0.0843 -0.0495
 6688W        W10888   4.352   1.820  11.042  0.0128  0.0811 -0.1378
 6689W        W10889   4.803   2.891   1.868  0.2481 -0.0053  0.2253
 6690W        W10890   8.019   9.085   2.350  0.2111 -0.2125  0.2495
 6691W        W10891   4.864   3.190   2.510  0.1995 -0.1461  0.0126
 6692W        W10892   6.075   8.342   0.797 -0.2625 -0.0331 -0.0729
 6693W        W10893   2.889   7.441  10.128 -0.0461  0.0022  0.3106
 6694W        W10894   8.207   4.960   0.316 -0.0920 -0.1542  0.1194
 6695W        W10895   1.606   7.990   8.494 -0.1280  0.1730  0.0768
 6696W        W10896   2.154   7.833  11.306  0.1979  0.0801  0.1390
 6697W        W10897   8.424   8.631  12.197 -0.0343  0.0814  0.0435
 6698W        W10898   3.632   7.775  10.143 -0.1387  0.2710  0.2908
 6699W        W10899   0.268   4.112   2.522 -0.1681 -0.0848  0.2764
 6700W        W10900   3.834   4.368  11.594  0.1494  0.3247 -0.0791
 6701W        W10901   2.807   3.572   3.858 -0.3411 -0.0496  0.0427
 6702W        W10902   6.193   6.333   2.344  0.3089  0.0386  0.1781
 6703W        W10903   6.495   5.006   3.877  0.2023 -0.1340  0.1145
 6704W        W10904   3.286   5.380   9.499 -0.0041  0.6315 -0.0800
 6705W        W10905   4.502   1.083  10.901  0.1067 -0.2504  0.0654
 6706W        W10906   1.200   4.702   3.305 -0.1005  0.1955  0.2856
 6707W        W10907   7.940   8.806   1.882  0.0057 -0.0595 -0.2214
 6708W        W10908   9.172   0.617   1.376 -0.0320  0.1497  0.0903
 6709W        W10909   4.983   5.272   1.501  0.0050  0.0561  0.2770
 6710W        W10910   1.457   0.402  11.441 -0.3197 -0.0797  0.1320
 6711W        W10911   5.689   7.170   1.385 -0.5177 -0.3163  0.2214
 6712W        W10912   5.067   7.911   2.354  0.0690 -0.3132  0.3973
 6713W        W10913   9.425   8.392   8.680  0.2367  0.1292  0.2077
 6714W        W10914   7.085   2.854  12.158 -0.0881  0.0251  0.1611
 6715W        W10915   6.310   8.268   8.832  0.1405  0.1631 -0.0328
 6716W        W10916   1.407   5.486   9.909 -0.0778 -0.0134  0.0468
 6717W        W10917   4.362   0.940  12.554  0.2755  0.5772 -0.1539
 6718W        W10918   0.440   8.814   8.217 -0.0736 -0.1380  0.0902
 6719W        W10919  10.374  10.162  10.689  0.0070  0.0326  0.0174
 6720W        W10920   2.724   4.364   9.716 -0.1890 -0.1235  0.2384
 6721W        W10921   9.439   3.016   8.806  0.2939  0.1437  0.0008
 6722W        W10922   0.241  10.474   2.651  0.1083 -0.0123  0.1291
 6723W        W10923   8.978   3.390   0.885  0.0139 -0.1174  0.0212
 6724W        W10924   8.395  10.273   2.857  0.1346  0.0557  0.1027
 6725W        W10925   4.215   5.627   9.413 -0.1811  0.0761  0.2633
 6726W        W10926   7.247   1.993  12.659 -0.0948 -0.1882  0.0980
 6727W        W10927   3.518   0.062   3.076 -0.0816  0.1214 -0.0902
 6728W        W10928   0.696   4.843  11.410  0.0812  0.0233  0.2053
 6729W        W10929   7.755   8.121  11.875  0.0115 -0.1576 -0.0485
 6730W        W10930   0.098   4.030  10.507  0.1887 -0.1796 -0.3184
 6731W        W10931   9.829  10.094   2.591  0.0290  0.0660 -0.3414
 6732W        W10932   5.301   1.566   1.579  0.2106 -0.0861 -0.0389
 6733W        W10933   8.518   3.298   4.298  0.3101  0.2116  0.2189
 6734W        W10934   0.265   6.238   2.989  0.0392 -0.0181 -0.0269
 6735W        W10935   3.284   7.906   2.904  0.0642  0.1201 -0.0551
 6736W        W10936   1.108   6.787   9.005 -0.0791 -0.1755 -0.0070
 6737W        W10937   8.903   1.247   1.198 -0.0124 -0.1068  0.1411
 6738W        W10938   4.567   2.116   2.551  0.2354 -0.6262 -0.0315
 6739W        W10939   6.598   8.948   9.390  0.0488 -0.0794  0.1931
 6740W        W10940   6.284   8.580  10.661 -0.2893  0.0070  0.0249
 6741W        W10941   2.068   4.002   9.467  0.0787 -0.2360  0.1233
 6742W        W10942   5.559   0.389  12.907  0.1584 -0.1341 -0.0213
 6743W        W10943   2.328   3.611   9.358 -0.0461  0.1013  0.1012
 6744W        W10944   7.476   3.133  11.946 -0.0574  0.1954 -0.0402
 6745W        W10945   0.283   5.943   2.613  0.1883  0.2842  0.1137
 6746W        W10946   8.285   4.617   0.676 -0.0709 -0.0806  0.0463
 6747W        W10947   7.169   8.245   9.487 -0.0750 -0.2987  0.1497
 6748W        W10948   5.888   4.885   8.196 -0.2317 -0.0515 -0.2790
 6749W        W10949  10.179   4.813   1.089 -0.1181 -0.0066 -0.1360
 6750W        W10950   3.839   6.180  10.982 -0.1849  0.1746 -0.1033
 6751W        W10951   1.208   1.764   3.571  0.1339  0.0866  0.0255
 6752W        W10952   9.154   5.643   5.136 -0.0682  0.0963  0.1262
 6753W        W10953   5.816   3.230   2.794 -0.2032 -0.0780  0.1166
 6754W        W10954   9.247   7.996   0.449 -0.1463 -0.0784 -0.4146
 6755W        W10955   7.505   6.045   9.448 -0.2469  0.4478  0.0272
 6756W        W10956   8.014   6.493   3.761 -0.0215  0.4804 -0.1789
 6757W        W10957   8.272   9.842  10.083 -0.0037 -0.1800  0.1714
 6758W        W10958   3.176   6.265  12.342 -0.1029 -0.0696  0.3302
 6759W        W10959   1.294   3.504  10.499 -0.0298  0.3902 -0.1358
 6760W        W10960   3.378   5.103   3.440  0.0700  0.3726 -0.0804
 6761W        W10961   8.382   9.308  11.545 -0.1697 -0.1802 -0.3122
 6762W        W10962   8.735   7.461   0.185  0.1391 -0.0110 -0.0568
 6763W        W10963   6.846   0.121   0.868  0.1253  0.1138 -0.0791
 6764W        W10964   6.512   0.463  12.667 -0.0736  0.3999 -0.3050
 6765W        W10965   8.246   1.341  12.974 -0.2872  0.1165 -0.1572
 6766W        W10966   1.983   9.920   3.624  0.1013 -0.0691  0.3593
 6767W        W10967   7.827   9.217  11.636 -0.0150  0.1896 -0.2878
 6768W        W10968   8.233   5.934   9.247  0.4694  0.1271 -0.0487
 6769W        W10969   0.130   7.614   1.006 -0.0406 -0.0667 -0.1166
 6770W        W10970   5.869   4.285   3.164 -0.1384 -0.0239 -0.0500
 6771W        W10971   4.745   2.381  11.671 -0.2963  0.2450  0.3581
 6772W        W10972   7.598   8.587  13.171  0.1541  0.1504 -0.2134
 6773W        W10973   5.143   3.226  11.901  0.0734 -0.1412  0.0531
 6774W        W10974   6.873   4.347   1.259  0.0242  0.0553  0.2064
 6775W        W10975  10.401   1.108   9.804 -0.1400 -0.0847 -0.3905
 6776W        W10976   9.852   3.784   3.616  0.0630  0.0793 -0.0989
 6777W        W10977   6.295   9.742   3.645 -0.0840  0.2072  0.0099
 6778W        W10978   0.688   2.051  10.720  0.1615  0.1320 -0.3754
 6779W        W10979   3.234   3.310  11.949 -0.0216 -0.0249 -0.1287
 6780W        W10980   5.005   4.355  10.467  0.0003 -0.3069 -0.1289
 6781W        W10981   6.139  10.040   1.247  0.0763  0.0054  0.1001
 6782W        W10982   8.822   7.904  12.747 -0.1142 -0.2507  0.2316
 6783W        W10983   5.775   5.717   4.312  0.0716  0.2032 -0.1448
 6784W        W10984   4.521   5.027   2.334  0.2514 -0.4198  0.3255
 6785W        W10985   0.357   8.961   3.706 -0.0597  0.0360 -0.0557
 6786W        W10986   4.338  10.100  11.087 -0.1379  0.1020 -0.2169
 6787W        W10987   8.979   8.400   8.871  0.1235 -0.0409  0.4705
 6788W        W10988   9.174   8.204   2.518  0.4806 -0.1351  0.0883
 6789W        W10989   0.835   8.326  11.305 -0.3738 -0.0541  0.0870
 6790W        W10990   1.735   5.945   1.338  0.0398  0.0179  0.0452
 6791W        W10991   7.457   0.161   3.070  0.1090 -0.1055 -0.0293
 6792W        W10992   5.808   0.015  10.045  0.2010 -0.4630  0.0602
 6793W        W10993   2.029   8.255   0.716  0.2965 -0.0617 -0.1143
 6794W        W10994   0.751   7.178   0.064  0.2936 -0.0272 -0.1836
 6795W        W10995   0.863   2.779   2.127 -0.1926  0.1324 -0.0343
 6796W        W10996   2.530   3.485   1.500  0.0727 -0.1578  0.1412
 6797W        W10997   6.355   0.216  11.264 -0.2250  0.0103  0.0116
 6798W        W10998   2.862   2.002  12.521 -0.1851  0.0244  0.2672
 6799W        W10999   7.965   4.089  13.166  0.1717  0.0423 -0.0291
 6800W        W11000   1.111   2.363   5.139  0.0170 -0.0723  0.0122
 6801W        W11001   8.824   4.399  12.621 -0.1939  0.0653 -0.1399
 6802W        W11002   3.221   4.069   3.209 -0.0752  0.0981  0.3821
 6803W        W11003   0.863   6.440   9.912  0.2103  0.2947 -0.1237
 6804W        W11004   6.688   8.069  10.412  0.4987  0.1826  0.0580
 6805W        W11005   3.923   6.860  11.490 -0.1532 -0.2940  0.2188
 6806W        W11006   1.290   7.496   4.583 -0.1643  0.0103 -0.1180
 6807W        W11007   6.665   6.010   9.017 -0.0630 -0.0692 -0.0508
 6808W        W11008   1.499   4.920   9.915  0.1727 -0.0309 -0.0677
 6809W        W11009   8.964   3.278   0.364 -0.4934 -0.1266 -0.2232
 6810W        W11010   9.786   6.456   2.053 -0.0196 -0.0552 -0.0021
 6811W        W11011   9.664   5.699  12.286 -0.0756 -0.2159 -0.1450
 6812W        W11012   1.988  10.352   3.338 -0.0452 -0.0686 -0.1473
 6813W        W11013   0.993  10.090  12.780  0.1085 -0.2539  0.2644
 6814W        W11014   0.294   1.145  11.160  0.0113  0.1518  0.0556
 6815W        W11015   6.869   6.299  12.832 -0.1146 -0.0673  0.2663
 6816W        W11016   4.547   3.940   0.715  0.0561  0.2680  0.3263
 6817W        W11017   2.582   8.170   4.054  0.2037 -0.0171  0.1327
 6818W        W11018   3.916   3.661  13.182  0.2643  0.0551 -0.1422
 6819W        W11019   6.209   0.309  12.303 -0.0704  0.0157  0.0343
 6820W        W11020   2.422   8.620   3.860  0.0334 -0.0188 -0.3016
 6821W        W11021   7.146   9.251   4.435  0.3647 -0.1326  0.1694
 6822W        W11022   4.586   9.179   0.361  0.1926  0.0812 -0.2328
 6823W        W11023  10.507   8.385  12.280  0.2604  0.1017 -0.0209
 6824W        W11024   1.017   0.638   1.987  0.2136 -0.1801 -0.0110
 6825W        W11025   3.430   9.587   1.262 -0.0697  0.0780  0.0150
 6826W        W11026   4.408   7.535   3.902  0.2579  0.0036  0.1885
 6827W        W11027  10.078   3.981   3.159  0.1841 -0.0315 -0.0424
 6828W        W11028   2.708   0.938  11.642 -0.3152  0.0629  0.0134
 6829W        W11029   4.477   5.205  11.249  0.1906  0.0681 -0.0511
 6830W        W11030   3.424   1.876  12.741  0.1060  0.0914 -0.1465
 6831W        W11031   1.895   9.126   1.427  0.3236  0.0296  0.1563
 6832W        W11032   0.827   0.675   4.616  0.0580  0.0508  0.0842
 6833W        W11033   0.635   4.050  10.819  0.1617 -0.1615 -0.2342
 6834W        W11034   6.533   0.607  13.133 -0.1353 -0.1978  0.0621
 6835W        W11035   1.651   1.609   1.975  0.0236  0.0918 -0.0353
 6836W        W11036   7.626   8.686   1.135  0.4607  0.0357  0.2286
 6837W        W11037   0.133   7.580   9.628  0.1797 -0.1539  0.1239
 6838W        W11038   2.915   3.316   5.115  0.3204  0.5020  0.3756
 6839W        W11039   5.543   7.863   9.046  0.3682 -0.1390 -0.0009
 6840W        W11040   4.348   4.914  13.058  0.1963 -0.0679 -0.0984
 6841W        W11041   7.003   6.463   1.425  0.2428  0.0584  0.2443
 6842W        W11042   9.938   3.798   0.734 -0.0115 -0.0795  0.0218
 6843W        W11043   0.970   5.209  10.060 -0.1726  0.0398 -0.3624
 6844W        W11044   8.943   4.402   8.272  0.1031  0.0401 -0.0405
 6845W        W11045   2.860   7.690   0.388  0.0782 -0.2150 -0.0009
 6846W        W11046   9.120   8.436   8.225 -0.1587  0.2388 -0.1543
 6847W        W11047   2.579   1.023   2.627  0.0205 -0.2237 -0.0612
 6848W        W11048   2.375   1.537  10.848 -0.2364  0.2192  0.0625
 6849W        W11049   0.880   1.498  10.668  0.2606  0.1799  0.0937
 6850W        W11050   8.381   7.625   3.797 -0.0099 -0.2013  0.0379
 6851W        W11051   2.401   4.320   8.407  0.1082 -0.1404  0.0417
 6852W        W11052   4.142   7.121  12.408  0.1624  0.1992 -0.2694
 6853W        W11053   6.294   9.399   9.458 -0.2265  0.1630  0.0852
 6854W        W11054   3.093   6.594   9.989  0.4242 -0.1276 -0.1931
 6855W        W11055   6.919   7.582  12.261  0.0588  0.1409 -0.1271
 6856W        W11056   7.933   1.363   0.694 -0.0021 -0.0676 -0.0179
 6857W        W11057   4.439   1.827   3.393 -0.0609  0.4812  0.0685
 6858W        W11058   8.959   2.320   4.265  0.3317  0.1473  0.0162
 6859W        W11059   7.629   8.864   3.278  0.1287 -0.0338 -0.2600
 6860W        W11060   0.094   7.241  10.358  0.2608 -0.3293 -0.1201
 6861W        W11061   6.982   8.588   2.980 -0.0715 -0.0173  0.1789
 6862W        W11062   2.351   7.435  13.007 -0.0890 -0.2806  0.0190
 6863W        W11063   1.077   3.212  12.411 -0.2393 -0.0876  0.0755
 6864W        W11064   5.333   6.496   2.847 -0.2331  0.0389 -0.0234
 6865W        W11065   9.223   5.606   3.968  0.2134  0.0715 -0.2723
 6866W        W11066   7.094   1.872   9.782 -0.2881  0.0095  0.0931
 6867W        W11067   7.898   7.292  12.952  0.1846  0.0185  0.0425
 6868W        W11068   3.122   9.065  11.660  0.2118  0.1261 -0.2401
 6869W        W11069   2.231   3.620  11.429 -0.2214  0.0127  0.0656
 6870W        W11070   5.310   7.805   0.075 -0.0000 -0.0027 -0.0330
 6871W        W11071   3.911   3.329   1.918 -0.1359  0.2090  0.2421
 6872W        W11072   1.475   1.017   0.073  0.1060 -0.0088 -0.3729
 6873W        W11073   6.202   3.249   0.008 -0.1241  0.0321  0.0371
 6874W        W11074   3.184   7.926  11.667 -0.0248  0.0177  0.1063
 6875W        W11075   8.779   5.525   1.186 -0.1055 -0.1672  0.0374
 6876W        W11076   1.420   6.154  12.154 -0.2170  0.5509  0.2528
 6877W        W11077   1.361   6.980  10.248  0.2247 -0.1831 -0.0094
 6878W        W11078   2.033   8.776   1.032  0.0136 -0.0999 -0.1195
 6879W        W11079   4.172   3.347   1.449  0.2161 -0.1366  0.0643
 6880W        W11080   9.611   5.249  10.918  0.0222  0.2553  0.3854
 6881W        W11081   0.790   5.615   3.405  0.0727  0.0420  0.1734
 6882W        W11082   5.499   9.058   9.914  0.0926  0.0120  0.1501
 6883W        W11083   2.774   7.881   9.163 -0.2308  0.1004  0.1270
 6884W        W11084   4.421   4.829  10.885 -0.1048  0.0924  0.0952
 6885W        W11085   7.812   2.174   9.849  0.1556  0.1752 -0.1751
 6886W        W11086   1.436   1.049  12.052  0.2338 -0.1221 -0.1253
 6887W        W11087   5.581   4.506   3.579 -0.0716 -0.0066 -0.4520
 6888W        W11088  10.138   2.769  11.312  0.3585 -0.0119 -0.1046
 6889W        W11089   0.427   3.467   0.051  0.0810  0.1566  0.0747
 6890W        W11090   0.227   5.495   2.379 -0.0923  0.1705  0.1494
 6891W        W11091   3.018   9.669   8.245 -0.1378 -0.0754  0.0141
 6892W        W11092   8.992   6.646   0.491  0.1815  0.0233  0.1165
 6893W        W11093   9.959   0.721   9.988 -0.2109 -0.0693  0.3003
 6894W        W11094   1.120  10.207  11.219 -0.2259 -0.1161  0.0871
 6895W        W11095   2.408   6.685   1.172 -0.0112  0.4822  0.0209
 6896W        W11096   2.230   6.032   4.432 -0.1138 -0.3205 -0.1622
 6897W        W11097   7.662   5.799   4.423 -0.1499 -0.0396 -0.1548
 6898W        W11098   6.845   6.987   8.980  0.0798  0.2822 -0.2156
 6899W        W11099   1.483   3.673   3.228 -0.1866  0.1886  0.3704
 6900W        W11100   8.557   9.985   8.914  0.0794 -0.0359  0.3518
 6901W        W11101   6.830   1.364   2.232  0.1993 -0.1241  0.1715
 6902W        W11102   2.750   2.910  11.705  0.0292  0.1891 -0.1573
 6903W        W11103   8.880   2.185  12.462  0.0879 -0.1818  0.1248
 6904W        W11104   9.164   1.099   0.090  0.2206 -0.0851 -0.1164
 6905W        W11105   1.022   4.070   4.059  0.0329  0.1103 -0.0036
 6906W        W11106   1.764   9.524  11.924 -0.0911  0.0030  0.1620
 6907W        W11107   1.407  10.205  10.319  0.2984 -0.1530 -0.2256
 6908W        W11108   3.415   2.314  11.405 -0.1202  0.2723 -0.3431
 6909W        W11109   9.085   0.729   9.561 -0.1355  0.0465  0.3664
 6910W        W11110   2.575  10.156   2.681  0.1491 -0.2677  0.0728
 6911W        W11111  10.426   4.564   1.466 -0.1617 -0.3203  0.1192
 6912W        W11112   5.156   8.536   3.511 -0.1327 -0.3236 -0.0930
 6913W        W11113   4.611   1.028  11.675  0.0036  0.1401 -0.1004
 6914W        W11114   6.551   9.522  12.976 -0.4671 -0.1206 -0.1646
 6915W        W11115   0.052   0.550   0.913  0.1127  0.0660 -0.1466
 6916W        W11116   4.145   4.947   3.122 -0.0062  0.4850  0.2165
 6917W        W11117   5.566   5.916  11.030 -0.1388 -0.0446  0.2265
 6918W        W11118   1.709   0.308   0.660 -0.0538  0.1726  0.2503
 6919W        W11119   6.460   8.934   4.261 -0.1635 -0.0813  0.1571
 6920W        W11120   9.858   6.638   3.209 -0.3125  0.0722 -0.1123
 6921W        W11121   5.750   2.524   3.260 -0.0509 -0.1797 -0.0887
 6922W        W11122   9.669   5.613  13.255  0.0368  0.0606 -0.1033
 6923W        W11123   6.828   5.918   0.786 -0.0246  0.2485  0.1074
 6924W        W11124   3.817   2.841  10.173 -0.0117  0.1439  0.3555
 6925W        W11125   9.853   3.052  13.186 -0.0486  0.3622  0.0374
 6926W        W11126   1.030   7.117   3.865 -0.0679  0.0829  0.0593
 6927W        W11127   2.280   3.465  10.484 -0.1694 -0.0808 -0.1678
 6928W        W11128   8.525   1.903   3.876 -0.0397 -0.1729  0.0363
 6929W        W11129   1.944   6.640   0.160  0.0900 -0.0862 -0.1731
 6930W        W11130   6.456   3.812  12.542  0.0245  0.2033 -0.2243
 6931W        W11131   5.500   0.194   0.412  0.3719  0.1961 -0.1664
 6932W        W11132   1.653   8.643  10.897  0.1569 -0.2730  0.1616
 6933W        W11133   1.767   2.126   0.603  0.0936 -0.0914 -0.0201
 6934W        W11134   7.704   6.143   1.982  0.1744 -0.1509 -0.0112
 6935W        W11135   9.740   1.114  10.503  0.0451  0.1130  0.0706
 6936W        W11136   0.944   0.952   4.103  0.1679 -0.2668 -0.1530
 6937W        W11137   9.940   5.097   4.400 -0.3026 -0.2694 -0.1753
 6938W        W11138   7.861  10.090   0.299  0.0992 -0.1049 -0.3345
 6939W        W11139   0.700   3.490  12.612 -0.4770  0.0628  0.2239
 6940W        W11140   3.503   6.845   9.868 -0.3692 -0.1348 -0.2502
 6941W        W11141   4.977   8.933  12.151 -0.0622 -0.0366  0.1381
 6942W        W11142   9.835   3.263  12.315  0.0662 -0.0426 -0.2213
 6943W        W11143   8.910   2.878  10.043 -0.0431  0.2991 -0.1784
 6944W        W11144   3.995   7.524   2.270 -0.3042 -0.1929  0.3540
 6945W        W11145  10.443   2.046  10.373 -0.2515  0.2753  0.0800
 6946W        W11146   2.828   6.915   8.807 -0.0111 -0.1626 -0.4900
 6947W        W11147   4.444   1.535   1.318 -0.0271 -0.0329  0.0009
 6948W        W11148   1.575   1.943   1.558 -0.0575  0.2540 -0.3285
 6949W        W11149   2.801   3.453   1.015  0.1210  0.1275 -0.3279
 6950W        W11150   5.450   7.112   4.689 -0.0466 -0.1694  0.2647
 6951W        W11151   7.174   3.930   3.588 -0.0807  0.0738 -0.0038
 6952W        W11152  10.185   2.942   1.641 -0.1844  0.2376 -0.1125
 6953W        W11153   3.213   5.933   2.716  0.0678 -0.2098 -0.0111
 6954W        W11154   4.316   6.618   2.810  0.1214 -0.4609 -0.2919
 6955W        W11155   3.753   2.398   1.659  0.1721 -0.0211 -0.2687
 6956W        W11156   8.877   9.848  11.854  0.0317 -0.3105  0.0002
 6957W        W11157   2.403   4.360   2.081 -0.0093 -0.0004 -0.3521
 6958W        W11158   3.246   7.735   9.236 -0.0016 -0.2501 -0.3542
 6959W        W11159   8.838   1.296   8.331 -0.1094  0.1957 -0.0563
 6960W        W11160   6.110   7.751   2.498  0.0951  0.2475  0.0971
 6961W        W11161   6.759   1.083  13.146  0.2064  0.2461 -0.1897
 6962W        W11162   0.949   5.585   9.697 -0.1744 -0.0393  0.0180
 6963W        W11163   7.205   0.780   1.003 -0.0887 -0.3141 -0.3189
 6964W        W11164   1.869   7.409  10.667 -0.1364  0.0686 -0.2725
 6965W        W11165   9.377   2.041   9.581  0.3320 -0.0097 -0.0903
 6966W        W11166   0.062   6.595   9.961 -0.1148 -0.0158  0.1693
 6967W        W11167   8.770   1.343  10.396  0.2311  0.0587  0.1764
 6968W        W11168   3.954   8.681   4.341  0.0750 -0.1424  0.1510
 6969W        W11169   1.849   7.316   1.398 -0.3709 -0.1595  0.0029
 6970W        W11170   9.165   5.559  13.079  0.2120 -0.1725  0.2893
 6971W        W11171   0.418   1.678  10.403  0.3769  0.1510  0.1653
 6972W        W11172   1.248   0.707  11.736  0.2924  0.0397 -0.0071
 6973W        W11173   7.141   9.907   2.445 -0.2851 -0.1274  0.0539
 6974W        W11174   7.386   0.773   1.474  0.0724  0.1997 -0.3067
 6975W        W11175   2.173   3.078  10.842 -0.2830 -0.0344  0.1986
 6976W        W11176   3.891   5.330   2.829 -0.1100 -0.2566  0.0673
 6977W        W11177   4.418   5.961  11.689 -0.0195 -0.0828  0.2534
 6978W        W11178   3.462   6.650   3.225 -0.0800 -0.0468 -0.1945
 6979W        W11179   0.014   4.864   9.046 -0.1806  0.0003 -0.0259
 6980W        W11180   3.730   8.715   0.253  0.0492  0.5670  0.2245
 6981W        W11181   9.974   5.849   0.900  0.1989  0.2069 -0.0733
 6982W        W11182   2.240   5.333   0.015 -0.0801  0.1599  0.4492
 6983W        W11183   7.813   6.191   3.365 -0.2097  0.1328 -0.0583
 6984W        W11184  10.342   4.442   2.467 -0.1013 -0.0862  0.1096
 6985W        W11185   9.066   8.403   1.327 -0.1862 -0.0157  0.0255
 6986W        W11186   1.113   5.145  11.122  0.3493  0.1721  0.1847
 6987W        W11187  10.432   5.246   3.977 -0.2137  0.1791  0.0583
 6988W        W11188   2.241   8.184   3.464 -0.0943  0.0166  0.0660
 6989W        W11189   9.022   1.638  10.823 -0.1902  0.1505  0.1499
 6990W        W11190   6.471   5.128   2.871 -0.0563 -0.2633  0.1105
 6991W        W11191   9.060   4.997  12.202  0.1999 -0.1643 -0.1014
 6992W        W11192   9.620   3.281   2.294 -0.0393 -0.1375 -0.1301
 6993W        W11193   9.786   0.052   4.114  0.0750 -0.4295  0.0063
 6994W        W11194   5.310   5.856  10.103  0.0781 -0.2823  0.1106
 6995W        W11195   5.264   8.351   2.916 -0.0264  0.1673 -0.1484
 6996W        W11196   7.399   7.510   8.552 -0.1358  0.1051 -0.4280
 6997W        W11197   1.472   1.795   3.968 -0.1407 -0.1818 -0.0389
 6998W        W11198   6.316   6.368   3.249  0.0030  0.0280 -0.0522
 6999W        W11199   8.340   8.092   3.518 -0.0320  0.1625 -0.4375
 7000W        W11200   0.238  10.143   0.576  0.0084 -0.0567 -0.1690
 7001W        W11201   7.217   5.211  11.310  0.0701 -0.1828  0.0613
 7002W        W11202   1.779   8.233   8.919 -0.1137  0.0284 -0.1445
 7003W        W11203   8.978   4.343   1.541 -0.0187 -0.0294  0.1951
 7004W        W11204   9.123   7.964   4.109 -0.3056 -0.0018 -0.0300
 7005W        W11205   3.926  10.097  10.409 -0.1049  0.0065  0.0476
 7006W        W11206   3.682   4.066   0.052 -0.1158 -0.2294 -0.1790
 7007W        W11207   0.735   2.307  11.865  0.0169  0.1090  0.0283
 7008W        W11208   9.398   1.046   9.167 -0.1862  0.1896  0.2883
 7009W        W11209   9.483  10.389  12.871 -0.0612 -0.0564 -0.1909
 7010W        W11210   5.343   8.312   8.736 -0.0064 -0.2401 -0.3500
 7011W        W11211   1.463   6.879  10.709 -0.1105 -0.0078 -0.2228
 7012W        W11212   6.946   3.084   1.402  0.1738  0.2459  0.2895
 7013W        W11213   9.968   0.569  11.764 -0.1192  0.3834  0.0183
 7014W        W11214   7.535  10.305  12.509 -0.2051  0.0049  0.1257
 7015W        W11215   9.871   4.865  11.202  0.0145 -0.0436  0.0879
 7016W        W11216   2.663   9.951  12.017  0.1424  0.1855  0.3190
 7017W        W11217   3.596   2.445  10.825 -0.0502  0.1603  0.0354
 7018W        W11218   5.054   2.187   0.274 -0.1317  0.0891 -0.0880
 7019W        W11219   1.822   9.227   9.291 -0.0328 -0.0204 -0.0569
 7020W        W11220   2.404   0.006  11.552 -0.1118 -0.2649  0.2117
 7021W        W11221   6.140   9.623  11.095 -0.2054  0.2290 -0.0350
 7022W        W11222   6.171   3.661  11.200 -0.2585  0.0975 -0.1598
 7023W        W11223   4.552   7.948  12.435 -0.4584  0.4075  0.2788
 7024W        W11224   1.451   6.463   2.080  0.1488 -0.1284  0.0751
 7025W        W11225   0.105   5.517   8.891 -0.2288 -0.0500  0.2805
 7026W        W11226   5.801   3.877   1.098 -0.1858  0.2647 -0.0088
 7027W        W11227   2.314   5.398  11.428  0.0980 -0.0637  0.1877
 7028W        W11228   1.939   1.746   2.962 -0.0452  0.1173  0.3688
 7029W        W11229   4.106   6.969   9.785  0.2387 -0.0210 -0.0864
 7030W        W11230   9.924   8.383   5.511  0.2188  0.1699  0.2271
 7031W        W11231   2.369   8.977   9.846 -0.0665 -0.0728  0.2071
 7032W        W11232   3.719   9.283  10.208  0.3212  0.0870 -0.1915
 7033W        W11233  10.498   8.705   2.831 -0.0594 -0.1620 -0.4341
 7034W        W11234   9.009   5.371   0.713 -0.1043 -0.0036  0.3704
 7035W        W11235   8.984  10.499  11.181  0.1304  0.1588  0.0365
 7036W        W11236   2.021   4.501   0.814 -0.0531  0.2410 -0.3257
 7037W        W11237   0.472   9.643   0.533  0.1116  0.0563 -0.1272
 7038W        W11238   1.067   6.228   0.114  0.0290  0.2194 -0.1010
 7039W        W11239   7.284   5.465   0.220 -0.4320  0.2199  0.1548
 7040W        W11240   6.415   0.230  11.815 -0.1175  0.0231  0.1798
 7041W        W11241   9.329   6.346   9.707 -0.1268  0.3373  0.1093
 7042W        W11242   0.323  10.214  11.593 -0.1870 -0.3686 -0.2448
 7043W        W11243   1.600  10.460  11.159  0.2062 -0.3997 -0.2219
 7044W        W11244   9.363   3.672   2.017  0.1621  0.1399 -0.4794
 7045W        W11245   0.789   3.571  11.510 -0.0361 -0.0128 -0.1816
 7046W        W11246   1.744   0.364   2.945 -0.1077  0.2044  0.2355
 7047W        W11247   0.609   8.574  10.857 -0.1598  0.0563 -0.1896
 7048W        W11248   4.873   6.469   4.401 -0.1724  0.0647  0.6260
 7049W        W11249   8.588   2.090  10.106 -0.0995  0.0621  0.1028
 7050W        W11250   8.073   1.358   2.477 -0.0533 -0.1885  0.2324
 7051W        W11251   9.263   3.001   4.772  0.0956  0.3454 -0.0090
 7052W        W11252   6.539   2.888   3.067 -0.0917  0.0604 -0.3019
 7053W        W11253   1.227   4.672   8.512 -0.1461 -0.0526 -0.2007
 7054W        W11254   3.107   3.755  11.506 -0.0789  0.0099 -0.0089
 7055W        W11255   0.749   4.241   9.206  0.2870  0.2804  0.0576
 7056W        W11256   9.538   2.035  11.515 -0.1715  0.0656 -0.0589
 7057W        W11257   2.993   0.822   1.633 -0.0912 -0.0568 -0.1516
 7058W        W11258   1.724   1.296  11.047  0.1414 -0.0401  0.0355
 7059W        W11259   4.788   9.576  11.222 -0.0458 -0.0525  0.1128
 7060W        W11260   6.164   2.028  10.422 -0.0126  0.1802 -0.1372
 7061W        W11261   2.162   9.434  10.686  0.3360 -0.2844  0.0230
 7062W        W11262   7.415   7.686   0.764  0.0176 -0.0113  0.1415
 7063W        W11263   2.858   5.978   2.226 -0.0759  0.0666  0.1635
 7064W        W11264   7.601   0.421  11.908 -0.0336 -0.2343  0.0436
 7065W        W11265   0.034   7.038  10.836 -0.0008 -0.2212 -0.0144
 7066W        W11266   5.145   4.947  10.029 -0.1163 -0.0292  0.4645
 7067W        W11267   9.819   5.545   2.568 -0.6269 -0.0405 -0.1918
 7068W        W11268   4.799   3.507   4.037 -0.1465  0.2562  0.1474
 7069W        W11269   7.575   4.071   3.807 -0.1789 -0.1389 -0.0657
 7070W        W11270   2.910   3.074   9.883  0.1209  0.0868  0.0521
 7071W        W11271   7.472   4.517   1.801  0.1940  0.0907  0.4334
 7072W        W11272   9.463   1.038   4.094 -0.0902  0.2465 -0.0762
 7073W        W11273   6.112   2.324   9.796 -0.1827 -0.1704  0.1883
 7074W        W11274   0.214   3.808   4.334  0.1148  0.4025  0.0650
 7075W        W11275   3.440   3.161   4.106  0.0507  0.2300  0.0696
 7076W        W11276  10.198   5.596  10.343 -0.1422  0.1631 -0.0327
 7077W        W11277   6.027   3.175  11.220  0.1914 -0.2005 -0.1325
 7078W        W11278   1.367   8.206   1.074  0.3387  0.0606 -0.1179
 7079W        W11279   3.503   6.500   2.758  0.2632 -0.1932 -0.1027
 7080W        W11280   5.807   5.481   8.842  0.0855 -0.0668  0.3470
 7081W        W11281   3.398   2.718   3.352  0.0600 -0.0935 -0.3611
 7082W        W11282   0.572   7.268   0.829  0.0070 -0.3079 -0.1675
 7083W        W11283   3.112   2.241   1.158  0.0731  0.1585  0.0504
 7084W        W11284   2.417  10.190  11.194 -0.1567 -0.1101 -0.0444
 7085W        W11285   6.661   3.380  10.400 -0.3262 -0.0060 -0.2814
 7086W        W11286   5.864   2.212   2.890 -0.1875 -0.0326 -0.1041
 7087W        W11287   2.766   9.251   9.986 -0.3778  0.0898 -0.0988
 7088W        W11288   3.765   0.486   2.958 -0.1484 -0.0008 -0.0280
 7089W        W11289   0.892   0.367  12.798 -0.0033  0.4639  0.0262
 7090W        W11290   1.285  10.451  10.771  0.1005  0.1196  0.1156
 7091W        W11291   2.606   9.747   2.104  0.0341 -0.0787  0.1291
 7092W        W11292   3.118   0.843   1.142 -0.2275 -0.2287  0.2222
 7093W        W11293   8.948   1.245   0.577  0.2308  0.1796  0.0368
 7094W        W11294   6.412   4.482   1.665  0.1038 -0.0327  0.1471
 7095W        W11295   2.986   0.201  12.946 -0.3592  0.1531 -0.1046
 7096W        W11296   4.384   4.090   4.640 -0.2281 -0.0204 -0.2602
 7097W        W11297   8.195   5.291   3.248 -0.1397  0.0067 -0.2788
 7098W        W11298  10.388   4.798   0.223  0.2274  0.1538 -0.1017
 7099W        W11299   1.121   3.751   4.473 -0.3140 -0.1347 -0.1858
 7100W        W11300   5.148   1.662  10.008 -0.0185  0.0220  0.0512
 7101W        W11301  10.481   8.168   1.808  0.0280  0.2166  0.1901
 7102W        W11302   7.481   3.053   1.262 -0.0798  0.0352  0.2694
 7103W        W11303   1.330   0.351   4.798  0.1348  0.1813  0.2557
 7104W        W11304   0.631   3.945  12.500 -0.0018  0.1070  0.1345
 7105W        W11305   4.057   1.392  10.829 -0.2193  0.1623 -0.0974
 7106W        W11306   7.424   3.176   3.090 -0.1314 -0.1769  0.2152
 7107W        W11307   4.007   2.465   4.200 -0.2217 -0.0044  0.2387
 7108W        W11308  10.321   3.740   4.131  0.0442  0.2402  0.3216
 7109W        W11309   4.410   6.598  10.667  0.2691  0.0303 -0.0910
 7110W        W11310   0.448   5.005   2.695 -0.3369  0.1296 -0.2427
 7111W        W11311   5.102   7.592   9.821 -0.1810 -0.0833 -0.3601
 7112W        W11312   2.838   5.181  13.253  0.2096  0.0049 -0.1205
 7113W        W11313   7.448   4.639   3.474 -0.1087 -0.3174 -0.2007
 7114W        W11314   8.400   0.364   4.267  0.4542 -0.1645  0.0870
 7115W        W11315   3.678   1.649   0.996 -0.1479 -0.0920 -0.1427
 7116W        W11316   6.680   5.057   2.368  0.0880 -0.0745  0.0276
 7117W        W11317   2.398   9.071   3.174  0.1665  0.2733  0.1551
 7118W        W11318   6.940   7.358   8.679  0.2461 -0.0862 -0.1534
 7119W        W11319   0.344   9.679   4.319 -0.0198 -0.0979  0.2372
 7120W        W11320  10.496   8.928  10.964  0.0328  0.0813  0.1860
 7121W        W11321   6.975   3.833   2.041 -0.0133 -0.3632  0.1746
 7122W        W11322   3.284   0.466   9.849 -0.1771  0.0742  0.0116
 7123W        W11323   4.054   7.378  11.392 -0.0740  0.3033  0.0701
 7124W        W11324   8.201   6.484  12.999  0.2412 -0.1035  0.0267
 7125W        W11325   8.075   5.003   4.232  0.2323  0.1281  0.1618
 7126W        W11326   6.754   6.466   9.015  0.0965  0.0153 -0.1465
 7127W        W11327   7.566   4.087   0.422  0.1800  0.1602 -0.0464
 7128W        W11328   3.265   6.238   1.335 -0.1407  0.1669 -0.4745
 7129W        W11329   9.155   7.663  11.726  0.1291 -0.0858  0.1795
 7130W        W11330   8.231   0.453  10.048  0.1954 -0.0734 -0.3682
 7131W        W11331   4.309   2.915  12.708  0.2139 -0.1422  0.1993
 7132W        W11332   6.326   5.049   2.009 -0.0574 -0.0798  0.2355
 7133W        W11333   3.898   5.827   3.220 -0.1078  0.0400  0.3259
 7134W        W11334   1.261   0.319   3.129  0.1532 -0.2728 -0.0613
 7135W        W11335   5.546   6.593  12.975  0.1243 -0.0584 -0.3661
 7136W        W11336  10.492   7.909  12.016 -0.3197 -0.0272  0.1471
 7137W        W11337   0.889   8.994   0.173 -0.0066 -0.0341  0.0633
 7138W        W11338   0.663   7.455  12.830  0.1710 -0.0006  0.0230
 7139W        W11339   8.814   9.699   1.147  0.3895  0.1098 -0.1774
 7140W        W11340   4.090   5.213   0.108  0.2585 -0.0626 -0.2720
 7141W        W11341   7.331   8.581   1.949  0.0454 -0.4897  0.1978
 7142W        W11342   1.549   3.098  12.540 -0.1492 -0.0044 -0.0517
 7143W        W11343   3.480   5.706  11.690 -0.1947 -0.0534 -0.1885
 7144W        W11344   3.627   0.605   2.361 -0.1126 -0.3533  0.1180
 7145W        W11345   8.181   2.319   3.671 -0.3225 -0.2108  0.1612
 7146W        W11346   1.121   5.669   2.999 -0.1257 -0.0193  0.2117
 7147W        W11347   3.487   9.475   9.257 -0.0436 -0.2923  0.0388
 7148W        W11348   2.292   7.014   9.938 -0.1048  0.1342  0.0185
 7149W        W11349   5.330   3.517   9.566 -0.0513 -0.2353  0.0364
 7150W        W11350  10.077   8.717  10.629 -0.2432 -0.0790  0.2198
 7151W        W11351   2.058   5.549   2.926 -0.1068 -0.0170 -0.1093
 7152W        W11352   3.910   0.314   3.427  0.0391  0.0069  0.1315
 7153W        W11353   7.192   9.251  12.242 -0.1055 -0.1373 -0.0489
 7154W        W11354   0.072   8.681  10.547 -0.1480  0.0328 -0.1980
 7155W        W11355   0.771   8.272   9.986  0.2762  0.1249 -0.2301
 7156W        W11356   5.093   6.849   3.223 -0.2530 -0.0129 -0.1910
 7157W        W11357   3.512   5.633  10.047 -0.1615 -0.2205 -0.0011
 7158W        W11358   1.415   2.283   4.729  0.0333 -0.1628  0.3572
 7159W        W11359   0.563   7.529   1.782 -0.1391  0.1358 -0.0508
 7160W        W11360   9.308   8.810  11.035 -0.2411 -0.0687  0.0674
 7161W        W11361   3.843   2.337  12.276  0.0145  0.3331 -0.2056
 7162W        W11362   3.678  10.335  12.057  0.0980  0.1405  0.1320
 7163W        W11363   3.950   3.248  10.618 -0.1785  0.0178  0.0018
 7164W        W11364   5.714   6.878   9.902 -0.0498  0.2077  0.2151
 7165W        W11365   2.321   9.024  11.879  0.1313 -0.0794  0.0405
 7166W        W11366   0.367   4.802  11.001 -0.3385 -0.0259 -0.0676
 7167W        W11367   1.810   4.513   9.687 -0.1952  0.0871  0.1226
 7168W        W11368   2.192   1.999  11.569 -0.4193  0.1304 -0.1034
 7169W        W11369   3.243   4.360   9.867 -0.3542  0.1367  0.0587
 7170W        W11370   3.952   3.059  11.126  0.2302 -0.1998 -0.3920
 7171W        W11371   2.022   4.899   8.649 -0.0337  0.2918 -0.0795
 7172W        W11372   8.122   1.982  10.277  0.1860  0.0177  0.0918
 7173W        W11373   9.697   8.703   0.107  0.1200 -0.2303 -0.1675
 7174W        W11374   9.453   7.012   1.705 -0.2357  0.0653 -0.2259
 7175W        W11375   7.060   8.774  10.685 -0.2311  0.1894  0.0039
 7176W        W11376   2.020   4.460   3.472  0.1175  0.3158  0.1310
 7177W        W11377   6.385   5.502   2.202  0.0873 -0.2158  0.2020
 7178W        W11378   5.232   3.060  10.394 -0.0827  0.1171  0.2305
 7179W        W11379   2.759   7.722   2.495  0.3658 -0.0269 -0.1235
 7180W        W11380   8.973   1.767   9.857  0.4780 -0.0240  0.1035
 7181W        W11381   9.583   4.873   8.060 -0.0967  0.0080 -0.1446
 7182W        W11382   5.132   1.329  12.397 -0.3717 -0.0312 -0.2670
 7183W        W11383   5.088   9.108   9.652 -0.0266 -0.0139 -0.0492
 7184W        W11384   2.427   5.848   1.471 -0.2139  0.1112  0.1446
 7185W        W11385   7.760   6.529  12.734 -0.1401 -0.0136 -0.5642
 7186W        W11386  10.199   7.945  10.143  0.3748  0.2334 -0.0595
 7187W        W11387   9.022   2.547  13.099 -0.0879 -0.0863 -0.2983
 7188W        W11388   4.166   9.812  12.661  0.0215 -0.0450  0.0033
 7189W        W11389   3.416   0.150   2.078  0.1987 -0.1202  0.0010
 7190W        W11390   1.120   2.995  12.881  0.1967 -0.1533 -0.0171
 7191W        W11391   0.002   2.363   9.242 -0.0110 -0.0948  0.3255
 7192W        W11392   3.596   3.816   0.565 -0.3683  0.1165  0.0128
 7193W        W11393   7.906   3.538  10.827 -0.0979 -0.0616  0.0089
 7194W        W11394   2.274   7.524  10.259  0.0874  0.0503 -0.3107
 7195W        W11395   0.583   9.484   2.435  0.0943 -0.1331 -0.0417
 7196W        W11396   6.176   0.055   3.485 -0.1558 -0.0415  0.2191
 7197W        W11397  10.541   8.589  12.977  0.3592  0.1002  0.2975
 7198W        W11398   9.188  10.123  12.626  0.0800  0.2110  0.0204
 7199W        W11399   3.300   5.034   0.120  0.5488 -0.0746  0.1364
 7200W        W11400   7.816   4.555   4.361 -0.3184 -0.0766 -0.1914
 7201W        W11401   6.027   4.629  10.183 -0.0063  0.0478  0.1384
 7202W        W11402   0.726   1.093  10.432  0.0112  0.0901 -0.0928
 7203W        W11403   9.883   7.145   3.431 -0.1646  0.0159  0.2736
 7204W        W11404   2.066   8.981   2.456  0.0293  0.2304  0.0200
 7205W        W11405  10.412   2.982   0.605 -0.0034  0.0511  0.0108
 7206W        W11406   6.082  10.360  12.205 -0.3494 -0.3312 -0.3469
 7207W        W11407  10.182   3.417   2.377  0.0282  0.0780  0.2681
 7208W        W11408   4.882   0.346  12.186 -0.3089 -0.1609  0.2772
 7209W        W11409   9.245   6.541  13.189  0.1197  0.0712 -0.0414
 7210W        W11410   5.772   5.825   1.755  0.3521  0.0346  0.2341
 7211W        W11411   9.914   9.086   3.300  0.0011 -0.3206 -0.0429
 7212W        W11412   7.762   6.540   2.921 -0.1142  0.1760  0.1656
 7213W        W11413   6.397   5.476   3.585 -0.2048 -0.0590 -0.1775
 7214W        W11414   7.646  10.537   0.600  0.1036 -0.2505  0.3788
 7215W        W11415   0.031   8.693   9.724  0.2778 -0.2221 -0.1319
 7216W        W11416   4.117   5.078   1.699 -0.1601  0.1452 -0.2277
 7217W        W11417   8.061   8.990   8.152 -0.0171 -0.1139 -0.1361
 7218W        W11418   6.422   2.484   2.763 -0.3412  0.3952 -0.0968
 7219W        W11419   6.452   3.034   1.733  0.0124  0.3942  0.0171
 7220W        W11420   4.974   6.105   2.809 -0.4686 -0.0257  0.2273
 7221W        W11421   4.611   7.428   1.635  0.1470  0.1192  0.1828
 7222W        W11422   2.126   3.026  12.490 -0.2756 -0.1642  0.1002
 7223W        W11423   8.114   7.395   9.063 -0.0122  0.1356  0.2352
 7224W        W11424   2.298  10.008   9.796  0.1618  0.0389 -0.0328
 7225W        W11425   6.847   5.669   2.022  0.0174 -0.0546 -0.2589
 7226W        W11426   4.179   8.461   0.148  0.0873  0.0286  0.2037
 7227W        W11427   6.047   9.758  12.742  0.1905  0.2934 -0.2415
 7228W        W11428   8.584   8.321  10.993  0.2019  0.0221  0.0204
 7229W        W11429   9.203   7.610   2.529 -0.0854  0.0717  0.2349
 7230W        W11430   7.357   2.717   3.304 -0.1541 -0.1197  0.3864
 7231W        W11431   0.777   2.886  11.873 -0.1942 -0.1856 -0.1581
 7232W        W11432   3.345   3.162   3.640  0.2168  0.1938  0.0292
 7233W        W11433   4.608   7.429   9.837  0.2737  0.0992  0.1393
 7234W        W11434   6.291   0.700  11.334 -0.1256 -0.1317 -0.2151
 7235W        W11435   6.069   3.766   1.486  0.0233 -0.4163 -0.3632
 7236W        W11436   5.157   0.987   0.654 -0.1699  0.0685  0.0608
 7237W        W11437   2.048   5.216  10.395  0.1409 -0.2189  0.1421
 7238W        W11438   8.696   7.743  10.109 -0.1615 -0.2319 -0.1723
 7239W        W11439   2.902   5.631  12.565  0.0587  0.1222  0.0897
 7240W        W11440   4.841   3.687   9.545 -0.2056  0.2762 -0.0480
 7241W        W11441   3.129   1.765  12.158 -0.1057  0.1235  0.0411
 7242W        W11442   4.757   6.567  11.048  0.1846 -0.3359 -0.0225
 7243W        W11443   9.832   5.466   4.051  0.2669  0.3191 -0.2070
 7244W        W11444   5.779   7.903   8.615 -0.0876  0.3117  0.1603
 7245W        W11445   0.946   5.640   8.323 -0.2790 -0.1011 -0.1907
 7246W        W11446   0.087   4.766   3.228 -0.2330 -0.2115 -0.0223
 7247W        W11447   3.722  10.096   9.847  0.0176  0.0810 -0.2118
 7248W        W11448   8.232   6.634   5.646 -0.1800  0.4352 -0.0252
 7249W        W11449   0.166   6.531   3.645 -0.0357 -0.0127  0.0445
 7250W        W11450   4.479   4.957   9.998 -0.1648  0.1498  0.0811
 7251W        W11451   6.642   7.044   2.287 -0.4145  0.2632  0.0994
 7252W        W11452   3.235   5.421  12.939  0.1414  0.1724 -0.0856
 7253W        W11453   1.617   3.111  11.693  0.2242 -0.2216 -0.2727
 7254W        W11454   0.544   7.450   2.702  0.3121 -0.0518  0.0839
 7255W        W11455   9.576   4.132   9.030 -0.4340 -0.0509 -0.2428
 7256W        W11456   8.560   7.124   3.659  0.3026 -0.1209  0.0771
 7257W        W11457   2.853   8.854   3.085 -0.0167 -0.3539  0.2791
 7258W        W11458   1.190   4.387   3.725 -0.1995 -0.1776  0.0770
 7259W        W11459   0.262   3.012   2.902  0.0754  0.2705  0.0493
 7260W        W11460   7.459   2.998  11.061  0.0399  0.0270  0.2812
 7261W        W11461   2.038   8.838  10.206 -0.1310 -0.0688  0.0705
 7262W        W11462   1.498   1.410  10.241  0.1405 -0.1327 -0.0012
 7263W        W11463   3.509   3.563   2.118 -0.2027  0.0517 -0.0533
 7264W        W11464   2.826   1.542   3.468 -0.2088 -0.1391 -0.2113
 7265W        W11465   8.905   8.716   4.564  0.1438 -0.2223  0.0370
 7266W        W11466   5.261   3.499   2.738  0.4143 -0.2988 -0.0662
 7267W        W11467   3.495   5.325   1.975 -0.0190 -0.0517 -0.1759
 7268W        W11468   5.073   2.445  13.002  0.1061 -0.0009  0.0566
 7269W        W11469   6.616   7.539  10.593  0.0916 -0.2990 -0.0204
 7270W        W11470   7.527   3.045   9.189 -0.0134  0.3415  0.2070
 7271W        W11471   4.427   5.511   4.428 -0.0237 -0.0695 -0.0079
 7272W        W11472   8.215   5.476   9.127 -0.2481  0.0634  0.0497
 7273W        W11473   1.015   7.706  10.098 -0.0372  0.4215  0.1572
 7274W        W11474   4.629   0.835   0.800  0.2115  0.0655 -0.1986
 7275W        W11475   6.172   1.756   0.034  0.2904  0.0427  0.1331
 7276W        W11476   3.452   3.573   9.657  0.0095 -0.0226  0.0387
 7277W        W11477   6.691   9.056   1.712 -0.1032 -0.2984  0.0744
 7278W        W11478   4.395   8.347   9.810  0.0751  0.0744 -0.3403
 7279W        W11479   8.130   3.108   2.836  0.1119  0.3154  0.2304
 7280W        W11480   0.416   6.895   0.373 -0.2135 -0.1439  0.3376
 7281W        W11481  10.189   1.068  11.812  0.0279 -0.1274 -0.0065
 7282W        W11482   3.400   6.939  11.434 -0.0763  0.1376 -0.2464
 7283W        W11483   7.945   8.748  12.439 -0.1398 -0.1228  0.1501
 7284W        W11484   7.767   9.834  12.528 -0.0190  0.1169  0.0102
 7285W        W11485   5.687   3.057   8.795  0.2945  0.2423 -0.1363
 7286W        W11486   5.370   5.035   2.352 -0.1761 -0.1686  0.0594
 7287W        W11487   9.798   1.415   3.238 -0.2424 -0.1837  0.1054
 7288W        W11488   6.645   1.833   9.516  0.0464  0.6918 -0.0760
 7289W        W11489   6.464   6.956   3.683  0.0658 -0.1031  0.1522
 7290W        W11490   8.551   3.282   2.256  0.0769  0.0048  0.2696
 7291W        W11491   3.748   6.518   0.027 -0.3761 -0.1527 -0.3977
 7292W        W11492   9.366   9.169   3.835 -0.1894  0.1583  0.0609
 7293W        W11493   2.505   7.385   3.248 -0.0651  0.1570 -0.0498
 7294W        W11494   3.313   4.295   8.819  0.2109 -0.2090  0.2438
 7295W        W11495  10.479   1.584   1.691  0.0469 -0.3884 -0.0910
 7296W        W11496   6.928  10.402   2.447 -0.2074 -0.1509  0.0191
 7297W        W11497   7.209  10.258   3.251  0.1528 -0.2228  0.1148
 7298W        W11498   2.337   5.546   3.549 -0.3431 -0.0275 -0.0550
 7299W        W11499   2.902   6.740  10.684  0.1188  0.1856  0.2552
 7300W        W11500   9.504   8.476   2.849 -0.2973 -0.0987 -0.2365
 7301W        W11501   5.302   5.387   9.836  0.1779  0.1399 -0.0009
 7302W        W11502   7.693   5.939   0.302  0.1851  0.0350 -0.2611
 7303W        W11503   9.997   3.410   3.348  0.2544  0.0756  0.1179
 7304W        W11504   5.286   8.196  11.701 -0.2247 -0.2447  0.2192
 7305W        W11505   5.262   5.335   5.112 -0.0196 -0.0748  0.0377
 7306W        W11506   7.703   5.402  12.267  0.1015 -0.1314  0.4879
 7307W        W11507   9.555   2.091  10.436  0.0894 -0.0295  0.0680
 7308W        W11508   4.906   0.567   5.303  0.4259 -0.0560 -0.0480
 7309W        W11509   3.588   3.405   2.601 -0.0840  0.0564  0.1355
 7310W        W11510   4.951   7.708   1.911 -0.0993 -0.0116 -0.0982
 7311W        W11511   8.919   3.037  13.218 -0.0617  0.1653  0.5268
 7312W        W11512   0.840   2.007   2.419 -0.0285 -0.0706  0.2376
 7313W        W11513   4.887   3.297  11.449 -0.3178 -0.1248 -0.0801
 7314W        W11514   1.696   2.794  12.201 -0.1699  0.2189  0.3399
 7315W        W11515   6.292   7.909   1.863  0.0871  0.0468 -0.0999
 7316W        W11516   8.296   5.262  12.874  0.1375  0.0531  0.0825
 7317W        W11517   2.804   3.072   3.939  0.1116 -0.2752  0.1244
 7318W        W11518   3.792   2.622   1.160 -0.2808 -0.0841  0.0645
 7319W        W11519   7.925   3.429   1.105  0.0809  0.0643 -0.1872
 7320W        W11520   1.453   1.694  11.380 -0.0049  0.2957 -0.0005
 7321W        W11521   6.596   5.979   2.919  0.1211 -0.0180 -0.0912
 7322W        W11522   3.003   9.756   3.594  0.0263  0.2788 -0.2457
 7323W        W11523   4.909   9.240  10.540  0.1251  0.1496  0.2329
 7324W        W11524   5.371   4.588  13.223 -0.1915  0.1974  0.0149
 7325W        W11525   0.667   5.372  11.419  0.0587  0.3228  0.0892
 7326W        W11526   7.139   1.192   3.999  0.0130 -0.1215  0.3205
 7327W        W11527   0.384   2.279   1.141  0.2383 -0.0759  0.2303
 7328W        W11528   3.015   1.588   3.914  0.3356 -0.3408  0.0445
 7329W        W11529   6.857   2.950   3.904  0.0563  0.1413 -0.3996
 7330W        W11530   9.428   1.498  11.698 -0.0412 -0.2983  0.1933
 7331W        W11531   1.851  10.539   1.294 -0.0951 -0.0525 -0.1863
 7332W        W11532   9.440   4.608   9.771 -0.0951 -0.1684  0.0226
 7333W        W11533   5.924   8.818   0.569 -0.1182 -0.1459  0.3992
 7334W        W11534   4.057   7.435   2.866  0.3200 -0.5377 -0.3099
 7335W        W11535   0.523   2.627   4.739 -0.0546 -0.0786  0.1286
 7336W        W11536   0.620   6.719   0.950 -0.0620 -0.1873  0.3264
 7337W        W11537   9.326   1.612   4.764  0.0777 -0.2935  0.0582
 7338W        W11538   2.087   1.832   0.852  0.0645 -0.2603  0.1297
 7339W        W11539   3.582   2.502  13.206  0.1660  0.0417  0.1042
 7340W        W11540   4.232   7.551   1.322  0.0009 -0.2076 -0.0228
 7341W        W11541   7.054  10.179   1.100 -0.2255 -0.0559 -0.1654
 7342W        W11542   8.744   9.064  12.143  0.1246 -0.0458  0.2750
 7343W        W11543   2.876   1.174  13.052  0.1813  0.1743 -0.2944
 7344W        W11544   6.770   2.924  10.146 -0.2686 -0.0213 -0.2858
 7345W        W11545   4.352   1.605   0.279 -0.3553 -0.0008 -0.0530
 7346W        W11546   9.349   5.845   8.921 -0.2269 -0.2715 -0.2099
 7347W        W11547   2.325   4.523  10.648  0.1218  0.2198 -0.0871
 7348W        W11548   4.908   3.999  10.101  0.1846 -0.3891 -0.0016
 7349W        W11549   2.774   6.342   1.440  0.0124 -0.0113 -0.4435
 7350W        W11550   0.946   2.544  11.450  0.4581 -0.2271 -0.2584
 7351W        W11551   0.125  10.017  12.765  0.1072  0.0474  0.2472
 7352W        W11552   2.102   2.346   2.127  0.0311  0.1823  0.1115
 7353W        W11553   9.941   5.321   3.433 -0.1379  0.0784 -0.0521
 7354W        W11554   9.751   2.142   0.796  0.0155 -0.0147 -0.0849
 7355W        W11555   6.703   4.200   2.562  0.2513 -0.2059  0.1881
 7356W        W11556   2.164   6.528   4.571 -0.0469 -0.0005 -0.1579
 7357W        W11557   6.118   6.179  10.551 -0.1716  0.0938  0.0927
 7358W        W11558   6.560   8.023   9.190 -0.1948  0.2701 -0.1019
 7359W        W11559   5.147   7.004   9.635 -0.1239 -0.0628 -0.1578
 7360W        W11560   8.322   8.153   8.780  0.1003 -0.0909 -0.0888
 7361W        W11561   2.662   1.659  12.924 -0.3174  0.2198 -0.1097
 7362W        W11562   2.764   8.252  12.623 -0.0092  0.1262 -0.1076
 7363W        W11563   9.856  10.456   0.413  0.3605 -0.0753 -0.0893
 7364W        W11564   2.273   3.857   1.304  0.0399 -0.1731 -0.1463
 7365W        W11565   7.168   9.658  11.966  0.0715  0.0123  0.0928
 7366W        W11566   2.454   2.648   9.395  0.2159 -0.2587 -0.0351
 7367W        W11567   2.881   0.347   3.731  0.0467  0.0013 -0.4005
 7368W        W11568   0.731   2.034  11.342 -0.0554 -0.0509  0.2017
 7369W        W11569   6.428   3.278  10.913  0.2871 -0.4702 -0.2783
 7370W        W11570   2.043   3.258   4.416  0.0291 -0.0545  0.1245
 7371W        W11571   0.050   1.751   2.368  0.2122 -0.1423  0.2337
 7372W        W11572   8.219   9.892  12.300  0.0300 -0.2606  0.0150
 7373W        W11573   5.362   2.170  10.153  0.4621  0.1800  0.0235
 7374W        W11574  10.124   8.029  12.341 -0.0574 -0.0814  0.2498
 7375W        W11575   7.880   4.929   4.735  0.0850  0.2056  0.0243
 7376W        W11576   9.222   0.917   2.939 -0.0314 -0.0163  0.1701
 7377W        W11577   0.397   1.934   2.086 -0.1697  0.1085 -0.2046
 7378W        W11578   4.550   4.012   2.851 -0.1628 -0.1823 -0.0014
 7379W        W11579   0.743   8.545   3.648  0.2203  0.0411  0.2398
 7380W        W11580   4.867   7.300   8.856  0.1990 -0.0188  0.2199
 7381W        W11581   6.690   2.200   3.273 -0.0553  0.0429  0.1715
 7382W        W11582   3.296  10.294   1.801  0.1583  0.2983 -0.0558
 7383W        W11583   6.453   4.194   2.974  0.0363  0.4324  0.0696
 7384W        W11584   1.201   0.247   2.341  0.0477 -0.0954  0.2127
 7385W        W11585   8.944   0.366   4.624 -0.1261 -0.2213  0.1807
 7386W        W11586   8.569   5.645   0.450 -0.0774 -0.0119  0.5162
 7387W        W11587   0.105   4.298   1.797 -0.1530  0.4976  0.2677
 7388W        W11588   1.367   0.066   3.916 -0.0313 -0.0470  0.1984
 7389W        W11589   6.590   3.967  13.099 -0.0105 -0.1189 -0.2226
 7390W        W11590   5.382   8.816  10.946 -0.0063 -0.2380 -0.0999
 7391W        W11591  10.067   2.372   1.184 -0.0737 -0.4018 -0.2904
 7392W        W11592   0.265   5.089  11.596  0.2631  0.1647  0.1422
 7393W        W11593   2.411   9.489   9.792 -0.1473  0.4262 -0.1540
 7394W        W11594   9.304   9.392   2.709 -0.1438 -0.1655 -0.0062
 7395W        W11595   6.525   3.261   9.915 -0.1758 -0.0699  0.1862
 7396W        W11596   2.738   9.787   0.042 -0.2635 -0.1438  0.1047
 7397W        W11597   1.144   8.219   4.853  0.0506 -0.3353 -0.0330
 7398W        W11598   5.969   4.349   1.325 -0.3425  0.1478  0.1486
 7399W        W11599   6.974   3.160  11.073  0.6034  0.1840  0.0966
 7400W        W11600   1.354   5.855   2.298  0.0378 -0.2712 -0.2590
 7401W        W11601   5.264   6.845   0.016 -0.0347  0.2209  0.1319
 7402W        W11602   9.529   3.825  12.931  0.2032 -0.0634  0.1624
 7403W        W11603   9.227   4.689   0.227 -0.2956  0.1329 -0.2655
 7404W        W11604   4.054   9.052  11.798 -0.0548  0.1749 -0.1427
 7405W        W11605   5.319   5.993   3.114 -0.2314 -0.2495 -0.1463
 7406W        W11606   1.503   8.531   0.756  0.3003  0.0820 -0.1289
 7407W        W11607   9.880   6.974   1.379 -0.2331  0.1115 -0.0959
 7408W        W11608   5.469   4.420   4.216  0.1619  0.1785  0.0216
 7409W        W11609   8.483   6.129  12.818  0.0247  0.0639  0.2252
 7410W        W11610   5.126   2.606  10.219 -0.0157 -0.1789 -0.0902
 7411W        W11611   8.961   0.157   1.412 -0.2871 -0.2283  0.0204
 7412W        W11612   7.870   1.577   4.057 -0.0592  0.0145 -0.2308
 7413W        W11613  10.363   1.059  12.458  0.0214 -0.0720  0.0148
 7414W        W11614   2.368   6.034   9.020  0.0872  0.0673  0.1639
 7415W        W11615   2.500   4.178  13.037  0.2584  0.4296 -0.3546
 7416W        W11616   8.886   0.971  11.599  0.0200 -0.0244 -0.2880
 7417W        W11617   5.668   6.321  12.477 -0.3914 -0.2009 -0.0044
 7418W        W11618   8.508   3.688   2.518 -0.2707 -0.2483 -0.0231
 7419W        W11619   8.088   6.814  12.103 -0.2984 -0.4128 -0.0249
 7420W        W11620   7.566   3.857   2.722  0.0008 -0.1477 -0.2565
 7421W        W11621   5.562   6.473   3.289  0.1121 -0.2698  0.0550
 7422W        W11622  10.214   4.053   3.711  0.0070 -0.3473 -0.1722
 7423W        W11623   1.111   3.976  12.868 -0.2061 -0.0407  0.2128
 7424W        W11624   7.808   5.656   3.365  0.2723  0.0503 -0.0628
 7425W        W11625   8.877   9.606  11.367 -0.0006 -0.4332  0.2010
 7426W        W11626   1.950   1.729   9.262 -0.1230  0.2183 -0.0157
 7427W        W11627   9.781   7.272   9.827  0.0091 -0.0209 -0.2046
 7428W        W11628   0.263   0.696  11.885  0.3085  0.0914  0.1555
 7429W        W11629   9.838   7.245   4.742  0.0481  0.1924 -0.0628
 7430W        W11630   7.406   4.967   0.154 -0.0398 -0.2694 -0.0751
 7431W        W11631   3.768   4.516   2.320 -0.1444 -0.0979 -0.0510
 7432W        W11632   1.473   3.727   0.655 -0.0716  0.0570  0.1657
 7433W        W11633   6.486   0.360  10.837 -0.4488 -0.3290 -0.1321
 7434W        W11634   2.521   0.690   9.188 -0.1202  0.0992  0.0237
 7435W        W11635   5.807   0.773  11.134 -0.0559 -0.1410 -0.2263
 7436W        W11636  10.255   8.640   0.173 -0.0257 -0.0418 -0.1823
 7437W        W11637   3.905   9.902  12.227 -0.1943 -0.1412 -0.3513
 7438W        W11638   0.332   0.662   2.871 -0.0146  0.0140 -0.0631
 7439W        W11639   5.587   2.252  11.219 -0.1441 -0.2319 -0.1678
 7440W        W11640   8.595   1.070   3.676  0.0631 -0.1631 -0.2087
 7441W        W11641   2.402   7.477   4.559  0.2635  0.1030 -0.3008
 7442W        W11642   2.206   3.691  13.014  0.0440  0.0338  0.3034
 7443W        W11643   4.778   2.966   3.828 -0.1007  0.0721 -0.3397
 7444W        W11644   3.756   9.076  12.982  0.0758  0.0752 -0.0890
 7445W        W11645   2.314   5.176  12.478 -0.0137 -0.0997 -0.2367
 7446W        W11646   0.593   7.251  11.552 -0.1596  0.0153 -0.1332
 7447W        W11647   8.164   4.259   2.983 -0.1274  0.1870  0.2456
 7448W        W11648   1.877   2.660   0.462 -0.1030  0.2614  0.0564
 7449W        W11649   7.074   1.451  10.053  0.2163 -0.0691 -0.0160
 7450W        W11650   7.843   3.473   8.984  0.1019  0.0945 -0.2281
 7451W        W11651   7.856   4.571  11.779  0.2134  0.2663 -0.2313
 7452W        W11652   5.641   6.051   3.526 -0.0289  0.0543 -0.2844
 7453W        W11653   2.296   7.364  10.994 -0.3720  0.2853  0.1699
 7454W        W11654   6.716   4.826   1.123  0.3590 -0.1888 -0.0494
 7455W        W11655  10.400   4.248   1.073  0.0265  0.1016 -0.0137
 7456W        W11656   8.975   5.086   0.305  0.2027 -0.2201  0.0391
 7457W        W11657   0.860   2.773   8.316  0.3390 -0.3611 -0.4003
 7458W        W11658   6.413   6.666   0.217  0.0515  0.1567  0.1246
 7459W        W11659   5.594   4.490   1.590 -0.2434  0.0017  0.2535
 7460W        W11660   2.235   8.765   0.500 -0.0559 -0.0437  0.1534
 7461W        W11661   7.249   2.287   2.002 -0.1199 -0.1805  0.4578
 7462W        W11662   1.874   7.817  10.372  0.2197  0.1261 -0.0983
 7463W        W11663   6.546   8.612  12.157 -0.1462 -0.0633 -0.2545
 7464W        W11664   2.849   2.074   0.298  0.0554 -0.1223  0.0548
 7465W        W11665   0.170   1.968   0.672 -0.1780 -0.0847 -0.1027
 7466W        W11666   0.862   4.222   2.378 -0.2060 -0.3010  0.1881
 7467W        W11667   9.538   1.157   0.476 -0.0306  0.0680 -0.0860
 7468W        W11668   3.717   6.923   1.236 -0.2374 -0.2956 -0.1088
 7469W        W11669   7.519   9.756   2.864 -0.0285 -0.0074  0.1611
 7470W        W11670   1.532  10.020   9.877  0.3408 -0.1948  0.0530
 7471W        W11671   0.325   8.262  10.479  0.1590  0.1741  0.2240
 7472W        W11672   9.189   5.824  12.333  0.0693 -0.0152  0.2364
 7473W        W11673   3.937   7.734  11.042  0.1303 -0.0076 -0.3564
 7474W        W11674   6.396   8.279  12.486 -0.0795 -0.0834 -0.1294
 7475W        W11675   6.429   4.292  12.509  0.0301  0.1006  0.2578
 7476W        W11676   1.652   2.587   0.911  0.1159 -0.4213 -0.1617
 7477W        W11677   7.406  10.413  11.081 -0.0928  0.0730 -0.0912
 7478W        W11678   0.010   2.308   2.830  0.0707  0.1090  0.0970
 7479W        W11679   2.458   4.222  10.280 -0.1349 -0.2026 -0.0741
 7480W        W11680   7.441   6.445   2.434 -0.0504 -0.4563  0.2721
 7481W        W11681   1.426   7.292   9.818 -0.1782  0.3507  0.2111
 7482W        W11682   8.375   7.291  12.144 -0.3173  0.1943  0.1501
 7483W        W11683   3.111   3.726   1.818 -0.0149  0.2067  0.0716
 7484W        W11684   0.942   9.853  12.327  0.0765  0.2036  0.1611
 7485W        W11685   2.079   7.923   9.917  0.0552  0.0501 -0.0733
 7486W        W11686   1.072   2.728   9.246  0.0117 -0.1223 -0.0011
 7487W        W11687   6.207   3.584  10.215  0.1913  0.1162 -0.0972
 7488W        W11688   8.245   5.088  10.572 -0.0527 -0.0838  0.3529
 7489W        W11689   1.513   3.739   4.147 -0.0083 -0.0567 -0.2090
 7490W        W11690   1.267   1.587   0.034  0.2371 -0.0100 -0.1210
 7491W        W11691   7.282   6.079   4.143 -0.0168  0.1959 -0.1818
 7492W        W11692   3.199   2.058  10.936 -0.3230 -0.3087 -0.0677
 7493W        W11693   9.606   4.186   9.949 -0.0913  0.0696 -0.0751
 7494W        W11694   8.126   7.958   0.324  0.0103  0.1984  0.2777
 7495W        W11695   1.511   4.388   1.493 -0.0861 -0.1431  0.1002
 7496W        W11696   9.580   0.476  11.433  0.1090  0.2028 -0.3572
 7497W        W11697   1.886   3.220  13.002  0.0422 -0.1860  0.0040
 7498W        W11698   6.698   6.252   9.502 -0.1029 -0.0639 -0.0951
 7499W        W11699   8.190   0.504   1.389  0.2164 -0.0340 -0.1104
 7500W        W11700   9.216   8.550   9.347 -0.0550 -0.1648  0.0197
 7501W        W11701   9.577   1.081  10.016 -0.0381  0.3420  0.1808
 7502W        W11702   8.926   4.887   4.486  0.1922 -0.2948 -0.2897
 7503W        W11703   0.594   7.876  10.244  0.1410 -0.1089 -0.0028
 7504W        W11704   0.111   5.589  11.598  0.1765  0.4071 -0.1202
 7505W        W11705   1.387   5.932   4.031  0.2762  0.0247 -0.0205
 7506W        W11706   8.026   7.356  10.825 -0.0104 -0.0702 -0.3365
 7507W        W11707   7.780   8.894  12.866 -0.0790 -0.2191 -0.0110
 7508W        W11708   3.397   8.636   2.354  0.0778 -0.0869  0.4236
 7509W        W11709   2.493   2.093   0.662  0.3276 -0.1630 -0.0094
 7510W        W11710   3.852   3.002   3.341  0.0383  0.0768  0.1769
 7511W        W11711   4.323   2.977  10.263  0.0507  0.1281  0.0305
 7512W        W11712   1.155   2.460   9.718  0.2238 -0.1441  0.0151
 7513W        W11713   5.379   1.915   1.209  0.1720  0.1531  0.0730
 7514W        W11714   1.881   2.719  12.799 -0.1774 -0.1821  0.1375
 7515W        W11715   2.756   3.367  12.139 -0.1039 -0.2316  0.2799
 7516W        W11716   1.566   2.623  11.673  0.5309  0.1021  0.1518
 7517W        W11717   4.440   1.648   2.185  0.1545 -0.1591  0.0305
 7518W        W11718   3.634   8.323  13.251  0.3021  0.0956 -0.0562
 7519W        W11719   1.254   9.045   8.682  0.2178 -0.0568  0.1679
 7520W        W11720   5.345   3.763   1.056  0.3128 -0.2875 -0.0119
 7521W        W11721   6.357   5.549   8.281  0.1189  0.0860  0.2289
 7522W        W11722   2.293   7.898  11.771  0.4098  0.1023 -0.0927
 7523W        W11723   0.436   5.457   1.228  0.1716 -0.3872 -0.3472
 7524W        W11724   9.308   3.259   3.294 -0.1126 -0.1146 -0.1559
 7525W        W11725   1.114   7.097  12.934  0.0262 -0.2911 -0.2119
 7526W        W11726   1.970   6.335   8.942  0.0126 -0.2264  0.0910
 7527W        W11727   9.429   2.239  12.775 -0.2017  0.0980  0.0402
 7528W        W11728   3.866   2.435   0.365  0.0413 -0.2030 -0.1011
 7529W        W11729   6.517   1.819   0.384 -0.1005 -0.0558 -0.3291
 7530W        W11730   8.991   1.768  11.688  0.2040 -0.5939 -0.0353
 7531W        W11731   6.126   3.540   3.234  0.1905 -0.2898  0.0823
 7532W        W11732   7.344   3.571  10.437 -0.0109  0.1549 -0.0031
 7533W        W11733   2.457   5.541   0.970 -0.3169  0.2591 -0.2776
 7534W        W11734   4.334   3.981   2.222 -0.1689 -0.4728 -0.1574
 7535W        W11735   8.021   9.788   3.967  0.0505 -0.1749  0.1665
 7536W        W11736   6.862   1.428  12.195 -0.4529 -0.2376  0.0465
 7537W        W11737   5.872   7.559  12.058  0.0034 -0.1620 -0.1381
 7538W        W11738   2.660   4.022   9.345  0.1668 -0.4711  0.2790
 7539W        W11739   7.477   9.823  10.126  0.0109  0.1900 -0.2266
 7540W        W11740   9.819   6.079  11.941 -0.1523  0.2574 -0.0887
 7541W        W11741   8.126   9.665  12.813 -0.3287 -0.3002  0.1636
 7542W        W11742   9.556   1.588  10.108 -0.1638  0.0375 -0.1715
 7543W        W11743   3.178   6.056   3.594 -0.0641 -0.1134 -0.0266
 7544W        W11744   3.791   9.909   1.849  0.1087 -0.1382 -0.0084
 7545W        W11745   0.058   3.088   9.892  0.2148  0.3794  0.0136
 7546W        W11746   8.613   3.395  10.494  0.0503  0.0632  0.2369
 7547W        W11747   5.822   6.237  11.538  0.1220  0.1721  0.4734
 7548W        W11748   1.715   7.123   0.270  0.0489  0.1098  0.1657
 7549W        W11749   9.689   2.484  10.050  0.0830 -0.0169  0.0560
 7550W        W11750   5.376   7.864   2.794 -0.2398  0.0700  0.1924
 7551W        W11751   0.599   4.017   1.562 -0.0221  0.1158 -0.1089
 7552W        W11752   4.567  10.351   0.251 -0.0924 -0.4345 -0.1387
 7553W        W11753   0.979   6.585   1.332  0.1056  0.2807 -0.2540
 7554W        W11754   7.044   4.177   2.971  0.0628 -0.1346 -0.1604
 7555W        W11755   3.180   4.553  10.777 -0.0473  0.1142 -0.2792
 7556W        W11756   9.663   6.665   2.800  0.0579 -0.0844  0.1485
 7557W        W11757   6.777   4.972   9.207  0.1540 -0.0230 -0.0220
 7558W        W11758   2.729   5.339   1.416  0.0518  0.0033 -0.3973
 7559W        W11759   3.844   1.727   0.415 -0.0667  0.1182  0.5371
 7560W        W11760   0.698   4.634   4.170 -0.0401 -0.0045  0.2869
 7561W        W11761   3.478   8.269   3.218  0.0042  0.1846  0.1209
 7562W        W11762   2.923   5.593   0.734  0.1525  0.0845  0.1832
 7563W        W11763   2.311   9.133  12.372  0.4221  0.0444  0.1267
 7564W        W11764   5.273   1.388   2.781  0.0515  0.0174 -0.3785
 7565W        W11765   0.496   3.858   9.381  0.2062  0.3395 -0.3786
 7566W        W11766   9.800   7.608   3.096 -0.2037  0.1560  0.0573
 7567W        W11767   0.002   3.797  13.184  0.0581 -0.1976 -0.0223
 7568W        W11768   0.153   9.469   3.884 -0.1108 -0.3614 -0.1832
 7569W        W11769   1.131   3.180  10.998 -0.1327  0.0214 -0.3840
 7570W        W11770   6.420   4.950   8.245 -0.0141 -0.0951 -0.0866
 7571W        W11771   7.835   1.068   3.056  0.2583  0.4399  0.0741
 7572W        W11772   2.013   4.798   9.315 -0.1228 -0.0803  0.2023
 7573W        W11773  10.384  10.228  11.882  0.0164 -0.3501  0.1277
 7574W        W11774   8.468   7.612   8.674  0.1544 -0.0056  0.0122
 7575W        W11775   0.905   2.150   0.416 -0.2258  0.2451  0.1600
 7576W        W11776   2.486   8.748   8.548 -0.2242  0.1046  0.0342
 7577W        W11777   8.545   3.054  12.409 -0.1125 -0.0492  0.0022
 7578W        W11778   5.348   7.981  11.230 -0.0204  0.1028 -0.1156
 7579W        W11779   9.014   0.039  11.754 -0.0553  0.0106  0.1985
 7580W        W11780   1.705   2.831   9.989 -0.1961  0.0157 -0.5532
 7581W        W11781   2.345   2.027  12.546  0.1627  0.3346 -0.2749
 7582W        W11782   3.928   7.399   3.845  0.5820 -0.0754  0.0093
 7583W        W11783   0.337   8.809   3.241 -0.1257  0.3150 -0.2191
 7584W        W11784   2.697   1.554  12.016  0.1351 -0.0278 -0.0871
 7585W        W11785   3.699   4.319   3.347  0.0878  0.0333  0.3118
 7586W        W11786   8.324   1.755  12.377 -0.0020 -0.0649  0.3206
 7587W        W11787   1.452   7.617   2.235 -0.0196 -0.6180  0.0387
 7588W        W11788   1.310   9.200  11.156  0.2100  0.0298  0.3897
 7589W        W11789   9.540   7.092  12.547  0.0906  0.0831  0.3722
 7590W        W11790   9.468   6.484   0.372 -0.0161 -0.1912 -0.0096
 7591W        W11791   8.758   6.630  12.595 -0.1822 -0.0335 -0.2190
 7592W        W11792   5.523   0.511   2.344 -0.4319  0.2030  0.1203
 7593W        W11793   7.478   7.436  12.573 -0.2538  0.1369 -0.1306
 7594W        W11794   4.006   4.637   9.619 -0.1042 -0.1237 -0.2569
 7595W        W11795   1.823   9.498   0.530  0.0182 -0.1565 -0.0296
 7596W        W11796   4.054   3.192  13.011  0.3308 -0.1833  0.0607
 7597W        W11797   3.612  10.271   2.228 -0.0184  0.1085 -0.0729
 7598W        W11798   3.185   8.741   3.456  0.2014  0.1012 -0.1340
 7599W        W11799   5.030   6.149   9.277 -0.2215  0.1781  0.0725
 7600W        W11800   5.963   4.194  11.874 -0.1420 -0.1278 -0.1475
 7601W        W11801   8.801   5.486  11.281 -0.1375 -0.1670  0.0843
 7602W        W11802   6.918   7.193   3.675 -0.0616  0.0037  0.0808
 7603W        W11803   8.658   9.783   2.786  0.2123  0.2375 -0.2585
 7604W        W11804   8.904   7.242   1.562 -0.1508  0.0339  0.1654
 7605W        W11805   6.670   3.216   0.987  0.0975  0.1878 -0.0445
 7606W        W11806   9.414  10.391   0.162 -0.0019  0.1989 -0.0313
 7607W        W11807   2.171   2.482  12.333  0.3871  0.0894 -0.0145
 7608W        W11808   7.597   5.987  11.732 -0.2473 -0.0919 -0.0918
 7609W        W11809   1.734   4.133   0.456 -0.1577 -0.2968 -0.0028
 7610W        W11810   9.289   2.634   9.115 -0.3571  0.2161 -0.3475
 7611W        W11811   4.810   9.597   9.373 -0.2372 -0.0803 -0.3076
 7612W        W11812   8.872   9.861   2.320 -0.1476 -0.0841 -0.2229
 7613W        W11813   3.907   6.575   4.093  0.1325 -0.0440  0.0923
 7614W        W11814   0.662   9.245  10.181  0.0031  0.0734  0.0819
 7615W        W11815   1.826   4.998   4.054  0.0252  0.1859  0.1652
 7616W        W11816   8.553   0.157  11.555 -0.4343 -0.2042  0.4311
 7617W        W11817   7.062   1.669  12.995 -0.1374 -0.1188 -0.2040
 7618W        W11818   0.987   2.952   0.038  0.0969 -0.3699  0.1389
 7619W        W11819   0.773   6.718  10.359 -0.1981 -0.4233  0.1546
 7620W        W11820   2.823   0.788   3.092 -0.0593 -0.3458  0.1074
 7621W        W11821   0.744   1.619   0.137 -0.1967 -0.0368 -0.0001
 7622W        W11822   8.385   9.561   2.362  0.0146 -0.2407 -0.0114
 7623W        W11823   7.351   9.600   8.749 -0.1843  0.2181 -0.0561
 7624W        W11824   1.665   0.448   1.158  0.0308  0.0456 -0.1407
 7625W        W11825   3.929   2.375  10.406 -0.0754  0.3938 -0.3002
 7626W        W11826   3.009   6.193   8.506 -0.0678  0.1961  0.2977
 7627W        W11827   9.335   7.912   1.350  0.0071  0.2496  0.2420
 7628W        W11828   6.845   8.183   9.898  0.3100  0.0108  0.0741
 7629W        W11829   3.274   9.891   2.182  0.0250 -0.1464  0.1289
 7630W        W11830   2.011   2.997   0.847 -0.0575  0.0178 -0.1798
 7631W        W11831   8.418   6.234   4.024 -0.0383  0.1888  0.0266
 7632W        W11832   4.496   6.731  12.632 -0.0019 -0.0048 -0.1651
 7633W        W11833   0.066   9.406   2.497 -0.1656  0.3247 -0.0018
 7634W        W11834   2.639   0.408  11.545 -0.0555  0.1069 -0.4251
 7635W        W11835   1.021   8.594   0.795  0.1504 -0.2965 -0.1542
 7636W        W11836   5.171   0.334  11.522  0.3446 -0.1054 -0.0670
 7637W        W11837   6.800   1.698   3.152  0.3151  0.0910 -0.0577
 7638W        W11838   2.371   0.988   1.760  0.2831 -0.1474 -0.1207
 7639W        W11839   6.067   6.316   0.444 -0.2254  0.2506  0.0055
 7640W        W11840   8.023   5.566  10.565  0.0826  0.1058  0.3045
 7641W        W11841   0.193   5.468   3.644  0.0974 -0.2609  0.1642
 7642W        W11842   9.118   8.723   0.882  0.0864  0.1695  0.2696
 7643W        W11843   6.799   0.924  10.188  0.0067  0.2292  0.1487
 7644W        W11844   8.986   8.573   1.774  0.1324 -0.1206 -0.1088
 7645W        W11845  10.332   7.036  11.803 -0.2975 -0.1985 -0.0296
 7646W        W11846   7.905  10.103   9.926  0.3508  0.2773 -0.0593
 7647W        W11847   2.023   5.712   9.918  0.0364  0.0944  0.3392
 7648W        W11848   1.789   9.648   2.741 -0.1975 -0.0834  0.0594
 7649W        W11849   1.424   9.348   0.748  0.1736  0.2190  0.1005
 7650W        W11850   9.967   9.947   1.597  0.2444  0.0410  0.0779
 7651W        W11851   5.469   9.173   3.366 -0.1179 -0.1041 -0.2014
 7652W        W11852   3.484   8.266   1.555 -0.0510 -0.0851 -0.1021
 7653W        W11853   3.923   8.327  10.276 -0.0512  0.0466  0.0977
 7654W        W11854   8.226   0.024   1.531 -0.2432  0.4412 -0.1652
 7655W        W11855   0.963   4.824   4.531 -0.0836  0.1801  0.0486
 7656W        W11856   2.277   3.391   0.105 -0.2174 -0.1019 -0.4007
 7657W        W11857   9.407   7.455   4.913  0.1202  0.3161 -0.0434
 7658W        W11858   6.124   5.764  13.191 -0.0581  0.0277  0.0687
 7659W        W11859   9.918   7.134  12.159  0.0016  0.2077  0.0419
 7660W        W11860   0.144   0.312   3.600  0.1600 -0.1229  0.0731
 7661W        W11861   3.577   4.184  10.834 -0.3424 -0.1545 -0.0867
 7662W        W11862   2.841   3.579   9.470 -0.0276  0.1270 -0.1493
 7663W        W11863   8.453   1.999  11.090 -0.1213  0.4718 -0.0006
 7664W        W11864   0.930   5.329   1.259  0.0723  0.2699 -0.2167
 7665W        W11865   2.294   5.701   4.033  0.0014  0.2179  0.2166
 7666W        W11866   9.288   6.264  11.905  0.1609 -0.0896 -0.0930
 7667W        W11867   6.958   8.503   0.473  0.1574  0.0727  0.0355
 7668W        W11868   2.484   1.097   3.358 -0.0269 -0.0872  0.1105
 7669W        W11869   4.431   0.758  11.264 -0.1589 -0.1064  0.1773
 7670W        W11870   7.702   4.625  11.287 -0.1317 -0.1202 -0.1332
 7671W        W11871   6.010   8.287   9.554  0.1366  0.0791  0.0139
 7672W        W11872   3.664   7.568   4.305 -0.1330 -0.1482  0.2315
 7673W        W11873   7.728   5.016   3.200 -0.0415  0.0280 -0.1695
 7674W        W11874   5.241   2.313   4.117 -0.1879 -0.0253 -0.0102
 7675W        W11875   4.620   2.151   0.090  0.0752 -0.0010  0.0390
 7676W        W11876  10.498   7.045   0.380 -0.1159  0.0045 -0.0269
 7677W        W11877   5.974   1.794   2.118 -0.0964 -0.1853 -0.1004
 7678W        W11878   3.868   9.230   2.975  0.0654 -0.0307 -0.2063
 7679W        W11879   9.718   6.068   9.824 -0.1156 -0.0217  0.2644
 7680W        W11880   4.760   9.313   2.638 -0.0350 -0.5776  0.0490
 7681W        W11881   1.062   5.392  11.696 -0.1430 -0.3233  0.2349
 7682W        W11882   8.809   8.243  10.234 -0.1093 -0.2190  0.0512
 7683W        W11883   9.382   4.840  10.501 -0.1038  0.0742  0.3100
 7684W        W11884   8.392   7.354   4.701 -0.2317  0.2607 -0.0279
 7685W        W11885   1.005   7.822  11.134 -0.0779  0.0274 -0.0133
 7686W        W11886   8.912   3.235   1.737 -0.2105  0.0007  0.1195
 7687W        W11887   8.795   7.461  12.937 -0.0830  0.0872  0.2349
 7688W        W11888   6.395   5.502  11.181  0.2325  0.0648  0.2272
 7689W        W11889   8.803   3.468  11.245 -0.1147  0.0392  0.1562
 7690W        W11890   4.867   6.981   9.194 -0.3210 -0.2491 -0.3596
 7691W        W11891   1.668   2.586   2.342  0.0230 -0.2772 -0.2239
 7692W        W11892   0.235   8.484  11.239 -0.3949  0.0859  0.1401
 7693W        W11893   8.573   9.216   4.478  0.4733  0.1097 -0.1726
 7694W        W11894   7.977   5.094   0.755  0.0535  0.0543  0.0596
 7695W        W11895   0.134   2.035   4.333  0.2241 -0.3265  0.0525
 7696W        W11896   6.575   9.310  10.936  0.0688  0.0920  0.0338
 7697W        W11897   5.073   9.672   3.181 -0.0981  0.0309  0.1312
 7698W        W11898   8.788   2.102   9.508 -0.2955  0.1508 -0.0109
 7699W        W11899   5.424   2.147  13.197  0.3824  0.1926  0.0339
 7700W        W11900   0.824   5.750   0.956 -0.2276  0.2950  0.2426
 7701W        W11901   1.485   1.314  12.947  0.0407  0.1342 -0.0517
 7702W        W11902   0.391   3.301   0.519 -0.5148 -0.1398  0.1318
 7703W        W11903   1.195   8.006   4.439  0.1598  0.0651 -0.0026
 7704W        W11904   9.121   6.184  12.755  0.0880 -0.0664 -0.3587
 7705W        W11905   3.709   0.533  13.127  0.1645  0.0016 -0.0042
 7706W        W11906   3.035  10.295   2.308 -0.0572 -0.0990  0.2306
 7707W        W11907   4.722   5.483   2.148  0.0425  0.1205  0.2481
 7708W        W11908   7.589   7.887   3.389  0.0448  0.0350  0.1162
 7709W        W11909   9.754   4.486   0.242  0.0322 -0.0039  0.1704
 7710W        W11910   0.978   0.931   8.817 -0.1009 -0.2345  0.0619
 7711W        W11911  10.332   2.638  11.820  0.1521 -0.2684 -0.0116
 7712W        W11912   1.688   8.380  12.306 -0.2658  0.0749  0.1727
 7713W        W11913   8.157   7.139   0.812  0.0368 -0.2113 -0.0719
 7714W        W11914   7.915  10.298  12.228 -0.0309 -0.0306 -0.1971
 7715W        W11915   1.126   3.474   0.821 -0.0745 -0.0789 -0.0037
 7716W        W11916   4.379   9.146   3.284  0.2377 -0.1592  0.0241
 7717W        W11917   3.609   5.984   3.962  0.2170  0.0192  0.1597
 7718W        W11918   5.724   3.649   9.911  0.2779  0.1154  0.0207
 7719W        W11919   0.667   8.661   1.117 -0.0769 -0.2059 -0.2873
 7720W        W11920   9.829   1.611   0.341  0.3130  0.0232 -0.0711
 7721W        W11921   8.622   9.530   1.563  0.2270 -0.2222  0.4068
 7722W        W11922   6.685   7.899  12.597 -0.0744  0.0233 -0.0601
 7723W        W11923   6.306   6.089   0.833  0.2964  0.1250 -0.0526
 7724W        W11924   3.115   7.855  12.626 -0.0348  0.1248  0.0163
 7725W        W11925   3.804   5.870   0.574  0.0280 -0.0005  0.4021
 7726W        W11926   0.456   5.933   1.244 -0.2735 -0.1880  0.0974
 7727W        W11927   2.624   0.488   1.735  0.0642 -0.2005  0.0760
 7728W        W11928   9.575   4.897   3.296 -0.4494 -0.1434  0.1131
 7729W        W11929   8.405   2.803  13.133 -0.1679 -0.0591  0.2516
 7730W        W11930   3.626   7.187  11.750 -0.2074 -0.1513  0.0407
 7731W        W11931   1.396   5.435  13.000 -0.2539 -0.0048 -0.1023
 7732W        W11932   5.359   3.381   2.273 -0.1591  0.0199 -0.1883
 7733W        W11933   2.115   8.569  11.488  0.2425 -0.0495 -0.0047
 7734W        W11934   2.875   7.384   9.018  0.2425 -0.0946 -0.0398
 7735W        W11935   4.261  10.121   9.993  0.2885  0.2019 -0.0122
 7736W        W11936   9.182   6.366   1.414 -0.2875 -0.2590  0.1912
 7737W        W11937   1.361   2.795  11.202  0.0561 -0.1447 -0.6631
 7738W        W11938   9.353   4.519   9.281  0.4568 -0.0573  0.1421
 7739W        W11939   8.100   4.295  11.181  0.3376 -0.1384 -0.2188
 7740W        W11940   7.346   8.792   0.320  0.0446 -0.2485 -0.1303
 7741W        W11941   1.260   2.943   0.933 -0.1399  0.1267  0.3053
 7742W        W11942   0.596  10.103  12.037  0.1462 -0.0557  0.2847
 7743W        W11943   0.490   9.032   2.000 -0.1182 -0.0614  0.2941
 7744W        W11944   4.577   7.567   3.061 -0.2016  0.0385  0.3094
 7745W        W11945   2.541   1.746   9.835 -0.3420  0.1338  0.2082
 7746W        W11946   8.841   9.689   4.622  0.4058  0.0276  0.3533
 7747W        W11947   3.122   7.279   0.122  0.1435 -0.1121  0.5797
 7748W        W11948   9.105   6.963  11.454 -0.1340 -0.3335 -0.0066
 7749W        W11949   4.815   2.565   4.303 -0.0541  0.0166  0.0237
 7750W        W11950   3.544   3.565  11.652 -0.1323  0.1309 -0.2448
 7751W        W11951   5.602  10.547   3.220 -0.1708 -0.0948 -0.2568
 7752W        W11952   4.125   8.779  10.125 -0.2207  0.0852  0.0911
 7753W        W11953   5.669   0.964   5.626  0.0679 -0.2895  0.0655
 7754W        W11954  10.019   6.430   2.538  0.3422  0.0887 -0.3718
 7755W        W11955   7.637   2.012   4.778  0.1791 -0.2808 -0.0529
 7756W        W11956   2.411   4.680   0.037  0.3387  0.1235 -0.0621
 7757W        W11957   9.099   1.289  11.980  0.0935  0.3228 -0.1549
 7758W        W11958   7.265   5.210  10.108 -0.1618 -0.0173  0.4502
 7759W        W11959  10.177   3.991   2.647  0.1102  0.5244  0.0473
 7760W        W11960   0.092   1.105  10.372  0.1897  0.0607 -0.0015
 7761W        W11961   3.531   6.889  12.788  0.4925 -0.2236 -0.0301
 7762W        W11962   3.667   5.216   1.055 -0.2506 -0.2380  0.1548
 7763W        W11963   0.092   0.446  12.853 -0.0204  0.0793  0.4592
 7764W        W11964   3.131   3.239   2.683  0.3942  0.2688  0.3186
 7765W        W11965   2.193  10.205   8.679  0.1667 -0.0789  0.4007
 7766W        W11966   5.617   4.465   0.365 -0.3148 -0.1766 -0.1535
 7767W        W11967   3.872   6.914   2.798  0.0364 -0.0051  0.1015
 7768W        W11968   6.501   2.810   3.572 -0.2144  0.4118  0.2897
 7769W        W11969   3.188   8.236   2.018 -0.1931  0.2566 -0.1134
 7770W        W11970   6.563   0.586   3.836 -0.2313  0.0399 -0.1058
 7771W        W11971   2.493   9.832   8.867  0.3337 -0.2722  0.2378
 7772W        W11972   3.329   8.358   4.642 -0.0327  0.0647  0.1117
 7773W        W11973   5.546   4.379   9.394 -0.2361 -0.1070 -0.0823
 7774W        W11974   1.778   9.421   3.565 -0.1840 -0.1623 -0.2755
 7775W        W11975   4.735  10.126  11.925 -0.2960  0.1801 -0.1158
 7776W        W11976   0.037   9.678   9.332 -0.1856  0.1182 -0.0629
 7777W        W11977   4.139   2.860   1.490  0.2538  0.1434 -0.1799
 7778W        W11978   9.755   2.832   1.321 -0.0013  0.1760  0.0911
 7779W        W11979   9.572   8.428   1.524  0.1218 -0.1374  0.2512
 7780W        W11980   5.997   1.337   4.000 -0.1455 -0.1445 -0.0183
 7781W        W11981   6.809   8.276   3.366 -0.2415  0.1981 -0.1867
 7782W        W11982   5.091   9.250  11.019 -0.1118  0.1498  0.1999
 7783W        W11983   7.949   7.822   9.376  0.0134  0.3136  0.0542
 7784W        W11984   9.019   8.325   9.764 -0.0435 -0.1954 -0.1135
 7785W        W11985   9.461   6.816   4.134 -0.0388 -0.1809  0.1061
 7786W        W11986   8.593   8.224   2.640  0.1123 -0.1685 -0.0515
 7787W        W11987   9.196   4.480   8.832 -0.0671 -0.0657  0.2463
 7788W        W11988   7.920   8.157   2.262  0.1099 -0.1923  0.0362
 7789W        W11989   3.816   3.338  12.480 -0.0210  0.2917  0.3986
 7790W        W11990   1.599   4.516  12.916 -0.2150  0.0528 -0.1920
 7791W        W11991   4.559   6.218   3.572  0.1741  0.0681 -0.0009
 7792W        W11992   9.958   3.815   9.899 -0.1750  0.3126  0.1109
 7793W        W11993   6.248   3.586   0.820  0.1479  0.2266 -0.0737
 7794W        W11994   3.255   9.985  13.265 -0.4765 -0.1707  0.1921
 7795W        W11995   1.690   4.666   4.431 -0.1268  0.1834  0.0394
 7796W        W11996   5.045   8.689   2.665  0.3503 -0.0959 -0.1214
 7797W        W11997   6.415   5.068  11.917 -0.0699  0.1697  0.0253
 7798W        W11998   2.834   4.829   1.442  0.0181  0.0714  0.0020
 7799W        W11999   9.681   5.905   8.337 -0.0625  0.0794 -0.0806
 7800W        W12000   2.961   2.574  10.079  0.0291 -0.0689 -0.0483
 7801W        W12001   8.244   7.772   9.890  0.1867  0.0128  0.1181
 7802W        W12002   0.673   0.740  12.589 -0.0778 -0.1948 -0.0119
 7803W        W12003   8.587   5.105  10.034  0.0752 -0.2286  0.0955
 7804W        W12004   9.542   4.564  10.878 -0.0274  0.1078 -0.3519
 7805W        W12005   4.082   6.700   3.244 -0.1601  0.2086  0.0918
 7806W        W12006   4.316   7.034  10.977 -0.0089  0.0027  0.0537
 7807W        W12007   1.686   2.229   9.980  0.0595  0.1907 -0.0440
 7808W        W12008  10.261   8.349   4.334 -0.0585  0.0819 -0.1923
 7809W        W12009   9.479   8.559  12.174  0.3614 -0.0885  0.2007
 7810W        W12010   1.344   5.025   4.317 -0.1877 -0.0708  0.0002
 7811W        W12011  10.021   6.626  11.968 -0.2714 -0.2110  0.3248
 7812W        W12012   0.907   9.123  10.882 -0.0487 -0.0921 -0.1083
 7813W        W12013   1.007   0.002  13.102 -0.2024 -0.0335  0.1883
 7814W        W12014   5.148   1.847   2.543  0.1116  0.0643  0.0301
 7815W        W12015   6.789   1.816  12.560 -0.2639 -0.0709  0.3539
 7816W        W12016   3.258   2.951  13.258 -0.0644  0.0019 -0.2856
 7817W        W12017   9.126   8.261  12.511  0.0898  0.1937  0.0560
 7818W        W12018   8.203   5.819  10.118  0.0276 -0.1936 -0.1188
 7819W        W12019   9.551   0.375  12.840  0.0168 -0.0030  0.1336
 7820W        W12020   0.419   3.872  11.237  0.0306 -0.0074  0.0725
 7821W        W12021   8.044   3.821   8.502 -0.0558 -0.2111  0.1094
 7822W        W12022   2.532   0.647  10.071  0.0618 -0.2909  0.0787
 7823W        W12023   2.320   7.460   2.651  0.0840  0.2781 -0.0233
 7824W        W12024  10.157   1.050  10.283  0.3067 -0.0241 -0.0540
 7825W        W12025   3.136   9.502  10.185  0.1720 -0.0473  0.1674
 7826W        W12026   4.015   8.094   9.319 -0.0089 -0.2123  0.2762
 7827W        W12027  10.002   8.041   9.289  0.0174 -0.0214 -0.1269
 7828W        W12028   6.678   8.987   9.899  0.4335  0.0463 -0.0778
 7829W        W12029   7.896   0.636  13.169  0.0425  0.0324 -0.3272
 7830W        W12030   9.019   3.898  11.353  0.3073 -0.1638 -0.0332
 7831W        W12031   5.562   7.024   9.334 -0.0861 -0.0882  0.0319
 7832W        W12032   9.650   1.481   4.332 -0.0313 -0.2324  0.1710
 7833W        W12033   8.333   7.182   4.219  0.0521 -0.0904 -0.2513
 7834W        W12034   5.557   7.088  11.880 -0.0802 -0.0229 -0.5091
 7835W        W12035   5.628   7.081   3.550 -0.0790  0.0498  0.1402
 7836W        W12036   6.077   6.204   3.650  0.3174  0.0846 -0.1306
 7837W        W12037   2.237   4.088  12.567 -0.1496 -0.0918 -0.0930
 7838W        W12038   0.585  10.300   9.898  0.0963  0.1644  0.2100
 7839W        W12039   2.916   5.253   4.840  0.4065 -0.1793  0.0476
 7840W        W12040   4.731   7.360  10.785  0.0529  0.3920  0.0424
 7841W        W12041   8.911   8.144   3.646  0.3865 -0.1021 -0.1782
 7842W        W12042   4.222   2.706   3.176 -0.2783  0.0034 -0.0376
 7843W        W12043   3.335   3.246  12.528 -0.4341 -0.0762 -0.0819
 7844W        W12044   5.109   3.671  12.677 -0.1654  0.0023 -0.2567
 7845W        W12045   1.088   3.554   3.973 -0.2955  0.0239  0.0754
 7846W        W12046   5.774   7.368  12.527  0.1178 -0.2540 -0.1391
 7847W        W12047  10.040   8.326  13.153  0.1517 -0.1559  0.3101
 7848W        W12048   4.783   4.860  11.401  0.0004 -0.0851 -0.1345
 7849W        W12049   6.097   0.430   2.158  0.3010  0.0638  0.0930
 7850W        W12050   3.411   6.330   9.742  0.1970  0.4168  0.2295
 7851W        W12051   8.279   5.440  12.304 -0.0287  0.6284 -0.0378
 7852W        W12052   5.508   2.916  11.933  0.1481  0.1854  0.1550
 7853W        W12053   6.079   3.596   3.750  0.1988 -0.2096 -0.3155
 7854W        W12054   5.266   0.322  12.536  0.1901  0.4179 -0.1907
 7855W        W12055   5.973   7.379   0.560  0.2010 -0.0480 -0.1115
 7856W        W12056   3.712   8.245   2.467 -0.4369 -0.2061  0.1322
 7857W        W12057   9.605   5.639   1.312 -0.0096 -0.1880  0.0360
 7858W        W12058   3.681   1.881   1.685 -0.1952 -0.1051  0.2607
 7859W        W12059   2.305   8.713   2.012 -0.4068 -0.0664  0.1236
 7860W        W12060   6.757   2.185   1.155 -0.0237 -0.0780 -0.1438
 7861W        W12061   5.278  10.398  10.147 -0.0452  0.2063 -0.0710
 7862W        W12062   6.464   6.549   0.698  0.2863  0.1422  0.0541
 7863W        W12063   7.097   8.383  13.269  0.5390  0.1818 -0.1215
 7864W        W12064   6.925   7.901   4.654 -0.0840 -0.1771 -0.1742
 7865W        W12065   8.809   3.451  12.307 -0.0753 -0.4142  0.1507
 7866W        W12066   8.109   4.469   0.169 -0.1251 -0.1895 -0.2350
 7867W        W12067   7.539   3.640  12.040  0.0191  0.1620 -0.0818
 7868W        W12068   1.298   5.498   0.827 -0.1956  0.2779 -0.0675
 7869W        W12069   4.939   0.063  12.881 -0.0239  0.0853 -0.1665
 7870W        W12070  10.445   5.684   9.310 -0.1708 -0.4267 -0.0917
 7871W        W12071   6.749   6.923   2.736  0.0965 -0.0212  0.0074
 7872W        W12072   4.663   1.457  11.240  0.1905  0.3069  0.1596
 7873W        W12073   0.063   3.914   1.343  0.2122  0.1533 -0.1664
 7874W        W12074   0.749   6.195  12.969  0.4284  0.0662  0.0819
 7875W        W12075   4.046   0.720   0.188  0.0077 -0.0191  0.2192
 7876W        W12076   7.310   9.151  11.758 -0.1438 -0.0276  0.6273
 7877W        W12077   1.332   7.487   4.007 -0.1174 -0.0351  0.3824
 7878W        W12078   9.651   5.223   9.252 -0.2545  0.0180  0.2253
 7879W        W12079   4.439   2.529  10.484  0.1113 -0.0357  0.0141
 7880W        W12080  10.011   5.994   9.343 -0.0968  0.1173 -0.1819
 7881W        W12081   7.109   9.544  10.153  0.2582  0.0635 -0.0873
 7882W        W12082   5.862   0.783   1.813 -0.3786 -0.0014  0.0318
 7883W        W12083   2.018   3.476   2.544 -0.2490  0.0258 -0.0810
 7884W        W12084   7.904   0.709  12.277 -0.0275  0.5077 -0.0480
 7885W        W12085   3.449   3.986   9.224 -0.0935  0.3272  0.2620
 7886W        W12086   6.818   6.862  11.098  0.0357  0.4258 -0.1327
 7887W        W12087   4.341   8.042  11.933  0.1435  0.0645 -0.0611
 7888W        W12088   7.571   3.659   3.481 -0.2438  0.0995  0.1272
 7889W        W12089   4.165   3.843   0.363  0.1460 -0.1620  0.1955
 7890W        W12090   5.443   6.098   4.462  0.0165 -0.0146  0.0860
 7891W        W12091   2.887   7.839   1.967 -0.1673  0.1980 -0.0445
 7892W        W12092   7.839   6.484  11.738  0.0932 -0.1050  0.1420
 7893W        W12093   0.495   7.691  11.207  0.1235  0.0524  0.1182
 7894W        W12094  10.205   8.532   8.692 -0.1269 -0.3294 -0.2808
 7895W        W12095   4.965   2.016   1.641 -0.2206 -0.2842  0.2307
 7896W        W12096   1.757   6.384   1.700 -0.6457 -0.0438  0.1236
 7897W        W12097   6.749   6.413  10.039  0.1348 -0.1522 -0.0607
 7898W        W12098   7.737   2.710  13.136  0.0226  0.0379 -0.1064
 7899W        W12099   7.980  10.483   9.401 -0.3218  0.0022 -0.1094
 7900W        W12100   4.238   9.121   1.619 -0.0732 -0.1234  0.2160
 7901W        W12101   2.290   8.826   4.813 -0.0692 -0.1388 -0.1913
 7902W        W12102   0.789  10.508   2.280  0.0103 -0.1005  0.0734
 7903W        W12103   5.183   8.648   9.684  0.1022  0.2643  0.0925
 7904W        W12104   1.467   2.998   9.009 -0.1089 -0.0674 -0.0825
 7905W        W12105   2.468   8.191  10.798  0.1152  0.3396  0.0032
 7906W        W12106   6.790   7.375  11.076  0.1593 -0.0996 -0.0012
 7907W        W12107   2.395   1.197  12.780 -0.4497  0.1218 -0.0376
 7908W        W12108   4.906   3.384   0.255  0.0718 -0.2852 -0.1816
 7909W        W12109   9.501   4.580   0.700  0.1670 -0.0259  0.2689
 7910W        W12110   5.349   9.678  11.207  0.0930 -0.0171 -0.0553
 7911W        W12111   1.017   5.327   0.140  0.0175  0.0831  0.0129
 7912W        W12112   0.675   4.707   3.121 -0.0928  0.0163  0.0376
 7913W        W12113   6.740   6.288   4.145  0.0927  0.0021 -0.5533
 7914W        W12114   0.664   6.599   4.493  0.1429 -0.4977  0.0860
 7915W        W12115   7.846   9.032   1.458 -0.1286 -0.2716 -0.1011
 7916W        W12116   6.136   7.312   7.874 -0.0999  0.0717  0.0969
 7917W        W12117   7.749   5.581  10.053  0.0355  0.0926 -0.3228
 7918W        W12118   8.734   9.435   2.033 -0.5473  0.1092 -0.1464
 7919W        W12119   1.940   8.734   9.682 -0.2070 -0.0361  0.3908
 7920W        W12120   0.458   7.692  11.892 -0.0497  0.1049 -0.5782
 7921W        W12121  10.289   5.230  10.596  0.0935  0.0601  0.1268
 7922W        W12122   5.421   0.066   2.703  0.0565  0.3174 -0.0649
 7923W        W12123  10.110   4.014   2.148  0.1159  0.0472 -0.2235
 7924W        W12124   7.101   2.669   1.582 -0.1162  0.3037  0.0030
 7925W        W12125   9.036   2.253  11.743  0.4590 -0.2506 -0.3572
 7926W        W12126   5.591   1.086  13.062 -0.2667  0.2209 -0.0082
 7927W        W12127   5.893   4.546   9.698  0.1175 -0.1337  0.4208
 7928W        W12128   0.521   3.209  12.257  0.2441  0.0532 -0.2464
 7929W        W12129   7.774   3.494   2.977  0.7495  0.0391  0.2045
 7930W        W12130   7.602   2.055   8.926 -0.2463  0.1722  0.0361
 7931W        W12131  10.394   5.155   3.472 -0.0248 -0.2560  0.0813
 7932W        W12132   6.340   2.222   4.507  0.0269  0.0969 -0.2789
 7933W        W12133   0.070   5.037   2.242  0.0194  0.0501 -0.0540
 7934W        W12134   4.805   0.491   3.168 -0.0331 -0.2496  0.1821
 7935W        W12135   7.917   1.070   2.100 -0.1293  0.1591  0.0416
 7936W        W12136   8.959   7.886  11.218  0.2249  0.2512 -0.1846
 7937W        W12137   9.931   9.675  11.338 -0.0463 -0.0417 -0.1248
 7938W        W12138   7.740   2.256   1.746 -0.0267  0.1613  0.0613
 7939W        W12139  10.460   1.028   1.616 -0.0903  0.2004 -0.0656
 7940W        W12140   0.175   7.133   9.835  0.0667 -0.0503 -0.1381
 7941W        W12141   1.130   4.598  11.113 -0.0585 -0.0608  0.3459
 7942W        W12142   3.706   1.387   1.845 -0.1167 -0.0804 -0.2688
 7943W        W12143   1.148   4.898   3.849 -0.1719 -0.0564  0.1047
 7944W        W12144   4.011   9.614  11.743 -0.0210 -0.1475  0.1825
 7945W        W12145   3.003   4.197   1.784  0.1361 -0.1760  0.0016
 7946W        W12146   3.704   6.897   3.664 -0.0004 -0.1354 -0.1982
 7947W        W12147   5.840   6.275   8.765  0.2223 -0.0691  0.1417
 7948W        W12148   7.215   2.975   2.318 -0.0382 -0.1017 -0.0837
 7949W        W12149   8.797   6.952   3.068  0.4796  0.2951  0.1196
 7950W        W12150   0.820   6.360   9.001  0.1227  0.1251  0.1280
 7951W        W12151   2.710   8.512   0.317 -0.0067 -0.1953 -0.0340
 7952W        W12152   4.669   5.952  12.173  0.1834 -0.5411  0.1540
 7953W        W12153   2.228   2.036  11.030 -0.0894 -0.1207 -0.0930
 7954W        W12154  10.119   6.126   3.272  0.0024 -0.0433  0.3265
 7955W        W12155   2.790   0.045  11.940  0.2987 -0.1336 -0.1568
 7956W        W12156   4.084   2.098   1.981  0.0962  0.2054 -0.0030
 7957W        W12157   6.145   8.947  13.048  0.2819 -0.1655  0.1404
 7958W        W12158   4.641   1.481  12.283 -0.1662  0.1006  0.0849
 7959W        W12159  10.411   9.125   1.471 -0.0675 -0.0640  0.2369
 7960W        W12160   2.717   0.105   0.836  0.2818 -0.2801 -0.0891
 7961W        W12161   5.604   6.608   0.867 -0.3013 -0.0742 -0.0173
 7962W        W12162   6.524   1.748  10.179  0.4040  0.2708  0.0359
 7963W        W12163   0.187   2.776   9.485  0.1712 -0.1403 -0.1063
 7964W        W12164   2.451   4.672  12.398  0.1026 -0.1474  0.1732
 7965W        W12165   6.199   7.644   2.999  0.0031 -0.1747 -0.0359
 7966W        W12166   8.981   6.362  12.248  0.0591 -0.2169  0.1233
 7967W        W12167  10.193   7.587  12.959  0.2713 -0.0099 -0.0440
 7968W        W12168   6.844   2.578  10.477 -0.2149  0.2054  0.0569
 7969W        W12169   8.750   9.874  12.327  0.0651 -0.1166  0.0164
 7970W        W12170   3.450   7.935  11.226  0.2338  0.0612  0.2457
 7971W        W12171   3.016   2.170  10.467 -0.0428 -0.2265 -0.4600
 7972W        W12172   8.449   9.206   3.650 -0.0703 -0.0969  0.0822
 7973W        W12173   6.309   4.487   0.685 -0.2473  0.3606  0.1696
 7974W        W12174   0.189   0.549   4.670 -0.2726 -0.1244  0.0202
 7975W        W12175   5.604   4.006   1.585  0.1231  0.1026  0.0114
 7976W        W12176   5.132   5.748   2.297  0.1235 -0.3564  0.1689
 7977W        W12177   2.059   3.016   3.482  0.0520 -0.0523  0.5140
 7978W        W12178   2.114   1.618  10.132 -0.0816  0.0715 -0.0503
 7979W        W12179   5.593   1.255   3.748 -0.3344 -0.0725  0.2727
 7980W        W12180   3.274   8.334  12.546  0.0109  0.0010  0.0996
 7981W        W12181   6.366   5.661   8.865 -0.3885  0.2443 -0.2021
 7982W        W12182   5.630   4.915  11.057 -0.3679  0.2784  0.4316
 7983W        W12183   0.648   2.513   0.158 -0.0483 -0.1139 -0.0154
 7984W        W12184   1.487   5.404  10.797  0.1529  0.2125 -0.3149
 7985W        W12185   6.862   4.111   8.858  0.1609  0.1991  0.1464
 7986W        W12186   5.784   1.262   1.983  0.1414 -0.1546  0.0899
 7987W        W12187   5.022   4.112  10.934 -0.0876 -0.1104 -0.2247
 7988W        W12188   7.262   1.531  12.481 -0.0959 -0.2835 -0.2193
 7989W        W12189   1.132   7.501  12.633 -0.1691 -0.0821 -0.2250
 7990W        W12190   7.013   7.787  10.770  0.0931 -0.0082 -0.2209
 7991W        W12191   9.835   5.039   0.156 -0.0334  0.1633  0.2282
 7992W        W12192   0.432   3.803  12.922  0.2039  0.3924 -0.2362
 7993W        W12193   6.076   7.507   4.825 -0.0601  0.3136 -0.2023
 7994W        W12194   1.756   4.577   0.123 -0.1348  0.2923 -0.0968
 7995W        W12195   4.848  10.410  10.371 -0.0794 -0.6377  0.0824
 7996W        W12196   8.307   3.513   3.159 -0.2182 -0.1131  0.4227
 7997W        W12197   1.451   6.061  10.215 -0.0696  0.0441 -0.3600
 7998W        W12198   3.940   4.072  11.147 -0.3553  0.2287  0.0213
 7999W        W12199   1.513  10.130  12.349  0.2322 -0.1915 -0.1104
 8000W        W12200   1.310   8.577   2.839 -0.1388 -0.2425  0.2418
 8001W        W12201   0.140   1.185   5.391  0.0691 -0.1559  0.0596
 8002W        W12202  10.325   7.344   4.697 -0.3452 -0.0761 -0.1832
 8003W        W12203   7.731   4.681   0.461 -0.1086  0.0709 -0.1108
 8004W        W12204   1.395   0.200   0.224  0.2665 -0.1159 -0.1196
 8005W        W12205   3.233   7.361   2.080  0.2158  0.3431  0.0147
 8006W        W12206   5.631   3.491  11.182 -0.0206 -0.0967 -0.2919
 8007W        W12207   8.212   3.479   9.339 -0.1702 -0.0091 -0.0354
 8008W        W12208   7.707   5.947   2.943 -0.1869  0.0648  0.0383
 8009W        W12209   6.243   5.530   2.924 -0.2772 -0.1424 -0.0158
 8010W        W12210   5.528   1.683  12.279  0.1211  0.1485 -0.0510
 8011W        W12211   8.909  10.180   2.740  0.0289  0.0191  0.1724
 8012W        W12212   4.167   7.961   0.085 -0.0344 -0.0115 -0.0943
 8013W        W12213   0.218   4.788   1.112  0.4775 -0.1481  0.2817
 8014W        W12214   0.180   5.438   0.731  0.1156 -0.0048 -0.1873
 8015W        W12215   1.699   1.621   9.826 -0.2951 -0.1906 -0.2074
 8016W        W12216   8.435   2.641   1.356 -0.1495 -0.1261 -0.0063
 8017W        W12217   0.422   9.188   0.308  0.2483 -0.1316  0.2239
 8018W        W12218   1.490   2.965   9.473  0.0300  0.2561 -0.2041
 8019W        W12219   3.164   0.427  11.354 -0.0424 -0.0231 -0.2085
 8020W        W12220  10.251   1.480   1.230  0.2458  0.0974  0.3040
 8021W        W12221   9.451  10.546   1.976  0.2513 -0.1878  0.2476
 8022W        W12222   9.177   8.858   1.372  0.2401  0.0730 -0.0707
 8023W        W12223   9.387   4.121   0.435  0.4949  0.2134 -0.4436
 8024W        W12224   5.533   9.803   1.681  0.0354  0.1645 -0.0447
 8025W        W12225   6.255   6.540  11.297 -0.1469 -0.1501 -0.0639
 8026W        W12226   2.860   7.713   4.434 -0.1813  0.1150  0.0706
 8027W        W12227   3.590   0.009   0.951 -0.1980 -0.4048  0.0941
 8028W        W12228   8.842  10.529  12.637 -0.1541  0.2761 -0.1462
 8029W        W12229   3.114   6.562   3.600 -0.2198  0.1228 -0.2569
 8030W        W12230   9.835   1.471   2.747  0.2140 -0.1272 -0.2081
 8031W        W12231   6.036   0.756  10.690 -0.1556 -0.3241  0.1347
 8032W        W12232   8.781   6.900   4.056 -0.0842 -0.1047 -0.0617
 8033W        W12233   3.452   6.125   3.189  0.0816  0.1907 -0.2360
 8034W        W12234   2.300   4.228  12.144 -0.2412  0.1070  0.4306
 8035W        W12235   7.859   7.711  12.709  0.0844 -0.0585  0.1500
 8036W        W12236  10.317  10.401  11.344 -0.0111  0.4299  0.1069
 8037W        W12237   3.137   5.528   0.184 -0.1598  0.2433 -0.0040
 8038W        W12238   0.566   7.039  10.665 -0.0323 -0.0260 -0.1039
 8039W        W12239   4.967   7.723  12.681 -0.1344  0.3180 -0.2344
 8040W        W12240   1.066   6.816   1.970  0.0273  0.0874 -0.2821
 8041W        W12241   9.619   3.659   3.201  0.2239 -0.1425  0.3792
 8042W        W12242   4.887   7.884   9.490 -0.0823  0.0025 -0.2466
 8043W        W12243   9.880   4.579   2.139  0.0591  0.0192  0.1298
 8044W        W12244   8.069   9.518  11.936  0.1964 -0.1305  0.1936
 8045W        W12245  10.373  10.214   3.739 -0.0632 -0.0844  0.1543
 8046W        W12246  10.275   3.407   0.872 -0.3262  0.2742 -0.0031
 8047W        W12247   5.866   2.342  10.780  0.0246 -0.1377 -0.0392
 8048W        W12248   0.657   1.471   1.625 -0.0601 -0.4841 -0.1128
 8049W        W12249   2.731   8.090   0.041  0.0890  0.2418 -0.1127
 8050W        W12250   5.303   7.175  10.110 -0.1092  0.0485 -0.0975
 8051W        W12251   2.436  10.176   0.730 -0.0520 -0.0919  0.0018
 8052W        W12252   6.134   5.926   2.682 -0.2461 -0.2185  0.0249
 8053W        W12253   8.808   0.648   3.449 -0.0574 -0.2653  0.2136
 8054W        W12254   1.930   2.370  11.818 -0.3917  0.0987  0.1502
 8055W        W12255   8.302   5.684   5.449  0.0951  0.3666  0.2731
 8056W        W12256   5.505   0.042   2.191  0.1568 -0.0030 -0.0135
 8057W        W12257   4.630   9.278   1.950  0.3002  0.3897 -0.0490
 8058W        W12258   1.505   5.441   4.167  0.1734 -0.0982 -0.4013
 8059W        W12259   4.861   7.910  11.029 -0.1810 -0.1747 -0.0959
 8060W        W12260   2.321   9.817  10.264  0.5640  0.0310  0.1630
 8061W        W12261   0.464   2.759   1.290  0.0475 -0.2028  0.0800
 8062W        W12262   4.647   7.503   2.579 -0.2432  0.0795 -0.0730
 8063W        W12263   9.931  10.162  11.584 -0.1476  0.4590 -0.0961
 8064W        W12264   7.748   4.344  10.676 -0.0513  0.0835 -0.1768
 8065W        W12265   7.906  10.329   2.708 -0.0994  0.1620  0.0670
 8066W        W12266   8.094   3.834   4.840  0.1606 -0.0196  0.1459
 8067W        W12267   2.831   0.219  10.387 -0.3400 -0.0274  0.3148
 8068W        W12268   2.467   4.970  10.679 -0.1335 -0.1143 -0.0223
 8069W        W12269   0.650   4.400  11.196 -0.0258 -0.1382 -0.0375
 8070W        W12270   2.762   0.093   1.326  0.2266  0.0000  0.3672
 8071W        W12271   4.526   0.931   2.299  0.1778  0.0377 -0.0381
 8072W        W12272   9.342   7.822  10.961 -0.1322  0.0825  0.0965
 8073W        W12273   9.492   9.480   0.590  0.1318  0.1330  0.0224
 8074W        W12274   0.071   5.682  12.122  0.1355  0.1229 -0.0563
 8075W        W12275   1.917   1.258  12.730  0.0361 -0.0744 -0.1204
 8076W        W12276   2.713   9.589  10.475 -0.1430  0.1341 -0.0424
 8077W        W12277   0.461   6.897   4.133 -0.1152  0.0941 -0.3545
 8078W        W12278   4.025   2.133   0.921  0.1524  0.0022  0.0209
 8079W        W12279   7.989   9.960  11.831 -0.1759 -0.1444 -0.3419
 8080W        W12280   2.133   2.684   2.629 -0.1557 -0.0640 -0.1331
 8081W        W12281   1.332   0.171  10.199  0.0186 -0.0532  0.1429
 8082W        W12282   5.797   9.129   3.769  0.0613  0.1291 -0.2947
 8083W        W12283   7.545   9.701  11.639  0.1403 -0.2036  0.0412
 8084W        W12284   9.601   3.187   8.339  0.1186 -0.1674  0.2040
 8085W        W12285   4.860   8.988  11.344  0.1940  0.1837 -0.3725
 8086W        W12286   3.844   1.179   0.231  0.0178 -0.1653 -0.1273
 8087W        W12287   6.812   6.976  10.084 -0.0026 -0.2024  0.0402
 8088W        W12288   1.970   9.977   9.064  0.0825  0.2390 -0.3530
 8089W        W12289   0.559   8.099  11.658 -0.1688 -0.1070 -0.1787
 8090W        W12290   9.218   4.903   2.532 -0.3029 -0.3263 -0.0710
 8091W        W12291   8.112   0.571  11.830 -0.1480  0.1479 -0.2667
 8092W        W12292   8.019   8.274  11.492  0.0769 -0.2156 -0.3882
 8093W        W12293   9.096   1.428   1.641 -0.0367 -0.1463  0.1653
 8094W        W12294   0.305   0.050  12.147 -0.0046 -0.1244  0.1686
 8095W        W12295   8.633   7.727  11.837 -0.0207  0.0475 -0.0833
 8096W        W12296   3.593   6.341  12.852  0.2792  0.0122 -0.0855
 8097W        W12297   1.365   8.946   9.205  0.2597  0.1585 -0.0159
 8098W        W12298   7.653   6.424   0.570  0.1527  0.2762  0.0876
 8099W        W12299   7.122   3.170   0.352  0.3107  0.0739  0.3262
 8100W        W12300   2.242   6.958   0.439  0.0073 -0.0551  0.1236
 8101W        W12301   9.426   1.726   9.186 -0.0485  0.1622  0.3199
 8102W        W12302   2.024   3.247  12.077 -0.1871 -0.0811 -0.0019
 8103W        W12303   0.146   3.878   2.948 -0.1929 -0.0161  0.0172
 8104W        W12304   6.837   8.404   4.494  0.2716 -0.0389  0.2068
 8105W        W12305   2.627   3.816   0.711  0.1236 -0.0862  0.2863
 8106W        W12306   6.136   6.614   3.960  0.0115  0.0062 -0.0886
 8107W        W12307   2.908   8.262  10.410  0.2502  0.0042 -0.4519
 8108W        W12308   8.068   9.760   1.980 -0.0121 -0.0472 -0.2222
 8109W        W12309   2.454   1.230   9.983 -0.1760  0.0411  0.1898
 8110W        W12310  10.188   1.992   2.623  0.0444  0.0144  0.1368
 8111W        W12311  10.521   5.255   1.169  0.1411 -0.1612 -0.0667
 8112W        W12312   6.349   6.731   2.052 -0.0339 -0.0395 -0.0170
 8113W        W12313   6.117   6.055   4.159 -0.0886  0.3769 -0.1745
 8114W        W12314   9.494   2.383   1.284  0.0471 -0.4113 -0.0702
 8115W        W12315   9.519   3.121   9.281 -0.1685 -0.0935  0.0604
 8116W        W12316   3.303   1.577   9.709  0.1573  0.0694  0.4100
 8117W        W12317   8.050   6.447   2.480  0.1718 -0.1683 -0.2632
 8118W        W12318  10.403   0.232   2.770  0.1572 -0.1979  0.0199
 8119W        W12319   6.544   3.325   3.741  0.0554 -0.1242 -0.1298
 8120W        W12320   8.623   2.025   0.443 -0.0865  0.1889 -0.1019
 8121W        W12321   4.777   9.851  12.413 -0.2375 -0.1611  0.0404
 8122W        W12322   9.622   2.929   1.877  0.2313 -0.1520  0.0704
 8123W        W12323   2.956   7.004   1.891  0.2294 -0.0968 -0.0385
 8124W        W12324   2.745   8.709   2.209 -0.1545 -0.2436  0.0176
 8125W        W12325   7.339   4.646  10.920 -0.1961  0.1114  0.2196
 8126W        W12326   8.709   2.206   1.456 -0.0835 -0.1590  0.0096
 8127W        W12327   6.055   3.149   9.913 -0.3704  0.1678  0.0307
 8128W        W12328   3.515   0.521   1.344 -0.1630 -0.1009 -0.0006
 8129W        W12329   9.765   9.929   0.659  0.0068  0.0353 -0.0552
 8130W        W12330   0.459   6.457   8.621  0.3686  0.1768 -0.0059
 8131W        W12331  10.284   9.318   3.604  0.0424  0.0162 -0.2299
 8132W        W12332   8.424  10.425   3.413 -0.4338 -0.0786  0.0908
 8133W        W12333  10.143   9.948   9.203 -0.0156  0.1021 -0.0088
 8134W        W12334   3.837   7.478   9.050 -0.1569 -0.0034  0.1401
 8135W        W12335   3.574   3.329  12.938 -0.0521 -0.1612 -0.3350
 8136W        W12336   0.315   4.525  11.902 -0.0698 -0.3018  0.1982
 8137W        W12337   3.714   3.964   2.288  0.0469  0.0175 -0.2448
 8138W        W12338   4.133   2.271  10.869 -0.1125  0.3007 -0.0971
 8139W        W12339   6.593   7.919   0.136  0.0251  0.1403 -0.2236
 8140W        W12340   0.163   2.881  12.052 -0.1297  0.1091 -0.0038
 8141W        W12341   0.151   5.560  10.635 -0.2002  0.1383  0.1866
 8142W        W12342   1.924   7.318   3.527 -0.2154 -0.1374  0.4214
 8143W        W12343   8.773  10.163  11.445  0.1211  0.2072 -0.2144
 8144W        W12344   8.540   6.859   1.774 -0.0655  0.1198 -0.1627
 8145W        W12345  10.040   4.889   3.752 -0.1537  0.2584  0.1390
 8146W        W12346   0.973   1.564  10.199  0.0343 -0.4315 -0.4162
 8147W        W12347   8.704   6.479   3.225 -0.0606 -0.1826  0.1482
 8148W        W12348   0.513   4.331  12.925  0.2541 -0.1769 -0.0832
 8149W        W12349  10.318   0.092  10.922  0.1999  0.1124  0.1028
 8150W        W12350   7.801   9.776   1.190 -0.2470 -0.0242  0.0923
 8151W        W12351   3.713   3.928   4.055 -0.0660 -0.1893 -0.0743
 8152W        W12352   6.611   8.295   1.676  0.1694 -0.2660  0.1949
 8153W        W12353   8.024   3.894   9.452 -0.0146 -0.1733  0.0845
 8154W        W12354   9.827  10.527   4.821  0.2022  0.2999 -0.1263
 8155W        W12355   9.248   7.398   0.042 -0.3247  0.2759  0.1589
 8156W        W12356   4.354   4.512   3.014 -0.1092  0.0396 -0.1726
 8157W        W12357   5.071   6.297  10.372  0.0388  0.0206  0.0039
 8158W        W12358   4.320   6.814   8.351  0.1190 -0.0350  0.1412
 8159W        W12359   0.441   1.926   8.407 -0.1891  0.1916 -0.1757
 8160W        W12360   0.145   5.676   0.243  0.2771  0.4054 -0.1072
 8161W        W12361   2.449   5.022   1.703  0.2398  0.1521 -0.1191
 8162W        W12362   5.698   9.797  10.815 -0.1877 -0.2853 -0.0797
 8163W        W12363   8.808   1.088   2.581 -0.1003  0.2933 -0.1320
 8164W        W12364   6.617   7.657   2.315  0.2526  0.1712  0.2770
 8165W        W12365   8.815   6.001  10.779 -0.2288 -0.2392 -0.2512
 8166W        W12366   6.356   8.041  12.984  0.1194 -0.1166 -0.1222
 8167W        W12367   8.857   9.665  10.852 -0.1068 -0.1196 -0.0339
 8168W        W12368   1.906  10.176   2.876 -0.0753 -0.1966 -0.0244
 8169W        W12369   0.451   4.022   8.399 -0.0893  0.1161  0.1396
 8170W        W12370   6.360   8.807   0.266  0.0580  0.1734 -0.0956
 8171W        W12371   8.998   8.185  11.638  0.0484  0.3368 -0.1323
 8172W        W12372   9.294   2.790   3.455 -0.1187 -0.3788  0.1783
 8173W        W12373   2.121   2.042   3.694 -0.0630  0.1535 -0.0638
 8174W        W12374   0.953   7.349   2.351 -0.0242  0.1058  0.1396
 8175W        W12375   6.195   9.209   1.563  0.0876  0.0172 -0.2184
 8176W        W12376   1.142   0.913   2.446 -0.0504  0.0664 -0.1093
 8177W        W12377   1.965   5.057   9.847 -0.0842  0.1759  0.2409
 8178W        W12378   9.518  10.329  11.969 -0.0648 -0.0293 -0.1230
 8179W        W12379   8.551   3.105  11.031  0.1466  0.0158  0.1424
 8180W        W12380   4.051  10.532   0.819  0.1191  0.2458 -0.2210
 8181W        W12381   4.224   1.434  12.716 -0.0486  0.0706 -0.2509
 8182W        W12382   1.122   9.168  10.404 -0.4021 -0.1769  0.4020
 8183W        W12383   5.950   0.463  10.303 -0.1246  0.0602 -0.1797
 8184W        W12384   9.761   5.752   3.623 -0.0516  0.2629  0.0008
 8185W        W12385   7.709   1.819  10.546 -0.2527 -0.3044  0.1934
 8186W        W12386   5.494   7.127   0.844 -0.1684 -0.4764  0.0029
 8187W        W12387   1.526   7.013   8.711 -0.0147 -0.4772  0.1863
 8188W        W12388  10.199   6.983   3.044  0.2745 -0.0757 -0.2072
 8189W        W12389   7.435   0.985   3.629 -0.2073  0.0345 -0.1046
 8190W        W12390   3.004   6.776  11.650 -0.0620  0.3241 -0.1629
 8191W        W12391   0.771   8.489   0.093  0.1172  0.1263  0.2660
 8192W        W12392   2.389   7.542   9.776  0.0345  0.2656  0.2840
 8193W        W12393   4.824   6.546   9.589  0.1472  0.1606  0.0699
 8194W        W12394   8.942  10.260  10.601  0.3572 -0.2462  0.0193
 8195W        W12395   9.765   8.569   4.452 -0.0923  0.1528 -0.2014
 8196W        W12396   7.389   2.157  12.175  0.1314  0.1495 -0.0386
 8197W        W12397   9.828   9.557   0.252  0.0524 -0.4014  0.0695
 8198W        W12398   8.007   3.059  11.074 -0.1609 -0.0813  0.2276
 8199W        W12399   2.214   2.322  13.077  0.0985 -0.0240 -0.0044
 8200W        W12400   5.240   4.082   0.214  0.0598 -0.0633  0.0386
 8201W        W12401   1.127   6.363  10.750  0.0808  0.0089  0.0938
 8202W        W12402   6.776   8.571  10.255 -0.1618  0.0644  0.0480
 8203W        W12403   9.255   8.992  12.029  0.4549  0.0617  0.0492
 8204W        W12404   5.089   6.716  10.025  0.2255  0.1222 -0.1134
 8205W        W12405   4.701   3.439   1.584  0.1292  0.0634  0.1443
 8206W        W12406   9.162   8.298  10.852 -0.0597  0.1086  0.0265
 8207W        W12407   4.925   4.023   0.995  0.2459 -0.0094  0.0518
 8208W        W12408   6.056   7.203  11.769  0.0051  0.0268  0.0389
 8209W        W12409   1.646   6.873  13.068  0.0170  0.4763 -0.0316
 8210W        W12410   8.682   4.207   0.914 -0.0660  0.1477  0.0381
 8211W        W12411   9.845   9.092   9.053  0.0925  0.1319 -0.0430
 8212W        W12412   3.111   0.327   1.649 -0.1380 -0.1143 -0.1302
 8213W        W12413   6.829   6.642  13.192 -0.3253  0.2520  0.0266
 8214W        W12414   6.653   7.315   3.211 -0.2876  0.1002 -0.4004
 8215W        W12415   2.385   2.536   1.694  0.2035  0.0611 -0.2012
 8216W        W12416   3.639   6.449  11.433 -0.2596  0.0500  0.4352
 8217W        W12417   9.341   2.660   4.403 -0.0847  0.1555  0.2766
 8218W        W12418   9.104   1.603   0.212 -0.2736  0.0658  0.1749
 8219W        W12419   9.701   3.462   8.892  0.1211 -0.0409 -0.1428
 8220W        W12420   3.637   5.892   1.416  0.1142  0.0921 -0.1971
 8221W        W12421   2.522   3.024  10.300 -0.1975  0.0830  0.3355
 8222W        W12422   7.051   1.247  10.951 -0.1909  0.1455 -0.3675
 8223W        W12423   0.169   8.486   3.635  0.2203 -0.2111 -0.2692
 8224W        W12424   7.184   4.222  10.176  0.2059  0.2265 -0.2324
 8225W        W12425   8.615   2.169  12.946  0.0529 -0.0569  0.0010
 8226W        W12426   9.155   7.050  12.875 -0.1210 -0.1153 -0.3471
 8227W        W12427   3.872  10.136   1.035 -0.2478 -0.4791  0.0112
 8228W        W12428   9.008   6.839   3.502  0.0315 -0.3432 -0.1348
 8229W        W12429   5.624   7.713   3.246  0.1230 -0.0022 -0.0799
 8230W        W12430   8.098   0.030  11.736 -0.0270  0.1039 -0.2198
 8231W        W12431   4.478   2.034   1.185 -0.2595  0.0374  0.1828
 8232W        W12432   1.697   6.246  13.208 -0.0921 -0.1078 -0.2010
 8233W        W12433   1.236   5.684   1.592 -0.1708  0.0337  0.3118
 8234W        W12434  10.463   0.718   5.208 -0.1599  0.2571  0.4874
 8235W        W12435   2.979   3.857   0.340 -0.2969 -0.0092  0.1161
 8236W        W12436   3.869   5.070   2.202 -0.2228  0.3260  0.2783
 8237W        W12437   4.579   4.467  12.760 -0.2460  0.0425 -0.0794
 8238W        W12438   1.043   1.320   3.693 -0.2037 -0.1434  0.2831
 8239W        W12439   5.153  10.163   2.279  0.1037  0.0082  0.1013
 8240W        W12440   9.563   8.012   1.772  0.4921 -0.2533  0.1920
 8241W        W12441   5.134   6.112   1.593  0.2246  0.1809 -0.0691
 8242W        W12442   0.270   9.326   3.413  0.2941 -0.1156 -0.4077
 8243W        W12443   5.473   4.842   3.991 -0.0338 -0.0462 -0.0616
 8244W        W12444   8.581   4.084   3.896 -0.1282 -0.1606  0.1018
 8245W        W12445   8.438   7.160  10.659  0.1881  0.0053  0.0599
 8246W        W12446   8.270   9.266   1.911 -0.3877 -0.2209 -0.0171
 8247W        W12447   8.416   7.573   2.544  0.0612 -0.1551  0.2951
 8248W        W12448   0.445   3.227  10.847 -0.1646  0.2473  0.0910
 8249W        W12449   0.208  10.378  10.971 -0.2190 -0.0201 -0.1125
 8250W        W12450   7.806   9.723   3.397 -0.0786  0.0151 -0.0925
 8251W        W12451   2.225   9.516   1.349 -0.1995 -0.0568 -0.3444
 8252W        W12452   9.172   4.943  10.987 -0.1877 -0.3880 -0.1577
 8253W        W12453   5.557   6.529   0.373 -0.3371  0.1633  0.2984
 8254W        W12454   7.187   1.127  12.854  0.1027  0.0268 -0.1021
 8255W        W12455   4.266   5.382  10.801 -0.2169 -0.1548 -0.1604
 8256W        W12456   4.341   3.641   1.888 -0.1337 -0.0855  0.1653
 8257W        W12457   6.194   5.639   4.780 -0.1200 -0.0653 -0.1769
 8258W        W12458   3.102   4.117  11.119  0.1248  0.1101  0.0506
 8259W        W12459   7.235   5.101   3.240 -0.4775  0.0891 -0.1030
 8260W        W12460   3.105   7.343  11.641 -0.2692  0.1437 -0.0670
 8261W        W12461   7.266   1.182   0.051 -0.2183  0.0024 -0.1753
 8262W        W12462   8.177   3.031   1.171 -0.1755 -0.1380 -0.1201
 8263W        W12463   3.183   9.627   3.060  0.2117  0.3039 -0.2162
 8264W        W12464   9.956   2.459   2.882  0.4281 -0.3111 -0.2389
 8265W        W12465   6.411   8.574   3.453 -0.1689  0.0639 -0.3206
 8266W        W12466   9.352   3.165  10.193  0.0865  0.0750 -0.0180
 8267W        W12467   1.016   9.384   2.205 -0.0564 -0.0645  0.4107
 8268W        W12468   0.850   6.261  11.181 -0.0602  0.0636 -0.1070
 8269W        W12469   5.272   2.574   0.570  0.0802 -0.1597 -0.1201
 8270W        W12470   7.757   5.135  11.302 -0.1527  0.0323 -0.1115
 8271W        W12471   1.394   7.636   0.351  0.1322  0.2831  0.3660
 8272W        W12472  10.071   1.468  10.759 -0.0841 -0.0084  0.1758
 8273W        W12473   0.553   2.950   9.829  0.1736 -0.1396 -0.0357
 8274W        W12474   4.860   4.397   1.521 -0.1873  0.0719 -0.1533
 8275W        W12475   1.058   2.914   3.474  0.0276 -0.0441  0.1004
 8276W        W12476   6.476   4.137   2.045  0.3058  0.1631  0.1652
 8277W        W12477   7.583   7.410  10.423 -0.1353  0.2003  0.1131
 8278W        W12478   5.627   9.555   1.224 -0.0734  0.3317  0.0289
 8279W        W12479   0.629   2.008   9.382  0.1257  0.2405  0.0662
 8280W        W12480   5.286   5.436  10.347  0.3737 -0.0263  0.1559
 8281W        W12481   0.772   1.604   4.637 -0.1277 -0.1028 -0.0292
 8282W        W12482   3.554   0.951  11.869  0.2216  0.0097 -0.0412
 8283W        W12483   0.392   4.010   8.902  0.1752  0.2215 -0.0367
 8284W        W12484   9.224   1.848  12.539 -0.2224 -0.0529  0.1342
 8285W        W12485   7.510   5.452   2.877  0.0816  0.0107  0.2624
 8286W        W12486   2.477   4.207   2.698  0.2355  0.0133 -0.0549
 8287W        W12487   9.716   6.401   9.317 -0.1183  0.1747 -0.0820
 8288W        W12488   0.487   1.476  12.972  0.0560 -0.0193  0.3905
 8289W        W12489   8.448  10.342  12.339  0.0277  0.1878 -0.2955
 8290W        W12490   3.035   5.576   9.863  0.0794  0.0509  0.0156
 8291W        W12491   8.534   0.021   0.636 -0.0208 -0.0702 -0.0303
 8292W        W12492   7.199   0.913   1.998  0.1467 -0.3745 -0.0978
 8293W        W12493   8.950   4.075  12.933  0.0075  0.1403  0.0088
 8294W        W12494   7.037   5.338  10.502  0.4365 -0.1665 -0.0129
 8295W        W12495   9.632   1.965   3.996  0.0532  0.0422  0.0561
 8296W        W12496   7.992   9.439   0.406 -0.0067 -0.0260  0.0542
 8297W        W12497   8.634   4.333   9.912 -0.1693 -0.2824  0.2303
 8298W        W12498   7.787   1.968  12.511  0.1189 -0.1001  0.1022
 8299W        W12499   4.164   4.855  10.404 -0.0737  0.1640 -0.1553
 8300W        W12500   1.243   4.922  11.528  0.0929  0.0772  0.1548
 8301W        W12501   2.877   5.879  12.168  0.2233 -0.1783  0.1758
 8302W        W12502   6.924   1.805   0.771 -0.2383 -0.1698 -0.1354
 8303W        W12503   1.198   8.292   2.122  0.1239 -0.3123 -0.1091
 8304W        W12504   1.964   7.828  13.049 -0.3349  0.3528 -0.0116
 8305W        W12505   9.745   8.011   0.691  0.0459 -0.0656 -0.0149
 8306W        W12506   0.688   2.890  12.627 -0.1241  0.1702  0.1871
 8307W        W12507   2.372   5.574  12.832  0.1878 -0.1620 -0.1239
 8308W        W12508   7.974  10.020   4.408 -0.3139  0.0817 -0.2735
 8309W        W12509   7.922   4.258   2.035  0.0702 -0.0059  0.2229
 8310W        W12510   3.576   3.677   3.090  0.0919 -0.1650  0.0610
 8311W        W12511   7.219   9.818  12.451 -0.0934  0.1158  0.0062
 8312W        W12512   6.415   0.970   3.424  0.2047  0.0522  0.0581
 8313W        W12513   3.560   3.006   2.284  0.1588 -0.0603 -0.0134
 8314W        W12514   9.242   0.767  10.600  0.1491 -0.0358 -0.1499
 8315W        W12515  10.068   9.233  10.037  0.2142  0.0698 -0.0986
 8316W        W12516   6.278   5.562   9.819 -0.1616 -0.2275  0.1516
 8317W        W12517   3.469   1.334  12.213 -0.1937 -0.0358  0.0856
 8318W        W12518   9.986   6.267   8.630 -0.1539 -0.2126  0.0341
 8319W        W12519  10.404   9.846  11.589  0.1968  0.1544 -0.1375
 8320W        W12520   6.456   5.814  12.680  0.1792 -0.0783 -0.2607
 8321W        W12521   8.412   1.045   0.371  0.2849  0.4727 -0.0673
 8322W        W12522   9.464  10.515  11.433  0.1760 -0.0479 -0.1448
 8323W        W12523   0.708   1.227   1.131 -0.3153 -0.1851 -0.3291
 8324W        W12524   0.504   9.584   2.951  0.2205  0.0618  0.4408
 8325W        W12525   3.809   7.954   1.212 -0.0964 -0.2054  0.0332
 8326W        W12526   8.662   5.068  10.907  0.1427 -0.1994  0.0660
 8327W        W12527   5.137   2.823  12.228 -0.2726  0.0748 -0.1597
 8328W        W12528   8.019   6.964  10.489  0.1237  0.1932 -0.4489
 8329W        W12529  10.006   3.548   0.029  0.4333  0.2182 -0.0016
 8330W        W12530   6.043   7.923   9.068  0.3389 -0.0924  0.0739
 8331W        W12531   8.872   9.565   8.095  0.1157 -0.0585  0.1704
 8332W        W12532   2.087   0.682   1.469 -0.1411  0.3790  0.0335
 8333W        W12533   0.071   3.117  12.447  0.0295  0.2207 -0.0977
 8334W        W12534   6.935   1.751   1.783 -0.0902 -0.1075 -0.0006
 8335W        W12535   6.220   3.734   4.704  0.2640 -0.3795 -0.2043
 8336W        W12536   1.648   3.762   9.407  0.0752  0.2068  0.0467
 8337W        W12537   4.651   5.786   2.557 -0.1031  0.2005 -0.2899
 8338W        W12538  10.382   3.754   1.743  0.0110 -0.3067 -0.2060
 8339W        W12539   2.508   8.985  12.810  0.1333 -0.0622  0.3676
 8340W        W12540   0.092   2.379  12.083 -0.0475 -0.0554  0.2539
 8341W        W12541   8.698   2.564  12.651 -0.0271 -0.1807  0.0761
 8342W        W12542   7.037   6.334   2.753 -0.0730  0.1005  0.1721
 8343W        W12543   0.615  10.249  12.513  0.1657  0.0088 -0.1398
 8344W        W12544  10.085  10.412   1.819 -0.0607  0.0316 -0.2313
 8345W        W12545   5.642   7.044   0.340  0.0864 -0.2519  0.0734
 8346W        W12546   5.298   8.748   0.252  0.1290  0.2299 -0.0090
 8347W        W12547   1.257   6.303   1.615  0.0066  0.1331  0.0829
 8348W        W12548   9.408   5.840   2.724  0.0252 -0.1915  0.0661
 8349W        W12549   4.295   7.361   8.959  0.0177 -0.1479  0.1183
 8350W        W12550   8.342   4.524   2.129 -0.2460 -0.0018  0.0406
 8351W        W12551   7.863   6.108  13.056 -0.2547  0.0227  0.1093
 8352W        W12552   7.257   4.798  10.444 -0.1191 -0.1833 -0.2321
 8353W        W12553   4.798   5.324   2.661  0.3499 -0.0214 -0.1484
 8354W        W12554   3.237   5.542  12.197 -0.3569 -0.1285  0.2330
 8355W        W12555   1.857   2.459   4.842  0.1677  0.0653 -0.2631
 8356W        W12556   3.689   2.013  11.058 -0.1542  0.0065  0.0287
 8357W        W12557   8.745   6.568   1.382 -0.0160 -0.4087  0.2133
 8358W        W12558   8.187   5.412   0.042 -0.0899 -0.2569  0.0693
 8359W        W12559   2.392   6.606   9.233  0.0588 -0.1426 -0.2075
 8360W        W12560   2.720   9.217   9.486 -0.2697  0.2966  0.0635
 8361W        W12561   0.106   5.290  11.085  0.4566  0.3431  0.0506
 8362W        W12562   4.800   6.798   2.317 -0.1014 -0.0802  0.0811
 8363W        W12563   1.855   5.245  11.247 -0.0497  0.1796  0.1734
 8364W        W12564   2.466   2.299   2.552 -0.5115  0.1301  0.0761
 8365W        W12565   4.032   3.560   9.696  0.0456  0.1255  0.1441
 8366W        W12566   2.640   7.086  11.614 -0.1572 -0.1234  0.0691
 8367W        W12567   7.258   4.302   9.644 -0.1071  0.3116 -0.0502
 8368W        W12568   0.769   9.514  10.578  0.0774  0.0260 -0.0225
 8369W        W12569   2.954  10.330   9.244 -0.0017 -0.2533  0.0143
 8370W        W12570   1.749  10.036   2.408  0.1120  0.3449  0.3604
 8371W        W12571   6.254   3.706  11.698  0.3752  0.0831 -0.0374
 8372W        W12572   3.258   7.768  13.248  0.0860 -0.4010  0.2883
 8373W        W12573   4.287   2.321  11.401 -0.0231  0.1159 -0.1812
 8374W        W12574   9.047   1.287   9.967 -0.3500  0.1010  0.1478
 8375W        W12575   5.947   8.362   8.423  0.3248  0.0534 -0.1351
 8376W        W12576   7.584   9.123  10.742  0.1684 -0.0848  0.0998
 8377W        W12577   8.928   7.311   3.383 -0.2474 -0.0556 -0.0319
 8378W        W12578   1.183   8.062   9.815 -0.0643  0.1100 -0.0457
 8379W        W12579   8.199   0.637   8.728 -0.0947 -0.0161  0.1171
 8380W        W12580   3.997   9.339   9.400 -0.2216 -0.2281 -0.0729
 8381W        W12581   6.064   0.042   1.260  0.0671 -0.3460  0.2572
 8382W        W12582   5.587   8.425  12.548 -0.0957 -0.0416 -0.1195
 8383W        W12583   3.055   7.026   9.753  0.3825 -0.3290 -0.0043
 8384W        W12584   4.975   5.858  13.024 -0.2940  0.4789 -0.0548
 8385W        W12585   0.755   5.645   1.574 -0.0619 -0.0493 -0.1354
 8386W        W12586   9.283   0.645   3.865 -0.1117  0.1036 -0.0429
 8387W        W12587   2.223   8.470   8.162 -0.0502 -0.2428  0.1106
 8388W        W12588   9.301   8.260  13.221  0.3140  0.2674  0.1363
 8389W        W12589   4.029   2.743   9.372 -0.1033  0.0711 -0.2481
 8390W        W12590   7.100   5.004   2.188  0.0983  0.0314  0.2445
 8391W        W12591   4.692   9.600   0.048  0.3257 -0.0980  0.1350
 8392W        W12592   5.778   3.263  10.358 -0.2930 -0.1589 -0.2805
 8393W        W12593   3.474   0.727  11.089  0.1347  0.1865  0.2870
 8394W        W12594   3.707   4.971   4.324  0.1978  0.0663 -0.0575
 8395W        W12595   2.683   6.739   3.811  0.1297 -0.0712  0.2878
 8396W        W12596   3.897   8.284   3.903  0.0791  0.2326  0.2566
 8397W        W12597   6.115   6.597  10.736  0.1096 -0.2857  0.5091
 8398W        W12598   9.469   9.389   3.196  0.1151  0.1178 -0.0905
 8399W        W12599   9.420  10.370   3.671  0.0606 -0.2144  0.0818
 8400W        W12600   1.535   9.145  10.722  0.0193  0.0995 -0.0204
 8401W        W12601   5.791   7.462   9.247 -0.4056  0.2429  0.2779
 8402W        W12602   7.148   6.006  11.999  0.1947 -0.0486 -0.0186
 8403W        W12603   6.762   0.500  11.562 -0.2987  0.2215  0.1993
 8404W        W12604   0.094   8.009   3.411  0.0772  0.1009 -0.0144
 8405W        W12605   3.690   5.900   2.715 -0.3373 -0.0058  0.1267
 8406W        W12606  10.053   3.381   4.368  0.0441 -0.3364 -0.0163
 8407W        W12607   7.283   7.571   3.845  0.4500 -0.1512 -0.0299
 8408W        W12608  10.098   5.507   1.341  0.0974 -0.3088  0.3136
 8409W        W12609   1.867   5.238   5.064  0.0369 -0.1533  0.1341
 8410W        W12610  10.039   0.003  13.138  0.3155  0.2103 -0.0632
 8411W        W12611   2.755   4.725   1.931 -0.1418 -0.0348 -0.0558
 8412W        W12612   6.387   0.535   1.743  0.0306 -0.1866 -0.0519
 8413W        W12613   0.020   9.816   8.879 -0.0214 -0.2944  0.0430
 8414W        W12614   8.493  10.286  11.875  0.0467  0.1122 -0.2872
 8415W        W12615   8.696   8.889  13.076 -0.1376  0.0721  0.1641
 8416W        W12616   2.674   7.625  11.634 -0.0876  0.0047 -0.1177
 8417W        W12617   2.344   2.778   3.745 -0.0076 -0.0087  0.1467
 8418W        W12618   7.259   9.813   1.299 -0.0168 -0.2927  0.1086
 8419W        W12619   8.058   8.397  10.646 -0.1107 -0.0460  0.1366
 8420W        W12620   6.719   9.466   9.888  0.1585  0.1572  0.0120
 8421W        W12621   9.929   6.485   4.276  0.0149 -0.1461 -0.1970
 8422W        W12622  10.343   3.891   0.393  0.0540 -0.0802  0.0839
 8423W        W12623   7.443   9.367   3.362 -0.0761  0.1033 -0.1569
 8424W        W12624   7.645   6.885  11.956  0.1025 -0.3250 -0.0607
 8425W        W12625   4.798   2.686  12.612 -0.0639 -0.1421 -0.0433
 8426W        W12626   4.219   9.266   9.891  0.0664 -0.0423 -0.3061
 8427W        W12627   9.808   3.232   0.827  0.2251  0.0490 -0.0556
 8428W        W12628   0.699   7.979   4.420 -0.1494  0.1495 -0.0836
 8429W        W12629   2.159   3.828  10.195  0.3018 -0.1864  0.0966
 8430W        W12630   8.686   6.945  10.316  0.1472  0.2206 -0.1235
 8431W        W12631  10.301   1.351   2.543 -0.1623 -0.1299  0.2465
 8432W        W12632   7.776  10.010   1.692 -0.0884 -0.1690 -0.0585
 8433W        W12633   0.026   2.444   0.883  0.2311  0.1369  0.0823
 8434W        W12634   8.180   8.076  11.084 -0.0411 -0.1798  0.0354
 8435W        W12635   2.160   0.209   3.220 -0.1768 -0.5865 -0.2625
 8436W        W12636  10.011   2.323  11.017 -0.1485 -0.0595 -0.0843
 8437W        W12637   9.670   7.110   9.271 -0.1108 -0.0673 -0.2135
 8438W        W12638   7.728   6.986   8.214  0.1333 -0.2259  0.0561
 8439W        W12639   7.264   0.239   2.527  0.0799 -0.1644  0.0327
 8440W        W12640   8.158   5.293  10.985  0.0201  0.0624  0.4368
 8441W        W12641   1.688   1.604   0.555  0.2880  0.0922  0.2671
 8442W        W12642   8.260   4.312   1.160 -0.1988  0.0285 -0.1100
 8443W        W12643   7.479   4.995  11.726 -0.0815 -0.0372  0.0139
 8444W        W12644   1.623   4.859   2.417 -0.0945  0.1344  0.0338
 8445W        W12645   3.184   9.802  11.339  0.2028 -0.0944 -0.0020
 8446W        W12646   9.034   7.875  10.539  0.1683 -0.1504 -0.0038
 8447W        W12647   2.674   6.923   0.671  0.4702 -0.1635  0.2203
 8448W        W12648   1.132   3.398   3.475 -0.0020  0.0187 -0.0575
 8449W        W12649   2.465   6.647  11.698  0.2331 -0.2387 -0.1976
 8450W        W12650   8.903   5.227   2.615  0.0120  0.0082  0.1681
 8451W        W12651   5.448   3.979   3.406 -0.0257 -0.1382 -0.4884
 8452W        W12652   4.259   6.601   3.781 -0.4828  0.0594 -0.0153
 8453W        W12653   0.354   0.853  10.803  0.1451 -0.3194  0.1347
 8454W        W12654   9.355   9.543  11.249  0.2878  0.3089 -0.0735
 8455W        W12655   5.908   2.668  11.211 -0.0501 -0.1589 -0.0494
 8456W        W12656  10.478   3.022   3.429  0.2107  0.1023 -0.1818
 8457W        W12657   2.945   2.871   1.056  0.2687 -0.1213 -0.2526
 8458W        W12658   1.641  10.513   2.602 -0.0366  0.1015  0.1104
 8459W        W12659   0.735   1.212  12.576 -0.0677  0.0348 -0.1273
 8460W        W12660   9.098   8.130   1.705  0.2727 -0.0750 -0.2904
 8461W        W12661   1.063   4.356   2.800  0.0885 -0.1383  0.0064
 8462W        W12662   8.224   6.360  11.993  0.2099 -0.0336  0.0239
 8463W        W12663   5.323   6.225   8.764 -0.0050 -0.3608  0.0091
 8464W        W12664   8.440   9.362   0.839  0.0954  0.0568 -0.1975
 8465W        W12665   3.877   9.627  10.582 -0.0327 -0.2530  0.0371
 8466W        W12666   1.224   1.923   4.416 -0.4151 -0.2335 -0.1051
 8467W        W12667   5.409   4.450  10.045  0.0843  0.2750 -0.1360
 8468W        W12668   4.717   1.795   9.701  0.2797 -0.1543  0.0119
 8469W        W12669   4.228   2.122   2.927 -0.0046  0.2227 -0.0859
 8470W        W12670   6.283   7.618  12.514  0.0658  0.1038 -0.0889
 8471W        W12671  10.054   9.446  11.784  0.1283  0.1128  0.1151
 8472W        W12672   6.093   2.889   1.311  0.0245 -0.0779 -0.0090
 8473W        W12673   8.370   7.348  12.647  0.1939  0.1319  0.2667
 8474W        W12674   2.488   2.775   9.909  0.2231  0.2796  0.1396
 8475W        W12675   4.515   3.956  11.081 -0.3579 -0.4126  0.1617
 8476W        W12676   0.600   6.496  10.733 -0.1129  0.2375 -0.0366
 8477W        W12677   3.062   3.302  12.956  0.2357 -0.0524 -0.0900
 8478W        W12678   4.363   3.533   2.754 -0.1285  0.0868 -0.2352
 8479W        W12679   3.648   9.092   3.485  0.0689  0.1338  0.2107
 8480W        W12680   7.327   3.192  12.411  0.1072  0.3191  0.0766
 8481W        W12681   7.039   7.096  10.719  0.2852 -0.0793  0.2528
 8482W        W12682   8.479   0.460   5.340  0.2090 -0.2885 -0.0643
 8483W        W12683  10.263   1.136  11.266  0.3408 -0.0566 -0.0298
 8484W        W12684  10.348   2.621  12.390  0.2895  0.1951  0.0639
 8485W        W12685   2.934   6.651  12.600  0.0871 -0.2609  0.1342
 8486W        W12686   8.155   4.723   3.118 -0.1554 -0.0265 -0.2053
 8487W        W12687   2.763   2.554   2.102 -0.0961  0.0608  0.0420
 8488W        W12688   0.360   1.070   2.549 -0.0380  0.1100 -0.1372
 8489W        W12689   9.849   4.455  10.420 -0.3229 -0.1651 -0.2499
 8490W        W12690   8.635   5.686   1.737  0.1743  0.1166  0.2127
 8491W        W12691   9.523   0.488   9.893 -0.0632  0.0550  0.1288
 8492W        W12692   3.153   9.528   9.596  0.2040 -0.1663 -0.0833
 8493W        W12693   9.439   6.958   3.154  0.2147  0.1607  0.2123
 8494W        W12694   9.012   8.737  10.622 -0.1263  0.0563 -0.0250
 8495W        W12695   1.759   9.686   9.459  0.0907 -0.1558 -0.0742
 8496W        W12696   7.855   5.862   8.820 -0.2730  0.3937 -0.0622
 8497W        W12697   0.919   5.281  12.257  0.3368 -0.0354 -0.1042
 8498W        W12698   7.852   1.611   5.154 -0.1940 -0.0489 -0.0927
 8499W        W12699   5.238   6.741   8.202  0.3773 -0.2212  0.1680
 8500W        W12700   7.086   3.905  13.149  0.1441  0.3394  0.1229
 8501W        W12701   7.589   6.732   2.020 -0.3462  0.1178  0.0019
 8502W        W12702   1.493   7.159   3.047 -0.4140  0.0404  0.1204
 8503W        W12703   6.734   8.968   3.291  0.0218 -0.0637 -0.0407
 8504W        W12704   7.892   9.737   9.517  0.0928 -0.1688 -0.1488
 8505W        W12705   9.594   7.508   2.063  0.0229  0.1518  0.1358
 8506W        W12706   2.073   0.853   3.836 -0.0084  0.1195  0.5007
 8507W        W12707   9.446   7.441  12.896 -0.1387  0.3785 -0.0048
 8508W        W12708   9.886   4.883  10.672  0.2971  0.0275 -0.0374
 8509W        W12709   5.993  10.269   1.673  0.0379  0.0882  0.0231
 8510W        W12710   6.337   3.717  10.668 -0.0740 -0.0831 -0.0574
 8511W        W12711   8.399   8.020   0.750  0.1021  0.0971 -0.0230
 8512W        W12712   5.892  10.118   9.798 -0.0187  0.0661 -0.0638
 8513W        W12713   0.581   8.681  10.295 -0.0673  0.1323  0.0323
 8514W        W12714   4.356   9.102  11.359 -0.2706  0.3925 -0.0739
 8515W        W12715   5.937   5.858   2.216 -0.0554  0.3064  0.2012
 8516W        W12716  10.455   3.244   1.984 -0.0853  0.1640 -0.2457
 8517W        W12717   5.564   3.219   9.893  0.1354  0.2693  0.1150
 8518W        W12718   7.680   5.634   9.217 -0.4767 -0.0211 -0.4220
 8519W        W12719   5.838   9.860  12.301 -0.1691 -0.5540  0.2866
 8520W        W12720   4.405   0.410   5.474  0.0936 -0.1933  0.1669
 8521W        W12721   5.497   5.879  12.369 -0.2710 -0.0087 -0.0037
 8522W        W12722   8.746   7.920   0.406 -0.0265 -0.0982  0.1437
 8523W        W12723   2.808   1.925   2.577  0.1667 -0.1784  0.0120
 8524W        W12724   1.324   0.674   0.443  0.1998  0.1073  0.1872
 8525W        W12725   5.737   1.082  10.421 -0.3902 -0.1838 -0.0590
 8526W        W12726  10.291  10.144  13.053  0.2151  0.1382 -0.0027
 8527W        W12727   7.975   3.895   3.267 -0.0808  0.1697 -0.0761
 8528W        W12728   5.116   3.972   4.090  0.3032 -0.1403  0.0565
 8529W        W12729   9.681   7.455   0.514  0.2372  0.2019 -0.0168
 8530W        W12730   5.074   0.063   3.095 -0.0781 -0.0543  0.2524
 8531W        W12731   3.716   4.923   0.358  0.2279  0.3714  0.0790
 8532W        W12732   0.497   3.029   4.352  0.1563  0.0700  0.0696
 8533W        W12733   6.345   9.902   4.134  0.0920 -0.0287 -0.1744
 8534W        W12734  10.460   8.440   1.339  0.0322 -0.1361 -0.1394
 8535ION    NA+12735   6.976   3.563   8.719  0.0652  0.2482 -0.2250
 8536ION    NA+12736   1.306   6.653  12.492  0.3004  0.3994 -0.1175
 8537ION    NA+12737   6.022   2.611   3.685 -0.4881  0.0038 -0.1213
 8538ION    NA+12738   8.794   0.569   2.625  0.2714 -0.1274  0.1302
 8539ION    NA+12739   0.137  10.159   4.430 -0.2688 -0.1250  0.2455
 8540ION    NA+12740  10.341   4.950   4.770  0.0225 -0.0278  0.2944
 8541ION    NA+12741   1.507   8.851   9.901  0.1579  0.1001 -0.0829
 8542ION    NA+12742   3.569   1.006   2.912 -0.0890  0.3461 -0.0604
 8543ION    NA+12743   2.687   6.149   0.967 -0.0369 -0.2221 -0.0669
 8544ION    NA+12744   1.819   0.822  11.270 -0.0375  0.0631 -0.0072
 8545ION    NA+12745   8.021   5.946  11.066  0.2109 -0.0973 -0.0453
 8546ION    NA+12746   0.933   5.957   3.787 -0.1151  0.0528  0.1150
 8547ION    NA+12747  10.367   7.181  13.162 -0.0962  0.0786 -0.0165
 8548ION    NA+12748   0.270   3.302  12.905 -0.2683 -0.2469  0.1189
 8549ION    NA+12749   0.017   6.125   9.857 -0.0716  0.1215  0.2172
 8550ION    NA+12750   8.774   5.296   3.818  0.2306 -0.1885  0.0494
 8551ION    NA+12751   7.344   8.795   4.451 -0.2727 -0.1021 -0.2577
 8552ION    NA+12752   9.439   5.430   3.337 -0.0989 -0.1170  0.0552
 8553ION    NA+12753   5.432   1.377  11.711 -0.0279 -0.1846  0.3363
 8554ION    NA+12754   7.871   3.023   8.736  0.3108  0.1439 -0.1757
 8555ION    NA+12755   2.833   3.977   8.537 -0.0679  0.1520 -0.0539
 8556ION    NA+12756   9.735   7.256   8.788 -0.1765 -0.1263  0.0855
 8557ION    NA+12757   1.231   6.817   9.773 -0.1223 -0.2325  0.0692
 8558ION    NA+12758   0.148   6.388   1.839 -0.0441  0.0227 -0.0501
 8559ION    NA+12759   3.478   9.460   3.968 -0.2364  0.4159 -0.1533
 8560ION    NA+12760   4.813   0.444   1.701 -0.0518  0.2926 -0.0549
 8561ION    NA+12761   7.000   3.498  11.878 -0.1630  0.1314  0.1303
 8562ION    NA+12762   5.568   7.702   2.385 -0.1379  0.0516  0.1297
 8563ION    NA+12763   0.734   9.614  11.085 -0.1102 -0.1053 -0.0663
 8564ION    NA+12764   4.022   1.934  10.043  0.0226  0.0004  0.0856
 8565ION    NA+12765   0.997   9.816   3.075  0.1720  0.2360 -0.0813
 8566ION    NA+12766   8.254   4.782   5.102  0.0336  0.0660  0.1945
 8567ION    NA+12767   1.945  10.176   0.898 -0.0558  0.0382 -0.0232
 8568ION    NA+12768   5.684   3.735   2.442 -0.4179  0.0490  0.2124
 8569ION    NA+12769   6.976   7.532   0.045 -0.1967  0.1820 -0.0787
 8570ION    NA+12770   7.509   8.228   2.571 -0.1003  0.1672 -0.0649
 8571ION    NA+12771  10.001   9.977   2.136  0.2881  0.4009 -0.2915
 8572ION    NA+12772   2.037   9.259  11.594 -0.0905 -0.2131 -0.1449
 8573ION    NA+12773   9.674   1.449   1.406  0.0239 -0.1815 -0.1256
 8574ION    NA+12774   3.580   3.546   4.456  0.0124  0.0601 -0.1563
 8575ION    NA+12775   6.489   5.727   1.141 -0.1902  0.2989  0.0478
 8576ION    NA+12776   0.888   3.567   1.226  0.1018 -0.2224  0.0807
 8577ION    NA+12777   5.938  10.182   3.634  0.1508 -0.2451  0.3619
 8578ION    NA+12778   7.675  10.012   2.250 -0.0272  0.2390 -0.0518
 8579ION    NA+12779   0.930   4.320   4.522 -0.0373  0.1795 -0.3998
 8580ION    NA+12780   7.951   7.367   5.011  0.0246 -0.0467 -0.0142
 8581ION    NA+12781   8.568   0.442   1.697 -0.1178  0.2508 -0.0460
 8582ION    NA+12782   2.996   8.380  12.182  0.0174 -0.0099 -0.1718
 8583ION    NA+12783  10.279   5.272  11.438 -0.0185 -0.1003  0.3640
 8584ION    NA+12784   7.199   5.956   8.342 -0.1853 -0.1317  0.0786
 8585ION    NA+12785   2.522  10.283   2.164  0.0191 -0.1776 -0.5795
 8586ION    NA+12786   0.878   3.210  10.559 -0.0428 -0.1244  0.1605
 8587ION    NA+12787   4.500   0.045  12.003  0.3467 -0.3279  0.0193
 8588ION    NA+12788   1.877   5.615   2.358  0.0877 -0.0979 -0.2293
 8589ION    NA+12789   9.865   0.397   9.006 -0.2938 -0.0127 -0.0165
 8590ION    NA+12790  10.451   6.228  12.895  0.0641 -0.1408 -0.1020
 8591ION    NA+12791   9.218   9.921   0.506  0.2276  0.0226 -0.1005
 8592ION    NA+12792   8.424   5.310   0.907  0.0026 -0.0754  0.0691
 8593ION    NA+12793   2.906   4.159  12.705  0.3019  0.2139 -0.1103
 8594ION    NA+12794   6.648   6.122  10.462  0.2752 -0.0127  0.3450
 8595ION    NA+12795   0.006   4.498  12.972  0.0247  0.0173  0.0237
 8596ION    NA+12796   6.716   0.724   2.136 -0.2491  0.3391  0.0521
 8597ION    NA+12797   9.333   0.585   1.937  0.0021  0.3798 -0.0808
 8598ION    NA+12798   6.806   8.501   8.091 -0.0455  0.0566 -0.3240
 8599ION    NA+12799   4.013   0.936  11.008 -0.0205 -0.1718 -0.1412
 8600ION    NA+12800   2.573   2.092  10.196 -0.0817  0.2412 -0.3632
 8601ION    NA+12801   1.021   8.333  12.384 -0.0529 -0.1624  0.5324
 8602ION    NA+12802   0.097   9.987  11.199  0.1907  0.1868  0.1509
 8603ION    NA+12803   0.647   6.776  11.892 -0.1415  0.2073  0.1919
 8604ION    NA+12804   5.010   0.100   2.395 -0.2904  0.1663 -0.3195
 8605ION    NA+12805   0.635   3.066   2.538 -0.1389  0.0273 -0.0345
 8606ION    NA+12806   8.027   5.242  11.865  0.3090 -0.1666 -0.0417
 8607ION    NA+12807   5.758   3.609   4.416 -0.1868 -0.2302  0.3317
 8608ION    NA+12808   5.597   0.950   0.330  0.0602  0.0722  0.1533
 8609ION    NA+12809   0.024   8.902   4.788 -0.1091 -0.0126 -0.1339
 8610ION    NA+12810   1.154   0.149  11.154 -0.0228 -0.2149  0.0788
 8611ION    NA+12811   8.592   1.297   5.110  0.1896 -0.0206 -0.0758
 8612ION    NA+12812   1.091   5.925   0.555  0.0348 -0.1233  0.0467
 8613ION    NA+12813   7.476   5.994   4.955 -0.0059  0.1785  0.0177
 8614ION    NA+12814   5.499   8.713   2.451 -0.2228  0.1045 -0.1243
 8615ION    NA+12815   2.946   4.321   4.646  0.1256  0.2124  0.0742
 8616ION    NA+12816   6.406   0.851  11.877 -0.4090 -0.2905  0.1989
 8617ION    NA+12817   6.719   6.014  11.697 -0.1722 -0.0544 -0.2809
 8618ION    NA+12818   4.012   0.183  12.858  0.0839 -0.0743  0.2549
 8619ION    NA+12819   9.253   9.293  10.772 -0.0015 -0.0677  0.1107
 8620ION    NA+12820   9.843   1.728  11.182 -0.2749 -0.2470 -0.2719
 8621ION    NA+12821   2.998   0.381   2.159  0.1661  0.1346 -0.0025
 8622ION    NA+12822   6.962   3.309   2.941 -0.0691  0.0553  0.0209
 8623ION    NA+12823   3.853   4.845   4.791 -0.0629 -0.0913 -0.4044
 8624ION    NA+12824   5.906   5.831   0.395 -0.2136  0.0386  0.0465
 8625ION    CL-12825   1.154   9.903   3.647  0.1797  0.2353  0.3060
 8626ION    CL-12826   6.883   7.828   3.702  0.2294 -0.1798 -0.0948
 8627ION    CL-12827   1.138   6.638  12.007  0.0018 -0.0867 -0.0541
 8628ION    CL-12828  10.428  10.026   2.408 -0.1527 -0.0159  0.2378
 8629ION    CL-12829   5.818   8.770   3.298  0.0419 -0.1563  0.1479
 8630ION    CL-12830   9.590   9.292   9.966 -0.1300  0.3156 -0.0267
 8631ION    CL-12831   3.571   2.390   0.792 -0.0963  0.0521  0.0838
 8632ION    CL-12832   2.261   0.137   0.630 -0.0711  0.2355  0.1968
 8633ION    CL-12833   3.065   4.341   9.271 -0.1159  0.2605 -0.2965
 8634ION    CL-12834   2.536   5.994   0.536  0.0304  0.3670  0.2251
 8635ION    CL-12835   4.562   0.307   2.201 -0.1606 -0.3512  0.1130
 8636ION    CL-12836   3.891   0.536  12.534 -0.1356  0.0282  0.1512
 8637ION    CL-12837   0.630   9.323   3.846 -0.0849 -0.0560 -0.1894
 8638ION    CL-12838   8.799   5.411   4.345 -0.2469 -0.0787 -0.2765
 8639ION    CL-12839   9.751   7.599   2.546 -0.1357 -0.1617  0.0329
 8640ION    CL-12840   1.662   5.219   2.103 -0.1932 -0.3505 -0.1602
 8641ION    CL-12841   8.572   0.286   2.204  0.0001  0.0750  0.1888
 8642ION    CL-12842   8.491   2.076   9.101 -0.2354 -0.0991  0.0225
 8643ION    CL-12843   1.975   1.099  12.043  0.0225 -0.0980 -0.4156
 8644ION    CL-12844   3.982   8.279   3.322  0.0219 -0.1355 -0.3076
 8645ION    CL-12845   9.046   5.766   9.647  0.2166  0.0399  0.0689
 8646ION    CL-12846   4.215   9.766   2.767 -0.3106  0.0326  0.0425
 8647ION    CL-12847   0.830   1.249  11.787 -0.1653 -0.3257  0.1596
 8648ION    CL-12848   5.047   3.336   9.928  0.3477  0.2711  0.1414
 8649ION    CL-12849   0.320   4.709   0.035 -0.0400 -0.0345 -0.0880
 8650ION    CL-12850   7.266   6.315  13.197 -0.0377 -0.1606 -0.0519
 8651ION    CL-12851   7.530  10.116   3.611  0.2594 -0.0061 -0.2921
 8652ION    CL-12852  10.161   3.843   1.177  0.0161  0.2337  0.2948
 8653ION    CL-12853   6.408   5.508  12.289  0.3864 -0.0359 -0.1340
 8654ION    CL-12854   2.592   1.545  10.374  0.0884 -0.1292 -0.1678
 8655ION    CL-12855   2.604   2.504  10.599  0.1108  0.3591  0.1876
 8656ION    CL-12856   1.028   8.140  10.447 -0.0246 -0.3802  0.0720
 8657ION    CL-12857   0.753   1.113   2.187 -0.2157 -0.0604  0.0752
 8658ION    CL-12858   0.975   5.706   4.261 -0.5448  0.0385 -0.0224
 8659ION    CL-12859   1.517   8.123   4.016  0.1389 -0.0904 -0.0111
 8660ION    CL-12860  10.064   2.371   9.177  0.0916 -0.1173  0.0215
 8661ION    CL-12861   0.419   6.624   2.200 -0.1498 -0.1003 -0.1396
 8662ION    CL-12862   6.347   6.309  11.721 -0.0562 -0.0406 -0.0890
 8663ION    CL-12863   6.808   2.953   2.609 -0.1259 -0.2242  0.1229
 8664ION    CL-12864   2.308   0.746  11.224 -0.2601  0.2690 -0.1741
 8665ION    CL-12865   8.112   7.744   2.142 -0.2201  0.0903  0.1693
 8666ION    CL-12866  10.148   6.715  12.957  0.1734  0.2809 -0.2384
 8667ION    CL-12867   8.121   5.561   0.550  0.0501  0.0684 -0.0961
 8668ION    CL-12868   9.684   6.251   3.502  0.1624  0.0682  0.0098
 8669ION    CL-12869   9.982   2.288   4.826 -0.5111 -0.3774 -0.0924
 8670ION    CL-12870   0.982   8.072  11.950  0.0693 -0.2073  0.0616
 8671ION    CL-12871   0.262   9.500  10.893 -0.0415  0.3591 -0.0681
 8672ION    CL-12872   4.988   2.261  10.522 -0.3865 -0.0112 -0.0452
 8673ION    CL-12873   5.652   1.351   0.670  0.0928 -0.0904 -0.1023
 8674ION    CL-12874   5.531   1.048  12.087 -0.1380  0.4314 -0.2681
 8675ION    CL-12875   5.057   5.300   0.116 -0.1536 -0.1199 -0.0545
 8676ION    CL-12876   4.387   0.664  10.192  0.2513  0.1630  0.1132
 8677ION    CL-12877   0.167   4.558   4.100  0.0224 -0.0592 -0.1403
 8678ION    CL-12878   6.651   6.146   1.265  0.3700 -0.2123 -0.0823
 8679ION    CL-12879   9.641   9.689   4.101  0.3826 -0.4543 -0.2954
 8680ION    CL-12880   4.013   0.905  11.607  0.0032  0.1494  0.2162
 8681ION    CL-12881   1.455   5.607   0.280  0.1946  0.0743 -0.4979
 8682ION    CL-12882   1.448   2.447   9.023 -0.1205  0.1289 -0.2247
 8683ION    CL-12883   9.888   1.829  11.806  0.0474 -0.3569 -0.2034
 8684ION    CL-12884   2.263   8.542  12.450 -0.0299 -0.0865  0.2413
 8685ION    CL-12885   0.442   1.329  10.077 -0.3239  0.1372 -0.1643
 8686ION    CL-12886   1.328   3.869   1.140 -0.0619 -0.2432 -0.0011
 8687ION    CL-12887   9.935   0.397   9.583  0.0500  0.0049  0.0543
 8688ION    CL-12888   1.548   9.351   3.040  0.0359  0.0516  0.6435
 8689ION    CL-12889   2.656   3.660  12.742  0.1188  0.0061 -0.1407
 8690ION    CL-12890   2.519   2.360   3.498 -0.1716  0.0157  0.0066
 8691ION    CL-12891   0.365   6.286  10.146 -0.1683  0.0628  0.0873
 8692ION    CL-12892   9.377   3.865   9.550 -0.0126  0.4892  0.0755
 8693ION    CL-12893   5.640  10.121   0.315 -0.2919 -0.1622 -0.1171
 8694ION    CL-12894   5.826   7.565   1.991 -0.2784  0.0189 -0.0863
 8695ION    CL-12895   8.036   4.342  12.283 -0.2691 -0.0112 -0.1578
 8696ION    CL-12896   6.565   7.685   8.771  0.1750  0.1498 -0.1240
 8697ION    CL-12897   1.591   8.359   9.766 -0.0245  0.2962 -0.3007
 8698ION    CL-12898   8.556   2.847   3.785  0.2752 -0.0721 -0.1528
 8699ION    CL-12899   6.591   7.209   0.082  0.0477  0.0503  0.1428
 8700ION    CL-12900   2.802   0.015   1.857 -0.0185 -0.1450  0.0174
 8701ION    CL-12901   3.627   7.937   8.999 -0.1022  0.2375 -0.0484
 8702ION    CL-12902   7.673   2.362   3.908 -0.0093  0.0526  0.3422
 8703ION    CL-12903  10.237   5.913   1.798  0.0383  0.0169 -0.0246
 8704ION    CL-12904   1.750   6.925   9.832  0.0539  0.0609 -0.0284
 8705ION    CL-12905   6.595   5.905   9.960  0.1105 -0.1755  0.1599
 8706ION    CL-12906   0.586  10.070  11.204 -0.6357 -0.0090 -0.4000
 8707ION    CL-12907   1.375   2.582   2.885  0.1161  0.0158 -0.2036
 8708ION    CL-12908   0.562   6.007   0.332  0.2066  0.0476  0.3410
 8709ION    CL-12909   7.718   7.935   2.912 -0.0396 -0.1371 -0.3216
 8710ION    CL-12910   2.449   4.905   3.971  0.1369  0.3383  0.0937
 8711ION    CL-12911   6.540   5.471   0.645  0.0311  0.5368 -0.1130
 8712ION    CL-12912   4.879   5.094   8.335 -0.2738 -0.2316 -0.0847
 8713ION    CL-12913   1.328   6.808   2.592  0.1054 -0.1290  0.0188
 8714ION    CL-12914   4.482   3.778   3.406  0.0615  0.0660 -0.2914
  10.54919  10.54919  13.27413
