Protein in INSANE! Membrane UpperLeaflet>POPC=1.0 LowerLeaflet>POPC=1.0
11125
    1AU     AUC    1   5.244   5.283   6.001
    1AU     AUC    2   5.387   5.272   5.920
    1AU     AUC    3   5.402   5.287   6.093
    1AU     AUC    4   5.102   5.316   5.904
    1AU     AUC    5   5.105   5.306   6.107
    1AU     AUC    6   5.174   5.445   6.010
    1AU     AUC    7   5.330   5.440   6.013
    1AU     AUC    8   5.139   5.155   5.986
    1AU     AUC    9   5.319   5.138   6.022
    1AU     AUC   10   5.231   5.212   6.149
    1AU     AUC   11   5.232   5.365   6.151
    1AU     AUC   12   5.259   5.191   5.868
    1AU     AUC   13   5.257   5.385   5.876
    1AU     AUC   14   5.517   5.295   5.840
    1AU     AUC   15   5.556   5.273   5.989
    1AU     AUC   16   5.517   5.281   6.167
    1AU     AUC   17   4.993   5.321   5.814
    1AU     AUC   18   4.920   5.329   5.978
    1AU     AUC   19   4.962   5.307   6.159
    1AU     AUC   20   5.088   5.581   6.010
    1AU     AUC   21   5.227   5.614   6.043
    1AU     AUC   22   5.442   5.553   5.996
    1AU     AUC   23   5.045   5.048   6.002
    1AU     AUC   24   5.189   4.968   6.015
    1AU     AUC   25   5.384   5.000   6.028
    1AU     AUC   26   5.224   5.106   6.279
    1AU     AUC   27   5.264   5.252   6.332
    1AU     AUC   28   5.259   5.452   6.291
    1AU     AUC   29   5.247   5.123   5.733
    1AU     AUC   30   5.248   5.259   5.675
    1AU     AUC   31   5.275   5.450   5.733
    1AU     AUC   32   5.448   5.225   6.259
    1AU     AUC   33   5.452   5.361   6.248
    1AU     AUC   34   5.399   5.163   5.764
    1AU     AUC   35   5.382   5.403   5.740
    1AU     AUC   36   5.105   5.143   6.265
    1AU     AUC   37   5.039   5.377   6.249
    1AU     AUC   38   5.056   5.256   5.721
    1AU     AUC   39   5.096   5.384   5.748
    1AU     AUC   40   5.538   5.394   5.860
    1AU     AUC   41   5.491   5.465   6.074
    1AU     AUC   42   4.991   5.467   5.904
    1AU     AUC   43   4.946   5.447   6.089
    1AU     AUC   44   5.530   5.095   5.934
    1AU     AUC   45   5.447   5.053   6.115
    1AU     AUC   46   4.982   5.167   5.902
    1AU     AUC   47   4.952   5.146   6.059
    1AU     AUC   48   5.104   5.577   6.153
    1AU     AUC   49   5.343   5.520   6.221
    1AU     AUC   50   5.094   5.030   6.145
    1AU     AUC   51   5.333   5.026   6.139
    1AU     AUC   52   5.163   5.577   5.830
    1AU     AUC   53   5.361   5.558   5.842
    1AU     AUC   54   5.126   5.053   5.837
    1AU     AUC   55   5.357   5.007   5.847
    1AU    AUSL   56   5.648   5.181   6.474
    1AU    AUSL   57   5.525   4.913   6.398
    1AU     AUL   58   5.346   5.151   6.668
    1AU       S   59   5.712   4.570   6.548
    1AU     LIG   60   5.637   4.344   6.907
    1AU     LIG   61   5.928   4.110   7.169
    1AU     LIG   62   6.197   3.804   7.401
    1AU     LIG   63   6.359   3.595   7.786
    1AU       S   64   5.913   5.073   6.801
    1AU     LIG   65   6.107   5.043   7.225
    1AU     LIG   66   6.223   4.984   7.683
    1AU     LIG   67   6.522   5.037   8.060
    1AU     LIG   68   6.872   5.169   8.362
    1AU    AUSL   69   5.374   5.139   6.393
    1AU    AUSL   70   5.204   5.349   6.431
    1AU     AUL   71   5.192   5.369   6.734
    1AU       S   72   5.691   4.887   6.912
    1AU     LIG   73   5.804   4.639   7.308
    1AU     LIG   74   5.816   4.661   7.788
    1AU     LIG   75   5.761   4.614   8.263
    1AU     LIG   76   5.917   4.656   8.705
    1AU       S   77   4.777   5.371   7.001
    1AU     LIG   78   4.678   5.340   7.462
    1AU     LIG   79   4.672   5.194   7.921
    1AU     LIG   80   4.522   5.222   8.365
    1AU     LIG   81   4.538   5.442   8.782
    1AU    AUSL   82   5.454   5.372   6.529
    1AU    AUSL   83   5.638   5.434   6.334
    1AU     AUL   84   5.471   5.428   6.710
    1AU       S   85   5.641   5.803   6.973
    1AU     LIG   86   5.772   5.982   7.405
    1AU     LIG   87   5.736   5.990   7.898
    1AU     LIG   88   5.775   5.986   8.385
    1AU     LIG   89   5.794   5.901   8.858
    1AU       S   90   6.036   5.702   6.543
    1AU     LIG   91   6.362   5.695   6.830
    1AU     LIG   92   6.606   5.985   7.070
    1AU     LIG   93   6.841   6.313   7.308
    1AU     LIG   94   7.196   6.441   7.595
    1AU    AUSL   95   5.586   5.373   5.486
    1AU    AUSL   96   5.468   5.622   5.562
    1AU     AUL   97   5.836   5.490   5.659
    1AU       S   98   5.858   5.339   5.144
    1AU     LIG   99   6.147   5.167   4.835
    1AU     LIG  100   6.195   5.038   4.386
    1AU     LIG  101   6.281   5.003   3.915
    1AU     LIG  102   6.487   5.033   3.486
    1AU       S  103   5.634   5.886   5.227
    1AU     LIG  104   5.865   6.069   4.833
    1AU     LIG  105   6.192   6.308   4.550
    1AU     LIG  106   6.455   6.648   4.322
    1AU     LIG  107   6.705   6.936   4.039
    1AU    AUSL  108   5.397   5.170   5.421
    1AU    AUSL  109   5.517   5.167   5.670
    1AU     AUL  110   5.686   5.182   5.647
    1AU       S  111   5.875   4.783   5.324
    1AU     LIG  112   6.123   4.527   5.008
    1AU     LIG  113   6.417   4.211   4.790
    1AU     LIG  114   6.693   3.899   4.553
    1AU     LIG  115   6.966   3.796   4.172
    1AU       S  116   5.664   5.109   5.026
    1AU     LIG  117   5.805   4.801   4.696
    1AU     LIG  118   5.813   4.736   4.220
    1AU     LIG  119   5.850   4.775   3.744
    1AU     LIG  120   6.039   4.845   3.309
    1AU    AUSL  121   5.346   5.382   5.610
    1AU    AUSL  122   5.175   5.172   5.586
    1AU     AUL  123   5.193   5.222   5.217
    1AU       S  124   4.735   4.964   5.117
    1AU     LIG  125   4.629   4.754   4.711
    1AU     LIG  126   4.659   4.722   4.227
    1AU     LIG  127   4.539   4.736   3.757
    1AU     LIG  128   4.574   4.786   3.279
    1AU       S  129   5.656   5.436   4.989
    1AU     LIG  130   5.747   5.291   4.531
    1AU     LIG  131   5.832   5.228   4.056
    1AU     LIG  132   5.949   5.269   3.593
    1AU     LIG  133   5.889   5.481   3.173
    1AU    AUSL  134   4.949   5.316   6.355
    1AU    AUSL  135   5.076   5.561   6.298
    1AU     AUL  136   5.263   5.587   6.571
    1AU       S  137   4.585   5.275   6.833
    1AU     LIG  138   4.332   5.075   7.165
    1AU     LIG  139   4.290   5.005   7.640
    1AU     LIG  140   4.119   5.018   8.097
    1AU     LIG  141   3.833   5.090   8.484
    1AU       S  142   4.846   5.956   6.728
    1AU     LIG  143   4.694   6.020   7.165
    1AU     LIG  144   4.497   6.353   7.432
    1AU     LIG  145   4.223   6.677   7.646
    1AU     LIG  146   4.065   6.860   8.061
    1AU    AUSL  147   5.050   5.168   6.570
    1AU    AUSL  148   4.800   5.088   6.408
    1AU     AUL  149   5.011   4.817   6.397
    1AU       S  150   4.486   4.868   6.585
    1AU     LIG  151   4.070   4.723   6.620
    1AU     LIG  152   3.852   4.368   6.827
    1AU     LIG  153   3.654   4.024   7.072
    1AU     LIG  154   3.448   3.740   7.372
    1AU       S  155   4.805   5.076   6.945
    1AU     LIG  156   4.756   4.845   7.337
    1AU     LIG  157   4.691   4.695   7.766
    1AU     LIG  158   4.540   4.726   8.195
    1AU     LIG  159   4.453   4.558   8.623
    1AU    AUSL  160   4.913   5.227   5.523
    1AU    AUSL  161   5.095   4.967   5.745
    1AU     AUL  162   5.187   4.974   5.362
    1AU       S  163   4.580   5.168   5.216
    1AU     LIG  164   4.290   5.119   4.837
    1AU     LIG  165   4.241   4.977   4.385
    1AU     LIG  166   4.089   4.973   3.927
    1AU     LIG  167   3.670   5.020   3.673
    1AU       S  168   4.703   4.577   5.470
    1AU     LIG  169   4.476   4.287   5.164
    1AU     LIG  170   4.170   4.080   4.854
    1AU     LIG  171   3.838   3.909   4.565
    1AU     LIG  172   3.671   3.676   4.192
    1AU    AUSL  173   5.115   5.386   5.432
    1AU    AUSL  174   4.895   5.511   5.550
    1AU     AUL  175   5.306   5.449   5.352
    1AU       S  176   4.687   5.681   5.209
    1AU     LIG  177   4.329   5.853   4.967
    1AU     LIG  178   4.062   6.133   4.680
    1AU     LIG  179   3.750   6.415   4.441
    1AU     LIG  180   3.291   6.417   4.269
    1AU       S  181   4.758   5.261   4.988
    1AU     LIG  182   4.681   5.229   4.508
    1AU     LIG  183   4.571   5.194   4.035
    1AU     LIG  184   4.616   5.225   3.560
    1AU     LIG  185   4.749   5.419   3.138
    1AU    AUSL  186   5.793   5.547   5.939
    1AU    AUSL  187   5.590   5.427   5.763
    1AU     AUL  188   5.594   5.834   5.995
    1AU       S  189   5.873   5.835   5.310
    1AU     LIG  190   6.241   5.818   5.089
    1AU     LIG  191   6.529   5.999   4.796
    1AU     LIG  192   6.759   6.301   4.547
    1AU     LIG  193   7.008   6.596   4.279
    1AU       S  194   6.251   5.673   5.933
    1AU     LIG  195   6.723   5.886   5.973
    1AU     LIG  196   7.184   6.098   6.036
    1AU     LIG  197   7.432   6.534   6.074
    1AU     LIG  198   7.701   6.799   6.365
    1AU    AUSL  199   5.841   5.285   5.856
    1AU    AUSL  200   5.851   5.100   6.072
    1AU     AUL  201   5.862   5.272   6.303
    1AU       S  202   6.308   5.345   5.859
    1AU     LIG  203   6.782   5.381   5.919
    1AU     LIG  204   7.205   5.613   5.822
    1AU     LIG  205   7.650   5.750   5.720
    1AU     LIG  206   8.038   5.490   5.589
    1AU       S  207   6.256   4.916   6.157
    1AU     LIG  208   6.638   4.626   6.224
    1AU     LIG  209   7.120   4.543   6.223
    1AU     LIG  210   7.579   4.433   6.289
    1AU     LIG  211   8.035   4.509   6.447
    1AU    AUSL  212   5.695   5.330   6.085
    1AU    AUSL  213   5.567   5.568   6.090
    1AU     AUL  214   5.589   5.694   6.232
    1AU       S  215   6.037   5.895   6.318
    1AU     LIG  216   6.371   6.145   6.576
    1AU     LIG  217   6.501   6.469   6.936
    1AU     LIG  218   6.736   6.844   7.174
    1AU     LIG  219   6.846   7.351   7.190
    1AU       S  220   6.282   5.469   6.130
    1AU     LIG  221   6.624   5.598   6.381
    1AU     LIG  222   7.090   5.658   6.316
    1AU     LIG  223   7.563   5.746   6.356
    1AU     LIG  224   7.998   5.882   6.540
    1AU    AUSL  225   4.881   5.762   5.987
    1AU    AUSL  226   4.782   5.532   6.390
    1AU     AUL  227   4.552   5.544   6.105
    1AU       S  228   4.568   5.753   6.714
    1AU     LIG  229   4.232   5.858   6.997
    1AU     LIG  230   4.040   6.170   7.288
    1AU     LIG  231   3.815   6.363   7.655
    1AU     LIG  232   3.501   6.438   8.003
    1AU       S  233   4.529   6.092   5.979
    1AU     LIG  234   4.071   6.211   5.858
    1AU     LIG  235   3.659   6.482   5.912
    1AU     LIG  236   3.229   6.720   5.974
    1AU     LIG  237   2.771   6.674   6.066
    1AU    AUSL  238   4.880   5.533   5.828
    1AU    AUSL  239   4.957   5.762   5.699
    1AU     AUL  240   4.692   5.572   5.864
    1AU       S  241   4.380   5.810   5.572
    1AU     LIG  242   3.904   5.725   5.707
    1AU     LIG  243   3.416   5.829   5.680
    1AU     LIG  244   3.085   6.113   5.463
    1AU     LIG  245   2.608   6.162   5.450
    1AU       S  246   4.780   6.099   5.437
    1AU     LIG  247   4.383   6.279   5.258
    1AU     LIG  248   4.213   6.569   4.903
    1AU     LIG  249   3.911   6.876   4.676
    1AU     LIG  250   3.637   7.284   4.706
    1AU    AUSL  251   4.829   5.521   6.120
    1AU    AUSL  252   4.748   5.312   5.937
    1AU     AUL  253   4.613   5.305   5.956
    1AU       S  254   4.163   5.122   6.012
    1AU     LIG  255   3.751   5.184   5.851
    1AU     LIG  256   3.431   4.881   5.737
    1AU     LIG  257   3.017   4.687   5.776
    1AU     LIG  258   2.596   4.793   5.611
    1AU       S  259   4.252   5.449   6.482
    1AU     LIG  260   3.792   5.497   6.315
    1AU     LIG  261   3.336   5.663   6.415
    1AU     LIG  262   2.907   5.903   6.371
    1AU     LIG  263   2.512   6.209   6.343
    1AU    AUSL  264   5.727   4.863   5.989
    1AU    AUSL  265   5.591   5.110   6.214
    1AU     AUL  266   5.699   5.058   6.221
    1AU       S  267   6.105   4.619   6.019
    1AU     LIG  268   6.381   4.301   5.881
    1AU     LIG  269   6.830   4.200   5.949
    1AU     LIG  270   7.281   4.071   6.045
    1AU     LIG  271   7.611   3.847   6.311
    1AU       S  272   5.962   4.681   6.489
    1AU     LIG  273   6.132   4.527   6.905
    1AU     LIG  274   6.433   4.198   7.121
    1AU     LIG  275   6.695   3.936   7.434
    1AU     LIG  276   6.989   3.839   7.793
    1AU    AUSL  277   5.626   5.115   5.921
    1AU    AUSL  278   5.531   4.700   5.888
    1AU     AUL  279   5.846   5.006   5.791
    1AU       S  280   6.277   4.826   5.901
    1AU     LIG  281   6.689   4.686   5.720
    1AU     LIG  282   7.135   4.538   5.712
    1AU     LIG  283   7.564   4.393   5.761
    1AU     LIG  284   7.922   4.351   5.500
    1AU       S  285   5.827   4.467   5.609
    1AU     LIG  286   6.136   4.179   5.393
    1AU     LIG  287   6.263   3.821   5.085
    1AU     LIG  288   6.519   3.474   4.854
    1AU     LIG  289   6.733   3.021   4.881
    1AU    AUSL  290   4.686   5.033   5.978
    1AU    AUSL  291   4.861   5.115   5.778
    1AU     AUL  292   4.726   5.338   5.697
    1AU       S  293   4.494   4.797   5.549
    1AU     LIG  294   4.243   4.739   5.187
    1AU     LIG  295   3.890   4.465   5.054
    1AU     LIG  296   3.540   4.160   4.922
    1AU     LIG  297   3.209   3.946   4.639
    1AU       S  298   4.284   4.875   6.003
    1AU     LIG  299   3.865   4.656   5.954
    1AU     LIG  300   3.405   4.543   6.126
    1AU     LIG  301   2.979   4.429   6.348
    1AU     LIG  302   2.612   4.072   6.326
    1AU    AUSL  303   4.842   5.179   6.149
    1AU    AUSL  304   4.843   4.910   6.186
    1AU     AUL  305   4.686   5.311   6.229
    1AU       S  306   4.519   4.626   6.373
    1AU     LIG  307   4.247   4.243   6.511
    1AU     LIG  308   3.974   3.861   6.693
    1AU     LIG  309   3.704   3.512   6.938
    1AU     LIG  310   3.265   3.353   7.081
    1AU       S  311   4.228   5.027   6.208
    1AU     LIG  312   3.743   4.985   6.318
    1AU     LIG  313   3.274   5.038   6.208
    1AU     LIG  314   2.809   4.914   6.191
    1AU     LIG  315   2.480   4.669   6.444
    1AU    AUSL  316   5.233   5.778   6.364
    1AU    AUSL  317   4.893   5.759   6.264
    1AU     AUL  318   5.002   5.493   6.562
    1AU       S  319   4.745   6.122   6.456
    1AU     LIG  320   4.447   6.308   6.818
    1AU     LIG  321   4.199   6.633   7.110
    1AU     LIG  322   3.967   7.021   7.316
    1AU     LIG  323   3.720   7.458   7.347
    1AU       S  324   5.291   6.148   6.555
    1AU     LIG  325   5.551   6.358   6.851
    1AU     LIG  326   5.535   6.816   6.959
    1AU     LIG  327   5.533   7.276   7.070
    1AU     LIG  328   5.654   7.640   7.333
    1AU    AUSL  329   5.111   5.874   6.129
    1AU    AUSL  330   5.338   5.910   5.914
    1AU     AUL  331   5.026   5.974   5.868
    1AU       S  332   5.180   6.305   6.279
    1AU     LIG  333   5.199   6.678   6.574
    1AU     LIG  334   5.244   7.159   6.660
    1AU     LIG  335   5.173   7.637   6.784
    1AU     LIG  336   4.944   8.087   6.858
    1AU       S  337   5.441   6.315   5.771
    1AU     LIG  338   5.618   6.726   5.529
    1AU     LIG  339   5.762   7.188   5.350
    1AU     LIG  340   5.996   7.647   5.307
    1AU     LIG  341   6.172   8.117   5.279
    1AU    AUSL  342   5.340   5.719   6.110
    1AU    AUSL  343   5.375   5.537   6.315
    1AU     AUL  344   5.527   5.639   6.497
    1AU       S  345   5.853   5.995   6.552
    1AU     LIG  346   6.058   6.104   6.974
    1AU     LIG  347   6.280   6.258   7.367
    1AU     LIG  348   6.549   6.495   7.689
    1AU     LIG  349   6.710   6.728   8.074
    1AU       S  350   5.479   6.247   6.312
    1AU     LIG  351   5.697   6.659   6.461
    1AU     LIG  352   5.769   7.122   6.615
    1AU     LIG  353   5.833   7.573   6.771
    1AU     LIG  354   5.881   8.027   6.684
    1AU    AUSL  355   5.269   4.903   6.281
    1AU    AUSL  356   5.489   4.871   6.121
    1AU     AUL  357   5.217   4.950   6.526
    1AU       S  358   5.264   4.324   6.460
    1AU     LIG  359   5.110   3.992   6.719
    1AU     LIG  360   4.884   3.599   6.804
    1AU     LIG  361   4.890   3.140   6.872
    1AU     LIG  362   4.733   2.750   7.097
    1AU       S  363   5.760   4.445   6.331
    1AU     LIG  364   5.995   4.118   6.615
    1AU     LIG  365   6.241   3.777   6.882
    1AU     LIG  366   6.567   3.517   7.147
    1AU     LIG  367   6.883   3.133   7.166
    1AU    AUSL  368   5.106   4.888   6.062
    1AU    AUSL  369   5.052   5.066   6.305
    1AU     AUL  370   5.279   4.795   6.302
    1AU       S  371   5.017   4.259   6.225
    1AU     LIG  372   4.851   3.780   6.306
    1AU     LIG  373   4.680   3.298   6.411
    1AU     LIG  374   4.596   2.832   6.583
    1AU     LIG  375   4.558   2.381   6.762
    1AU       S  376   4.633   4.680   6.674
    1AU     LIG  377   4.362   4.471   6.969
    1AU     LIG  378   4.173   4.067   7.120
    1AU     LIG  379   3.973   3.720   7.371
    1AU     LIG  380   4.039   3.489   7.787
    1AU    AUSL  381   5.305   4.677   6.053
    1AU    AUSL  382   5.127   4.712   5.837
    1AU     AUL  383   5.052   4.740   6.131
    1AU       S  384   5.067   4.295   5.692
    1AU     LIG  385   4.864   3.817   5.619
    1AU     LIG  386   4.749   3.304   5.585
    1AU     LIG  387   4.804   2.816   5.527
    1AU     LIG  388   4.697   2.469   5.235
    1AU       S  389   5.320   4.254   6.163
    1AU     LIG  390   5.366   3.818   6.310
    1AU     LIG  391   5.199   3.395   6.452
    1AU     LIG  392   5.299   2.952   6.601
    1AU     LIG  393   5.625   2.645   6.766
    1AU    AUSL  394   5.264   5.797   5.668
    1AU    AUSL  395   5.435   5.656   5.846
    1AU     AUL  396   5.639   5.695   5.760
    1AU       S  397   5.290   6.172   5.432
    1AU     LIG  398   5.558   6.394   5.137
    1AU     LIG  399   5.586   6.834   5.000
    1AU     LIG  400   5.498   7.242   4.771
    1AU     LIG  401   5.539   7.512   4.362
    1AU       S  402   5.769   6.073   5.478
    1AU     LIG  403   6.088   6.322   5.214
    1AU     LIG  404   6.461   6.500   4.943
    1AU     LIG  405   6.778   6.794   4.714
    1AU     LIG  406   7.128   7.131   4.667
    1AU    AUSL  407   5.142   5.711   5.902
    1AU    AUSL  408   5.132   5.540   5.677
    1AU     AUL  409   5.188   5.630   5.533
    1AU       S  410   5.226   6.331   5.605
    1AU     LIG  411   5.158   6.682   5.307
    1AU     LIG  412   5.246   7.145   5.248
    1AU     LIG  413   5.100   7.604   5.253
    1AU     LIG  414   4.823   7.963   5.111
    1AU       S  415   4.915   5.903   5.200
    1AU     LIG  416   4.718   6.185   4.882
    1AU     LIG  417   4.487   6.370   4.510
    1AU     LIG  418   4.198   6.674   4.286
    1AU     LIG  419   4.159   7.066   3.997
    1AU    AUSL  420   5.345   4.948   5.597
    1AU    AUSL  421   4.888   4.859   5.903
    1AU     AUL  422   4.995   4.962   5.579
    1AU       S  423   4.595   4.561   5.744
    1AU     LIG  424   4.178   4.386   5.574
    1AU     LIG  425   3.958   4.031   5.320
    1AU     LIG  426   3.745   3.695   5.032
    1AU     LIG  427   3.469   3.324   4.851
    1AU       S  428   5.292   4.353   5.410
    1AU     LIG  429   5.254   3.906   5.287
    1AU     LIG  430   5.002   3.510   5.182
    1AU     LIG  431   4.825   3.079   5.076
    1AU     LIG  432   4.783   2.749   4.740
    1AU    AUSL  433   5.340   4.892   5.879
    1AU    AUSL  434   5.586   4.912   5.725
    1AU     AUL  435   5.240   4.795   5.586
    1AU       S  436   5.365   4.284   5.659
    1AU     LIG  437   5.343   3.857   5.796
    1AU     LIG  438   5.249   3.435   5.626
    1AU     LIG  439   5.246   3.024   5.381
    1AU     LIG  440   5.253   2.532   5.381
    1AU       S  441   5.737   4.607   5.402
    1AU     LIG  442   5.698   4.252   5.129
    1AU     LIG  443   5.919   4.072   4.781
    1AU     LIG  444   6.191   3.776   4.548
    1AU     LIG  445   6.440   3.647   4.162
    2POPC   NC3  446  10.101   5.932   8.081
    2POPC   PO4  447   0.003   5.374   7.935
    2POPC   GL1  448  10.294   5.424   7.635
    2POPC   GL2  449  10.003   5.559   7.734
    2POPC   C1A  450  10.167   5.335   7.251
    2POPC   D2A  451  10.370   5.377   6.886
    2POPC   C3A  452  10.146   5.430   6.475
    2POPC   C4A  453  10.127   5.412   5.994
    2POPC   C1B  454  10.233   5.862   7.423
    2POPC   C2B  455  10.290   5.890   7.001
    2POPC   C3B  456  10.120   5.979   6.628
    2POPC   C4B  457  10.256   5.855   6.236
    3POPC   NC3  458   0.476   9.281   8.315
    3POPC   PO4  459   0.686   9.623   7.807
    3POPC   GL1  460   0.491   9.473   7.454
    3POPC   GL2  461   0.315   9.191   7.521
    3POPC   C1A  462   0.216   9.568   7.163
    3POPC   D2A  463   0.325   9.747   6.805
    3POPC   C3A  464   0.066   9.672   6.495
    3POPC   C4A  465   0.269   9.721   6.135
    3POPC   C1B  466   0.273   9.000   7.113
    3POPC   C2B  467   0.574   9.081   6.754
    3POPC   C3B  468   0.454   9.343   6.414
    3POPC   C4B  469   0.504   9.315   5.924
    4POPC   NC3  470   9.451   7.335   8.215
    4POPC   PO4  471   8.959   6.941   8.015
    4POPC   GL1  472   9.111   7.245   7.768
    4POPC   GL2  473   9.460   7.150   7.740
    4POPC   C1A  474   9.139   7.101   7.347
    4POPC   D2A  475   9.177   6.926   6.954
    4POPC   C3A  476   9.186   7.163   6.577
    4POPC   C4A  477   9.202   7.108   6.152
    4POPC   C1B  478   9.695   7.166   7.364
    4POPC   C2B  479   9.786   6.979   6.974
    4POPC   C3B  480   9.859   7.217   6.614
    4POPC   C4B  481   9.623   7.404   6.285
    5POPC   NC3  482   5.905   8.558   8.062
    5POPC   PO4  483   5.711   9.230   8.152
    5POPC   GL1  484   5.888   8.988   7.809
    5POPC   GL2  485   5.599   8.946   7.536
    5POPC   C1A  486   6.077   8.969   7.419
    5POPC   D2A  487   5.828   9.189   7.067
    5POPC   C3A  488   5.806   9.038   6.637
    5POPC   C4A  489   5.651   8.795   6.296
    5POPC   C1B  490   5.735   8.679   7.184
    5POPC   C2B  491   5.639   8.544   6.766
    5POPC   C3B  492   5.538   8.299   6.403
    5POPC   C4B  493   5.697   8.249   5.982
    6POPC   NC3  494   6.415   1.972   8.097
    6POPC   PO4  495   6.030   2.467   7.955
    6POPC   GL1  496   6.343   2.157   7.624
    6POPC   GL2  497   6.442   1.798   7.615
    6POPC   C1A  498   6.522   2.020   7.167
    6POPC   D2A  499   6.343   2.204   6.768
    6POPC   C3A  500   6.557   2.201   6.342
    6POPC   C4A  501   6.377   2.171   5.917
    6POPC   C1B  502   6.693   1.508   7.342
    6POPC   C2B  503   6.758   1.609   6.919
    6POPC   C3B  504   6.514   1.753   6.608
    6POPC   C4B  505   6.319   1.742   6.221
    7POPC   NC3  506   8.648   5.842   7.907
    7POPC   PO4  507   8.863   5.223   8.143
    7POPC   GL1  508   8.697   5.333   7.699
    7POPC   GL2  509   8.477   5.588   7.521
    7POPC   C1A  510   8.915   5.480   7.325
    7POPC   D2A  511   8.971   5.638   6.872
    7POPC   C3A  512   8.910   5.504   6.439
    7POPC   C4A  513   8.924   5.656   6.041
    7POPC   C1B  514   8.492   5.628   7.087
    7POPC   C2B  515   8.498   5.397   6.705
    7POPC   C3B  516   8.399   5.556   6.293
    7POPC   C4B  517   8.038   5.699   6.054
    8POPC   NC3  518   3.723   9.688   8.054
    8POPC   PO4  519   3.056   9.726   8.195
    8POPC   GL1  520   3.266   9.723   7.784
    8POPC   GL2  521   3.369   9.373   7.780
    8POPC   C1A  522   3.359   9.784   7.332
    8POPC   D2A  523   3.175   9.698   6.904
    8POPC   C3A  524   3.470   9.564   6.584
    8POPC   C4A  525   3.467   9.415   6.144
    8POPC   C1B  526   3.436   9.190   7.384
    8POPC   C2B  527   3.446   9.217   6.962
    8POPC   C3B  528   3.551   9.040   6.549
    8POPC   C4B  529   3.749   8.943   6.165
    9POPC   NC3  530   2.603   7.859   8.400
    9POPC   PO4  531   3.047   8.215   8.090
    9POPC   GL1  532   2.686   7.974   7.874
    9POPC   GL2  533   2.448   8.171   7.699
    9POPC   C1A  534   2.606   7.763   7.431
    9POPC   D2A  535   2.855   7.653   7.044
    9POPC   C3A  536   2.679   7.722   6.631
    9POPC   C4A  537   2.505   7.515   6.268
    9POPC   C1B  538   2.874   8.206   7.443
    9POPC   C2B  539   3.016   8.146   7.023
    9POPC   C3B  540   3.015   8.099   6.559
    9POPC   C4B  541   2.802   7.958   6.175
   10POPC   NC3  542   8.525   6.961   8.166
   10POPC   PO4  543   8.433   7.502   8.455
   10POPC   GL1  544   8.635   7.415   7.933
   10POPC   GL2  545   8.595   7.079   7.686
   10POPC   C1A  546   8.729   7.457   7.393
   10POPC   D2A  547   8.537   7.642   6.973
   10POPC   C3A  548   8.421   7.467   6.524
   10POPC   C4A  549   8.422   7.509   6.054
   10POPC   C1B  550   8.658   6.956   7.239
   10POPC   C2B  551   8.719   7.114   6.804
   10POPC   C3B  552   8.720   7.018   6.345
   10POPC   C4B  553   8.771   7.166   5.893
   11POPC   NC3  554   6.124   9.084   8.271
   11POPC   PO4  555   6.305   8.395   8.190
   11POPC   GL1  556   6.324   8.586   7.750
   11POPC   GL2  557   6.659   8.710   7.711
   11POPC   C1A  558   6.351   8.583   7.268
   11POPC   D2A  559   6.666   8.425   6.971
   11POPC   C3A  560   6.547   8.508   6.533
   11POPC   C4A  561   6.436   8.535   6.086
   11POPC   C1B  562   6.719   8.908   7.328
   11POPC   C2B  563   6.593   8.935   6.899
   11POPC   C3B  564   6.632   8.997   6.471
   11POPC   C4B  565   6.198   8.960   6.256
   12POPC   NC3  566   5.056   1.155   8.103
   12POPC   PO4  567   5.280   1.812   8.050
   12POPC   GL1  568   4.944   1.578   7.761
   12POPC   GL2  569   4.894   1.267   7.657
   12POPC   C1A  570   4.728   1.524   7.284
   12POPC   D2A  571   5.011   1.415   6.917
   12POPC   C3A  572   4.871   1.603   6.555
   12POPC   C4A  573   4.897   1.457   6.149
   12POPC   C1B  574   4.931   1.046   7.293
   12POPC   C2B  575   4.710   1.024   6.912
   12POPC   C3B  576   4.930   1.094   6.518
   12POPC   C4B  577   4.721   0.952   6.170
   13POPC   NC3  578   0.220   9.534   7.876
   13POPC   PO4  579  10.004   9.437   8.057
   13POPC   GL1  580  10.219   9.578   7.719
   13POPC   GL2  581  10.319   9.229   7.654
   13POPC   C1A  582  10.151   9.836   7.345
   13POPC   D2A  583  10.291   9.774   6.918
   13POPC   C3A  584  10.086   9.891   6.524
   13POPC   C4A  585  10.203   9.660   6.128
   13POPC   C1B  586  10.273   9.325   7.242
   13POPC   C2B  587  10.423   9.268   6.829
   13POPC   C3B  588  10.115   9.368   6.552
   13POPC   C4B  589  10.003   9.201   6.185
   14POPC   NC3  590   1.434   5.588   7.892
   14POPC   PO4  591   0.947   5.528   8.228
   14POPC   GL1  592   0.994   5.615   7.700
   14POPC   GL2  593   1.269   5.384   7.475
   14POPC   C1A  594   1.121   5.849   7.317
   14POPC   D2A  595   1.245   5.667   6.890
   14POPC   C3A  596   1.110   5.893   6.499
   14POPC   C4A  597   1.154   5.686   6.102
   14POPC   C1B  598   0.879   5.396   7.242
   14POPC   C2B  599   0.798   5.372   6.810
   14POPC   C3B  600   0.858   5.374   6.360
   14POPC   C4B  601   0.859   5.297   5.882
   15POPC   NC3  602   8.559   3.363   7.986
   15POPC   PO4  603   8.681   3.998   7.758
   15POPC   GL1  604   8.694   3.656   7.449
   15POPC   GL2  605   8.669   3.267   7.485
   15POPC   C1A  606   8.823   3.518   7.032
   15POPC   D2A  607   8.598   3.422   6.648
   15POPC   C3A  608   8.847   3.323   6.316
   15POPC   C4A  609   8.803   3.547   5.956
   15POPC   C1B  610   8.351   3.384   7.150
   15POPC   C2B  611   8.191   3.669   6.839
   15POPC   C3B  612   8.087   3.521   6.432
   15POPC   C4B  613   8.353   3.375   6.116
   16POPC   NC3  614   0.500   2.753   8.058
   16POPC   PO4  615   0.301   2.097   8.167
   16POPC   GL1  616   0.353   2.383   7.741
   16POPC   GL2  617   0.110   2.665   7.709
   16POPC   C1A  618   0.139   2.381   7.308
   16POPC   D2A  619   0.169   2.628   6.922
   16POPC   C3A  620   0.457   2.526   6.576
   16POPC   C4A  621   0.121   2.450   6.267
   16POPC   C1B  622   0.395   2.819   7.355
   16POPC   C2B  623   0.465   3.049   6.967
   16POPC   C3B  624   0.323   3.025   6.537
   16POPC   C4B  625   0.467   2.854   6.156
   17POPC   NC3  626   8.871   7.745   8.369
   17POPC   PO4  627   8.552   8.113   7.934
   17POPC   GL1  628   8.635   7.965   7.569
   17POPC   GL2  629   8.935   7.779   7.704
   17POPC   C1A  630   8.605   8.242   7.212
   17POPC   D2A  631   8.327   8.243   6.882
   17POPC   C3A  632   8.486   8.012   6.594
   17POPC   C4A  633   8.604   8.164   6.197
   17POPC   C1B  634   9.033   7.915   7.263
   17POPC   C2B  635   8.952   8.098   6.846
   17POPC   C3B  636   8.954   7.907   6.445
   17POPC   C4B  637   8.898   7.497   6.282
   18POPC   NC3  638   2.824  10.089   8.392
   18POPC   PO4  639   3.322  10.239   7.926
   18POPC   GL1  640   3.584  10.184   7.632
   18POPC   GL2  641   3.910  10.101   7.765
   18POPC   C1A  642   3.565  10.261   7.211
   18POPC   D2A  643   3.424  10.156   6.782
   18POPC   C3A  644   3.598  10.396   6.408
   18POPC   C4A  645   3.410  10.334   5.978
   18POPC   C1B  646   3.874   9.847   7.392
   18POPC   C2B  647   3.769   9.819   6.987
   18POPC   C3B  648   3.822   9.921   6.580
   18POPC   C4B  649   3.542   9.922   6.240
   19POPC   NC3  650   9.628   8.115   8.094
   19POPC   PO4  651   9.325   7.700   8.463
   19POPC   GL1  652   9.405   7.696   7.893
   19POPC   GL2  653   9.413   7.987   7.666
   19POPC   C1A  654   9.349   7.555   7.427
   19POPC   D2A  655   9.127   7.483   6.999
   19POPC   C3A  656   9.341   7.642   6.617
   19POPC   C4A  657   9.324   7.765   6.132
   19POPC   C1B  658   9.570   8.163   7.317
   19POPC   C2B  659   9.455   8.032   6.928
   19POPC   C3B  660   9.440   8.125   6.493
   19POPC   C4B  661   9.697   8.109   6.133
   20POPC   NC3  662   8.396   9.176   8.157
   20POPC   PO4  663   9.009   8.977   8.067
   20POPC   GL1  664   8.729   9.066   7.677
   20POPC   GL2  665   8.495   9.370   7.677
   20POPC   C1A  666   8.619   9.155   7.208
   20POPC   D2A  667   8.743   9.076   6.781
   20POPC   C3A  668   8.547   9.148   6.390
   20POPC   C4A  669   8.853   9.300   6.141
   20POPC   C1B  670   8.881   9.523   7.436
   20POPC   C2B  671   8.922   9.572   6.990
   20POPC   C3B  672   8.633   9.584   6.646
   20POPC   C4B  673   8.497   9.663   6.236
   21POPC   NC3  674   9.391   4.603   8.490
   21POPC   PO4  675   9.408   4.449   7.879
   21POPC   GL1  676   9.482   4.722   7.624
   21POPC   GL2  677   9.512   5.011   7.801
   21POPC   C1A  678   9.468   4.713   7.204
   21POPC   D2A  679   9.334   4.888   6.855
   21POPC   C3A  680   9.319   4.642   6.507
   21POPC   C4A  681   9.013   4.644   6.216
   21POPC   C1B  682   9.633   5.175   7.397
   21POPC   C2B  683   9.365   5.356   7.097
   21POPC   C3B  684   9.339   5.367   6.672
   21POPC   C4B  685   9.457   5.113   6.373
   22POPC   NC3  686   0.825   0.891   8.118
   22POPC   PO4  687   1.399   0.783   8.021
   22POPC   GL1  688   1.159   0.902   7.686
   22POPC   GL2  689   1.023   1.219   7.771
   22POPC   C1A  690   1.192   1.090   7.282
   22POPC   D2A  691   1.398   1.092   6.905
   22POPC   C3A  692   1.203   0.902   6.582
   22POPC   C4A  693   1.163   1.090   6.204
   22POPC   C1B  694   1.232   1.538   7.531
   22POPC   C2B  695   1.240   1.573   7.086
   22POPC   C3B  696   1.098   1.454   6.668
   22POPC   C4B  697   1.398   1.519   6.359
   23POPC   NC3  698   6.882   8.746   8.165
   23POPC   PO4  699   7.303   9.238   8.201
   23POPC   GL1  700   7.062   9.077   7.820
   23POPC   GL2  701   7.199   8.721   7.752
   23POPC   C1A  702   7.204   9.037   7.370
   23POPC   D2A  703   7.120   8.805   6.981
   23POPC   C3A  704   7.260   8.907   6.549
   23POPC   C4A  705   7.055   8.818   6.156
   23POPC   C1B  706   7.032   8.477   7.391
   23POPC   C2B  707   7.157   8.264   7.008
   23POPC   C3B  708   7.058   8.447   6.607
   23POPC   C4B  709   6.913   8.343   6.212
   24POPC   NC3  710   0.046   6.446   8.233
   24POPC   PO4  711   9.928   6.391   8.098
   24POPC   GL1  712   9.847   6.455   7.672
   24POPC   GL2  713  10.170   6.300   7.652
   24POPC   C1A  714   9.808   6.300   7.219
   24POPC   D2A  715   9.972   6.501   6.812
   24POPC   C3A  716   9.751   6.339   6.474
   24POPC   C4A  717   9.809   6.046   6.185
   24POPC   C1B  718  10.294   6.394   7.242
   24POPC   C2B  719  10.454   6.380   6.817
   24POPC   C3B  720  10.307   6.380   6.378
   24POPC   C4B  721  10.426   6.589   6.001
   25POPC   NC3  722   5.380   0.373   8.214
   25POPC   PO4  723   4.674   0.175   8.182
   25POPC   GL1  724   4.843   0.397   7.782
   25POPC   GL2  725   4.931   0.760   7.750
   25POPC   C1A  726   4.922   0.263   7.304
   25POPC   D2A  727   5.088   0.335   6.868
   25POPC   C3A  728   4.946   0.177   6.450
   25POPC   C4A  729   5.196   0.213   6.062
   25POPC   C1B  730   4.626   0.669   7.425
   25POPC   C2B  731   4.560   0.547   7.000
   25POPC   C3B  732   4.746   0.625   6.597
   25POPC   C4B  733   5.127   0.650   6.340
   26POPC   NC3  734   5.942   1.242   8.009
   26POPC   PO4  735   5.422   0.822   8.038
   26POPC   GL1  736   5.358   1.039   7.617
   26POPC   GL2  737   5.447   1.396   7.675
   26POPC   C1A  738   5.412   1.133   7.134
   26POPC   D2A  739   5.813   1.222   6.857
   26POPC   C3A  740   5.758   1.121   6.427
   26POPC   C4A  741   5.369   1.083   6.148
   26POPC   C1B  742   5.699   1.506   7.270
   26POPC   C2B  743   5.494   1.612   6.852
   26POPC   C3B  744   5.405   1.543   6.405
   26POPC   C4B  745   5.724   1.479   6.071
   27POPC   NC3  746   9.397   5.168   8.273
   27POPC   PO4  747   9.670   5.806   8.236
   27POPC   GL1  748   9.516   5.787   7.811
   27POPC   GL2  749   9.727   5.978   7.621
   27POPC   C1A  750   9.302   5.783   7.392
   27POPC   D2A  751   9.448   5.867   6.941
   27POPC   C3A  752   9.257   5.880   6.511
   27POPC   C4A  753   9.337   5.966   6.089
   27POPC   C1B  754   9.782   5.667   7.288
   27POPC   C2B  755   9.829   5.471   6.897
   27POPC   C3B  756   9.720   5.679   6.544
   27POPC   C4B  757   9.652   5.543   6.178
   28POPC   NC3  758   5.308   9.123   7.917
   28POPC   PO4  759   5.686   9.707   7.969
   28POPC   GL1  760   5.551   9.479   7.671
   28POPC   GL2  761   5.839   9.403   7.547
   28POPC   C1A  762   5.371   9.326   7.285
   28POPC   D2A  763   5.223   9.461   6.893
   28POPC   C3A  764   5.379   9.292   6.507
   28POPC   C4A  765   5.413   9.536   6.142
   28POPC   C1B  766   5.795   9.712   7.288
   28POPC   C2B  767   5.611   9.823   6.919
   28POPC   C3B  768   5.734   9.640   6.539
   28POPC   C4B  769   5.938   9.427   6.214
   29POPC   NC3  770   9.547   2.607   8.243
   29POPC   PO4  771   9.718   3.215   8.160
   29POPC   GL1  772   9.612   2.904   7.807
   29POPC   GL2  773   9.258   2.763   7.750
   29POPC   C1A  774   9.606   2.704   7.382
   29POPC   D2A  775   9.277   2.776   7.059
   29POPC   C3A  776   9.422   2.878   6.661
   29POPC   C4A  777   9.646   2.628   6.350
   29POPC   C1B  778   9.184   2.408   7.433
   29POPC   C2B  779   9.106   2.295   7.007
   29POPC   C3B  780   9.248   2.391   6.600
   29POPC   C4B  781   9.226   2.385   6.161
   30POPC   NC3  782   2.678   3.407   8.476
   30POPC   PO4  783   2.302   3.144   8.093
   30POPC   GL1  784   2.331   3.412   7.740
   30POPC   GL2  785   2.315   3.147   7.521
   30POPC   C1A  786   2.565   3.562   7.355
   30POPC   D2A  787   2.724   3.375   6.966
   30POPC   C3A  788   2.566   3.507   6.537
   30POPC   C4A  789   2.449   3.445   6.096
   30POPC   C1B  790   2.794   3.102   7.450
   30POPC   C2B  791   2.979   2.923   7.058
   30POPC   C3B  792   2.957   3.068   6.624
   30POPC   C4B  793   3.151   3.263   6.252
   31POPC   NC3  794   4.671  10.179   8.339
   31POPC   PO4  795   4.174   9.820   8.117
   31POPC   GL1  796   4.449   9.939   7.801
   31POPC   GL2  797   4.404  10.259   7.677
   31POPC   C1A  798   4.414   9.846   7.352
   31POPC   D2A  799   4.308  10.027   6.936
   31POPC   C3A  800   4.318   9.811   6.559
   31POPC   C4A  801   4.406   9.950   6.170
   31POPC   C1B  802   4.100  10.288   7.317
   31POPC   C2B  803   3.907  10.344   6.868
   31POPC   C3B  804   4.139  10.300   6.493
   31POPC   C4B  805   4.149   0.043   6.155
   32POPC   NC3  806   2.842   5.305   8.603
   32POPC   PO4  807   2.412   5.202   8.156
   32POPC   GL1  808   2.407   5.368   7.681
   32POPC   GL2  809   2.422   5.735   7.640
   32POPC   C1A  810   2.581   5.452   7.227
   32POPC   D2A  811   2.693   5.615   6.797
   32POPC   C3A  812   2.879   5.390   6.410
   32POPC   C4A  813   3.116   5.476   5.996
   32POPC   C1B  814   2.427   5.950   7.197
   32POPC   C2B  815   2.295   5.943   6.744
   32POPC   C3B  816   2.438   5.710   6.367
   32POPC   C4B  817   2.403   5.871   5.928
   33POPC   NC3  818   5.654  10.151   8.128
   33POPC   PO4  819   6.276  10.078   7.957
   33POPC   GL1  820   5.939  10.074   7.639
   33POPC   GL2  821   5.578  10.131   7.645
   33POPC   C1A  822   5.799  10.205   7.216
   33POPC   D2A  823   5.944  10.369   6.871
   33POPC   C3A  824   5.804  10.139   6.532
   33POPC   C4A  825   5.973  10.151   6.130
   33POPC   C1B  826   5.300  10.328   7.326
   33POPC   C2B  827   5.405  10.317   6.884
   33POPC   C3B  828   5.361  10.392   6.453
   33POPC   C4B  829   5.474  10.225   6.060
   34POPC   NC3  830   6.162   9.641   7.864
   34POPC   PO4  831   6.562   9.139   8.152
   34POPC   GL1  832   6.431   9.212   7.705
   34POPC   GL2  833   6.718   9.362   7.545
   34POPC   C1A  834   6.264   9.400   7.275
   34POPC   D2A  835   6.106   9.597   6.910
   34POPC   C3A  836   6.233   9.318   6.608
   34POPC   C4A  837   6.480   9.406   6.225
   34POPC   C1B  838   6.656   9.674   7.204
   34POPC   C2B  839   6.605   9.586   6.791
   34POPC   C3B  840   6.760   9.758   6.461
   34POPC   C4B  841   6.945   9.824   6.098
   35POPC   NC3  842   0.610   1.846   7.911
   35POPC   PO4  843  10.414   1.736   8.000
   35POPC   GL1  844   0.176   1.652   7.747
   35POPC   GL2  845   0.195   1.934   7.610
   35POPC   C1A  846   0.224   1.529   7.326
   35POPC   D2A  847   0.451   1.632   6.957
   35POPC   C3A  848   0.450   1.497   6.577
   35POPC   C4A  849   0.408   1.694   6.210
   35POPC   C1B  850   0.475   2.006   7.308
   35POPC   C2B  851   0.400   2.148   6.928
   35POPC   C3B  852   0.272   2.039   6.554
   35POPC   C4B  853   0.562   2.166   6.201
   36POPC   NC3  854   3.446   0.923   8.239
   36POPC   PO4  855   3.119   1.365   7.954
   36POPC   GL1  856   3.376   1.143   7.686
   36POPC   GL2  857   3.525   0.815   7.661
   36POPC   C1A  858   3.276   1.103   7.273
   36POPC   D2A  859   3.031   1.067   6.940
   36POPC   C3A  860   3.300   1.180   6.600
   36POPC   C4A  861   3.178   1.341   6.208
   36POPC   C1B  862   3.773   1.026   7.312
   36POPC   C2B  863   3.791   1.247   6.943
   36POPC   C3B  864   3.838   1.072   6.572
   36POPC   C4B  865   3.682   1.217   6.220
   37POPC   NC3  866   9.802   4.279   8.062
   37POPC   PO4  867   0.015   4.378   8.025
   37POPC   GL1  868  10.341   4.447   7.686
   37POPC   GL2  869  10.082   4.198   7.639
   37POPC   C1A  870  10.415   4.434   7.290
   37POPC   D2A  871  10.142   4.446   6.980
   37POPC   C3A  872  10.370   4.478   6.643
   37POPC   C4A  873  10.259   4.621   6.244
   37POPC   C1B  874  10.273   3.946   7.313
   37POPC   C2B  875  10.158   3.935   6.917
   37POPC   C3B  876   9.988   4.170   6.585
   37POPC   C4B  877  10.145   4.131   6.179
   38POPC   NC3  878   7.578   0.114   7.872
   38POPC   PO4  879   7.680   0.773   7.997
   38POPC   GL1  880   7.852   0.517   7.685
   38POPC   GL2  881   7.957   0.160   7.563
   38POPC   C1A  882   7.822   0.588   7.275
   38POPC   D2A  883   7.917   0.870   7.004
   38POPC   C3A  884   7.840   0.738   6.624
   38POPC   C4A  885   8.009   0.766   6.271
   38POPC   C1B  886   7.977   0.115   7.159
   38POPC   C2B  887   7.707   0.264   6.844
   38POPC   C3B  888   7.926   0.214   6.487
   38POPC   C4B  889   7.903   0.296   6.070
   39POPC   NC3  890   8.141   1.839   8.103
   39POPC   PO4  891   7.537   1.631   8.217
   39POPC   GL1  892   7.725   1.704   7.818
   39POPC   GL2  893   7.747   2.070   7.775
   39POPC   C1A  894   7.758   1.591   7.383
   39POPC   D2A  895   7.876   1.733   6.972
   39POPC   C3A  896   7.578   1.712   6.608
   39POPC   C4A  897   7.446   1.767   6.174
   39POPC   C1B  898   7.991   2.050   7.388
   39POPC   C2B  899   8.213   2.109   6.973
   39POPC   C3B  900   7.983   2.020   6.565
   39POPC   C4B  901   7.865   2.103   6.168
   40POPC   NC3  902  10.356   7.911   7.990
   40POPC   PO4  903   9.856   7.383   7.997
   40POPC   GL1  904   9.837   7.610   7.611
   40POPC   GL2  905   9.931   7.961   7.648
   40POPC   C1A  906   9.786   7.671   7.160
   40POPC   D2A  907   9.961   7.949   6.846
   40POPC   C3A  908  10.043   7.826   6.411
   40POPC   C4A  909  10.416   7.786   6.112
   40POPC   C1B  910  10.254   7.822   7.336
   40POPC   C2B  911  10.462   7.981   6.967
   40POPC   C3B  912  10.393   8.195   6.564
   40POPC   C4B  913  10.205   8.259   6.146
   41POPC   NC3  914   2.197   4.769   8.058
   41POPC   PO4  915   1.700   5.259   8.041
   41POPC   GL1  916   1.907   5.252   7.637
   41POPC   GL2  917   1.851   4.925   7.555
   41POPC   C1A  918   2.217   5.100   7.266
   41POPC   D2A  919   2.197   4.974   6.804
   41POPC   C3A  920   2.401   5.166   6.420
   41POPC   C4A  921   2.311   4.948   6.009
   41POPC   C1B  922   1.743   5.220   7.149
   41POPC   C2B  923   1.693   5.144   6.699
   41POPC   C3B  924   1.927   4.920   6.356
   41POPC   C4B  925   1.803   4.642   5.990
   42POPC   NC3  926   7.693   8.424   8.111
   42POPC   PO4  927   8.298   8.365   8.410
   42POPC   GL1  928   8.127   8.376   7.851
   42POPC   GL2  929   7.835   8.606   7.667
   42POPC   C1A  930   8.111   8.348   7.349
   42POPC   D2A  931   7.891   8.500   6.935
   42POPC   C3A  932   7.921   8.316   6.513
   42POPC   C4A  933   8.160   8.371   6.139
   42POPC   C1B  934   7.677   8.826   7.285
   42POPC   C2B  935   7.802   8.987   6.854
   42POPC   C3B  936   7.759   8.856   6.424
   42POPC   C4B  937   7.534   8.994   6.032
   43POPC   NC3  938   1.175   5.932   8.207
   43POPC   PO4  939   1.250   6.615   8.174
   43POPC   GL1  940   1.328   6.310   7.807
   43POPC   GL2  941   1.060   6.244   7.652
   43POPC   C1A  942   1.435   6.259   7.330
   43POPC   D2A  943   1.250   6.196   6.950
   43POPC   C3A  944   1.475   6.342   6.624
   43POPC   C4A  945   1.507   6.144   6.252
   43POPC   C1B  946   1.137   6.651   7.443
   43POPC   C2B  947   1.182   6.806   7.033
   43POPC   C3B  948   1.249   6.890   6.598
   43POPC   C4B  949   1.144   6.584   6.306
   44POPC   NC3  950   1.441   3.197   8.381
   44POPC   PO4  951   0.880   3.022   8.025
   44POPC   GL1  952   1.152   3.213   7.686
   44POPC   GL2  953   1.257   3.576   7.734
   44POPC   C1A  954   1.213   3.323   7.255
   44POPC   D2A  955   1.157   3.597   6.918
   44POPC   C3A  956   1.256   3.312   6.627
   44POPC   C4A  957   1.074   3.273   6.261
   44POPC   C1B  958   1.470   3.767   7.353
   44POPC   C2B  959   1.662   3.535   7.008
   44POPC   C3B  960   1.608   3.683   6.613
   44POPC   C4B  961   1.424   3.621   6.235
   45POPC   NC3  962   1.179   9.509   7.900
   45POPC   PO4  963   0.797   8.993   8.149
   45POPC   GL1  964   0.833   9.142   7.677
   45POPC   GL2  965   1.001   9.467   7.446
   45POPC   C1A  966   0.776   9.097   7.230
   45POPC   D2A  967   1.087   9.328   6.960
   45POPC   C3A  968   0.920   9.451   6.595
   45POPC   C4A  969   0.899   9.185   6.254
   45POPC   C1B  970   1.389   9.621   7.291
   45POPC   C2B  971   1.476   9.738   6.895
   45POPC   C3B  972   1.423   9.495   6.566
   45POPC   C4B  973   1.256   9.515   6.192
   46POPC   NC3  974   8.811   2.457   8.392
   46POPC   PO4  975   8.391   2.988   8.218
   46POPC   GL1  976   8.437   2.843   7.758
   46POPC   GL2  977   8.740   2.599   7.735
   46POPC   C1A  978   8.322   2.872   7.289
   46POPC   D2A  979   8.560   2.975   6.903
   46POPC   C3A  980   8.417   2.971   6.465
   46POPC   C4A  981   8.624   2.926   6.079
   46POPC   C1B  982   8.774   2.652   7.272
   46POPC   C2B  983   8.612   2.459   6.883
   46POPC   C3B  984   8.756   2.589   6.476
   46POPC   C4B  985   9.076   2.846   6.288
   47POPC   NC3  986   0.573   8.608   7.994
   47POPC   PO4  987   0.118   9.100   8.058
   47POPC   GL1  988   0.150   8.751   7.715
   47POPC   GL2  989   0.504   8.722   7.506
   47POPC   C1A  990   0.084   8.472   7.363
   47POPC   D2A  991   0.177   8.439   6.948
   47POPC   C3A  992   0.280   8.690   6.622
   47POPC   C4A  993   0.136   8.548   6.208
   47POPC   C1B  994   0.632   8.636   7.073
   47POPC   C2B  995   0.810   8.410   6.734
   47POPC   C3B  996   0.850   8.711   6.417
   47POPC   C4B  997   0.495   8.886   6.193
   48POPC   NC3  998   2.792   0.590   8.274
   48POPC   PO4  999   2.647  10.427   8.110
   48POPC   GL1 1000   2.598   0.279   7.771
   48POPC   GL2 1001   2.673   0.645   7.671
   48POPC   C1A 1002   2.564   0.259   7.318
   48POPC   D2A 1003   2.584   0.522   6.959
   48POPC   C3A 1004   2.714   0.338   6.571
   48POPC   C4A 1005   2.486   0.366   6.177
   48POPC   C1B 1006   2.956   0.683   7.294
   48POPC   C2B 1007   3.086   0.577   6.859
   48POPC   C3B 1008   3.023   0.761   6.523
   48POPC   C4B 1009   2.908   0.655   6.180
   49POPC   NC3 1010   9.848   0.353   8.335
   49POPC   PO4 1011   9.645   0.784   7.839
   49POPC   GL1 1012   9.575   0.458   7.593
   49POPC   GL2 1013   9.228   0.390   7.599
   49POPC   C1A 1014   9.517   0.311   7.178
   49POPC   D2A 1015   9.147   0.173   6.945
   49POPC   C3A 1016   9.337   0.228   6.538
   49POPC   C4A 1017   9.643   0.221   6.201
   49POPC   C1B 1018   9.287   0.746   7.271
   49POPC   C2B 1019   9.301   0.668   6.836
   49POPC   C3B 1020   9.321   0.723   6.390
   49POPC   C4B 1021   9.274   0.498   6.012
   50POPC   NC3 1022   3.893   1.058   7.922
   50POPC   PO4 1023   4.554   1.167   8.181
   50POPC   GL1 1024   4.451   1.034   7.778
   50POPC   GL2 1025   4.276   0.745   7.791
   50POPC   C1A 1026   4.407   1.119   7.336
   50POPC   D2A 1027   4.321   1.360   6.953
   50POPC   C3A 1028   4.452   1.296   6.531
   50POPC   C4A 1029   4.393   1.581   6.183
   50POPC   C1B 1030   4.124   0.668   7.368
   50POPC   C2B 1031   4.149   0.866   6.971
   50POPC   C3B 1032   4.235   0.727   6.578
   50POPC   C4B 1033   4.202   0.979   6.215
   51POPC   NC3 1034   3.198   2.683   8.021
   51POPC   PO4 1035   3.767   2.750   8.086
   51POPC   GL1 1036   3.607   2.733   7.643
   51POPC   GL2 1037   3.404   2.422   7.622
   51POPC   C1A 1038   3.600   2.938   7.194
   51POPC   D2A 1039   3.432   2.989   6.763
   51POPC   C3A 1040   3.636   3.042   6.354
   51POPC   C4A 1041   3.550   3.175   5.903
   51POPC   C1B 1042   3.275   2.514   7.197
   51POPC   C2B 1043   3.149   2.533   6.768
   51POPC   C3B 1044   3.341   2.628   6.375
   51POPC   C4B 1045   3.250   2.352   6.007
   52POPC   NC3 1046   2.526   1.177   7.941
   52POPC   PO4 1047   2.844   1.601   8.371
   52POPC   GL1 1048   2.733   1.603   7.769
   52POPC   GL2 1049   2.855   1.250   7.555
   52POPC   C1A 1050   2.652   1.575   7.241
   52POPC   D2A 1051   2.891   1.524   6.807
   52POPC   C3A 1052   2.759   1.207   6.475
   52POPC   C4A 1053   2.561   1.342   6.076
   52POPC   C1B 1054   2.588   1.022   7.265
   52POPC   C2B 1055   2.354   0.983   6.880
   52POPC   C3B 1056   2.465   0.782   6.510
   52POPC   C4B 1057   2.437   0.862   6.088
   53POPC   NC3 1058   3.462   7.949   8.083
   53POPC   PO4 1059   3.918   8.462   7.990
   53POPC   GL1 1060   3.676   8.336   7.613
   53POPC   GL2 1061   3.347   8.158   7.646
   53POPC   C1A 1062   3.547   8.219   7.180
   53POPC   D2A 1063   3.432   8.290   6.773
   53POPC   C3A 1064   3.494   8.005   6.424
   53POPC   C4A 1065   3.312   8.067   6.015
   53POPC   C1B 1066   3.271   7.822   7.353
   53POPC   C2B 1067   3.363   7.779   6.902
   53POPC   C3B 1068   3.168   7.606   6.520
   53POPC   C4B 1069   3.171   7.592   6.076
   54POPC   NC3 1070   3.627   8.822   7.895
   54POPC   PO4 1071   3.060   8.998   7.987
   54POPC   GL1 1072   3.038   8.918   7.577
   54POPC   GL2 1073   3.262   8.654   7.561
   54POPC   C1A 1074   2.946   8.693   7.175
   54POPC   D2A 1075   3.239   8.755   6.878
   54POPC   C3A 1076   3.184   8.660   6.490
   54POPC   C4A 1077   3.208   8.940   6.154
   54POPC   C1B 1078   3.611   8.724   7.231
   54POPC   C2B 1079   3.789   8.653   6.794
   54POPC   C3B 1080   3.664   8.486   6.364
   54POPC   C4B 1081   3.511   8.554   5.923
   55POPC   NC3 1082   1.404   4.162   8.123
   55POPC   PO4 1083   0.983   4.580   8.159
   55POPC   GL1 1084   0.935   4.374   7.749
   55POPC   GL2 1085   1.080   4.060   7.731
   55POPC   C1A 1086   1.175   4.425   7.344
   55POPC   D2A 1087   1.268   4.611   6.924
   55POPC   C3A 1088   1.027   4.512   6.565
   55POPC   C4A 1089   1.106   4.417   6.142
   55POPC   C1B 1090   1.001   3.944   7.297
   55POPC   C2B 1091   1.318   4.087   6.948
   55POPC   C3B 1092   1.252   4.044   6.498
   55POPC   C4B 1093   0.928   3.742   6.394
   56POPC   NC3 1094   9.152   8.523   8.113
   56POPC   PO4 1095   9.654   8.849   8.001
   56POPC   GL1 1096   9.477   8.577   7.684
   56POPC   GL2 1097   9.193   8.787   7.636
   56POPC   C1A 1098   9.496   8.690   7.229
   56POPC   D2A 1099   9.282   8.507   6.854
   56POPC   C3A 1100   9.475   8.626   6.531
   56POPC   C4A 1101   9.464   8.582   6.104
   56POPC   C1B 1102   9.156   9.085   7.294
   56POPC   C2B 1103   9.238   9.008   6.853
   56POPC   C3B 1104   9.081   8.923   6.416
   56POPC   C4B 1105   9.294   9.061   6.027
   57POPC   NC3 1106   1.092   7.845   8.148
   57POPC   PO4 1107   1.367   8.321   7.855
   57POPC   GL1 1108   1.269   7.956   7.663
   57POPC   GL2 1109   0.901   7.928   7.673
   57POPC   C1A 1110   1.405   7.999   7.251
   57POPC   D2A 1111   1.493   7.746   6.925
   57POPC   C3A 1112   1.347   7.893   6.559
   57POPC   C4A 1113   1.538   7.841   6.206
   57POPC   C1B 1114   0.848   7.754   7.276
   57POPC   C2B 1115   0.975   7.930   6.916
   57POPC   C3B 1116   0.816   7.916   6.516
   57POPC   C4B 1117   0.998   7.955   6.158
   58POPC   NC3 1118   2.095   7.319   7.973
   58POPC   PO4 1119   1.471   7.580   8.032
   58POPC   GL1 1120   1.612   7.287   7.686
   58POPC   GL2 1121   1.919   7.280   7.508
   58POPC   C1A 1122   1.527   7.084   7.286
   58POPC   D2A 1123   1.747   7.291   6.923
   58POPC   C3A 1124   1.621   7.223   6.474
   58POPC   C4A 1125   1.692   6.802   6.246
   58POPC   C1B 1126   2.330   7.321   7.342
   58POPC   C2B 1127   2.397   7.413   6.921
   58POPC   C3B 1128   2.112   7.450   6.595
   58POPC   C4B 1129   2.071   7.207   6.209
   59POPC   NC3 1130   6.912   9.473   8.178
   59POPC   PO4 1131   7.553   9.847   8.118
   59POPC   GL1 1132   7.259   9.613   7.820
   59POPC   GL2 1133   7.458   9.351   7.678
   59POPC   C1A 1134   7.133   9.572   7.351
   59POPC   D2A 1135   6.920   9.289   7.047
   59POPC   C3A 1136   7.012   9.340   6.622
   59POPC   C4A 1137   7.018   9.316   6.195
   59POPC   C1B 1138   7.618   9.339   7.293
   59POPC   C2B 1139   7.409   9.283   6.952
   59POPC   C3B 1140   7.535   9.336   6.581
   59POPC   C4B 1141   7.547   9.456   6.232
   60POPC   NC3 1142   0.561   7.557   7.861
   60POPC   PO4 1143   0.667   8.172   8.073
   60POPC   GL1 1144   0.457   8.221   7.673
   60POPC   GL2 1145   0.187   7.992   7.593
   60POPC   C1A 1146   0.560   8.184   7.258
   60POPC   D2A 1147   0.465   8.033   6.872
   60POPC   C3A 1148   0.394   8.214   6.501
   60POPC   C4A 1149   0.633   8.331   6.193
   60POPC   C1B 1150   0.318   7.710   7.250
   60POPC   C2B 1151   0.519   7.546   6.854
   60POPC   C3B 1152   0.294   7.717   6.475
   60POPC   C4B 1153   0.466   7.882   6.069
   61POPC   NC3 1154   2.635   1.936   8.155
   61POPC   PO4 1155   2.044   2.194   8.269
   61POPC   GL1 1156   2.310   2.199   7.784
   61POPC   GL2 1157   2.638   2.106   7.677
   61POPC   C1A 1158   2.389   2.035   7.264
   61POPC   D2A 1159   2.578   1.908   6.818
   61POPC   C3A 1160   2.475   2.165   6.410
   61POPC   C4A 1161   2.342   2.199   5.929
   61POPC   C1B 1162   2.967   1.954   7.407
   61POPC   C2B 1163   3.079   2.053   6.979
   61POPC   C3B 1164   3.002   2.043   6.546
   61POPC   C4B 1165   2.762   1.711   6.343
   62POPC   NC3 1166   4.190   2.577   8.083
   62POPC   PO4 1167   4.591   3.076   7.906
   62POPC   GL1 1168   4.373   2.771   7.569
   62POPC   GL2 1169   4.091   2.509   7.584
   62POPC   C1A 1170   4.206   2.716   7.111
   62POPC   D2A 1171   3.965   2.971   6.804
   62POPC   C3A 1172   4.163   3.045   6.412
   62POPC   C4A 1173   4.023   2.989   6.008
   62POPC   C1B 1174   3.774   2.460   7.238
   62POPC   C2B 1175   3.675   2.550   6.799
   62POPC   C3B 1176   3.899   2.584   6.398
   62POPC   C4B 1177   4.337   2.488   6.298
   63POPC   NC3 1178   2.821   8.614   7.995
   63POPC   PO4 1179   2.319   9.096   8.129
   63POPC   GL1 1180   2.547   8.982   7.756
   63POPC   GL2 1181   2.599   8.640   7.559
   63POPC   C1A 1182   2.619   9.084   7.348
   63POPC   D2A 1183   2.510   8.888   6.989
   63POPC   C3A 1184   2.734   8.887   6.616
   63POPC   C4A 1185   2.593   8.883   6.214
   63POPC   C1B 1186   2.478   8.404   7.205
   63POPC   C2B 1187   2.651   8.417   6.800
   63POPC   C3B 1188   2.683   8.420   6.376
   63POPC   C4B 1189   3.011   8.465   6.066
   64POPC   NC3 1190   5.811   0.520   7.946
   64POPC   PO4 1191   5.307  10.451   8.012
   64POPC   GL1 1192   5.549   0.148   7.696
   64POPC   GL2 1193   5.370   0.466   7.649
   64POPC   C1A 1194   5.661   0.189   7.236
   64POPC   D2A 1195   5.592   0.262   6.785
   64POPC   C3A 1196   5.814   0.135   6.427
   64POPC   C4A 1197   5.704   0.168   5.989
   64POPC   C1B 1198   5.620   0.690   7.311
   64POPC   C2B 1199   5.630   0.755   6.852
   64POPC   C3B 1200   5.629   0.627   6.426
   64POPC   C4B 1201   5.938   0.581   6.157
   65POPC   NC3 1202   8.954   4.354   7.899
   65POPC   PO4 1203   9.467   4.105   8.344
   65POPC   GL1 1204   9.319   3.965   7.851
   65POPC   GL2 1205   9.620   3.917   7.683
   65POPC   C1A 1206   9.283   4.168   7.347
   65POPC   D2A 1207   9.430   4.297   6.911
   65POPC   C3A 1208   9.095   4.205   6.619
   65POPC   C4A 1209   9.190   4.136   6.212
   65POPC   C1B 1210   9.745   3.960   7.241
   65POPC   C2B 1211   9.676   3.814   6.811
   65POPC   C3B 1212   9.621   3.900   6.377
   65POPC   C4B 1213   9.656   4.346   6.237
   66POPC   NC3 1214   1.444  10.213   8.264
   66POPC   PO4 1215   0.896   0.037   8.136
   66POPC   GL1 1216   1.168  10.401   7.765
   66POPC   GL2 1217   1.332  10.070   7.749
   66POPC   C1A 1218   1.345  10.483   7.358
   66POPC   D2A 1219   1.291  10.228   6.943
   66POPC   C3A 1220   1.428  10.395   6.603
   66POPC   C4A 1221   1.322  10.391   6.215
   66POPC   C1B 1222   1.084  10.023   7.368
   66POPC   C2B 1223   0.966   9.841   6.941
   66POPC   C3B 1224   1.078   9.955   6.490
   66POPC   C4B 1225   1.157   9.966   6.022
   67POPC   NC3 1226  10.301   1.311   8.155
   67POPC   PO4 1227   0.494   1.201   8.142
   67POPC   GL1 1228   0.243   1.155   7.747
   67POPC   GL2 1229   0.536   1.273   7.633
   67POPC   C1A 1230   0.242   1.023   7.297
   67POPC   D2A 1231   0.083   1.243   6.938
   67POPC   C3A 1232   0.183   1.067   6.572
   67POPC   C4A 1233   0.286   0.990   6.161
   67POPC   C1B 1234   0.769   1.432   7.308
   67POPC   C2B 1235   0.772   1.182   6.952
   67POPC   C3B 1236   0.710   1.049   6.541
   67POPC   C4B 1237   0.722   1.304   6.183
   68POPC   NC3 1238   8.714   6.577   7.863
   68POPC   PO4 1239   8.352   6.068   7.634
   68POPC   GL1 1240   8.772   6.195   7.521
   68POPC   GL2 1241   8.942   6.557   7.428
   68POPC   C1A 1242   8.854   5.989   7.192
   68POPC   D2A 1243   8.606   6.008   6.774
   68POPC   C3A 1244   8.776   6.034   6.372
   68POPC   C4A 1245   8.917   6.190   5.982
   68POPC   C1B 1246   8.683   6.457   7.091
   68POPC   C2B 1247   8.661   6.553   6.682
   68POPC   C3B 1248   8.580   6.519   6.276
   68POPC   C4B 1249   8.402   6.841   5.963
   69POPC   NC3 1250   7.722   9.420   8.083
   69POPC   PO4 1251   8.117   8.834   8.039
   69POPC   GL1 1252   7.992   9.108   7.684
   69POPC   GL2 1253   7.974   9.468   7.655
   69POPC   C1A 1254   8.096   9.135   7.246
   69POPC   D2A 1255   8.264   9.228   6.823
   69POPC   C3A 1256   8.040   9.297   6.430
   69POPC   C4A 1257   8.210   9.334   6.003
   69POPC   C1B 1258   8.045   9.646   7.289
   69POPC   C2B 1259   7.883   9.551   6.894
   69POPC   C3B 1260   7.804   9.810   6.554
   69POPC   C4B 1261   7.971   9.755   6.160
   70POPC   NC3 1262   1.289   4.938   8.195
   70POPC   PO4 1263   1.766   4.439   8.162
   70POPC   GL1 1264   1.451   4.620   7.769
   70POPC   GL2 1265   1.138   4.843   7.731
   70POPC   C1A 1266   1.414   4.882   7.331
   70POPC   D2A 1267   1.246   5.150   7.008
   70POPC   C3A 1268   1.197   5.032   6.601
   70POPC   C4A 1269   1.430   4.777   6.315
   70POPC   C1B 1270   0.900   4.878   7.351
   70POPC   C2B 1271   0.796   4.817   6.955
   70POPC   C3B 1272   0.705   4.909   6.553
   70POPC   C4B 1273   0.938   4.893   6.177
   71POPC   NC3 1274  10.411   2.224   7.918
   71POPC   PO4 1275   9.818   2.230   8.300
   71POPC   GL1 1276   9.884   2.201   7.826
   71POPC   GL2 1277  10.025   1.921   7.726
   71POPC   C1A 1278  10.004   2.267   7.354
   71POPC   D2A 1279  10.278   2.262   6.970
   71POPC   C3A 1280  10.246   2.042   6.575
   71POPC   C4A 1281  10.448   1.939   6.179
   71POPC   C1B 1282  10.273   1.826   7.343
   71POPC   C2B 1283  10.450   1.765   6.953
   71POPC   C3B 1284  10.433   1.571   6.571
   71POPC   C4B 1285  10.496   1.411   6.197
   72POPC   NC3 1286   7.390   1.354   8.552
   72POPC   PO4 1287   7.188   0.931   8.104
   72POPC   GL1 1288   7.202   0.990   7.662
   72POPC   GL2 1289   7.081   1.333   7.709
   72POPC   C1A 1290   6.968   1.052   7.275
   72POPC   D2A 1291   6.758   1.077   6.883
   72POPC   C3A 1292   7.030   1.019   6.552
   72POPC   C4A 1293   7.013   0.852   6.146
   72POPC   C1B 1294   7.243   1.493   7.329
   72POPC   C2B 1295   7.196   1.362   6.921
   72POPC   C3B 1296   7.113   1.503   6.532
   72POPC   C4B 1297   7.168   1.337   6.139
   73POPC   NC3 1298  10.469   3.937   7.921
   73POPC   PO4 1299   0.631   3.947   8.013
   73POPC   GL1 1300   0.553   4.034   7.627
   73POPC   GL2 1301   0.353   4.327   7.621
   73POPC   C1A 1302   0.383   3.924   7.238
   73POPC   D2A 1303   0.125   4.123   6.948
   73POPC   C3A 1304   0.018   4.006   6.544
   73POPC   C4A 1305   0.134   4.283   6.235
   73POPC   C1B 1306   0.675   4.378   7.281
   73POPC   C2B 1307   0.783   4.181   6.896
   73POPC   C3B 1308   0.605   4.165   6.499
   73POPC   C4B 1309   0.607   4.491   6.213
   74POPC   NC3 1310   1.678   6.429   8.153
   74POPC   PO4 1311   1.847   6.944   7.996
   74POPC   GL1 1312   1.642   6.709   7.681
   74POPC   GL2 1313   1.834   6.377   7.671
   74POPC   C1A 1314   1.743   6.638   7.239
   74POPC   D2A 1315   1.674   6.781   6.831
   74POPC   C3A 1316   2.033   6.897   6.620
   74POPC   C4A 1317   2.302   6.708   6.303
   74POPC   C1B 1318   1.947   6.152   7.277
   74POPC   C2B 1319   2.001   6.363   6.882
   74POPC   C3B 1320   1.980   6.313   6.465
   74POPC   C4B 1321   1.984   5.931   6.245
   75POPC   NC3 1322   9.977   0.267   7.848
   75POPC   PO4 1323  10.115   0.864   8.216
   75POPC   GL1 1324  10.132   0.775   7.754
   75POPC   GL2 1325  10.432   0.722   7.685
   75POPC   C1A 1326   9.994   0.603   7.306
   75POPC   D2A 1327  10.002   0.298   6.962
   75POPC   C3A 1328   9.799   0.488   6.614
   75POPC   C4A 1329   9.936   0.629   6.213
   75POPC   C1B 1330   0.006   0.561   7.281
   75POPC   C2B 1331   0.038   0.494   6.863
   75POPC   C3B 1332  10.378   0.614   6.488
   75POPC   C4B 1333  10.359   0.256   6.216
   76POPC   NC3 1334   6.471   7.970   8.246
   76POPC   PO4 1335   6.819   7.553   8.027
   76POPC   GL1 1336   6.537   7.828   7.755
   76POPC   GL2 1337   6.200   8.026   7.815
   76POPC   C1A 1338   6.497   8.141   7.426
   76POPC   D2A 1339   6.220   8.135   7.067
   76POPC   C3A 1340   6.395   8.055   6.685
   76POPC   C4A 1341   6.495   8.053   6.262
   76POPC   C1B 1342   6.166   7.746   7.408
   76POPC   C2B 1343   6.324   7.620   6.974
   76POPC   C3B 1344   6.277   7.605   6.499
   76POPC   C4B 1345   6.027   7.861   6.196
   77POPC   NC3 1346   1.885   8.951   8.097
   77POPC   PO4 1347   1.603   8.425   8.319
   77POPC   GL1 1348   1.820   8.516   7.826
   77POPC   GL2 1349   2.193   8.593   7.877
   77POPC   C1A 1350   1.651   8.571   7.325
   77POPC   D2A 1351   1.604   8.807   6.903
   77POPC   C3A 1352   1.709   8.641   6.473
   77POPC   C4A 1353   1.781   8.720   6.012
   77POPC   C1B 1354   2.128   8.740   7.430
   77POPC   C2B 1355   2.072   8.618   6.994
   77POPC   C3B 1356   2.243   8.663   6.599
   77POPC   C4B 1357   2.215   8.553   6.212
   78POPC   NC3 1358   1.962   9.967   8.236
   78POPC   PO4 1359   1.661   0.071   8.033
   78POPC   GL1 1360   1.797  10.288   7.640
   78POPC   GL2 1361   2.093  10.108   7.390
   78POPC   C1A 1362   1.633  10.081   7.264
   78POPC   D2A 1363   1.837  10.114   6.828
   78POPC   C3A 1364   1.602   9.956   6.452
   78POPC   C4A 1365   1.658   9.779   6.065
   78POPC   C1B 1366   2.143  10.484   7.183
   78POPC   C2B 1367   2.314   0.075   6.784
   78POPC   C3B 1368   2.184  10.360   6.421
   78POPC   C4B 1369   2.092   9.940   6.335
   79POPC   NC3 1370   0.497   7.174   8.370
   79POPC   PO4 1371   0.090   7.504   7.897
   79POPC   GL1 1372   0.272   7.152   7.692
   79POPC   GL2 1373   0.620   7.034   7.753
   79POPC   C1A 1374   0.371   7.206   7.267
   79POPC   D2A 1375   0.151   7.193   6.901
   79POPC   C3A 1376   0.356   7.200   6.502
   79POPC   C4A 1377   0.682   7.464   6.289
   79POPC   C1B 1378   0.614   6.763   7.346
   79POPC   C2B 1379   0.369   6.708   6.928
   79POPC   C3B 1380   0.301   6.647   6.486
   79POPC   C4B 1381   0.455   6.861   6.134
   80POPC   NC3 1382   1.853   0.849   8.047
   80POPC   PO4 1383   2.125   1.466   7.935
   80POPC   GL1 1384   2.066   1.100   7.644
   80POPC   GL2 1385   1.689   0.988   7.579
   80POPC   C1A 1386   2.155   1.280   7.256
   80POPC   D2A 1387   2.181   1.627   6.996
   80POPC   C3A 1388   2.356   1.477   6.631
   80POPC   C4A 1389   2.163   1.186   6.354
   80POPC   C1B 1390   1.815   0.922   7.149
   80POPC   C2B 1391   1.889   1.215   6.802
   80POPC   C3B 1392   1.669   1.107   6.419
   80POPC   C4B 1393   1.536   0.739   6.217
   81POPC   NC3 1394   2.893  10.079   7.890
   81POPC   PO4 1395   2.215  10.062   7.864
   81POPC   GL1 1396   2.523  10.291   7.590
   81POPC   GL2 1397   2.889  10.411   7.536
   81POPC   C1A 1398   2.569  10.232   7.145
   81POPC   D2A 1399   2.375  10.025   6.804
   81POPC   C3A 1400   2.609  10.032   6.432
   81POPC   C4A 1401   2.682  10.427   6.270
   81POPC   C1B 1402   3.063  10.194   7.165
   81POPC   C2B 1403   2.959  10.386   6.741
   81POPC   C3B 1404   3.111  10.190   6.372
   81POPC   C4B 1405   3.051   9.747   6.341
   82POPC   NC3 1406   7.893  10.145   8.245
   82POPC   PO4 1407   8.223   9.595   8.077
   82POPC   GL1 1408   8.126   9.958   7.782
   82POPC   GL2 1409   7.826  10.169   7.743
   82POPC   C1A 1410   8.169  10.150   7.347
   82POPC   D2A 1411   8.208   9.969   6.920
   82POPC   C3A 1412   8.180  10.239   6.566
   82POPC   C4A 1413   7.919  10.272   6.208
   82POPC   C1B 1414   7.662  10.280   7.325
   82POPC   C2B 1415   7.747  10.226   6.883
   82POPC   C3B 1416   7.524  10.324   6.503
   82POPC   C4B 1417   7.496  10.429   5.990
   83POPC   NC3 1418   1.407   7.077   8.092
   83POPC   PO4 1419   0.841   7.454   8.213
   83POPC   GL1 1420   1.059   7.439   7.775
   83POPC   GL2 1421   1.136   7.106   7.661
   83POPC   C1A 1422   1.285   7.520   7.366
   83POPC   D2A 1423   1.226   7.305   6.948
   83POPC   C3A 1424   1.087   7.454   6.589
   83POPC   C4A 1425   1.205   7.465   6.163
   83POPC   C1B 1426   0.880   7.212   7.318
   83POPC   C2B 1427   0.733   7.077   6.921
   83POPC   C3B 1428   0.750   6.875   6.555
   83POPC   C4B 1429   0.931   7.045   6.223
   84POPC   NC3 1430   6.908   9.997   8.154
   84POPC   PO4 1431   7.131   0.095   7.965
   84POPC   GL1 1432   7.224  10.424   7.585
   84POPC   GL2 1433   7.321  10.119   7.744
   84POPC   C1A 1434   7.177  10.156   7.232
   84POPC   D2A 1435   6.938   9.968   6.924
   84POPC   C3A 1436   6.828  10.240   6.611
   84POPC   C4A 1437   7.083  10.298   6.256
   84POPC   C1B 1438   7.561   9.819   7.452
   84POPC   C2B 1439   7.454   9.793   6.993
   84POPC   C3B 1440   7.277   9.802   6.562
   84POPC   C4B 1441   7.457   9.940   6.177
   85POPC   NC3 1442   4.395   0.542   8.247
   85POPC   PO4 1443   3.786   0.616   8.052
   85POPC   GL1 1444   3.948   0.338   7.725
   85POPC   GL2 1445   4.296   0.238   7.825
   85POPC   C1A 1446   3.870   0.226   7.287
   85POPC   D2A 1447   3.869   0.445   6.927
   85POPC   C3A 1448   3.920   0.281   6.549
   85POPC   C4A 1449   3.968   0.518   6.171
   85POPC   C1B 1450   4.396   0.212   7.391
   85POPC   C2B 1451   4.302   0.121   6.961
   85POPC   C3B 1452   4.439   0.214   6.553
   85POPC   C4B 1453   4.486   0.478   6.186
   86POPC   NC3 1454   1.607   2.352   8.383
   86POPC   PO4 1455   1.496   2.980   7.984
   86POPC   GL1 1456   1.643   2.822   7.583
   86POPC   GL2 1457   2.003   2.759   7.625
   86POPC   C1A 1458   1.650   2.555   7.215
   86POPC   D2A 1459   1.672   2.372   6.791
   86POPC   C3A 1460   1.490   2.505   6.465
   86POPC   C4A 1461   1.768   2.667   6.194
   86POPC   C1B 1462   2.165   2.487   7.343
   86POPC   C2B 1463   2.094   2.585   6.955
   86POPC   C3B 1464   2.129   2.571   6.549
   86POPC   C4B 1465   2.343   2.621   6.185
   87POPC   NC3 1466   8.427   5.071   8.053
   87POPC   PO4 1467   8.812   4.566   8.321
   87POPC   GL1 1468   9.038   4.830   7.911
   87POPC   GL2 1469   8.744   4.823   7.734
   87POPC   C1A 1470   9.101   5.004   7.423
   87POPC   D2A 1471   8.884   5.132   6.981
   87POPC   C3A 1472   8.906   4.997   6.569
   87POPC   C4A 1473   8.661   5.105   6.213
   87POPC   C1B 1474   8.643   4.812   7.287
   87POPC   C2B 1475   8.833   4.587   6.913
   87POPC   C3B 1476   8.656   4.458   6.502
   87POPC   C4B 1477   8.442   4.642   6.151
   88POPC   NC3 1478  10.170   9.857   8.186
   88POPC   PO4 1479   9.815  10.411   8.181
   88POPC   GL1 1480   9.962  10.262   7.740
   88POPC   GL2 1481  10.318  10.130   7.767
   88POPC   C1A 1482   9.824  10.409   7.296
   88POPC   D2A 1483   9.573  10.374   6.910
   88POPC   C3A 1484   9.819  10.366   6.561
   88POPC   C4A 1485  10.030  10.370   6.187
   88POPC   C1B 1486  10.320  10.337   7.358
   88POPC   C2B 1487  10.194  10.283   6.932
   88POPC   C3B 1488   0.010  10.186   6.623
   88POPC   C4B 1489  10.451  10.101   6.211
   89POPC   NC3 1490   0.687   1.963   8.409
   89POPC   PO4 1491   1.346   1.978   8.298
   89POPC   GL1 1492   1.412   2.097   7.879
   89POPC   GL2 1493   1.097   2.007   7.782
   89POPC   C1A 1494   1.467   1.976   7.442
   89POPC   D2A 1495   1.373   2.086   7.054
   89POPC   C3A 1496   1.284   1.945   6.648
   89POPC   C4A 1497   1.416   2.012   6.236
   89POPC   C1B 1498   0.976   2.052   7.369
   89POPC   C2B 1499   0.876   1.907   6.995
   89POPC   C3B 1500   0.762   1.920   6.613
   89POPC   C4B 1501   0.933   1.766   6.286
   90POPC   NC3 1502   8.638   5.061   8.531
   90POPC   PO4 1503   8.288   5.530   8.020
   90POPC   GL1 1504   8.156   5.237   7.637
   90POPC   GL2 1505   8.240   4.902   7.600
   90POPC   C1A 1506   8.308   5.169   7.172
   90POPC   D2A 1507   8.431   4.887   6.799
   90POPC   C3A 1508   8.212   5.020   6.424
   90POPC   C4A 1509   8.110   5.154   6.001
   90POPC   C1B 1510   8.143   4.686   7.193
   90POPC   C2B 1511   7.909   4.840   6.808
   90POPC   C3B 1512   7.712   4.927   6.366
   90POPC   C4B 1513   7.463   4.861   5.968
   91POPC   NC3 1514   5.581   2.172   7.934
   91POPC   PO4 1515   6.080   1.677   7.972
   91POPC   GL1 1516   5.751   1.832   7.631
   91POPC   GL2 1517   5.853   2.196   7.519
   91POPC   C1A 1518   5.564   1.994   7.179
   91POPC   D2A 1519   5.790   2.154   6.808
   91POPC   C3A 1520   5.563   2.251   6.420
   91POPC   C4A 1521   5.577   1.966   6.106
   91POPC   C1B 1522   6.060   1.882   7.254
   91POPC   C2B 1523   6.021   1.694   6.878
   91POPC   C3B 1524   5.882   1.759   6.483
   91POPC   C4B 1525   6.043   2.148   6.312
   92POPC   NC3 1526   1.682   8.038   8.053
   92POPC   PO4 1527   2.274   7.707   8.134
   92POPC   GL1 1528   2.131   7.735   7.665
   92POPC   GL2 1529   1.768   7.775   7.617
   92POPC   C1A 1530   2.097   7.750   7.175
   92POPC   D2A 1531   2.328   8.028   6.869
   92POPC   C3A 1532   2.325   8.011   6.396
   92POPC   C4A 1533   2.040   7.715   6.176
   92POPC   C1B 1534   1.940   8.163   7.426
   92POPC   C2B 1535   1.823   8.176   6.993
   92POPC   C3B 1536   1.862   7.959   6.612
   92POPC   C4B 1537   1.874   8.200   6.230
   93POPC   NC3 1538   9.555   3.657   8.213
   93POPC   PO4 1539   8.844   3.687   8.196
   93POPC   GL1 1540   9.057   3.523   7.795
   93POPC   GL2 1541   9.431   3.416   7.770
   93POPC   C1A 1542   9.214   3.668   7.378
   93POPC   D2A 1543   9.209   3.844   6.966
   93POPC   C3A 1544   9.118   3.679   6.577
   93POPC   C4A 1545   9.255   3.624   6.154
   93POPC   C1B 1546   9.292   3.166   7.400
   93POPC   C2B 1547   9.308   3.337   6.960
   93POPC   C3B 1548   9.552   3.384   6.578
   93POPC   C4B 1549   9.470   3.159   6.224
   94POPC   NC3 1550   0.518   4.420   8.111
   94POPC   PO4 1551   0.265   5.042   8.300
   94POPC   GL1 1552   0.264   4.825   7.823
   94POPC   GL2 1553   0.612   4.787   7.756
   94POPC   C1A 1554   0.331   4.739   7.320
   94POPC   D2A 1555   0.364   4.563   6.865
   94POPC   C3A 1556   0.240   4.756   6.455
   94POPC   C4A 1557   0.205   4.735   5.988
   94POPC   C1B 1558   0.487   5.182   7.495
   94POPC   C2B 1559   0.377   5.173   7.033
   94POPC   C3B 1560   0.333   5.262   6.585
   94POPC   C4B 1561   0.462   5.139   6.145
   95POPC   NC3 1562   1.246   8.668   8.137
   95POPC   PO4 1563   1.613   9.265   7.915
   95POPC   GL1 1564   1.382   8.884   7.689
   95POPC   GL2 1565   1.023   8.663   7.657
   95POPC   C1A 1566   1.247   8.905   7.268
   95POPC   D2A 1567   1.068   8.823   6.880
   95POPC   C3A 1568   1.275   9.003   6.549
   95POPC   C4A 1569   1.300   8.821   6.168
   95POPC   C1B 1570   1.073   8.406   7.242
   95POPC   C2B 1571   1.324   8.348   6.844
   95POPC   C3B 1572   1.246   8.360   6.380
   95POPC   C4B 1573   1.062   8.425   5.952
   96POPC   NC3 1574   6.809   0.752   7.920
   96POPC   PO4 1575   6.147   0.808   8.090
   96POPC   GL1 1576   6.375   0.976   7.757
   96POPC   GL2 1577   6.431   1.320   7.798
   96POPC   C1A 1578   6.460   0.938   7.330
   96POPC   D2A 1579   6.088   0.854   7.105
   96POPC   C3A 1580   6.122   0.833   6.672
   96POPC   C4A 1581   6.278   0.918   6.278
   96POPC   C1B 1582   6.195   1.378   7.387
   96POPC   C2B 1583   6.312   1.301   6.974
   96POPC   C3B 1584   6.233   1.338   6.548
   96POPC   C4B 1585   6.636   1.281   6.357
   97POPC   NC3 1586   3.258   1.705   8.222
   97POPC   PO4 1587   3.809   1.378   8.240
   97POPC   GL1 1588   3.663   1.547   7.815
   97POPC   GL2 1589   3.352   1.763   7.710
   97POPC   C1A 1590   3.619   1.516   7.350
   97POPC   D2A 1591   3.373   1.576   6.970
   97POPC   C3A 1592   3.485   1.662   6.523
   97POPC   C4A 1593   3.272   1.858   6.156
   97POPC   C1B 1594   3.487   2.012   7.319
   97POPC   C2B 1595   3.588   2.057   6.884
   97POPC   C3B 1596   3.547   2.175   6.456
   97POPC   C4B 1597   3.755   2.199   6.062
   98POPC   NC3 1598   6.359   0.497   8.373
   98POPC   PO4 1599   5.793   0.163   8.242
   98POPC   GL1 1600   6.070   0.074   7.822
   98POPC   GL2 1601   6.289   0.391   7.738
   98POPC   C1A 1602   6.159   0.051   7.334
   98POPC   D2A 1603   6.069   0.365   6.953
   98POPC   C3A 1604   6.262   0.368   6.518
   98POPC   C4A 1605   6.207   0.177   6.105
   98POPC   C1B 1606   6.519   0.406   7.325
   98POPC   C2B 1607   6.533   0.597   6.931
   98POPC   C3B 1608   6.659   0.690   6.540
   98POPC   C4B 1609   6.603   0.558   6.155
   99POPC   NC3 1610   1.271   2.598   7.903
   99POPC   PO4 1611   0.759   2.269   8.050
   99POPC   GL1 1612   0.839   2.468   7.630
   99POPC   GL2 1613   0.836   2.812   7.577
   99POPC   C1A 1614   0.745   2.474   7.162
   99POPC   D2A 1615   1.038   2.378   6.812
   99POPC   C3A 1616   1.012   2.325   6.367
   99POPC   C4A 1617   0.878   2.571   6.000
   99POPC   C1B 1618   1.185   2.787   7.291
   99POPC   C2B 1619   1.316   2.820   6.875
   99POPC   C3B 1620   1.068   2.823   6.508
   99POPC   C4B 1621   1.278   2.853   6.137
  100POPC   NC3 1622   1.962   4.012   8.127
  100POPC   PO4 1623   2.320   4.358   7.888
  100POPC   GL1 1624   1.918   4.414   7.682
  100POPC   GL2 1625   1.659   4.141   7.699
  100POPC   C1A 1626   1.689   4.457   7.285
  100POPC   D2A 1627   1.770   4.685   6.905
  100POPC   C3A 1628   1.789   4.438   6.521
  100POPC   C4A 1629   2.141   4.353   6.231
  100POPC   C1B 1630   1.923   4.013   7.372
  100POPC   C2B 1631   1.879   4.002   6.938
  100POPC   C3B 1632   2.057   3.939   6.535
  100POPC   C4B 1633   1.741   4.012   6.237
  101POPC   NC3 1634   7.971   2.825   8.112
  101POPC   PO4 1635   8.151   3.282   7.757
  101POPC   GL1 1636   7.916   2.920   7.605
  101POPC   GL2 1637   8.004   2.538   7.701
  101POPC   C1A 1638   7.817   3.004   7.165
  101POPC   D2A 1639   8.052   3.124   6.790
  101POPC   C3A 1640   7.919   2.977   6.362
  101POPC   C4A 1641   8.122   2.953   5.948
  101POPC   C1B 1642   7.906   2.528   7.290
  101POPC   C2B 1643   8.090   2.614   6.918
  101POPC   C3B 1644   8.023   2.514   6.539
  101POPC   C4B 1645   8.267   2.521   6.197
  102POPC   NC3 1646   1.241   0.333   8.015
  102POPC   PO4 1647   0.551   0.521   8.072
  102POPC   GL1 1648   0.774   0.273   7.709
  102POPC   GL2 1649   1.055   0.420   7.536
  102POPC   C1A 1650   0.837   0.005   7.326
  102POPC   D2A 1651   1.071   0.173   6.956
  102POPC   C3A 1652   0.919  10.473   6.568
  102POPC   C4A 1653   0.764   0.143   6.196
  102POPC   C1B 1654   1.407   0.605   7.302
  102POPC   C2B 1655   1.505   0.570   6.858
  102POPC   C3B 1656   1.319   0.371   6.488
  102POPC   C4B 1657   1.208   0.344   6.042
  103POPC   NC3 1658  10.362   4.967   8.106
  103POPC   PO4 1659   9.747   4.809   8.266
  103POPC   GL1 1660   9.946   4.721   7.860
  103POPC   GL2 1661  10.016   5.023   7.722
  103POPC   C1A 1662   9.938   4.649   7.400
  103POPC   D2A 1663   9.917   4.925   7.020
  103POPC   C3A 1664   9.839   4.732   6.603
  103POPC   C4A 1665   9.925   4.994   6.236
  103POPC   C1B 1666  10.372   4.921   7.449
  103POPC   C2B 1667  10.445   4.872   7.005
  103POPC   C3B 1668  10.299   4.971   6.611
  103POPC   C4B 1669  10.467   5.126   6.231
  104POPC   NC3 1670  10.247   7.168   7.898
  104POPC   PO4 1671   0.293   6.827   8.136
  104POPC   GL1 1672  10.483   6.722   7.762
  104POPC   GL2 1673  10.141   6.848   7.527
  104POPC   C1A 1674   0.092   6.791   7.340
  104POPC   D2A 1675  10.291   6.854   7.023
  104POPC   C3A 1676  10.376   6.878   6.621
  104POPC   C4A 1677  10.095   6.840   6.366
  104POPC   C1B 1678  10.194   7.283   7.280
  104POPC   C2B 1679  10.242   7.511   6.906
  104POPC   C3B 1680  10.370   7.412   6.507
  104POPC   C4B 1681  10.107   7.367   6.186
  105POPC   NC3 1682   8.093   5.966   7.991
  105POPC   PO4 1683   8.322   6.562   8.131
  105POPC   GL1 1684   8.227   6.577   7.691
  105POPC   GL2 1685   7.929   6.367   7.674
  105POPC   C1A 1686   8.208   6.593   7.235
  105POPC   D2A 1687   8.209   6.325   6.875
  105POPC   C3A 1688   8.128   6.491   6.484
  105POPC   C4A 1689   8.214   6.177   6.188
  105POPC   C1B 1690   7.696   6.540   7.314
  105POPC   C2B 1691   7.743   6.558   6.846
  105POPC   C3B 1692   7.665   6.282   6.476
  105POPC   C4B 1693   7.719   6.122   6.067
  106POPC   NC3 1694   1.784   1.825   8.116
  106POPC   PO4 1695   1.734   2.505   7.964
  106POPC   GL1 1696   1.837   2.242   7.616
  106POPC   GL2 1697   1.944   1.866   7.624
  106POPC   C1A 1698   1.889   2.086   7.161
  106POPC   D2A 1699   2.105   2.080   6.766
  106POPC   C3A 1700   1.898   2.143   6.375
  106POPC   C4A 1701   1.841   2.212   5.953
  106POPC   C1B 1702   1.742   1.587   7.285
  106POPC   C2B 1703   1.682   1.694   6.847
  106POPC   C3B 1704   1.889   1.629   6.472
  106POPC   C4B 1705   2.232   1.757   6.213
  107POPC   NC3 1706   9.516   6.241   8.202
  107POPC   PO4 1707   8.928   6.204   8.001
  107POPC   GL1 1708   9.271   6.254   7.706
  107POPC   GL2 1709   9.344   6.608   7.767
  107POPC   C1A 1710   9.286   6.254   7.241
  107POPC   D2A 1711   9.067   6.237   6.816
  107POPC   C3A 1712   9.119   6.464   6.432
  107POPC   C4A 1713   9.395   6.495   6.090
  107POPC   C1B 1714   9.488   6.699   7.338
  107POPC   C2B 1715   9.483   6.543   6.886
  107POPC   C3B 1716   9.532   6.793   6.537
  107POPC   C4B 1717   9.655   6.921   6.166
  108POPC   NC3 1718   2.202   2.617   8.089
  108POPC   PO4 1719   2.884   2.331   8.057
  108POPC   GL1 1720   2.873   2.556   7.647
  108POPC   GL2 1721   2.531   2.675   7.637
  108POPC   C1A 1722   2.781   2.407   7.247
  108POPC   D2A 1723   2.546   2.391   6.904
  108POPC   C3A 1724   2.628   2.679   6.641
  108POPC   C4A 1725   2.861   2.502   6.334
  108POPC   C1B 1726   2.490   2.825   7.175
  108POPC   C2B 1727   2.312   3.062   6.861
  108POPC   C3B 1728   2.333   3.060   6.421
  108POPC   C4B 1729   2.714   2.978   6.196
  109POPC   NC3 1730   6.603  10.406   7.943
  109POPC   PO4 1731   6.652   9.720   7.889
  109POPC   GL1 1732   6.545   9.968   7.571
  109POPC   GL2 1733   6.826  10.114   7.586
  109POPC   C1A 1734   6.265  10.003   7.233
  109POPC   D2A 1735   6.395  10.032   6.827
  109POPC   C3A 1736   6.220   9.808   6.442
  109POPC   C4A 1737   6.240   9.741   5.940
  109POPC   C1B 1738   6.669  10.360   7.228
  109POPC   C2B 1739   6.469   0.047   6.863
  109POPC   C3B 1740   6.277  10.356   6.482
  109POPC   C4B 1741   6.525  10.109   6.184
  110POPC   NC3 1742   2.090   5.521   8.071
  110POPC   PO4 1743   1.633   5.970   8.074
  110POPC   GL1 1744   1.630   5.926   7.622
  110POPC   GL2 1745   1.908   5.772   7.650
  110POPC   C1A 1746   1.615   5.758   7.215
  110POPC   D2A 1747   1.777   5.883   6.810
  110POPC   C3A 1748   1.562   5.680   6.476
  110POPC   C4A 1749   1.632   5.561   6.061
  110POPC   C1B 1750   2.081   5.596   7.289
  110POPC   C2B 1751   2.161   5.474   6.882
  110POPC   C3B 1752   2.007   5.466   6.481
  110POPC   C4B 1753   2.130   5.456   6.073
  111POPC   NC3 1754   0.779   3.466   7.965
  111POPC   PO4 1755   0.166   3.073   7.996
  111POPC   GL1 1756   0.451   3.182   7.696
  111POPC   GL2 1757   0.366   3.550   7.674
  111POPC   C1A 1758   0.709   3.304   7.342
  111POPC   D2A 1759   0.640   3.562   6.970
  111POPC   C3A 1760   0.728   3.325   6.614
  111POPC   C4A 1761   0.581   3.367   6.171
  111POPC   C1B 1762   0.214   3.424   7.277
  111POPC   C2B 1763   0.071   3.603   6.898
  111POPC   C3B 1764   0.299   3.587   6.534
  111POPC   C4B 1765   0.373   3.844   6.167
  112POPC   NC3 1766   6.259   2.858   7.931
  112POPC   PO4 1767   6.809   3.095   7.956
  112POPC   GL1 1768   6.651   2.899   7.585
  112POPC   GL2 1769   6.631   2.569   7.688
  112POPC   C1A 1770   6.393   3.018   7.214
  112POPC   D2A 1771   6.459   3.173   6.783
  112POPC   C3A 1772   6.769   3.013   6.486
  112POPC   C4A 1773   6.640   2.991   6.045
  112POPC   C1B 1774   6.466   2.517   7.257
  112POPC   C2B 1775   6.575   2.669   6.834
  112POPC   C3B 1776   6.371   2.671   6.431
  112POPC   C4B 1777   5.910   2.640   6.324
  113POPC   NC3 1778  10.109   8.945   8.032
  113POPC   PO4 1779  10.065   8.267   8.064
  113POPC   GL1 1780  10.153   8.452   7.659
  113POPC   GL2 1781   9.955   8.757   7.570
  113POPC   C1A 1782  10.088   8.308   7.231
  113POPC   D2A 1783   9.798   8.429   6.925
  113POPC   C3A 1784   9.902   8.357   6.539
  113POPC   C4A 1785   9.932   8.695   6.293
  113POPC   C1B 1786  10.205   8.812   7.197
  113POPC   C2B 1787  10.249   8.686   6.766
  113POPC   C3B 1788  10.372   8.924   6.413
  113POPC   C4B 1789   0.018   9.252   6.177
  114POPC   NC3 1790  10.152   3.073   8.030
  114POPC   PO4 1791  10.020   3.825   8.016
  114POPC   GL1 1792   9.974   3.533   7.708
  114POPC   GL2 1793  10.344   3.426   7.682
  114POPC   C1A 1794   9.711   3.446   7.316
  114POPC   D2A 1795   9.724   3.068   7.041
  114POPC   C3A 1796   9.918   3.012   6.617
  114POPC   C4A 1797   9.958   3.258   6.234
  114POPC   C1B 1798  10.206   3.448   7.245
  114POPC   C2B 1799  10.020   3.448   6.859
  114POPC   C3B 1800  10.086   3.678   6.486
  114POPC   C4B 1801  10.416   3.640   6.194
  115POPC   NC3 1802   7.335   0.485   8.152
  115POPC   PO4 1803   6.678   0.342   8.082
  115POPC   GL1 1804   6.918   0.369   7.627
  115POPC   GL2 1805   7.292   0.470   7.644
  115POPC   C1A 1806   7.031   0.244   7.221
  115POPC   D2A 1807   7.041   0.500   6.853
  115POPC   C3A 1808   6.961   0.262   6.515
  115POPC   C4A 1809   6.662   0.085   6.276
  115POPC   C1B 1810   7.317   0.675   7.268
  115POPC   C2B 1811   7.396   0.857   6.872
  115POPC   C3B 1812   7.372   0.669   6.460
  115POPC   C4B 1813   7.445   0.291   6.327
  116POPC   NC3 1814   9.235  10.209   8.220
  116POPC   PO4 1815   9.427   0.372   8.131
  116POPC   GL1 1816   9.474  10.496   7.804
  116POPC   GL2 1817   9.468  10.120   7.792
  116POPC   C1A 1818   9.316  10.379   7.382
  116POPC   D2A 1819   9.178  10.056   7.078
  116POPC   C3A 1820   9.140  10.226   6.645
  116POPC   C4A 1821   9.379  10.291   6.293
  116POPC   C1B 1822   9.640   9.957   7.416
  116POPC   C2B 1823   9.758   9.898   6.979
  116POPC   C3B 1824   9.559   9.895   6.567
  116POPC   C4B 1825   9.734   9.937   6.138
  117POPC   NC3 1826   7.546   1.215   7.956
  117POPC   PO4 1827   8.269   1.406   7.979
  117POPC   GL1 1828   8.147   1.281   7.571
  117POPC   GL2 1829   7.858   1.038   7.565
  117POPC   C1A 1830   8.343   1.009   7.268
  117POPC   D2A 1831   8.388   0.927   6.822
  117POPC   C3A 1832   8.083   1.204   6.567
  117POPC   C4A 1833   7.873   1.463   6.233
  117POPC   C1B 1834   7.571   1.120   7.278
  117POPC   C2B 1835   7.679   1.287   6.884
  117POPC   C3B 1836   7.527   1.188   6.497
  117POPC   C4B 1837   7.595   1.008   6.114
  118POPC   NC3 1838   9.405   9.237   8.012
  118POPC   PO4 1839   9.075   9.806   8.036
  118POPC   GL1 1840   9.325   9.630   7.671
  118POPC   GL2 1841   9.690   9.487   7.642
  118POPC   C1A 1842   9.382   9.559   7.227
  118POPC   D2A 1843   9.517   9.438   6.829
  118POPC   C3A 1844   9.149   9.423   6.554
  118POPC   C4A 1845   9.037   9.783   6.317
  118POPC   C1B 1846   9.741   9.158   7.294
  118POPC   C2B 1847   9.774   8.958   6.856
  118POPC   C3B 1848   9.593   9.100   6.453
  118POPC   C4B 1849   9.532   9.482   6.231
  119POPC   NC3 1850   0.436   5.456   8.128
  119POPC   PO4 1851   0.785   5.997   7.968
  119POPC   GL1 1852   0.518   5.760   7.700
  119POPC   GL2 1853   0.190   5.762   7.690
  119POPC   C1A 1854   0.606   5.816   7.287
  119POPC   D2A 1855   0.805   5.897   6.907
  119POPC   C3A 1856   0.601   5.776   6.542
  119POPC   C4A 1857   0.628   5.859   6.128
  119POPC   C1B 1858   0.156   5.561   7.303
  119POPC   C2B 1859   0.284   5.681   6.926
  119POPC   C3B 1860   0.080   5.712   6.586
  119POPC   C4B 1861   0.192   5.591   6.210
  120POPC   NC3 1862   4.239   1.529   8.297
  120POPC   PO4 1863   4.426   2.158   8.129
  120POPC   GL1 1864   4.346   1.943   7.714
  120POPC   GL2 1865   4.435   1.569   7.746
  120POPC   C1A 1866   4.030   2.046   7.358
  120POPC   D2A 1867   4.086   2.233   6.905
  120POPC   C3A 1868   4.075   2.079   6.467
  120POPC   C4A 1869   4.253   2.050   6.004
  120POPC   C1B 1870   4.133   1.550   7.393
  120POPC   C2B 1871   3.964   1.720   6.979
  120POPC   C3B 1872   4.000   1.567   6.558
  120POPC   C4B 1873   3.886   1.720   6.163
  121POPC   NC3 1874   2.143   9.523   8.076
  121POPC   PO4 1875   1.530   9.764   8.120
  121POPC   GL1 1876   1.764   9.754   7.668
  121POPC   GL2 1877   2.109   9.644   7.609
  121POPC   C1A 1878   1.896   9.651   7.172
  121POPC   D2A 1879   2.085   9.623   6.757
  121POPC   C3A 1880   1.898   9.474   6.398
  121POPC   C4A 1881   1.636   9.198   6.164
  121POPC   C1B 1882   2.147   9.259   7.414
  121POPC   C2B 1883   2.067   9.139   6.987
  121POPC   C3B 1884   2.293   9.170   6.592
  121POPC   C4B 1885   2.138   9.091   6.175
  122POPC   NC3 1886   8.771   1.484   8.076
  122POPC   PO4 1887   8.499   2.057   8.279
  122POPC   GL1 1888   8.584   1.912   7.829
  122POPC   GL2 1889   8.882   2.090   7.735
  122POPC   C1A 1890   8.398   1.752   7.406
  122POPC   D2A 1891   8.353   1.515   7.003
  122POPC   C3A 1892   8.399   1.763   6.607
  122POPC   C4A 1893   8.273   1.776   6.172
  122POPC   C1B 1894   8.724   2.142   7.332
  122POPC   C2B 1895   8.731   1.947   6.939
  122POPC   C3B 1896   8.812   2.078   6.492
  122POPC   C4B 1897   8.721   2.276   6.068
  123POPC   NC3 1898   8.624   9.834   7.963
  123POPC   PO4 1899   8.805  10.372   8.293
  123POPC   GL1 1900   8.953  10.367   7.811
  123POPC   GL2 1901   8.981  10.043   7.600
  123POPC   C1A 1902   8.811  10.462   7.361
  123POPC   D2A 1903   8.472   0.006   7.062
  123POPC   C3A 1904   8.617   0.046   6.653
  123POPC   C4A 1905   8.904   0.077   6.299
  123POPC   C1B 1906   8.674   9.975   7.251
  123POPC   C2B 1907   8.694  10.066   6.811
  123POPC   C3B 1908   8.646  10.134   6.351
  123POPC   C4B 1909   8.333  10.092   6.005
  124POPC   NC3 1910   1.894   3.179   7.899
  124POPC   PO4 1911   1.580   3.735   8.141
  124POPC   GL1 1912   1.792   3.633   7.715
  124POPC   GL2 1913   1.647   3.324   7.502
  124POPC   C1A 1914   2.055   3.536   7.329
  124POPC   D2A 1915   2.235   3.597   6.942
  124POPC   C3A 1916   2.032   3.416   6.613
  124POPC   C4A 1917   1.957   3.551   6.202
  124POPC   C1B 1918   1.885   3.055   7.183
  124POPC   C2B 1919   1.799   2.947   6.738
  124POPC   C3B 1920   1.663   3.145   6.352
  124POPC   C4B 1921   1.912   3.107   5.971
  125POPC   NC3 1922   4.869   2.034   8.001
  125POPC   PO4 1923   5.281   2.394   7.668
  125POPC   GL1 1924   5.216   1.980   7.584
  125POPC   GL2 1925   4.835   1.993   7.488
  125POPC   C1A 1926   5.206   1.665   7.313
  125POPC   D2A 1927   4.977   1.901   6.997
  125POPC   C3A 1928   5.205   1.985   6.653
  125POPC   C4A 1929   5.102   1.941   6.241
  125POPC   C1B 1930   4.484   1.950   7.168
  125POPC   C2B 1931   4.433   1.823   6.742
  125POPC   C3B 1932   4.602   2.023   6.383
  125POPC   C4B 1933   4.847   2.405   6.299
  126POPC   NC3 1934   2.812   9.307   8.214
  126POPC   PO4 1935   2.442   9.821   8.302
  126POPC   GL1 1936   2.585   9.675   7.859
  126POPC   GL2 1937   2.831   9.427   7.734
  126POPC   C1A 1938   2.559   9.721   7.389
  126POPC   D2A 1939   2.488   9.452   7.033
  126POPC   C3A 1940   2.655   9.553   6.646
  126POPC   C4A 1941   2.410   9.557   6.274
  126POPC   C1B 1942   2.990   9.428   7.336
  126POPC   C2B 1943   2.946   9.200   6.968
  126POPC   C3B 1944   3.082   9.247   6.561
  126POPC   C4B 1945   2.850   9.307   6.209
  127POPC   NC3 1946   7.405   2.098   8.153
  127POPC   PO4 1947   6.782   2.274   8.088
  127POPC   GL1 1948   7.128   2.220   7.744
  127POPC   GL2 1949   7.230   1.856   7.727
  127POPC   C1A 1950   7.454   2.153   7.362
  127POPC   D2A 1951   7.694   2.215   6.961
  127POPC   C3A 1952   7.501   2.241   6.580
  127POPC   C4A 1953   7.271   2.239   6.228
  127POPC   C1B 1954   7.003   1.927   7.324
  127POPC   C2B 1955   7.204   1.897   6.912
  127POPC   C3B 1956   6.976   1.973   6.523
  127POPC   C4B 1957   6.817   1.714   6.167
  128POPC   NC3 1958   3.518   0.161   7.955
  128POPC   PO4 1959   3.130   0.711   7.976
  128POPC   GL1 1960   3.123   0.356   7.637
  128POPC   GL2 1961   3.412   0.161   7.485
  128POPC   C1A 1962   3.060   0.197   7.163
  128POPC   D2A 1963   3.407   0.176   6.834
  128POPC   C3A 1964   3.206   0.253   6.414
  128POPC   C4A 1965   3.028   0.196   5.982
  128POPC   C1B 1966   3.456   0.551   7.249
  128POPC   C2B 1967   3.520   0.816   6.915
  128POPC   C3B 1968   3.546   0.640   6.540
  128POPC   C4B 1969   3.414   0.781   6.184
  129POPC   NC3 1970   8.111   0.953   7.987
  129POPC   PO4 1971   8.707   0.736   8.049
  129POPC   GL1 1972   8.636   1.069   7.735
  129POPC   GL2 1973   8.889   0.906   7.549
  129POPC   C1A 1974   8.725   1.371   7.373
  129POPC   D2A 1975   8.871   1.446   6.918
  129POPC   C3A 1976   8.599   1.317   6.575
  129POPC   C4A 1977   8.474   0.960   6.324
  129POPC   C1B 1978   8.834   0.949   7.098
  129POPC   C2B 1979   8.931   0.969   6.672
  129POPC   C3B 1980   8.988   1.116   6.261
  129POPC   C4B 1981   9.186   0.973   5.903
  130POPC   NC3 1982   8.281   7.927   8.257
  130POPC   PO4 1983   7.634   7.958   8.061
  130POPC   GL1 1984   7.775   8.075   7.668
  130POPC   GL2 1985   8.115   7.905   7.670
  130POPC   C1A 1986   7.598   8.303   7.300
  130POPC   D2A 1987   7.644   8.047   6.893
  130POPC   C3A 1988   7.428   8.108   6.481
  130POPC   C4A 1989   7.438   8.490   6.246
  130POPC   C1B 1990   8.074   7.867   7.199
  130POPC   C2B 1991   7.906   7.595   6.864
  130POPC   C3B 1992   7.859   7.592   6.428
  130POPC   C4B 1993   8.133   7.872   6.277
  131POPC   NC3 1994   7.230   7.757   8.012
  131POPC   PO4 1995   7.218   8.412   8.159
  131POPC   GL1 1996   7.277   8.191   7.743
  131POPC   GL2 1997   6.903   8.185   7.802
  131POPC   C1A 1998   7.428   7.848   7.367
  131POPC   D2A 1999   7.226   7.743   6.948
  131POPC   C3A 2000   7.346   7.604   6.513
  131POPC   C4A 2001   7.454   7.691   6.071
  131POPC   C1B 2002   6.943   7.932   7.418
  131POPC   C2B 2003   6.751   7.914   7.024
  131POPC   C3B 2004   6.898   7.970   6.604
  131POPC   C4B 2005   6.981   7.829   6.201
  132POPC   NC3 2006   0.201   0.824   8.113
  132POPC   PO4 2007  10.428   0.177   7.928
  132POPC   GL1 2008   0.279   0.333   7.644
  132POPC   GL2 2009   0.433   0.689   7.626
  132POPC   C1A 2010   0.501   0.396   7.220
  132POPC   D2A 2011   0.477   0.754   6.926
  132POPC   C3A 2012   0.396   0.623   6.523
  132POPC   C4A 2013   0.372   0.487   6.164
  132POPC   C1B 2014   0.748   0.850   7.375
  132POPC   C2B 2015   0.984   0.691   7.018
  132POPC   C3B 2016   0.862   0.507   6.634
  132POPC   C4B 2017   0.856   0.669   6.230
  133POPC   NC3 2018   4.198   8.064   8.054
  133POPC   PO4 2019   3.797   7.641   8.078
  133POPC   GL1 2020   3.863   7.861   7.681
  133POPC   GL2 2021   4.195   7.738   7.655
  133POPC   C1A 2022   3.946   7.910   7.206
  133POPC   D2A 2023   3.924   8.130   6.776
  133POPC   C3A 2024   3.988   7.909   6.350
  133POPC   C4A 2025   3.685   7.661   6.060
  133POPC   C1B 2026   4.395   8.059   7.413
  133POPC   C2B 2027   4.424   8.055   6.994
  133POPC   C3B 2028   4.499   8.039   6.572
  133POPC   C4B 2029   4.461   8.055   6.146
  134POPC   NC3 2030   8.533   8.554   8.066
  134POPC   PO4 2031   9.137   8.070   8.105
  134POPC   GL1 2032   9.011   8.284   7.699
  134POPC   GL2 2033   8.750   8.518   7.631
  134POPC   C1A 2034   9.099   8.403   7.308
  134POPC   D2A 2035   8.859   8.698   7.107
  134POPC   C3A 2036   8.758   8.559   6.702
  134POPC   C4A 2037   9.027   8.408   6.368
  134POPC   C1B 2038   8.424   8.734   7.424
  134POPC   C2B 2039   8.338   8.749   6.997
  134POPC   C3B 2040   8.264   8.727   6.564
  134POPC   C4B 2041   8.576   8.668   6.238
  135POPC   NC3 2042   0.422  10.500   8.039
  135POPC   PO4 2043   0.147   9.857   8.195
  135POPC   GL1 2044   0.337  10.042   7.758
  135POPC   GL2 2045   0.699  10.152   7.712
  135POPC   C1A 2046   0.336  10.383   7.401
  135POPC   D2A 2047   0.166   0.025   7.001
  135POPC   C3A 2048   0.378   0.099   6.584
  135POPC   C4A 2049   0.286  10.476   6.147
  135POPC   C1B 2050   0.585   9.972   7.272
  135POPC   C2B 2051   0.572  10.199   6.880
  135POPC   C3B 2052   0.505  10.089   6.443
  135POPC   C4B 2053   0.679  10.152   6.046
  136POPC   NC3 2054   9.699   1.118   8.143
  136POPC   PO4 2055   9.961   1.618   8.292
  136POPC   GL1 2056   9.918   1.452   7.834
  136POPC   GL2 2057  10.243   1.388   7.645
  136POPC   C1A 2058   9.826   1.567   7.385
  136POPC   D2A 2059  10.035   1.397   6.999
  136POPC   C3A 2060   9.854   1.522   6.609
  136POPC   C4A 2061  10.001   1.708   6.269
  136POPC   C1B 2062  10.239   1.061   7.343
  136POPC   C2B 2063  10.232   0.884   6.938
  136POPC   C3B 2064  10.190   1.113   6.581
  136POPC   C4B 2065  10.123   1.088   6.175
  137POPC   NC3 2066   0.652   6.426   8.016
  137POPC   PO4 2067   0.076   6.011   8.139
  137POPC   GL1 2068   0.189   6.254   7.725
  137POPC   GL2 2069   0.528   6.256   7.569
  137POPC   C1A 2070   0.184   6.092   7.261
  137POPC   D2A 2071   0.411   6.190   6.887
  137POPC   C3A 2072   0.264   6.149   6.470
  137POPC   C4A 2073   0.150   6.132   6.063
  137POPC   C1B 2074   0.806   6.299   7.231
  137POPC   C2B 2075   0.837   6.478   6.856
  137POPC   C3B 2076   0.767   6.282   6.495
  137POPC   C4B 2077   0.588   6.372   6.128
  138POPC   NC3 2078   9.193   0.746   7.956
  138POPC   PO4 2079   9.257   1.418   8.134
  138POPC   GL1 2080   9.139   1.322   7.720
  138POPC   GL2 2081   9.477   1.224   7.669
  138POPC   C1A 2082   9.214   1.262   7.258
  138POPC   D2A 2083   9.500   1.358   6.947
  138POPC   C3A 2084   9.330   1.365   6.550
  138POPC   C4A 2085   9.503   1.537   6.170
  138POPC   C1B 2086   9.724   1.080   7.307
  138POPC   C2B 2087   9.734   0.885   6.953
  138POPC   C3B 2088   9.705   1.011   6.552
  138POPC   C4B 2089   9.627   1.045   6.130
  139POPC   NC3 2090   2.187   0.015   7.956
  139POPC   PO4 2091   2.328   0.760   8.047
  139POPC   GL1 2092   2.118   0.542   7.719
  139POPC   GL2 2093   1.722   0.487   7.728
  139POPC   C1A 2094   2.213   0.645   7.320
  139POPC   D2A 2095   2.047   0.480   6.969
  139POPC   C3A 2096   1.952   0.732   6.641
  139POPC   C4A 2097   2.043   0.586   6.266
  139POPC   C1B 2098   1.786   0.269   7.380
  139POPC   C2B 2099   1.686   0.100   6.985
  139POPC   C3B 2100   1.828   0.214   6.573
  139POPC   C4B 2101   1.697   0.247   6.152
  140POPC   NC3 2102   5.304   9.560   8.178
  140POPC   PO4 2103   4.832   9.071   8.047
  140POPC   GL1 2104   4.810   9.238   7.682
  140POPC   GL2 2105   5.025   9.482   7.665
  140POPC   C1A 2106   4.910   9.071   7.297
  140POPC   D2A 2107   4.702   9.122   6.941
  140POPC   C3A 2108   4.896   9.177   6.582
  140POPC   C4A 2109   4.725   8.986   6.247
  140POPC   C1B 2110   4.850   9.573   7.244
  140POPC   C2B 2111   4.758   9.655   6.797
  140POPC   C3B 2112   4.802   9.641   6.379
  140POPC   C4B 2113   4.936   9.488   5.978
  141POPC   NC3 2114   9.578   1.852   8.190
  141POPC   PO4 2115   9.173   2.379   8.093
  141POPC   GL1 2116   9.394   2.098   7.767
  141POPC   GL2 2117   9.452   1.737   7.724
  141POPC   C1A 2118   9.554   2.039   7.316
  141POPC   D2A 2119   9.861   1.920   6.973
  141POPC   C3A 2120   9.741   2.125   6.577
  141POPC   C4A 2121   9.626   2.069   6.157
  141POPC   C1B 2122   9.126   1.763   7.389
  141POPC   C2B 2123   9.244   1.805   6.941
  141POPC   C3B 2124   9.287   1.880   6.497
  141POPC   C4B 2125   9.122   1.909   6.063
  142POPC   NC3 2126  10.210   1.997   8.321
  142POPC   PO4 2127  10.145   2.598   7.997
  142POPC   GL1 2128  10.081   2.715   7.598
  142POPC   GL2 2129  10.005   3.054   7.527
  142POPC   C1A 2130  10.077   2.720   7.142
  142POPC   D2A 2131   9.790   2.559   6.874
  142POPC   C3A 2132  10.092   2.526   6.561
  142POPC   C4A 2133  10.068   2.337   6.182
  142POPC   C1B 2134  10.426   3.006   7.361
  142POPC   C2B 2135  10.456   3.106   6.937
  142POPC   C3B 2136  10.378   3.257   6.544
  142POPC   C4B 2137  10.341   2.905   6.316
  143POPC   NC3 2138   4.501   9.500   8.058
  143POPC   PO4 2139   3.910   9.179   7.988
  143POPC   GL1 2140   4.247   9.201   7.713
  143POPC   GL2 2141   4.140   9.539   7.673
  143POPC   C1A 2142   4.434   9.295   7.339
  143POPC   D2A 2143   4.327   9.504   6.982
  143POPC   C3A 2144   4.414   9.321   6.565
  143POPC   C4A 2145   4.427   9.435   6.119
  143POPC   C1B 2146   3.923   9.348   7.275
  143POPC   C2B 2147   3.890   9.362   6.798
  143POPC   C3B 2148   3.941   9.350   6.392
  143POPC   C4B 2149   3.981   9.666   6.183
  144POPC   NC3 2150   4.919   8.598   8.124
  144POPC   PO4 2151   5.489   8.711   7.975
  144POPC   GL1 2152   5.139   8.721   7.654
  144POPC   GL2 2153   4.775   8.725   7.658
  144POPC   C1A 2154   5.222   8.688   7.227
  144POPC   D2A 2155   5.353   8.960   6.922
  144POPC   C3A 2156   5.216   8.793   6.563
  144POPC   C4A 2157   5.132   8.557   6.240
  144POPC   C1B 2158   4.774   8.436   7.297
  144POPC   C2B 2159   4.809   8.609   6.877
  144POPC   C3B 2160   4.669   8.519   6.463
  144POPC   C4B 2161   4.531   8.554   6.042
  145POPC   NC3 2162   8.665   4.114   8.213
  145POPC   PO4 2163   8.337   4.629   8.010
  145POPC   GL1 2164   8.450   4.423   7.609
  145POPC   GL2 2165   8.793   4.376   7.431
  145POPC   C1A 2166   8.323   4.195   7.240
  145POPC   D2A 2167   8.319   4.316   6.831
  145POPC   C3A 2168   8.238   4.042   6.440
  145POPC   C4A 2169   7.943   4.144   6.076
  145POPC   C1B 2170   8.803   4.094   7.102
  145POPC   C2B 2171   8.663   3.923   6.739
  145POPC   C3B 2172   8.727   3.911   6.309
  145POPC   C4B 2173   8.746   4.243   6.010
  146POPC   NC3 2174   6.982   2.691   8.053
  146POPC   PO4 2175   7.623   2.499   8.085
  146POPC   GL1 2176   7.484   2.587   7.635
  146POPC   GL2 2177   7.153   2.753   7.582
  146POPC   C1A 2178   7.415   2.624   7.158
  146POPC   D2A 2179   7.609   2.741   6.771
  146POPC   C3A 2180   7.395   2.767   6.389
  146POPC   C4A 2181   7.656   2.548   6.185
  146POPC   C1B 2182   6.963   2.439   7.327
  146POPC   C2B 2183   6.885   2.283   6.942
  146POPC   C3B 2184   7.023   2.482   6.613
  146POPC   C4B 2185   6.894   2.587   6.236
  147POPC   NC3 2186   4.874  10.403   7.854
  147POPC   PO4 2187   4.883   9.791   8.163
  147POPC   GL1 2188   5.144   9.943   7.818
  147POPC   GL2 2189   4.885   9.998   7.549
  147POPC   C1A 2190   5.302   9.819   7.368
  147POPC   D2A 2191   5.078   9.969   7.012
  147POPC   C3A 2192   5.225   9.891   6.578
  147POPC   C4A 2193   5.024  10.052   6.212
  147POPC   C1B 2194   4.678  10.279   7.247
  147POPC   C2B 2195   4.773  10.421   6.883
  147POPC   C3B 2196   4.662  10.208   6.548
  147POPC   C4B 2197   4.636  10.392   6.165
  148POPC   NC3 2198   8.646   0.302   8.216
  148POPC   PO4 2199   7.986   0.067   8.074
  148POPC   GL1 2200   8.337   0.371   7.806
  148POPC   GL2 2201   8.712   0.346   7.707
  148POPC   C1A 2202   8.336   0.485   7.335
  148POPC   D2A 2203   8.191   0.462   6.882
  148POPC   C3A 2204   8.382   0.466   6.486
  148POPC   C4A 2205   8.359   0.088   6.203
  148POPC   C1B 2206   8.844   0.466   7.297
  148POPC   C2B 2207   8.696   0.487   6.927
  148POPC   C3B 2208   8.892   0.475   6.598
  148POPC   C4B 2209   8.837   0.623   6.251
  149POPC   NC3 2210   4.214   8.816   8.049
  149POPC   PO4 2211   4.592   8.282   8.086
  149POPC   GL1 2212   4.331   8.485   7.671
  149POPC   GL2 2213   4.024   8.729   7.574
  149POPC   C1A 2214   4.421   8.786   7.276
  149POPC   D2A 2215   4.188   8.991   6.947
  149POPC   C3A 2216   4.182   8.883   6.487
  149POPC   C4A 2217   4.245   8.980   6.050
  149POPC   C1B 2218   4.055   8.430   7.216
  149POPC   C2B 2219   4.286   8.498   6.821
  149POPC   C3B 2220   4.167   8.391   6.393
  149POPC   C4B 2221   4.028   8.540   6.002
  150POPC   NC3 2222   9.756  10.411   4.044
  150POPC   PO4 2223   9.131  10.276   3.687
  150POPC   GL1 2224   9.265   9.959   4.184
  150POPC   GL2 2225   9.527  10.093   4.356
  150POPC   C1A 2226   9.103  10.096   4.679
  150POPC   D2A 2227   9.044  10.350   5.103
  150POPC   C3A 2228   9.263  10.218   5.486
  150POPC   C4A 2229   9.278  10.016   5.892
  150POPC   C1B 2230   9.607  10.144   4.790
  150POPC   C2B 2231   9.860  10.077   5.151
  150POPC   C3B 2232   9.879  10.375   5.517
  150POPC   C4B 2233   9.657  10.360   5.857
  151POPC   NC3 2234   6.369   9.845   3.821
  151POPC   PO4 2235   6.829  10.283   3.771
  151POPC   GL1 2236   6.646  10.145   4.148
  151POPC   GL2 2237   6.555  10.438   4.288
  151POPC   C1A 2238   6.454   9.937   4.512
  151POPC   D2A 2239   6.300  10.006   4.936
  151POPC   C3A 2240   6.553   9.931   5.273
  151POPC   C4A 2241   6.632   9.933   5.698
  151POPC   C1B 2242   6.268  10.425   4.629
  151POPC   C2B 2243   6.264   0.089   5.045
  151POPC   C3B 2244   6.350  10.391   5.400
  151POPC   C4B 2245   6.304  10.308   5.787
  152POPC   NC3 2246   0.753   9.602   4.114
  152POPC   PO4 2247   1.252   9.316   3.751
  152POPC   GL1 2248   1.206   9.387   4.218
  152POPC   GL2 2249   1.469   9.617   4.243
  152POPC   C1A 2250   1.025   9.234   4.648
  152POPC   D2A 2251   1.037   9.008   5.067
  152POPC   C3A 2252   0.812   9.138   5.446
  152POPC   C4A 2253   0.996   9.378   5.783
  152POPC   C1B 2254   1.431   9.708   4.651
  152POPC   C2B 2255   1.376   9.417   4.964
  152POPC   C3B 2256   1.273   9.367   5.357
  152POPC   C4B 2257   1.502   9.476   5.715
  153POPC   NC3 2258   1.323  10.347   3.876
  153POPC   PO4 2259   0.740  10.012   3.870
  153POPC   GL1 2260   0.934  10.253   4.203
  153POPC   GL2 2261   1.085   9.953   4.308
  153POPC   C1A 2262   1.145  10.322   4.626
  153POPC   D2A 2263   0.851  10.324   4.947
  153POPC   C3A 2264   0.922  10.292   5.386
  153POPC   C4A 2265   1.038  10.417   5.797
  153POPC   C1B 2266   0.931   9.846   4.710
  153POPC   C2B 2267   1.119   9.875   5.090
  153POPC   C3B 2268   1.162   9.842   5.519
  153POPC   C4B 2269   1.492  10.079   5.668
  154POPC   NC3 2270   1.183   1.499   4.082
  154POPC   PO4 2271   1.554   0.949   3.817
  154POPC   GL1 2272   1.482   1.117   4.247
  154POPC   GL2 2273   1.150   1.053   4.389
  154POPC   C1A 2274   1.471   1.352   4.690
  154POPC   D2A 2275   1.322   1.462   5.104
  154POPC   C3A 2276   1.565   1.493   5.508
  154POPC   C4A 2277   1.549   1.250   5.911
  154POPC   C1B 2278   0.920   1.315   4.683
  154POPC   C2B 2279   0.802   1.412   5.077
  154POPC   C3B 2280   0.822   1.183   5.406
  154POPC   C4B 2281   1.063   1.250   5.721
  155POPC   NC3 2282   8.802   7.793   3.880
  155POPC   PO4 2283   8.273   8.296   3.818
  155POPC   GL1 2284   8.294   8.131   4.249
  155POPC   GL2 2285   8.608   7.956   4.309
  155POPC   C1A 2286   8.297   8.058   4.694
  155POPC   D2A 2287   8.571   8.146   5.021
  155POPC   C3A 2288   8.527   8.027   5.445
  155POPC   C4A 2289   8.301   7.979   5.818
  155POPC   C1B 2290   8.821   7.849   4.673
  155POPC   C2B 2291   8.821   7.706   5.101
  155POPC   C3B 2292   9.026   7.855   5.486
  155POPC   C4B 2293   8.847   7.849   5.910
  156POPC   NC3 2294   2.696   1.172   3.817
  156POPC   PO4 2295   3.163   1.556   3.661
  156POPC   GL1 2296   3.063   1.271   4.140
  156POPC   GL2 2297   2.692   1.292   4.302
  156POPC   C1A 2298   3.063   1.317   4.650
  156POPC   D2A 2299   3.036   1.008   5.004
  156POPC   C3A 2300   3.057   1.158   5.427
  156POPC   C4A 2301   2.885   1.040   5.846
  156POPC   C1B 2302   2.527   1.240   4.697
  156POPC   C2B 2303   2.687   1.388   5.108
  156POPC   C3B 2304   2.583   1.306   5.528
  156POPC   C4B 2305   2.316   0.987   5.620
  157POPC   NC3 2306   0.596   3.291   4.017
  157POPC   PO4 2307  10.443   3.402   3.872
  157POPC   GL1 2308   0.143   3.554   4.270
  157POPC   GL2 2309   0.366   3.317   4.455
  157POPC   C1A 2310   0.044   3.618   4.715
  157POPC   D2A 2311   0.287   3.450   5.039
  157POPC   C3A 2312   0.159   3.423   5.457
  157POPC   C4A 2313   0.350   3.143   5.746
  157POPC   C1B 2314   0.715   3.347   4.710
  157POPC   C2B 2315   0.820   3.499   5.077
  157POPC   C3B 2316   0.740   3.359   5.467
  157POPC   C4B 2317   0.542   3.645   5.740
  158POPC   NC3 2318   8.790   5.379   3.830
  158POPC   PO4 2319   8.882   6.043   3.944
  158POPC   GL1 2320   8.837   5.765   4.326
  158POPC   GL2 2321   8.501   5.742   4.295
  158POPC   C1A 2322   8.951   5.530   4.740
  158POPC   D2A 2323   8.760   5.496   5.138
  158POPC   C3A 2324   8.859   5.548   5.544
  158POPC   C4A 2325   8.529   5.387   5.812
  158POPC   C1B 2326   8.473   5.696   4.736
  158POPC   C2B 2327   8.269   5.677   5.121
  158POPC   C3B 2328   8.418   5.831   5.483
  158POPC   C4B 2329   8.504   5.888   5.902
  159POPC   NC3 2330   7.915   4.894   3.851
  159POPC   PO4 2331   8.445   4.712   3.918
  159POPC   GL1 2332   8.236   4.777   4.306
  159POPC   GL2 2333   7.869   4.759   4.353
  159POPC   C1A 2334   8.222   4.867   4.766
  159POPC   D2A 2335   8.099   4.741   5.201
  159POPC   C3A 2336   7.832   4.843   5.582
  159POPC   C4A 2337   7.939   4.660   5.981
  159POPC   C1B 2338   7.743   5.027   4.743
  159POPC   C2B 2339   7.799   5.195   5.194
  159POPC   C3B 2340   7.559   5.263   5.604
  159POPC   C4B 2341   7.635   5.345   6.046
  160POPC   NC3 2342   2.062  10.309   3.818
  160POPC   PO4 2343   1.520   0.271   3.882
  160POPC   GL1 2344   1.749   0.007   4.222
  160POPC   GL2 2345   1.554  10.205   4.334
  160POPC   C1A 2346   2.048   0.010   4.650
  160POPC   D2A 2347   2.223  10.421   5.102
  160POPC   C3A 2348   2.014   0.074   5.508
  160POPC   C4A 2349   2.137   0.072   5.957
  160POPC   C1B 2350   1.648  10.173   4.796
  160POPC   C2B 2351   1.854  10.070   5.217
  160POPC   C3B 2352   1.993  10.075   5.672
  160POPC   C4B 2353   1.786  10.253   6.065
  161POPC   NC3 2354   1.876   4.499   4.044
  161POPC   PO4 2355   1.848   3.832   3.868
  161POPC   GL1 2356   2.034   4.031   4.234
  161POPC   GL2 2357   1.776   4.095   4.443
  161POPC   C1A 2358   2.203   3.996   4.695
  161POPC   D2A 2359   1.956   4.097   5.080
  161POPC   C3A 2360   2.181   4.005   5.491
  161POPC   C4A 2361   2.235   3.934   5.959
  161POPC   C1B 2362   1.792   4.478   4.686
  161POPC   C2B 2363   1.789   4.655   5.084
  161POPC   C3B 2364   1.796   4.425   5.444
  161POPC   C4B 2365   1.799   4.174   5.782
  162POPC   NC3 2366   7.071   0.658   3.950
  162POPC   PO4 2367   7.664   0.487   3.827
  162POPC   GL1 2368   7.587   0.606   4.246
  162POPC   GL2 2369   7.429   0.288   4.316
  162POPC   C1A 2370   7.555   0.569   4.712
  162POPC   D2A 2371   7.500   0.448   5.140
  162POPC   C3A 2372   7.494   0.713   5.491
  162POPC   C4A 2373   7.411   0.599   5.910
  162POPC   C1B 2374   7.181   0.223   4.724
  162POPC   C2B 2375   7.140   0.106   5.145
  162POPC   C3B 2376   7.166   0.209   5.597
  162POPC   C4B 2377   7.028   0.303   6.009
  163POPC   NC3 2378   7.914   0.122   3.917
  163POPC   PO4 2379   8.581   0.052   3.835
  163POPC   GL1 2380   8.305   0.181   4.233
  163POPC   GL2 2381   8.112   0.520   4.188
  163POPC   C1A 2382   7.905   0.193   4.541
  163POPC   D2A 2383   7.637  10.487   4.854
  163POPC   C3A 2384   7.811   0.049   5.267
  163POPC   C4A 2385   7.670   0.251   5.629
  163POPC   C1B 2386   8.017   0.716   4.578
  163POPC   C2B 2387   7.992   0.474   4.966
  163POPC   C3B 2388   7.974   0.574   5.373
  163POPC   C4B 2389   7.908   0.718   5.782
  164POPC   NC3 2390   8.787  10.205   4.092
  164POPC   PO4 2391   8.735   9.575   3.883
  164POPC   GL1 2392   8.861   9.728   4.329
  164POPC   GL2 2393   8.621   9.974   4.504
  164POPC   C1A 2394   8.865   9.645   4.785
  164POPC   D2A 2395   8.771   9.939   5.082
  164POPC   C3A 2396   8.943   9.839   5.488
  164POPC   C4A 2397   8.793   9.925   5.895
  164POPC   C1B 2398   8.668  10.360   4.742
  164POPC   C2B 2399   8.516  10.456   5.133
  164POPC   C3B 2400   8.612  10.246   5.495
  164POPC   C4B 2401   8.688  10.419   5.866
  165POPC   NC3 2402   2.221   2.645   3.927
  165POPC   PO4 2403   1.556   2.657   3.820
  165POPC   GL1 2404   1.649   2.761   4.249
  165POPC   GL2 2405   1.990   2.792   4.341
  165POPC   C1A 2406   1.560   2.778   4.702
  165POPC   D2A 2407   1.781   2.764   5.102
  165POPC   C3A 2408   1.518   2.855   5.357
  165POPC   C4A 2409   1.570   2.805   5.729
  165POPC   C1B 2410   2.077   2.637   4.730
  165POPC   C2B 2411   2.330   2.495   5.055
  165POPC   C3B 2412   2.165   2.368   5.454
  165POPC   C4B 2413   2.040   2.625   5.776
  166POPC   NC3 2414   6.650   8.358   3.741
  166POPC   PO4 2415   6.155   8.834   3.848
  166POPC   GL1 2416   6.168   8.780   4.362
  166POPC   GL2 2417   6.534   8.806   4.529
  166POPC   C1A 2418   6.275   8.454   4.737
  166POPC   D2A 2419   6.510   8.581   5.117
  166POPC   C3A 2420   6.328   8.542   5.543
  166POPC   C4A 2421   6.191   8.188   5.808
  166POPC   C1B 2422   6.238   8.959   4.850
  166POPC   C2B 2423   6.213   9.033   5.281
  166POPC   C3B 2424   6.566   8.992   5.529
  166POPC   C4B 2425   6.622   8.995   5.961
  167POPC   NC3 2426  10.205   7.251   3.969
  167POPC   PO4 2427   9.795   6.788   3.821
  167POPC   GL1 2428   9.838   7.027   4.264
  167POPC   GL2 2429  10.175   7.162   4.446
  167POPC   C1A 2430   9.811   7.014   4.738
  167POPC   D2A 2431   9.959   6.875   5.128
  167POPC   C3A 2432  10.007   7.098   5.487
  167POPC   C4A 2433  10.065   6.988   5.879
  167POPC   C1B 2434  10.228   7.405   4.838
  167POPC   C2B 2435  10.417   7.207   5.217
  167POPC   C3B 2436   0.017   6.961   5.642
  167POPC   C4B 2437  10.500   7.061   6.133
  168POPC   NC3 2438   8.387   1.592   4.158
  168POPC   PO4 2439   8.179   0.935   3.906
  168POPC   GL1 2440   8.199   1.108   4.271
  168POPC   GL2 2441   7.832   1.104   4.310
  168POPC   C1A 2442   8.411   1.102   4.672
  168POPC   D2A 2443   8.180   0.940   5.061
  168POPC   C3A 2444   8.308   0.947   5.509
  168POPC   C4A 2445   8.179   1.140   5.926
  168POPC   C1B 2446   7.945   1.256   4.714
  168POPC   C2B 2447   7.878   1.353   5.144
  168POPC   C3B 2448   7.826   1.165   5.543
  168POPC   C4B 2449   7.563   1.400   5.818
  169POPC   NC3 2450   4.917   8.422   4.042
  169POPC   PO4 2451   4.841   9.130   3.950
  169POPC   GL1 2452   4.910   9.004   4.347
  169POPC   GL2 2453   4.636   8.769   4.330
  169POPC   C1A 2454   4.759   9.008   4.769
  169POPC   D2A 2455   4.606   8.992   5.179
  169POPC   C3A 2456   4.808   8.791   5.440
  169POPC   C4A 2457   4.940   8.707   5.812
  169POPC   C1B 2458   4.772   8.475   4.666
  169POPC   C2B 2459   4.921   8.468   5.083
  169POPC   C3B 2460   4.873   8.297   5.505
  169POPC   C4B 2461   4.909   8.199   5.947
  170POPC   NC3 2462   7.786   6.497   3.924
  170POPC   PO4 2463   7.559   7.023   4.082
  170POPC   GL1 2464   7.824   6.732   4.405
  170POPC   GL2 2465   8.043   6.453   4.361
  170POPC   C1A 2466   7.944   6.535   4.851
  170POPC   D2A 2467   7.747   6.336   5.219
  170POPC   C3A 2468   7.756   6.561   5.617
  170POPC   C4A 2469   7.972   6.579   5.993
  170POPC   C1B 2470   8.214   6.139   4.625
  170POPC   C2B 2471   8.336   6.195   5.034
  170POPC   C3B 2472   8.224   6.403   5.381
  170POPC   C4B 2473   8.048   6.122   5.695
  171POPC   NC3 2474   5.648   2.262   3.995
  171POPC   PO4 2475   5.342   1.659   3.872
  171POPC   GL1 2476   5.519   1.620   4.275
  171POPC   GL2 2477   5.816   1.831   4.238
  171POPC   C1A 2478   5.702   1.613   4.689
  171POPC   D2A 2479   5.909   1.589   5.057
  171POPC   C3A 2480   5.682   1.698   5.416
  171POPC   C4A 2481   5.510   2.034   5.611
  171POPC   C1B 2482   5.837   2.106   4.644
  171POPC   C2B 2483   5.745   2.104   5.092
  171POPC   C3B 2484   5.796   2.402   5.433
  171POPC   C4B 2485   5.849   2.340   5.879
  172POPC   NC3 2486   1.459   3.797   4.124
  172POPC   PO4 2487   0.935   3.439   3.756
  172POPC   GL1 2488   0.988   3.559   4.218
  172POPC   GL2 2489   1.059   3.229   4.362
  172POPC   C1A 2490   1.089   3.714   4.666
  172POPC   D2A 2491   1.299   3.728   5.093
  172POPC   C3A 2492   1.006   3.789   5.470
  172POPC   C4A 2493   1.028   3.584   5.872
  172POPC   C1B 2494   1.337   3.251   4.698
  172POPC   C2B 2495   1.209   3.186   5.109
  172POPC   C3B 2496   1.349   3.377   5.482
  172POPC   C4B 2497   1.424   3.256   5.882
  173POPC   NC3 2498   0.789   2.310   4.031
  173POPC   PO4 2499   0.745   2.884   4.169
  173POPC   GL1 2500   0.677   2.584   4.438
  173POPC   GL2 2501   0.346   2.590   4.441
  173POPC   C1A 2502   0.691   2.367   4.787
  173POPC   D2A 2503   0.484   2.485   5.136
  173POPC   C3A 2504   0.648   2.643   5.544
  173POPC   C4A 2505   0.406   2.468   5.838
  173POPC   C1B 2506   0.453   2.897   4.789
  173POPC   C2B 2507   0.461   2.995   5.224
  173POPC   C3B 2508   0.163   2.734   5.465
  173POPC   C4B 2509   0.007   2.788   5.870
  174POPC   NC3 2510   1.822   7.207   4.026
  174POPC   PO4 2511   2.506   7.262   3.896
  174POPC   GL1 2512   2.236   7.137   4.304
  174POPC   GL2 2513   1.920   7.326   4.491
  174POPC   C1A 2514   2.164   6.993   4.757
  174POPC   D2A 2515   2.127   7.253   5.138
  174POPC   C3A 2516   2.148   6.945   5.461
  174POPC   C4A 2517   2.073   6.839   5.873
  174POPC   C1B 2518   1.674   7.145   4.804
  174POPC   C2B 2519   1.694   6.972   5.203
  174POPC   C3B 2520   1.701   7.137   5.612
  174POPC   C4B 2521   1.669   7.414   5.953
  175POPC   NC3 2522   7.231   7.340   4.013
  175POPC   PO4 2523   6.772   7.923   3.898
  175POPC   GL1 2524   7.019   7.967   4.355
  175POPC   GL2 2525   7.386   7.950   4.386
  175POPC   C1A 2526   7.092   7.780   4.782
  175POPC   D2A 2527   7.272   7.778   5.219
  175POPC   C3A 2528   7.094   7.717   5.653
  175POPC   C4A 2529   7.060   7.378   5.967
  175POPC   C1B 2530   7.346   8.238   4.748
  175POPC   C2B 2531   7.393   8.395   5.165
  175POPC   C3B 2532   7.200   8.205   5.509
  175POPC   C4B 2533   7.264   8.140   5.918
  176POPC   NC3 2534   1.575   2.197   3.728
  176POPC   PO4 2535   1.658   1.595   4.120
  176POPC   GL1 2536   1.449   1.869   4.378
  176POPC   GL2 2537   1.139   1.733   4.528
  176POPC   C1A 2538   1.502   1.898   4.813
  176POPC   D2A 2539   1.408   1.976   5.201
  176POPC   C3A 2540   1.101   1.753   5.463
  176POPC   C4A 2541   1.244   1.655   5.907
  176POPC   C1B 2542   0.997   1.858   4.920
  176POPC   C2B 2543   0.923   2.184   5.192
  176POPC   C3B 2544   0.748   2.155   5.573
  176POPC   C4B 2545   0.993   2.093   5.906
  177POPC   NC3 2546   5.025   0.576   3.826
  177POPC   PO4 2547   4.385   0.546   4.008
  177POPC   GL1 2548   4.649   0.552   4.385
  177POPC   GL2 2549   4.942   0.360   4.286
  177POPC   C1A 2550   4.689   0.694   4.825
  177POPC   D2A 2551   4.564   0.440   5.117
  177POPC   C3A 2552   4.669   0.480   5.491
  177POPC   C4A 2553   4.729   0.231   5.819
  177POPC   C1B 2554   4.930   0.262   4.723
  177POPC   C2B 2555   5.093   0.424   5.113
  177POPC   C3B 2556   5.161   0.359   5.553
  177POPC   C4B 2557   4.983   0.667   5.850
  178POPC   NC3 2558   3.460   1.801   3.957
  178POPC   PO4 2559   2.848   1.705   4.076
  178POPC   GL1 2560   3.172   1.730   4.374
  178POPC   GL2 2561   3.375   2.024   4.410
  178POPC   C1A 2562   3.125   1.825   4.815
  178POPC   D2A 2563   3.336   1.939   5.181
  178POPC   C3A 2564   3.229   1.633   5.458
  178POPC   C4A 2565   2.971   1.571   5.813
  178POPC   C1B 2566   3.286   2.315   4.762
  178POPC   C2B 2567   3.504   2.437   5.127
  178POPC   C3B 2568   3.661   2.326   5.523
  178POPC   C4B 2569   3.474   2.005   5.697
  179POPC   NC3 2570   6.536   2.294   3.915
  179POPC   PO4 2571   6.838   1.692   4.002
  179POPC   GL1 2572   6.622   1.857   4.296
  179POPC   GL2 2573   6.312   1.843   4.122
  179POPC   C1A 2574   6.686   2.000   4.732
  179POPC   D2A 2575   6.845   1.878   5.135
  179POPC   C3A 2576   6.613   2.032   5.471
  179POPC   C4A 2577   6.479   1.697   5.735
  179POPC   C1B 2578   6.219   1.788   4.592
  179POPC   C2B 2579   6.266   1.953   5.035
  179POPC   C3B 2580   6.107   1.978   5.454
  179POPC   C4B 2581   5.986   1.836   5.840
  180POPC   NC3 2582   8.880   0.380   3.930
  180POPC   PO4 2583   9.197  10.423   4.161
  180POPC   GL1 2584   8.848   0.173   4.384
  180POPC   GL2 2585   8.654   0.549   4.346
  180POPC   C1A 2586   8.922   0.378   4.771
  180POPC   D2A 2587   9.158   0.371   5.142
  180POPC   C3A 2588   8.904   0.205   5.457
  180POPC   C4A 2589   8.819   0.402   5.815
  180POPC   C1B 2590   8.469   0.598   4.767
  180POPC   C2B 2591   8.484   0.487   5.196
  180POPC   C3B 2592   8.370   0.321   5.594
  180POPC   C4B 2593   8.357   0.551   5.979
  181POPC   NC3 2594  10.281   0.548   3.848
  181POPC   PO4 2595   9.637   0.464   3.987
  181POPC   GL1 2596   9.903   0.347   4.294
  181POPC   GL2 2597  10.236   0.404   4.322
  181POPC   C1A 2598   9.823   0.115   4.655
  181POPC   D2A 2599   9.698   0.406   4.972
  181POPC   C3A 2600   9.860   0.392   5.396
  181POPC   C4A 2601  10.005   0.284   5.825
  181POPC   C1B 2602  10.159   0.460   4.759
  181POPC   C2B 2603  10.186   0.679   5.136
  181POPC   C3B 2604  10.321   0.671   5.544
  181POPC   C4B 2605  10.403   0.693   5.984
  182POPC   NC3 2606   8.504   2.572   3.999
  182POPC   PO4 2607   8.989   3.024   3.883
  182POPC   GL1 2608   8.932   2.848   4.271
  182POPC   GL2 2609   8.578   2.968   4.340
  182POPC   C1A 2610   9.111   2.724   4.667
  182POPC   D2A 2611   8.915   2.869   5.022
  182POPC   C3A 2612   8.974   2.574   5.351
  182POPC   C4A 2613   8.960   2.641   5.797
  182POPC   C1B 2614   8.609   2.610   4.636
  182POPC   C2B 2615   8.567   2.492   5.042
  182POPC   C3B 2616   8.522   2.802   5.361
  182POPC   C4B 2617   8.451   2.613   5.735
  183POPC   NC3 2618   4.649  10.158   3.850
  183POPC   PO4 2619   5.228   0.026   3.868
  183POPC   GL1 2620   5.200  10.388   4.274
  183POPC   GL2 2621   5.033  10.085   4.173
  183POPC   C1A 2622   5.327  10.438   4.708
  183POPC   D2A 2623   5.067  10.413   5.084
  183POPC   C3A 2624   5.263  10.359   5.476
  183POPC   C4A 2625   5.013  10.326   5.796
  183POPC   C1B 2626   4.789  10.221   4.557
  183POPC   C2B 2627   4.772  10.008   4.977
  183POPC   C3B 2628   4.943   9.939   5.378
  183POPC   C4B 2629   4.727   9.911   5.785
  184POPC   NC3 2630   9.236   1.281   3.942
  184POPC   PO4 2631   9.805   1.309   4.158
  184POPC   GL1 2632   9.693   1.032   4.448
  184POPC   GL2 2633   9.373   1.033   4.362
  184POPC   C1A 2634   9.858   0.869   4.776
  184POPC   D2A 2635   9.699   0.854   5.183
  184POPC   C3A 2636   9.853   1.070   5.498
  184POPC   C4A 2637   9.535   1.294   5.703
  184POPC   C1B 2638   9.408   1.268   4.774
  184POPC   C2B 2639   9.433   1.323   5.203
  184POPC   C3B 2640   9.094   1.241   5.471
  184POPC   C4B 2641   9.061   1.459   5.861
  185POPC   NC3 2642   2.428   8.771   3.900
  185POPC   PO4 2643   2.808   8.209   3.790
  185POPC   GL1 2644   2.656   8.545   4.263
  185POPC   GL2 2645   2.349   8.605   4.391
  185POPC   C1A 2646   2.734   8.779   4.672
  185POPC   D2A 2647   2.918   8.745   5.081
  185POPC   C3A 2648   2.744   9.061   5.381
  185POPC   C4A 2649   2.848   8.894   5.793
  185POPC   C1B 2650   2.204   8.401   4.747
  185POPC   C2B 2651   2.416   8.517   5.090
  185POPC   C3B 2652   2.627   8.574   5.472
  185POPC   C4B 2653   2.559   8.402   5.880
  186POPC   NC3 2654   7.300  10.210   3.842
  186POPC   PO4 2655   6.962   0.244   4.111
  186POPC   GL1 2656   7.089  10.374   4.323
  186POPC   GL2 2657   7.124  10.010   4.263
  186POPC   C1A 2658   6.864  10.208   4.664
  186POPC   D2A 2659   6.703  10.354   5.024
  186POPC   C3A 2660   6.874  10.295   5.431
  186POPC   C4A 2661   6.821  10.370   5.841
  186POPC   C1B 2662   7.267   9.887   4.668
  186POPC   C2B 2663   7.166  10.065   5.064
  186POPC   C3B 2664   7.060   9.829   5.436
  186POPC   C4B 2665   7.216  10.071   5.759
  187POPC   NC3 2666   7.151   9.221   3.805
  187POPC   PO4 2667   7.496   9.800   3.999
  187POPC   GL1 2668   7.358   9.443   4.294
  187POPC   GL2 2669   7.059   9.223   4.291
  187POPC   C1A 2670   7.206   9.355   4.750
  187POPC   D2A 2671   7.322   9.584   5.088
  187POPC   C3A 2672   7.359   9.365   5.449
  187POPC   C4A 2673   7.272   9.552   5.821
  187POPC   C1B 2674   6.870   9.621   4.466
  187POPC   C2B 2675   6.837   9.693   4.926
  187POPC   C3B 2676   6.885   9.338   5.271
  187POPC   C4B 2677   7.048   9.059   5.675
  188POPC   NC3 2678   9.164   8.953   3.883
  188POPC   PO4 2679   9.704   8.591   3.819
  188POPC   GL1 2680   9.729   8.761   4.204
  188POPC   GL2 2681   9.427   8.617   4.311
  188POPC   C1A 2682   9.760   8.808   4.656
  188POPC   D2A 2683   9.609   8.892   5.086
  188POPC   C3A 2684   9.873   8.832   5.445
  188POPC   C4A 2685   9.767   8.913   5.867
  188POPC   C1B 2686   9.240   8.785   4.721
  188POPC   C2B 2687   9.134   8.712   5.151
  188POPC   C3B 2688   9.272   8.716   5.597
  188POPC   C4B 2689   8.977   8.677   5.933
  189POPC   NC3 2690   3.659  10.048   3.758
  189POPC   PO4 2691   2.967   9.733   3.872
  189POPC   GL1 2692   3.149   9.745   4.260
  189POPC   GL2 2693   3.427   9.953   4.214
  189POPC   C1A 2694   3.000   9.857   4.680
  189POPC   D2A 2695   3.074  10.083   5.064
  189POPC   C3A 2696   3.029   9.884   5.468
  189POPC   C4A 2697   3.222   9.821   5.869
  189POPC   C1B 2698   3.412  10.163   4.622
  189POPC   C2B 2699   3.587  10.081   5.055
  189POPC   C3B 2700   3.492  10.167   5.508
  189POPC   C4B 2701   3.830   0.006   5.732
  190POPC   NC3 2702   8.277   9.367   3.898
  190POPC   PO4 2703   8.377   9.976   4.025
  190POPC   GL1 2704   8.398   9.548   4.333
  190POPC   GL2 2705   8.700   9.256   4.256
  190POPC   C1A 2706   8.491   9.284   4.694
  190POPC   D2A 2707   8.632   9.212   5.097
  190POPC   C3A 2708   8.571   9.549   5.325
  190POPC   C4A 2709   8.623   9.489   5.743
  190POPC   C1B 2710   8.982   9.199   4.604
  190POPC   C2B 2711   9.145   9.251   5.045
  190POPC   C3B 2712   9.014   9.315   5.469
  190POPC   C4B 2713   9.183   9.529   5.840
  191POPC   NC3 2714   2.583   0.521   3.802
  191POPC   PO4 2715   3.092   0.840   3.752
  191POPC   GL1 2716   2.730   0.806   4.173
  191POPC   GL2 2717   2.770   0.451   4.264
  191POPC   C1A 2718   2.710   0.749   4.687
  191POPC   D2A 2719   2.510   0.889   5.074
  191POPC   C3A 2720   2.717   0.791   5.394
  191POPC   C4A 2721   2.664   0.581   5.756
  191POPC   C1B 2722   2.506   0.278   4.578
  191POPC   C2B 2723   2.423   0.387   4.992
  191POPC   C3B 2724   2.468   0.285   5.404
  191POPC   C4B 2725   2.593   0.075   5.756
  192POPC   NC3 2726   8.785   6.514   3.886
  192POPC   PO4 2727   8.161   6.769   3.980
  192POPC   GL1 2728   8.501   6.637   4.291
  192POPC   GL2 2729   8.536   6.271   4.262
  192POPC   C1A 2730   8.464   6.607   4.744
  192POPC   D2A 2731   8.742   6.532   5.111
  192POPC   C3A 2732   8.739   6.741   5.540
  192POPC   C4A 2733   8.922   6.688   5.975
  192POPC   C1B 2734   8.742   6.146   4.663
  192POPC   C2B 2735   8.792   5.997   5.088
  192POPC   C3B 2736   8.770   6.190   5.495
  192POPC   C4B 2737   8.487   6.379   5.800
  193POPC   NC3 2738   9.700   8.108   3.875
  193POPC   PO4 2739   9.037   8.184   3.968
  193POPC   GL1 2740   9.207   8.168   4.360
  193POPC   GL2 2741   9.538   8.064   4.357
  193POPC   C1A 2742   9.467   8.340   4.760
  193POPC   D2A 2743   9.592   8.088   5.115
  193POPC   C3A 2744   9.430   8.221   5.515
  193POPC   C4A 2745   9.201   8.206   5.908
  193POPC   C1B 2746   9.327   7.856   4.729
  193POPC   C2B 2747   9.335   7.636   5.119
  193POPC   C3B 2748   9.558   7.705   5.521
  193POPC   C4B 2749   9.856   7.687   5.885
  194POPC   NC3 2750   1.201   2.933   3.954
  194POPC   PO4 2751   1.098   2.267   3.707
  194POPC   GL1 2752   1.288   2.321   4.170
  194POPC   GL2 2753   1.173   2.625   4.338
  194POPC   C1A 2754   1.187   2.266   4.665
  194POPC   D2A 2755   1.351   2.460   5.058
  194POPC   C3A 2756   1.186   2.450   5.531
  194POPC   C4A 2757   1.370   2.415   5.958
  194POPC   C1B 2758   1.042   2.803   4.742
  194POPC   C2B 2759   0.944   2.750   5.156
  194POPC   C3B 2760   1.065   2.945   5.553
  194POPC   C4B 2761   0.852   3.064   5.872
  195POPC   NC3 2762   6.599   1.076   3.473
  195POPC   PO4 2763   7.204   1.143   3.837
  195POPC   GL1 2764   7.280   1.028   4.225
  195POPC   GL2 2765   7.205   1.340   4.382
  195POPC   C1A 2766   7.099   0.740   4.577
  195POPC   D2A 2767   7.135   0.856   5.000
  195POPC   C3A 2768   7.023   0.644   5.337
  195POPC   C4A 2769   6.811   0.694   5.704
  195POPC   C1B 2770   7.477   1.081   4.671
  195POPC   C2B 2771   7.639   0.939   5.051
  195POPC   C3B 2772   7.375   1.191   5.336
  195POPC   C4B 2773   7.188   1.056   5.713
  196POPC   NC3 2774   1.902   1.262   3.887
  196POPC   PO4 2775   2.418   1.572   3.773
  196POPC   GL1 2776   2.212   1.498   4.224
  196POPC   GL2 2777   2.177   1.114   4.302
  196POPC   C1A 2778   2.023   1.421   4.667
  196POPC   D2A 2779   2.083   1.155   5.026
  196POPC   C3A 2780   2.099   1.393   5.401
  196POPC   C4A 2781   2.109   1.402   5.846
  196POPC   C1B 2782   1.803   0.974   4.599
  196POPC   C2B 2783   1.608   0.976   5.048
  196POPC   C3B 2784   1.772   1.003   5.496
  196POPC   C4B 2785   1.931   0.945   5.946
  197POPC   NC3 2786   3.371   9.162   4.027
  197POPC   PO4 2787   4.088   9.110   4.040
  197POPC   GL1 2788   3.760   9.141   4.364
  197POPC   GL2 2789   3.622   9.484   4.339
  197POPC   C1A 2790   3.715   9.172   4.824
  197POPC   D2A 2791   3.673   9.187   5.267
  197POPC   C3A 2792   3.842   9.581   5.397
  197POPC   C4A 2793   3.701   9.758   5.762
  197POPC   C1B 2794   3.367   9.522   4.690
  197POPC   C2B 2795   3.371   9.641   5.112
  197POPC   C3B 2796   3.341   9.493   5.499
  197POPC   C4B 2797   3.022   9.365   5.745
  198POPC   NC3 2798   8.532  10.191   3.501
  198POPC   PO4 2799   7.821  10.209   3.732
  198POPC   GL1 2800   7.952  10.228   4.199
  198POPC   GL2 2801   7.608  10.298   4.267
  198POPC   C1A 2802   8.187  10.262   4.604
  198POPC   D2A 2803   8.268   9.983   4.976
  198POPC   C3A 2804   8.108  10.132   5.384
  198POPC   C4A 2805   8.064  10.432   5.735
  198POPC   C1B 2806   7.744  10.019   4.596
  198POPC   C2B 2807   7.706   9.953   5.013
  198POPC   C3B 2808   7.573  10.090   5.395
  198POPC   C4B 2809   7.756  10.005   5.776
  199POPC   NC3 2810   4.910   1.853   3.786
  199POPC   PO4 2811   4.489   2.245   3.953
  199POPC   GL1 2812   4.724   1.921   4.267
  199POPC   GL2 2813   4.994   1.659   4.285
  199POPC   C1A 2814   4.636   1.662   4.669
  199POPC   D2A 2815   4.731   1.760   5.122
  199POPC   C3A 2816   4.815   1.616   5.548
  199POPC   C4A 2817   4.739   1.877   5.910
  199POPC   C1B 2818   5.166   1.636   4.735
  199POPC   C2B 2819   5.241   1.833   5.171
  199POPC   C3B 2820   5.019   2.085   5.504
  199POPC   C4B 2821   5.152   2.306   5.882
  200POPC   NC3 2822   2.462   1.942   4.113
  200POPC   PO4 2823   2.056   2.270   3.699
  200POPC   GL1 2824   1.874   2.307   4.126
  200POPC   GL2 2825   1.960   1.996   4.234
  200POPC   C1A 2826   1.695   2.319   4.559
  200POPC   D2A 2827   1.846   2.260   5.028
  200POPC   C3A 2828   1.671   2.345   5.451
  200POPC   C4A 2829   1.471   2.024   5.683
  200POPC   C1B 2830   1.985   1.921   4.672
  200POPC   C2B 2831   1.867   1.725   5.103
  200POPC   C3B 2832   1.951   1.862   5.562
  200POPC   C4B 2833   1.753   1.719   5.985
  201POPC   NC3 2834   3.017   3.519   4.030
  201POPC   PO4 2835   2.432   3.132   3.906
  201POPC   GL1 2836   2.309   3.243   4.304
  201POPC   GL2 2837   2.678   3.312   4.409
  201POPC   C1A 2838   2.288   3.457   4.703
  201POPC   D2A 2839   2.611   3.362   5.021
  201POPC   C3A 2840   2.541   3.299   5.433
  201POPC   C4A 2841   2.837   3.257   5.788
  201POPC   C1B 2842   2.709   3.732   4.694
  201POPC   C2B 2843   2.556   3.864   5.159
  201POPC   C3B 2844   2.623   3.755   5.656
  201POPC   C4B 2845   2.884   3.699   6.064
  202POPC   NC3 2846   5.244   9.355   3.896
  202POPC   PO4 2847   4.666   9.706   3.971
  202POPC   GL1 2848   4.823   9.662   4.380
  202POPC   GL2 2849   5.136   9.510   4.362
  202POPC   C1A 2850   4.895   9.536   4.804
  202POPC   D2A 2851   4.604   9.484   5.090
  202POPC   C3A 2852   4.716   9.456   5.505
  202POPC   C4A 2853   4.642   9.123   5.773
  202POPC   C1B 2854   5.265   9.201   4.691
  202POPC   C2B 2855   5.116   9.073   5.137
  202POPC   C3B 2856   5.140   9.130   5.616
  202POPC   C4B 2857   5.198   9.060   6.087
  203POPC   NC3 2858   9.468   2.829   3.926
  203POPC   PO4 2859   9.502   2.174   3.761
  203POPC   GL1 2860   9.514   2.266   4.219
  203POPC   GL2 2861   9.511   2.608   4.374
  203POPC   C1A 2862   9.428   2.188   4.657
  203POPC   D2A 2863   9.334   2.282   5.089
  203POPC   C3A 2864   9.733   2.388   5.311
  203POPC   C4A 2865   9.751   2.380   5.770
  203POPC   C1B 2866   9.613   2.631   4.806
  203POPC   C2B 2867   9.400   2.801   5.120
  203POPC   C3B 2868   9.421   2.699   5.531
  203POPC   C4B 2869   9.449   2.776   5.914
  204POPC   NC3 2870   2.222   5.129   4.064
  204POPC   PO4 2871   1.576   4.922   3.978
  204POPC   GL1 2872   1.717   5.163   4.311
  204POPC   GL2 2873   1.929   4.880   4.394
  204POPC   C1A 2874   1.691   5.429   4.727
  204POPC   D2A 2875   1.882   5.426   5.154
  204POPC   C3A 2876   1.639   5.413   5.548
  204POPC   C4A 2877   1.817   5.128   5.888
  204POPC   C1B 2878   2.055   5.051   4.791
  204POPC   C2B 2879   2.202   4.936   5.197
  204POPC   C3B 2880   2.082   4.832   5.565
  204POPC   C4B 2881   2.203   4.467   5.737
  205POPC   NC3 2882   2.207   5.771   3.645
  205POPC   PO4 2883   1.600   5.765   3.877
  205POPC   GL1 2884   1.950   5.584   4.118
  205POPC   GL2 2885   2.143   5.881   4.160
  205POPC   C1A 2886   2.155   5.536   4.558
  205POPC   D2A 2887   2.131   5.786   4.912
  205POPC   C3A 2888   2.271   5.756   5.367
  205POPC   C4A 2889   2.163   5.358   5.584
  205POPC   C1B 2890   1.799   5.909   4.496
  205POPC   C2B 2891   1.694   6.032   4.904
  205POPC   C3B 2892   1.786   5.928   5.330
  205POPC   C4B 2893   1.933   5.813   5.744
  206POPC   NC3 2894   5.829   0.675   3.969
  206POPC   PO4 2895   6.016   0.066   3.989
  206POPC   GL1 2896   5.900   0.215   4.374
  206POPC   GL2 2897   5.755   0.546   4.440
  206POPC   C1A 2898   5.816   0.105   4.796
  206POPC   D2A 2899   5.532   0.143   5.148
  206POPC   C3A 2900   5.674   0.359   5.493
  206POPC   C4A 2901   6.060   0.266   5.628
  206POPC   C1B 2902   5.522   0.510   4.786
  206POPC   C2B 2903   5.533   0.717   5.139
  206POPC   C3B 2904   5.365   0.824   5.520
  206POPC   C4B 2905   5.484   0.631   5.914
  207POPC   NC3 2906   6.550   1.333   4.007
  207POPC   PO4 2907   6.638   0.734   3.796
  207POPC   GL1 2908   6.757   0.961   4.242
  207POPC   GL2 2909   6.398   1.065   4.417
  207POPC   C1A 2910   6.804   1.138   4.692
  207POPC   D2A 2911   6.593   0.924   5.060
  207POPC   C3A 2912   6.518   1.083   5.501
  207POPC   C4A 2913   6.737   1.260   5.861
  207POPC   C1B 2914   6.307   1.324   4.795
  207POPC   C2B 2915   6.361   1.484   5.231
  207POPC   C3B 2916   6.071   1.382   5.571
  207POPC   C4B 2917   6.227   1.316   5.984
  208POPC   NC3 2918   6.838   3.209   3.622
  208POPC   PO4 2919   6.776   2.690   3.991
  208POPC   GL1 2920   7.125   2.664   4.296
  208POPC   GL2 2921   7.237   2.314   4.304
  208POPC   C1A 2922   7.216   2.931   4.675
  208POPC   D2A 2923   7.210   3.153   5.089
  208POPC   C3A 2924   7.250   3.020   5.536
  208POPC   C4A 2925   7.153   3.060   6.017
  208POPC   C1B 2926   7.345   2.446   4.717
  208POPC   C2B 2927   7.271   2.633   5.091
  208POPC   C3B 2928   7.448   2.564   5.481
  208POPC   C4B 2929   7.238   2.579   5.857
  209POPC   NC3 2930   9.895   3.702   3.691
  209POPC   PO4 2931  10.355   4.050   3.926
  209POPC   GL1 2932  10.204   4.159   4.283
  209POPC   GL2 2933  10.319   4.423   4.373
  209POPC   C1A 2934   9.960   4.187   4.653
  209POPC   D2A 2935   9.735   4.333   5.025
  209POPC   C3A 2936   9.934   4.076   5.320
  209POPC   C4A 2937  10.012   4.102   5.695
  209POPC   C1B 2938  10.481   4.127   4.692
  209POPC   C2B 2939  10.393   3.967   5.088
  209POPC   C3B 2940  10.420   4.255   5.417
  209POPC   C4B 2941  10.388   4.416   5.793
  210POPC   NC3 2942   7.844   3.316   4.108
  210POPC   PO4 2943   8.251   3.690   3.991
  210POPC   GL1 2944   8.191   3.521   4.420
  210POPC   GL2 2945   8.113   3.146   4.525
  210POPC   C1A 2946   8.191   3.540   4.896
  210POPC   D2A 2947   8.118   3.210   5.217
  210POPC   C3A 2948   8.065   3.364   5.642
  210POPC   C4A 2949   7.941   3.652   5.955
  210POPC   C1B 2950   7.752   3.302   4.822
  210POPC   C2B 2951   7.635   3.389   5.282
  210POPC   C3B 2952   7.543   3.404   5.733
  210POPC   C4B 2953   7.604   3.336   6.192
  211POPC   NC3 2954   0.250   8.934   4.017
  211POPC   PO4 2955   0.551   8.370   3.967
  211POPC   GL1 2956   0.540   8.529   4.345
  211POPC   GL2 2957   0.203   8.630   4.409
  211POPC   C1A 2958   0.454   8.361   4.740
  211POPC   D2A 2959   0.447   8.090   5.057
  211POPC   C3A 2960   0.432   8.321   5.421
  211POPC   C4A 2961   0.502   8.566   5.778
  211POPC   C1B 2962   0.465   8.947   4.641
  211POPC   C2B 2963   0.479   9.088   5.045
  211POPC   C3B 2964   0.359   8.872   5.401
  211POPC   C4B 2965   0.168   8.967   5.784
  212POPC   NC3 2966   2.320   6.833   3.817
  212POPC   PO4 2967   1.679   6.758   3.965
  212POPC   GL1 2968   1.785   6.825   4.381
  212POPC   GL2 2969   2.093   6.625   4.350
  212POPC   C1A 2970   1.766   6.640   4.793
  212POPC   D2A 2971   1.720   6.443   5.181
  212POPC   C3A 2972   1.748   6.610   5.571
  212POPC   C4A 2973   1.861   6.380   5.974
  212POPC   C1B 2974   2.124   6.272   4.672
  212POPC   C2B 2975   2.182   6.232   5.124
  212POPC   C3B 2976   2.119   6.253   5.553
  212POPC   C4B 2977   2.371   6.395   5.888
  213POPC   NC3 2978  10.131   4.461   3.870
  213POPC   PO4 2979   9.991   5.123   3.705
  213POPC   GL1 2980   9.988   4.877   4.133
  213POPC   GL2 2981  10.302   4.934   4.235
  213POPC   C1A 2982   9.996   4.706   4.611
  213POPC   D2A 2983  10.223   4.480   4.992
  213POPC   C3A 2984  10.020   4.571   5.409
  213POPC   C4A 2985   9.898   4.568   5.859
  213POPC   C1B 2986  10.284   5.125   4.647
  213POPC   C2B 2987  10.155   4.974   5.046
  213POPC   C3B 2988  10.077   5.064   5.475
  213POPC   C4B 2989  10.232   4.928   5.835
  214POPC   NC3 2990   3.380   2.605   3.721
  214POPC   PO4 2991   3.219   3.126   4.097
  214POPC   GL1 2992   3.538   2.789   4.236
  214POPC   GL2 2993   3.342   2.531   4.306
  214POPC   C1A 2994   3.738   2.690   4.675
  214POPC   D2A 2995   3.737   2.931   5.084
  214POPC   C3A 2996   3.802   2.811   5.531
  214POPC   C4A 2997   3.628   2.674   5.940
  214POPC   C1B 2998   3.265   2.836   4.683
  214POPC   C2B 2999   3.216   2.844   5.135
  214POPC   C3B 3000   3.211   2.631   5.553
  214POPC   C4B 3001   3.144   2.849   5.951
  215POPC   NC3 3002   1.437   8.894   3.839
  215POPC   PO4 3003   2.129   9.188   3.834
  215POPC   GL1 3004   2.032   8.967   4.207
  215POPC   GL2 3005   1.796   8.677   4.236
  215POPC   C1A 3006   2.007   8.859   4.656
  215POPC   D2A 3007   1.889   8.686   5.053
  215POPC   C3A 3008   2.101   8.741   5.421
  215POPC   C4A 3009   2.300   8.821   5.782
  215POPC   C1B 3010   1.687   8.433   4.643
  215POPC   C2B 3011   1.677   8.175   5.015
  215POPC   C3B 3012   1.902   8.229   5.378
  215POPC   C4B 3013   2.053   8.357   5.768
  216POPC   NC3 3014   0.456   9.456   3.697
  216POPC   PO4 3015  10.354   9.066   3.798
  216POPC   GL1 3016  10.438   9.187   4.292
  216POPC   GL2 3017   0.295   9.358   4.336
  216POPC   C1A 3018   0.028   9.249   4.759
  216POPC   D2A 3019   0.211   9.549   5.055
  216POPC   C3A 3020   0.324   9.381   5.447
  216POPC   C4A 3021   0.045   9.516   5.748
  216POPC   C1B 3022   0.572   9.472   4.722
  216POPC   C2B 3023   0.742   9.546   5.180
  216POPC   C3B 3024   0.676   9.745   5.660
  216POPC   C4B 3025   0.768   9.676   6.152
  217POPC   NC3 3026   4.212   7.873   3.892
  217POPC   PO4 3027   3.747   8.208   3.805
  217POPC   GL1 3028   3.869   8.077   4.253
  217POPC   GL2 3029   4.204   7.937   4.401
  217POPC   C1A 3030   3.796   7.832   4.673
  217POPC   D2A 3031   3.791   8.042   5.096
  217POPC   C3A 3032   3.903   7.819   5.491
  217POPC   C4A 3033   4.174   7.750   5.859
  217POPC   C1B 3034   4.389   8.114   4.819
  217POPC   C2B 3035   4.335   7.997   5.265
  217POPC   C3B 3036   4.632   7.856   5.614
  217POPC   C4B 3037   4.792   7.685   6.016
  218POPC   NC3 3038   0.607   7.096   4.016
  218POPC   PO4 3039   0.039   7.141   3.664
  218POPC   GL1 3040   0.148   7.159   4.197
  218POPC   GL2 3041   0.407   7.452   4.321
  218POPC   C1A 3042   0.166   7.182   4.682
  218POPC   D2A 3043   0.410   7.317   5.065
  218POPC   C3A 3044   0.308   7.360   5.510
  218POPC   C4A 3045   0.287   7.429   5.969
  218POPC   C1B 3046   0.692   7.205   4.646
  218POPC   C2B 3047   0.869   7.046   5.036
  218POPC   C3B 3048   0.814   7.275   5.396
  218POPC   C4B 3049   0.676   7.143   5.792
  219POPC   NC3 3050   0.829   0.668   4.160
  219POPC   PO4 3051   0.217   0.305   3.852
  219POPC   GL1 3052   0.413   0.403   4.226
  219POPC   GL2 3053   0.195   0.666   4.288
  219POPC   C1A 3054   0.562   0.504   4.706
  219POPC   D2A 3055   0.723   0.340   5.088
  219POPC   C3A 3056   0.765   0.649   5.404
  219POPC   C4A 3057   0.726   0.448   5.787
  219POPC   C1B 3058   0.120   0.321   4.609
  219POPC   C2B 3059   0.077   0.357   5.037
  219POPC   C3B 3060   0.317   0.368   5.395
  219POPC   C4B 3061   0.170   0.327   5.757
  220POPC   NC3 3062   6.443   2.787   4.298
  220POPC   PO4 3063   6.086   2.331   4.060
  220POPC   GL1 3064   6.348   2.279   4.413
  220POPC   GL2 3065   6.710   2.355   4.378
  220POPC   C1A 3066   6.365   2.399   4.827
  220POPC   D2A 3067   6.429   2.678   5.151
  220POPC   C3A 3068   6.297   2.475   5.514
  220POPC   C4A 3069   6.238   2.667   5.931
  220POPC   C1B 3070   6.855   2.517   4.734
  220POPC   C2B 3071   6.836   2.380   5.112
  220POPC   C3B 3072   6.888   2.649   5.432
  220POPC   C4B 3073   6.713   2.570   5.778
  221POPC   NC3 3074   1.737   8.203   4.027
  221POPC   PO4 3075   1.556   7.562   3.977
  221POPC   GL1 3076   1.994   7.734   4.203
  221POPC   GL2 3077   2.017   8.062   4.417
  221POPC   C1A 3078   2.225   7.681   4.665
  221POPC   D2A 3079   2.188   7.953   5.018
  221POPC   C3A 3080   2.144   7.710   5.393
  221POPC   C4A 3081   2.149   7.430   5.739
  221POPC   C1B 3082   1.729   7.815   4.647
  221POPC   C2B 3083   1.758   7.598   5.031
  221POPC   C3B 3084   1.640   7.637   5.453
  221POPC   C4B 3085   1.824   7.891   5.766
  222POPC   NC3 3086   1.075   7.845   3.838
  222POPC   PO4 3087   1.364   8.476   4.034
  222POPC   GL1 3088   1.300   8.247   4.370
  222POPC   GL2 3089   1.372   7.935   4.251
  222POPC   C1A 3090   1.171   8.253   4.795
  222POPC   D2A 3091   0.950   8.191   5.179
  222POPC   C3A 3092   1.276   8.256   5.490
  222POPC   C4A 3093   1.534   8.295   5.876
  222POPC   C1B 3094   1.226   7.775   4.596
  222POPC   C2B 3095   1.292   7.804   5.020
  222POPC   C3B 3096   1.122   7.772   5.398
  222POPC   C4B 3097   1.299   7.846   5.779
  223POPC   NC3 3098   0.186   7.943   3.903
  223POPC   PO4 3099   0.710   7.890   3.556
  223POPC   GL1 3100   0.655   7.895   4.129
  223POPC   GL2 3101   0.344   8.012   4.368
  223POPC   C1A 3102   0.753   7.935   4.628
  223POPC   D2A 3103   0.797   7.644   4.994
  223POPC   C3A 3104   0.615   7.772   5.403
  223POPC   C4A 3105   0.787   8.092   5.696
  223POPC   C1B 3106   0.256   7.726   4.745
  223POPC   C2B 3107   0.086   7.714   5.182
  223POPC   C3B 3108   0.155   7.825   5.630
  223POPC   C4B 3109   0.138   8.207   5.848
  224POPC   NC3 3110  10.167   3.682   4.129
  224POPC   PO4 3111   9.711   3.260   3.765
  224POPC   GL1 3112   9.877   3.223   4.236
  224POPC   GL2 3113  10.225   3.204   4.294
  224POPC   C1A 3114   9.979   3.409   4.701
  224POPC   D2A 3115  10.222   3.459   5.109
  224POPC   C3A 3116  10.043   3.571   5.531
  224POPC   C4A 3117   9.970   3.698   5.981
  224POPC   C1B 3118  10.466   3.107   4.652
  224POPC   C2B 3119  10.475   3.009   5.073
  224POPC   C3B 3120  10.292   3.073   5.469
  224POPC   C4B 3121  10.314   3.263   5.869
  225POPC   NC3 3122   1.814   0.614   3.997
  225POPC   PO4 3123   2.313   0.894   3.839
  225POPC   GL1 3124   2.254   0.603   4.245
  225POPC   GL2 3125   1.884   0.456   4.447
  225POPC   C1A 3126   2.223   0.733   4.669
  225POPC   D2A 3127   1.927   0.579   4.945
  225POPC   C3A 3128   2.096   0.628   5.337
  225POPC   C4A 3129   2.155   0.524   5.764
  225POPC   C1B 3130   1.570   0.183   4.667
  225POPC   C2B 3131   1.712   0.110   5.082
  225POPC   C3B 3132   1.616   0.460   5.338
  225POPC   C4B 3133   1.626   0.580   5.750
  226POPC   NC3 3134   7.291   1.639   3.925
  226POPC   PO4 3135   7.987   1.480   3.952
  226POPC   GL1 3136   7.680   1.597   4.301
  226POPC   GL2 3137   7.391   1.835   4.364
  226POPC   C1A 3138   7.576   1.595   4.756
  226POPC   D2A 3139   7.740   1.830   5.088
  226POPC   C3A 3140   7.481   1.735   5.449
  226POPC   C4A 3141   7.125   1.699   5.748
  226POPC   C1B 3142   7.209   1.964   4.750
  226POPC   C2B 3143   7.306   2.129   5.154
  226POPC   C3B 3144   7.093   2.190   5.530
  226POPC   C4B 3145   6.891   2.134   5.922
  227POPC   NC3 3146   7.922   7.987   3.928
  227POPC   PO4 3147   8.406   7.547   3.991
  227POPC   GL1 3148   8.180   7.650   4.349
  227POPC   GL2 3149   7.890   7.885   4.421
  227POPC   C1A 3150   8.083   7.573   4.771
  227POPC   D2A 3151   8.187   7.806   5.136
  227POPC   C3A 3152   8.116   7.606   5.531
  227POPC   C4A 3153   7.924   7.569   5.915
  227POPC   C1B 3154   7.645   7.823   4.800
  227POPC   C2B 3155   7.719   7.991   5.192
  227POPC   C3B 3156   7.635   7.908   5.618
  227POPC   C4B 3157   7.758   8.085   6.021
  228POPC   NC3 3158   4.357   2.675   3.926
  228POPC   PO4 3159   3.792   2.306   3.866
  228POPC   GL1 3160   3.810   2.297   4.296
  228POPC   GL2 3161   4.083   2.514   4.331
  228POPC   C1A 3162   3.942   2.237   4.736
  228POPC   D2A 3163   3.993   2.489   5.105
  228POPC   C3A 3164   4.176   2.443   5.461
  228POPC   C4A 3165   4.102   2.512   5.859
  228POPC   C1B 3166   4.281   2.650   4.729
  228POPC   C2B 3167   4.354   2.851   5.157
  228POPC   C3B 3168   4.324   2.917   5.612
  228POPC   C4B 3169   4.539   2.886   6.037
  229POPC   NC3 3170   9.690   5.353   3.967
  229POPC   PO4 3171   9.141   5.093   3.657
  229POPC   GL1 3172   9.259   4.933   4.203
  229POPC   GL2 3173   9.547   5.047   4.329
  229POPC   C1A 3174   9.174   5.055   4.670
  229POPC   D2A 3175   9.322   5.295   5.066
  229POPC   C3A 3176   9.200   5.135   5.522
  229POPC   C4A 3177   9.121   5.172   5.998
  229POPC   C1B 3178   9.701   5.120   4.737
  229POPC   C2B 3179   9.659   4.891   5.136
  229POPC   C3B 3180   9.538   4.743   5.543
  229POPC   C4B 3181   9.455   4.764   6.005
  230POPC   NC3 3182   7.952   7.192   3.918
  230POPC   PO4 3183   7.507   7.705   3.922
  230POPC   GL1 3184   7.647   7.457   4.332
  230POPC   GL2 3185   7.945   7.220   4.410
  230POPC   C1A 3186   7.624   7.309   4.788
  230POPC   D2A 3187   7.763   7.469   5.201
  230POPC   C3A 3188   7.536   7.398   5.618
  230POPC   C4A 3189   7.561   7.194   6.047
  230POPC   C1B 3190   8.097   7.016   4.787
  230POPC   C2B 3191   8.019   6.900   5.266
  230POPC   C3B 3192   7.959   7.058   5.728
  230POPC   C4B 3193   8.063   7.150   6.192
  231POPC   NC3 3194  10.427   6.369   3.921
  231POPC   PO4 3195   9.936   6.044   4.090
  231POPC   GL1 3196  10.199   6.283   4.371
  231POPC   GL2 3197  10.217   6.654   4.316
  231POPC   C1A 3198  10.329   6.307   4.801
  231POPC   D2A 3199  10.055   6.338   5.134
  231POPC   C3A 3200  10.170   6.083   5.482
  231POPC   C4A 3201  10.188   6.157   5.856
  231POPC   C1B 3202  10.323   6.805   4.760
  231POPC   C2B 3203  10.423   6.687   5.195
  231POPC   C3B 3204  10.125   6.592   5.574
  231POPC   C4B 3205   9.918   6.522   6.023
  232POPC   NC3 3206   5.629  10.312   3.969
  232POPC   PO4 3207   5.932   9.728   3.910
  232POPC   GL1 3208   5.863   9.965   4.279
  232POPC   GL2 3209   5.501   9.971   4.324
  232POPC   C1A 3210   5.812  10.086   4.720
  232POPC   D2A 3211   5.887  10.227   5.139
  232POPC   C3A 3212   6.056   9.979   5.474
  232POPC   C4A 3213   5.800  10.290   5.670
  232POPC   C1B 3214   5.198   9.950   4.648
  232POPC   C2B 3215   5.385  10.015   5.033
  232POPC   C3B 3216   5.527   9.935   5.415
  232POPC   C4B 3217   5.246   9.873   5.784
  233POPC   NC3 3218   0.531  10.434   3.885
  233POPC   PO4 3219   0.283   9.763   3.994
  233POPC   GL1 3220   0.417  10.078   4.280
  233POPC   GL2 3221   0.223  10.414   4.280
  233POPC   C1A 3222   0.437  10.004   4.720
  233POPC   D2A 3223   0.536   9.994   5.158
  233POPC   C3A 3224   0.242   9.877   5.447
  233POPC   C4A 3225   0.231  10.077   5.796
  233POPC   C1B 3226   0.549   0.001   4.567
  233POPC   C2B 3227   0.360  10.457   4.966
  233POPC   C3B 3228   0.258  10.380   5.379
  233POPC   C4B 3229   0.539  10.485   5.696
  234POPC   NC3 3230  10.441  10.076   4.018
  234POPC   PO4 3231  10.138   0.117   3.886
  234POPC   GL1 3232  10.207  10.409   4.312
  234POPC   GL2 3233  10.020  10.173   4.469
  234POPC   C1A 3234  10.323  10.450   4.754
  234POPC   D2A 3235  10.089   0.050   5.087
  234POPC   C3A 3236  10.317   0.153   5.431
  234POPC   C4A 3237  10.383  10.438   5.814
  234POPC   C1B 3238  10.391   9.952   4.648
  234POPC   C2B 3239   0.018  10.052   5.034
  234POPC   C3B 3240  10.307  10.132   5.408
  234POPC   C4B 3241  10.118  10.026   5.810
  235POPC   NC3 3242   3.474   0.583   4.037
  235POPC   PO4 3243   3.433  10.413   3.905
  235POPC   GL1 3244   3.544   0.092   4.290
  235POPC   GL2 3245   3.216   0.197   4.308
  235POPC   C1A 3246   3.609   0.143   4.761
  235POPC   D2A 3247   3.694   0.040   5.229
  235POPC   C3A 3248   3.403   0.175   5.574
  235POPC   C4A 3249   3.530   0.323   6.009
  235POPC   C1B 3250   3.026   0.281   4.694
  235POPC   C2B 3251   3.078   0.481   5.057
  235POPC   C3B 3252   2.984   0.381   5.438
  235POPC   C4B 3253   3.187   0.623   5.746
  236POPC   NC3 3254   9.677   6.347   3.855
  236POPC   PO4 3255   9.148   6.628   4.147
  236POPC   GL1 3256   9.611   6.532   4.311
  236POPC   GL2 3257   9.608   6.164   4.458
  236POPC   C1A 3258   9.863   6.526   4.680
  236POPC   D2A 3259   9.536   6.648   4.951
  236POPC   C3A 3260   9.635   6.541   5.338
  236POPC   C4A 3261   9.646   6.755   5.679
  236POPC   C1B 3262   9.611   6.153   4.943
  236POPC   C2B 3263   9.209   6.302   5.184
  236POPC   C3B 3264   9.220   6.421   5.613
  236POPC   C4B 3265   9.631   6.218   5.731
  237POPC   NC3 3266   1.166   4.589   3.937
  237POPC   PO4 3267   0.860   5.184   3.884
  237POPC   GL1 3268   1.146   4.972   4.290
  237POPC   GL2 3269   1.428   4.686   4.384
  237POPC   C1A 3270   1.078   4.797   4.748
  237POPC   D2A 3271   0.969   5.055   5.115
  237POPC   C3A 3272   1.072   4.943   5.551
  237POPC   C4A 3273   1.323   5.113   5.915
  237POPC   C1B 3274   1.546   4.947   4.729
  237POPC   C2B 3275   1.482   5.109   5.133
  237POPC   C3B 3276   1.574   4.886   5.508
  237POPC   C4B 3277   1.373   4.543   5.731
  238POPC   NC3 3278   8.651   8.398   4.054
  238POPC   PO4 3279   8.393   8.948   4.017
  238POPC   GL1 3280   8.546   8.777   4.382
  238POPC   GL2 3281   8.915   8.732   4.339
  238POPC   C1A 3282   8.683   8.813   4.794
  238POPC   D2A 3283   8.619   8.619   5.170
  238POPC   C3A 3284   8.752   8.865   5.488
  238POPC   C4A 3285   8.565   8.996   5.847
  238POPC   C1B 3286   8.914   8.379   4.695
  238POPC   C2B 3287   9.073   8.195   5.091
  238POPC   C3B 3288   8.914   8.355   5.504
  238POPC   C4B 3289   8.527   8.460   5.754
  239POPC   NC3 3290   7.247   8.113   3.933
  239POPC   PO4 3291   6.982   8.754   3.824
  239POPC   GL1 3292   7.017   8.712   4.263
  239POPC   GL2 3293   7.223   8.470   4.324
  239POPC   C1A 3294   7.038   8.874   4.683
  239POPC   D2A 3295   7.222   8.944   5.097
  239POPC   C3A 3296   6.974   8.659   5.348
  239POPC   C4A 3297   6.811   8.568   5.747
  239POPC   C1B 3298   7.533   8.707   4.617
  239POPC   C2B 3299   7.732   8.749   5.034
  239POPC   C3B 3300   7.592   8.864   5.466
  239POPC   C4B 3301   7.309   8.632   5.747
  240POPC   NC3 3302   4.282   0.967   3.821
  240POPC   PO4 3303   3.817   1.505   3.932
  240POPC   GL1 3304   3.983   1.193   4.214
  240POPC   GL2 3305   4.310   1.171   4.277
  240POPC   C1A 3306   3.973   1.242   4.685
  240POPC   D2A 3307   4.195   1.365   5.081
  240POPC   C3A 3308   4.157   1.177   5.484
  240POPC   C4A 3309   4.038   1.325   5.889
  240POPC   C1B 3310   4.291   0.875   4.577
  240POPC   C2B 3311   4.236   0.835   5.002
  240POPC   C3B 3312   4.206   0.682   5.389
  240POPC   C4B 3313   4.378   0.788   5.788
  241POPC   NC3 3314   9.944   9.333   3.911
  241POPC   PO4 3315   9.988  10.004   4.009
  241POPC   GL1 3316   9.841   9.704   4.277
  241POPC   GL2 3317  10.186   9.620   4.310
  241POPC   C1A 3318   9.912   9.752   4.719
  241POPC   D2A 3319  10.200   9.603   5.028
  241POPC   C3A 3320  10.134   9.652   5.476
  241POPC   C4A 3321   9.823   9.500   5.817
  241POPC   C1B 3322  10.015   9.269   4.583
  241POPC   C2B 3323  10.085   9.080   4.983
  241POPC   C3B 3324  10.356   9.186   5.314
  241POPC   C4B 3325  10.192   9.167   5.713
  242POPC   NC3 3326   6.341   7.776   3.996
  242POPC   PO4 3327   6.322   8.400   4.068
  242POPC   GL1 3328   6.661   8.339   4.285
  242POPC   GL2 3329   6.521   8.050   4.407
  242POPC   C1A 3330   6.834   8.392   4.686
  242POPC   D2A 3331   6.937   8.186   5.068
  242POPC   C3A 3332   6.679   8.191   5.415
  242POPC   C4A 3333   6.738   8.070   5.819
  242POPC   C1B 3334   6.508   8.014   4.856
  242POPC   C2B 3335   6.540   7.749   5.208
  242POPC   C3B 3336   6.398   7.747   5.630
  242POPC   C4B 3337   6.549   7.601   6.034
  243POPC   NC3 3338   8.620   0.928   3.857
  243POPC   PO4 3339   8.843   1.533   3.998
  243POPC   GL1 3340   8.833   1.154   4.263
  243POPC   GL2 3341   8.995   1.346   4.470
  243POPC   C1A 3342   8.884   0.905   4.668
  243POPC   D2A 3343   8.690   0.997   5.095
  243POPC   C3A 3344   8.812   0.788   5.466
  243POPC   C4A 3345   8.690   0.911   5.869
  243POPC   C1B 3346   8.767   1.463   4.843
  243POPC   C2B 3347   8.717   1.528   5.288
  243POPC   C3B 3348   8.614   1.342   5.640
  243POPC   C4B 3349   8.598   1.394   6.078
  244POPC   NC3 3350   2.578   9.452   3.822
  244POPC   PO4 3351   2.926   8.922   4.028
  244POPC   GL1 3352   2.561   9.139   4.251
  244POPC   GL2 3353   2.689   9.488   4.310
  244POPC   C1A 3354   2.310   9.279   4.622
  244POPC   D2A 3355   2.335   9.036   5.025
  244POPC   C3A 3356   2.273   9.228   5.428
  244POPC   C4A 3357   2.497   9.275   5.839
  244POPC   C1B 3358   2.827   9.360   4.706
  244POPC   C2B 3359   2.834   9.563   5.101
  244POPC   C3B 3360   2.603   9.616   5.477
  244POPC   C4B 3361   2.714   9.737   5.911
  245POPC   NC3 3362   5.797   8.615   4.028
  245POPC   PO4 3363   5.335   8.242   4.080
  245POPC   GL1 3364   5.295   8.656   4.299
  245POPC   GL2 3365   5.576   8.815   4.442
  245POPC   C1A 3366   5.220   8.708   4.752
  245POPC   D2A 3367   5.443   8.513   5.080
  245POPC   C3A 3368   5.315   8.676   5.438
  245POPC   C4A 3369   5.447   8.681   5.844
  245POPC   C1B 3370   5.813   8.659   4.736
  245POPC   C2B 3371   5.966   8.599   5.142
  245POPC   C3B 3372   5.818   8.484   5.528
  245POPC   C4B 3373   5.968   8.693   5.891
  246POPC   NC3 3374   9.228   3.424   3.812
  246POPC   PO4 3375   9.701   3.690   4.112
  246POPC   GL1 3376   9.380   3.531   4.318
  246POPC   GL2 3377   9.368   3.184   4.254
  246POPC   C1A 3378   9.419   3.608   4.736
  246POPC   D2A 3379   9.710   3.769   5.003
  246POPC   C3A 3380   9.541   3.690   5.427
  246POPC   C4A 3381   9.583   3.445   5.819
  246POPC   C1B 3382   9.565   3.111   4.657
  246POPC   C2B 3383   9.624   3.269   5.097
  246POPC   C3B 3384   9.350   3.184   5.473
  246POPC   C4B 3385   9.089   3.143   5.858
  247POPC   NC3 3386   0.334   1.660   3.892
  247POPC   PO4 3387   0.902   1.876   4.115
  247POPC   GL1 3388   0.612   1.596   4.328
  247POPC   GL2 3389   0.224   1.740   4.363
  247POPC   C1A 3390   0.554   1.701   4.732
  247POPC   D2A 3391   0.493   1.930   5.094
  247POPC   C3A 3392   0.578   1.696   5.436
  247POPC   C4A 3393   0.749   1.665   5.821
  247POPC   C1B 3394   0.239   2.112   4.633
  247POPC   C2B 3395   0.040   2.144   5.035
  247POPC   C3B 3396   0.203   2.204   5.438
  247POPC   C4B 3397   0.322   1.965   5.795
  248POPC   NC3 3398   9.359   0.165   3.802
  248POPC   PO4 3399   9.061   0.804   3.899
  248POPC   GL1 3400   9.174   0.579   4.308
  248POPC   GL2 3401   9.389   0.317   4.396
  248POPC   C1A 3402   9.348   0.689   4.735
  248POPC   D2A 3403   9.187   0.885   5.098
  248POPC   C3A 3404   9.323   0.714   5.497
  248POPC   C4A 3405   9.677   0.680   5.773
  248POPC   C1B 3406   9.337   0.078   4.764
  248POPC   C2B 3407   9.532  10.495   5.170
  248POPC   C3B 3408   9.424   0.207   5.569
  248POPC   C4B 3409   9.179   0.027   5.885
  249POPC   NC3 3410   8.486   3.285   3.917
  249POPC   PO4 3411   8.887   3.816   3.880
  249POPC   GL1 3412   8.698   3.618   4.239
  249POPC   GL2 3413   8.895   3.372   4.242
  249POPC   C1A 3414   8.602   3.387   4.653
  249POPC   D2A 3415   8.607   3.273   5.091
  249POPC   C3A 3416   8.434   3.602   5.358
  249POPC   C4A 3417   8.406   3.787   5.775
  249POPC   C1B 3418   9.068   3.236   4.646
  249POPC   C2B 3419   9.121   3.354   5.063
  249POPC   C3B 3420   8.917   3.454   5.470
  249POPC   C4B 3421   8.560   3.210   5.662
  250POPC   NC3 3422  10.235   5.741   3.868
  250POPC   PO4 3423   0.315   5.578   3.983
  250POPC   GL1 3424   0.125   5.583   4.388
  250POPC   GL2 3425  10.339   5.777   4.357
  250POPC   C1A 3426  10.481   5.557   4.822
  250POPC   D2A 3427  10.487   5.328   5.202
  250POPC   C3A 3428  10.244   5.545   5.490
  250POPC   C4A 3429  10.462   5.748   5.785
  250POPC   C1B 3430  10.094   5.878   4.677
  250POPC   C2B 3431  10.098   5.839   5.062
  250POPC   C3B 3432   9.741   5.852   5.348
  250POPC   C4B 3433   9.839   5.755   5.759
  251POPC   NC3 3434   9.089   9.823   3.740
  251POPC   PO4 3435   9.482   9.282   3.847
  251POPC   GL1 3436   9.314   9.443   4.215
  251POPC   GL2 3437   9.381   9.123   4.327
  251POPC   C1A 3438   9.382   9.685   4.610
  251POPC   D2A 3439   9.277   9.806   5.049
  251POPC   C3A 3440   9.427   9.665   5.401
  251POPC   C4A 3441   9.676   9.917   5.603
  251POPC   C1B 3442   9.510   9.225   4.698
  251POPC   C2B 3443   9.678   9.430   5.004
  251POPC   C3B 3444   9.804   9.313   5.345
  251POPC   C4B 3445   9.483   9.180   5.566
  252POPC   NC3 3446   3.081   5.517   4.057
  252POPC   PO4 3447   2.438   5.511   3.934
  252POPC   GL1 3448   2.608   5.588   4.304
  252POPC   GL2 3449   2.569   5.932   4.432
  252POPC   C1A 3450   2.638   5.490   4.737
  252POPC   D2A 3451   2.411   5.370   5.088
  252POPC   C3A 3452   2.649   5.295   5.499
  252POPC   C4A 3453   2.614   5.365   5.962
  252POPC   C1B 3454   2.594   5.976   4.901
  252POPC   C2B 3455   2.771   5.721   5.233
  252POPC   C3B 3456   2.823   5.750   5.683
  252POPC   C4B 3457   2.844   6.153   5.929
  253POPC   NC3 3458   2.062   3.427   3.841
  253POPC   PO4 3459   1.422   3.349   4.036
  253POPC   GL1 3460   1.774   3.259   4.250
  253POPC   GL2 3461   1.888   3.559   4.330
  253POPC   C1A 3462   1.882   3.158   4.674
  253POPC   D2A 3463   1.696   3.272   5.078
  253POPC   C3A 3464   1.874   3.216   5.474
  253POPC   C4A 3465   2.147   3.496   5.693
  253POPC   C1B 3466   1.818   3.665   4.759
  253POPC   C2B 3467   2.080   3.602   5.144
  253POPC   C3B 3468   1.761   3.716   5.404
  253POPC   C4B 3469   1.676   3.682   5.802
  254POPC   NC3 3470   0.253   4.204   3.797
  254POPC   PO4 3471   0.914   4.186   3.836
  254POPC   GL1 3472   0.565   4.290   4.185
  254POPC   GL2 3473   0.241   4.106   4.275
  254POPC   C1A 3474   0.469   4.371   4.643
  254POPC   D2A 3475   0.249   4.359   5.045
  254POPC   C3A 3476   0.409   4.432   5.436
  254POPC   C4A 3477   0.388   4.236   5.806
  254POPC   C1B 3478   0.492   3.852   4.552
  254POPC   C2B 3479   0.513   3.911   4.989
  254POPC   C3B 3480   0.312   3.922   5.388
  254POPC   C4B 3481  10.486   3.863   5.738
  255POPC   NC3 3482   5.050   1.284   3.932
  255POPC   PO4 3483   4.699   0.840   3.626
  255POPC   GL1 3484   4.719   0.950   4.087
  255POPC   GL2 3485   5.013   0.881   4.243
  255POPC   C1A 3486   4.737   1.142   4.553
  255POPC   D2A 3487   4.684   1.246   4.997
  255POPC   C3A 3488   4.651   1.014   5.398
  255POPC   C4A 3489   4.551   1.252   5.810
  255POPC   C1B 3490   5.139   0.786   4.631
  255POPC   C2B 3491   5.085   0.936   5.053
  255POPC   C3B 3492   5.114   1.266   5.329
  255POPC   C4B 3493   5.040   1.168   5.760
  256POPC   NC3 3494   8.029   8.743   3.815
  256POPC   PO4 3495   7.639   8.295   4.088
  256POPC   GL1 3496   7.875   8.402   4.373
  256POPC   GL2 3497   7.998   8.727   4.322
  256POPC   C1A 3498   7.856   8.295   4.792
  256POPC   D2A 3499   8.106   8.353   5.159
  256POPC   C3A 3500   7.815   8.389   5.498
  256POPC   C4A 3501   7.778   8.569   5.879
  256POPC   C1B 3502   8.186   8.675   4.737
  256POPC   C2B 3503   8.204   8.909   5.133
  256POPC   C3B 3504   8.151   8.794   5.589
  256POPC   C4B 3505   8.126   8.863   6.073
  257POPC   NC3 3506   2.789   4.420   3.645
  257POPC   PO4 3507   2.330   4.683   4.037
  257POPC   GL1 3508   2.250   4.462   4.425
  257POPC   GL2 3509   2.505   4.218   4.337
  257POPC   C1A 3510   2.254   4.484   4.897
  257POPC   D2A 3511   2.584   4.461   5.208
  257POPC   C3A 3512   2.636   4.261   5.594
  257POPC   C4A 3513   2.615   4.459   6.003
  257POPC   C1B 3514   2.683   4.233   4.751
  257POPC   C2B 3515   2.991   4.142   5.074
  257POPC   C3B 3516   3.140   4.264   5.482
  257POPC   C4B 3517   3.038   4.172   5.916
  258POPC   NC3 3518   5.732   1.342   3.896
  258POPC   PO4 3519   5.394   0.848   3.938
  258POPC   GL1 3520   5.533   1.058   4.332
  258POPC   GL2 3521   5.868   1.224   4.379
  258POPC   C1A 3522   5.455   1.175   4.787
  258POPC   D2A 3523   5.625   1.206   5.223
  258POPC   C3A 3524   5.517   1.292   5.651
  258POPC   C4A 3525   5.267   1.637   5.842
  258POPC   C1B 3526   5.931   0.949   4.737
  258POPC   C2B 3527   6.087   1.017   5.158
  258POPC   C3B 3528   5.884   0.858   5.519
  258POPC   C4B 3529   5.838   1.005   5.925
  259POPC   NC3 3530   9.268   5.855   4.094
  259POPC   PO4 3531   9.803   5.728   3.714
  259POPC   GL1 3532   9.702   5.678   4.327
  259POPC   GL2 3533   9.389   5.538   4.484
  259POPC   C1A 3534   9.680   5.647   4.843
  259POPC   D2A 3535   9.884   5.394   5.124
  259POPC   C3A 3536   9.662   5.350   5.454
  259POPC   C4A 3537   9.686   5.170   5.830
  259POPC   C1B 3538   9.235   5.918   4.731
  259POPC   C2B 3539   9.249   5.798   5.156
  259POPC   C3B 3540   9.227   5.910   5.569
  259POPC   C4B 3541   9.347   5.568   5.780
  260POPC   NC3 3542   6.130   9.294   3.897
  260POPC   PO4 3543   5.535   9.012   3.991
  260POPC   GL1 3544   5.779   9.228   4.254
  260POPC   GL2 3545   5.635   9.493   4.256
  260POPC   C1A 3546   5.812   9.187   4.710
  260POPC   D2A 3547   5.612   8.998   5.069
  260POPC   C3A 3548   5.736   8.996   5.501
  260POPC   C4A 3549   5.674   9.133   5.917
  260POPC   C1B 3550   5.555   9.617   4.700
  260POPC   C2B 3551   5.414   9.491   5.135
  260POPC   C3B 3552   5.485   9.476   5.599
  260POPC   C4B 3553   5.747   9.775   5.855
  261POPC   NC3 3554   9.364   6.966   3.905
  261POPC   PO4 3555   9.661   7.592   3.824
  261POPC   GL1 3556   9.534   7.558   4.253
  261POPC   GL2 3557   9.371   7.261   4.321
  261POPC   C1A 3558   9.635   7.463   4.688
  261POPC   D2A 3559   9.784   7.392   5.090
  261POPC   C3A 3560   9.529   7.203   5.379
  261POPC   C4A 3561   9.612   7.252   5.799
  261POPC   C1B 3562   9.128   7.386   4.681
  261POPC   C2B 3563   9.266   7.106   4.957
  261POPC   C3B 3564   9.184   6.820   5.279
  261POPC   C4B 3565   9.197   6.953   5.676
  262POPC   NC3 3566   2.758   1.849   3.648
  262POPC   PO4 3567   3.002   2.409   3.941
  262POPC   GL1 3568   2.860   2.142   4.389
  262POPC   GL2 3569   2.696   1.774   4.534
  262POPC   C1A 3570   2.730   2.157   4.856
  262POPC   D2A 3571   2.988   2.322   5.195
  262POPC   C3A 3572   2.995   2.125   5.600
  262POPC   C4A 3573   2.825   2.074   6.011
  262POPC   C1B 3574   2.411   1.720   4.830
  262POPC   C2B 3575   2.293   1.989   5.122
  262POPC   C3B 3576   2.521   2.015   5.466
  262POPC   C4B 3577   2.493   1.742   5.780
  263POPC   NC3 3578   4.113   1.949   3.905
  263POPC   PO4 3579   4.644   1.509   3.929
  263POPC   GL1 3580   4.280   1.666   4.298
  263POPC   GL2 3581   4.243   2.023   4.375
  263POPC   C1A 3582   4.072   1.749   4.765
  263POPC   D2A 3583   3.837   1.986   5.155
  263POPC   C3A 3584   3.962   1.888   5.575
  263POPC   C4A 3585   4.314   1.659   5.654
  263POPC   C1B 3586   4.460   2.155   4.717
  263POPC   C2B 3587   4.335   2.085   5.121
  263POPC   C3B 3588   4.511   2.088   5.518
  263POPC   C4B 3589   4.619   2.405   5.822
  264POPC   NC3 3590   3.044  10.181   3.957
  264POPC   PO4 3591   2.448   0.088   3.888
  264POPC   GL1 3592   2.688  10.405   4.243
  264POPC   GL2 3593   2.674  10.011   4.260
  264POPC   C1A 3594   2.788  10.323   4.686
  264POPC   D2A 3595   2.779   0.020   5.100
  264POPC   C3A 3596   2.991  10.381   5.486
  264POPC   C4A 3597   2.912  10.203   5.886
  264POPC   C1B 3598   2.495   9.838   4.659
  264POPC   C2B 3599   2.561  10.006   5.085
  264POPC   C3B 3600   2.522  10.128   5.521
  264POPC   C4B 3601   2.394  10.125   5.970
  265POPC   NC3 3602   4.156   0.243   3.757
  265POPC   PO4 3603   3.823   0.826   3.835
  265POPC   GL1 3604   3.942   0.670   4.259
  265POPC   GL2 3605   4.025   0.298   4.275
  265POPC   C1A 3606   3.833   0.653   4.719
  265POPC   D2A 3607   3.615   0.523   5.123
  265POPC   C3A 3608   3.783   0.501   5.565
  265POPC   C4A 3609   3.850   0.864   5.828
  265POPC   C1B 3610   4.268   0.371   4.661
  265POPC   C2B 3611   4.088   0.284   5.017
  265POPC   C3B 3612   4.196   0.132   5.384
  265POPC   C4B 3613   4.235   0.315   5.757
  266POPC   NC3 3614   1.292   6.986   3.867
  266POPC   PO4 3615   0.915   7.441   4.042
  266POPC   GL1 3616   1.069   7.098   4.303
  266POPC   GL2 3617   1.408   7.241   4.344
  266POPC   C1A 3618   1.302   6.843   4.614
  266POPC   D2A 3619   1.286   6.702   5.043
  266POPC   C3A 3620   1.240   6.886   5.480
  266POPC   C4A 3621   1.336   6.979   5.940
  266POPC   C1B 3622   1.199   7.315   4.767
  266POPC   C2B 3623   1.313   7.314   5.204
  266POPC   C3B 3624   1.227   7.366   5.656
  266POPC   C4B 3625   0.849   7.602   5.823
  267POPC   NC3 3626   7.508   2.527   3.917
  267POPC   PO4 3627   8.099   2.945   4.000
  267POPC   GL1 3628   8.021   2.606   4.267
  267POPC   GL2 3629   7.683   2.599   4.374
  267POPC   C1A 3630   8.109   2.487   4.654
  267POPC   D2A 3631   8.146   2.750   4.996
  267POPC   C3A 3632   8.098   2.534   5.374
  267POPC   C4A 3633   7.920   2.508   5.776
  267POPC   C1B 3634   7.716   2.809   4.721
  267POPC   C2B 3635   7.682   2.903   5.137
  267POPC   C3B 3636   7.804   2.941   5.521
  267POPC   C4B 3637   7.621   2.929   5.886
  268POPC   NC3 3638   1.692   9.381   3.848
  268POPC   PO4 3639   1.641  10.044   3.663
  268POPC   GL1 3640   1.881   9.871   4.100
  268POPC   GL2 3641   2.032   9.521   4.199
  268POPC   C1A 3642   1.958   9.780   4.617
  268POPC   D2A 3643   2.182   9.625   5.033
  268POPC   C3A 3644   1.931   9.600   5.438
  268POPC   C4A 3645   2.080   9.578   5.881
  268POPC   C1B 3646   1.764   9.297   4.517
  268POPC   C2B 3647   1.852   9.238   4.947
  268POPC   C3B 3648   1.727   9.117   5.325
  268POPC   C4B 3649   1.881   9.123   5.727
  269POPC   NC3 3650   9.182   1.856   3.835
  269POPC   PO4 3651   8.525   2.094   3.962
  269POPC   GL1 3652   8.878   2.078   4.275
  269POPC   GL2 3653   8.756   1.804   4.448
  269POPC   C1A 3654   8.927   2.197   4.754
  269POPC   D2A 3655   8.696   2.012   5.112
  269POPC   C3A 3656   8.708   2.184   5.539
  269POPC   C4A 3657   8.667   1.829   5.817
  269POPC   C1B 3658   8.443   2.092   4.646
  269POPC   C2B 3659   8.179   2.139   5.015
  269POPC   C3B 3660   8.239   2.031   5.422
  269POPC   C4B 3661   8.266   2.149   5.837
  270POPC   NC3 3662   2.865   2.848   3.981
  270POPC   PO4 3663   2.411   2.380   4.257
  270POPC   GL1 3664   2.524   2.764   4.360
  270POPC   GL2 3665   2.856   2.658   4.432
  270POPC   C1A 3666   2.453   2.973   4.729
  270POPC   D2A 3667   2.190   3.076   5.064
  270POPC   C3A 3668   2.253   2.878   5.413
  270POPC   C4A 3669   2.385   2.999   5.822
  270POPC   C1B 3670   2.824   2.648   4.834
  270POPC   C2B 3671   2.706   2.819   5.191
  270POPC   C3B 3672   2.638   2.537   5.498
  270POPC   C4B 3673   2.736   2.557   5.864
  271POPC   NC3 3674  10.101   8.708   3.632
  271POPC   PO4 3675  10.135   8.054   3.719
  271POPC   GL1 3676  10.096   8.384   4.086
  271POPC   GL2 3677  10.244   8.709   4.149
  271POPC   C1A 3678   9.957   8.367   4.536
  271POPC   D2A 3679  10.035   8.540   4.988
  271POPC   C3A 3680   9.946   8.342   5.368
  271POPC   C4A 3681   9.846   8.423   5.782
  271POPC   C1B 3682  10.277   8.798   4.602
  271POPC   C2B 3683   0.015   8.775   5.011
  271POPC   C3B 3684  10.369   8.688   5.456
  271POPC   C4B 3685  10.255   8.706   5.903
  272POPC   NC3 3686   8.903   4.754   3.927
  272POPC   PO4 3687   9.173   5.398   4.081
  272POPC   GL1 3688   8.803   5.250   4.334
  272POPC   GL2 3689   8.750   4.913   4.361
  272POPC   C1A 3690   8.638   5.152   4.773
  272POPC   D2A 3691   8.903   5.014   5.099
  272POPC   C3A 3692   8.701   5.052   5.451
  272POPC   C4A 3693   8.806   4.826   5.806
  272POPC   C1B 3694   8.806   4.667   4.723
  272POPC   C2B 3695   8.587   4.629   5.066
  272POPC   C3B 3696   8.561   4.553   5.448
  272POPC   C4B 3697   8.318   4.809   5.685
  273POPC   NC3 3698  10.149   3.066   3.789
  273POPC   PO4 3699   9.877   2.582   4.008
  273POPC   GL1 3700  10.013   2.734   4.397
  273POPC   GL2 3701  10.354   2.710   4.326
  273POPC   C1A 3702  10.033   2.909   4.816
  273POPC   D2A 3703   9.883   2.863   5.229
  273POPC   C3A 3704   9.820   3.028   5.628
  273POPC   C4A 3705   9.969   2.812   5.983
  273POPC   C1B 3706  10.449   2.582   4.757
  273POPC   C2B 3707  10.247   2.535   5.145
  273POPC   C3B 3708  10.176   2.560   5.560
  273POPC   C4B 3709  10.412   2.297   5.827
  274POPC   NC3 3710   0.278   0.753   3.770
  274POPC   PO4 3711   0.791   1.106   4.023
  274POPC   GL1 3712   0.575   1.047   4.407
  274POPC   GL2 3713   0.297   1.176   4.218
  274POPC   C1A 3714   0.538   0.992   4.886
  274POPC   D2A 3715   0.239   0.818   5.202
  274POPC   C3A 3716   0.319   0.810   5.659
  274POPC   C4A 3717   0.674   0.948   5.840
  274POPC   C1B 3718   0.200   1.319   4.637
  274POPC   C2B 3719   0.295   1.418   5.054
  274POPC   C3B 3720   0.322   1.263   5.434
  274POPC   C4B 3721   0.357   1.368   5.825
  275POPC   NC3 3722   4.267   9.534   3.783
  275POPC   PO4 3723   4.237  10.284   3.687
  275POPC   GL1 3724   4.201  10.297   4.132
  275POPC   GL2 3725   3.878  10.191   4.214
  275POPC   C1A 3726   4.283  10.366   4.585
  275POPC   D2A 3727   4.552  10.474   4.949
  275POPC   C3A 3728   4.640  10.369   5.396
  275POPC   C4A 3729   4.373  10.291   5.749
  275POPC   C1B 3730   3.915  10.025   4.646
  275POPC   C2B 3731   4.088  10.225   5.057
  275POPC   C3B 3732   3.984  10.098   5.487
  275POPC   C4B 3733   3.951  10.116   5.995
  276POPC   NC3 3734   6.567   8.789   4.036
  276POPC   PO4 3735   6.577   9.426   3.871
  276POPC   GL1 3736   6.553   9.248   4.277
  276POPC   GL2 3737   6.255   9.285   4.419
  276POPC   C1A 3738   6.654   9.250   4.748
  276POPC   D2A 3739   6.371   9.474   5.045
  276POPC   C3A 3740   6.452   9.493   5.488
  276POPC   C4A 3741   6.755   9.457   5.783
  276POPC   C1B 3742   6.063   9.629   4.640
  276POPC   C2B 3743   5.896   9.694   5.075
  276POPC   C3B 3744   5.959   9.468   5.470
  276POPC   C4B 3745   6.169   9.202   5.798
  277POPC   NC3 3746   1.350   5.342   3.929
  277POPC   PO4 3747   1.063   5.965   4.016
  277POPC   GL1 3748   1.060   5.577   4.273
  277POPC   GL2 3749   1.419   5.602   4.339
  277POPC   C1A 3750   1.114   5.328   4.673
  277POPC   D2A 3751   0.915   5.554   5.014
  277POPC   C3A 3752   1.063   5.445   5.432
  277POPC   C4A 3753   0.882   5.764   5.693
  277POPC   C1B 3754   1.291   5.803   4.690
  277POPC   C2B 3755   1.403   5.653   5.092
  277POPC   C3B 3756   1.295   5.878   5.429
  277POPC   C4B 3757   1.458   5.985   5.784
  278POPC   NC3 3758   1.158   3.826   3.690
  278POPC   PO4 3759   1.464   4.265   4.074
  278POPC   GL1 3760   1.257   4.179   4.412
  278POPC   GL2 3761   0.997   4.417   4.410
  278POPC   C1A 3762   1.422   4.157   4.822
  278POPC   D2A 3763   1.343   4.393   5.188
  278POPC   C3A 3764   1.400   4.086   5.492
  278POPC   C4A 3765   1.315   4.016   5.926
  278POPC   C1B 3766   0.915   4.194   4.800
  278POPC   C2B 3767   0.840   4.240   5.229
  278POPC   C3B 3768   0.913   4.288   5.660
  278POPC   C4B 3769   0.808   4.033   6.005
  279POPC   NC3 3770  10.023   1.463   3.788
  279POPC   PO4 3771  10.468   1.936   3.859
  279POPC   GL1 3772  10.226   1.861   4.228
  279POPC   GL2 3773  10.163   2.224   4.328
  279POPC   C1A 3774  10.296   1.860   4.669
  279POPC   D2A 3775  10.323   1.637   5.042
  279POPC   C3A 3776   0.062   1.722   5.378
  279POPC   C4A 3777  10.431   1.656   5.755
  279POPC   C1B 3778   9.999   2.311   4.717
  279POPC   C2B 3779  10.015   2.056   5.055
  279POPC   C3B 3780  10.173   2.053   5.439
  279POPC   C4B 3781  10.025   1.956   5.832
  280POPC   NC3 3782   9.266   4.002   4.076
  280POPC   PO4 3783   9.809   4.151   3.681
  280POPC   GL1 3784   9.716   4.210   4.177
  280POPC   GL2 3785   9.606   4.525   4.250
  280POPC   C1A 3786   9.469   4.124   4.645
  280POPC   D2A 3787   9.270   4.046   5.054
  280POPC   C3A 3788   9.452   4.200   5.448
  280POPC   C4A 3789   9.552   3.997   5.865
  280POPC   C1B 3790   9.493   4.644   4.667
  280POPC   C2B 3791   9.238   4.589   5.012
  280POPC   C3B 3792   9.061   4.614   5.398
  280POPC   C4B 3793   9.155   4.428   5.780
  281POPC   NC3 3794   2.607   7.791   3.821
  281POPC   PO4 3795   2.171   8.350   4.014
  281POPC   GL1 3796   2.502   8.059   4.252
  281POPC   GL2 3797   2.532   7.656   4.286
  281POPC   C1A 3798   2.616   8.107   4.707
  281POPC   D2A 3799   2.758   8.139   5.158
  281POPC   C3A 3800   2.406   8.137   5.458
  281POPC   C4A 3801   2.356   7.929   5.853
  281POPC   C1B 3802   2.772   7.629   4.673
  281POPC   C2B 3803   2.587   7.622   5.054
  281POPC   C3B 3804   2.656   7.710   5.447
  281POPC   C4B 3805   2.729   7.578   5.830
  282POPC   NC3 3806   0.671   6.209   3.970
  282POPC   PO4 3807   0.258   6.669   4.062
  282POPC   GL1 3808   0.459   6.487   4.380
  282POPC   GL2 3809   0.688   6.742   4.372
  282POPC   C1A 3810   0.361   6.514   4.820
  282POPC   D2A 3811   0.235   6.227   5.134
  282POPC   C3A 3812   0.084   6.357   5.537
  282POPC   C4A 3813   0.364   6.574   5.737
  282POPC   C1B 3814   0.871   6.615   4.736
  282POPC   C2B 3815   0.802   6.509   5.136
  282POPC   C3B 3816   0.745   6.753   5.463
  282POPC   C4B 3817   0.897   6.693   5.870
  283POPC   NC3 3818  10.056   7.616   3.593
  283POPC   PO4 3819  10.433   7.613   4.122
  283POPC   GL1 3820  10.040   7.636   4.347
  283POPC   GL2 3821  10.008   7.915   4.233
  283POPC   C1A 3822   9.879   7.886   4.725
  283POPC   D2A 3823  10.093   7.929   5.102
  283POPC   C3A 3824  10.115   7.606   5.407
  283POPC   C4A 3825  10.329   7.428   5.736
  283POPC   C1B 3826  10.345   8.039   4.575
  283POPC   C2B 3827  10.472   8.257   4.931
  283POPC   C3B 3828  10.442   8.198   5.361
  283POPC   C4B 3829  10.180   8.024   5.694
  284POPC   NC3 3830   8.425   7.115   4.154
  284POPC   PO4 3831   8.925   6.953   3.750
  284POPC   GL1 3832   8.915   7.083   4.208
  284POPC   GL2 3833   8.802   7.443   4.304
  284POPC   C1A 3834   8.840   6.960   4.662
  284POPC   D2A 3835   8.748   7.054   5.108
  284POPC   C3A 3836   9.014   7.310   5.367
  284POPC   C4A 3837   9.157   7.460   5.768
  284POPC   C1B 3838   8.568   7.405   4.737
  284POPC   C2B 3839   8.313   7.308   5.135
  284POPC   C3B 3840   8.418   7.176   5.522
  284POPC   C4B 3841   8.625   7.545   5.588
  285POPC   NC3 3842   6.501   0.302   3.936
  285POPC   PO4 3843   6.125   1.044   3.959
  285POPC   GL1 3844   6.246   0.625   4.240
  285POPC   GL2 3845   6.585   0.516   4.369
  285POPC   C1A 3846   6.197   0.481   4.693
  285POPC   D2A 3847   5.997   0.513   5.091
  285POPC   C3A 3848   6.328   0.610   5.379
  285POPC   C4A 3849   6.288   0.731   5.804
  285POPC   C1B 3850   6.664   0.245   4.682
  285POPC   C2B 3851   6.695   0.406   5.028
  285POPC   C3B 3852   6.697   0.260   5.392
  285POPC   C4B 3853   6.546   0.268   5.754
  286POPC   NC3 3854   4.481   9.311   4.185
  286POPC   PO4 3855   3.864   9.672   3.928
  286POPC   GL1 3856   4.200   9.767   4.239
  286POPC   GL2 3857   4.113   9.501   4.483
  286POPC   C1A 3858   4.411   9.859   4.643
  286POPC   D2A 3859   4.180   9.731   5.005
  286POPC   C3A 3860   4.411   9.871   5.364
  286POPC   C4A 3861   4.242   9.726   5.742
  286POPC   C1B 3862   4.242   9.176   4.780
  286POPC   C2B 3863   4.120   9.001   5.160
  286POPC   C3B 3864   4.220   9.244   5.514
  286POPC   C4B 3865   3.929   9.314   5.846
  287POPC   NC3 3866   8.489   4.081   3.957
  287POPC   PO4 3867   9.048   4.404   4.195
  287POPC   GL1 3868   8.641   4.421   4.291
  287POPC   GL2 3869   8.698   4.089   4.421
  287POPC   C1A 3870   8.365   4.395   4.637
  287POPC   D2A 3871   8.537   4.140   4.957
  287POPC   C3A 3872   8.350   4.105   5.363
  287POPC   C4A 3873   8.315   4.293   5.792
  287POPC   C1B 3874   8.942   3.789   4.655
  287POPC   C2B 3875   8.835   3.764   5.072
  287POPC   C3B 3876   8.869   4.078   5.407
  287POPC   C4B 3877   9.069   3.920   5.755
  288POPC   NC3 3878   8.197   1.826   3.733
  288POPC   PO4 3879   7.561   2.075   3.893
  288POPC   GL1 3880   7.785   2.124   4.245
  288POPC   GL2 3881   8.084   1.990   4.261
  288POPC   C1A 3882   7.729   2.134   4.673
  288POPC   D2A 3883   7.737   2.393   5.046
  288POPC   C3A 3884   7.752   2.169   5.445
  288POPC   C4A 3885   7.513   2.130   5.802
  288POPC   C1B 3886   8.059   1.755   4.675
  288POPC   C2B 3887   8.284   1.633   5.051
  288POPC   C3B 3888   8.177   1.542   5.509
  288POPC   C4B 3889   7.902   1.775   5.782
  289POPC   NC3 3890   9.945   2.119   3.890
  289POPC   PO4 3891   9.550   1.559   3.737
  289POPC   GL1 3892   9.628   1.779   4.105
  289POPC   GL2 3893   9.338   1.691   4.284
  289POPC   C1A 3894   9.791   1.862   4.529
  289POPC   D2A 3895   9.645   1.724   4.937
  289POPC   C3A 3896   9.581   1.912   5.335
  289POPC   C4A 3897   9.545   1.797   5.741
  289POPC   C1B 3898   9.197   1.745   4.687
  289POPC   C2B 3899   9.144   1.740   5.099
  289POPC   C3B 3900   9.090   1.847   5.505
  289POPC   C4B 3901   9.257   2.232   5.667
  290POPC   NC3 3902   3.308   8.327   3.741
  290POPC   PO4 3903   2.992   7.811   4.093
  290POPC   GL1 3904   3.381   7.904   4.295
  290POPC   GL2 3905   3.401   7.530   4.315
  290POPC   C1A 3906   3.452   8.197   4.694
  290POPC   D2A 3907   3.284   8.247   5.136
  290POPC   C3A 3908   3.505   8.133   5.541
  290POPC   C4A 3909   3.806   8.119   5.902
  290POPC   C1B 3910   3.297   7.691   4.752
  290POPC   C2B 3911   3.403   7.721   5.201
  290POPC   C3B 3912   3.170   7.758   5.591
  290POPC   C4B 3913   2.892   8.081   5.692
  291POPC   NC3 3914   0.373   5.129   3.927
  291POPC   PO4 3915   0.071   4.577   3.979
  291POPC   GL1 3916   0.260   4.707   4.305
  291POPC   GL2 3917   0.260   5.085   4.421
  291POPC   C1A 3918   0.076   4.698   4.695
  291POPC   D2A 3919   0.162   4.872   5.039
  291POPC   C3A 3920   0.023   4.790   5.427
  291POPC   C4A 3921   0.150   5.149   5.684
  291POPC   C1B 3922   0.600   4.887   4.622
  291POPC   C2B 3923   0.639   4.690   5.016
  291POPC   C3B 3924   0.554   4.908   5.400
  291POPC   C4B 3925   0.663   4.747   5.783
  292POPC   NC3 3926   0.942   8.595   3.846
  292POPC   PO4 3927   0.645   9.162   3.992
  292POPC   GL1 3928   0.904   8.904   4.271
  292POPC   GL2 3929   1.276   8.889   4.326
  292POPC   C1A 3930   0.921   8.687   4.677
  292POPC   D2A 3931   0.700   8.625   5.088
  292POPC   C3A 3932   0.931   8.639   5.478
  292POPC   C4A 3933   0.886   8.881   5.866
  292POPC   C1B 3934   1.449   8.889   4.748
  292POPC   C2B 3935   1.392   8.608   5.111
  292POPC   C3B 3936   1.593   8.657   5.510
  292POPC   C4B 3937   1.373   8.985   5.705
  293POPC   NC3 3938   7.951   9.810   3.921
  293POPC   PO4 3939   7.876   9.190   3.722
  293POPC   GL1 3940   7.879   9.226   4.196
  293POPC   GL2 3941   7.875   9.562   4.338
  293POPC   C1A 3942   8.009   9.148   4.653
  293POPC   D2A 3943   8.154   9.438   5.026
  293POPC   C3A 3944   8.175   9.300   5.478
  293POPC   C4A 3945   8.188   9.725   5.686
  293POPC   C1B 3946   7.676   9.519   4.711
  293POPC   C2B 3947   7.695   9.262   5.072
  293POPC   C3B 3948   7.786   9.599   5.382
  293POPC   C4B 3949   7.768   9.433   5.786
  294POPC   NC3 3950   3.465   1.167   3.834
  294POPC   PO4 3951   3.190   0.795   4.309
  294POPC   GL1 3952   3.533   1.006   4.395
  294POPC   GL2 3953   3.519   1.354   4.325
  294POPC   C1A 3954   3.531   1.070   4.833
  294POPC   D2A 3955   3.792   1.003   5.164
  294POPC   C3A 3956   3.504   0.910   5.449
  294POPC   C4A 3957   3.383   1.092   5.805
  294POPC   C1B 3958   3.558   1.576   4.690
  294POPC   C2B 3959   3.684   1.506   5.097
  294POPC   C3B 3960   3.697   1.400   5.509
  294POPC   C4B 3961   3.533   1.548   5.870
  295POPC   NC3 3962   3.024   8.257   4.188
  295POPC   PO4 3963   3.489   8.718   3.925
  295POPC   GL1 3964   3.512   8.496   4.268
  295POPC   GL2 3965   3.205   8.670   4.396
  295POPC   C1A 3966   3.639   8.699   4.647
  295POPC   D2A 3967   3.456   8.770   5.032
  295POPC   C3A 3968   3.526   8.613   5.408
  295POPC   C4A 3969   3.131   8.508   5.574
  295POPC   C1B 3970   3.218   9.026   4.658
  295POPC   C2B 3971   3.172   9.185   5.065
  295POPC   C3B 3972   3.227   9.001   5.447
  295POPC   C4B 3973   3.480   9.074   5.758
  296POPC   NC3 3974   2.942   7.357   4.074
  296POPC   PO4 3975   3.458   7.023   4.091
  296POPC   GL1 3976   3.121   7.035   4.419
  296POPC   GL2 3977   2.765   6.915   4.257
  296POPC   C1A 3978   3.085   7.228   4.845
  296POPC   D2A 3979   3.009   7.384   5.281
  296POPC   C3A 3980   3.035   7.186   5.732
  296POPC   C4A 3981   2.929   7.169   6.203
  296POPC   C1B 3982   2.627   7.153   4.621
  296POPC   C2B 3983   2.611   7.109   5.064
  296POPC   C3B 3984   2.565   7.220   5.494
  296POPC   C4B 3985   2.506   7.106   5.930
  297POPC   NC3 3986   1.465   6.246   3.967
  297POPC   PO4 3987   0.902   6.725   3.873
  297POPC   GL1 3988   1.132   6.527   4.235
  297POPC   GL2 3989   0.929   6.256   4.401
  297POPC   C1A 3990   1.360   6.340   4.635
  297POPC   D2A 3991   1.205   6.184   5.033
  297POPC   C3A 3992   1.296   6.381   5.440
  297POPC   C4A 3993   1.372   6.485   5.867
  297POPC   C1B 3994   0.740   6.106   4.787
  297POPC   C2B 3995   0.754   6.010   5.249
  297POPC   C3B 3996   0.853   6.261   5.623
  297POPC   C4B 3997   1.030   6.164   6.033
  298POPC   NC3 3998   0.746   5.646   3.854
  298POPC   PO4 3999   0.289   6.174   3.697
  298POPC   GL1 4000   0.245   6.053   4.180
  298POPC   GL2 4001   0.580   5.861   4.327
  298POPC   C1A 4002   0.224   6.025   4.640
  298POPC   D2A 4003   0.416   5.752   4.960
  298POPC   C3A 4004   0.216   5.778   5.349
  298POPC   C4A 4005   0.423   6.020   5.666
  298POPC   C1B 4006   0.613   5.454   4.571
  298POPC   C2B 4007   0.498   5.248   4.972
  298POPC   C3B 4008   0.560   5.411   5.385
  298POPC   C4B 4009   0.434   5.538   5.780
  299POPC   NC3 4010   1.281   0.604   3.646
  299POPC   PO4 4011   0.849   0.256   3.967
  299POPC   GL1 4012   1.170   0.265   4.271
  299POPC   GL2 4013   1.348   0.598   4.223
  299POPC   C1A 4014   1.051   0.306   4.699
  299POPC   D2A 4015   1.207   0.152   5.090
  299POPC   C3A 4016   1.163   0.318   5.504
  299POPC   C4A 4017   1.519   0.085   5.712
  299POPC   C1B 4018   1.403   0.670   4.658
  299POPC   C2B 4019   1.180   0.669   5.051
  299POPC   C3B 4020   1.264   0.860   5.428
  299POPC   C4B 4021   1.152   0.769   5.813
  300POPC   NC3 4022   3.937   8.611   3.982
  300POPC   PO4 4023   4.496   8.197   4.048
  300POPC   GL1 4024   4.242   8.434   4.357
  300POPC   GL2 4025   4.120   8.775   4.439
  300POPC   C1A 4026   3.962   8.330   4.689
  300POPC   D2A 4027   3.909   8.545   5.080
  300POPC   C3A 4028   3.976   8.356   5.472
  300POPC   C4A 4029   4.314   8.237   5.707
  300POPC   C1B 4030   4.342   8.666   4.820
  300POPC   C2B 4031   4.428   8.502   5.229
  300POPC   C3B 4032   4.324   8.734   5.589
  300POPC   C4B 4033   3.909   8.854   5.630
  301POPC   NC3 4034   9.725   0.908   3.971
  301POPC   PO4 4035  10.385   1.008   3.760
  301POPC   GL1 4036  10.294   1.183   4.185
  301POPC   GL2 4037  10.149   0.892   4.270
  301POPC   C1A 4038  10.182   1.358   4.633
  301POPC   D2A 4039   9.919   1.308   5.026
  301POPC   C3A 4040   9.946   1.577   5.409
  301POPC   C4A 4041   9.986   1.442   5.843
  301POPC   C1B 4042  10.403   0.885   4.641
  301POPC   C2B 4043  10.396   1.116   5.008
  301POPC   C3B 4044  10.322   1.242   5.386
  301POPC   C4B 4045  10.417   1.139   5.767
  302W        W 4046  10.387   3.573   8.972
  303W        W 4047   3.403   7.460   2.238
  304W        W 4048   8.009   2.760   1.869
  305W        W 4049   6.082   0.502   0.261
  306W        W 4050   9.145   2.122   8.598
  307W        W 4051   9.848   3.095   8.676
  308W        W 4052   8.197   5.491   9.727
  309W        W 4053   2.274   3.565   0.841
  310W        W 4054  10.043   3.163   0.971
  311W        W 4055   0.250   7.406  10.548
  312W        W 4056   5.254   1.860   2.181
  313W        W 4057   9.755   7.174   9.573
  314W        W 4058   9.860   7.984   8.937
  315W        W 4059   8.434   5.669   0.078
  316W        W 4060   9.119   0.691   3.125
  317W        W 4061   5.252   6.459   1.664
  318W        W 4062   8.010   6.168   1.469
  319W        W 4063   5.652  10.454  11.900
  320W        W 4064   6.520  10.334   1.453
  321W        W 4065   1.853   5.698  11.741
  322W        W 4066   3.503   6.670  11.483
  323W        W 4067   6.447   8.058   0.346
  324W        W 4068   8.975   7.677   9.852
  325W        W 4069   0.972   1.861   9.795
  326W        W 4070  10.297   1.807   9.099
  327W        W 4071   4.629   0.753  10.126
  328W        W 4072  10.007   8.580  10.912
  329W        W 4073   9.755   2.272   0.763
  330W        W 4074   1.964   6.932   2.853
  331W        W 4075   1.368   6.995   1.773
  332W        W 4076   9.552   2.109  11.778
  333W        W 4077   6.355   3.125  10.006
  334W        W 4078   2.178   2.845   2.522
  335W        W 4079   0.392   1.020   9.400
  336W        W 4080   8.755   2.210   2.140
  337W        W 4081   8.922   8.821  10.588
  338W        W 4082   4.966   0.451   1.497
  339W        W 4083   2.737   9.470  11.141
  340W        W 4084   3.526   7.377   2.986
  341W        W 4085   9.066   0.929   2.677
  342W        W 4086   1.370   2.545   0.095
  343W        W 4087   2.369   4.686   2.653
  344W        W 4088   6.699   0.185   3.473
  345W        W 4089  10.473   4.204   9.651
  346W        W 4090   7.014  10.319   1.730
  347W        W 4091   7.408   3.679   9.892
  348W        W 4092   1.648   6.789  10.299
  349W        W 4093  10.270   5.069   2.006
  350W        W 4094   8.439   5.606   0.610
  351W        W 4095   3.564   6.900  11.021
  352W        W 4096   6.979   4.110   1.883
  353W        W 4097   4.692   4.168  10.391
  354W        W 4098   8.497   7.642   9.091
  355W        W 4099   5.149  10.104  10.716
  356W        W 4100   8.544   7.633   9.601
  357W        W 4101   6.450   9.135   2.064
  358W        W 4102   2.264   1.293   1.686
  359W        W 4103   7.568   4.678   9.394
  360W        W 4104   0.895   0.842   0.282
  361W        W 4105   4.813   8.448   9.712
  362W        W 4106   5.296   4.776   0.330
  363W        W 4107   8.386   3.192   1.912
  364W        W 4108   0.431   0.797   1.405
  365W        W 4109   8.903   8.142   0.211
  366W        W 4110   5.187   3.037  11.390
  367W        W 4111   9.399   2.628   3.478
  368W        W 4112   2.140   1.806   3.122
  369W        W 4113   4.851   0.937   1.774
  370W        W 4114   8.470   0.192   1.754
  371W        W 4115   8.984   9.105  10.156
  372W        W 4116   9.260   1.383   1.102
  373W        W 4117   8.035   6.035   2.902
  374W        W 4118   6.154   3.722   0.687
  375W        W 4119   4.917   7.934   0.229
  376W        W 4120   8.723   9.770  10.961
  377W        W 4121   0.955   8.632   9.471
  378W        W 4122   5.686   9.436  10.214
  379W        W 4123   1.021   7.163   2.577
  380W        W 4124   1.904   0.961   1.763
  381W        W 4125   4.591   9.904   9.800
  382W        W 4126   6.700   9.706  11.723
  383W        W 4127   0.962   4.680   2.957
  384W        W 4128   7.134   3.550  10.475
  385W        W 4129   8.123   7.325   1.653
  386W        W 4130   4.791   2.187   2.902
  387W        W 4131   9.649   9.851   0.725
  388W        W 4132   8.485   9.542   3.076
  389W        W 4133   6.693   4.594   9.156
  390W        W 4134   7.011   9.465  10.230
  391W        W 4135   0.761   7.751   0.026
  392W        W 4136   5.433   7.583  10.483
  393W        W 4137   7.502   6.258  11.811
  394W        W 4138   1.628   0.549   1.723
  395W        W 4139   7.883   1.236   3.014
  396W        W 4140   0.929   3.747   8.786
  397W        W 4141   3.525   2.395  11.377
  398W        W 4142   4.059   9.624   9.782
  399W        W 4143   3.100   5.270   2.797
  400W        W 4144   7.200   4.346   3.335
  401W        W 4145   9.407   8.067   2.571
  402W        W 4146   7.702   1.426   9.506
  403W        W 4147   2.352   5.497   8.581
  404W        W 4148   8.176   3.765   2.899
  405W        W 4149   9.790   8.578   1.532
  406W        W 4150   7.576   4.622   3.143
  407W        W 4151   0.761  10.362   0.646
  408W        W 4152   2.601   2.748   2.224
  409W        W 4153   8.133   9.291   9.330
  410W        W 4154   1.748   4.487   8.686
  411W        W 4155   0.395   4.377   9.924
  412W        W 4156   7.902  10.270  10.560
  413W        W 4157   1.165   9.168  11.193
  414W        W 4158   7.044   8.201  11.926
  415W        W 4159   1.266   3.610   9.617
  416W        W 4160   6.356   9.771  11.325
  417W        W 4161   3.659   0.451   0.483
  418W        W 4162   9.246   7.199   2.913
  419W        W 4163   6.699   9.397  11.232
  420W        W 4164   8.064   1.234  10.136
  421W        W 4165   7.864   0.444   0.006
  422W        W 4166   7.744   2.710   8.820
  423W        W 4167  10.068   3.359   3.374
  424W        W 4168   0.972  10.493   1.746
  425W        W 4169   4.199   2.498  11.777
  426W        W 4170   4.756   4.118   2.212
  427W        W 4171   5.295   6.101   3.401
  428W        W 4172   7.446   8.536   3.681
  429W        W 4173   2.026   0.887   3.374
  430W        W 4174   4.263   0.821   1.882
  431W        W 4175  10.088   6.839  11.784
  432W        W 4176   1.993   9.109   1.243
  433W        W 4177   7.512   7.670   2.732
  434W        W 4178   1.784   2.099   0.387
  435W        W 4179   9.926   2.807  10.059
  436W        W 4180   0.236   4.647   9.527
  437W        W 4181   4.455   3.177   3.651
  438W        W 4182   6.516   5.021  11.572
  439W        W 4183   7.944   1.636   3.332
  440W        W 4184   1.868   0.645   8.911
  441W        W 4185   4.997   6.693   0.312
  442W        W 4186   3.735   3.746   1.951
  443W        W 4187   4.106   8.524  10.938
  444W        W 4188   1.251   0.464   2.818
  445W        W 4189   4.543   1.710   1.917
  446W        W 4190   8.227   5.754   9.184
  447W        W 4191   6.914   9.909   0.358
  448W        W 4192   3.461   0.814   0.810
  449W        W 4193   9.560   5.560   2.166
  450W        W 4194   6.611   9.937   2.990
  451W        W 4195   8.931   4.292   3.713
  452W        W 4196   5.090   5.241  11.405
  453W        W 4197   6.766   9.454   2.900
  454W        W 4198  10.314  10.365   2.461
  455W        W 4199   8.396   0.226  11.332
  456W        W 4200   2.859   1.296   8.799
  457W        W 4201   6.082   3.786  11.204
  458W        W 4202   0.765   8.627   1.766
  459W        W 4203   2.161   7.206   1.280
  460W        W 4204   9.510   9.536   2.442
  461W        W 4205   6.683   4.097  11.837
  462W        W 4206   6.932   4.145   9.294
  463W        W 4207   3.158   2.381   2.926
  464W        W 4208   8.171   3.741   0.302
  465W        W 4209   1.774   2.252  11.876
  466W        W 4210   8.038   1.179   3.497
  467W        W 4211   1.492  10.309  11.897
  468W        W 4212   5.490   6.634   9.420
  469W        W 4213   2.084   0.807   0.901
  470W        W 4214   5.962   8.163   0.500
  471W        W 4215  10.378   2.019   1.559
  472W        W 4216   6.625   4.082   9.693
  473W        W 4217   9.024   0.287   9.143
  474W        W 4218   8.016   4.666   2.897
  475W        W 4219   5.127   2.502   1.716
  476W        W 4220   3.093   8.247   2.605
  477W        W 4221   7.412   8.936  11.729
  478W        W 4222   2.881   0.339  11.797
  479W        W 4223  10.348   0.230   1.672
  480W        W 4224   1.956   0.870   0.410
  481W        W 4225   9.281   8.379   3.552
  482W        W 4226   9.829   6.430   9.033
  483W        W 4227   6.044   9.177  11.943
  484W        W 4228   9.380   6.631  10.854
  485W        W 4229   7.539   8.838   9.315
  486W        W 4230   2.393   4.243   9.887
  487W        W 4231   5.495   3.286   1.263
  488W        W 4232   4.502   9.967  11.322
  489W        W 4233   5.232   3.739   1.163
  490W        W 4234   5.029   0.733   9.785
  491W        W 4235   5.089   0.804   9.284
  492W        W 4236   1.275   4.986   3.542
  493W        W 4237   8.124   4.165  10.035
  494W        W 4238   2.878   2.356   3.409
  495W        W 4239   8.531   8.435  11.464
  496W        W 4240   9.771   2.359  10.292
  497W        W 4241   2.360   6.286   8.798
  498W        W 4242   5.963   6.296   9.476
  499W        W 4243   6.139   3.731   1.204
  500W        W 4244   2.809   7.414   0.987
  501W        W 4245   9.325   5.147  10.497
  502W        W 4246   6.841   2.160   1.672
  503W        W 4247   7.216   5.342   2.103
  504W        W 4248   6.109   6.029   2.534
  505W        W 4249   3.258   1.368   2.498
  506W        W 4250   0.067   3.888   0.834
  507W        W 4251   0.177   1.259   2.268
  508W        W 4252  10.105   3.959   8.689
  509W        W 4253   7.318   5.879   8.130
  510W        W 4254   2.786   5.867   9.463
  511W        W 4255  10.160   4.239  10.064
  512W        W 4256   2.158   5.210   2.938
  513W        W 4257   3.833   2.789  11.535
  514W        W 4258   8.310   6.496   0.043
  515W        W 4259   6.866   0.122  10.807
  516W        W 4260   6.639   4.557   1.908
  517W        W 4261   5.635   6.524   3.255
  518W        W 4262   6.158   3.725   2.819
  519W        W 4263   7.715   3.574   2.905
  520W        W 4264   6.564   5.949   1.815
  521W        W 4265   4.606   5.451   2.402
  522W        W 4266   2.917   3.383   0.312
  523W        W 4267   5.056   0.826   0.677
  524W        W 4268   1.413   7.603   1.143
  525W        W 4269   2.819   2.724  11.757
  526W        W 4270   6.521   1.452   2.689
  527W        W 4271   1.802   5.880   9.378
  528W        W 4272   3.585   2.348   2.219
  529W        W 4273  10.010   0.032  10.462
  530W        W 4274   6.517   1.672  10.063
  531W        W 4275   5.804   6.220   4.205
  532W        W 4276   6.695   7.028   0.102
  533W        W 4277   7.715   4.320  11.838
  534W        W 4278   9.329   8.573   9.491
  535W        W 4279   9.074  10.212  10.879
  536W        W 4280   9.128   4.663  10.570
  537W        W 4281   4.231   1.252  10.584
  538W        W 4282   9.902   4.745   1.216
  539W        W 4283   1.665   6.105   0.755
  540W        W 4284   9.653   4.202  10.016
  541W        W 4285   3.485   2.303   3.304
  542W        W 4286   0.452   5.234   9.797
  543W        W 4287   0.357   4.528   2.471
  544W        W 4288   2.401   6.041  10.315
  545W        W 4289   5.548  10.453  10.474
  546W        W 4290   1.934   0.686   2.197
  547W        W 4291   7.663   3.549   8.930
  548W        W 4292   7.976   1.866   9.334
  549W        W 4293   6.635   5.461   0.460
  550W        W 4294   9.808   7.174  10.553
  551W        W 4295  10.168   4.657  10.386
  552W        W 4296   3.748   6.618  10.640
  553W        W 4297   9.592   2.675   3.017
  554W        W 4298   7.557   1.152  11.479
  555W        W 4299   6.611   8.629   2.707
  556W        W 4300   4.576   1.785   3.334
  557W        W 4301   5.018   2.762   7.963
  558W        W 4302   4.200   0.574   9.904
  559W        W 4303   6.465   5.673   2.256
  560W        W 4304   8.884   5.040   9.526
  561W        W 4305   8.935   2.170   0.495
  562W        W 4306   8.425   2.789   2.222
  563W        W 4307   2.178   4.716   9.880
  564W        W 4308   1.396   0.715   0.346
  565W        W 4309   7.870   7.442   1.220
  566W        W 4310   6.904   3.141   1.214
  567W        W 4311  10.141   5.082  10.080
  568W        W 4312   0.791   2.776   9.709
  569W        W 4313   5.226   4.321   2.320
  570W        W 4314   1.206   4.768   9.634
  571W        W 4315   6.583   5.892   0.205
  572W        W 4316   2.025   8.005  11.918
  573W        W 4317   4.724   4.951  11.634
  574W        W 4318   0.649   1.680   1.738
  575W        W 4319   7.103   5.585  11.924
  576W        W 4320   3.343   1.877   2.182
  577W        W 4321   8.851   4.232   1.551
  578W        W 4322   0.363   9.891   1.803
  579W        W 4323   0.475   5.635   1.898
  580W        W 4324   8.481   8.876   8.788
  581W        W 4325   6.067   6.942   2.763
  582W        W 4326   6.246   6.538   9.850
  583W        W 4327   2.711   5.196   3.164
  584W        W 4328   7.153   6.527   9.378
  585W        W 4329   3.786   2.581   0.047
  586W        W 4330   3.257   8.233   0.550
  587W        W 4331   9.352   7.307   9.190
  588W        W 4332   6.690   9.254   0.664
  589W        W 4333   3.068   3.356   2.567
  590W        W 4334   9.417   7.535   2.484
  591W        W 4335   9.059   4.109   0.410
  592W        W 4336   4.513   4.110   0.683
  593W        W 4337   5.209   7.074   9.316
  594W        W 4338   5.125   9.940   9.045
  595W        W 4339   1.955   6.704   9.885
  596W        W 4340   3.774   6.075  10.480
  597W        W 4341   5.959   9.716   3.415
  598W        W 4342   9.440   3.765   0.454
  599W        W 4343   0.880   0.334  10.496
  600W        W 4344   2.356   4.578   0.997
  601W        W 4345   6.678   1.778   8.651
  602W        W 4346   2.731   3.544   3.358
  603W        W 4347   7.704   3.780   3.861
  604W        W 4348   6.044   3.222  10.797
  605W        W 4349   1.301   3.806   9.137
  606W        W 4350   9.557   4.731   1.970
  607W        W 4351   0.885   8.337  11.196
  608W        W 4352   3.623   1.534   3.455
  609W        W 4353   1.207   7.502   8.747
  610W        W 4354   4.786   1.033   1.197
  611W        W 4355   7.676   2.834   1.358
  612W        W 4356   1.345   2.391  11.055
  613W        W 4357   4.611   2.159  10.584
  614W        W 4358   3.263   9.756   9.155
  615W        W 4359   9.288   6.299   9.821
  616W        W 4360   4.093   8.393   9.067
  617W        W 4361   6.977   1.844  11.009
  618W        W 4362   4.117   5.998  11.773
  619W        W 4363   3.427   1.003   2.127
  620W        W 4364   9.055   1.688   0.662
  621W        W 4365   5.140   3.828   0.656
  622W        W 4366   3.357   5.018   9.840
  623W        W 4367   2.141   5.703  10.001
  624W        W 4368   4.559   2.818   8.808
  625W        W 4369   1.577   0.257   9.074
  626W        W 4370   6.925   7.004   3.516
  627W        W 4371   7.676   1.041   9.837
  628W        W 4372   2.397   7.353   0.241
  629W        W 4373   7.613   4.126  10.031
  630W        W 4374   6.136   8.358   1.871
  631W        W 4375   4.797   4.592   2.434
  632W        W 4376   7.260   3.625  11.968
  633W        W 4377   3.610   6.138   2.678
  634W        W 4378   4.739   7.349   0.963
  635W        W 4379   2.424   6.546  10.081
  636W        W 4380   7.506   0.840  11.861
  637W        W 4381   5.041   6.495  10.350
  638W        W 4382   3.215  10.296  11.390
  639W        W 4383   9.869   8.485   9.042
  640W        W 4384   9.207   5.730   0.700
  641W        W 4385   0.398   5.969   0.373
  642W        W 4386  10.119   2.801   1.742
  643W        W 4387   5.524   5.128  10.922
  644W        W 4388   2.147   2.084   9.950
  645W        W 4389   3.292   8.408  10.488
  646W        W 4390   4.736   0.014   2.011
  647W        W 4391  10.062   8.275   9.935
  648W        W 4392   5.661   4.135   9.535
  649W        W 4393   4.080   2.346   2.313
  650W        W 4394   4.507   4.225   1.192
  651W        W 4395   7.991  10.432   0.433
  652W        W 4396   9.504   6.730   9.962
  653W        W 4397   0.037   6.565  11.063
  654W        W 4398   1.769   6.927   3.334
  655W        W 4399   9.011   4.251   1.009
  656W        W 4400   1.953   8.784  10.467
  657W        W 4401   8.628   7.214   2.304
  658W        W 4402   9.838   1.375   0.255
  659W        W 4403   3.316   5.078   8.361
  660W        W 4404   2.339   2.088   1.010
  661W        W 4405   9.321   7.697   2.967
  662W        W 4406   6.765   5.994   8.697
  663W        W 4407   5.235   5.772   9.072
  664W        W 4408   7.612   5.693   2.138
  665W        W 4409   4.846   2.683  11.260
  666W        W 4410   9.081   2.348   1.353
  667W        W 4411   5.650   5.590   1.085
  668W        W 4412   5.921   8.641   1.489
  669W        W 4413   4.059   3.275   2.302
  670W        W 4414   6.097   0.320   2.507
  671W        W 4415   9.448   9.449   8.951
  672W        W 4416   3.838   0.032   1.688
  673W        W 4417   4.982   3.244   3.642
  674W        W 4418  10.039   3.631   1.747
  675W        W 4419   1.218   4.224   1.951
  676W        W 4420   0.466   3.351   3.504
  677W        W 4421   8.051   8.622  11.008
  678W        W 4422   6.511   3.603  11.725
  679W        W 4423   5.372  10.381   2.956
  680W        W 4424   5.077   6.051   1.403
  681W        W 4425   8.011   1.736   0.836
  682W        W 4426   0.831   0.953  11.798
  683W        W 4427   9.822   6.981   0.953
  684W        W 4428   1.946   3.652  11.924
  685W        W 4429   6.543   0.554   2.208
  686W        W 4430   0.308   2.089   1.847
  687W        W 4431   0.351   3.957  10.548
  688W        W 4432   6.227   4.693   0.514
  689W        W 4433   9.632   0.597   0.087
  690W        W 4434   0.513   4.725   1.978
  691W        W 4435   9.956   2.305   1.705
  692W        W 4436  10.225   7.797   9.729
  693W        W 4437   6.734   7.263   2.207
  694W        W 4438   0.864   8.588   2.258
  695W        W 4439   2.335   1.563   9.995
  696W        W 4440   8.636   6.521   1.899
  697W        W 4441   4.768   0.375   3.428
  698W        W 4442   1.874  10.476   3.376
  699W        W 4443   0.274   4.815  11.134
  700W        W 4444   7.227   1.859   8.576
  701W        W 4445   2.032   3.967   9.337
  702W        W 4446   3.747   7.628   2.604
  703W        W 4447   8.927   3.114   0.564
  704W        W 4448   7.794   3.121   3.127
  705W        W 4449   3.717   0.101   3.521
  706W        W 4450   7.966   8.350   3.087
  707W        W 4451   4.744   0.343   0.029
  708W        W 4452   5.183   6.035   1.929
  709W        W 4453   8.580   9.501   2.584
  710W        W 4454   1.421   5.528   8.442
  711W        W 4455   5.608   3.428   8.978
  712W        W 4456   7.917   5.240   9.124
  713W        W 4457   1.000   8.103   9.492
  714W        W 4458   2.296   7.008   8.903
  715W        W 4459   6.948  10.473   8.445
  716W        W 4460   7.139   7.405   1.877
  717W        W 4461   1.640  10.334   2.414
  718W        W 4462   3.242   0.351   0.781
  719W        W 4463   5.161   7.878  10.830
  720W        W 4464   7.092   4.229  10.927
  721W        W 4465   8.443   8.852   9.304
  722W        W 4466   5.657   8.933   2.172
  723W        W 4467   9.799   6.972   9.115
  724W        W 4468   5.124   7.167   0.483
  725W        W 4469   5.513   5.128   2.624
  726W        W 4470   6.426   7.433   0.384
  727W        W 4471   8.167   4.862   8.476
  728W        W 4472   6.412   7.460  11.232
  729W        W 4473   7.733   0.541   9.892
  730W        W 4474   1.419   1.416   1.746
  731W        W 4475   0.299   7.922   2.294
  732W        W 4476   1.575   8.394   1.666
  733W        W 4477   6.035   4.232  11.472
  734W        W 4478   0.098   4.707   0.423
  735W        W 4479   3.641   9.941  10.005
  736W        W 4480   9.522   5.278  10.981
  737W        W 4481   9.702   0.142   9.991
  738W        W 4482   3.774   1.849   0.413
  739W        W 4483   1.257   3.803   0.033
  740W        W 4484   0.389   5.777  11.041
  741W        W 4485  10.014   2.869   3.276
  742W        W 4486   1.140   7.820   3.295
  743W        W 4487   5.659   1.838   0.035
  744W        W 4488   2.117   9.240   8.850
  745W        W 4489   7.561   6.660   1.101
  746W        W 4490   5.666   9.585   8.859
  747W        W 4491   5.695   2.170   2.901
  748W        W 4492  10.065   3.531  10.739
  749W        W 4493   7.477   9.721   8.958
  750W        W 4494   1.732   7.595  11.822
  751W        W 4495   1.443   0.059  11.306
  752W        W 4496   4.335   6.659   1.599
  753W        W 4497   9.970   8.797  10.009
  754W        W 4498   0.580   0.007  10.798
  755W        W 4499   4.189  10.065   2.423
  756W        W 4500   5.333  10.068   9.538
  757W        W 4501   4.521   1.327   8.732
  758W        W 4502   0.443   0.828  11.001
  759W        W 4503   9.415   9.882   9.439
  760W        W 4504   2.073   3.153   0.028
  761W        W 4505   9.033   2.716  11.248
  762W        W 4506   7.255   7.917   9.114
  763W        W 4507   3.270   7.965   2.220
  764W        W 4508   1.349   1.973  10.742
  765W        W 4509   6.989   2.643   1.867
  766W        W 4510   8.971   3.115   0.062
  767W        W 4511   2.591  10.486   8.989
  768W        W 4512   2.163   8.904  11.856
  769W        W 4513   6.559   4.043   1.001
  770W        W 4514   9.923   9.995   9.289
  771W        W 4515   3.094   6.236   3.725
  772W        W 4516   1.709  10.400   1.295
  773W        W 4517   2.351   9.476   2.733
  774W        W 4518   9.611   8.444   0.303
  775W        W 4519   3.349   1.932  10.363
  776W        W 4520   1.280   0.645   1.193
  777W        W 4521   7.394   8.191  10.067
  778W        W 4522   2.745   6.436  10.978
  779W        W 4523   3.792   4.773   0.574
  780W        W 4524   7.702   5.772   1.320
  781W        W 4525   6.169   7.063  11.461
  782W        W 4526   0.362   2.296   1.386
  783W        W 4527   6.152   5.488   0.989
  784W        W 4528   5.550   6.032  10.241
  785W        W 4529   5.074   3.329   2.212
  786W        W 4530   0.815   6.186  11.455
  787W        W 4531   5.750   1.245  10.268
  788W        W 4532   6.313   9.496   3.141
  789W        W 4533   5.593   6.731   2.792
  790W        W 4534   0.083   2.115   8.634
  791W        W 4535   4.293   3.077   1.873
  792W        W 4536   6.641   0.332   1.354
  793W        W 4537   2.680   5.610   8.999
  794W        W 4538   0.138   9.428   3.309
  795W        W 4539   3.228   0.775   1.690
  796W        W 4540   0.264   6.581  10.573
  797W        W 4541   3.105   4.283   2.789
  798W        W 4542   4.283   9.351   8.872
  799W        W 4543   1.244   1.891   2.978
  800W        W 4544   3.020   4.298   8.570
  801W        W 4545   8.276   1.063  10.986
  802W        W 4546   7.255   2.822   0.024
  803W        W 4547   5.223   6.505   1.167
  804W        W 4548   7.216   4.218   8.558
  805W        W 4549  10.015   4.001  10.910
  806W        W 4550   4.780   0.352  11.523
  807W        W 4551   4.147   2.768   9.606
  808W        W 4552   8.916   0.240   8.645
  809W        W 4553   6.786   5.345   1.296
  810W        W 4554   9.330   4.098   1.385
  811W        W 4555   8.965   7.914   1.794
  812W        W 4556   7.022   7.542  10.378
  813W        W 4557   0.943   0.826  10.221
  814W        W 4558   3.722   3.995   3.741
  815W        W 4559   4.671   9.341  10.953
  816W        W 4560   7.553   7.287   3.621
  817W        W 4561  10.253   9.501  10.475
  818W        W 4562   6.942   3.685   9.535
  819W        W 4563  10.227   7.456  10.566
  820W        W 4564   5.621   2.239  11.188
  821W        W 4565   1.044   1.408   8.986
  822W        W 4566   0.168   5.546   9.511
  823W        W 4567   5.181   0.985   3.498
  824W        W 4568   3.602   4.249   1.821
  825W        W 4569   3.753   7.847   2.099
  826W        W 4570   7.121   1.193   0.793
  827W        W 4571   5.980   8.371  11.493
  828W        W 4572   2.493   6.904   2.928
  829W        W 4573   6.680   1.502   2.213
  830W        W 4574   8.056   2.879  11.222
  831W        W 4575   4.495   1.648   0.902
  832W        W 4576   8.546   9.494  10.568
  833W        W 4577   2.684   2.636   9.451
  834W        W 4578   7.936  10.160  10.074
  835W        W 4579   2.541   0.760   3.338
  836W        W 4580   7.431   5.624   8.574
  837W        W 4581   7.935   6.548  11.188
  838W        W 4582   6.040   3.288   0.932
  839W        W 4583   5.619   6.743   1.925
  840W        W 4584   9.240   1.094   2.054
  841W        W 4585   7.119   4.723   0.237
  842W        W 4586   4.857   6.187   0.348
  843W        W 4587   1.102   9.669  11.318
  844W        W 4588   0.771   9.811   2.490
  845W        W 4589   4.774   4.722   0.431
  846W        W 4590   4.739   3.688   9.499
  847W        W 4591   2.220   7.381  11.766
  848W        W 4592   6.200   4.241  11.953
  849W        W 4593   9.843   9.995   3.205
  850W        W 4594   6.586   8.364  10.359
  851W        W 4595   2.890   2.673  10.310
  852W        W 4596   7.839   4.609   8.180
  853W        W 4597   3.343   5.747   2.833
  854W        W 4598   1.859   1.784   2.362
  855W        W 4599   3.094   6.491   2.180
  856W        W 4600   4.067   8.617  11.437
  857W        W 4601   3.348   8.539   1.421
  858W        W 4602   2.104   2.390   2.320
  859W        W 4603   7.746   2.482   9.991
  860W        W 4604   2.331   3.847   3.194
  861W        W 4605   6.668   7.075  11.424
  862W        W 4606   0.489   8.408   3.217
  863W        W 4607   2.745   5.991   0.051
  864W        W 4608   6.676   4.795   2.413
  865W        W 4609   1.307   7.263  11.645
  866W        W 4610   8.933   7.467  10.900
  867W        W 4611   1.167   9.332   3.132
  868W        W 4612   3.655   2.757  10.036
  869W        W 4613   8.063   6.462  10.705
  870W        W 4614   6.454   3.236   0.548
  871W        W 4615   8.679   3.568   2.061
  872W        W 4616   9.532   6.626   1.185
  873W        W 4617   4.166   9.823  10.964
  874W        W 4618   1.440   0.540   2.329
  875W        W 4619   7.881   3.284  10.485
  876W        W 4620   0.319   3.215   9.122
  877W        W 4621   1.750   5.070   3.239
  878W        W 4622   4.128   0.366  10.749
  879W        W 4623   2.587   6.560   2.150
  880W        W 4624   0.527   0.908   9.912
  881W        W 4625   7.534   9.978   1.035
  882W        W 4626   2.059   1.006  11.801
  883W        W 4627   7.380   4.986   9.793
  884W        W 4628   8.455   4.647  10.804
  885W        W 4629  10.052   0.921  10.609
  886W        W 4630   9.653   6.632   2.203
  887W        W 4631   9.358   6.117  10.796
  888W        W 4632   4.986   2.613   8.994
  889W        W 4633   8.471   4.602   8.809
  890W        W 4634   4.673   2.204  11.455
  891W        W 4635  10.234   7.973   1.456
  892W        W 4636   9.107   2.842   0.971
  893W        W 4637   6.568   5.124   0.875
  894W        W 4638   8.184   3.657   8.931
  895W        W 4639  10.408   3.244   9.422
  896W        W 4640   0.719   9.771  10.450
  897W        W 4641   0.864   0.940   1.198
  898W        W 4642   8.122   4.796  11.240
  899W        W 4643   9.392   9.424  10.474
  900W        W 4644   0.486   7.575   0.835
  901W        W 4645   4.006   7.683   1.280
  902W        W 4646   3.585  10.034   0.489
  903W        W 4647   4.725   1.743   8.954
  904W        W 4648   5.617   9.390  11.757
  905W        W 4649   4.264   3.633   0.669
  906W        W 4650   7.532   7.645  10.304
  907W        W 4651   0.799   8.061   2.433
  908W        W 4652   2.552   1.166  11.455
  909W        W 4653   0.937   9.135   1.912
  910W        W 4654   0.850   3.072   2.311
  911W        W 4655   8.026   9.307   3.175
  912W        W 4656   7.560   0.984   3.338
  913W        W 4657   8.522   0.506   0.607
  914W        W 4658   8.414   1.970  11.946
  915W        W 4659   6.975   1.475   0.407
  916W        W 4660   6.495   2.706   3.278
  917W        W 4661   2.248   9.333  11.250
  918W        W 4662   8.105   1.384   9.172
  919W        W 4663   1.795   7.210   8.841
  920W        W 4664   2.169   4.099  10.733
  921W        W 4665   6.517   0.728   0.404
  922W        W 4666   9.887   2.732  11.121
  923W        W 4667   6.393   6.817  10.560
  924W        W 4668   0.928   8.755  10.358
  925W        W 4669   3.534   0.922   1.300
  926W        W 4670   3.320   6.802   0.216
  927W        W 4671  10.016   7.346  11.869
  928W        W 4672   8.872   4.202  10.499
  929W        W 4673   7.015   6.957   9.967
  930W        W 4674   1.528   8.110  11.885
  931W        W 4675   9.075   9.480  11.833
  932W        W 4676   0.591   9.132  11.127
  933W        W 4677   5.489   6.639   4.069
  934W        W 4678   8.388  10.018   8.379
  935W        W 4679   0.578   4.828   0.544
  936W        W 4680   9.394   6.256   8.770
  937W        W 4681   6.622   3.763   1.428
  938W        W 4682   9.342   6.444  10.355
  939W        W 4683   4.385  10.347   2.889
  940W        W 4684   3.880   7.327   2.198
  941W        W 4685   8.411   0.733  11.357
  942W        W 4686   4.559   5.772  11.896
  943W        W 4687   8.729   9.278   2.154
  944W        W 4688   3.692   6.069   1.281
  945W        W 4689   8.318   9.441   0.875
  946W        W 4690   5.185   5.240   9.557
  947W        W 4691   7.911   4.043   1.128
  948W        W 4692   1.827   1.602   0.538
  949W        W 4693   5.078   5.200   0.818
  950W        W 4694   1.698   4.148   3.166
  951W        W 4695   3.180   8.448   9.557
  952W        W 4696   9.930   3.141   9.197
  953W        W 4697   6.098   2.466  10.360
  954W        W 4698   1.910   9.414  10.820
  955W        W 4699   5.620   6.480   2.356
  956W        W 4700   2.598   9.970   9.117
  957W        W 4701   1.020   9.073   2.433
  958W        W 4702   3.821   9.390  11.778
  959W        W 4703   2.704   7.992   3.315
  960W        W 4704   4.579   4.065   8.909
  961W        W 4705   3.655   7.583   3.430
  962W        W 4706   2.387   0.299  11.819
  963W        W 4707   5.657   8.037  11.295
  964W        W 4708   1.418   5.675   2.479
  965W        W 4709   5.253   0.946  11.339
  966W        W 4710   7.564   7.010   8.653
  967W        W 4711   2.905   3.196   8.891
  968W        W 4712   2.644   8.972   9.990
  969W        W 4713   5.656   7.567   8.850
  970W        W 4714   4.084   2.220   8.888
  971W        W 4715   5.970   6.798   9.497
  972W        W 4716   9.840  10.277  11.444
  973W        W 4717   4.236   0.324   2.743
  974W        W 4718   7.421   1.091   2.836
  975W        W 4719   4.261   8.601   2.734
  976W        W 4720   1.845   5.072   9.974
  977W        W 4721   8.890   4.522   2.021
  978W        W 4722   3.200   6.119   9.649
  979W        W 4723   9.011   0.841  11.424
  980W        W 4724   5.555   1.681  10.525
  981W        W 4725   2.847   8.080   1.838
  982W        W 4726   6.629   8.133   2.763
  983W        W 4727   6.652  10.026   1.021
  984W        W 4728   6.696   4.454   0.642
  985W        W 4729   4.826   9.797   0.861
  986W        W 4730  10.426   1.407   0.844
  987W        W 4731  10.312   4.712  11.407
  988W        W 4732   3.545   5.272   9.413
  989W        W 4733   5.463   4.329   1.668
  990W        W 4734   0.166   0.194   2.081
  991W        W 4735   0.839   7.147   3.562
  992W        W 4736   4.575   2.671   2.752
  993W        W 4737   1.164   6.078  10.845
  994W        W 4738   9.070   9.734   2.222
  995W        W 4739   8.809   9.869  11.524
  996W        W 4740   6.872   8.343   2.346
  997W        W 4741   0.194   9.190   2.420
  998W        W 4742   8.942   0.045  10.482
  999W        W 4743  10.284   3.249  11.357
 1000W        W 4744   2.364   2.069   2.043
 1001W        W 4745   7.828   3.295   1.126
 1002W        W 4746   0.794   0.517  11.562
 1003W        W 4747   4.993   4.518   3.104
 1004W        W 4748   2.287   7.837   0.362
 1005W        W 4749   9.884   9.218   2.624
 1006W        W 4750   4.046   3.952   9.147
 1007W        W 4751   5.347   7.897   2.654
 1008W        W 4752   6.589   5.708  11.729
 1009W        W 4753   5.944   2.237  10.778
 1010W        W 4754   5.692   8.557   0.715
 1011W        W 4755  10.311  10.014  11.780
 1012W        W 4756   1.688   9.060   9.103
 1013W        W 4757   2.639   2.799   3.542
 1014W        W 4758   7.471   1.345   1.730
 1015W        W 4759   1.161   1.851   1.609
 1016W        W 4760   3.142   6.124  11.777
 1017W        W 4761   7.924   9.138   0.789
 1018W        W 4762   3.531   7.685   1.656
 1019W        W 4763   3.685   4.682   8.208
 1020W        W 4764   7.097   4.756  10.388
 1021W        W 4765   9.426   3.760  10.143
 1022W        W 4766   8.574   5.677   3.080
 1023W        W 4767   4.003   4.435   1.551
 1024W        W 4768   9.123   3.593  11.336
 1025W        W 4769   9.541   6.357   0.174
 1026W        W 4770   2.583   2.624   3.070
 1027W        W 4771   9.324   7.822  11.507
 1028W        W 4772   8.369  10.189   0.195
 1029W        W 4773   5.565   0.017   8.892
 1030W        W 4774   5.800   9.863   9.597
 1031W        W 4775   1.325   0.766   9.533
 1032W        W 4776   1.239   5.094   3.013
 1033W        W 4777   5.673  10.390   1.984
 1034W        W 4778   5.757   0.663   1.302
 1035W        W 4779   1.874   8.613   3.160
 1036W        W 4780   1.108   1.095   3.623
 1037W        W 4781  10.446   1.781  10.106
 1038W        W 4782   2.369   3.698  11.055
 1039W        W 4783   8.881   5.725   2.674
 1040W        W 4784   8.132   9.271   9.837
 1041W        W 4785   5.216   3.544   1.717
 1042W        W 4786   1.814   8.399  10.184
 1043W        W 4787   5.584   3.687  11.961
 1044W        W 4788   8.328   3.318  10.803
 1045W        W 4789   6.543   8.557   9.824
 1046W        W 4790   2.803   0.389   9.781
 1047W        W 4791   7.564   0.298   2.294
 1048W        W 4792  10.219   5.072   3.222
 1049W        W 4793   1.293   5.925   3.385
 1050W        W 4794   4.587   1.886  11.052
 1051W        W 4795   4.291   3.325  11.259
 1052W        W 4796   8.279  10.230   8.836
 1053W        W 4797   9.740   4.038   1.686
 1054W        W 4798  10.153   5.960   9.028
 1055W        W 4799   2.577   4.513   8.754
 1056W        W 4800   6.657   7.528   1.755
 1057W        W 4801   5.784   6.197  11.518
 1058W        W 4802   6.883   5.167   9.568
 1059W        W 4803   0.922   3.571  10.814
 1060W        W 4804   4.068   0.202  11.230
 1061W        W 4805   9.992   3.247   9.727
 1062W        W 4806   0.816   7.989   2.961
 1063W        W 4807   1.354   9.975  10.606
 1064W        W 4808   0.591   0.554   9.127
 1065W        W 4809   7.122   1.096   8.920
 1066W        W 4810   0.796   2.613   2.990
 1067W        W 4811   8.694   7.308  11.861
 1068W        W 4812   7.152   3.387   8.927
 1069W        W 4813   4.419   0.002   2.399
 1070W        W 4814   7.841   5.185  11.442
 1071W        W 4815   9.536   7.119  10.986
 1072W        W 4816   4.147  10.063  10.037
 1073W        W 4817   7.020   6.078   9.617
 1074W        W 4818   0.160   7.515   9.642
 1075W        W 4819   7.111   4.624   4.258
 1076W        W 4820   7.470   0.860  10.894
 1077W        W 4821   5.256   8.285   0.482
 1078W        W 4822   4.735   9.305   0.935
 1079W        W 4823   9.269   1.612   1.969
 1080W        W 4824   5.145   8.979   1.956
 1081W        W 4825   3.624   8.561   8.960
 1082W        W 4826   6.939   0.178  11.825
 1083W        W 4827   9.908   1.855   1.442
 1084W        W 4828   7.571   5.408  11.000
 1085W        W 4829   8.662   6.820   1.472
 1086W        W 4830   5.780   4.638   1.371
 1087W        W 4831   5.117  10.415   1.510
 1088W        W 4832   8.350   6.202   2.175
 1089W        W 4833   6.136   3.694   1.711
 1090W        W 4834  10.340   1.233   2.636
 1091W        W 4835   3.563   2.731   1.849
 1092W        W 4836   5.253   9.000  11.461
 1093W        W 4837   1.771   7.170   9.826
 1094W        W 4838   9.886   7.066   2.986
 1095W        W 4839   3.681   9.605   0.222
 1096W        W 4840   6.861   2.232  10.694
 1097W        W 4841   9.429   1.206   9.972
 1098W        W 4842   5.358   0.420  10.591
 1099W        W 4843   3.274  10.172  10.871
 1100W        W 4844   8.146   8.390   0.308
 1101W        W 4845   6.492   3.340   2.793
 1102W        W 4846   4.635   7.874   2.319
 1103W        W 4847   2.272   8.329   1.373
 1104W        W 4848   6.082   9.677  10.468
 1105W        W 4849   6.093   1.034   0.179
 1106W        W 4850   3.254   0.513   2.734
 1107W        W 4851   3.901   4.659   2.730
 1108W        W 4852   2.843   3.529  11.784
 1109W        W 4853   5.275   1.354  11.010
 1110W        W 4854   2.945   4.600   9.630
 1111W        W 4855   6.217   1.311  10.552
 1112W        W 4856   3.188   4.619  11.583
 1113W        W 4857   6.570  10.226   0.551
 1114W        W 4858   9.864   1.393  10.687
 1115W        W 4859   0.149   8.320   0.366
 1116W        W 4860   3.402   3.665  10.413
 1117W        W 4861   0.175   6.185   9.868
 1118W        W 4862   4.951   5.639  10.272
 1119W        W 4863   6.165   6.500   1.220
 1120W        W 4864   5.640   3.132  11.144
 1121W        W 4865   4.713   9.110   9.138
 1122W        W 4866   9.539   9.583   0.034
 1123W        W 4867   5.004   4.520   1.886
 1124W        W 4868   1.732   5.996   9.897
 1125W        W 4869   2.195   9.488   9.844
 1126W        W 4870   0.361   2.761   1.172
 1127W        W 4871   2.940   5.955   0.523
 1128W        W 4872   2.228   0.940  10.562
 1129W        W 4873   0.190   1.674  11.078
 1130W        W 4874   3.530   1.702  11.988
 1131W        W 4875   9.962   6.168   1.377
 1132W        W 4876   8.117   7.082   8.469
 1133W        W 4877   5.978   7.483   1.512
 1134W        W 4878   3.691   3.518   1.466
 1135W        W 4879   8.490   5.919   9.600
 1136W        W 4880   1.036   5.984   9.537
 1137W        W 4881   2.821   8.876   2.172
 1138W        W 4882   4.806   3.153   2.704
 1139W        W 4883   9.896   6.021   0.009
 1140W        W 4884   4.999   4.201   8.671
 1141W        W 4885  10.383   7.228   0.220
 1142W        W 4886   9.560   7.073  11.937
 1143W        W 4887   7.588   5.778  11.917
 1144W        W 4888   3.714   1.428   9.356
 1145W        W 4889   0.782   7.026  10.594
 1146W        W 4890   9.184   1.742  10.807
 1147W        W 4891   8.942   3.316   1.079
 1148W        W 4892  10.318   0.461   0.699
 1149W        W 4893   0.307   6.998  10.246
 1150W        W 4894   8.388   5.024   9.661
 1151W        W 4895   0.341   2.818   3.135
 1152W        W 4896   4.414   9.533  10.126
 1153W        W 4897   7.887  10.223   9.563
 1154W        W 4898   2.675   5.660   1.728
 1155W        W 4899   7.179   7.014   0.202
 1156W        W 4900   5.430   7.294   3.710
 1157W        W 4901   8.364  10.483  11.772
 1158W        W 4902   6.465   1.390   9.611
 1159W        W 4903   1.778   4.279   0.621
 1160W        W 4904   9.873   8.901  11.574
 1161W        W 4905   3.524   7.552   1.159
 1162W        W 4906   1.666   3.168   2.995
 1163W        W 4907   6.979   6.044   0.951
 1164W        W 4908   0.495   2.094   0.925
 1165W        W 4909   7.129   9.301   3.267
 1166W        W 4910   2.682   1.926   9.919
 1167W        W 4911   3.702   8.857   0.906
 1168W        W 4912   1.356   0.874  10.531
 1169W        W 4913   9.969   5.718  10.301
 1170W        W 4914   8.753  10.038  10.521
 1171W        W 4915   3.120   9.804  11.357
 1172W        W 4916   1.827   5.740  11.226
 1173W        W 4917   0.991   1.411   3.244
 1174W        W 4918   9.542   7.052   3.433
 1175W        W 4919  10.363   9.865   1.685
 1176W        W 4920   5.746   7.011   2.358
 1177W        W 4921   7.369   5.654   9.103
 1178W        W 4922   2.842   4.819   2.816
 1179W        W 4923   9.480   3.609   3.396
 1180W        W 4924   9.549   4.509   0.414
 1181W        W 4925   5.667   1.304   8.739
 1182W        W 4926   7.040   3.976   2.398
 1183W        W 4927   5.644   3.742   1.982
 1184W        W 4928   7.696   3.825  11.859
 1185W        W 4929   7.167   2.660  10.630
 1186W        W 4930  10.423   4.368   0.762
 1187W        W 4931   7.188   1.245  11.870
 1188W        W 4932   2.947   2.952   8.404
 1189W        W 4933   5.546   2.232   8.801
 1190W        W 4934   8.137   1.888   2.776
 1191W        W 4935   3.327   0.503   2.234
 1192W        W 4936   7.936   7.382   2.701
 1193W        W 4937   0.273   1.347   9.822
 1194W        W 4938   2.400   1.871   8.637
 1195W        W 4939   0.638   8.913   0.938
 1196W        W 4940   6.161   6.007   1.032
 1197W        W 4941   9.093   3.739  10.526
 1198W        W 4942   4.276   1.191   0.901
 1199W        W 4943   2.686   3.745   0.610
 1200W        W 4944   7.891   5.109   0.211
 1201W        W 4945   7.827   8.288  11.326
 1202W        W 4946   7.924   6.612  11.689
 1203W        W 4947   1.220   7.357   3.061
 1204W        W 4948   1.428   6.479  11.017
 1205W        W 4949   7.564   7.917  11.060
 1206W        W 4950   1.641   2.723   3.260
 1207W        W 4951   6.052   1.963   0.749
 1208W        W 4952   2.174   8.576   2.308
 1209W        W 4953   6.887   7.856   9.992
 1210W        W 4954   1.379   5.582   9.435
 1211W        W 4955   1.878   5.915  10.396
 1212W        W 4956   1.786   7.711   8.647
 1213W        W 4957   7.189   1.481  11.319
 1214W        W 4958   2.281   3.789   8.895
 1215W        W 4959  10.021   3.794  10.281
 1216W        W 4960   0.027   9.368   1.417
 1217W        W 4961   9.853   5.507   9.849
 1218W        W 4962   7.674   9.444   8.575
 1219W        W 4963   3.167   2.771   9.344
 1220W        W 4964   7.296   4.417   0.599
 1221W        W 4965   2.956   7.569   8.635
 1222W        W 4966   4.015   7.950   3.386
 1223W        W 4967   3.495   3.152   3.317
 1224W        W 4968   8.195   4.689   0.174
 1225W        W 4969   5.603   1.667   2.501
 1226W        W 4970   3.185   4.104  10.835
 1227W        W 4971   9.517   0.707  11.596
 1228W        W 4972   5.654   8.460   0.212
 1229W        W 4973   2.165   7.343  11.259
 1230W        W 4974   4.587   5.029  10.804
 1231W        W 4975   3.761   1.317  10.367
 1232W        W 4976   2.292   8.370   8.907
 1233W        W 4977   8.965   0.025   1.843
 1234W        W 4978   6.003   5.809   9.575
 1235W        W 4979   0.830  10.054   3.380
 1236W        W 4980   5.723   9.568   2.988
 1237W        W 4981   9.432   1.726   1.493
 1238W        W 4982   3.507   1.682   0.797
 1239W        W 4983   6.949   0.293   9.509
 1240W        W 4984   9.488   0.960   0.896
 1241W        W 4985   9.383   9.614   2.948
 1242W        W 4986   9.323   5.079   9.221
 1243W        W 4987   1.488   7.775   2.925
 1244W        W 4988   2.177   5.798   2.338
 1245W        W 4989   6.169   6.458   3.902
 1246W        W 4990   5.262   3.793   2.329
 1247W        W 4991   0.520   8.292   9.476
 1248W        W 4992   6.221   2.718  10.776
 1249W        W 4993   5.031   3.735   7.896
 1250W        W 4994   4.277   3.892  10.340
 1251W        W 4995   7.393   6.784   3.674
 1252W        W 4996   5.388   7.087  10.561
 1253W        W 4997   5.992   8.383   9.538
 1254W        W 4998   7.167   7.344   0.656
 1255W        W 4999   5.109   0.707   2.157
 1256W        W 5000   4.755   2.707  10.755
 1257W        W 5001   3.377   2.798   0.271
 1258W        W 5002   7.968   0.960   8.858
 1259W        W 5003   5.986   3.905  10.207
 1260W        W 5004   2.176   5.769   8.978
 1261W        W 5005   2.784   4.701   1.941
 1262W        W 5006   9.730   7.154   1.449
 1263W        W 5007   8.567   3.375   3.377
 1264W        W 5008   5.031   7.993   9.761
 1265W        W 5009   1.697   4.684   9.684
 1266W        W 5010   9.118   8.178   9.197
 1267W        W 5011   7.519   5.190   3.602
 1268W        W 5012   6.499   7.335   2.747
 1269W        W 5013   4.584   8.118  10.034
 1270W        W 5014   4.508   9.703   8.533
 1271W        W 5015   7.813  10.418  11.952
 1272W        W 5016   4.106   1.394   0.415
 1273W        W 5017   1.289   6.475   0.320
 1274W        W 5018   8.102   8.910   0.334
 1275W        W 5019   0.132   6.858   8.633
 1276W        W 5020   4.608   5.028   2.675
 1277W        W 5021   9.343   2.414   9.968
 1278W        W 5022  10.130   0.431   9.935
 1279W        W 5023   1.818   1.664  10.053
 1280W        W 5024   1.278   2.174   1.174
 1281W        W 5025   7.917   8.819   3.317
 1282W        W 5026  10.267   6.437   9.665
 1283W        W 5027   0.472   3.461  10.599
 1284W        W 5028   7.048   5.379   0.772
 1285W        W 5029   5.586   9.428   1.466
 1286W        W 5030   3.518   8.353   3.293
 1287W        W 5031   7.472   5.028   0.477
 1288W        W 5032   7.229   9.297   1.892
 1289W        W 5033   9.102   1.344   0.228
 1290W        W 5034   2.854   4.028   3.281
 1291W        W 5035   9.786   0.480   1.798
 1292W        W 5036   1.826   5.570   0.248
 1293W        W 5037   3.122  10.495   9.611
 1294W        W 5038   1.844  10.330  11.534
 1295W        W 5039  10.273   1.951   2.054
 1296W        W 5040   6.874   7.588   1.220
 1297W        W 5041   6.489   3.540  10.741
 1298W        W 5042   8.753  10.437   9.460
 1299W        W 5043   3.205   6.026   2.371
 1300W        W 5044   4.440   4.621   0.815
 1301W        W 5045  10.471   5.414   2.354
 1302W        W 5046   3.051   0.693   3.269
 1303W        W 5047   6.711   5.562  10.842
 1304W        W 5048   8.902   7.645   0.371
 1305W        W 5049   8.375   8.581   3.320
 1306W        W 5050   2.404   0.285   9.440
 1307W        W 5051   8.368   1.827   0.436
 1308W        W 5052   0.784   2.442   8.588
 1309W        W 5053   0.673   4.162   2.248
 1310W        W 5054   6.970   2.243   8.833
 1311W        W 5055   4.648   7.077   1.657
 1312W        W 5056   0.383   6.415  11.898
 1313W        W 5057   3.119   7.611   3.160
 1314W        W 5058   4.190   7.862   9.807
 1315W        W 5059   2.505   9.585   8.776
 1316W        W 5060   7.666   6.526   1.560
 1317W        W 5061   6.840   2.312  11.744
 1318W        W 5062   1.166   7.586  11.262
 1319W        W 5063   4.610   9.939   2.690
 1320W        W 5064   7.877   6.023   4.160
 1321W        W 5065   4.837   1.319  11.257
 1322W        W 5066   6.553   5.849   2.738
 1323W        W 5067   9.920   7.503   1.831
 1324W        W 5068   6.486   0.971   9.293
 1325W        W 5069   2.385   1.475   9.007
 1326W        W 5070   4.762   6.508   1.838
 1327W        W 5071   4.626   6.156  10.373
 1328W        W 5072   6.992   9.447   1.444
 1329W        W 5073   4.144   4.698   9.969
 1330W        W 5074   2.704   3.249  10.870
 1331W        W 5075   4.208   0.356   1.229
 1332W        W 5076   7.694   8.312   0.526
 1333W        W 5077   9.362   0.232   9.557
 1334W        W 5078   2.806   1.435   9.824
 1335W        W 5079   3.240   4.075  11.341
 1336W        W 5080   7.422   9.760   0.478
 1337W        W 5081   1.200   6.502   1.771
 1338W        W 5082  10.440   0.159   1.148
 1339W        W 5083   8.849   3.170   9.530
 1340W        W 5084   6.077   7.364   3.076
 1341W        W 5085   5.084   7.419  10.072
 1342W        W 5086   7.690   7.331   9.930
 1343W        W 5087   3.811   2.238   1.790
 1344W        W 5088   2.594   3.131  11.982
 1345W        W 5089   3.950   2.625   8.579
 1346W        W 5090   7.867   7.033   9.500
 1347W        W 5091   3.899   3.642  11.062
 1348W        W 5092   6.081   0.364   0.835
 1349W        W 5093   2.194   4.382   8.434
 1350W        W 5094   6.219   0.045  10.843
 1351W        W 5095   7.540   2.921   2.280
 1352W        W 5096   5.551   4.364  11.415
 1353W        W 5097   8.228   5.791   3.860
 1354W        W 5098   9.000   7.682   9.334
 1355W        W 5099   4.736   7.234   9.478
 1356W        W 5100   7.931   1.189   1.959
 1357W        W 5101   7.864   8.355   9.838
 1358W        W 5102   3.696   1.389   1.457
 1359W        W 5103   7.428   7.448  11.268
 1360W        W 5104   6.571   6.850   2.723
 1361W        W 5105   8.462   4.598   3.109
 1362W        W 5106   7.923   5.099   8.071
 1363W        W 5107   4.572  10.352  10.049
 1364W        W 5108   5.767   4.642   2.930
 1365W        W 5109   9.703  10.414   1.247
 1366W        W 5110  10.082   0.512  11.817
 1367W        W 5111   5.107   6.152  11.047
 1368W        W 5112   2.284   6.255   3.801
 1369W        W 5113   1.956   1.148   8.802
 1370W        W 5114   1.799   3.205  10.998
 1371W        W 5115   4.108   2.377   0.452
 1372W        W 5116   9.398   0.414   8.643
 1373W        W 5117   2.900   4.023   2.373
 1374W        W 5118   8.954   2.721  10.743
 1375W        W 5119   4.480   6.775  11.817
 1376W        W 5120   0.155   9.328  11.280
 1377W        W 5121  10.270   6.333   2.517
 1378W        W 5122   5.828   7.683   1.958
 1379W        W 5123   2.675   9.982   3.167
 1380W        W 5124   8.384   4.144   9.582
 1381W        W 5125   5.728   8.316   1.159
 1382W        W 5126   4.716   3.227   9.694
 1383W        W 5127   2.624   1.218  10.280
 1384W        W 5128   7.796  10.362   1.265
 1385W        W 5129   8.291   0.247   0.216
 1386W        W 5130   7.057   8.783   3.328
 1387W        W 5131   7.842   9.373   2.661
 1388W        W 5132   2.269   9.842   1.422
 1389W        W 5133   5.997   2.967  10.345
 1390W        W 5134   7.237   7.890   1.703
 1391W        W 5135   1.705   2.643   9.549
 1392W        W 5136   5.425   0.866  10.859
 1393W        W 5137  10.054   0.525   3.130
 1394W        W 5138   1.272   0.531  11.398
 1395W        W 5139   8.569   1.777   1.377
 1396W        W 5140   2.437   2.201   9.556
 1397W        W 5141   1.944   3.305   1.514
 1398W        W 5142   5.712   8.216   2.744
 1399W        W 5143   1.009   2.329   9.583
 1400W        W 5144   0.697   2.892  11.420
 1401W        W 5145   7.683   1.982  10.266
 1402W        W 5146   5.462   0.814   3.091
 1403W        W 5147   3.945   5.644  10.216
 1404W        W 5148   2.920   4.579  10.966
 1405W        W 5149   8.965   6.205   2.810
 1406W        W 5150   5.564   2.044   0.981
 1407W        W 5151   1.593   7.992  10.043
 1408W        W 5152   2.668   6.977   3.413
 1409W        W 5153   7.605   1.406   3.633
 1410W        W 5154   2.797   3.749   1.945
 1411W        W 5155  10.360   3.054   8.925
 1412W        W 5156   9.114   6.678   2.665
 1413W        W 5157   1.201   3.331   0.246
 1414W        W 5158   4.924   0.661   8.243
 1415W        W 5159   3.578   3.223  10.684
 1416W        W 5160   1.429   2.262   9.314
 1417W        W 5161   0.442   6.889  10.956
 1418W        W 5162   2.160   7.706   1.232
 1419W        W 5163   1.337   4.308   8.997
 1420W        W 5164   2.605   2.687   0.815
 1421W        W 5165   9.054   5.514   9.279
 1422W        W 5166   0.295   4.131  11.948
 1423W        W 5167   2.399   0.872   1.942
 1424W        W 5168   2.396   6.100   9.789
 1425W        W 5169   5.014   3.779   9.041
 1426W        W 5170   8.904   5.295   0.446
 1427W        W 5171   6.215   5.492   0.077
 1428W        W 5172   1.471   5.084   1.923
 1429W        W 5173   0.245   0.562   0.991
 1430W        W 5174   6.146   8.394  10.097
 1431W        W 5175   0.318   0.390  11.362
 1432W        W 5176   9.490   4.145   0.068
 1433W        W 5177   7.975   8.744   1.702
 1434W        W 5178  10.269   8.463   3.148
 1435W        W 5179   4.818   4.562   1.409
 1436W        W 5180   0.923   0.330   0.317
 1437W        W 5181   8.870   9.792   3.289
 1438W        W 5182   1.067  10.373   0.167
 1439W        W 5183   7.991   4.623   2.391
 1440W        W 5184  10.471  10.125   9.086
 1441W        W 5185   8.816   5.486   9.754
 1442W        W 5186   8.839   9.047  11.981
 1443W        W 5187   4.761   1.248   0.729
 1444W        W 5188   7.961   6.489   2.645
 1445W        W 5189   5.437   2.146  10.728
 1446W        W 5190   4.206   5.855  10.637
 1447W        W 5191   2.221   2.191  11.140
 1448W        W 5192   5.224   4.244   3.618
 1449W        W 5193   3.692   5.893   2.219
 1450W        W 5194   1.776   9.556   9.038
 1451W        W 5195   5.285   0.058  10.983
 1452W        W 5196   6.088   9.932   2.969
 1453W        W 5197   2.155   6.533   1.883
 1454W        W 5198   8.143   5.696   8.490
 1455W        W 5199   1.656   4.608   0.252
 1456W        W 5200   7.641   3.267  11.932
 1457W        W 5201   2.840   5.758  10.379
 1458W        W 5202   6.628   6.615   3.167
 1459W        W 5203   6.812   2.080  10.204
 1460W        W 5204   5.738   3.746   2.496
 1461W        W 5205   5.175   1.762   0.833
 1462W        W 5206   3.800   3.549   9.380
 1463W        W 5207  10.213   6.041   0.937
 1464W        W 5208   4.226   1.417   9.586
 1465W        W 5209   3.009   0.878   2.417
 1466W        W 5210   3.559   0.145  11.277
 1467W        W 5211   4.671   0.322   9.880
 1468W        W 5212   1.717   3.134   2.482
 1469W        W 5213   1.019   8.310   0.471
 1470W        W 5214   3.529   6.699   8.673
 1471W        W 5215   2.269   5.477  11.992
 1472W        W 5216   6.430   5.240   2.574
 1473W        W 5217   2.279   0.318   3.441
 1474W        W 5218   7.546   1.491   0.732
 1475W        W 5219   9.734  10.121  10.348
 1476W        W 5220   9.591   2.229   1.265
 1477W        W 5221   1.796   7.287  10.361
 1478W        W 5222   0.803   4.144   3.285
 1479W        W 5223   1.676   7.638  11.316
 1480W        W 5224   8.544   5.280   1.277
 1481W        W 5225   5.721   7.109   4.080
 1482W        W 5226   4.554   8.138   8.960
 1483W        W 5227   9.816   7.671   9.367
 1484W        W 5228   4.993   7.899   8.804
 1485W        W 5229   8.753   5.831   0.956
 1486W        W 5230   3.278   6.319   1.450
 1487W        W 5231   6.833   8.101   8.881
 1488W        W 5232   8.988   3.377   1.582
 1489W        W 5233   9.495   4.727  10.960
 1490W        W 5234   2.791   4.591   0.699
 1491W        W 5235   9.860   2.224   0.173
 1492W        W 5236  10.392   6.101   0.283
 1493W        W 5237   3.144   5.659   1.935
 1494W        W 5238   7.863   7.185  10.397
 1495W        W 5239   6.163   0.535  10.752
 1496W        W 5240   7.852   9.743  11.440
 1497W        W 5241   3.969   8.415   3.107
 1498W        W 5242   0.270   8.551   9.112
 1499W        W 5243   5.303   4.494   1.210
 1500W        W 5244   8.470   6.368   1.264
 1501W        W 5245   7.509   9.507   3.574
 1502W        W 5246   3.729  10.090   9.118
 1503W        W 5247   8.582   0.992   2.889
 1504W        W 5248   4.269   1.493  11.103
 1505W        W 5249   3.580   4.314   0.445
 1506W        W 5250   4.539   6.956   0.631
 1507W        W 5251   8.475   9.006   2.529
 1508W        W 5252   2.036   7.703   2.181
 1509W        W 5253   8.478   8.274  11.947
 1510W        W 5254   1.764   2.128   2.774
 1511W        W 5255   5.665   1.297   0.254
 1512W        W 5256   6.993   7.519   3.486
 1513W        W 5257   0.200   5.937  11.888
 1514W        W 5258   9.448   5.033   1.271
 1515W        W 5259   4.279   1.120  10.010
 1516W        W 5260   0.006   8.400  10.982
 1517W        W 5261   9.341   0.546  10.484
 1518W        W 5262   3.176   6.994   2.156
 1519W        W 5263   7.653   4.164   8.324
 1520W        W 5264   1.475   5.474  11.465
 1521W        W 5265   5.119   0.007   3.372
 1522W        W 5266   9.538   5.443   0.966
 1523W        W 5267   9.050   5.849   3.170
 1524W        W 5268   8.775   7.046   2.773
 1525W        W 5269   3.697   8.634   2.691
 1526W        W 5270   2.746  10.407  11.583
 1527W        W 5271   3.492   2.771  10.977
 1528W        W 5272   7.286   2.318   9.766
 1529W        W 5273   3.080   9.217   3.626
 1530W        W 5274  10.313   6.188   3.010
 1531W        W 5275   1.860   3.723  10.923
 1532W        W 5276   7.502   6.097   9.386
 1533W        W 5277   6.039   7.424   2.571
 1534W        W 5278   5.637   8.301   3.629
 1535W        W 5279   2.232   5.800   1.457
 1536W        W 5280   5.533   6.853   0.409
 1537W        W 5281   3.356   1.115   3.352
 1538W        W 5282  10.350   6.432   9.107
 1539W        W 5283   6.773   8.473   0.300
 1540W        W 5284   9.820   5.249  10.442
 1541W        W 5285   4.475   7.534   1.473
 1542W        W 5286   3.689   6.709   9.174
 1543W        W 5287   1.467   5.542   2.979
 1544W        W 5288   5.597   3.096   9.385
 1545W        W 5289   7.535   8.883   1.951
 1546W        W 5290  10.157   5.962   9.862
 1547W        W 5291   9.872   6.165   8.584
 1548W        W 5292   6.135   9.891   9.985
 1549W        W 5293   9.849   3.264  11.127
 1550W        W 5294   6.097   6.474  11.817
 1551W        W 5295   4.501   7.481   1.989
 1552W        W 5296   2.407   7.582  10.149
 1553W        W 5297   4.459   7.245  11.072
 1554W        W 5298   5.621   1.294   9.256
 1555W        W 5299   7.230   4.465   9.024
 1556W        W 5300   7.663   6.952   0.329
 1557W        W 5301  10.304   4.939   2.500
 1558W        W 5302   8.960   6.246   3.491
 1559W        W 5303   8.096   1.270  11.464
 1560W        W 5304   6.757   5.677   9.852
 1561W        W 5305   1.524   1.870   1.978
 1562W        W 5306   4.875   5.642   9.412
 1563W        W 5307   5.148   1.222   3.017
 1564W        W 5308   3.595   3.733   8.934
 1565W        W 5309   7.473   6.757  11.872
 1566W        W 5310   5.673   2.807   1.585
 1567W        W 5311   3.706   5.875   3.163
 1568W        W 5312   6.119   5.932  11.819
 1569W        W 5313   2.826   0.726  11.484
 1570W        W 5314   7.355   2.355  11.768
 1571W        W 5315   5.292   9.315   2.954
 1572W        W 5316   9.668   5.456   9.355
 1573W        W 5317   2.173   8.052  10.177
 1574W        W 5318   8.047   4.386   3.915
 1575W        W 5319   9.573   0.469   0.586
 1576W        W 5320   4.511   0.726   0.905
 1577W        W 5321   2.193   4.082   0.855
 1578W        W 5322   1.386   9.366  11.616
 1579W        W 5323   1.069   8.392  10.694
 1580W        W 5324   1.594   0.762   0.804
 1581W        W 5325   7.828   1.119   2.514
 1582W        W 5326   9.197   5.588   3.600
 1583W        W 5327   1.844   9.248   0.355
 1584W        W 5328   9.821   0.240   2.726
 1585W        W 5329   1.390   8.442   9.278
 1586W        W 5330   8.834   0.804   9.042
 1587W        W 5331   6.546   5.030  11.059
 1588W        W 5332   8.951   7.908   3.365
 1589W        W 5333   5.430   7.104   8.752
 1590W        W 5334   1.834   8.037   9.112
 1591W        W 5335   6.357   2.428  11.936
 1592W        W 5336   1.234   1.141   0.027
 1593W        W 5337   3.355   8.749   0.445
 1594W        W 5338   5.719   0.190  11.437
 1595W        W 5339   7.102   6.589   1.518
 1596W        W 5340   7.993   7.686  10.630
 1597W        W 5341   9.267   2.392  10.474
 1598W        W 5342   9.829   6.136   2.315
 1599W        W 5343   7.258   2.924   0.914
 1600W        W 5344   0.956   5.163   0.574
 1601W        W 5345  10.366   4.527   1.251
 1602W        W 5346   3.561   3.658   9.814
 1603W        W 5347   8.960   3.580   0.298
 1604W        W 5348   6.016   5.202  10.128
 1605W        W 5349   9.761   8.159  10.768
 1606W        W 5350   8.878   4.373   2.567
 1607W        W 5351   7.398   6.586   1.969
 1608W        W 5352   1.288   5.725   9.932
 1609W        W 5353  10.499   8.738   2.238
 1610W        W 5354   7.617   8.119   1.451
 1611W        W 5355   6.940   4.541  11.816
 1612W        W 5356   5.495   6.224   2.785
 1613W        W 5357   8.196   0.675   9.672
 1614W        W 5358   6.027   9.174   1.745
 1615W        W 5359   5.318   9.870   0.935
 1616W        W 5360   7.651   9.547  11.017
 1617W        W 5361   7.094   3.591   2.066
 1618W        W 5362   4.717   3.641   0.923
 1619W        W 5363   8.511   1.486   9.952
 1620W        W 5364   8.447   3.803   2.453
 1621W        W 5365   2.509   1.620   0.905
 1622W        W 5366   4.135   6.574   9.379
 1623W        W 5367   3.354   2.298   9.626
 1624W        W 5368   9.623   3.470  11.550
 1625W        W 5369   6.127   0.311   1.368
 1626W        W 5370   5.203   3.915   9.515
 1627W        W 5371   4.896   9.034   2.868
 1628W        W 5372   3.311   7.427   3.754
 1629W        W 5373   9.425   9.754   1.794
 1630W        W 5374   1.654  10.451   2.917
 1631W        W 5375   8.508   2.784   9.475
 1632W        W 5376   4.109   4.133   1.949
 1633W        W 5377   1.331   9.434   9.265
 1634W        W 5378   2.829   7.358   0.487
 1635W        W 5379   8.937   3.169  11.031
 1636W        W 5380   5.020  10.478   0.326
 1637W        W 5381   1.235   2.747   1.443
 1638W        W 5382   8.529   5.530  10.557
 1639W        W 5383   2.676   6.034   2.897
 1640W        W 5384   0.217   2.708   9.124
 1641W        W 5385   6.967   6.026   3.571
 1642W        W 5386   4.452   5.672  10.234
 1643W        W 5387   4.318   1.381   3.535
 1644W        W 5388   4.079   6.131   2.896
 1645W        W 5389   7.176   3.204  11.700
 1646W        W 5390   5.935   5.634  10.413
 1647W        W 5391   1.427   6.897   2.848
 1648W        W 5392   0.917   2.698  10.187
 1649W        W 5393   7.231   3.698   2.911
 1650W        W 5394   4.984   5.178   0.321
 1651W        W 5395   7.050   0.392   1.679
 1652W        W 5396   6.028   2.447   2.198
 1653W        W 5397   5.585   2.446   1.941
 1654W        W 5398   7.833   5.669   8.884
 1655W        W 5399   2.158   7.796  11.467
 1656W        W 5400   8.520   0.660   1.531
 1657W        W 5401   5.506  10.234  11.445
 1658W        W 5402   4.776   8.085  11.695
 1659W        W 5403   4.615   5.976   1.170
 1660W        W 5404  10.390   3.079   2.925
 1661W        W 5405   1.944   1.372   9.258
 1662W        W 5406   4.755   3.639  10.487
 1663W        W 5407   0.521   5.216   0.897
 1664W        W 5408   0.535   9.367   0.708
 1665W        W 5409   9.803   2.349   9.776
 1666W        W 5410   2.771   7.869   2.826
 1667W        W 5411   1.234   6.572   2.277
 1668W        W 5412   0.954   9.438   8.445
 1669W        W 5413   6.135   1.044  11.443
 1670W        W 5414   2.234   6.819   2.427
 1671W        W 5415   2.131   4.316   0.138
 1672W        W 5416   0.397   6.550   8.965
 1673W        W 5417   3.944   3.190   3.589
 1674W        W 5418   5.470   3.400   3.711
 1675W        W 5419   4.707   1.270   2.635
 1676W        W 5420   5.165   1.208   1.485
 1677W        W 5421   3.917   8.935   3.053
 1678W        W 5422   1.609   9.167  10.492
 1679W        W 5423   1.110   8.496   1.414
 1680W        W 5424   6.172   1.400   2.314
 1681W        W 5425   3.826   2.808   0.546
 1682W        W 5426   7.555   3.082   9.167
 1683W        W 5427   1.357   2.450  11.581
 1684W        W 5428   5.112   2.233   0.628
 1685W        W 5429   6.358   7.305  10.428
 1686W        W 5430   9.819   1.796  11.451
 1687W        W 5431   1.009   1.401   1.416
 1688W        W 5432   6.384   1.986   1.543
 1689W        W 5433   5.666   8.511   3.163
 1690W        W 5434   4.208   6.737   2.389
 1691W        W 5435   2.285   0.869   2.879
 1692W        W 5436   5.642   3.277   1.781
 1693W        W 5437   7.353   6.891   0.710
 1694W        W 5438   4.478   2.173   0.075
 1695W        W 5439   2.743   5.648  11.256
 1696W        W 5440   7.607   4.103   3.033
 1697W        W 5441  10.241   5.728  11.804
 1698W        W 5442   8.052   1.664  11.790
 1699W        W 5443   5.617   3.200   3.271
 1700W        W 5444   7.910   1.942  10.737
 1701W        W 5445   2.095   4.203   1.848
 1702W        W 5446   5.533  10.261   0.371
 1703W        W 5447   2.240  10.395   9.774
 1704W        W 5448   5.239   2.037   2.673
 1705W        W 5449   2.320   5.152   0.375
 1706W        W 5450   4.780   7.160   8.987
 1707W        W 5451   2.810   9.033   9.025
 1708W        W 5452  10.065   9.444   1.673
 1709W        W 5453   6.954   6.565   0.025
 1710W        W 5454   5.660   2.206   0.497
 1711W        W 5455   9.670   1.792  10.956
 1712W        W 5456   5.573   7.330   1.223
 1713W        W 5457   0.284   4.713   0.944
 1714W        W 5458   9.867   8.067  11.259
 1715W        W 5459   7.342   9.668  11.501
 1716W        W 5460   4.164   9.127   0.728
 1717W        W 5461   9.268   5.470   0.099
 1718W        W 5462   4.628   8.221   2.704
 1719W        W 5463   0.244   2.875  10.892
 1720W        W 5464   6.403   2.474   0.856
 1721W        W 5465   3.345   0.731  10.035
 1722W        W 5466   2.788   1.417  11.857
 1723W        W 5467   0.657   5.090   2.777
 1724W        W 5468  10.254   3.210   0.307
 1725W        W 5469   2.705   7.205   9.803
 1726W        W 5470   2.925   9.032  10.474
 1727W        W 5471   2.854   6.979   0.129
 1728W        W 5472   7.673   7.967   0.965
 1729W        W 5473   0.791  10.094   2.048
 1730W        W 5474   3.944   5.207  11.460
 1731W        W 5475   6.191   2.414   1.348
 1732W        W 5476  10.252   6.509  10.625
 1733W        W 5477   6.260   8.551   0.342
 1734W        W 5478   4.151   6.869   0.240
 1735W        W 5479   2.154   6.090  10.778
 1736W        W 5480   2.618   5.529   2.216
 1737W        W 5481  10.475   6.991  10.747
 1738W        W 5482   5.097   3.113  10.891
 1739W        W 5483   3.050   1.867   1.734
 1740W        W 5484   7.436   7.148   2.714
 1741W        W 5485   6.095   3.382   2.434
 1742W        W 5486   0.266   6.198  11.430
 1743W        W 5487   7.533   8.623   1.461
 1744W        W 5488   9.122   7.094   2.382
 1745W        W 5489   8.687   4.808   0.385
 1746W        W 5490   1.152   7.574   9.379
 1747W        W 5491   4.334   9.956   0.912
 1748W        W 5492   2.467   9.882  11.921
 1749W        W 5493   4.149   2.243   1.417
 1750W        W 5494   7.715   4.820  11.778
 1751W        W 5495   9.169   3.501   2.972
 1752W        W 5496   2.805   6.106   8.997
 1753W        W 5497   0.484   7.358   0.346
 1754W        W 5498   1.493   1.960   9.741
 1755W        W 5499   9.124   7.527   0.805
 1756W        W 5500  10.392   0.798   2.868
 1757W        W 5501   4.965   3.334   1.327
 1758W        W 5502   2.278   3.519  11.552
 1759W        W 5503   9.818   1.346   2.642
 1760W        W 5504   4.982   1.251   9.017
 1761W        W 5505   4.320   3.731   2.190
 1762W        W 5506   9.846   8.363  11.832
 1763W        W 5507   7.442   4.056   1.644
 1764W        W 5508   2.636   3.583   2.396
 1765W        W 5509   4.596   7.233   3.426
 1766W        W 5510   3.249   1.374   9.576
 1767W        W 5511   0.387   8.060   8.998
 1768W        W 5512   8.365   7.034   3.123
 1769W        W 5513   5.884   8.926   8.825
 1770W        W 5514   3.530   6.415  11.929
 1771W        W 5515   2.468   5.214  11.154
 1772W        W 5516   2.911   9.905   1.277
 1773W        W 5517   3.529   4.520   1.374
 1774W        W 5518   6.999  10.468  11.354
 1775W        W 5519   2.893   7.652  10.051
 1776W        W 5520   9.506   2.653   2.007
 1777W        W 5521   5.141   8.310  10.560
 1778W        W 5522   2.687   8.613   8.677
 1779W        W 5523   0.583   3.531   1.628
 1780W        W 5524   5.482   4.698  10.134
 1781W        W 5525   2.292   7.294   2.717
 1782W        W 5526   4.102   6.684   8.861
 1783W        W 5527   5.351   7.981   1.255
 1784W        W 5528   0.055   5.723  11.418
 1785W        W 5529   7.509   0.736   8.993
 1786W        W 5530   5.478   2.652   9.142
 1787W        W 5531   5.723   9.547   0.946
 1788W        W 5532   3.026   2.210   1.355
 1789W        W 5533   8.887   8.558  11.846
 1790W        W 5534   3.301   1.451  11.098
 1791W        W 5535   2.843   6.242  10.517
 1792W        W 5536   8.050   2.325   3.847
 1793W        W 5537   1.141   6.983   0.444
 1794W        W 5538   5.956   6.968   1.359
 1795W        W 5539   2.101   4.278   2.869
 1796W        W 5540   7.146   8.182   1.265
 1797W        W 5541   5.719   5.591  10.912
 1798W        W 5542   4.194   2.857   0.183
 1799W        W 5543   5.953   1.182   1.894
 1800W        W 5544   6.148   6.162   0.266
 1801W        W 5545   5.199   2.872   0.272
 1802W        W 5546  10.493   2.119  11.065
 1803W        W 5547   3.094   2.713  11.311
 1804W        W 5548   6.636   1.904   2.523
 1805W        W 5549   9.856   9.872   1.383
 1806W        W 5550   4.858   9.863  11.693
 1807W        W 5551   7.413   7.291  11.779
 1808W        W 5552   6.042   1.629   9.293
 1809W        W 5553   9.458   8.490   2.273
 1810W        W 5554   3.887   3.640  10.546
 1811W        W 5555   4.902   7.500  11.102
 1812W        W 5556   3.716   9.540   1.495
 1813W        W 5557   3.588   2.683   3.004
 1814W        W 5558   5.164   3.409   9.412
 1815W        W 5559   4.584   6.905   1.186
 1816W        W 5560  10.493   9.122  11.906
 1817W        W 5561   1.905   0.399   9.445
 1818W        W 5562   3.563   9.017   1.381
 1819W        W 5563   6.152   0.631   9.519
 1820W        W 5564   2.052   3.780   1.268
 1821W        W 5565   3.531   2.237   1.355
 1822W        W 5566   5.557   6.059   9.735
 1823W        W 5567   4.210   9.139   9.836
 1824W        W 5568   5.752  10.071   0.813
 1825W        W 5569   8.584   8.572   2.303
 1826W        W 5570   7.053   0.993  11.421
 1827W        W 5571   9.562   2.630   2.515
 1828W        W 5572   0.135   4.067   2.349
 1829W        W 5573   1.690   2.373   9.993
 1830W        W 5574   6.201   7.480   9.981
 1831W        W 5575   6.563   4.534   0.139
 1832W        W 5576   7.665   7.516   2.251
 1833W        W 5577  10.193   2.312   2.421
 1834W        W 5578   6.537   2.810   9.476
 1835W        W 5579   7.544   3.945   0.739
 1836W        W 5580   4.723   0.238   2.930
 1837W        W 5581   8.638   1.736   2.799
 1838W        W 5582   4.071   6.473  11.937
 1839W        W 5583   8.881   7.054   3.263
 1840W        W 5584   6.880   6.797   0.545
 1841W        W 5585   2.783   9.406   1.403
 1842W        W 5586   4.423   4.577   2.800
 1843W        W 5587   7.910   2.789   0.364
 1844W        W 5588   6.118   8.941   2.414
 1845W        W 5589   5.042  10.426  11.437
 1846W        W 5590   1.704   3.788   0.766
 1847W        W 5591   2.182   2.621   9.758
 1848W        W 5592   5.627   7.048   3.284
 1849W        W 5593   0.698   4.862   9.553
 1850W        W 5594   1.259   9.557   2.142
 1851W        W 5595   3.864   7.096   3.256
 1852W        W 5596   6.956   3.283   0.695
 1853W        W 5597   4.344   4.718   1.305
 1854W        W 5598  10.174   8.273  10.475
 1855W        W 5599   8.839   5.048   9.013
 1856W        W 5600   0.968   7.968   8.634
 1857W        W 5601   3.681   4.927   2.329
 1858W        W 5602   1.402   4.099  11.506
 1859W        W 5603   7.916   9.064  11.872
 1860W        W 5604   7.163   9.797   1.753
 1861W        W 5605  10.366   9.888   3.263
 1862W        W 5606   8.472   4.748   2.630
 1863W        W 5607   0.290   2.711   1.714
 1864W        W 5608  10.402   1.142   1.858
 1865W        W 5609   9.712   8.751   1.025
 1866W        W 5610   6.963   1.626   3.414
 1867W        W 5611   2.079   2.722  10.950
 1868W        W 5612   0.440   0.358   3.410
 1869W        W 5613   4.542   6.769  11.271
 1870W        W 5614   5.177   3.503   2.730
 1871W        W 5615   3.669   6.269   9.452
 1872W        W 5616   1.733   2.720   2.202
 1873W        W 5617   9.512   5.627   3.179
 1874W        W 5618   5.841   3.785   8.601
 1875W        W 5619   3.051   0.846   1.155
 1876W        W 5620   5.158   9.272  10.767
 1877W        W 5621   8.541   8.138   2.563
 1878W        W 5622   5.913   2.982   9.787
 1879W        W 5623   0.184   5.574   2.837
 1880W        W 5624   2.315   4.208   1.370
 1881W        W 5625   6.594   2.004   0.817
 1882W        W 5626   1.817   9.897  10.925
 1883W        W 5627   0.674   8.051   1.021
 1884W        W 5628  10.379   2.691   9.844
 1885W        W 5629   1.716   1.785  11.591
 1886W        W 5630   0.946   7.802   1.908
 1887W        W 5631   1.240   3.767   0.529
 1888W        W 5632   6.294   2.619   9.892
 1889W        W 5633   0.809   1.868  10.275
 1890W        W 5634   8.309   6.101   0.857
 1891W        W 5635   1.805   8.107   1.246
 1892W        W 5636   4.837   4.012   9.875
 1893W        W 5637   9.301   0.673   1.774
 1894W        W 5638  10.433   7.045   3.155
 1895W        W 5639   3.183   5.658   0.002
 1896W        W 5640   5.747   7.721   2.884
 1897W        W 5641   1.747   3.991   8.921
 1898W        W 5642   9.339   9.976   3.304
 1899W        W 5643   7.509   8.720   9.954
 1900W        W 5644   3.801   7.347   0.790
 1901W        W 5645   8.542   0.451   9.281
 1902W        W 5646   3.648   6.073   0.688
 1903W        W 5647   2.837   7.186   8.938
 1904W        W 5648   6.092   4.421   9.470
 1905W        W 5649   3.445   2.760   8.495
 1906W        W 5650   3.199   1.800  11.465
 1907W        W 5651   9.478   5.231   1.766
 1908W        W 5652  10.253   7.701   9.092
 1909W        W 5653   3.846   6.110   0.217
 1910W        W 5654   6.443   2.349   2.453
 1911W        W 5655   4.991   6.260   9.065
 1912W        W 5656   5.693   4.069   0.702
 1913W        W 5657   1.206   7.892   0.268
 1914W        W 5658   4.450  -0.000   9.564
 1915W        W 5659   0.518   8.316  10.827
 1916W        W 5660   4.193   4.867   1.782
 1917W        W 5661   1.749   6.626   2.490
 1918W        W 5662  10.223   5.652   1.363
 1919W        W 5663   6.295   3.625   0.198
 1920W        W 5664   7.638   9.461   2.189
 1921W        W 5665   8.103   6.611   9.276
 1922W        W 5666   7.035   5.788   0.471
 1923W        W 5667   6.469   4.896   2.965
 1924W        W 5668   6.454   6.370  10.297
 1925W        W 5669  10.353   2.672   0.401
 1926W        W 5670   6.039   1.128   9.515
 1927W        W 5671   1.419   8.965   9.560
 1928W        W 5672  10.448   4.594   3.058
 1929W        W 5673   9.535   5.868   0.334
 1930W        W 5674   3.701   9.975  11.059
 1931W        W 5675   5.207   0.381   3.023
 1932W        W 5676   6.382   1.896   9.596
 1933W        W 5677   3.223   2.081   3.649
 1934W        W 5678   4.539   3.609   9.986
 1935W        W 5679   8.341   8.053  10.503
 1936W        W 5680   2.907   3.680  11.055
 1937W        W 5681   9.913   6.192   0.529
 1938W        W 5682   0.807   2.674   1.947
 1939W        W 5683   0.200   1.929   0.508
 1940W        W 5684   7.997   4.222   0.286
 1941W        W 5685   8.030   4.389   8.637
 1942W        W 5686   9.867   3.569   8.925
 1943W        W 5687   9.434   4.600   0.992
 1944W        W 5688   0.139  10.286   3.565
 1945W        W 5689   3.136   7.833   9.044
 1946W        W 5690   3.374   0.851   0.309
 1947W        W 5691  10.297   0.022   8.806
 1948W        W 5692  10.012   1.216   8.627
 1949W        W 5693   6.097   7.456   9.091
 1950W        W 5694   7.464   3.108   0.413
 1951W        W 5695   6.182   1.242   0.967
 1952W        W 5696   5.064   1.603   1.782
 1953W        W 5697  10.480   2.170   2.813
 1954W        W 5698   5.676   3.706   1.479
 1955W        W 5699   6.608   2.550  10.362
 1956W        W 5700   1.545   9.113   3.378
 1957W        W 5701   8.043   0.249   1.472
 1958W        W 5702   0.738   0.205   2.826
 1959W        W 5703   1.362   3.682  11.072
 1960W        W 5704   6.895   2.885   9.038
 1961W        W 5705   4.790   9.431  10.462
 1962W        W 5706   0.218   6.956   0.497
 1963W        W 5707   0.962   5.622   1.698
 1964W        W 5708   2.333   5.564   1.005
 1965W        W 5709   4.737   6.620   8.598
 1966W        W 5710   8.566   3.721   1.593
 1967W        W 5711   2.631   0.816  11.047
 1968W        W 5712   5.563   7.419   0.171
 1969W        W 5713   0.775   5.076   8.996
 1970W        W 5714   1.309   1.474   9.845
 1971W        W 5715   1.782  10.304   9.036
 1972W        W 5716   5.766   5.421   0.620
 1973W        W 5717   4.946   6.989  10.321
 1974W        W 5718   9.838   6.042   2.852
 1975W        W 5719   7.170   4.117   9.741
 1976W        W 5720  10.486   5.539   3.319
 1977W        W 5721   5.422   8.058   3.202
 1978W        W 5722   7.949   7.371   0.399
 1979W        W 5723   4.787   4.953   9.402
 1980W        W 5724   5.389   6.197   8.743
 1981W        W 5725   6.648   4.958   0.386
 1982W        W 5726  10.207   4.550   2.110
 1983W        W 5727   8.364   1.294   0.864
 1984W        W 5728   0.052   6.673  11.575
 1985W        W 5729   8.229   4.141   0.741
 1986W        W 5730   2.635   4.484   9.250
 1987W        W 5731   4.579   2.671   9.318
 1988W        W 5732   1.791   5.652   1.669
 1989W        W 5733   4.281   7.954   1.941
 1990W        W 5734  10.467   4.570  11.934
 1991W        W 5735   3.636   5.408  11.820
 1992W        W 5736   1.711   3.799   9.830
 1993W        W 5737   2.941   0.723   0.649
 1994W        W 5738   6.005   1.606   9.786
 1995W        W 5739   0.438   4.295   8.709
 1996W        W 5740  10.392   2.329   9.068
 1997W        W 5741   4.531   3.596   8.087
 1998W        W 5742   9.488  10.345   0.761
 1999W        W 5743   9.296   8.791   1.882
 2000W        W 5744   8.783   5.272   3.319
 2001W        W 5745   8.958  10.296   2.699
 2002W        W 5746  10.186   7.881  10.883
 2003W        W 5747   9.710   9.180   8.431
 2004W        W 5748   0.521   6.986   2.416
 2005W        W 5749   3.074   7.629   1.892
 2006W        W 5750  10.265   5.827   2.647
 2007W        W 5751   2.312   9.921   2.434
 2008W        W 5752   4.664   7.631   9.775
 2009W        W 5753   7.818   4.625   9.890
 2010W        W 5754   5.069   5.168   1.906
 2011W        W 5755   0.521   6.388  11.023
 2012W        W 5756   6.790   3.105   3.137
 2013W        W 5757   2.140   2.568  11.467
 2014W        W 5758   5.469   6.904   0.963
 2015W        W 5759   2.369  10.402   3.155
 2016W        W 5760   8.506   3.592   0.997
 2017W        W 5761   6.012   6.988   9.969
 2018W        W 5762   3.727   3.082  11.973
 2019W        W 5763   0.335  10.496   9.065
 2020W        W 5764   6.565  10.112   1.914
 2021W        W 5765   0.957   9.873   9.011
 2022W        W 5766   5.996   4.193   8.884
 2023W        W 5767   2.116   9.846  11.514
 2024W        W 5768   6.597   9.513   1.098
 2025W        W 5769   8.751   6.459   0.318
 2026W        W 5770   1.279   3.413  10.420
 2027W        W 5771   8.087   0.023  10.975
 2028W        W 5772   0.923   8.637   0.116
 2029W        W 5773   1.379   5.347   8.955
 2030W        W 5774   6.635   8.593   0.781
 2031W        W 5775   3.163   8.037   8.562
 2032W        W 5776   3.408   3.120   2.244
 2033W        W 5777   0.724   5.180   1.755
 2034W        W 5778   0.994   9.503   1.404
 2035W        W 5779   8.817   5.551  11.300
 2036W        W 5780   2.241   0.790   1.409
 2037W        W 5781   3.293   1.723   8.746
 2038W        W 5782   2.318   4.672   2.153
 2039W        W 5783   1.708   6.678   9.333
 2040W        W 5784  10.343  10.335  11.390
 2041W        W 5785   0.294   1.794   1.382
 2042W        W 5786   0.377   2.205   3.771
 2043W        W 5787   5.330   8.591   8.445
 2044W        W 5788   8.607   0.771   1.033
 2045W        W 5789   1.949   0.404   3.047
 2046W        W 5790   9.842   5.172  11.381
 2047W        W 5791   6.678   4.446   2.781
 2048W        W 5792   5.219   0.994   0.207
 2049W        W 5793   1.913   2.276   3.224
 2050W        W 5794   0.276   6.109   1.776
 2051W        W 5795   2.363   6.111   9.283
 2052W        W 5796   3.425   9.588   3.691
 2053W        W 5797   3.191   4.575  10.074
 2054W        W 5798   1.794   2.281  10.844
 2055W        W 5799   9.248   5.424  11.570
 2056W        W 5800  10.490   1.228   3.150
 2057W        W 5801   8.650   3.590   2.904
 2058W        W 5802   4.528   6.685  10.352
 2059W        W 5803   6.987   3.243   0.179
 2060W        W 5804   4.252  10.288   9.149
 2061W        W 5805   3.087   1.176  11.499
 2062W        W 5806   2.145   6.972   0.494
 2063W        W 5807   7.503   2.600  11.344
 2064W        W 5808   6.115   3.983   9.731
 2065W        W 5809   6.995   8.703  11.878
 2066W        W 5810   4.647   3.630   3.447
 2067W        W 5811   2.676   5.272  10.280
 2068W        W 5812   8.493   7.191  10.955
 2069W        W 5813   3.821   3.586   0.063
 2070W        W 5814   5.172   3.517   3.242
 2071W        W 5815   0.151  10.038   9.997
 2072W        W 5816   1.657   5.166   2.716
 2073W        W 5817   1.875   1.827   8.770
 2074W        W 5818   4.308   7.047   9.185
 2075W        W 5819   9.892   9.997   1.865
 2076W        W 5820   6.964   2.242   2.200
 2077W        W 5821   5.705   6.828  10.889
 2078W        W 5822   2.076   4.841   0.034
 2079W        W 5823   7.921   1.607   2.378
 2080W        W 5824   5.956   5.532   1.480
 2081W        W 5825   1.120   4.525  11.459
 2082W        W 5826   2.742   5.578  11.750
 2083W        W 5827   2.718   8.502  11.239
 2084W        W 5828   7.052   1.775   1.980
 2085W        W 5829   1.351   1.150   1.163
 2086W        W 5830   4.232   2.341   3.529
 2087W        W 5831   0.549   7.807   9.528
 2088W        W 5832   2.963   9.990  11.847
 2089W        W 5833   1.331   0.910  11.055
 2090W        W 5834   5.613   4.639   9.636
 2091W        W 5835   7.948   3.656   2.432
 2092W        W 5836   8.960   5.367   0.982
 2093W        W 5837   7.920   2.162  11.908
 2094W        W 5838   0.755   5.962   3.406
 2095W        W 5839   3.869   7.116   2.701
 2096W        W 5840   3.610   4.177   8.592
 2097W        W 5841   8.953   2.709   9.235
 2098W        W 5842   7.748   2.799   0.855
 2099W        W 5843   4.697   4.015  11.906
 2100W        W 5844   0.845  10.132   9.473
 2101W        W 5845   8.799   7.902  10.640
 2102W        W 5846   5.250   2.303   3.135
 2103W        W 5847   1.837   3.116   3.499
 2104W        W 5848   3.312   9.659  10.899
 2105W        W 5849   8.624   0.917  11.833
 2106W        W 5850  10.417   4.655  10.827
 2107W        W 5851   7.103   7.972   2.637
 2108W        W 5852   4.184   9.361   3.291
 2109W        W 5853   2.337   3.210   3.410
 2110W        W 5854   7.674   1.298  11.002
 2111W        W 5855   9.379   3.088   1.784
 2112W        W 5856   7.447   7.007   3.216
 2113W        W 5857   5.458   9.402   2.006
 2114W        W 5858   4.767   0.798   0.241
 2115W        W 5859   6.053   6.063   1.544
 2116W        W 5860   5.568   4.105   8.238
 2117W        W 5861   7.628   1.518  10.031
 2118W        W 5862   3.292   7.203   1.686
 2119W        W 5863   0.321   2.840   0.287
 2120W        W 5864   4.691   1.449  10.788
 2121W        W 5865   2.236   6.489   2.830
 2122W        W 5866   1.197   7.976  10.939
 2123W        W 5867   7.456  10.089  10.267
 2124W        W 5868   8.139   0.525   1.034
 2125W        W 5869   8.429   4.073   8.671
 2126W        W 5870   7.017   3.852   3.336
 2127W        W 5871   1.614   9.731   0.336
 2128W        W 5872   8.373   8.408   9.053
 2129W        W 5873   1.399   9.319   1.685
 2130W        W 5874   1.634   4.139   1.631
 2131W        W 5875   7.512   8.092  10.570
 2132W        W 5876   9.023   6.644   1.154
 2133W        W 5877   1.481   1.467   3.670
 2134W        W 5878   2.800   2.200   0.875
 2135W        W 5879   8.924   6.168   1.329
 2136W        W 5880   1.269   3.807  10.094
 2137W        W 5881   0.289   0.472   2.938
 2138W        W 5882   0.463   8.771   9.579
 2139W        W 5883   7.973   0.688   3.341
 2140W        W 5884   9.110   0.791   9.898
 2141W        W 5885   8.081   2.843  10.223
 2142W        W 5886   1.066   6.302   3.649
 2143W        W 5887   8.488   1.891   9.625
 2144W        W 5888   9.443  10.363   2.970
 2145W        W 5889   7.043   2.395   0.208
 2146W        W 5890   8.865   0.195   2.349
 2147W        W 5891   1.822   8.736   0.406
 2148W        W 5892  10.326   8.952   2.709
 2149W        W 5893   1.011   5.310  11.254
 2150W        W 5894   3.171   2.808   9.863
 2151W        W 5895   0.720   1.767   3.023
 2152W        W 5896   7.458   7.409   0.280
 2153W        W 5897   9.971   4.698   2.912
 2154W        W 5898   4.689   3.740   0.396
 2155W        W 5899   9.932   1.231   0.775
 2156W        W 5900   9.281   0.288  11.404
 2157W        W 5901   1.313   9.892   9.520
 2158W        W 5902   2.919   4.817   8.559
 2159W        W 5903   9.079   6.694   0.642
 2160W        W 5904   8.977   8.416   3.102
 2161W        W 5905   8.094   3.537  11.816
 2162W        W 5906   6.815   8.998   0.241
 2163W        W 5907   6.130   9.531   1.377
 2164W        W 5908   7.925   6.034   2.388
 2165W        W 5909   7.756   7.629  11.975
 2166W        W 5910   4.379   2.767   3.249
 2167W        W 5911   4.106   5.022   0.922
 2168W        W 5912   3.377   9.922   1.481
 2169W        W 5913   7.700   9.274   9.062
 2170W        W 5914  10.315   8.410   2.582
 2171W        W 5915   5.257   1.456   0.004
 2172W        W 5916   7.069   0.392  10.419
 2173W        W 5917   2.583   2.068   1.587
 2174W        W 5918   4.454   2.761   0.605
 2175W        W 5919   1.311   6.858  11.961
 2176W        W 5920   2.704   1.199   2.800
 2177W        W 5921   4.212   4.804   2.340
 2178W        W 5922   0.004   4.705   1.724
 2179W        W 5923   7.208  10.265   2.872
 2180W        W 5924   4.625   8.959  10.621
 2181W        W 5925   9.302   5.723   1.727
 2182W        W 5926   8.468   2.344   0.357
 2183W        W 5927   3.439   9.084   2.916
 2184W        W 5928   3.101   2.744   2.091
 2185W        W 5929  10.387   2.576   3.093
 2186W        W 5930   5.090   9.798   1.988
 2187W        W 5931  10.259   9.705  10.008
 2188W        W 5932   5.577   9.292   0.262
 2189W        W 5933   1.792   8.688   2.645
 2190W        W 5934   7.009   2.833   0.469
 2191W        W 5935   9.879   8.582   9.544
 2192W        W 5936   5.613   9.997   2.734
 2193W        W 5937   7.062   4.946   9.138
 2194W        W 5938   1.788   6.700  11.764
 2195W        W 5939   8.046   5.044  10.067
 2196W        W 5940   2.533   8.064   9.837
 2197W        W 5941   0.331   6.884   1.369
 2198W        W 5942   5.047   4.931  11.016
 2199W        W 5943   8.590   1.461  11.872
 2200W        W 5944   5.861   9.871  11.469
 2201W        W 5945   8.218   7.788   1.827
 2202W        W 5946   9.679   1.379   2.160
 2203W        W 5947   8.317   0.760   0.209
 2204W        W 5948   7.078  10.161   0.759
 2205W        W 5949   9.213   5.098   3.144
 2206W        W 5950   7.029   9.868  10.537
 2207W        W 5951   2.771   0.694   2.846
 2208W        W 5952   9.970   9.371  11.305
 2209W        W 5953   3.983   0.774   0.784
 2210W        W 5954   5.116   7.085  11.522
 2211W        W 5955   8.014   2.279   9.008
 2212W        W 5956   9.780   1.833   0.489
 2213W        W 5957   4.402   7.066   8.653
 2214W        W 5958   8.538   0.072   2.806
 2215W        W 5959   8.137   7.319   2.189
 2216W        W 5960   4.638   2.575  10.268
 2217W        W 5961   2.820   1.724   1.306
 2218W        W 5962   0.336   1.763  11.557
 2219W        W 5963   1.576   2.782  10.795
 2220W        W 5964   4.131   5.264   2.578
 2221W        W 5965   4.129   4.378  10.375
 2222W        W 5966   4.157   8.329   9.565
 2223W        W 5967   2.082   1.501   8.441
 2224W        W 5968   6.009   2.449  11.520
 2225W        W 5969   9.071   3.833   1.763
 2226W        W 5970  10.344  10.439   0.696
 2227W        W 5971   8.388   5.198   0.269
 2228W        W 5972   8.441   7.430   2.736
 2229W        W 5973   7.607   2.746   2.774
 2230W        W 5974   5.626   8.484   1.907
 2231W        W 5975   3.734   9.356   1.023
 2232W        W 5976   0.697   2.578  11.004
 2233W        W 5977   6.174   9.860   0.995
 2234W        W 5978   6.063  10.334   1.184
 2235W        W 5979   8.342   8.548  10.612
 2236W        W 5980   2.413   1.248  10.937
 2237W        W 5981   8.286  10.289   1.330
 2238W        W 5982  10.108   7.478   0.930
 2239W        W 5983   7.121   5.121   1.630
 2240W        W 5984   8.571   3.735  10.458
 2241W        W 5985   6.927   7.446  11.200
 2242W        W 5986   1.025   5.685  11.639
 2243W        W 5987   7.478   4.302   1.159
 2244W        W 5988   3.093   3.255  10.527
 2245W        W 5989   8.398   8.796  11.842
 2246W        W 5990   2.499   2.789  10.609
 2247W        W 5991   9.910   6.048  11.496
 2248W        W 5992   1.025   7.148   9.099
 2249W        W 5993   5.675   1.788  11.504
 2250W        W 5994   6.501   7.098   3.206
 2251W        W 5995   8.428   7.892   3.563
 2252W        W 5996   1.869   5.607   0.754
 2253W        W 5997   2.688   6.522   3.637
 2254W        W 5998   9.496   0.316   3.173
 2255W        W 5999   3.690   4.760   1.838
 2256W        W 6000   8.423   0.974   1.919
 2257W        W 6001   3.204   6.058   3.243
 2258W        W 6002   1.170   2.257  10.070
 2259W        W 6003   4.308   9.894   1.491
 2260W        W 6004   3.298   5.690   0.784
 2261W        W 6005   5.430   0.862  10.079
 2262W        W 6006   6.391   5.004   9.391
 2263W        W 6007   3.626   5.375  11.115
 2264W        W 6008   0.252   5.082   3.371
 2265W        W 6009   2.338   6.057   1.903
 2266W        W 6010   3.046   8.135   9.938
 2267W        W 6011   7.951   3.310   9.416
 2268W        W 6012   7.384   4.043  11.338
 2269W        W 6013   2.326   6.508   0.823
 2270W        W 6014   4.439   4.605   9.563
 2271W        W 6015   8.464   7.700  11.004
 2272W        W 6016   5.693   1.204   2.317
 2273W        W 6017   9.196   0.293  10.061
 2274W        W 6018   9.946   6.954   0.285
 2275W        W 6019   6.284   6.194  11.395
 2276W        W 6020   5.479   5.865  11.283
 2277W        W 6021   5.048   6.972   9.807
 2278W        W 6022   2.842   7.487  11.978
 2279W        W 6023   8.071   4.527   1.891
 2280W        W 6024   8.934   6.139   9.465
 2281W        W 6025   7.171   1.679   1.502
 2282W        W 6026  10.302   9.900   2.208
 2283W        W 6027   5.562   7.073   9.674
 2284W        W 6028   1.432   7.545   9.801
 2285W        W 6029   6.593   6.210  11.812
 2286W        W 6030   7.170   9.233  11.308
 2287W        W 6031   5.256   7.905  11.850
 2288W        W 6032   2.899   1.055   0.270
 2289W        W 6033   3.389   0.382  11.730
 2290W        W 6034   4.923   4.401   9.528
 2291W        W 6035  10.188   1.465   2.192
 2292W        W 6036   9.374   8.122  11.116
 2293W        W 6037   8.054   0.298   2.494
 2294W        W 6038   1.575   3.353  10.017
 2295W        W 6039   1.522   8.239   0.562
 2296W        W 6040   7.069   3.085   2.189
 2297W        W 6041   0.103   4.016  10.116
 2298W        W 6042   9.257   1.374   2.489
 2299W        W 6043   6.472   2.452   1.906
 2300W        W 6044   0.303   6.465   0.399
 2301W        W 6045   1.259   6.932   3.354
 2302W        W 6046   1.966  10.443   0.763
 2303W        W 6047   2.815   6.425   8.571
 2304W        W 6048   0.449   2.264   8.970
 2305W        W 6049   7.992   4.174   2.662
 2306W        W 6050   7.044   8.886   9.083
 2307W        W 6051   1.159   5.078   1.521
 2308W        W 6052   9.607  10.329  10.881
 2309W        W 6053   8.389  10.476   2.289
 2310W        W 6054   1.590   5.186   0.859
 2311W        W 6055   9.609   0.821   3.119
 2312W        W 6056   0.761   3.364   2.759
 2313W        W 6057   2.775   8.508   1.361
 2314W        W 6058   0.030   2.148   3.392
 2315W        W 6059   1.262   3.186  10.868
 2316W        W 6060   0.302   2.364  10.760
 2317W        W 6061   3.587   4.083   0.893
 2318W        W 6062   5.073   8.407  11.046
 2319W        W 6063   0.447   1.825   9.825
 2320W        W 6064   0.870   0.917  11.279
 2321W        W 6065   2.001   7.087   9.326
 2322W        W 6066   5.217   6.651  10.795
 2323W        W 6067   0.919   6.346   1.378
 2324W        W 6068   2.250  10.202  10.765
 2325W        W 6069   7.384   5.711   3.535
 2326W        W 6070   6.252   2.886  11.705
 2327W        W 6071   3.389   7.084   9.534
 2328W        W 6072   8.097   8.134   0.775
 2329W        W 6073   3.733   6.878  11.911
 2330W        W 6074   1.368   9.320   0.136
 2331W        W 6075   5.517   6.072   1.165
 2332W        W 6076   3.665   7.176  10.568
 2333W        W 6077  10.099   6.553  11.349
 2334W        W 6078   7.467   3.275  10.195
 2335W        W 6079   6.675   3.706   0.628
 2336W        W 6080   7.088   4.545   1.582
 2337W        W 6081   0.528   1.888  10.724
 2338W        W 6082   3.818   8.715   3.508
 2339W        W 6083   9.561   2.777   9.037
 2340W        W 6084   5.592   7.954   0.222
 2341W        W 6085   9.291   9.863   9.946
 2342W        W 6086   7.216   2.702   8.600
 2343W        W 6087   5.261   7.592   3.087
 2344W        W 6088   3.710   3.812  11.532
 2345W        W 6089   5.581   1.725   9.531
 2346W        W 6090   8.739   1.319   2.522
 2347W        W 6091   7.993   3.659   0.788
 2348W        W 6092   9.116   2.677   2.768
 2349W        W 6093  10.046   7.119   3.483
 2350W        W 6094   8.897   5.720  11.821
 2351W        W 6095   4.205   3.787   9.616
 2352W        W 6096   7.489   5.046   8.869
 2353W        W 6097   0.477   4.592   0.090
 2354W        W 6098   3.204   5.408  10.224
 2355W        W 6099   3.252   1.275   0.962
 2356W        W 6100   1.691   9.789   9.865
 2357W        W 6101   6.131   1.235   8.984
 2358W        W 6102   1.683   9.667  10.385
 2359W        W 6103   0.475   2.123  11.207
 2360W        W 6104   1.521  10.384   1.798
 2361W        W 6105   7.175   5.055   1.142
 2362W        W 6106   7.359   3.186   2.828
 2363W        W 6107   6.473   4.510  11.604
 2364W        W 6108   0.721   1.253  10.947
 2365W        W 6109   4.329   2.733   1.421
 2366W        W 6110   5.566   8.956   1.667
 2367W        W 6111   6.491   0.062   9.633
 2368W        W 6112   3.223   3.665   3.550
 2369W        W 6113   2.295   9.410  11.766
 2370W        W 6114  10.292   9.155   8.978
 2371W        W 6115   4.644   3.725   1.421
 2372W        W 6116   1.883   9.572   8.536
 2373W        W 6117   9.085   4.587   0.616
 2374W        W 6118   8.085   6.604   9.768
 2375W        W 6119   2.805   3.945   1.478
 2376W        W 6120  10.162   5.590   9.449
 2377W        W 6121   2.977   8.610  10.128
 2378W        W 6122   3.650   7.966  11.825
 2379W        W 6123   6.825   5.516   1.771
 2380W        W 6124   3.823   8.357   2.143
 2381W        W 6125   0.270   1.321  10.730
 2382W        W 6126   3.290   1.299  10.078
 2383W        W 6127   9.184   8.201   8.610
 2384W        W 6128   5.285   3.017   2.556
 2385W        W 6129  10.333   9.165  10.096
 2386W        W 6130   2.077   2.850   8.844
 2387W        W 6131   2.654   5.022   2.371
 2388W        W 6132   8.935   9.806   1.250
 2389W        W 6133   3.164   6.138   0.986
 2390W        W 6134   8.744   0.458   0.123
 2391W        W 6135   1.235   8.178   2.733
 2392W        W 6136   4.593   1.622   9.905
 2393W        W 6137   6.592   2.231   0.355
 2394W        W 6138   3.032   4.102   9.430
 2395W        W 6139   8.976   9.316  10.784
 2396W        W 6140   8.587   4.584   9.407
 2397W        W 6141   4.488  10.481   0.275
 2398W        W 6142   0.185   9.780  10.464
 2399W        W 6143   7.903   4.736  10.779
 2400W        W 6144   1.451   9.095   2.170
 2401W        W 6145   5.935   7.633  10.396
 2402W        W 6146   5.114   8.161   3.630
 2403W        W 6147   0.827   3.570   2.292
 2404W        W 6148   9.743   6.147  10.457
 2405W        W 6149   5.988   8.684  11.883
 2406W        W 6150   3.370   6.831  10.374
 2407W        W 6151   4.678   2.645  11.757
 2408W        W 6152   4.231   1.753   8.750
 2409W        W 6153   3.725   7.696   3.930
 2410W        W 6154   8.923   7.525   2.583
 2411W        W 6155   7.399   0.214   8.583
 2412W        W 6156  10.065   9.457   1.177
 2413W        W 6157   1.599   4.564   3.641
 2414W        W 6158   8.559   9.370  10.076
 2415W        W 6159   5.334   4.809   2.163
 2416W        W 6160   8.852  10.440  11.363
 2417W        W 6161   2.991   0.239   3.616
 2418W        W 6162   7.596   2.691   9.530
 2419W        W 6163   5.538   8.314  11.754
 2420W        W 6164  10.418   7.897   3.348
 2421W        W 6165   6.520   0.468  11.954
 2422W        W 6166   2.379   6.842   9.627
 2423W        W 6167   2.803   8.094   9.379
 2424W        W 6168   8.414   4.188   1.255
 2425W        W 6169   5.569   5.145  10.369
 2426W        W 6170   9.948   1.875   9.920
 2427W        W 6171   4.770   3.675   2.460
 2428W        W 6172  10.114   8.392   0.287
 2429W        W 6173   5.069   9.241   0.231
 2430W        W 6174   4.702   1.209  10.328
 2431W        W 6175   0.673   2.280   9.963
 2432W        W 6176   2.245   4.776   9.074
 2433W        W 6177   8.883   9.533   1.736
 2434W        W 6178   7.252   6.474   9.899
 2435W        W 6179   0.399   4.313   0.530
 2436W        W 6180   9.223   5.763   1.212
 2437W        W 6181   2.830   9.352   2.961
 2438W        W 6182   2.715   7.831   0.671
 2439W        W 6183   2.551   0.302  11.315
 2440W        W 6184   6.149   4.734  11.274
 2441W        W 6185   2.905   0.299   9.269
 2442W        W 6186   0.929   0.482   8.421
 2443W        W 6187   9.878   3.741   1.276
 2444W        W 6188   4.945   3.980   4.110
 2445W        W 6189   7.157   7.722  10.830
 2446W        W 6190   9.016   5.957   9.000
 2447W        W 6191   1.665   4.205  10.765
 2448W        W 6192   7.071   4.594   9.527
 2449W        W 6193   0.759   1.435   9.997
 2450W        W 6194   8.878   0.269   0.897
 2451W        W 6195  10.325   7.176   8.988
 2452W        W 6196   2.134   1.848  10.780
 2453W        W 6197   3.719   0.989   9.119
 2454W        W 6198   2.264   8.445   9.410
 2455W        W 6199   4.168   1.312   1.824
 2456W        W 6200   7.581   8.055   3.540
 2457W        W 6201   6.913   0.807   9.582
 2458W        W 6202   1.852   1.385   2.031
 2459W        W 6203   7.451   8.424  11.665
 2460W        W 6204   2.688   2.134   2.922
 2461W        W 6205  10.465  10.034  10.936
 2462W        W 6206   3.136   7.877   3.585
 2463W        W 6207   8.115   0.781   2.846
 2464W        W 6208   2.353   7.683   3.045
 2465W        W 6209   2.594   2.293   2.448
 2466W        W 6210  10.385   3.711   0.026
 2467W        W 6211   6.488   6.984   1.834
 2468W        W 6212   6.118  10.471   1.744
 2469W        W 6213   3.913   0.112   8.943
 2470W        W 6214   3.781   0.533   9.325
 2471W        W 6215   7.190   7.841   0.880
 2472W        W 6216   5.055   3.557   9.881
 2473W        W 6217   8.109   9.302  10.356
 2474W        W 6218   1.744   0.868   1.294
 2475W        W 6219   1.886   2.103  10.379
 2476W        W 6220   6.679   2.886   0.861
 2477W        W 6221   4.601   8.562  11.898
 2478W        W 6222  10.085   9.517   8.583
 2479W        W 6223   6.253   8.845  11.455
 2480W        W 6224   0.406   4.190   1.024
 2481W        W 6225   6.069   6.321   3.403
 2482W        W 6226   8.239   7.973   8.780
 2483W        W 6227   4.173   7.690   0.804
 2484W        W 6228   5.226  10.161  11.923
 2485W        W 6229  10.149   8.529   1.175
 2486W        W 6230   5.132   2.519  10.020
 2487W        W 6231   3.221  10.400   1.327
 2488W        W 6232   5.009   6.007  11.885
 2489W        W 6233   7.550   8.827   8.788
 2490W        W 6234   8.936   3.190   9.035
 2491W        W 6235   0.900   7.450  10.297
 2492W        W 6236   0.375   1.601  10.304
 2493W        W 6237   0.914   8.983   1.423
 2494W        W 6238  10.097   8.146   9.396
 2495W        W 6239   7.162   2.887  11.084
 2496W        W 6240   2.932   0.236   1.578
 2497W        W 6241   2.505   7.232   9.305
 2498W        W 6242   3.890   8.062   1.623
 2499W        W 6243   5.449   4.264   3.148
 2500W        W 6244   9.937   2.457  11.679
 2501W        W 6245   3.401   0.293   1.775
 2502W        W 6246   7.564   3.796  10.428
 2503W        W 6247   4.278   3.894  11.277
 2504W        W 6248   0.041   5.911   2.209
 2505W        W 6249   0.669   6.541  10.267
 2506W        W 6250   7.887   2.328   2.793
 2507W        W 6251   9.398   3.158   1.279
 2508W        W 6252   3.765   1.227   0.950
 2509W        W 6253   4.628   7.992   3.611
 2510W        W 6254   1.223   5.315  10.304
 2511W        W 6255   5.733   9.904   1.301
 2512W        W 6256   0.727   7.446   2.247
 2513W        W 6257   7.927  10.033  11.040
 2514W        W 6258   9.411   7.661  10.158
 2515W        W 6259   5.674   4.487   9.156
 2516W        W 6260   8.064   1.786   1.915
 2517W        W 6261   7.826   7.055   0.869
 2518W        W 6262   8.088   0.281   2.984
 2519W        W 6263   9.347   2.818   0.488
 2520W        W 6264   2.146   7.462   1.744
 2521W        W 6265   4.146   8.628   0.865
 2522W        W 6266   8.898   5.961  10.967
 2523W        W 6267   9.554  10.014   3.786
 2524W        W 6268  10.015   4.461   1.643
 2525W        W 6269   2.377   5.329   1.465
 2526W        W 6270  10.051   4.874  11.836
 2527W        W 6271   8.122   2.452   1.455
 2528W        W 6272   9.171   3.664   9.176
 2529W        W 6273   6.273   2.894   1.169
 2530W        W 6274  10.287   1.282   9.976
 2531W        W 6275  10.408   2.437   1.952
 2532W        W 6276   6.491   2.786   2.777
 2533W        W 6277   8.467   7.192   8.861
 2534W        W 6278   9.911  10.236   2.757
 2535W        W 6279   0.822   6.808   1.159
 2536W        W 6280   3.251   0.225  10.034
 2537W        W 6281   2.154   2.689   3.415
 2538W        W 6282   4.062   5.275   0.461
 2539W        W 6283   6.217   6.931   9.074
 2540W        W 6284   2.872   4.168   9.910
 2541W        W 6285   3.204   9.702   9.894
 2542W        W 6286   5.958   6.631  11.319
 2543W        W 6287   8.160   4.039  11.841
 2544W        W 6288   7.234   5.582   1.190
 2545W        W 6289   0.950   9.141   9.464
 2546W        W 6290   5.226   0.272   1.915
 2547W        W 6291   6.220   1.239  10.045
 2548W        W 6292   7.863   5.443   1.762
 2549W        W 6293   7.413   8.079   3.057
 2550W        W 6294   5.468   7.827   3.752
 2551W        W 6295   7.047   6.074   0.039
 2552W        W 6296   1.900   4.258   9.851
 2553W        W 6297   5.008   2.924   8.557
 2554W        W 6298   3.162   3.471   3.072
 2555W        W 6299   9.296   9.285   3.361
 2556W        W 6300   6.278   4.949   2.112
 2557W        W 6301   4.511   7.704  11.452
 2558W        W 6302   8.997   4.508  11.046
 2559W        W 6303   8.564   9.287  11.128
 2560W        W 6304   5.968   3.502   9.872
 2561W        W 6305  10.372   0.239   3.456
 2562W        W 6306   3.579   2.251   8.741
 2563W        W 6307   8.144   9.326  11.506
 2564W        W 6308   4.725   8.366   0.420
 2565W        W 6309   8.971   1.488   1.556
 2566W        W 6310   6.938   0.818  10.954
 2567W        W 6311   4.601   6.654   9.087
 2568W        W 6312   9.169   3.441   2.078
 2569W        W 6313   8.458   7.422   0.349
 2570W        W 6314   4.681   9.063  10.103
 2571W        W 6315   1.866   6.488   3.582
 2572W        W 6316   5.201   1.346   2.501
 2573W        W 6317   3.626   8.393  10.875
 2574W        W 6318   5.616   1.711   0.548
 2575W        W 6319   3.831   7.511   9.761
 2576W        W 6320   5.639   5.138   1.313
 2577W        W 6321   9.409   7.905   2.074
 2578W        W 6322   7.211   1.375   9.761
 2579W        W 6323   8.507   6.758   9.991
 2580W        W 6324   9.876   9.710   2.779
 2581W        W 6325   4.052   1.528  11.561
 2582W        W 6326   0.718   6.135   9.916
 2583W        W 6327   1.372   8.502  11.096
 2584W        W 6328   3.328   1.455  10.588
 2585W        W 6329  10.453   0.021   9.721
 2586W        W 6330   2.619   4.903   3.601
 2587W        W 6331   5.768   0.764  10.491
 2588W        W 6332   0.762   4.324   1.748
 2589W        W 6333   6.003   7.312   9.559
 2590W        W 6334   0.877   4.632   8.691
 2591W        W 6335   4.593   8.476  11.361
 2592W        W 6336   2.219   3.196  10.708
 2593W        W 6337   6.659   8.356   1.845
 2594W        W 6338   0.369   5.714   9.981
 2595W        W 6339   9.638   5.382   0.464
 2596W        W 6340   9.796   3.056   0.067
 2597W        W 6341   4.314   9.516  11.860
 2598W        W 6342   1.728   3.666  10.426
 2599W        W 6343   0.435   0.484   0.342
 2600W        W 6344   1.685   5.779   8.835
 2601W        W 6345  10.216   2.833  11.931
 2602W        W 6346   5.799   2.498   9.960
 2603W        W 6347   6.576   2.960   1.914
 2604W        W 6348   6.482   3.923  10.335
 2605W        W 6349   7.489   2.264   8.771
 2606W        W 6350   6.490  10.392  10.127
 2607W        W 6351   2.255   9.537   9.272
 2608W        W 6352   4.735   6.439   1.335
 2609W        W 6353   3.593  10.422  10.308
 2610W        W 6354   2.938   5.648   3.114
 2611W        W 6355   6.356  10.253   3.289
 2612W        W 6356   9.396   3.093   2.805
 2613W        W 6357   8.064   1.772   8.817
 2614W        W 6358   8.951   9.521   9.798
 2615W        W 6359   9.452   2.201   1.768
 2616W        W 6360   8.443   0.217   8.836
 2617W        W 6361   5.385   9.564   9.824
 2618W        W 6362   6.964   2.201   3.285
 2619W        W 6363   7.875   3.885  11.328
 2620W        W 6364   1.132   1.406  11.207
 2621W        W 6365   7.094   5.025  11.806
 2622W        W 6366   8.303   7.108   1.225
 2623W        W 6367   4.241   6.541   1.091
 2624W        W 6368   2.734   9.903   9.993
 2625W        W 6369   5.447   7.609   1.609
 2626W        W 6370   7.128   5.728  10.209
 2627W        W 6371   8.431   0.728   8.747
 2628W        W 6372   7.252   9.294   9.286
 2629W        W 6373   6.052   1.981  11.219
 2630W        W 6374   7.367   5.206  10.247
 2631W        W 6375   2.017   9.927   0.650
 2632W        W 6376   9.968   9.309  11.871
 2633W        W 6377   4.592   0.677  10.661
 2634W        W 6378   9.847   9.476  10.790
 2635W        W 6379   9.477   1.826   2.395
 2636W        W 6380   9.546   0.439   9.132
 2637W        W 6381   5.209   1.947  10.265
 2638W        W 6382   2.783   9.310   2.464
 2639W        W 6383   1.138   0.980   0.730
 2640W        W 6384   5.953   3.030   9.017
 2641W        W 6385   6.518  10.173  11.586
 2642W        W 6386   6.994   8.529  10.668
 2643W        W 6387   0.356   2.672  10.057
 2644W        W 6388   2.446   9.550   0.614
 2645W        W 6389   0.514   7.410  10.980
 2646W        W 6390   3.771   0.418   2.529
 2647W        W 6391   5.231   5.045  11.864
 2648W        W 6392   3.731   6.722   9.692
 2649W        W 6393   9.773   6.607   9.523
 2650W        W 6394   0.011   3.387   0.807
 2651W        W 6395   9.466   9.850  10.738
 2652W        W 6396   2.216  10.436  10.284
 2653W        W 6397   0.188   3.355  11.021
 2654W        W 6398   6.155   1.117   2.746
 2655W        W 6399   2.832   6.050   1.427
 2656W        W 6400   5.646   0.067   0.880
 2657W        W 6401   8.930   4.734   2.924
 2658W        W 6402   8.503   4.158   2.842
 2659W        W 6403   3.649   7.115  10.033
 2660W        W 6404   5.245   6.494   9.855
 2661W        W 6405   6.153   7.721   0.078
 2662W        W 6406   7.531   3.922   2.559
 2663W        W 6407   6.079   1.483   0.525
 2664W        W 6408   4.620   8.361   2.115
 2665W        W 6409   7.055   4.829   2.034
 2666W        W 6410   7.999   7.597   3.621
 2667W        W 6411   8.498   3.395   0.515
 2668W        W 6412   5.562   6.479  10.485
 2669W        W 6413   6.330   8.185   8.685
 2670W        W 6414   9.305   4.275   1.885
 2671W        W 6415   4.490   3.226   1.429
 2672W        W 6416   4.221   8.058  10.792
 2673W        W 6417   9.462   6.743   3.044
 2674W        W 6418   1.482   1.935   0.753
 2675W        W 6419   9.734   9.064   1.833
 2676W        W 6420   6.760   8.333   8.427
 2677W        W 6421  10.303   2.744  11.439
 2678W        W 6422   1.831   0.380   0.508
 2679W        W 6423   8.868   5.495   1.898
 2680W        W 6424   0.255   1.313  11.768
 2681W        W 6425   1.610   4.176   2.650
 2682W        W 6426   8.494   4.583   1.626
 2683W        W 6427   6.672   4.464  10.558
 2684W        W 6428   6.683   3.140  11.542
 2685W        W 6429   7.645   0.465   1.227
 2686W        W 6430   9.892   9.112  10.420
 2687W        W 6431  10.348   2.586  10.963
 2688W        W 6432   4.488   5.586   0.374
 2689W        W 6433   1.400   6.012   1.646
 2690W        W 6434   2.214   1.287   0.675
 2691W        W 6435   3.723   1.890   9.557
 2692W        W 6436   9.673   1.812   2.888
 2693W        W 6437   8.399   5.710  11.573
 2694W        W 6438   9.837   1.688   8.805
 2695W        W 6439   0.305   5.175   8.796
 2696W        W 6440   0.304   4.939  10.613
 2697W        W 6441   5.879   7.560   3.888
 2698W        W 6442   8.492   7.572   1.356
 2699W        W 6443   9.224   8.110   9.716
 2700W        W 6444   1.068   7.671   2.641
 2701W        W 6445   4.201   8.907   1.714
 2702W        W 6446   8.839   0.512   1.913
 2703W        W 6447   0.813   9.493   9.993
 2704W        W 6448   4.983   3.994   3.228
 2705W        W 6449   7.449   5.542  11.483
 2706W        W 6450   1.157   4.315  10.355
 2707W        W 6451   2.321   2.679  11.948
 2708W        W 6452   4.516   6.549   0.300
 2709W        W 6453   0.403   9.807   1.259
 2710W        W 6454   2.221   7.216   3.248
 2711W        W 6455   9.738   6.463  11.723
 2712W        W 6456   7.900   8.441   9.301
 2713W        W 6457   7.509   4.749   2.265
 2714W        W 6458   4.359   4.199   9.924
 2715W        W 6459   5.813   9.307   9.623
 2716W        W 6460   8.623   9.373  11.630
 2717W        W 6461   3.107   1.501   0.393
 2718W        W 6462   9.466   6.222  11.281
 2719W        W 6463   9.192   0.709   9.401
 2720W        W 6464   8.362   3.290  10.267
 2721W        W 6465   1.840   0.668  10.336
 2722W        W 6466   3.505   6.922   0.719
 2723W        W 6467   1.388   5.611  11.980
 2724W        W 6468   8.834   7.139   0.638
 2725W        W 6469   0.371   0.230  10.400
 2726W        W 6470   8.613   4.784  11.868
 2727W        W 6471   2.679   9.790   1.721
 2728W        W 6472   7.839   5.263   8.561
 2729W        W 6473  10.323   5.244  11.610
 2730W        W 6474   7.485   6.954   9.157
 2731W        W 6475   2.084  10.287   2.134
 2732W        W 6476   8.584   7.810  10.135
 2733W        W 6477   1.905   6.206   1.586
 2734W        W 6478   6.385   0.678   2.701
 2735W        W 6479   3.231   9.531   2.669
 2736W        W 6480   5.825   4.533   0.868
 2737W        W 6481   0.410  10.366   0.248
 2738W        W 6482   6.201   1.632   1.857
 2739W        W 6483   1.853   8.573   9.084
 2740W        W 6484   6.587  10.316  11.112
 2741W        W 6485   9.261   2.363   0.869
 2742W        W 6486   3.193   0.966  10.459
 2743W        W 6487   1.510   0.991   2.089
 2744W        W 6488   8.721   8.205   9.846
 2745W        W 6489   6.118   4.285  10.989
 2746W        W 6490   3.786   7.667  11.442
 2747W        W 6491   0.479   1.857   0.047
 2748W        W 6492   8.014   3.169   8.885
 2749W        W 6493   7.026   9.175   1.025
 2750W        W 6494   7.652   0.563   2.862
 2751W        W 6495  10.461   4.656   9.970
 2752W        W 6496   9.403   9.370   9.964
 2753W        W 6497   7.467   0.163  11.334
 2754W        W 6498   7.837   6.975   1.396
 2755W        W 6499  10.319   1.220  10.957
 2756W        W 6500   5.203   1.298  10.517
 2757W        W 6501   3.050  10.255   9.157
 2758W        W 6502   0.971   7.061   8.575
 2759W        W 6503   7.090   8.841   0.634
 2760W        W 6504   2.293   8.814   1.525
 2761W        W 6505  10.344   6.042   3.487
 2762W        W 6506   0.365   0.922   0.088
 2763W        W 6507  10.357   4.130  10.563
 2764W        W 6508   8.583   2.615   1.193
 2765W        W 6509   8.402   0.226   9.713
 2766W        W 6510   0.657   7.364   9.339
 2767W        W 6511   8.369   5.540   1.731
 2768W        W 6512   8.713   4.210   9.071
 2769W        W 6513   0.819   3.711   9.352
 2770W        W 6514   6.172   4.431   2.137
 2771W        W 6515   8.382   6.539  11.482
 2772W        W 6516   2.559   4.742  11.270
 2773W        W 6517   9.942   6.939   1.886
 2774W        W 6518   8.276   9.628   0.399
 2775W        W 6519   3.422   3.239  10.108
 2776W        W 6520   0.084   6.000   1.297
 2777W        W 6521   2.006   8.257   0.378
 2778W        W 6522  10.426   6.438   1.539
 2779W        W 6523   6.878   5.289  10.149
 2780W        W 6524   2.656   5.989   0.948
 2781W        W 6525   7.470   5.890  10.793
 2782W        W 6526   6.159  10.001   1.558
 2783W        W 6527   9.162   1.754   2.812
 2784W        W 6528   8.591   5.072   1.746
 2785W        W 6529   0.203   8.608   2.835
 2786W        W 6530   8.344   9.729  11.293
 2787W        W 6531   5.719   7.087   9.164
 2788W        W 6532   7.231   1.851   9.997
 2789W        W 6533   6.176   8.654  10.549
 2790W        W 6534   1.786   6.010   3.486
 2791W        W 6535   5.941   4.101   3.113
 2792W        W 6536   7.021   0.701   0.719
 2793W        W 6537   2.504   8.279   0.536
 2794W        W 6538   9.773   5.926   1.830
 2795W        W 6539   8.336   9.052   3.510
 2796W        W 6540   8.534   2.851  10.491
 2797W        W 6541   3.310   3.280   8.575
 2798W        W 6542   3.127   2.230  11.120
 2799W        W 6543   9.057   1.233   8.715
 2800W        W 6544   8.904   7.015   1.897
 2801W        W 6545   0.197   3.094  10.400
 2802W        W 6546  10.394   8.222   2.099
 2803W        W 6547   2.183   6.417  11.606
 2804W        W 6548  10.450   6.012   9.441
 2805W        W 6549   3.069   2.407   0.113
 2806W        W 6550   3.898   3.315   0.510
 2807W        W 6551   5.574   3.312  11.617
 2808W        W 6552   8.562   8.572   2.836
 2809W        W 6553   8.786  10.327   8.943
 2810W        W 6554   1.955   8.024   1.762
 2811W        W 6555   5.303   9.571   3.400
 2812W        W 6556   3.868   2.332   9.802
 2813W        W 6557   4.537   7.931   0.572
 2814W        W 6558   8.148   1.710  10.327
 2815W        W 6559   9.844   0.522  10.344
 2816W        W 6560   9.877   0.955  10.058
 2817W        W 6561   5.996   2.748   8.407
 2818W        W 6562   7.962   8.882   1.219
 2819W        W 6563   1.271   4.255   3.468
 2820W        W 6564   6.041   0.004   0.221
 2821W        W 6565  10.019   7.392   9.942
 2822W        W 6566   1.152   8.965   0.983
 2823W        W 6567   8.339   0.030   0.830
 2824W        W 6568   3.153   5.267   1.489
 2825W        W 6569   1.886   3.719   1.799
 2826W        W 6570   8.463   6.073   1.686
 2827W        W 6571   0.014   0.191   0.277
 2828W        W 6572   0.116   1.165   8.515
 2829W        W 6573   7.616   1.093  10.358
 2830W        W 6574   7.816   6.195   1.009
 2831W        W 6575   4.076   9.011   1.232
 2832W        W 6576  10.101   2.643   0.847
 2833W        W 6577   9.498   8.902   0.504
 2834W        W 6578   1.046   5.200   9.398
 2835W        W 6579   5.959   8.810   9.839
 2836W        W 6580   9.410   2.318   0.382
 2837W        W 6581   8.042   6.149   8.883
 2838W        W 6582   7.187   5.478  10.642
 2839W        W 6583   8.354   5.438   3.510
 2840W        W 6584   0.311   9.956  11.916
 2841W        W 6585   9.312   5.349   9.697
 2842W        W 6586   3.296   1.328   9.070
 2843W        W 6587   1.025   4.792   1.965
 2844W        W 6588   8.585   6.187   3.165
 2845W        W 6589   9.401   6.313   9.303
 2846W        W 6590   6.949  10.441   0.299
 2847W        W 6591   0.009   0.727   2.347
 2848W        W 6592   6.682   7.831  11.931
 2849W        W 6593   5.293   1.421  11.512
 2850W        W 6594   6.234   8.904   2.952
 2851W        W 6595   1.400   0.973  10.024
 2852W        W 6596   7.939   2.113   2.329
 2853W        W 6597   0.987   5.857   0.327
 2854W        W 6598   8.673   0.031   0.458
 2855W        W 6599   4.634   8.926   9.603
 2856W        W 6600   5.549   3.214   0.166
 2857W        W 6601   1.837   6.741  11.239
 2858W        W 6602   4.138   6.366   0.601
 2859W        W 6603   3.457  10.047   0.006
 2860W        W 6604   2.590   4.097  10.378
 2861W        W 6605   5.267   8.657   3.766
 2862W        W 6606   0.474   8.922   2.074
 2863W        W 6607   1.324   2.021  11.853
 2864W        W 6608   0.409   7.217   2.854
 2865W        W 6609   3.218   1.830   9.857
 2866W        W 6610   7.255   0.407   9.936
 2867W        W 6611   4.736   3.126  10.252
 2868W        W 6612   4.560   9.427   9.579
 2869W        W 6613   8.445   4.366   3.544
 2870W        W 6614   8.598   3.862   0.055
 2871W        W 6615   9.361   1.858   3.314
 2872W        W 6616   3.051   2.652   1.077
 2873W        W 6617   1.296  10.356   9.274
 2874W        W 6618   6.634   5.662   0.927
 2875W        W 6619   4.424   5.831  11.400
 2876W        W 6620   7.965   8.157  10.828
 2877W        W 6621   1.389   4.748  11.842
 2878W        W 6622   1.857   9.924   1.124
 2879W        W 6623   3.017   9.160  11.870
 2880W        W 6624   8.805   9.509   0.280
 2881W        W 6625   4.173   7.418  10.131
 2882W        W 6626   8.501   1.317  10.449
 2883W        W 6627   3.036   0.076   2.085
 2884W        W 6628   0.425   7.112   1.929
 2885W        W 6629   9.253   9.294   1.995
 2886W        W 6630   7.385   0.085   1.468
 2887W        W 6631   1.125   8.277   1.913
 2888W        W 6632   5.041   8.726   9.313
 2889W        W 6633   4.579   9.089  11.984
 2890W        W 6634   1.485   9.325   1.153
 2891W        W 6635   2.795   9.494   9.228
 2892W        W 6636   5.921   8.000   8.946
 2893W        W 6637   7.850   9.754  10.423
 2894W        W 6638   6.186   4.228   0.706
 2895W        W 6639   3.336   0.448  10.477
 2896W        W 6640   8.295   2.324   1.985
 2897W        W 6641   4.622   2.646   1.895
 2898W        W 6642  10.162   5.225   0.507
 2899W        W 6643   6.748   1.661  10.557
 2900W        W 6644   2.104   2.173   1.436
 2901W        W 6645   8.341   6.948  11.795
 2902W        W 6646   6.928   6.587  10.305
 2903W        W 6647   8.062   5.224  10.962
 2904W        W 6648   8.780   5.706   1.458
 2905W        W 6649   4.060   4.680  11.647
 2906W        W 6650   6.010   5.295   9.624
 2907W        W 6651   9.856   4.177  11.398
 2908W        W 6652   4.307   3.091   9.974
 2909W        W 6653   1.583   4.570  11.132
 2910W        W 6654   2.412   4.326   3.322
 2911W        W 6655   7.144   6.935  11.224
 2912W        W 6656   5.652   4.210   2.672
 2913W        W 6657   2.825   9.331   0.878
 2914W        W 6658   3.035   4.770   1.152
 2915W        W 6659  10.309   3.479   1.287
 2916W        W 6660   4.874   8.650   2.506
 2917W        W 6661   5.186   0.485   0.284
 2918W        W 6662   8.275   3.765   8.002
 2919W        W 6663   7.909   6.891   3.501
 2920W        W 6664   2.723   9.451   9.732
 2921W        W 6665  10.144   5.993  10.722
 2922W        W 6666   9.795   5.590   2.642
 2923W        W 6667   5.139   7.536   9.562
 2924W        W 6668   3.577   4.006   9.400
 2925W        W 6669   1.113   0.112  11.710
 2926W        W 6670   1.663  10.251   0.385
 2927W        W 6671  10.468   7.473  10.115
 2928W        W 6672   7.678   6.498   9.057
 2929W        W 6673   8.319   5.810   1.266
 2930W        W 6674   4.589   6.285  11.863
 2931W        W 6675   3.392   4.526  11.113
 2932W        W 6676  10.005   1.363   9.163
 2933W        W 6677   0.198   5.265  10.239
 2934W        W 6678   0.978   1.621  10.705
 2935W        W 6679   1.686   7.405   1.973
 2936W        W 6680   0.219   0.397  10.868
 2937W        W 6681   7.017   4.871   0.707
 2938W        W 6682   6.843   8.850   1.876
 2939W        W 6683   4.547   8.530   9.289
 2940W        W 6684   7.523   4.768   1.391
 2941W        W 6685   4.185   8.290   0.496
 2942W        W 6686   5.132   3.199  11.871
 2943W        W 6687   4.682   5.970   1.713
 2944W        W 6688   8.660   8.073   9.354
 2945W        W 6689   0.184   4.480  10.408
 2946W        W 6690   6.379   2.043  10.526
 2947W        W 6691   0.213   7.994   0.754
 2948W        W 6692   9.815   0.380  11.309
 2949W        W 6693   8.466   7.520  10.538
 2950W        W 6694   1.183   5.198  11.756
 2951W        W 6695   6.551   3.752   2.341
 2952W        W 6696   5.201   7.407   2.630
 2953W        W 6697   3.851   1.293  11.969
 2954W        W 6698   2.545   6.683   0.392
 2955W        W 6699   5.546   8.075   2.216
 2956W        W 6700   5.089   8.370   0.024
 2957W        W 6701   0.479   1.350   3.188
 2958W        W 6702   6.261   2.122  10.030
 2959W        W 6703   8.127   5.519   2.207
 2960W        W 6704   4.257   4.807   0.359
 2961W        W 6705   1.297   2.811   1.940
 2962W        W 6706   0.278   4.288   3.315
 2963W        W 6707   5.277   3.500  11.210
 2964W        W 6708   1.988   8.258  10.633
 2965W        W 6709   5.725   2.102  10.278
 2966W        W 6710   9.045   1.225   9.251
 2967W        W 6711   9.303   7.934  10.647
 2968W        W 6712   7.794   6.021   3.655
 2969W        W 6713   4.219   2.092  10.232
 2970W        W 6714   0.573   8.532   1.302
 2971W        W 6715   8.544   5.104   0.783
 2972W        W 6716   9.054   1.890   8.166
 2973W        W 6717   4.074   3.228  10.796
 2974W        W 6718   4.173   6.109  10.156
 2975W        W 6719   2.257   7.893   8.769
 2976W        W 6720   0.440   4.676   3.628
 2977W        W 6721   1.681   9.467   2.458
 2978W        W 6722   3.767   1.398   9.856
 2979W        W 6723   9.761   8.460   3.337
 2980W        W 6724   0.929   3.215   9.484
 2981W        W 6725   7.039   4.071   1.320
 2982W        W 6726   0.714   2.812   9.205
 2983W        W 6727   5.155   4.055   2.756
 2984W        W 6728   2.999   6.903   0.653
 2985W        W 6729   4.020   6.867   0.729
 2986W        W 6730   9.068   4.617   9.299
 2987W        W 6731   3.761   5.761   9.470
 2988W        W 6732   5.518   4.306   8.702
 2989W        W 6733   7.858   2.621   3.226
 2990W        W 6734   1.711   1.671  10.552
 2991W        W 6735   3.678   7.143  11.460
 2992W        W 6736   8.477   2.318   3.509
 2993W        W 6737   6.988   0.470  11.367
 2994W        W 6738   2.383   8.455  10.373
 2995W        W 6739   1.648   3.554   0.313
 2996W        W 6740   3.166   6.458   8.964
 2997W        W 6741  10.347   4.211  11.237
 2998W        W 6742   5.208   2.328   3.686
 2999W        W 6743   4.273   3.372   3.198
 3000W        W 6744   3.602   5.908  11.828
 3001W        W 6745   9.492   4.118   0.814
 3002W        W 6746   6.199   5.726   0.550
 3003W        W 6747   0.951   3.298  11.802
 3004W        W 6748   2.723   4.971   1.505
 3005W        W 6749   0.901   7.106  11.102
 3006W        W 6750   3.247   5.903  10.092
 3007W        W 6751   8.575   1.808   1.887
 3008W        W 6752   6.634   9.817   1.503
 3009W        W 6753   7.098  10.424   9.905
 3010W        W 6754   5.000   9.357  11.740
 3011W        W 6755   4.236   7.044   1.966
 3012W        W 6756   7.834   9.643   0.787
 3013W        W 6757   7.112   8.541   8.713
 3014W        W 6758  10.046   5.720   0.396
 3015W        W 6759  10.053   3.506   8.428
 3016W        W 6760   1.214   3.364   3.074
 3017W        W 6761   4.242   6.167   1.470
 3018W        W 6762   4.731   7.485   0.468
 3019W        W 6763   0.958   5.587   8.806
 3020W        W 6764   5.699   0.411  10.973
 3021W        W 6765   5.510   0.996  11.800
 3022W        W 6766   8.012   8.868   9.037
 3023W        W 6767   6.042  10.312   8.951
 3024W        W 6768   1.441   0.225   0.204
 3025W        W 6769   9.763   1.383   1.241
 3026W        W 6770   8.555   5.225   2.259
 3027W        W 6771   2.712   6.041   3.425
 3028W        W 6772   4.688   3.167   9.196
 3029W        W 6773   9.921   5.247   1.258
 3030W        W 6774   5.182   0.323   0.788
 3031W        W 6775   2.832   1.777   9.018
 3032W        W 6776   5.190   5.564  10.974
 3033W        W 6777   2.616   3.110   2.593
 3034W        W 6778   9.675   2.247   3.280
 3035W        W 6779   8.979   6.619   9.309
 3036W        W 6780   1.034   9.576   0.414
 3037W        W 6781   6.475   9.971   0.109
 3038W        W 6782   4.518   4.477  11.689
 3039W        W 6783   1.791   5.894   1.207
 3040W        W 6784   6.009   8.874   9.338
 3041W        W 6785   7.557   9.647   9.474
 3042W        W 6786   3.740   7.000   1.181
 3043W        W 6787   7.025   4.051   0.794
 3044W        W 6788   8.049   5.034   2.073
 3045W        W 6789   8.448   0.279  10.465
 3046W        W 6790   6.543   4.046  10.839
 3047W        W 6791   4.575   0.849   8.600
 3048W        W 6792   8.926   1.792  11.673
 3049W        W 6793  10.185   7.503   3.108
 3050W        W 6794   3.190   4.944   3.169
 3051W        W 6795   5.955   3.592   3.274
 3052W        W 6796   1.497   7.571  10.817
 3053W        W 6797   0.443   2.250  11.707
 3054W        W 6798   4.690   9.601   1.340
 3055W        W 6799   8.036   3.408  11.340
 3056W        W 6800   5.183   7.483   9.030
 3057W        W 6801   2.200  10.323   1.209
 3058W        W 6802   1.941   5.146   1.731
 3059W        W 6803   9.076   5.020  10.954
 3060W        W 6804   4.613   2.528   1.034
 3061W        W 6805   1.901   3.174  11.530
 3062W        W 6806   3.787   6.254  11.487
 3063W        W 6807  10.344   1.742   9.615
 3064W        W 6808   1.279   3.892  10.610
 3065W        W 6809   9.452   5.518  10.156
 3066W        W 6810  10.018   5.664   3.160
 3067W        W 6811   6.614   6.156   2.287
 3068W        W 6812   3.809   7.109   8.841
 3069W        W 6813   3.109   6.372  11.329
 3070W        W 6814   1.843   5.019   8.868
 3071W        W 6815   2.596   3.694  10.085
 3072W        W 6816   7.957   9.848   8.716
 3073W        W 6817   4.283   8.413  10.422
 3074W        W 6818   0.712   7.873  10.999
 3075W        W 6819  10.486   7.038   9.821
 3076W        W 6820   4.211   9.401   1.605
 3077W        W 6821   2.035   0.278  11.388
 3078W        W 6822   8.155   2.897   1.192
 3079W        W 6823   2.044   8.508   1.828
 3080W        W 6824   1.177   1.322  10.324
 3081W        W 6825   7.461   6.622   2.468
 3082W        W 6826   7.527   0.855   8.493
 3083W        W 6827   6.753   1.799   1.256
 3084W        W 6828   0.198   7.067   9.341
 3085W        W 6829   2.787   1.271   9.315
 3086W        W 6830   7.491   4.083   0.255
 3087W        W 6831   2.585   2.790   8.980
 3088W        W 6832   4.346   0.882   3.262
 3089W        W 6833   7.483   5.529   0.370
 3090W        W 6834   3.325   7.505   9.830
 3091W        W 6835   4.806   0.353   8.637
 3092W        W 6836   0.448   9.467   9.156
 3093W        W 6837   3.542   8.653  11.298
 3094W        W 6838   6.501   0.020   0.973
 3095W        W 6839  10.306   5.129   9.212
 3096W        W 6840   2.574   1.432   0.351
 3097W        W 6841   7.207   7.457   9.910
 3098W        W 6842   3.841   6.590   2.708
 3099W        W 6843   3.325   1.749   1.265
 3100W        W 6844   7.494   0.153   0.305
 3101W        W 6845   6.440   5.540   9.482
 3102W        W 6846   9.160   5.856   2.250
 3103W        W 6847   4.516   9.907   3.200
 3104W        W 6848   5.922   7.589  11.302
 3105W        W 6849   6.698   3.424  10.280
 3106W        W 6850   9.480   1.118   3.512
 3107W        W 6851   6.748   2.775  11.948
 3108W        W 6852   3.138   6.093  10.904
 3109W        W 6853   7.386   0.033   9.481
 3110W        W 6854   1.931   4.473   2.403
 3111W        W 6855   5.704   5.601   9.962
 3112W        W 6856   6.488   6.358   2.734
 3113W        W 6857   3.465   0.068   9.245
 3114W        W 6858   8.529   9.037   3.043
 3115W        W 6859   0.772   0.685   3.654
 3116W        W 6860   9.471   4.639   8.995
 3117W        W 6861   3.951   3.007   3.109
 3118W        W 6862   2.223   9.069   0.763
 3119W        W 6863   2.223   1.970   9.137
 3120W        W 6864   2.894   9.521  10.626
 3121W        W 6865   1.453   9.929   9.029
 3122W        W 6866   9.050   7.495   2.086
 3123W        W 6867   7.435   1.466   3.176
 3124W        W 6868   9.053   2.219   9.097
 3125W        W 6869   0.759   6.372   9.362
 3126W        W 6870   0.046  10.456  10.702
 3127W        W 6871   9.755   7.239   2.243
 3128W        W 6872   2.576   7.642   1.977
 3129W        W 6873   5.928   2.549   8.881
 3130W        W 6874   2.732   9.521   0.167
 3131W        W 6875   4.223   8.208   2.392
 3132W        W 6876   9.889   3.252   2.915
 3133W        W 6877   3.791   9.461  10.792
 3134W        W 6878   0.241   4.441  11.502
 3135W        W 6879   6.555   4.593   9.649
 3136W        W 6880   7.502  10.455   1.929
 3137W        W 6881   0.137   0.438  11.840
 3138W        W 6882   6.471   3.101  11.061
 3139W        W 6883   0.047   9.458   0.878
 3140W        W 6884   8.328   8.418   9.577
 3141W        W 6885   3.772   6.492  10.154
 3142W        W 6886   7.335   5.612   1.692
 3143W        W 6887   1.504   8.888   8.566
 3144W        W 6888   8.445   1.657  11.428
 3145W        W 6889   1.745   3.668  11.444
 3146W        W 6890   6.238   1.509   0.024
 3147W        W 6891   2.736   6.986   2.467
 3148W        W 6892   0.031   1.833  10.618
 3149W        W 6893   7.210   6.205   8.515
 3150W        W 6894   8.873   6.920  10.285
 3151W        W 6895   0.794   6.818   1.657
 3152W        W 6896   7.576  10.234   0.609
 3153W        W 6897   5.342   3.826   8.629
 3154W        W 6898   9.477   0.061  10.442
 3155W        W 6899   2.281   8.141   2.598
 3156W        W 6900   1.653   8.625   2.142
 3157W        W 6901   8.201   2.591  11.992
 3158W        W 6902   4.676   5.216  10.328
 3159W        W 6903   0.046   0.850  10.684
 3160W        W 6904   9.900   4.483   0.782
 3161W        W 6905   0.932   6.597   0.715
 3162W        W 6906   7.396   9.493  10.567
 3163W        W 6907   5.170  10.279   2.023
 3164W        W 6908  10.446   6.397   2.052
 3165W        W 6909   3.015   1.879  11.965
 3166W        W 6910   4.845   3.373   8.773
 3167W        W 6911   7.684   0.943   1.480
 3168W        W 6912   5.742   2.681  10.909
 3169W        W 6913   3.125   6.289   2.816
 3170W        W 6914   6.330   9.065   0.370
 3171W        W 6915   6.173   4.303  10.495
 3172W        W 6916   2.347   8.109   2.091
 3173W        W 6917   7.630   9.927  11.845
 3174W        W 6918   5.150   5.591   1.163
 3175W        W 6919   4.159   1.585  10.177
 3176W        W 6920   3.613   5.215   2.748
 3177W        W 6921   6.108   0.169   9.309
 3178W        W 6922   4.127   1.353   9.073
 3179W        W 6923   4.966   2.724   0.705
 3180W        W 6924   0.928   8.435   9.933
 3181W        W 6925  10.368   8.225   8.977
 3182W        W 6926   2.269   5.644   9.492
 3183W        W 6927   0.907   0.978   9.233
 3184W        W 6928   2.532   4.203   0.449
 3185W        W 6929   5.579   8.052  10.374
 3186W        W 6930   6.910   3.028   2.663
 3187W        W 6931   3.307   4.543  10.609
 3188W        W 6932   6.921   5.391  11.490
 3189W        W 6933   0.480   3.774  11.008
 3190W        W 6934   9.882   1.396   9.672
 3191W        W 6935   6.251   5.637   9.983
 3192W        W 6936   5.973   5.071   1.702
 3193W        W 6937   8.920   8.079  11.686
 3194W        W 6938   8.529   8.549   1.767
 3195W        W 6939   6.633   1.281   8.865
 3196W        W 6940   2.137   9.663   0.232
 3197W        W 6941   5.205   7.551   0.973
 3198W        W 6942   4.152   6.178   8.812
 3199W        W 6943   8.059   0.496   9.098
 3200W        W 6944   2.769   4.459   1.454
 3201W        W 6945   2.651   4.523   8.243
 3202W        W 6946   2.208   1.486  11.702
 3203W        W 6947   6.016   6.121  10.531
 3204W        W 6948   3.143   4.131  10.333
 3205W        W 6949   3.188   0.370   0.230
 3206W        W 6950   9.925  10.252   0.471
 3207W        W 6951   8.872   8.827   1.265
 3208W        W 6952   7.217   3.580   3.749
 3209W        W 6953   9.348   6.936  10.447
 3210W        W 6954   0.635   8.440  11.660
 3211W        W 6955   4.590   7.150   9.989
 3212W        W 6956   8.131   9.532  10.852
 3213W        W 6957   9.426   7.562   0.369
 3214W        W 6958   3.169   8.339   9.053
 3215W        W 6959   1.887   8.488  11.928
 3216W        W 6960   6.054   9.503   0.348
 3217W        W 6961   4.042   4.890  10.464
 3218W        W 6962   4.633   9.110   1.896
 3219W        W 6963   8.387   5.098   3.007
 3220W        W 6964   0.240   5.521   1.441
 3221W        W 6965   4.063   9.707  11.453
 3222W        W 6966   1.555   3.536   3.588
 3223W        W 6967   0.693   7.497   8.724
 3224W        W 6968   1.360   5.602  10.981
 3225W        W 6969   9.444   6.171   1.458
 3226W        W 6970   4.759  10.370  11.852
 3227W        W 6971   0.886   6.095   1.846
 3228W        W 6972   0.461   9.994  10.868
 3229W        W 6973   7.846   0.138   0.865
 3230W        W 6974   5.635   8.008   9.558
 3231W        W 6975   6.318   5.431   1.836
 3232W        W 6976   9.923   3.725   2.724
 3233W        W 6977   2.849   5.132  11.484
 3234W        W 6978   8.451   9.716   9.694
 3235W        W 6979   9.973   0.337   1.343
 3236W        W 6980   6.371   9.466  10.835
 3237W        W 6981   9.287   4.947   0.275
 3238W        W 6982   0.768   3.633   0.280
 3239W        W 6983   4.996   4.827  10.288
 3240W        W 6984  10.402   8.018  11.367
 3241W        W 6985   6.770   1.223  10.010
 3242W        W 6986   0.626   1.642   0.492
 3243W        W 6987   1.985   6.314   9.569
 3244W        W 6988   6.051   9.362  11.443
 3245W        W 6989  10.222   7.352   9.466
 3246W        W 6990   6.136   3.511   8.931
 3247W        W 6991   3.779   6.308   8.433
 3248W        W 6992   2.849   6.108   1.941
 3249W        W 6993   5.210   6.976   2.352
 3250W        W 6994   7.792   4.392   0.738
 3251W        W 6995   8.089   9.792   2.906
 3252W        W 6996   6.781   6.500   8.572
 3253W        W 6997  10.219   9.042   0.933
 3254W        W 6998   9.070   8.034  10.204
 3255W        W 6999   5.192   0.386   8.984
 3256W        W 7000   0.427   1.955   2.661
 3257W        W 7001   5.987   5.117   2.809
 3258W        W 7002   3.614   7.900   3.034
 3259W        W 7003   2.727   0.298   3.159
 3260W        W 7004   9.392   1.199   1.572
 3261W        W 7005   7.937   3.282   9.975
 3262W        W 7006   8.193   0.992   1.331
 3263W        W 7007   3.157   5.017   2.354
 3264W        W 7008   6.697   1.005   2.941
 3265W        W 7009   6.092   8.120  10.545
 3266W        W 7010   1.925   5.590   3.218
 3267W        W 7011   7.234   5.491   9.757
 3268W        W 7012  10.494   5.308   1.030
 3269W        W 7013   0.694   5.275  11.661
 3270W        W 7014   9.105  10.301   0.413
 3271W        W 7015   8.657   4.641  10.304
 3272W        W 7016   9.842   0.342   3.551
 3273W        W 7017   5.320   8.396   9.571
 3274W        W 7018   9.614   6.708  11.296
 3275W        W 7019   7.858   4.225  10.471
 3276W        W 7020   8.394   7.000   9.524
 3277W        W 7021   7.358   6.270   3.762
 3278W        W 7022   5.552   3.780   2.961
 3279W        W 7023   5.794   5.792   0.256
 3280W        W 7024   3.122   2.706   1.569
 3281W        W 7025   5.104   6.749   8.947
 3282W        W 7026   7.871   4.223   9.596
 3283W        W 7027   2.697   6.684   8.999
 3284W        W 7028   3.613   9.487  11.294
 3285W        W 7029   7.917   0.396  11.493
 3286W        W 7030   7.765   5.580   8.145
 3287W        W 7031   8.541   5.391   9.340
 3288W        W 7032   8.302   0.475   3.707
 3289W        W 7033   2.704   6.499   2.629
 3290W        W 7034   5.317   5.572   3.155
 3291W        W 7035   7.501   0.479   3.346
 3292W        W 7036   3.768   9.163   1.822
 3293W        W 7037   6.598   6.037   9.274
 3294W        W 7038   6.458   8.633   2.211
 3295W        W 7039   0.115   8.467  11.553
 3296W        W 7040   5.931   7.120   8.163
 3297W        W 7041   1.428   2.402  10.481
 3298W        W 7042   7.443   3.423   0.822
 3299W        W 7043   1.002   1.814   2.091
 3300W        W 7044   7.358  10.337  11.701
 3301W        W 7045   6.164   3.254   1.944
 3302W        W 7046   7.917   4.747   8.978
 3303W        W 7047   4.265   9.638   0.342
 3304W        W 7048  10.057   5.494  10.813
 3305W        W 7049   6.431   8.090   2.229
 3306W        W 7050   0.001   7.443  11.001
 3307W        W 7051   1.172   0.451   9.958
 3308W        W 7052   1.688   1.818   9.259
 3309W        W 7053   5.743   1.786   2.018
 3310W        W 7054   3.000   2.815  10.803
 3311W        W 7055   9.915   5.221   2.319
 3312W        W 7056   8.561   9.760   2.090
 3313W        W 7057  10.389   9.864   1.175
 3314W        W 7058   4.323   7.132   2.971
 3315W        W 7059   4.028   6.332   3.367
 3316W        W 7060   4.314   1.389   2.322
 3317W        W 7061   9.995   9.787   0.223
 3318W        W 7062   5.237   4.753   9.278
 3319W        W 7063   2.210  10.306   8.607
 3320W        W 7064   4.720   7.506   8.595
 3321W        W 7065   3.683   7.851   0.733
 3322W        W 7066   7.408   7.651   1.292
 3323W        W 7067   8.403   9.707   3.541
 3324W        W 7068   2.715   4.992   9.030
 3325W        W 7069   6.485   9.257  11.687
 3326W        W 7070   1.905   2.624  10.431
 3327W        W 7071   8.435   0.889   3.384
 3328W        W 7072   8.191   1.231   0.047
 3329W        W 7073   5.557   3.626   0.464
 3330W        W 7074   7.024   4.502   1.050
 3331W        W 7075   2.334   0.432  10.468
 3332W        W 7076   2.835   9.588   3.407
 3333W        W 7077   0.660   0.428  10.025
 3334W        W 7078   9.335   7.460   1.250
 3335W        W 7079  10.257   7.046   0.690
 3336W        W 7080   4.738   7.678   9.208
 3337W        W 7081   0.127   7.998   9.968
 3338W        W 7082   8.133   7.553  10.135
 3339W        W 7083   9.114   0.316   0.437
 3340W        W 7084   8.966   9.437   8.760
 3341W        W 7085   1.776   1.230   0.908
 3342W        W 7086   5.686   3.638   0.957
 3343W        W 7087   7.334   1.772   9.446
 3344W        W 7088   4.012  10.315   3.224
 3345W        W 7089   1.826   2.285   8.988
 3346W        W 7090   3.638   0.503  10.924
 3347W        W 7091   3.427   4.554   0.033
 3348W        W 7092   2.408   1.929  10.356
 3349W        W 7093   1.266   5.083   2.401
 3350W        W 7094   1.057   5.145   8.583
 3351W        W 7095   4.352   3.668  10.819
 3352W        W 7096   0.278   3.374   2.428
 3353W        W 7097   8.953   7.953   2.316
 3354W        W 7098   4.578   8.320   0.913
 3355W        W 7099   3.929   4.619   8.672
 3356W        W 7100   3.009  10.343   0.862
 3357W        W 7101   8.353   4.953   9.163
 3358W        W 7102   2.395   8.626   3.355
 3359W        W 7103   5.343   0.748   1.654
 3360W        W 7104   8.423   6.082   0.361
 3361W        W 7105   5.128   3.333   0.849
 3362W        W 7106   7.001   9.998   2.167
 3363W        W 7107   2.141   8.989   9.982
 3364W        W 7108   0.794   5.202   2.255
 3365W        W 7109   5.687   9.907  11.959
 3366W        W 7110   8.135   3.639   1.349
 3367W        W 7111   5.697   7.575   3.369
 3368W        W 7112   6.774   2.833   9.940
 3369W        W 7113   5.837   4.478   0.254
 3370W        W 7114   0.095   9.440   8.638
 3371W        W 7115   5.428   2.147   9.832
 3372W        W 7116   8.939   2.691   3.250
 3373W        W 7117   4.205   8.424   1.795
 3374W        W 7118   9.957   0.030   3.164
 3375W        W 7119   4.962   7.677   1.402
 3376W        W 7120   1.843   2.797   0.738
 3377W        W 7121   5.724   7.840  10.831
 3378W        W 7122   3.801   0.555  11.465
 3379W        W 7123   6.632   8.560   8.918
 3380W        W 7124   9.614   2.798   0.922
 3381W        W 7125   9.454   8.905  10.182
 3382W        W 7126   6.185   2.543   3.629
 3383W        W 7127   3.571   8.910  10.790
 3384W        W 7128   3.137   7.765   0.382
 3385W        W 7129   4.084   4.017   0.972
 3386W        W 7130   1.348   5.512   0.486
 3387W        W 7131   7.729   8.128   2.666
 3388W        W 7132   5.113   9.874   1.402
 3389W        W 7133   3.262   6.935   9.054
 3390W        W 7134   8.100   5.507   3.062
 3391W        W 7135   9.363   0.446   1.041
 3392W        W 7136   8.821   3.243  10.036
 3393W        W 7137   9.032   9.344  11.336
 3394W        W 7138   5.717   2.716   3.759
 3395W        W 7139   1.789   5.525  10.717
 3396W        W 7140   6.930   4.269  11.399
 3397W        W 7141   4.246   3.904   0.173
 3398W        W 7142   2.200   8.101  11.072
 3399W        W 7143   6.175   7.669   8.616
 3400W        W 7144   1.774   1.247   9.739
 3401W        W 7145   5.408   6.489   0.031
 3402W        W 7146   1.315   7.147  10.111
 3403W        W 7147   8.931   3.567  11.792
 3404W        W 7148   6.045   5.181  11.625
 3405W        W 7149   0.510   7.857  10.502
 3406W        W 7150   7.437   6.522  11.371
 3407W        W 7151   8.167   7.861   2.758
 3408W        W 7152   2.549   0.180   1.900
 3409W        W 7153  10.186   0.530  10.936
 3410W        W 7154   6.362  10.481   2.236
 3411W        W 7155   2.750   5.121   4.040
 3412W        W 7156   8.375  10.305  10.307
 3413W        W 7157   8.988   3.549   8.667
 3414W        W 7158   7.178   3.691   0.467
 3415W        W 7159   8.217   7.972   9.817
 3416W        W 7160   0.693   1.208  10.449
 3417W        W 7161   6.735   9.317   9.379
 3418W        W 7162   1.152   0.476   1.893
 3419W        W 7163   4.199   9.355  11.121
 3420W        W 7164   4.971   7.419  10.600
 3421W        W 7165   8.154   6.919   0.278
 3422W        W 7166   4.714   5.441   9.850
 3423W        W 7167   4.007   6.589  11.090
 3424W        W 7168   7.075   8.282   3.450
 3425W        W 7169   3.846   1.983   3.473
 3426W        W 7170   7.384   6.311   0.768
 3427W        W 7171   4.245   3.204   8.919
 3428W        W 7172   0.947   0.405   2.380
 3429W        W 7173   4.363   0.958   0.471
 3430W        W 7174   5.221   1.253   0.977
 3431W        W 7175   7.490   4.761   0.895
 3432W        W 7176   6.942   3.741  10.925
 3433W        W 7177   7.136   1.697   0.946
 3434W        W 7178   5.465   4.888   0.903
 3435W        W 7179   7.605   0.223   9.061
 3436W        W 7180   1.899   6.235   9.046
 3437W        W 7181   6.086   6.799   3.239
 3438W        W 7182   6.450   4.832  10.255
 3439W        W 7183   2.115   9.908   8.914
 3440W        W 7184   3.583   0.877  11.810
 3441W        W 7185   6.543   6.288   3.542
 3442W        W 7186   3.690   9.979  10.551
 3443W        W 7187   7.565   9.062   2.985
 3444W        W 7188   6.470   8.287   9.346
 3445W        W 7189   0.292   1.558   9.368
 3446W        W 7190   9.333   4.840   9.666
 3447W        W 7191   6.094   2.860   0.687
 3448W        W 7192   1.133   4.296   2.459
 3449W        W 7193   8.930   4.870   2.427
 3450W        W 7194   9.506   3.565   1.620
 3451W        W 7195   4.340   2.794   2.311
 3452W        W 7196   0.695   9.216  10.418
 3453W        W 7197   3.852   8.521   1.284
 3454W        W 7198   1.050   2.868   8.811
 3455W        W 7199   4.757   3.050   4.063
 3456W        W 7200   7.039   1.904   0.012
 3457W        W 7201   0.617   6.674   8.502
 3458W        W 7202   1.724   6.096   2.515
 3459W        W 7203   6.935   7.929   3.125
 3460W        W 7204   5.158   8.336   2.830
 3461W        W 7205   5.360   8.826   0.408
 3462W        W 7206   8.707   5.555   8.893
 3463W        W 7207   7.001   9.256  11.819
 3464W        W 7208  10.406  10.192   0.234
 3465W        W 7209   1.467   3.257   0.697
 3466W        W 7210   7.063   6.615   1.019
 3467W        W 7211  10.363   0.671   0.216
 3468W        W 7212   9.943   4.219   9.583
 3469W        W 7213   3.333   5.017  11.307
 3470W        W 7214   7.885   6.901   2.943
 3471W        W 7215   4.699   3.043   1.001
 3472W        W 7216   4.106   4.143  11.721
 3473W        W 7217   9.443   8.322   1.790
 3474W        W 7218   0.870   2.848   0.967
 3475W        W 7219   2.906   5.203   1.936
 3476W        W 7220   0.949   2.333   9.080
 3477W        W 7221   9.881   7.112  11.416
 3478W        W 7222   5.678   7.124  11.347
 3479W        W 7223  10.122   4.581   0.345
 3480W        W 7224   5.559  10.026   3.292
 3481W        W 7225   5.168   1.248   9.517
 3482W        W 7226   1.214   4.244   2.961
 3483W        W 7227   9.671   3.955   9.232
 3484W        W 7228   3.741   8.198  11.374
 3485W        W 7229   0.428   8.643  11.199
 3486W        W 7230  10.231   2.180   0.578
 3487W        W 7231   5.090   0.687  11.801
 3488W        W 7232   7.214   1.889  10.529
 3489W        W 7233   3.846   8.797   9.944
 3490W        W 7234   8.072   3.237   0.217
 3491W        W 7235   1.852   7.884   0.769
 3492W        W 7236   5.524   8.804   1.164
 3493W        W 7237   1.295   8.099  11.425
 3494W        W 7238   9.909   4.690   3.442
 3495W        W 7239   2.681   2.986   1.239
 3496W        W 7240   6.537   8.983   1.115
 3497W        W 7241   1.984   3.473   2.733
 3498W        W 7242   8.698   0.529  10.105
 3499W        W 7243   6.622   6.734   1.376
 3500W        W 7244   5.624   9.960  10.084
 3501W        W 7245   8.784   3.639  10.933
 3502W        W 7246  10.006   0.279   0.304
 3503W        W 7247   9.867   8.322   2.853
 3504W        W 7248   3.187   1.291   1.479
 3505W        W 7249   5.658   6.294   3.714
 3506W        W 7250   4.470   7.616   8.109
 3507W        W 7251   2.738   8.085  10.339
 3508W        W 7252   6.711   5.935  11.279
 3509W        W 7253   2.669  10.227   3.607
 3510W        W 7254   1.393  10.076  11.137
 3511W        W 7255   1.904   6.951   1.995
 3512W        W 7256   3.196   4.777   1.664
 3513W        W 7257   7.120   0.222   3.149
 3514W        W 7258   7.938   0.808  10.686
 3515W        W 7259   2.319   2.879   0.430
 3516W        W 7260   3.072   1.856  10.784
 3517W        W 7261   1.298   3.119   3.499
 3518W        W 7262   8.043   3.538   3.346
 3519W        W 7263  10.262   9.411   2.969
 3520W        W 7264   2.926   1.194  10.821
 3521W        W 7265   0.255   4.283   1.912
 3522W        W 7266   9.671  10.317   9.592
 3523W        W 7267   1.332   1.811  10.240
 3524W        W 7268   7.257   7.893   9.634
 3525W        W 7269   4.498   0.790   2.762
 3526W        W 7270   5.760   8.062   1.613
 3527W        W 7271   1.182   4.298  11.922
 3528W        W 7272   3.176   9.899  10.424
 3529W        W 7273   6.605   0.178   1.841
 3530W        W 7274   5.387   0.486   3.501
 3531W        W 7275   5.091   9.970   2.476
 3532W        W 7276   0.606   0.237  11.929
 3533W        W 7277   6.579   4.494  11.093
 3534W        W 7278   0.736   0.418  11.055
 3535W        W 7279   2.927   1.640  10.287
 3536W        W 7280   3.176   7.863   0.924
 3537W        W 7281   2.610   4.232  11.913
 3538W        W 7282   2.275   1.659  11.232
 3539W        W 7283   4.672   9.626   9.082
 3540W        W 7284   3.747   0.358   0.987
 3541W        W 7285   5.047   6.054   0.870
 3542W        W 7286   3.356   2.678  11.773
 3543W        W 7287   0.433   4.011   1.521
 3544W        W 7288   7.586   7.433  10.772
 3545W        W 7289   7.111   6.225  11.064
 3546W        W 7290   8.426   8.935   0.978
 3547W        W 7291   0.621   2.528   3.476
 3548W        W 7292   0.385   7.453  11.853
 3549W        W 7293   3.548   4.979  10.738
 3550W        W 7294   7.099   8.806   9.626
 3551W        W 7295   9.751   4.299   3.171
 3552W        W 7296   3.641   8.511  11.798
 3553W        W 7297   3.964   0.044   2.186
 3554W        W 7298   6.918   7.899   2.084
 3555W        W 7299   1.364   4.963  11.358
 3556W        W 7300   0.303   5.290  11.327
 3557W        W 7301   7.523   3.192   9.685
 3558W        W 7302  10.003   9.087   9.415
 3559W        W 7303   7.121   0.401   1.164
 3560W        W 7304   0.545   1.310   9.002
 3561W        W 7305   5.713   6.472   1.446
 3562W        W 7306   8.861   0.530  10.631
 3563W        W 7307   0.820   6.996  10.088
 3564W        W 7308   4.544   7.650  10.766
 3565W        W 7309   2.378   6.888   8.068
 3566W        W 7310   4.738   6.831   3.144
 3567W        W 7311   2.867   3.159  11.435
 3568W        W 7312  10.358   2.968   1.300
 3569W        W 7313   0.535   7.051   8.915
 3570W        W 7314   9.932   9.517   9.071
 3571W        W 7315   4.268   3.659   2.700
 3572W        W 7316   8.568   6.652   3.437
 3573W        W 7317   0.812   7.810   9.099
 3574W        W 7318   1.917   2.197   9.511
 3575W        W 7319   7.255   9.415   2.771
 3576W        W 7320   1.500   7.970   9.519
 3577W        W 7321   6.702   6.997  10.926
 3578W        W 7322   4.575   0.757  11.778
 3579W        W 7323   1.291   1.028  11.546
 3580W        W 7324   5.200   4.265   9.132
 3581W        W 7325   6.699   7.371  10.002
 3582W        W 7326   3.999   3.122   1.395
 3583W        W 7327   4.703   6.950   2.146
 3584W        W 7328   5.564   2.551  10.457
 3585W        W 7329   6.280   8.706   8.583
 3586W        W 7330   4.029   8.023   8.706
 3587W        W 7331   2.228   6.602   9.209
 3588W        W 7332  10.275   8.001   2.877
 3589W        W 7333   3.078   1.940   3.197
 3590W        W 7334  10.437   0.903  11.765
 3591W        W 7335   7.498  10.092   1.546
 3592W        W 7336   1.237   3.318   2.589
 3593W        W 7337   3.354   6.121   1.896
 3594W        W 7338   0.842   4.717   2.448
 3595W        W 7339   6.055   2.005  11.752
 3596W        W 7340   8.604   9.383   1.286
 3597W        W 7341   6.567   2.321   2.962
 3598W        W 7342   6.933   6.461  11.491
 3599W        W 7343   4.546   1.103   9.249
 3600W        W 7344   0.774   8.457   2.763
 3601W        W 7345   9.954   0.850   3.519
 3602W        W 7346   4.292   9.427  10.612
 3603W        W 7347   0.511   2.875   8.731
 3604W        W 7348   4.184   4.198   3.592
 3605W        W 7349   4.598  10.016   0.455
 3606W        W 7350   2.216   3.772   9.761
 3607W        W 7351   5.594   5.106   9.845
 3608W        W 7352   5.487   9.868  11.066
 3609W        W 7353   9.279   9.006   8.722
 3610W        W 7354   1.407   9.254   0.636
 3611W        W 7355   9.372   8.094  11.955
 3612W        W 7356   1.351   9.977   2.832
 3613W        W 7357   2.467   1.794   0.018
 3614W        W 7358   5.954   7.928   9.972
 3615W        W 7359   0.819  10.201   2.848
 3616W        W 7360   1.244   2.869   2.945
 3617W        W 7361   5.672   3.561   4.244
 3618W        W 7362   0.376   8.963  11.582
 3619W        W 7363   2.638   7.534  11.496
 3620W        W 7364   7.464  10.098  11.260
 3621W        W 7365   1.765   2.797   1.707
 3622W        W 7366   1.717   9.311  10.013
 3623W        W 7367  10.396   6.119   8.611
 3624W        W 7368   2.102   7.113   8.440
 3625W        W 7369  10.054   7.827  10.214
 3626W        W 7370   1.229   3.641  11.562
 3627W        W 7371   7.213   0.186   3.663
 3628W        W 7372   4.006   0.863  10.889
 3629W        W 7373   7.782   6.125  10.474
 3630W        W 7374   7.676   1.986   9.751
 3631W        W 7375   7.874   7.843   3.169
 3632W        W 7376   1.712   5.211  11.885
 3633W        W 7377   5.054   4.169   8.168
 3634W        W 7378   8.073   1.998  11.393
 3635W        W 7379   5.333   4.430   0.699
 3636W        W 7380   8.746   2.616   0.700
 3637W        W 7381   6.861   1.747   9.634
 3638W        W 7382   6.949   4.024  10.492
 3639W        W 7383   1.359   4.331   9.882
 3640W        W 7384   5.293   6.647   8.481
 3641W        W 7385  10.039   2.230  11.218
 3642W        W 7386   2.380   1.247   3.377
 3643W        W 7387   5.788   5.097   2.182
 3644W        W 7388   6.950   0.171   0.744
 3645W        W 7389  10.350   8.981   3.254
 3646W        W 7390  10.013   2.773   2.746
 3647W        W 7391   4.708   3.121  11.572
 3648W        W 7392   2.236   9.935   2.941
 3649W        W 7393  10.264   3.078  10.863
 3650W        W 7394   9.502   1.111  11.948
 3651W        W 7395   4.415   8.895  11.123
 3652W        W 7396   0.862   6.666   2.619
 3653W        W 7397   7.951   4.110   2.163
 3654W        W 7398   6.426   9.032   8.989
 3655W        W 7399   5.232   8.373   8.888
 3656W        W 7400   4.983  10.435   9.737
 3657W        W 7401   4.488   9.585   2.339
 3658W        W 7402   1.149   0.472   0.736
 3659W        W 7403   4.867   0.255  10.574
 3660W        W 7404   3.884   9.898   1.168
 3661W        W 7405   4.192   7.903  10.314
 3662W        W 7406   3.724   1.933  11.527
 3663W        W 7407  10.283   8.462   1.658
 3664W        W 7408   7.632   1.832   1.646
 3665W        W 7409   7.509   9.965  10.752
 3666W        W 7410   8.839   8.994   1.752
 3667W        W 7411   1.805   8.165  11.463
 3668W        W 7412   1.017   5.524   3.223
 3669W        W 7413   9.448   7.890   3.480
 3670W        W 7414   9.397   8.602  11.866
 3671W        W 7415   8.602   4.290  11.779
 3672W        W 7416   3.513  10.314   3.110
 3673W        W 7417   4.140   4.381  11.241
 3674W        W 7418   9.739   0.969   1.867
 3675W        W 7419   7.508   8.888   4.043
 3676W        W 7420   2.632   2.399   0.386
 3677W        W 7421   9.860   9.785  11.699
 3678W        W 7422   4.436   3.625   9.119
 3679W        W 7423   9.339   2.227   2.863
 3680W        W 7424   4.221   6.564   9.919
 3681W        W 7425   1.008   2.388   0.771
 3682W        W 7426   6.253   0.762   1.149
 3683W        W 7427   5.990   5.688  11.376
 3684W        W 7428   4.238   8.913  10.298
 3685W        W 7429   8.501   8.005   1.034
 3686W        W 7430   0.493   5.107   0.129
 3687W        W 7431   7.813   9.358   0.341
 3688W        W 7432   2.838   8.943   3.276
 3689W        W 7433   2.214   1.236   1.171
 3690W        W 7434   9.846   2.281   2.778
 3691W        W 7435   1.811   1.420   1.424
 3692W        W 7436   0.294   4.916  11.686
 3693W        W 7437   8.933   7.979   2.840
 3694W        W 7438   8.942   1.756   9.348
 3695W        W 7439   4.579   9.086   2.450
 3696W        W 7440   8.354   2.352   2.503
 3697W        W 7441   3.594   1.305   0.441
 3698W        W 7442   8.296   6.305   3.751
 3699W        W 7443   1.814   4.824  11.577
 3700W        W 7444   6.739   6.728   9.035
 3701W        W 7445   7.632   0.897   0.711
 3702W        W 7446   8.574   1.461  10.973
 3703W        W 7447   2.087   9.301  10.362
 3704W        W 7448   9.895   4.650   9.915
 3705W        W 7449   3.801   9.138  10.363
 3706W        W 7450   0.648   9.370   2.253
 3707W        W 7451   2.637   2.256  11.887
 3708W        W 7452   2.783   3.088   3.126
 3709W        W 7453   9.973   6.404   1.863
 3710W        W 7454   1.469   3.613   8.686
 3711W        W 7455   9.419   3.948  11.549
 3712W        W 7456   8.307   9.992  10.722
 3713W        W 7457   2.001   4.890   3.677
 3714W        W 7458   0.753   6.521   2.104
 3715W        W 7459   0.644   0.356   1.958
 3716W        W 7460   9.679   4.233   8.784
 3717W        W 7461   0.880   2.762  11.875
 3718W        W 7462   8.097   7.943  11.790
 3719W        W 7463   6.524   8.495  10.882
 3720W        W 7464   3.545   7.570   9.350
 3721W        W 7465   3.286   3.805   2.656
 3722W        W 7466   6.010   6.100  10.018
 3723W        W 7467  10.407   8.181  11.929
 3724W        W 7468   9.786   5.005   0.795
 3725W        W 7469   7.459   4.584  11.020
 3726W        W 7470   5.185   8.383  10.070
 3727W        W 7471  10.320   5.121  10.565
 3728W        W 7472  10.288   7.039   1.202
 3729W        W 7473   7.145   7.212  10.796
 3730W        W 7474   7.630   9.183   9.704
 3731W        W 7475   8.601   9.247   9.570
 3732W        W 7476   9.597   3.472   9.414
 3733W        W 7477   0.034   0.864   9.739
 3734W        W 7478   9.899   9.306   9.901
 3735W        W 7479   9.884   6.103   9.463
 3736W        W 7480   6.915  10.165  11.878
 3737W        W 7481   5.475   9.992   1.724
 3738W        W 7482   5.498   3.318   9.836
 3739W        W 7483   9.562   6.640   1.688
 3740W        W 7484   5.062   8.511  11.543
 3741W        W 7485   3.737  10.472  10.821
 3742W        W 7486   9.349   9.486   0.501
 3743W        W 7487   4.787   8.662   8.862
 3744W        W 7488   9.340  10.320  11.859
 3745W        W 7489   3.715   8.659   1.758
 3746W        W 7490  10.373   5.524   9.951
 3747W        W 7491   1.526   3.689   2.781
 3748W        W 7492   6.634   8.478   1.328
 3749W        W 7493   2.895   7.457   2.348
 3750W        W 7494   3.063   5.090  10.889
 3751W        W 7495   5.260   9.666   0.056
 3752W        W 7496   0.026   3.194   9.928
 3753W        W 7497   9.388   3.278   0.280
 3754W        W 7498   8.911   8.345   1.066
 3755W        W 7499   4.275   6.805   3.376
 3756W        W 7500   9.989   8.823   0.554
 3757W        W 7501   2.409   3.392   0.369
 3758W        W 7502   7.390   2.426   0.944
 3759W        W 7503   6.678   0.293   8.761
 3760W        W 7504   2.645   6.941   8.526
 3761W        W 7505   0.263   3.340   0.328
 3762W        W 7506   9.406   6.240   3.088
 3763W        W 7507   7.615   0.024   9.921
 3764W        W 7508   2.981   6.828   2.914
 3765W        W 7509   1.483   8.193   3.201
 3766W        W 7510   2.848   2.862   0.337
 3767W        W 7511   1.266   9.833   8.567
 3768W        W 7512   5.788   4.233   3.609
 3769W        W 7513   0.202   4.183   2.834
 3770W        W 7514   9.767   5.878  11.033
 3771W        W 7515   5.996  10.390   9.926
 3772W        W 7516   4.226   7.327   0.453
 3773W        W 7517   7.334   9.019   0.213
 3774W        W 7518  10.292   9.483   2.481
 3775W        W 7519   3.262   7.077  11.743
 3776W        W 7520   2.486   7.850  11.856
 3777W        W 7521   5.703   0.717  11.422
 3778W        W 7522   9.018   2.270   3.569
 3779W        W 7523   3.758   3.169  11.183
 3780W        W 7524   4.729   3.156   3.211
 3781W        W 7525   7.391   6.978   1.646
 3782W        W 7526   2.391   9.909   9.598
 3783W        W 7527   8.320   3.759  11.074
 3784W        W 7528   5.638   9.091   0.755
 3785W        W 7529   3.815   9.444   2.915
 3786W        W 7530   1.721   9.525  11.264
 3787W        W 7531   1.781   6.495   3.043
 3788W        W 7532   3.353   7.397   8.923
 3789W        W 7533   0.277   1.628   8.350
 3790W        W 7534   6.541   0.185  11.497
 3791W        W 7535   4.705   4.585  11.197
 3792W        W 7536   8.233   2.644   0.747
 3793W        W 7537   6.202   8.207   1.382
 3794W        W 7538   0.801   9.298  11.559
 3795W        W 7539   5.130   6.051   2.441
 3796W        W 7540   2.694   8.115  10.863
 3797W        W 7541   6.132   4.250   1.231
 3798W        W 7542   4.752   8.566  10.280
 3799W        W 7543   5.609   9.024  10.533
 3800W        W 7544   7.496   0.086  10.406
 3801W        W 7545   4.504   4.727  10.355
 3802W        W 7546   7.153   4.916   3.351
 3803W        W 7547   4.940   7.373   8.122
 3804W        W 7548   7.999   3.186   1.592
 3805W        W 7549   5.463  10.431   9.943
 3806W        W 7550   9.174   6.703   0.135
 3807W        W 7551   9.580   8.959   9.705
 3808W        W 7552   2.230   0.756   9.639
 3809W        W 7553   8.051   6.685  10.264
 3810W        W 7554   5.233   7.086   4.219
 3811W        W 7555   7.354   7.131  10.324
 3812W        W 7556   3.051   6.630  11.770
 3813W        W 7557   0.298   2.907   9.586
 3814W        W 7558   6.215   7.031   4.003
 3815W        W 7559   1.833   6.732   1.522
 3816W        W 7560   1.134   5.259   1.043
 3817W        W 7561   8.719   7.434   3.556
 3818W        W 7562   1.320   7.091  10.639
 3819W        W 7563   8.805  10.266   0.902
 3820W        W 7564   7.072   7.098   8.896
 3821W        W 7565   1.816   4.956   2.290
 3822W        W 7566   4.231   5.207  10.086
 3823W        W 7567   6.186   8.376   2.885
 3824W        W 7568   5.065   3.359   0.353
 3825W        W 7569   3.179   1.009   2.881
 3826W        W 7570  10.429   0.634   1.384
 3827W        W 7571   1.525   7.835   2.422
 3828W        W 7572   6.898   6.248   8.114
 3829W        W 7573   5.946   9.643  11.028
 3830W        W 7574   4.458   1.698   2.821
 3831W        W 7575   8.122   2.786   2.813
 3832W        W 7576   8.589   6.775   0.943
 3833W        W 7577   4.813   1.334   2.132
 3834W        W 7578   9.367  10.176   2.131
 3835W        W 7579  10.001  10.134   0.960
 3836W        W 7580   7.651   8.141   0.037
 3837W        W 7581   3.282   6.001   9.171
 3838W        W 7582   2.263   5.992  11.879
 3839W        W 7583   8.384   7.050  10.407
 3840W        W 7584   0.213   7.163   0.961
 3841W        W 7585   8.541   2.828   9.988
 3842W        W 7586   5.151   6.500   2.163
 3843W        W 7587   1.394   6.901   8.879
 3844W        W 7588   5.646   3.313   2.781
 3845W        W 7589   8.146   6.495   3.167
 3846W        W 7590   4.675   9.857  10.823
 3847W        W 7591   9.003   4.728   1.542
 3848W        W 7592   1.767   2.882   9.993
 3849W        W 7593   7.015   8.968   2.859
 3850W        W 7594   6.121   6.508  10.848
 3851W        W 7595   1.331   3.301   2.113
 3852W        W 7596   7.051   2.733  11.548
 3853W        W 7597   9.859  10.228  11.966
 3854W        W 7598   3.776   8.005   9.528
 3855W        W 7599   3.161   1.436   1.986
 3856W        W 7600   6.474   0.216   0.459
 3857W        W 7601   5.087   1.775  10.750
 3858W        W 7602   2.292   5.565  11.495
 3859W        W 7603   5.383   5.698   8.576
 3860W        W 7604   2.234   7.358   9.695
 3861W        W 7605   6.141   8.092  11.073
 3862W        W 7606   1.875   7.616   9.464
 3863W        W 7607   6.959   3.501   2.546
 3864W        W 7608   1.886   4.524   1.412
 3865W        W 7609   0.340   0.961   2.705
 3866W        W 7610   0.918   5.094   9.955
 3867W        W 7611   0.473   4.835  10.131
 3868W        W 7612   4.638   5.369  11.199
 3869W        W 7613   5.118   3.806   0.136
 3870W        W 7614   4.316   4.602  10.821
 3871W        W 7615   5.587   3.310   2.276
 3872W        W 7616   2.155   9.764  10.544
 3873W        W 7617   7.634   9.608   1.660
 3874W        W 7618   4.114   6.045   0.992
 3875W        W 7619  10.325   1.788  11.467
 3876W        W 7620   8.953   2.882   1.449
 3877W        W 7621   0.590   5.911   1.440
 3878W        W 7622   7.422   0.541   9.463
 3879W        W 7623   8.499   3.900   3.296
 3880W        W 7624   9.072   2.245  11.466
 3881W        W 7625   9.349   4.620  10.111
 3882W        W 7626   1.955   9.149   2.817
 3883W        W 7627   1.789   0.900   9.349
 3884W        W 7628   9.434   1.260  10.922
 3885W        W 7629   8.572   4.584  11.325
 3886W        W 7630   8.519   2.704   8.951
 3887W        W 7631   8.881   2.021   3.148
 3888W        W 7632   7.119   7.949   8.482
 3889W        W 7633   1.960   7.704   2.693
 3890W        W 7634   9.895   0.663   0.965
 3891W        W 7635   1.173   4.043   1.447
 3892W        W 7636   5.732   1.289  10.772
 3893W        W 7637   8.044   7.844  11.255
 3894W        W 7638   2.274   5.275   3.468
 3895W        W 7639   8.014   9.794   9.253
 3896W        W 7640   2.667   8.960  10.977
 3897W        W 7641  10.485   1.860  11.966
 3898W        W 7642   9.443   8.601   2.767
 3899W        W 7643   3.219   4.702   3.613
 3900W        W 7644   9.749   0.845  11.019
 3901W        W 7645   7.151   6.691  10.759
 3902W        W 7646   9.042   0.721   0.748
 3903W        W 7647   9.971   9.972  10.818
 3904W        W 7648   5.246   9.705  10.379
 3905W        W 7649   7.489   8.569   3.167
 3906W        W 7650   5.715   6.463   0.935
 3907W        W 7651   1.397   9.526  10.867
 3908W        W 7652   9.805   3.753   9.803
 3909W        W 7653   7.090   0.089   9.038
 3910W        W 7654   6.478   6.635  11.215
 3911W        W 7655   1.749   6.188  11.871
 3912W        W 7656   5.257   4.463  11.019
 3913W        W 7657   5.683   4.213   2.149
 3914W        W 7658   5.564   5.085   3.136
 3915W        W 7659   1.944   3.230   9.660
 3916W        W 7660   6.152   3.331  11.429
 3917W        W 7661   6.370   7.738   1.284
 3918W        W 7662   5.634   0.266   0.396
 3919W        W 7663   3.267   4.991   4.045
 3920W        W 7664   8.202   6.680   2.220
 3921W        W 7665   1.074   3.541   1.487
 3922W        W 7666   4.818   9.474   3.184
 3923W        W 7667  10.470  10.473  10.210
 3924W        W 7668   9.300   4.042   2.487
 3925W        W 7669   8.409   1.875   2.354
 3926W        W 7670   3.684   4.022   1.378
 3927W        W 7671   1.059   7.096   9.641
 3928W        W 7672   9.670   4.745  10.476
 3929W        W 7673   2.785   1.211   0.763
 3930W        W 7674   2.275   8.322  11.560
 3931W        W 7675   8.029   8.450  11.765
 3932W        W 7676   1.827  10.018   1.636
 3933W        W 7677   6.535   9.351  10.353
 3934W        W 7678   9.630   3.789  10.611
 3935W        W 7679  10.486   0.813  11.246
 3936W        W 7680   1.228   1.380   2.297
 3937W        W 7681   9.438   2.677   1.487
 3938W        W 7682   4.890  10.236   2.982
 3939W        W 7683   4.119   2.696   9.069
 3940W        W 7684   9.381  10.008   2.616
 3941W        W 7685   5.615   6.635   8.921
 3942W        W 7686   8.070   2.876  10.720
 3943W        W 7687   1.800   2.757  11.800
 3944W        W 7688   3.593   0.905   2.601
 3945W        W 7689   8.498   8.914  10.300
 3946W        W 7690   0.275   4.201   9.225
 3947W        W 7691   1.548   1.445   8.930
 3948W        W 7692   4.951   2.238  11.881
 3949W        W 7693   8.600  10.469  10.876
 3950W        W 7694   2.137   1.071  10.062
 3951W        W 7695   0.960   6.994   2.106
 3952W        W 7696   8.044   0.688   1.742
 3953W        W 7697   7.303   6.207  10.349
 3954W        W 7698   9.397   0.624   3.563
 3955W        W 7699  10.476   5.087   9.691
 3956W        W 7700   8.818   5.084  10.509
 3957W        W 7701   8.983   4.580   8.804
 3958W        W 7702   4.914   3.714   8.402
 3959W        W 7703   4.972   5.684   0.279
 3960W        W 7704   2.379   0.336   2.781
 3961W        W 7705   9.743   9.024   3.500
 3962W        W 7706  10.432   8.585  10.099
 3963W        W 7707   6.312  10.343   2.756
 3964W        W 7708   4.246   5.348  10.577
 3965W        W 7709   7.074   3.360  11.235
 3966W        W 7710   1.448   1.662   0.211
 3967W        W 7711   7.439   5.222   9.355
 3968W        W 7712   3.318   0.426   1.282
 3969W        W 7713   1.222   3.677   1.016
 3970W        W 7714   7.076   6.109   9.087
 3971W        W 7715   5.976   2.112   9.125
 3972W        W 7716   9.854   1.843   9.386
 3973W        W 7717   0.877   1.687   2.562
 3974W        W 7718   3.320   9.574  11.814
 3975W        W 7719   6.580   0.503   0.868
 3976W        W 7720   3.342   3.949   3.128
 3977W        W 7721   3.407   5.410   3.218
 3978W        W 7722   7.227   4.116  11.818
 3979W        W 7723   1.219   6.112  11.870
 3980W        W 7724   0.847   9.630   9.474
 3981W        W 7725   7.161   7.499   2.386
 3982W        W 7726   9.406   3.666   1.120
 3983W        W 7727   3.921   9.700   0.696
 3984W        W 7728   5.514   1.682   3.001
 3985W        W 7729   3.275   4.878   0.558
 3986W        W 7730   5.077   4.068  10.747
 3987W        W 7731   8.048   5.390   1.262
 3988W        W 7732   4.510   4.128   9.408
 3989W        W 7733   5.344   9.764  11.558
 3990W        W 7734   7.479   9.615  10.033
 3991W        W 7735   6.878   9.388  10.729
 3992W        W 7736   0.195   6.185   0.816
 3993W        W 7737   2.643   5.654   9.915
 3994W        W 7738   3.174   4.196   1.256
 3995W        W 7739  10.217   6.855   9.394
 3996W        W 7740   9.616   7.425   0.827
 3997W        W 7741   7.067   5.238   0.286
 3998W        W 7742   5.925   0.812   9.953
 3999W        W 7743   8.131   8.441   2.609
 4000W        W 7744   6.593   6.684   2.252
 4001W        W 7745   6.882   4.831   9.945
 4002W        W 7746   3.850   3.074   9.249
 4003W        W 7747   1.756   2.238  11.355
 4004W        W 7748   6.862  10.343   2.507
 4005W        W 7749   1.386  10.382  10.278
 4006W        W 7750   5.943   4.741  10.342
 4007W        W 7751   4.935   7.872   8.263
 4008W        W 7752   8.440   3.603   8.477
 4009W        W 7753  10.288   0.776   8.700
 4010W        W 7754   9.021   2.522   1.824
 4011W        W 7755   2.890   4.627   4.095
 4012W        W 7756   4.644   6.474   2.339
 4013W        W 7757   5.049   7.169   1.333
 4014W        W 7758   0.698   6.162   0.939
 4015W        W 7759   9.545   0.056   0.271
 4016W        W 7760   2.890   3.719  10.537
 4017W        W 7761   3.234   8.321  11.515
 4018W        W 7762   7.873   2.410  10.505
 4019W        W 7763   0.857   1.374   0.918
 4020W        W 7764   9.491   1.837   0.927
 4021W        W 7765   7.188   2.635   2.517
 4022W        W 7766   1.446   8.460   1.036
 4023W        W 7767   3.110   2.495   0.601
 4024W        W 7768   7.545   6.108   2.729
 4025W        W 7769   5.622   1.146   1.268
 4026W        W 7770   7.022   9.651   0.818
 4027W        W 7771   9.600   7.199  10.092
 4028W        W 7772   5.946   6.705   4.306
 4029W        W 7773   4.607   3.226  10.812
 4030W        W 7774  10.057   0.983   1.429
 4031W        W 7775   0.416   8.940   1.557
 4032W        W 7776   2.703   7.884   1.190
 4033W        W 7777  10.372   8.516   0.737
 4034W        W 7778   9.950   5.444   1.765
 4035W        W 7779   6.671   5.274  11.976
 4036W        W 7780   5.067   7.894  10.279
 4037W        W 7781   9.928   4.980  10.867
 4038W        W 7782   9.843   1.439  10.184
 4039W        W 7783   4.249   4.439   9.088
 4040W        W 7784   5.605   9.485  10.715
 4041W        W 7785   4.518   6.007   0.683
 4042W        W 7786   7.668   5.574   3.967
 4043W        W 7787   2.157   0.367   9.973
 4044W        W 7788   6.492  10.020   2.416
 4045W        W 7789   5.218   9.447   0.658
 4046W        W 7790   9.670   9.808  11.217
 4047W        W 7791   7.948   0.298  10.555
 4048W        W 7792   0.806   7.923  11.511
 4049W        W 7793  10.303  10.322   1.946
 4050W        W 7794   5.695   3.582  10.925
 4051W        W 7795   2.309   5.054  11.622
 4052W        W 7796  10.069   5.700   2.190
 4053W        W 7797   4.712   2.740   9.797
 4054W        W 7798   6.046   7.206   3.554
 4055W        W 7799   7.571   6.652  10.451
 4056W        W 7800   1.667   8.656  11.498
 4057W        W 7801   5.984   7.126   1.883
 4058W        W 7802   8.712   1.812   3.589
 4059W        W 7803   4.481   7.945   8.494
 4060W        W 7804   8.497   6.209   9.152
 4061W        W 7805   3.405   4.645   8.640
 4062W        W 7806   8.371   9.259   0.054
 4063W        W 7807   1.348   6.384   2.732
 4064W        W 7808  10.197   4.124   2.921
 4065W        W 7809   7.462   5.816   0.803
 4066W        W 7810  10.484   1.738   2.509
 4067W        W 7811   2.922   2.065   9.473
 4068W        W 7812   0.097   1.607   1.821
 4069W        W 7813   4.058   6.920  10.296
 4070W        W 7814   6.754   4.593   3.272
 4071W        W 7815   7.172   2.651   1.372
 4072W        W 7816   4.862   2.821   2.314
 4073W        W 7817   4.882   9.506   2.676
 4074W        W 7818   5.139   4.681  11.481
 4075W        W 7819   8.970   0.413   1.416
 4076W        W 7820   4.015   7.542   3.053
 4077W        W 7821   1.813   3.231   1.988
 4078W        W 7822   1.619   9.539   2.970
 4079W        W 7823   7.119   7.877  11.464
 4080W        W 7824   1.286   4.270   0.417
 4081W        W 7825   9.367   8.564   8.975
 4082W        W 7826   0.810   3.837  11.787
 4083W        W 7827   0.707   7.102   0.748
 4084W        W 7828   3.340   8.839   3.391
 4085W        W 7829   9.597  10.390   3.465
 4086W        W 7830   1.189   2.872   0.502
 4087W        W 7831   6.945   9.969  11.374
 4088W        W 7832   2.314   3.849   2.685
 4089W        W 7833   4.948   4.202   0.939
 4090W        W 7834   4.647   4.945   9.902
 4091W        W 7835   2.866   1.179   3.309
 4092W        W 7836   9.003   8.410   2.572
 4093W        W 7837   3.293   2.384  10.127
 4094W        W 7838   1.786   6.244  11.330
 4095W        W 7839   4.627   7.625  10.269
 4096W        W 7840   6.489   3.041  10.512
 4097W        W 7841   7.339   1.039   9.400
 4098W        W 7842   7.030   7.455   9.419
 4099W        W 7843   4.086  10.109   0.356
 4100W        W 7844   8.387   1.980  10.974
 4101W        W 7845   5.661   1.133   0.738
 4102W        W 7846   8.181   6.623   1.622
 4103W        W 7847   9.391   3.112  11.258
 4104W        W 7848   0.287   7.824   0.266
 4105W        W 7849   0.302   1.748   8.891
 4106W        W 7850   4.458   1.041  10.996
 4107W        W 7851   7.495   2.697   1.807
 4108W        W 7852   8.339   0.927   9.226
 4109W        W 7853   4.690   3.023   0.112
 4110W        W 7854   5.863   2.393   0.047
 4111W        W 7855   7.376   5.028  11.364
 4112W        W 7856   7.453   3.234   1.868
 4113W        W 7857   1.227   7.461   2.179
 4114W        W 7858   4.175   0.774  10.391
 4115W        W 7859   6.740   1.467  11.947
 4116W        W 7860   2.634   3.871  11.469
 4117W        W 7861   6.950   0.974   0.281
 4118W        W 7862   1.440   8.669  10.445
 4119W        W 7863   8.319   9.806  10.202
 4120W        W 7864   8.045   6.025   0.009
 4121W        W 7865   1.892   8.531  11.061
 4122W        W 7866   9.779   9.848   9.817
 4123W        W 7867   3.779   1.819   9.024
 4124W        W 7868   4.450   8.094   0.087
 4125W        W 7869   5.181   9.412   1.161
 4126W        W 7870   1.313  10.331   9.782
 4127W        W 7871   6.534   3.637   3.225
 4128W        W 7872   2.811   8.556  10.619
 4129W        W 7873   5.542   6.404  11.115
 4130W        W 7874   7.050   8.658   1.105
 4131W        W 7875   5.123   8.955   0.862
 4132W        W 7876  10.172  10.290   1.425
 4133W        W 7877   1.445   9.090   2.745
 4134W        W 7878   4.631   5.476   1.865
 4135W        W 7879   1.277   8.452   8.756
 4136W        W 7880   4.478  10.458  11.428
 4137W        W 7881  10.405   3.634   2.156
 4138W        W 7882   8.062   7.498   9.620
 4139W        W 7883   4.065   6.825  11.535
 4140W        W 7884   7.423   7.589   3.227
 4141W        W 7885  10.070   6.849   2.412
 4142W        W 7886   2.814   4.525  10.483
 4143W        W 7887   6.104   0.203  11.763
 4144W        W 7888   0.437   0.419   2.451
 4145W        W 7889   2.780   5.526   0.752
 4146W        W 7890   4.588  10.333  10.549
 4147W        W 7891   6.140   0.323   8.818
 4148W        W 7892   5.649  10.392   1.462
 4149W        W 7893   6.921   3.803  10.039
 4150W        W 7894   2.811   8.853   2.753
 4151W        W 7895   7.576   5.263   1.391
 4152W        W 7896   2.312   5.667   0.496
 4153W        W 7897   9.437   7.621  11.046
 4154W        W 7898   7.425   9.054   2.450
 4155W        W 7899   8.660   2.404  11.882
 4156W        W 7900   8.943   5.940   9.929
 4157W        W 7901   8.965  10.015   1.773
 4158W        W 7902   3.725   8.089  10.460
 4159W        W 7903   3.301   2.141   0.911
 4160W        W 7904   0.031   2.893   0.811
 4161W        W 7905   0.737   2.890   1.482
 4162W        W 7906   4.141   8.825   9.432
 4163W        W 7907   3.611   8.050   9.051
 4164W        W 7908   1.616   2.250   2.314
 4165W        W 7909   0.272   5.985   3.186
 4166W        W 7910   4.785  10.375  11.004
 4167W        W 7911   0.227   6.071   2.669
 4168W        W 7912   0.832   5.555   9.699
 4169W        W 7913   5.051   6.513   2.660
 4170W        W 7914   1.867   9.911   9.396
 4171W        W 7915   8.007   8.840   9.585
 4172W        W 7916   5.139   1.301  10.021
 4173W        W 7917   4.794   2.046   1.003
 4174W        W 7918   6.621   4.258   2.316
 4175W        W 7919   2.722   0.689   1.516
 4176W        W 7920   3.225   8.610   2.937
 4177W        W 7921   6.131   0.471  11.292
 4178W        W 7922   7.766   0.429  11.003
 4179W        W 7923   2.515   6.995   0.850
 4180W        W 7924   9.998   5.479   8.973
 4181W        W 7925   8.102   3.031  11.719
 4182W        W 7926   5.499   0.772   2.504
 4183W        W 7927   5.565   7.307   0.678
 4184W        W 7928   2.271   8.612   2.817
 4185W        W 7929   3.306   3.710   1.178
 4186W        W 7930   7.225   3.892   8.959
 4187W        W 7931   2.698   8.524   9.707
 4188W        W 7932   6.074   3.841  10.699
 4189W        W 7933   7.670   4.217   3.535
 4190W        W 7934   2.392   4.800   3.148
 4191W        W 7935   0.308   1.237  11.261
 4192W        W 7936   8.019   7.387  11.040
 4193W        W 7937   6.481   5.867  10.388
 4194W        W 7938   0.253   9.505  10.033
 4195W        W 7939   5.047   6.652  11.257
 4196W        W 7940   2.169   6.000   2.810
 4197W        W 7941   9.246   9.029   0.933
 4198W        W 7942   0.074   3.745   9.415
 4199W        W 7943   2.209   3.310   2.313
 4200W        W 7944   7.076   1.119   3.313
 4201W        W 7945   3.241   7.724   2.675
 4202W        W 7946   9.430   5.057   2.330
 4203W        W 7947   8.701   1.765  10.604
 4204W        W 7948   3.179   5.587  10.999
 4205W        W 7949   1.820   0.287   2.575
 4206W        W 7950   9.993   2.728   2.225
 4207W        W 7951   6.734   4.828   1.291
 4208W        W 7952   3.058   8.803  11.462
 4209W        W 7953   8.798   8.904  11.477
 4210W        W 7954   2.131   8.977  10.899
 4211W        W 7955   5.891   7.660   0.523
 4212W        W 7956   8.501   8.113   3.098
 4213W        W 7957   3.626   5.628   0.319
 4214W        W 7958   4.983   6.881   0.877
 4215W        W 7959   2.307   9.351   1.642
 4216W        W 7960   2.628   2.388  11.395
 4217W        W 7961   2.864   5.096   9.849
 4218W        W 7962   8.012   2.352   9.534
 4219W        W 7963   6.723   2.326   9.754
 4220W        W 7964   1.001   8.376   3.237
 4221W        W 7965   8.891   4.610   9.830
 4222W        W 7966   1.879   6.528   0.567
 4223W        W 7967   3.440   8.198   1.809
 4224W        W 7968   4.283  10.281   1.862
 4225W        W 7969   3.347   5.780  10.561
 4226W        W 7970   6.038   1.703  10.271
 4227W        W 7971   1.387   3.735   1.855
 4228W        W 7972   3.415   9.590   0.685
 4229W        W 7973   7.121   6.568   3.299
 4230W        W 7974   5.416   2.020   1.710
 4231W        W 7975   2.124   4.671   0.534
 4232W        W 7976   4.976   1.463   3.461
 4233W        W 7977   9.270   8.468  10.411
 4234W        W 7978   8.556   8.061   1.531
 4235W        W 7979   3.778   3.203   1.873
 4236W        W 7980   0.245   6.447   9.432
 4237W        W 7981   6.006   1.739  10.767
 4238W        W 7982   3.699   4.894   3.157
 4239W        W 7983   2.095   1.320   0.190
 4240W        W 7984   2.750   2.376  10.806
 4241W        W 7985   7.971   1.337   0.496
 4242W        W 7986   6.976   4.192   0.266
 4243W        W 7987   5.616   0.480  11.894
 4244W        W 7988   2.294   6.728   1.277
 4245W        W 7989   9.805   9.282   0.350
 4246W        W 7990   4.076   8.996  10.764
 4247W        W 7991   7.186   1.860   2.982
 4248W        W 7992   6.999   8.403   9.256
 4249W        W 7993   8.870   4.077  11.395
 4250W        W 7994   2.256   4.469  10.334
 4251W        W 7995  10.035   5.558   0.879
 4252W        W 7996   6.926   7.133   1.486
 4253W        W 7997   3.100   5.010   9.372
 4254W        W 7998   8.070   8.907   2.836
 4255W        W 7999   9.205   0.582   2.274
 4256W        W 8000   5.656   0.400   9.221
 4257W        W 8001   2.710   3.605   9.127
 4258W        W 8002   8.939   1.468  10.227
 4259W        W 8003   0.703   9.343   2.749
 4260W        W 8004   7.883   5.064   3.231
 4261W        W 8005   0.795   1.844   1.255
 4262W        W 8006   6.623   8.555   3.214
 4263W        W 8007   7.456   3.422   2.396
 4264W        W 8008   0.004   5.570   0.223
 4265W        W 8009   4.674   5.518   1.356
 4266W        W 8010   3.178   5.143  11.896
 4267W        W 8011   3.284   0.485   9.569
 4268W        W 8012   7.625   4.750  10.342
 4269W        W 8013   4.342   4.923  11.291
 4270W        W 8014   1.663   8.821   9.987
 4271W        W 8015   6.009   6.597  10.307
 4272W        W 8016   4.299   1.760  10.645
 4273W        W 8017   8.463   6.678  10.987
 4274W        W 8018   0.303   8.648  11.989
 4275W        W 8019   7.384  10.487   0.986
 4276W        W 8020   6.580   9.893   9.267
 4277W        W 8021   7.208   0.914   9.998
 4278W        W 8022   6.245   2.879   2.343
 4279W        W 8023   3.723   8.224   0.265
 4280W        W 8024   8.431   3.216   9.204
 4281W        W 8025  10.333   0.318   2.713
 4282W        W 8026   4.010   4.277   9.546
 4283W        W 8027   4.170   3.538   1.725
 4284W        W 8028   6.749   3.720   9.030
 4285W        W 8029   9.594   7.613  11.895
 4286W        W 8030   3.828   2.813   2.273
 4287W        W 8031   0.532   9.317   1.232
 4288W        W 8032   6.282   3.181   3.254
 4289W        W 8033   9.866   4.260  10.493
 4290W        W 8034   7.716   2.729  11.881
 4291W        W 8035   3.676   6.887   2.271
 4292W        W 8036   1.261   8.763   1.840
 4293W        W 8037   4.179   3.968   1.475
 4294W        W 8038   4.074   9.914   2.911
 4295W        W 8039   2.628   5.954  10.870
 4296W        W 8040   8.598   0.555   2.602
 4297W        W 8041   5.700   0.343   1.705
 4298W        W 8042   0.993   7.500  10.783
 4299W        W 8043   6.692   0.504   3.068
 4300W        W 8044   6.152   8.166   3.667
 4301W        W 8045   2.839   8.790   0.798
 4302W        W 8046   2.213   7.633   3.558
 4303W        W 8047   5.968   7.191   0.344
 4304W        W 8048   6.717   9.603   3.405
 4305W        W 8049   4.272   9.930  10.496
 4306W        W 8050   9.384   7.791   8.989
 4307W        W 8051   4.212   3.107  11.741
 4308W        W 8052   6.466   4.060   1.856
 4309W        W 8053   6.254   7.914  11.584
 4310W        W 8054   3.294   0.263   3.173
 4311W        W 8055   4.235   8.123  11.308
 4312W        W 8056   1.373   5.790  10.466
 4313W        W 8057   5.838   1.859   1.428
 4314W        W 8058   2.120   5.135  10.795
 4315W        W 8059   7.957   2.280   0.452
 4316W        W 8060   5.697   9.330   3.618
 4317W        W 8061   8.503   2.745   1.691
 4318W        W 8062   4.140  10.401  11.891
 4319W        W 8063   8.760   6.613  11.811
 4320W        W 8064   6.925   0.441   0.284
 4321W        W 8065   0.383   1.462   2.689
 4322W        W 8066   0.225   6.053   9.019
 4323W        W 8067   2.816   0.345   1.070
 4324W        W 8068   3.853   3.874   0.495
 4325W        W 8069   2.975   7.908  11.702
 4326W        W 8070   3.962   8.284  10.032
 4327W        W 8071   2.718   6.887  10.730
 4328W        W 8072   4.092   0.070   9.949
 4329W        W 8073   3.764   9.544   8.985
 4330W        W 8074   2.786   8.058   0.186
 4331W        W 8075   4.663   2.037   9.529
 4332W        W 8076   5.988   5.010   0.947
 4333W        W 8077   2.650   6.611  11.433
 4334W        W 8078   6.609   0.248   2.615
 4335W        W 8079   2.656   2.275   9.071
 4336W        W 8080   0.425   1.724   2.208
 4337W        W 8081   9.811   7.968   0.207
 4338W        W 8082   2.626   8.020  11.361
 4339W        W 8083   9.908   7.979   3.254
 4340W        W 8084   4.455   2.396  11.038
 4341W        W 8085  10.445   8.968   1.771
 4342W        W 8086   2.740   5.922   3.924
 4343W        W 8087   8.865   8.752   0.750
 4344W        W 8088   4.091   7.996   2.833
 4345W        W 8089   5.672   6.229   1.891
 4346W        W 8090  10.460   6.602  10.125
 4347W        W 8091   9.902   3.593   2.242
 4348W        W 8092   3.860   5.086   9.769
 4349W        W 8093   0.812   4.175   9.047
 4350W        W 8094   3.308   8.954   1.938
 4351W        W 8095   8.542   6.736   9.101
 4352W        W 8096   9.425   9.374  11.028
 4353W        W 8097   6.022  10.011   0.348
 4354W        W 8098   3.170  10.448  11.883
 4355W        W 8099   9.782   7.448   8.901
 4356W        W 8100   6.050   9.338   9.151
 4357W        W 8101   1.947   1.778   0.043
 4358W        W 8102   2.551   8.514   1.870
 4359W        W 8103   7.609   5.667  10.348
 4360W        W 8104   5.158   5.236  10.068
 4361W        W 8105  10.333   0.919   0.955
 4362W        W 8106   8.089   3.150   0.713
 4363W        W 8107   9.120   8.602   0.306
 4364W        W 8108   3.608   4.230   2.733
 4365W        W 8109   0.524   1.340   1.362
 4366W        W 8110   1.001   6.145  10.353
 4367W        W 8111   9.342   4.935  11.406
 4368W        W 8112   0.839   9.632   1.867
 4369W        W 8113   0.392   9.866   3.197
 4370W        W 8114   2.713   4.701  11.742
 4371W        W 8115   5.257   7.679   0.493
 4372W        W 8116   9.353   9.533   1.013
 4373W        W 8117   2.802   3.654   9.619
 4374W        W 8118   1.756   2.934   1.225
 4375W        W 8119   1.370   2.734   0.965
 4376W        W 8120   4.672   0.076   9.049
 4377W        W 8121   9.842   3.550   0.230
 4378W        W 8122   2.799   7.183   1.855
 4379W        W 8123   1.152   2.825  11.224
 4380W        W 8124   1.854   9.532   1.466
 4381W        W 8125   7.610   2.322   1.403
 4382W        W 8126   4.943   2.231  10.968
 4383W        W 8127  10.235   8.048   0.938
 4384W        W 8128   8.369   7.095   3.635
 4385W        W 8129   5.925   3.954   0.271
 4386W        W 8130   7.512   8.452   0.978
 4387W        W 8131   3.714   4.508   3.580
 4388W        W 8132   9.029   5.504  10.770
 4389W        W 8133   0.539   5.744  11.525
 4390W        W 8134   6.095   2.867   0.176
 4391W        W 8135   1.627   4.134  10.267
 4392W        W 8136   4.349   2.192   1.902
 4393W        W 8137   3.399  10.068   9.534
 4394W        W 8138   3.828   2.635   1.410
 4395W        W 8139   9.703   0.180  11.772
 4396W        W 8140   9.888   8.842   3.015
 4397W        W 8141   5.480   7.249   1.970
 4398W        W 8142   2.109   3.965  10.226
 4399W        W 8143   7.987   5.619   0.333
 4400W        W 8144   2.341   7.868  10.597
 4401W        W 8145   2.266   5.530  10.462
 4402W        W 8146   8.609   5.768   2.228
 4403W        W 8147   4.869   0.787   3.133
 4404W        W 8148   0.432   2.215   3.110
 4405W        W 8149   8.175   4.732   0.679
 4406W        W 8150   3.688   1.427   1.984
 4407W        W 8151   0.899   0.037   3.515
 4408W        W 8152   8.121   8.497   2.115
 4409W        W 8153   2.831   4.526   2.409
 4410W        W 8154   0.754   3.113   0.291
 4411W        W 8155   2.806   3.770   2.845
 4412W        W 8156   9.516   9.007   2.326
 4413W        W 8157   8.691   6.726   2.366
 4414W        W 8158   6.431   4.143   9.185
 4415W        W 8159   7.239   9.250   8.749
 4416W        W 8160   9.958   5.091   9.591
 4417W        W 8161   3.166  10.484   2.745
 4418W        W 8162   6.883   5.511   2.545
 4419W        W 8163   3.645   1.305   2.962
 4420W        W 8164   3.822   9.029   9.045
 4421W        W 8165   6.976   3.169   1.702
 4422W        W 8166   0.801   8.956   9.913
 4423W        W 8167   3.408   3.116  11.534
 4424W        W 8168   4.033   7.536   1.767
 4425W        W 8169   0.339   6.618   1.813
 4426W        W 8170   9.390   4.401  11.351
 4427W        W 8171   3.192   5.359   0.410
 4428W        W 8172   6.242   3.950   3.538
 4429W        W 8173   4.716   7.090   0.140
 4430W        W 8174   4.726   3.502  11.954
 4431W        W 8175   5.624   1.759   9.006
 4432W        W 8176   8.840   4.754   3.426
 4433W        W 8177   1.386   5.226   9.809
 4434W        W 8178   8.385   3.246   9.728
 4435W        W 8179   7.938   9.118  11.070
 4436W        W 8180   0.812   1.214   2.799
 4437W        W 8181   3.325   8.844   9.272
 4438W        W 8182   7.562   2.005   0.675
 4439W        W 8183   7.509   8.268   8.548
 4440W        W 8184   7.456   7.881   0.447
 4441W        W 8185   8.506   6.556  10.465
 4442W        W 8186   0.669   6.856   9.386
 4443W        W 8187   5.639   5.065   9.333
 4444W        W 8188   5.966   1.280   3.211
 4445W        W 8189   5.074   0.816   8.726
 4446W        W 8190   5.627   0.022   3.490
 4447W        W 8191   5.976   7.353   0.953
 4448W        W 8192   1.248   9.955   1.823
 4449W        W 8193   6.908   5.171   2.942
 4450W        W 8194   7.939   9.742   9.799
 4451W        W 8195   6.393   6.940   0.519
 4452W        W 8196   9.526   9.969   8.946
 4453W        W 8197   9.794   4.680  11.446
 4454W        W 8198   5.927   2.797   3.279
 4455W        W 8199   4.654  10.085   8.860
 4456W        W 8200   4.429   3.657   8.609
 4457W        W 8201   8.984   6.587   3.138
 4458W        W 8202   4.691   6.915   2.645
 4459W        W 8203   2.691   7.484   3.407
 4460W        W 8204   5.659   0.782   0.324
 4461W        W 8205   3.360   5.951   4.054
 4462W        W 8206   9.705   5.699   1.381
 4463W        W 8207   1.784   4.614  10.206
 4464W        W 8208   9.175   9.801  11.168
 4465W        W 8209   7.927   8.946   2.325
 4466W        W 8210   7.026   2.182   9.340
 4467W        W 8211   4.784   1.768   0.502
 4468W        W 8212   4.801   7.329   2.958
 4469W        W 8213   1.360   1.262   9.381
 4470W        W 8214   9.842  10.491   1.752
 4471W        W 8215  10.296   5.135   8.690
 4472W        W 8216   7.630   6.572   9.552
 4473W        W 8217   2.210   2.218   0.144
 4474W        W 8218   8.469   2.899   0.348
 4475W        W 8219   8.306   6.539   0.584
 4476W        W 8220   5.624   5.677   2.752
 4477W        W 8221   5.171   4.361  10.350
 4478W        W 8222   6.442   2.173   8.905
 4479W        W 8223   3.274   9.110   0.797
 4480W        W 8224   4.327   3.387  10.394
 4481W        W 8225   4.878   1.548   1.202
 4482W        W 8226   7.529   1.835  11.814
 4483W        W 8227   8.105   3.977   3.605
 4484W        W 8228   3.633   2.723   9.534
 4485W        W 8229   2.807   4.328  11.407
 4486W        W 8230   9.399   1.835   9.093
 4487W        W 8231   3.407   4.435   4.009
 4488W        W 8232   9.268   3.278  10.334
 4489W        W 8233   7.769   3.224  10.975
 4490W        W 8234   1.377   5.602   1.966
 4491W        W 8235   1.860   8.178   2.259
 4492W        W 8236   7.915   3.702  10.797
 4493W        W 8237   5.281   4.666   2.694
 4494W        W 8238   1.866   7.122   0.045
 4495W        W 8239   6.931   1.297   1.262
 4496W        W 8240   5.442   7.439  11.683
 4497W        W 8241   1.759   4.600   9.181
 4498W        W 8242   8.638   4.176  10.035
 4499W        W 8243   5.153   8.013  11.352
 4500W        W 8244  10.226   6.679   2.891
 4501W        W 8245   4.717  10.170   1.204
 4502W        W 8246  10.256   7.281   2.154
 4503W        W 8247   4.604   3.258   0.563
 4504W        W 8248   1.900   4.751   2.839
 4505W        W 8249   0.184   7.455   3.290
 4506W        W 8250   3.941   9.909  11.903
 4507W        W 8251   8.100   8.250   1.675
 4508W        W 8252   9.362   7.189   8.696
 4509W        W 8253   3.151   0.912   9.319
 4510W        W 8254   1.966   3.249   0.547
 4511W        W 8255   5.917   2.113   9.637
 4512W        W 8256   5.239   7.535   8.524
 4513W        W 8257   6.778   8.899  11.452
 4514W        W 8258   9.065   3.199   3.388
 4515W        W 8259  10.101   2.211   1.138
 4516W        W 8260   1.363   7.121   0.907
 4517W        W 8261   8.633   2.174   8.789
 4518W        W 8262   7.313   2.202   1.798
 4519W        W 8263   8.516   0.244   1.247
 4520W        W 8264  10.358   0.864   9.192
 4521W        W 8265   0.781   2.962   3.666
 4522W        W 8266   9.892   6.648   3.313
 4523W        W 8267   3.835   5.680   2.692
 4524W        W 8268   8.467  10.205   1.858
 4525W        W 8269   8.622   4.161  10.947
 4526W        W 8270   4.163   9.861   8.876
 4527W        W 8271   1.142   2.326   2.187
 4528W        W 8272   6.919   7.595   8.920
 4529W        W 8273   1.443   3.124   9.578
 4530W        W 8274   2.798  10.409  11.068
 4531W        W 8275   8.251   5.971  10.442
 4532W        W 8276   6.683   1.550   1.689
 4533W        W 8277   3.807   8.611  10.434
 4534W        W 8278   4.244   0.331   0.724
 4535W        W 8279   2.471   7.655  11.023
 4536W        W 8280   3.218   2.999   2.887
 4537W        W 8281   1.767   0.213   2.081
 4538W        W 8282   8.525   6.010   8.685
 4539W        W 8283   7.501   2.163   0.206
 4540W        W 8284   6.937   7.442  11.702
 4541W        W 8285   3.299   6.528   9.956
 4542W        W 8286   6.047   3.789  11.746
 4543W        W 8287   2.076   4.763  11.161
 4544W        W 8288   2.416   5.095   1.917
 4545W        W 8289   3.234   7.901  10.375
 4546W        W 8290   0.733   7.896   0.532
 4547W        W 8291  10.244   7.029  10.300
 4548W        W 8292   2.027   5.031   9.475
 4549W        W 8293   4.639   5.083   1.099
 4550W        W 8294   2.311   0.702  11.504
 4551W        W 8295   4.073   9.089   2.590
 4552W        W 8296   7.132   9.313   9.770
 4553W        W 8297   9.860   6.135   3.360
 4554W        W 8298   9.710  10.447   9.078
 4555W        W 8299   7.481   7.456   8.939
 4556W        W 8300   5.709   4.163  11.850
 4557W        W 8301   6.573   7.589   3.184
 4558W        W 8302  10.091   5.603  11.307
 4559W        W 8303   8.980   8.863   2.824
 4560W        W 8304   2.365   3.653  10.544
 4561W        W 8305   5.650   0.319   2.248
 4562W        W 8306   0.240  10.432  11.706
 4563W        W 8307  10.354   1.652   3.437
 4564W        W 8308   0.308   0.141   0.702
 4565W        W 8309   3.283   3.803   1.679
 4566W        W 8310   7.120   9.026  10.450
 4567W        W 8311   7.367   7.156   1.153
 4568W        W 8312   4.600   6.175   2.747
 4569W        W 8313   8.671   6.970  11.398
 4570W        W 8314   5.972   8.610  11.031
 4571W        W 8315   1.231   3.186   1.152
 4572W        W 8316   8.202   9.397   2.261
 4573W        W 8317   6.483   4.073   0.338
 4574W        W 8318   3.178   9.839   1.939
 4575W        W 8319   2.655   7.660   9.061
 4576W        W 8320   0.710   4.333  11.717
 4577W        W 8321   4.223   9.095  11.583
 4578W        W 8322   7.957   7.592   9.135
 4579W        W 8323   3.287   1.259  11.980
 4580W        W 8324   8.126   6.652   8.761
 4581W        W 8325   3.550   1.410  11.551
 4582W        W 8326   3.926   9.615  10.283
 4583W        W 8327   1.670   2.761  11.298
 4584W        W 8328   5.374   9.559   2.503
 4585W        W 8329   9.226  10.320   9.261
 4586W        W 8330   7.280   8.488   0.277
 4587W        W 8331   8.020  10.122   0.858
 4588W        W 8332   9.520   2.810  10.386
 4589W        W 8333   5.118   0.350  10.119
 4590W        W 8334   7.344   8.533   2.288
 4591W        W 8335   7.145   5.041   2.504
 4592W        W 8336   3.108  10.432  10.448
 4593W        W 8337   2.442   3.305   9.779
 4594W        W 8338   2.444   5.569   2.709
 4595W        W 8339   7.868   5.537   3.505
 4596W        W 8340  10.420   6.565   3.392
 4597W        W 8341   7.802   8.782  11.441
 4598W        W 8342   7.852   3.170   2.613
 4599W        W 8343   2.313   0.242   0.362
 4600W        W 8344   0.806   3.962   0.701
 4601W        W 8345   3.862   4.080  10.025
 4602W        W 8346   1.355   6.511  11.544
 4603W        W 8347   6.695   2.310   1.219
 4604W        W 8348   1.225   1.539  11.696
 4605W        W 8349   2.212   9.985   3.453
 4606W        W 8350   9.481   7.049   0.481
 4607W        W 8351   1.343   2.319   1.720
 4608W        W 8352  10.319   9.241   0.430
 4609W        W 8353   0.150   1.746   3.037
 4610W        W 8354   4.668   3.619  11.473
 4611W        W 8355   5.083   1.754   9.762
 4612W        W 8356   7.701   3.591   1.603
 4613W        W 8357   1.162   0.577  11.913
 4614W        W 8358   5.416   7.950   9.106
 4615W        W 8359   9.542   2.290   8.858
 4616W        W 8360   2.238   6.697   3.316
 4617W        W 8361   2.741   7.064  11.642
 4618W        W 8362   6.121   6.562   2.399
 4619W        W 8363   4.464   4.368   0.203
 4620W        W 8364   6.885   0.676   2.579
 4621W        W 8365   5.233   3.024   1.612
 4622W        W 8366   1.314   2.386   2.731
 4623W        W 8367   0.160   5.187   0.552
 4624W        W 8368   7.043   2.698   9.521
 4625W        W 8369   3.582   6.382   3.117
 4626W        W 8370   0.082   7.955   9.391
 4627W        W 8371   1.450   8.881   1.387
 4628W        W 8372   1.685   4.047   0.170
 4629W        W 8373   6.686   7.495  10.761
 4630W        W 8374  10.036   2.655   8.869
 4631W        W 8375  10.035  10.027   8.786
 4632W        W 8376   8.968   9.623  10.303
 4633W        W 8377   3.659   3.107   0.940
 4634W        W 8378   0.871   4.083   9.934
 4635W        W 8379   2.329   4.251  11.231
 4636W        W 8380   1.888   6.406   1.106
 4637W        W 8381   9.061   5.013   1.961
 4638W        W 8382   0.728   1.369  11.542
 4639W        W 8383   3.295   9.267   9.003
 4640W        W 8384   5.408   7.588  11.194
 4641W        W 8385   6.955   2.352  11.198
 4642W        W 8386   5.412   8.547   2.422
 4643W        W 8387   9.343  10.275  11.322
 4644W        W 8388   3.805   1.370   2.475
 4645W        W 8389   5.463   3.607   8.172
 4646W        W 8390   6.466   9.536   2.369
 4647W        W 8391   2.854   3.221   2.103
 4648W        W 8392   5.723   8.815   3.562
 4649W        W 8393   8.534   6.101  11.304
 4650W        W 8394   1.025   1.356   0.411
 4651W        W 8395  10.474   9.610   0.107
 4652W        W 8396   0.223   1.115  10.264
 4653W        W 8397   3.973   6.611   1.958
 4654W        W 8398   3.414   5.195   1.939
 4655W        W 8399   2.747   7.196  10.315
 4656W        W 8400   6.269   1.717   1.129
 4657W        W 8401   6.640   9.083   3.236
 4658W        W 8402   4.101   9.180   0.196
 4659W        W 8403   2.338   1.252   9.589
 4660W        W 8404   4.277   0.349  11.707
 4661W        W 8405   7.455   4.967   4.072
 4662W        W 8406   7.808  10.236   9.061
 4663W        W 8407   0.679   6.827   0.301
 4664W        W 8408   8.053   6.128  11.515
 4665W        W 8409   6.229   7.002  11.959
 4666W        W 8410   7.168   1.404  10.285
 4667W        W 8411   0.796   2.605   0.342
 4668W        W 8412   0.937   4.781  10.445
 4669W        W 8413   9.434   8.981  10.671
 4670W        W 8414   6.066   2.863  11.241
 4671W        W 8415   3.195   1.906   2.683
 4672W        W 8416   6.446   5.472  11.295
 4673W        W 8417   3.896   3.152  10.283
 4674W        W 8418   2.858   8.282   0.902
 4675W        W 8419   4.532   3.176   8.421
 4676W        W 8420   4.570   4.104   8.384
 4677W        W 8421   8.010   6.070  11.006
 4678W        W 8422   8.212   7.444  11.915
 4679W        W 8423   8.155   1.175   9.645
 4680W        W 8424   9.366   6.289   2.479
 4681W        W 8425   7.424   3.606   9.377
 4682W        W 8426   1.207   8.894   9.080
 4683W        W 8427   0.696   4.353  11.212
 4684W        W 8428   8.355   8.950   2.022
 4685W        W 8429   7.837   0.911   0.239
 4686W        W 8430  10.465   7.088   2.646
 4687W        W 8431   4.006   1.659   0.840
 4688W        W 8432   4.385   3.993   4.038
 4689W        W 8433   8.676   9.944   0.522
 4690W        W 8434   9.440   3.283   8.948
 4691W        W 8435   0.206   1.435   0.284
 4692W        W 8436   8.398   4.780   1.169
 4693W        W 8437   3.238   9.387   1.663
 4694W        W 8438   2.533   9.095   8.596
 4695W        W 8439   5.161   6.968   2.870
 4696W        W 8440   9.558   1.048   9.462
 4697W        W 8441   4.093   8.736  11.941
 4698W        W 8442   7.633   3.069  11.458
 4699W        W 8443   6.335   6.934   1.015
 4700W        W 8444   5.267   8.043   1.781
 4701W        W 8445   0.057   6.873   2.195
 4702W        W 8446   9.691   5.951   0.929
 4703W        W 8447   3.650   4.363  11.548
 4704W        W 8448   9.869   3.874  11.826
 4705W        W 8449   4.637   2.677   8.300
 4706W        W 8450   7.714   5.426   9.921
 4707W        W 8451   7.612   7.893  11.574
 4708W        W 8452   8.374  10.223  11.299
 4709W        W 8453   0.926   2.115  10.979
 4710W        W 8454   7.566   6.058   1.743
 4711W        W 8455   4.879   8.179   1.383
 4712W        W 8456   4.055   1.615   3.160
 4713W        W 8457   1.622   0.317  11.721
 4714W        W 8458   4.176   5.748   1.838
 4715W        W 8459   7.479   1.776  10.985
 4716W        W 8460   7.735   6.341  10.021
 4717W        W 8461   7.067   3.266   8.421
 4718W        W 8462   3.708   6.033   9.925
 4719W        W 8463   1.370   2.895  10.318
 4720W        W 8464   2.384   8.366   0.050
 4721W        W 8465   8.119   7.629   0.812
 4722W        W 8466   3.609   6.389   2.250
 4723W        W 8467   2.671   6.474   3.138
 4724W        W 8468   5.276   0.419  11.400
 4725W        W 8469   0.381   8.436   2.368
 4726W        W 8470   3.728   2.333  10.870
 4727W        W 8471   5.111   8.482   1.978
 4728W        W 8472   5.212   0.346   2.511
 4729W        W 8473   4.201   5.618   9.768
 4730W        W 8474   3.751   5.456  10.637
 4731W        W 8475   0.467   2.957   2.657
 4732W        W 8476   9.292   4.363   2.916
 4733W        W 8477   2.230   6.184   3.282
 4734W        W 8478   8.997   4.567  11.597
 4735W        W 8479   7.032   5.203  11.041
 4736W        W 8480   8.003   5.507  11.820
 4737W        W 8481   2.624   9.951  11.413
 4738W        W 8482  10.113  10.238   3.563
 4739W        W 8483   9.017   9.874   9.043
 4740W        W 8484   4.655  10.045   2.192
 4741W        W 8485   5.558   9.381  11.245
 4742W        W 8486   3.156   8.635  10.972
 4743W        W 8487   9.574   6.570   0.652
 4744W        W 8488   2.628  10.460  10.568
 4745W        W 8489   2.138   2.579   1.111
 4746W        W 8490   6.986   1.415   2.907
 4747W        W 8491   8.405   9.387   1.765
 4748W        W 8492   4.780   4.481  10.003
 4749W        W 8493   9.380   7.933   1.485
 4750W        W 8494   3.549   7.951   9.968
 4751W        W 8495   5.964   4.188   1.711
 4752W        W 8496   9.861   2.988  11.565
 4753W        W 8497   6.882   3.223  10.789
 4754W        W 8498   8.908   9.936   8.540
 4755W        W 8499  10.367   6.128  10.289
 4756W        W 8500   2.297   0.337   0.899
 4757W        W 8501   0.709   6.001  11.927
 4758W        W 8502   6.015   5.207  11.130
 4759W        W 8503  10.320   3.665   9.865
 4760W        W 8504   5.761   8.943  11.467
 4761W        W 8505   9.917   6.388  10.035
 4762W        W 8506   4.894   1.166  11.746
 4763W        W 8507   9.919   4.386  11.914
 4764W        W 8508   8.888   7.176   9.468
 4765W        W 8509   4.725   0.379   0.547
 4766W        W 8510   7.416   5.286   3.086
 4767W        W 8511   3.921  10.080   9.586
 4768W        W 8512   8.756   0.917  10.973
 4769W        W 8513   1.395   5.510   1.415
 4770W        W 8514   6.660   1.499   0.839
 4771W        W 8515   0.958   7.689   1.368
 4772W        W 8516  10.279   7.519  11.448
 4773W        W 8517   3.609   9.907   2.684
 4774W        W 8518   5.911   2.420   0.923
 4775W        W 8519   2.155   4.031  11.664
 4776W        W 8520   3.133   8.072   1.409
 4777W        W 8521   1.302   2.823   2.444
 4778W        W 8522   7.046   8.427   2.914
 4779W        W 8523   2.242   3.052   0.951
 4780W        W 8524   7.881   9.944   0.295
 4781W        W 8525   7.018   8.591  10.155
 4782W        W 8526   6.129   8.843   0.795
 4783W        W 8527   9.439   3.784   8.748
 4784W        W 8528   3.230   3.614   2.156
 4785W        W 8529   8.513   9.761  11.943
 4786W        W 8530   5.699   8.531  10.438
 4787W        W 8531   9.073   9.308   2.517
 4788W        W 8532   2.555   0.942  11.911
 4789W        W 8533   1.241  10.291   3.204
 4790W        W 8534   5.634   5.974   2.330
 4791W        W 8535   1.482   8.142  10.522
 4792W        W 8536   9.503   4.570   1.502
 4793W        W 8537   5.951   8.432   2.333
 4794W        W 8538   5.868   8.890   0.345
 4795W        W 8539   4.280   1.885   0.470
 4796W        W 8540   6.074   9.834   9.127
 4797W        W 8541   8.886   1.207   0.792
 4798W        W 8542   4.652   4.991   2.135
 4799W        W 8543   6.704   1.143  10.562
 4800W        W 8544   3.379   3.184   9.076
 4801W        W 8545   8.146   9.343   8.792
 4802W        W 8546   3.745   2.312  10.334
 4803W        W 8547   7.405   7.073   2.163
 4804W        W 8548   8.974   3.741   3.375
 4805W        W 8549   5.064   9.453  11.244
 4806W        W 8550   7.395  10.296   8.257
 4807W        W 8551   0.762   3.823   1.189
 4808W        W 8552   5.462   6.860  10.132
 4809W        W 8553   2.949   7.702  11.095
 4810W        W 8554   9.865   0.312   9.513
 4811W        W 8555   6.792   3.708   0.133
 4812W        W 8556   4.994   7.409   1.833
 4813W        W 8557   9.406   6.034   3.565
 4814W        W 8558   7.470   9.814   2.540
 4815W        W 8559  10.128   8.470  11.396
 4816W        W 8560   5.503   2.186   9.326
 4817W        W 8561   3.333   5.503   2.385
 4818W        W 8562   1.452   4.648   3.175
 4819W        W 8563   7.769   5.644   9.451
 4820W        W 8564   0.692   8.317  10.365
 4821W        W 8565  10.294   1.148   0.415
 4822W        W 8566   4.749   9.623   0.137
 4823W        W 8567   8.874   6.390  10.159
 4824W        W 8568   0.270  10.165   0.895
 4825W        W 8569   6.393   2.715   8.998
 4826W        W 8570   4.974   6.620  11.773
 4827W        W 8571   2.636   7.652   9.581
 4828W        W 8572   5.577   0.794   9.542
 4829W        W 8573   9.979   7.397  11.002
 4830W        W 8574   6.785   4.216   8.812
 4831W        W 8575  10.345   9.533  11.617
 4832W        W 8576   3.145   8.102   3.082
 4833W        W 8577   8.502   9.762   8.823
 4834W        W 8578   3.225   5.491  11.509
 4835W        W 8579   0.558   7.661   2.674
 4836W        W 8580   9.345   5.356   2.739
 4837W        W 8581   3.369   9.399  10.448
 4838W        W 8582   7.806   2.023   8.454
 4839W        W 8583   5.479   6.698  11.545
 4840W        W 8584   6.900   6.958   9.460
 4841W        W 8585   0.393   1.588   0.927
 4842W        W 8586  10.220   0.690   1.865
 4843W        W 8587   1.869   8.621   1.314
 4844W        W 8588   3.083   5.196   3.607
 4845W        W 8589   3.809   1.866  10.588
 4846W        W 8590   0.879   9.446  10.850
 4847W        W 8591   0.142   0.435   9.993
 4848W        W 8592   4.280   1.678  12.000
 4849W        W 8593   5.450   7.776   9.962
 4850W        W 8594   0.420   8.758  10.489
 4851W        W 8595   7.139   5.966  11.556
 4852W        W 8596   0.361   9.481  10.828
 4853W        W 8597   3.552   0.732   3.092
 4854W        W 8598   0.108   8.269   1.230
 4855W        W 8599   4.156   5.545  11.051
 4856W        W 8600   9.841   1.603   3.320
 4857W        W 8601   7.613   2.741  10.876
 4858W        W 8602   5.571   3.138   0.706
 4859W        W 8603   3.199   2.989   0.708
 4860W        W 8604   3.610   4.900  11.714
 4861W        W 8605   2.351   9.513   3.257
 4862W        W 8606   5.706   3.419  10.302
 4863W        W 8607   0.767   9.762  11.744
 4864W        W 8608   8.527   2.865  10.996
 4865W        W 8609   4.815   2.548   0.246
 4866W        W 8610   9.925   3.827   3.218
 4867W        W 8611   5.496   1.393   3.431
 4868W        W 8612   4.191   5.004   3.005
 4869W        W 8613   3.622   8.131   2.569
 4870W        W 8614   0.849  10.421   9.038
 4871W        W 8615   7.495   0.908   1.989
 4872W        W 8616   9.360   8.782   3.236
 4873W        W 8617  10.157   9.877  11.300
 4874W        W 8618   0.452   3.922   9.691
 4875W        W 8619   1.274   1.424   2.804
 4876W        W 8620   0.981   7.507   0.908
 4877W        W 8621   5.625   3.826  11.449
 4878W        W 8622   7.086   8.317   0.721
 4879W        W 8623   3.829   0.414  11.980
 4880W        W 8624   6.023   0.192  10.387
 4881W        W 8625   6.308   5.146   1.331
 4882W        W 8626   7.900   2.358  11.040
 4883W        W 8627   8.918   0.954  10.334
 4884W        W 8628   3.611   5.260   0.699
 4885W        W 8629   3.740   7.900  10.951
 4886W        W 8630   4.941   9.379   2.196
 4887W        W 8631   1.108   4.122   9.481
 4888W        W 8632   4.173   9.252   2.113
 4889W        W 8633   6.518   6.504   0.272
 4890W        W 8634   7.016   3.033  10.337
 4891W        W 8635   3.113  10.288   0.369
 4892W        W 8636   4.933   4.229   0.385
 4893W        W 8637   5.181  10.445   9.244
 4894W        W 8638   0.839   2.421   1.265
 4895W        W 8639   0.503   3.469  11.440
 4896W        W 8640   2.419   9.051   3.020
 4897W        W 8641   0.658   2.189   2.247
 4898W        W 8642   5.398   0.296   1.271
 4899W        W 8643   0.165   2.248   9.834
 4900W        W 8644   0.016   3.120   3.415
 4901W        W 8645   6.270   4.740  10.749
 4902W        W 8646   4.378   5.369  11.642
 4903W        W 8647   2.417   0.270   1.408
 4904W        W 8648   3.803   2.148   0.858
 4905W        W 8649   2.886   8.544   0.332
 4906W        W 8650   6.590   3.246   2.312
 4907W        W 8651   2.421   7.928   1.609
 4908W        W 8652   9.699   7.496   3.239
 4909W        W 8653   8.107   5.500  10.265
 4910W        W 8654   2.414   2.170   3.353
 4911W        W 8655   1.883   1.165   2.964
 4912W        W 8656   4.406   0.301  10.318
 4913W        W 8657   9.401   6.230   1.970
 4914W        W 8658   4.798   1.755  11.977
 4915W        W 8659   9.137   9.905   0.738
 4916W        W 8660   6.423   7.240   1.402
 4917W        W 8661   3.782   5.661   0.941
 4918W        W 8662   8.394   5.687  11.025
 4919W        W 8663   6.640   8.780   9.383
 4920W        W 8664   0.494   3.104  11.857
 4921W        W 8665   3.737   6.496   0.947
 4922W        W 8666   0.886   5.784  11.148
 4923W        W 8667   9.561   3.111   3.299
 4924W        W 8668   7.582   4.517   1.805
 4925W        W 8669   9.585   0.628   9.805
 4926W        W 8670   0.302   8.972  10.027
 4927W        W 8671   7.543   8.458  10.930
 4928W        W 8672   1.834   5.422   9.181
 4929W        W 8673   1.737   3.623   2.300
 4930W        W 8674   5.194   0.178  11.857
 4931W        W 8675   1.891   5.604   2.699
 4932W        W 8676   7.640   6.986  11.426
 4933W        W 8677   8.374   1.894   3.226
 4934W        W 8678  10.334   5.136  11.116
 4935W        W 8679   2.319   7.344  10.613
 4936W        W 8680   9.010   1.977   1.706
 4937W        W 8681   5.993   3.303  11.915
 4938W        W 8682   7.163   2.120   1.268
 4939W        W 8683   4.584   2.240   9.040
 4940W        W 8684   6.118  10.376  11.337
 4941W        W 8685   2.628  10.258   2.188
 4942W        W 8686   3.352   7.869  11.328
 4943W        W 8687   4.333   6.249   1.967
 4944W        W 8688   1.541   7.881   3.600
 4945W        W 8689   9.846   0.886   9.052
 4946W        W 8690   4.591   8.842   0.827
 4947W        W 8691   2.790   8.382  11.749
 4948W        W 8692   7.985   0.225   1.983
 4949W        W 8693   3.208   5.718   3.604
 4950W        W 8694   0.267   6.710   2.886
 4951W        W 8695   7.317   2.612   9.103
 4952W        W 8696   5.462   3.927   3.959
 4953W        W 8697   1.922   0.380   1.305
 4954W        W 8698   4.280   6.371  11.469
 4955W        W 8699   9.068   2.679  11.756
 4956W        W 8700   0.516   4.645   9.089
 4957W        W 8701   0.028   7.507   0.612
 4958W        W 8702   7.715   1.618  11.406
 4959W        W 8703   3.540   4.862   9.079
 4960W        W 8704   8.940   1.336   3.012
 4961W        W 8705   1.883   3.371   8.915
 4962W        W 8706   2.681   0.746   9.413
 4963W        W 8707   7.117   9.793   3.123
 4964W        W 8708   4.220  10.344   1.283
 4965W        W 8709   8.381   0.513   2.144
 4966W        W 8710   2.367   7.240   2.180
 4967W        W 8711   9.232   6.525  11.622
 4968W        W 8712  10.378   8.917  11.386
 4969W        W 8713   4.081   0.832  11.786
 4970W        W 8714   2.225   3.806   2.168
 4971W        W 8715   3.145   5.700   8.764
 4972W        W 8716   0.480   5.954   9.495
 4973W        W 8717   0.828   6.645   3.367
 4974W        W 8718   5.641   2.353   1.378
 4975W        W 8719   2.107   0.197   8.998
 4976W        W 8720   9.001   9.947   0.052
 4977W        W 8721   0.928   6.598   9.791
 4978W        W 8722  10.477   6.590   1.060
 4979W        W 8723   9.458   4.628  11.854
 4980W        W 8724   5.940   6.061  11.041
 4981W        W 8725   6.615   5.032   1.724
 4982W        W 8726   8.497   7.916  11.474
 4983W        W 8727   5.659   0.251   2.764
 4984W        W 8728   6.116   1.796   3.241
 4985W        W 8729   0.797   3.088   3.183
 4986W        W 8730   6.587  10.243  10.608
 4987W        W 8731   5.545   3.826   9.945
 4988W        W 8732   9.893   8.213   2.358
 4989W        W 8733   5.989   6.411   2.885
 4990W        W 8734   5.065  10.317   0.836
 4991W        W 8735   5.566   1.754  11.026
 4992W        W 8736   5.256   8.892   8.870
 4993W        W 8737   8.305   0.504  10.911
 4994W        W 8738   5.074   8.852   9.853
 4995W        W 8739   8.849   1.868  11.158
 4996W        W 8740   3.157  10.066   2.417
 4997W        W 8741   9.568   0.994  10.479
 4998W        W 8742   1.634   7.180   1.367
 4999W        W 8743   5.726   7.563   8.350
 5000W        W 8744   4.729   4.118  11.400
 5001W        W 8745   1.240  10.244   1.399
 5002W        W 8746   3.526  10.457   0.736
 5003W        W 8747   6.568   9.108   2.598
 5004W        W 8748   5.888  10.394   3.063
 5005W        W 8749   4.867   8.298   8.529
 5006W        W 8750   2.641   1.592   1.804
 5007W        W 8751   1.891   2.600   0.267
 5008W        W 8752   1.695   8.908   0.888
 5009W        W 8753   2.223   8.498   9.902
 5010W        W 8754   7.577   6.025  11.292
 5011W        W 8755   8.920   3.734  10.053
 5012W        W 8756   0.934   6.525  10.707
 5013W        W 8757   5.166   8.540   3.291
 5014W        W 8758   4.562   3.259   2.269
 5015W        W 8759   7.650   6.501   8.552
 5016W        W 8760   0.255   4.259  10.949
 5017W        W 8761   0.422   3.408   9.589
 5018W        W 8762   5.512   8.532  11.311
 5019W        W 8763   5.287   1.158   2.001
 5020W        W 8764   6.442   6.795   3.616
 5021W        W 8765   4.239   3.862   3.201
 5022W        W 8766   5.235   1.874  11.728
 5023W        W 8767   1.791   8.192   2.791
 5024W        W 8768   6.443   7.823   9.053
 5025W        W 8769   8.826   5.228   2.793
 5026W        W 8770  10.323   8.794  10.537
 5027W        W 8771   0.671   9.851   0.746
 5028W        W 8772   1.201  10.476   2.678
 5029W        W 8773   7.976   2.484  11.527
 5030W        W 8774   5.143   7.713   2.203
 5031W        W 8775   2.769   6.389   9.420
 5032W        W 8776   2.826   0.312   2.493
 5033W        W 8777   7.465   2.075   2.597
 5034W        W 8778   5.136   9.400   8.993
 5035W        W 8779   1.359   4.824   8.874
 5036W        W 8780   9.489   3.829   2.073
 5037W        W 8781   1.383   7.613  10.318
 5038W        W 8782   9.461   8.545  10.886
 5039W        W 8783   5.111   3.017   9.912
 5040W        W 8784   9.812   5.022   9.053
 5041W        W 8785   0.675   4.361   9.508
 5042W        W 8786   7.831   0.889   9.365
 5043W        W 8787   8.914   7.997   0.722
 5044W        W 8788   9.873   1.349  11.694
 5045W        W 8789  10.499   7.856  10.450
 5046W        W 8790   3.143   1.491   3.000
 5047W        W 8791   8.639   8.700  11.017
 5048W        W 8792  10.428   7.661  11.938
 5049W        W 8793   4.261   7.244  11.942
 5050W        W 8794   5.343   2.392   0.160
 5051W        W 8795   0.270   2.561  11.293
 5052W        W 8796   6.195   8.354   0.903
 5053W        W 8797   6.973   6.869   1.947
 5054W        W 8798   4.794   1.313   0.230
 5055W        W 8799   3.250   8.199   0.034
 5056W        W 8800   0.464   4.677   3.049
 5057W        W 8801   4.728   0.288   1.069
 5058W        W 8802   2.156   0.662  11.021
 5059W        W 8803   9.792   3.135   0.554
 5060W        W 8804   0.565   8.879   2.575
 5061W        W 8805   6.126   2.415   0.455
 5062W        W 8806   2.636   9.088  11.504
 5063W        W 8807   5.703   6.353   0.432
 5064W        W 8808   0.199   7.901  10.913
 5065W        W 8809   0.956   9.935  10.909
 5066W        W 8810   6.128   9.362   2.709
 5067W        W 8811   6.980   6.992   3.002
 5068W        W 8812  10.313   6.255  11.750
 5069W        W 8813   3.267   7.355  11.271
 5070W        W 8814   1.689   1.274   2.501
 5071W        W 8815   0.385   2.658   2.223
 5072W        W 8816   7.440   0.424   0.751
 5073W        W 8817  10.062   7.399   2.622
 5074W        W 8818   8.925   3.802   1.258
 5075W        W 8819   6.955   9.594   8.995
 5076W        W 8820   1.211   0.423  10.896
 5077W        W 8821   6.732   4.183   3.596
 5078W        W 8822   9.800   6.678  10.445
 5079W        W 8823   9.753   3.121   2.447
 5080W        W 8824   1.889   9.453   0.842
 5081W        W 8825   9.985   2.728  10.598
 5082W        W 8826   0.918  10.483  10.074
 5083W        W 8827   6.156   0.156   3.507
 5084W        W 8828   9.353   8.048   0.472
 5085W        W 8829   1.803  10.257  10.008
 5086W        W 8830   3.081   4.954  10.389
 5087W        W 8831   2.570   9.438  10.234
 5088W        W 8832   3.638   4.120  10.514
 5089W        W 8833   2.395   8.584   0.944
 5090W        W 8834   6.100   3.914   2.188
 5091W        W 8835   3.206   8.104  10.892
 5092W        W 8836  10.151   9.431   3.463
 5093W        W 8837   3.721   1.373   8.754
 5094W        W 8838   5.996   5.506   2.429
 5095W        W 8839   5.986   3.252   1.429
 5096W        W 8840   4.102   6.084  11.087
 5097W        W 8841   4.733   8.961  11.513
 5098W        W 8842   2.167   4.448   9.458
 5099W        W 8843   7.431   3.716   8.513
 5100W        W 8844   4.773   7.388   2.404
 5101W        W 8845   8.396   5.526   2.640
 5102W        W 8846   5.032   8.858  11.914
 5103W        W 8847   7.093   3.197   9.400
 5104W        W 8848   0.383   7.890   3.194
 5105W        W 8849   4.359   2.782  11.378
 5106W        W 8850   9.888   3.204   1.457
 5107W        W 8851   3.736   3.623   3.371
 5108W        W 8852   2.962   9.819   0.776
 5109W        W 8853   2.516   4.884   9.524
 5110W        W 8854   2.737   1.299   2.275
 5111W        W 8855   6.187   1.365  11.054
 5112W        W 8856   2.618   3.239  10.337
 5113W        W 8857   4.339   7.503   8.941
 5114W        W 8858   6.531   7.344   3.676
 5115W        W 8859   1.324   6.085   2.157
 5116W        W 8860   9.261   5.953  10.322
 5117W        W 8861   5.052   9.413   1.668
 5118W        W 8862   3.887   1.098   3.385
 5119W        W 8863   3.655   9.628   9.482
 5120W        W 8864   9.720   0.499   2.297
 5121W        W 8865   5.165   2.318  11.407
 5122W        W 8866   1.962   1.711   1.012
 5123W        W 8867   6.975   9.385   2.356
 5124W        W 8868   9.276  10.386   8.740
 5125W        W 8869   5.085   5.605   1.661
 5126W        W 8870   1.488   7.151   9.366
 5127W        W 8871   8.807   0.916   0.341
 5128W        W 8872   9.407   7.537   9.647
 5129W        W 8873   9.096   0.894   1.233
 5130W        W 8874   6.570   6.206   1.313
 5131W        W 8875   0.848   4.817  11.809
 5132W        W 8876   6.584   3.561  11.233
 5133W        W 8877   8.835   7.196   1.148
 5134W        W 8878   6.466   8.380  11.368
 5135W        W 8879   4.298   0.427   8.739
 5136W        W 8880   9.396   3.656  11.960
 5137W        W 8881   2.460   0.885   0.499
 5138W        W 8882   1.236   0.046   2.179
 5139W        W 8883   8.257  10.491   9.279
 5140W        W 8884   8.263   1.385   2.709
 5141W        W 8885   4.092   7.497   8.489
 5142W        W 8886   2.405   6.497  10.596
 5143W        W 8887   5.742   6.528   9.876
 5144W        W 8888   3.321   6.454   0.604
 5145W        W 8889   4.717   1.144   9.757
 5146W        W 8890   6.702   6.464  10.766
 5147W        W 8891   2.282   6.956  10.974
 5148W        W 8892   3.611   7.677   0.258
 5149W        W 8893   5.189   4.175  11.759
 5150W        W 8894   0.425   7.010   3.307
 5151W        W 8895   6.552   0.714  11.490
 5152W        W 8896   2.738   5.536   0.258
 5153W        W 8897   3.792   0.591   8.790
 5154W        W 8898   4.589   7.827   1.071
 5155W        W 8899   8.587   2.899  11.837
 5156W        W 8900   8.890   7.224   8.439
 5157W        W 8901   4.587   6.289   9.449
 5158W        W 8902  10.070  10.255   9.958
 5159W        W 8903   1.936   5.250  11.314
 5160W        W 8904  10.073   4.011   0.878
 5161W        W 8905   8.030   5.904   1.899
 5162W        W 8906   2.010   0.011   1.673
 5163W        W 8907   6.134   0.777   1.650
 5164W        W 8908   4.309   7.218   2.449
 5165W        W 8909   2.169   1.110   2.367
 5166W        W 8910   7.750   6.018   8.410
 5167W        W 8911   7.660   4.609   0.265
 5168W        W 8912   2.736   8.118   8.848
 5169W        W 8913   6.936   5.886   1.446
 5170W        W 8914   9.073   9.429   9.309
 5171W        W 8915   7.455   2.588   0.471
 5172W        W 8916   5.632   1.207   2.816
 5173W        W 8917   0.135   6.122  10.768
 5174W        W 8918   4.169   2.399  10.628
 5175W        W 8919   3.191   9.993   3.477
 5176W        W 8920   6.103   7.862   9.439
 5177W        W 8921   1.439   7.571   0.629
 5178W        W 8922   8.147   6.982  11.324
 5179W        W 8923   5.190   2.691  11.772
 5180W        W 8924   0.373   3.617  11.907
 5181W        W 8925   4.605   7.534   3.851
 5182W        W 8926   8.911   2.658   2.307
 5183W        W 8927   2.712   5.460  10.770
 5184W        W 8928   6.967   2.642   2.990
 5185W        W 8929   0.353   7.986  11.777
 5186W        W 8930  10.256   1.671   0.419
 5187W        W 8931   1.398   6.235   1.183
 5188W        W 8932   2.433   3.752   0.005
 5189W        W 8933   2.712   3.210   0.763
 5190W        W 8934   8.530   8.128   2.044
 5191W        W 8935   6.534   0.446   9.235
 5192W        W 8936   3.118   3.108  11.942
 5193W        W 8937   2.383   3.008  11.542
 5194W        W 8938   0.309   2.339   0.204
 5195W        W 8939   4.866   8.831   0.401
 5196W        W 8940   6.680   7.711   2.485
 5197W        W 8941   4.773   0.810  11.317
 5198W        W 8942   1.927   1.380  10.898
 5199W        W 8943   9.569   4.220  10.918
 5200W        W 8944   3.752   1.877  10.060
 5201W        W 8945   0.946  10.278  10.535
 5202W        W 8946   7.439   1.345   1.217
 5203W        W 8947   5.133   8.810  10.546
 5204W        W 8948   5.806   8.437   8.623
 5205W        W 8949   8.156   0.885   0.676
 5206W        W 8950   4.537   4.272   3.201
 5207W        W 8951   8.475  10.005   2.539
 5208W        W 8952  10.437   8.779   0.301
 5209W        W 8953   1.934   9.043   2.296
 5210W        W 8954   5.737   6.914  11.921
 5211W        W 8955   4.651   2.329   1.499
 5212W        W 8956   5.131   4.792   9.784
 5213W        W 8957   3.378   8.882  10.299
 5214W        W 8958   2.936   0.941   9.815
 5215W        W 8959   6.971   3.761  11.538
 5216W        W 8960   1.377   2.473   8.838
 5217W        W 8961   3.764   7.054   1.766
 5218W        W 8962  10.362   9.934   0.665
 5219W        W 8963   2.699  10.368   1.264
 5220W        W 8964   3.645   9.609   2.018
 5221W        W 8965   5.469   4.600  11.881
 5222W        W 8966   1.680   4.108   2.141
 5223W        W 8967  10.442   5.546   1.853
 5224W        W 8968   0.489   7.159   9.764
 5225W        W 8969   2.454   7.426   8.650
 5226W        W 8970   2.611   4.968  10.690
 5227W        W 8971   5.336   0.327   9.635
 5228W        W 8972   0.788   8.766  10.861
 5229W        W 8973   9.543   0.957   2.428
 5230W        W 8974   4.278   0.381   9.251
 5231W        W 8975   9.772   1.826   1.939
 5232W        W 8976   8.089   6.644   1.080
 5233W        W 8977   6.549   6.699  11.730
 5234W        W 8978   0.455   5.670   8.729
 5235W        W 8979   3.260   1.985   0.412
 5236W        W 8980   5.448   8.906  10.991
 5237W        W 8981   0.975   8.944   8.632
 5238W        W 8982   9.324   8.943  11.512
 5239W        W 8983   6.087   0.847   0.658
 5240W        W 8984   6.116   6.611   1.751
 5241W        W 8985   1.177   1.786   9.330
 5242W        W 8986   5.485   8.003   8.590
 5243W        W 8987   4.800   3.141   1.829
 5244W        W 8988   0.011   1.317   8.996
 5245W        W 8989   2.908   5.691   2.593
 5246W        W 8990   9.407   7.037   1.955
 5247W        W 8991   0.073   7.597   2.797
 5248W        W 8992   0.260   0.016   2.682
 5249W        W 8993   2.436   8.942  10.474
 5250W        W 8994   9.609   9.425   9.479
 5251W        W 8995   7.683   7.990   9.366
 5252W        W 8996   6.383   3.901   8.697
 5253W        W 8997   8.859   2.360  10.089
 5254W        W 8998   2.898   3.869   0.167
 5255W        W 8999   3.506   3.014   1.416
 5256W        W 9000   7.538  10.457   3.255
 5257W        W 9001   1.323   3.820   3.220
 5258W        W 9002   8.715   0.869   9.560
 5259W        W 9003   4.644   5.959   2.258
 5260W        W 9004   2.690   5.355   9.450
 5261W        W 9005   6.469   1.797  10.988
 5262W        W 9006   5.673   9.970  10.599
 5263W        W 9007   1.686   9.905   2.128
 5264W        W 9008   4.239   5.269   2.082
 5265W        W 9009   5.514   8.830  10.081
 5266W        W 9010   5.410   7.135   8.238
 5267W        W 9011   5.531   8.896  11.923
 5268W        W 9012   3.088   4.260   1.815
 5269W        W 9013   1.665   6.004   3.002
 5270W        W 9014   3.042   7.434   9.365
 5271W        W 9015   3.580   6.127   3.595
 5272W        W 9016   9.423   8.913   1.410
 5273W        W 9017   0.333  10.258   9.513
 5274W        W 9018   1.483   7.371   2.623
 5275W        W 9019   8.835   2.222   2.665
 5276W        W 9020   6.567   1.039   2.405
 5277W        W 9021   6.180  10.185   9.477
 5278W        W 9022   8.340   9.041  10.761
 5279W        W 9023   0.601   8.237   0.158
 5280W        W 9024   2.313   1.694   1.378
 5281W        W 9025  10.497   6.734   0.084
 5282W        W 9026   4.339   6.071   0.229
 5283W        W 9027   2.917   9.900   9.520
 5284W        W 9028   7.007   5.813   2.148
 5285W        W 9029   9.053   5.062  10.045
 5286W        W 9030  10.285   4.859   0.846
 5287W        W 9031   2.484   9.932   0.965
 5288W        W 9032   4.290   2.106   0.956
 5289W        W 9033   0.817   1.858   8.895
 5290W        W 9034   6.483   3.241   1.496
 5291W        W 9035   5.315   3.323   8.564
 5292W        W 9036   5.432   9.855   3.813
 5293W        W 9037   5.114   8.976   1.437
 5294W        W 9038   5.205   2.835   3.871
 5295W        W 9039   7.892   1.795   0.272
 5296W        W 9040   7.867   6.381   2.006
 5297W        W 9041   1.660   6.031  10.857
 5298W        W 9042   0.284   0.883   8.894
 5299W        W 9043   5.762   2.873   1.098
 5300W        W 9044   8.627   5.586   8.394
 5301W        W 9045   0.547   5.501   0.466
 5302W        W 9046   7.504   4.681   3.636
 5303W        W 9047   7.967   5.712   0.861
 5304W        W 9048   7.881   2.300   0.983
 5305W        W 9049   0.285  10.385  11.177
 5306W        W 9050   8.202   5.926   3.367
 5307W        W 9051   7.010   8.062  10.450
 5308W        W 9052   7.956  10.259   1.750
 5309W        W 9053   6.113  10.382   0.689
 5310W        W 9054   7.315   4.531   9.987
 5311W        W 9055   3.548   2.600   0.944
 5312W        W 9056   4.756   2.257   3.444
 5313W        W 9057   3.912   3.958   2.407
 5314W        W 9058   2.282   7.068  10.096
 5315W        W 9059   7.447  10.059   9.765
 5316W        W 9060   1.360   1.849   2.486
 5317W        W 9061   5.779   4.655   1.901
 5318W        W 9062   9.492   2.652  11.467
 5319W        W 9063   3.180   3.496   0.737
 5320W        W 9064   9.493   3.893   2.951
 5321W        W 9065   5.732   4.647   2.420
 5322W        W 9066   0.497   3.804   2.617
 5323W        W 9067   4.148   7.322  11.464
 5324W        W 9068   8.404   4.303   2.357
 5325W        W 9069   0.008   5.706   0.697
 5326W        W 9070   0.897   0.123   9.572
 5327W        W 9071   8.503   5.737  10.073
 5328W        W 9072  10.485   2.627  10.433
 5329W        W 9073   5.574   1.449   1.694
 5330W        W 9074   8.903   6.432   8.847
 5331W        W 9075   7.915   4.937   1.085
 5332W        W 9076   7.555   4.426   4.064
 5333W        W 9077   3.789   5.408   2.221
 5334W        W 9078  10.295   1.385  11.967
 5335W        W 9079   8.995   8.389   2.056
 5336W        W 9080   5.558   3.931   9.066
 5337W        W 9081   8.070   9.372   1.354
 5338W        W 9082   8.906   4.177   9.542
 5339W        W 9083   9.044   8.599   9.957
 5340W        W 9084   3.775   3.099   8.732
 5341W        W 9085   7.021   6.938   2.477
 5342W        W 9086   5.502  10.066   8.619
 5343W        W 9087   7.651   9.272  11.451
 5344W        W 9088   9.225   6.998   1.473
 5345W        W 9089   0.143   5.050   2.869
 5346W        W 9090   6.758   6.537   9.772
 5347W        W 9091   9.782   9.338   3.112
 5348W        W 9092   9.561   6.953   2.593
 5349W        W 9093   4.209   6.375  10.634
 5350W        W 9094   3.805   0.523   2.017
 5351W        W 9095   5.859   3.264   8.548
 5352W        W 9096   8.539   4.318   0.296
 5353W        W 9097   8.591   5.191  10.947
 5354W        W 9098   0.319   5.098   9.296
 5355W        W 9099   5.515   6.160   9.239
 5356W        W 9100   9.361   0.079   2.505
 5357W        W 9101   7.142   8.961   1.492
 5358W        W 9102   9.371   4.655   3.352
 5359W        W 9103   5.065   6.016  10.576
 5360W        W 9104   1.407   4.617   1.663
 5361W        W 9105   9.192  10.473   1.175
 5362W        W 9106   0.283   3.174   1.464
 5363W        W 9107   7.000   0.702  11.841
 5364W        W 9108   0.286   3.627   1.212
 5365W        W 9109   0.894   6.517  11.857
 5366W        W 9110   0.494   3.579   0.753
 5367W        W 9111   0.579   9.623  11.254
 5368W        W 9112   3.312   1.803   9.271
 5369W        W 9113   1.426  10.472  10.770
 5370W        W 9114   4.994   1.973   1.454
 5371W        W 9115   4.904   8.065   3.181
 5372W        W 9116   3.210   2.295   9.114
 5373W        W 9117   5.415   5.611  10.488
 5374W        W 9118  10.363   4.010   1.324
 5375W        W 9119   7.579   5.316   0.886
 5376W        W 9120   1.988   6.390  10.289
 5377W        W 9121   6.982   4.718  10.881
 5378W        W 9122   0.806  10.004   1.527
 5379W        W 9123   5.637   3.616   9.467
 5380W        W 9124  10.320   0.341  11.404
 5381W        W 9125   6.474   1.142   1.412
 5382W        W 9126   3.692   8.546   9.500
 5383W        W 9127   6.436   0.926  10.999
 5384W        W 9128   0.989   1.856   0.781
 5385W        W 9129   1.292   2.696   9.831
 5386W        W 9130   6.153   6.430   0.698
 5387W        W 9131   2.782   6.516   1.193
 5388W        W 9132   3.011   3.181   3.602
 5389W        W 9133  10.332   1.287  11.456
 5390W        W 9134   9.166   6.206   0.479
 5391W        W 9135   9.993   1.146   3.086
 5392W        W 9136   8.539   5.221  10.103
 5393W        W 9137   3.749   7.381  11.022
 5394W        W 9138   8.006   0.862  11.740
 5395W        W 9139   8.862   4.038   2.182
 5396W        W 9140   8.061  10.238   3.252
 5397W        W 9141   3.602  10.433   9.805
 5398W        W 9142   0.884   7.222  11.990
 5399W        W 9143   7.428   8.391   9.563
 5400W        W 9144   3.670   4.594   9.777
 5401W        W 9145   9.021   1.359  11.203
 5402W        W 9146   7.654   8.641   2.685
 5403W        W 9147   1.874   6.890   0.964
 5404W        W 9148   3.850   0.374  10.314
 5405W        W 9149   9.136   3.996  10.968
 5406W        W 9150   9.805   9.629  10.283
 5407W        W 9151   5.056   6.020   2.951
 5408W        W 9152   3.710   9.200   0.530
 5409W        W 9153   8.473   7.946   0.467
 5410W        W 9154   9.733   4.677   9.423
 5411W        W 9155   7.511   2.399   2.223
 5412W        W 9156   7.814   4.389  11.333
 5413W        W 9157   8.461   4.749   2.125
 5414W        W 9158   8.934   1.775   2.339
 5415W        W 9159   1.599   4.181   9.439
 5416W        W 9160   5.541   5.341   1.782
 5417W        W 9161   5.432   4.168   0.269
 5418W        W 9162   8.970   1.291  10.700
 5419W        W 9163   3.081   6.875  11.263
 5420W        W 9164   9.797   7.805   2.786
 5421W        W 9165   4.198   3.555   1.179
 5422W        W 9166   1.337   4.821  10.126
 5423W        W 9167   2.343   9.199   0.236
 5424W        W 9168   5.673   2.724   0.405
 5425W        W 9169   3.144   5.227   0.952
 5426W        W 9170   8.774   6.315   0.817
 5427W        W 9171   7.673  10.075   2.932
 5428W        W 9172   1.816   5.478   9.684
 5429W        W 9173   8.743   8.323   3.557
 5430W        W 9174   9.228   0.309  11.931
 5431W        W 9175   4.192   1.234   2.828
 5432W        W 9176   0.760   9.984   0.247
 5433W        W 9177   7.910   0.475   0.505
 5434W        W 9178   1.851  10.398  11.025
 5435W        W 9179   0.409   2.456   2.686
 5436W        W 9180   4.298   5.518   0.932
 5437W        W 9181   5.517   8.863   9.575
 5438W        W 9182   5.622   5.429   8.964
 5439W        W 9183   3.418   4.084   2.258
 5440W        W 9184   6.657   7.908  11.254
 5441W        W 9185   7.797   5.203  10.523
 5442W        W 9186   3.247   9.507   1.162
 5443W        W 9187   1.657   0.239   9.999
 5444W        W 9188   4.943   5.771  11.388
 5445W        W 9189   6.455   8.085   3.264
 5446W        W 9190   2.336   4.642   1.653
 5447W        W 9191   9.992   0.966   0.001
 5448W        W 9192   4.974   7.589  11.586
 5449W        W 9193   5.369   1.663   1.295
 5450W        W 9194   2.824   3.401   1.568
 5451W        W 9195   1.397   0.379  10.422
 5452W        W 9196   4.675   8.085  10.540
 5453W        W 9197   1.607   3.019   0.226
 5454W        W 9198   5.554   8.309  10.864
 5455W        W 9199   7.630   7.409   1.706
 5456W        W 9200   2.654   8.464   2.425
 5457W        W 9201   1.840   2.209   0.944
 5458W        W 9202   3.364   3.834   0.380
 5459W        W 9203   8.498   2.292   9.273
 5460W        W 9204   1.623   1.346  11.323
 5461W        W 9205   3.572   1.845   3.045
 5462W        W 9206   1.170   9.507  10.403
 5463W        W 9207   1.767   0.099   8.581
 5464W        W 9208   0.170   9.207  10.462
 5465W        W 9209   3.878  10.384   2.693
 5466W        W 9210   4.422   7.605   2.750
 5467W        W 9211   0.706   3.306   1.168
 5468W        W 9212   3.614   5.703   1.710
 5469W        W 9213   4.110   9.352   9.346
 5470W        W 9214   4.066   7.511  10.628
 5471W        W 9215   1.914   1.416   3.397
 5472W        W 9216   4.999   9.999   3.449
 5473W        W 9217   0.218   7.413   2.324
 5474W        W 9218   1.795   5.463   2.193
 5475W        W 9219   4.677   0.631   9.047
 5476W        W 9220   0.423   3.829   3.130
 5477W        W 9221   4.323   5.137   9.561
 5478W        W 9222   1.880   2.898   8.342
 5479W        W 9223   8.183   5.037  11.798
 5480W        W 9224   8.048   8.638   0.769
 5481W        W 9225   3.237   7.374  10.339
 5482W        W 9226   7.168   0.701   2.991
 5483W        W 9227   0.703   3.090  10.917
 5484W        W 9228  10.451   9.437   1.998
 5485W        W 9229   6.144   9.110   3.420
 5486W        W 9230   1.092   0.418   9.161
 5487W        W 9231   6.160   6.176   2.044
 5488W        W 9232   4.067   9.858   3.458
 5489W        W 9233   7.013   4.597   3.748
 5490W        W 9234   9.259   3.386   9.811
 5491W        W 9235   4.578   4.153  10.904
 5492W        W 9236   5.039   2.389   9.496
 5493W        W 9237   1.229   4.203  11.037
 5494W        W 9238   8.623   6.776   8.607
 5495W        W 9239   9.333   0.855   8.924
 5496W        W 9240   8.912   1.723   8.842
 5497W        W 9241   5.073   6.108   9.549
 5498W        W 9242   6.109   1.957   0.249
 5499W        W 9243   0.843   6.301   2.992
 5500W        W 9244   4.215   3.627  11.721
 5501W        W 9245   3.271   6.164   8.565
 5502W        W 9246   0.678   8.885   9.103
 5503W        W 9247   6.310   1.444   8.384
 5504W        W 9248   4.583   9.254   0.461
 5505W        W 9249   0.965   1.759   0.107
 5506W        W 9250  10.347   4.453   2.580
 5507W        W 9251   8.618   7.557   0.834
 5508W        W 9252   9.379   1.524   9.532
 5509W        W 9253   9.879   1.342  11.189
 5510W        W 9254   4.295   3.120   2.737
 5511W        W 9255   2.873   2.155  10.352
 5512W        W 9256   4.257   5.230   1.400
 5513W        W 9257   7.603   8.805   0.578
 5514W        W 9258   4.754   1.719  10.366
 5515W        W 9259   6.180   7.581   8.087
 5516W        W 9260   9.275   6.236   0.965
 5517W        W 9261   8.482   6.059   2.661
 5518W        W 9262   3.219   7.135   1.155
 5519W        W 9263   2.758   9.761   2.217
 5520W        W 9264   9.461   3.541   2.529
 5521W        W 9265   6.429   2.305  10.980
 5522W        W 9266   6.165   9.669  11.844
 5523W        W 9267   6.455   2.163  11.462
 5524W        W 9268   5.962   4.654  11.750
 5525W        W 9269   7.204   6.718   8.368
 5526W        W 9270   7.130   1.962  11.501
 5527W        W 9271   1.488   7.905   1.921
 5528W        W 9272   9.073   7.008  11.733
 5529W        W 9273   9.178   2.242  10.942
 5530W        W 9274   0.445   6.938  11.867
 5531W        W 9275   7.429   8.007   2.251
 5532W        W 9276   1.188  10.042   0.531
 5533W        W 9277   0.441   7.649   1.879
 5534W        W 9278   3.412   3.659  10.926
 5535W        W 9279   5.752  10.324  10.975
 5536W        W 9280   2.649   8.823  11.964
 5537W        W 9281   1.301   0.945   2.653
 5538W        W 9282   4.616  10.386   3.373
 5539W        W 9283   9.115   8.895  11.059
 5540W        W 9284   2.205   2.522   9.231
 5541W        W 9285   9.424   8.183   3.071
 5542W        W 9286   6.414   5.363  10.400
 5543W        W 9287   6.544   1.734   0.388
 5544W        W 9288   3.262   2.371  10.645
 5545W        W 9289   5.669   8.355   9.944
 5546W        W 9290   7.536   1.559   2.693
 5547W        W 9291   7.913   7.998  10.241
 5548W        W 9292  10.251   2.744   9.346
 5549W        W 9293   1.636   5.058  10.950
 5550W        W 9294   7.074   9.775   3.704
 5551W        W 9295   1.263   4.174   0.916
 5552W        W 9296   9.784   2.805   9.546
 5553W        W 9297   0.853   0.421   1.450
 5554W        W 9298   6.457   0.771   8.816
 5555W        W 9299   4.756  10.095   1.701
 5556W        W 9300   7.479   9.000   3.488
 5557W        W 9301   9.087   1.482   3.491
 5558W        W 9302   8.044   8.009   2.269
 5559W        W 9303   5.597   2.640   2.434
 5560W        W 9304   2.042   9.078   3.343
 5561W        W 9305   7.157   9.739  11.959
 5562W        W 9306   0.688   0.062  11.427
 5563W        W 9307   8.516   3.218   1.403
 5564W        W 9308   9.015   6.056  11.469
 5565W        W 9309   8.319   2.445  10.775
 5566W        W 9310   3.267   7.301   0.204
 5567W        W 9311   8.306   7.126   0.719
 5568W        W 9312   4.235   0.324   1.759
 5569W        W 9313   0.791   4.752   1.497
 5570W        W 9314   0.898  10.198   8.549
 5571W        W 9315   3.402  10.013   0.982
 5572W        W 9316   5.638   4.124   1.206
 5573W        W 9317   7.373   3.157  10.688
 5574W        W 9318   3.646   3.534   2.426
 5575W        W 9319   7.933   9.763   3.412
 5576W        W 9320   9.829   4.719   2.419
 5577W        W 9321   6.528   6.084   0.670
 5578W        W 9322   9.977   4.498  11.001
 5579W        W 9323  10.309   6.110  11.188
 5580W        W 9324   4.196   0.852   8.985
 5581W        W 9325   1.830   7.397   0.937
 5582W        W 9326   4.241   9.488   1.095
 5583W        W 9327   0.883   2.260  11.975
 5584W        W 9328   5.630   7.236   2.819
 5585W        W 9329   4.729   6.466  10.809
 5586W        W 9330   5.555   2.691  11.391
 5587W        W 9331   7.481   8.953   1.052
 5588W        W 9332   2.821   9.068   0.386
 5589W        W 9333   8.097   4.209   3.157
 5590W        W 9334   8.089   5.109   2.589
 5591W        W 9335   6.559   2.660  11.361
 5592W        W 9336   8.084   4.974   1.573
 5593W        W 9337   1.376   1.664   1.187
 5594W        W 9338   9.745   2.248   2.213
 5595W        W 9339   8.370   2.420  10.276
 5596W        W 9340   3.717   0.431   9.824
 5597W        W 9341   8.802   3.151   2.433
 5598W        W 9342   4.030   9.451   8.435
 5599W        W 9343   7.531   1.864   2.140
 5600W        W 9344   8.939   2.634   0.242
 5601W        W 9345   7.040   6.941  11.714
 5602W        W 9346   5.057   2.366  10.493
 5603W        W 9347   5.988   7.910   2.415
 5604W        W 9348   0.050   2.400   0.953
 5605W        W 9349   6.253   4.658   1.576
 5606W        W 9350   2.434   3.415   2.945
 5607W        W 9351   1.963   4.561   3.296
 5608W        W 9352   7.687   6.450   3.407
 5609W        W 9353   7.086  10.193  10.923
 5610W        W 9354   2.216  10.280   9.278
 5611W        W 9355   7.880   0.244   9.515
 5612W        W 9356   2.964   8.467   3.383
 5613W        W 9357   3.124   0.690  10.901
 5614W        W 9358   2.421  10.235   1.696
 5615W        W 9359   8.579   9.325   9.074
 5616W        W 9360   0.708  10.086  11.330
 5617W        W 9361   7.597   2.818  10.375
 5618W        W 9362   8.548   6.477   9.574
 5619W        W 9363   6.949  10.419   1.218
 5620W        W 9364   4.551   0.329  11.050
 5621W        W 9365   0.361   4.503   1.427
 5622W        W 9366   0.711  10.258  11.825
 5623W        W 9367   2.734   8.561   9.195
 5624W        W 9368   3.070   4.299   0.362
 5625W        W 9369   4.610   0.077   1.523
 5626W        W 9370   0.409   9.378   1.788
 5627W        W 9371   1.007   4.640   9.198
 5628W        W 9372  10.201   2.240  10.642
 5629W        W 9373   7.018   9.926  10.017
 5630W        W 9374   4.631   7.207  11.582
 5631W        W 9375   5.548   3.077  10.640
 5632W        W 9376  10.306   1.563   1.334
 5633W        W 9377   4.089   2.593   0.958
 5634W        W 9378   0.913   2.184   3.243
 5635W        W 9379   1.753   0.740  11.397
 5636W        W 9380   3.190   8.697  11.946
 5637W        W 9381   5.847   8.075   4.060
 5638W        W 9382   8.455   8.492   1.253
 5639W        W 9383   8.634   5.292  11.804
 5640W        W 9384   2.242   4.535  11.652
 5641W        W 9385   9.368   4.207  10.453
 5642W        W 9386   2.445   2.871   8.496
 5643W        W 9387   5.602   7.538   9.361
 5644W        W 9388   6.522   3.423   1.021
 5645W        W 9389   8.062   1.647   9.796
 5646W        W 9390   3.263   3.260   1.776
 5647W        W 9391   4.545  10.411   0.780
 5648W        W 9392   1.789   4.702   0.934
 5649W        W 9393   2.612   4.264   2.855
 5650W        W 9394   1.355   1.954   8.868
 5651W        W 9395   4.722   0.427   2.451
 5652W        W 9396   5.739   5.995   3.167
 5653W        W 9397   1.751   4.362  11.775
 5654W        W 9398   4.702   8.027  11.082
 5655W        W 9399   0.847   5.683  10.189
 5656W        W 9400   0.438  10.220  10.391
 5657W        W 9401   2.352   6.981   1.717
 5658W        W 9402   9.772   8.595  10.448
 5659W        W 9403   3.838  10.024   1.674
 5660W        W 9404   5.113   2.562   2.705
 5661W        W 9405   5.191   1.642   8.724
 5662W        W 9406   8.633   0.523   3.101
 5663W        W 9407   7.015   1.230   1.950
 5664W        W 9408   9.102   2.195  11.988
 5665W        W 9409   2.309   9.427   2.227
 5666W        W 9410   3.405   0.964   8.734
 5667W        W 9411   5.309   8.473   1.490
 5668W        W 9412   2.469   6.173   0.439
 5669W        W 9413   3.093   0.786  11.892
 5670W        W 9414   7.456   0.662  11.377
 5671W        W 9415   0.528   6.050   2.222
 5672W        W 9416   7.340   6.123   3.212
 5673W        W 9417   5.639   4.094  10.977
 5674W        W 9418   4.366   8.573   1.320
 5675W        W 9419  10.356   7.021  11.255
 5676W        W 9420   5.903   7.072  10.469
 5677W        W 9421   4.997   7.997   0.818
 5678W        W 9422   6.448   3.646   9.913
 5679W        W 9423   1.706   3.569   9.354
 5680W        W 9424   2.757   1.907   0.432
 5681W        W 9425   2.896   6.939   9.400
 5682W        W 9426   0.906   6.664   8.933
 5683W        W 9427   7.949   2.634   2.360
 5684W        W 9428   4.032   2.665   2.724
 5685W        W 9429   0.937   6.173   2.486
 5686W        W 9430  10.287   7.921   0.418
 5687W        W 9431   8.432   0.136   3.330
 5688W        W 9432   0.005   0.714   3.348
 5689W        W 9433   3.461   0.551   3.548
 5690W        W 9434   4.630   4.069   7.870
 5691W        W 9435   7.351   6.550   0.329
 5692W        W 9436   3.168   9.961   2.956
 5693W        W 9437   6.963   9.845   2.638
 5694W        W 9438   7.691   1.911   3.012
 5695W        W 9439  10.405   8.875   9.688
 5696W        W 9440   3.815   2.757  10.564
 5697W        W 9441   9.376   9.096   0.027
 5698W        W 9442   0.024   2.630   8.646
 5699W        W 9443   8.864   5.812   0.329
 5700W        W 9444   5.010   0.845   2.644
 5701W        W 9445   6.629   6.456   1.804
 5702W        W 9446   8.961   7.436   1.574
 5703W        W 9447   5.362   2.740   3.393
 5704W        W 9448  10.025   0.851   9.578
 5705W        W 9449   2.418   5.692   3.186
 5706W        W 9450   6.456   1.138   1.925
 5707W        W 9451   2.709   8.376   2.945
 5708W        W 9452   7.876   7.438  11.522
 5709W        W 9453   6.200   2.036   2.784
 5710W        W 9454   4.163   7.123   1.465
 5711W        W 9455   8.860   8.819   3.391
 5712W        W 9456   3.391   2.688   2.531
 5713W        W 9457   2.955   1.076   8.339
 5714W        W 9458   9.326   3.038   9.409
 5715W        W 9459   8.822   7.517   3.066
 5716W        W 9460   5.141   5.239   9.057
 5717W        W 9461   9.736   5.596  11.687
 5718W        W 9462  10.108   2.041   3.153
 5719W        W 9463  10.487   2.702   2.575
 5720W        W 9464   6.428   6.060  10.872
 5721W        W 9465   7.232   9.739   8.505
 5722W        W 9466   8.609   4.484   0.794
 5723W        W 9467   4.192   3.116   0.897
 5724W        W 9468   4.365   9.505   2.825
 5725W        W 9469   6.136   8.579   3.369
 5726W        W 9470   7.394  10.215   8.756
 5727W        W 9471   9.383   7.953   0.976
 5728W        W 9472   4.760   4.536   9.064
 5729W        W 9473   2.893   6.687  10.304
 5730W        W 9474   3.586   2.358   0.452
 5731W        W 9475   1.421   8.523   0.145
 5732W        W 9476  10.052   6.481   0.139
 5733W        W 9477   6.206  10.035  10.887
 5734W        W 9478   1.843   8.279   3.539
 5735W        W 9479   4.585   9.069   1.372
 5736W        W 9480   9.041   9.095   0.440
 5737W        W 9481   7.375   3.256   1.342
 5738W        W 9482   5.919   2.618   9.413
 5739W        W 9483   3.652   6.259   8.930
 5740W        W 9484   8.056   2.841   9.724
 5741W        W 9485   0.226   3.042  11.417
 5742W        W 9486   2.090   3.441  10.138
 5743W        W 9487   0.874   2.383  11.445
 5744W        W 9488   1.833   3.381   1.027
 5745W        W 9489   1.727   4.149   1.124
 5746W        W 9490   9.754   4.280   2.141
 5747W        W 9491   0.920   0.450   3.225
 5748W        W 9492   2.710   5.886   8.549
 5749W        W 9493   6.150   1.735   8.797
 5750W        W 9494   9.453   5.456   8.883
 5751W        W 9495   4.080   0.921   2.398
 5752W        W 9496   2.401   4.235   2.382
 5753W        W 9497   8.920   9.955   9.534
 5754W        W 9498   8.713   2.375  11.075
 5755W        W 9499   6.009   3.869   9.259
 5756W        W 9500   1.564   0.741   3.136
 5757W        W 9501   1.453   4.607   2.187
 5758W        W 9502   2.270   2.330  10.651
 5759W        W 9503   6.151   9.379  10.022
 5760W        W 9504   9.008   8.857   2.296
 5761W        W 9505   9.392   7.303  11.481
 5762W        W 9506   1.121   7.940   9.958
 5763W        W 9507   9.283   5.051   0.760
 5764W        W 9508   3.752   3.604   0.928
 5765W        W 9509   9.909   9.521   2.137
 5766W        W 9510   9.571   4.816   3.819
 5767W        W 9511   6.918   6.553   3.766
 5768W        W 9512   9.463   4.822   2.792
 5769W        W 9513   3.348   3.215   9.587
 5770W        W 9514   7.409   2.346   3.046
 5771W        W 9515   4.080   8.247  11.789
 5772W        W 9516   8.962   7.524   8.843
 5773W        W 9517   2.524   0.729  10.075
 5774W        W 9518   9.426   9.111   2.835
 5775W        W 9519   0.226   9.554   2.800
 5776W        W 9520   8.382   6.249  10.021
 5777W        W 9521  10.014   4.529   9.031
 5778W        W 9522   8.404   6.987   1.891
 5779W        W 9523  10.269   4.077   1.880
 5780W        W 9524   1.793   0.778   2.669
 5781W        W 9525   1.050   9.968   1.039
 5782W        W 9526   5.827   0.324   9.717
 5783W        W 9527   3.630   2.245   2.712
 5784W        W 9528   2.352   6.238   1.282
 5785W        W 9529   2.310   2.998   9.371
 5786W        W 9530   9.762   7.684  10.609
 5787W        W 9531   4.622   1.342   1.583
 5788W        W 9532   2.426   9.373  10.747
 5789W        W 9533   9.367   5.860   2.737
 5790W        W 9534   9.450   0.264   1.503
 5791W        W 9535   5.919   6.888   0.745
 5792W        W 9536   7.566   4.587   8.642
 5793W        W 9537   3.142   7.037   9.974
 5794W        W 9538   1.843   9.434   1.967
 5795W        W 9539   5.582   9.928   2.216
 5796W        W 9540   9.092   7.208   0.197
 5797W        W 9541   5.115   5.576   2.673
 5798W        W 9542   6.531   0.307  10.460
 5799W        W 9543   2.228   4.987  10.319
 5800W        W 9544   8.512   8.406   0.719
 5801W        W 9545   9.834   2.658   0.410
 5802W        W 9546   9.600   0.760   1.376
 5803W        W 9547   8.340   0.485  11.782
 5804W        W 9548   7.553   0.592  10.391
 5805W        W 9549   8.175   8.002   9.305
 5806W        W 9550   2.260   0.184  10.906
 5807W        W 9551   2.317   1.588   2.219
 5808W        W 9552   1.859   9.586   3.423
 5809W        W 9553   1.167   9.057  10.690
 5810W        W 9554   6.461   7.806  10.301
 5811W        W 9555   3.594   5.081   0.211
 5812W        W 9556   8.067   6.947  10.799
 5813W        W 9557   6.523   3.234   9.126
 5814W        W 9558   8.998   4.085   8.611
 5815W        W 9559   4.184   5.737   2.332
 5816W        W 9560   0.725   7.498   3.169
 5817W        W 9561   0.698   2.127   0.447
 5818W        W 9562   7.597   1.838   1.148
 5819W        W 9563   3.264   4.192   3.570
 5820W        W 9564   5.955   8.038   8.326
 5821W        W 9565   9.614   5.059  10.022
 5822W        W 9566   8.687   5.813   3.550
 5823W        W 9567   4.897   9.508   9.961
 5824W        W 9568   9.740   3.347  10.160
 5825W        W 9569   4.490   1.849   1.400
 5826W        W 9570   4.273   0.682  11.314
 5827W        W 9571   4.138   7.744  11.804
 5828W        W 9572   2.554   1.707   9.456
 5829W        W 9573   8.088   4.640   9.449
 5830W        W 9574   0.468   5.565   2.415
 5831W        W 9575   6.434   7.420  11.754
 5832W        W 9576   3.275   9.483   3.191
 5833W        W 9577   0.850   8.343   9.051
 5834W        W 9578   8.465   9.902   1.021
 5835W        W 9579   9.069   5.022  11.841
 5836W        W 9580   8.173   4.242   9.113
 5837W        W 9581   3.471   8.446  10.010
 5838W        W 9582   9.374   5.848   9.538
 5839W        W 9583   9.607   9.397   1.439
 5840W        W 9584   6.049   3.027   2.821
 5841W        W 9585   5.762   7.844  11.750
 5842W        W 9586   1.441   3.239  11.347
 5843W        W 9587   9.142   6.631   2.145
 5844W        W 9588   5.214   1.898   0.265
 5845W        W 9589   0.711   4.263   2.774
 5846W        W 9590  10.152   9.078  10.920
 5847W        W 9591   0.376   0.300   9.531
 5848W        W 9592   3.224   7.183   2.636
 5849W        W 9593   7.851   6.926   1.908
 5850W        W 9594   8.989   0.287   3.434
 5851W        W 9595   8.954   3.636   2.495
 5852W        W 9596   4.079   0.930   9.514
 5853W        W 9597   4.474   7.190  10.510
 5854W        W 9598   3.327   3.620  11.919
 5855W        W 9599   2.751   9.800   2.709
 5856W        W 9600   3.631   9.834   3.218
 5857W        W 9601   6.448   9.569   8.877
 5858W        W 9602   3.149   9.777   0.292
 5859W        W 9603   0.205   8.054   1.681
 5860W        W 9604   4.375   5.696   2.803
 5861W        W 9605   6.201   1.453   3.636
 5862W        W 9606   1.844   7.789  10.452
 5863W        W 9607   9.374   2.513   9.449
 5864W        W 9608   7.959   7.552   8.630
 5865W        W 9609   2.657   6.398   4.139
 5866W        W 9610   5.483   5.494   2.272
 5867W        W 9611   5.986  10.173   3.633
 5868W        W 9612   3.193   9.390   2.178
 5869W        W 9613   0.244   5.432  11.815
 5870W        W 9614   0.106   2.631   3.575
 5871W        W 9615   5.412  10.383   2.447
 5872W        W 9616   1.026   0.889   2.226
 5873W        W 9617   0.823   3.576   9.870
 5874W        W 9618   8.339   1.408   2.184
 5875W        W 9619   3.796   4.127   3.242
 5876W        W 9620   8.775  10.318   1.417
 5877W        W 9621   4.077   6.234   2.401
 5878W        W 9622   7.521   3.143   8.646
 5879W        W 9623   4.125   4.130   8.673
 5880W        W 9624   6.930   8.938  10.961
 5881W        W 9625   5.453   2.682   9.655
 5882W        W 9626   3.228   9.344   9.523
 5883W        W 9627   8.905   7.941  11.160
 5884W        W 9628   6.464   5.175   9.871
 5885W        W 9629   1.214  10.044   2.344
 5886W        W 9630   1.189   6.697   9.350
 5887W        W 9631   6.495   7.547   9.550
 5888W        W 9632   8.551   3.047   0.903
 5889W        W 9633   7.389   5.001  10.737
 5890W        W 9634  10.110   2.435   3.527
 5891W        W 9635   3.162   7.123   3.299
 5892W        W 9636   7.130   4.701   2.893
 5893W        W 9637  10.326   6.543   0.569
 5894W        W 9638   0.375   8.467   0.844
 5895W        W 9639   1.926   8.734   3.725
 5896W        W 9640   7.013   7.489   2.879
 5897W        W 9641   6.078  10.069   2.061
 5898W        W 9642   1.639   8.950  11.934
 5899W        W 9643   4.817   6.973  10.833
 5900W        W 9644   0.569   3.129  10.008
 5901W        W 9645   0.256   8.533   1.831
 5902W        W 9646   5.146   3.671  11.658
 5903W        W 9647   5.692   2.837  11.855
 5904W        W 9648   2.260   6.016  11.285
 5905W        W 9649   4.706   5.553  10.717
 5906W        W 9650   4.286   3.380   0.183
 5907W        W 9651   5.458   9.610   9.326
 5908W        W 9652   3.873   5.273   1.727
 5909W        W 9653   4.150   7.468   3.559
 5910W        W 9654   4.162   7.905   9.213
 5911W        W 9655   0.833   1.888  11.624
 5912W        W 9656   5.543   2.922  10.133
 5913W        W 9657   3.478   2.194  11.910
 5914W        W 9658   9.129   7.193   9.928
 5915W        W 9659   3.851   7.165   9.354
 5916W        W 9660   6.745   7.986   1.525
 5917W        W 9661   6.189   9.350   0.830
 5918W        W 9662   0.975   7.462   0.417
 5919W        W 9663   8.607   8.668   0.289
 5920W        W 9664   2.681  10.442   0.104
 5921W        W 9665   8.807   3.278  10.553
 5922W        W 9666   1.209   7.726  11.780
 5923W        W 9667   7.370   5.604   2.607
 5924W        W 9668   8.366  10.218   9.774
 5925W        W 9669   6.733  10.449   3.005
 5926W        W 9670   5.574   9.146   9.169
 5927W        W 9671   3.951   0.585   3.408
 5928W        W 9672   2.077   1.122  11.302
 5929W        W 9673   4.020  10.352   0.806
 5930W        W 9674   6.813   7.924   9.396
 5931W        W 9675   8.819   5.028  11.397
 5932W        W 9676   6.097   0.847   2.300
 5933W        W 9677  10.462   3.706   2.700
 5934W        W 9678  10.055   0.978   2.268
 5935W        W 9679   9.363   1.640   8.601
 5936W        W 9680   2.765   4.085   8.971
 5937W        W 9681   2.793   5.069   0.526
 5938W        W 9682   0.854   3.157  10.436
 5939W        W 9683   8.941   6.415  10.690
 5940W        W 9684   4.772   8.987   3.386
 5941W        W 9685   0.818   2.310  10.516
 5942W        W 9686   0.897   9.736   3.004
 5943W        W 9687   7.564  10.455  10.892
 5944W        W 9688   2.569   0.801   1.011
 5945W        W 9689   0.949   8.910   2.936
 5946W        W 9690   1.769   7.362   3.037
 5947W        W 9691  10.365   0.450   9.483
 5948W        W 9692   2.837   0.362  10.308
 5949W        W 9693   8.930   9.802   2.770
 5950W        W 9694   6.118   8.487   9.032
 5951W        W 9695   5.580   5.373  11.375
 5952W        W 9696   2.268   2.383   8.718
 5953W        W 9697   0.424  10.483   9.949
 5954W        W 9698   2.820   3.163   9.413
 5955W        W 9699   5.056   1.808  11.258
 5956W        W 9700   5.761   5.547  11.820
 5957W        W 9701   2.247   0.264   2.291
 5958W        W 9702   7.501   6.566   2.957
 5959W        W 9703   5.208   9.211  10.229
 5960W        W 9704   5.555   5.587   9.454
 5961W        W 9705   6.961   8.397  11.464
 5962W        W 9706   7.049   1.679   9.025
 5963W        W 9707   5.618   1.243   9.775
 5964W        W 9708   2.348   6.919  11.982
 5965W        W 9709   7.522   9.406  11.926
 5966W        W 9710   0.850   3.619   3.280
 5967W        W 9711   4.016   3.573  10.030
 5968W        W 9712   3.660   5.140  10.241
 5969W        W 9713   8.868   9.437   0.822
 5970W        W 9714   4.974   8.174   9.267
 5971W        W 9715   0.943   5.597  10.679
 5972W        W 9716   1.865   6.517  10.771
 5973W        W 9717   9.788   7.665   1.307
 5974W        W 9718   6.607   7.254   9.145
 5975W        W 9719   2.662   5.128  11.989
 5976W        W 9720   7.495   7.578   8.426
 5977W        W 9721   3.550   0.006   0.216
 5978W        W 9722  10.258   8.674  11.846
 5979W        W 9723   4.250   7.232   0.989
 5980W        W 9724   0.955   3.332  11.274
 5981W        W 9725   2.141   4.934   1.287
 5982W        W 9726   4.305   8.840   8.937
 5983W        W 9727   9.548   2.195  11.275
 5984W        W 9728   1.818   5.986   2.035
 5985W        W 9729   5.620  10.050   9.116
 5986W        W 9730   0.186   8.313  10.444
 5987W        W 9731   0.765   7.416  11.516
 5988W        W 9732   9.238   2.269   2.311
 5989W        W 9733   8.571   1.954  10.147
 5990W        W 9734   7.904   1.437   1.467
 5991W        W 9735   3.376   4.731   2.718
 5992W        W 9736   7.861   7.087  11.890
 5993W        W 9737   8.619   3.886   0.568
 5994W        W 9738   5.543   5.824   1.599
 5995W        W 9739   0.437   6.661   0.860
 5996W        W 9740   6.085   4.790   9.833
 5997W        W 9741   6.419   7.018   9.597
 5998W        W 9742   8.813   3.673   9.561
 5999W        W 9743   7.127   3.642   1.573
 6000W        W 9744   2.497   0.712   2.414
 6001W        W 9745   9.895   8.713   2.516
 6002W        W 9746   8.749   8.386  10.359
 6003W        W 9747   4.079   5.587   0.052
 6004W        W 9748   1.379   0.856   9.020
 6005W        W 9749   8.317   3.289   2.425
 6006W        W 9750   2.879   2.686   2.645
 6007W        W 9751   4.720   8.492   3.559
 6008W        W 9752   4.786   2.119  10.043
 6009W        W 9753   9.952   7.473   0.394
 6010W        W 9754   7.484   9.982   3.419
 6011W        W 9755   0.666  10.419   1.279
 6012W        W 9756   3.958   4.763   9.377
 6013W        W 9757   0.731   5.424   1.300
 6014W        W 9758   0.288   3.843   0.369
 6015W        W 9759   6.613   1.004   0.828
 6016W        W 9760   9.527   9.401  11.550
 6017W        W 9761   7.441   9.064  10.876
 6018W        W 9762   3.348   6.067   0.260
 6019W        W 9763   8.963   1.278   9.759
 6020W        W 9764   3.232   0.171  10.879
 6021W        W 9765   4.677   5.011   1.614
 6022W        W 9766   0.423   5.720   0.985
 6023W        W 9767   4.930   8.895  11.045
 6024W        W 9768  10.007   6.867   9.892
 6025W        W 9769   8.586   7.786  11.979
 6026W        W 9770   5.814   4.334  10.000
 6027W        W 9771   8.101   4.253  10.925
 6028W        W 9772   0.353   8.978   3.497
 6029W        W 9773  10.241   2.264  10.120
 6030W        W 9774   0.918   9.068   0.481
 6031W        W 9775   8.393   8.959   1.490
 6032W        W 9776   3.927   4.515   1.025
 6033W        W 9777   1.158   1.815   3.498
 6034W        W 9778  10.240   3.701   0.504
 6035W        W 9779   6.816   0.796   1.233
 6036W        W 9780   3.005   1.719   0.839
 6037W        W 9781   4.310   8.732   3.345
 6038W        W 9782   3.078   9.238  10.040
 6039W        W 9783   0.047   5.524   8.450
 6040W        W 9784   1.538   3.372  11.850
 6041W        W 9785   7.600   1.276   9.025
 6042W        W 9786   5.224   3.580  10.719
 6043W        W 9787   4.824   3.702  11.009
 6044W        W 9788   1.048   5.863   1.250
 6045W        W 9789   1.945   1.782   3.750
 6046W        W 9790   7.869   5.598   2.633
 6047W        W 9791   1.331   6.000  11.342
 6048W        W 9792   0.584   3.830   3.663
 6049W        W 9793   0.956   3.342   0.712
 6050W        W 9794   5.253   8.414   0.970
 6051W        W 9795   4.403   1.156  11.495
 6052W        W 9796   3.095   3.992   0.781
 6053W        W 9797   2.775   8.934   1.652
 6054W        W 9798   0.349   1.077   0.977
 6055W        W 9799   7.648   6.840   9.988
 6056W        W 9800   6.916   3.772   8.550
 6057W        W 9801   8.325   7.555   3.209
 6058W        W 9802   5.675   9.179   2.621
 6059W        W 9803   1.110   0.027   1.005
 6060W        W 9804   0.053   1.135   1.380
 6061W        W 9805   0.701   5.225  10.402
 6062W        W 9806   6.212   5.603  10.844
 6063W        W 9807   3.148   9.165  10.909
 6064W        W 9808   9.151   6.914  11.242
 6065W        W 9809   9.817  10.463   2.270
 6066W        W 9810   3.166   7.084   8.551
 6067W        W 9811   4.983   6.620   9.436
 6068W        W 9812  10.133   4.035   2.382
 6069W        W 9813   0.072   3.696   1.677
 6070W        W 9814   7.871   7.323   3.212
 6071W        W 9815   1.315   6.429   3.233
 6072W        W 9816   0.884   4.450   0.692
 6073W        W 9817   7.952   2.147   3.379
 6074W        W 9818   7.717   7.943   8.861
 6075W        W 9819   3.601   8.072   1.198
 6076W        W 9820   7.657   5.234   2.335
 6077W        W 9821   6.104   2.331   3.178
 6078W        W 9822   2.437   2.447  10.183
 6079W        W 9823   8.603   7.280   9.975
 6080W        W 9824   4.561   8.046   9.508
 6081W        W 9825   3.640   4.064  11.990
 6082W        W 9826   2.586   2.804  11.117
 6083W        W 9827   3.380   4.156   9.846
 6084W        W 9828   0.403   8.149  11.297
 6085W        W 9829   6.619   4.331   1.430
 6086W        W 9830   3.041   6.754   1.606
 6087W        W 9831   1.196   9.912  10.077
 6088W        W 9832   0.727   1.453   8.546
 6089W        W 9833   1.504  10.227   0.879
 6090W        W 9834   8.917   4.836   1.050
 6091W        W 9835   5.292   4.286   9.867
 6092W        W 9836   4.599   2.261   0.586
 6093W        W 9837   3.144   6.573   3.324
 6094W        W 9838   8.924   2.246   9.586
 6095W        W 9839  10.172   1.724  10.970
 6096W        W 9840   1.259   7.420   3.584
 6097W        W 9841   8.368   4.201  10.489
 6098W        W 9842   0.470   9.981   9.112
 6099W        W 9843   6.197   7.639  10.819
 6100W        W 9844   0.250   7.542   9.104
 6101W        W 9845   6.245   7.816   2.858
 6102W        W 9846   8.830   1.785   0.187
 6103W        W 9847   2.601   5.088   1.014
 6104W        W 9848   8.844   6.245   2.319
 6105W        W 9849   2.722   7.212  11.119
 6106W        W 9850   4.514   0.683   1.457
 6107W        W 9851   1.927   4.656  10.693
 6108W        W 9852   0.776   5.063   3.294
 6109W        W 9853   9.331   4.120   3.413
 6110W        W 9854   0.906   5.653   0.799
 6111W        W 9855   8.613   2.727   2.719
 6112W        W 9856   1.659   6.480   1.989
 6113W        W 9857   3.749   6.592   0.372
 6114W        W 9858   8.858   4.291   3.217
 6115W        W 9859   2.390   3.394   1.309
 6116W        W 9860   7.602   9.589   3.075
 6117W        W 9861   9.671   9.614   3.515
 6118W        W 9862   6.579  10.026   9.768
 6119W        W 9863   3.141   4.162  11.834
 6120W        W 9864   8.890   0.984   1.690
 6121W        W 9865   7.867  10.337   2.289
 6122W        W 9866   6.238   0.282   3.009
 6123W        W 9867   5.949   3.175   3.666
 6124W        W 9868   9.929   0.802   0.477
 6125W        W 9869   3.334   8.882   9.789
 6126W        W 9870   7.583   9.959   2.047
 6127W        W 9871   8.783   2.198   0.982
 6128W        W 9872   0.406   8.463   9.975
 6129W        W 9873   3.233   3.575  11.423
 6130W        W 9874   1.424   4.666  10.623
 6131W        W 9875   3.842   1.848   1.272
 6132W        W 9876   5.891   3.685   3.788
 6133W        W 9877   1.333   5.076   0.230
 6134W        W 9878   1.319   3.279   9.089
 6135W        W 9879   7.612   7.505   0.782
 6136W        W 9880   3.817   4.441   2.257
 6137W        W 9881   6.183   7.694   3.487
 6138W        W 9882   6.574   9.463   0.159
 6139W        W 9883   8.093   0.699  10.202
 6140W        W 9884   4.164   7.665  11.099
 6141W        W 9885   6.647   0.711   1.715
 6142W        W 9886   7.711   8.659   0.094
 6143W        W 9887   7.469   8.381   9.048
 6144W        W 9888   8.443   2.844   3.221
 6145W        W 9889   9.305   5.725  11.162
 6146W        W 9890   3.744   4.364   9.067
 6147W        W 9891   3.350   8.504   2.246
 6148W        W 9892   1.816   8.965   1.752
 6149W        W 9893   9.808   9.001   8.916
 6150W        W 9894   5.612   0.607   0.809
 6151W        W 9895   3.713   8.361   0.771
 6152W        W 9896   8.464   2.379   9.775
 6153W        W 9897   2.319   9.787  11.037
 6154W        W 9898   8.604   1.186  11.409
 6155W        W 9899   4.005   0.753   2.895
 6156W        W 9900   6.924   7.466   0.215
 6157W        W 9901   6.532   8.313  11.870
 6158W        W 9902   4.110   4.172   2.834
 6159W        W 9903   3.309   4.578   2.156
 6160W        W 9904   7.362  10.306   2.392
 6161W        W 9905   6.027   6.683   0.277
 6162W        W 9906   3.374   4.488   9.391
 6163W        W 9907   6.546   1.692   9.162
 6164W        W 9908   5.748   5.949   0.731
 6165W        W 9909   0.314   3.347   3.000
 6166W        W 9910  10.005   1.737   0.933
 6167W        W 9911   8.443   1.387   3.214
 6168W        W 9912   6.756   0.751  10.231
 6169W        W 9913   8.769   9.314   3.462
 6170W        W 9914   4.891   2.665   3.149
 6171W        W 9915   0.589   9.523   0.170
 6172W        W 9916   4.823   2.806   1.431
 6173W        W 9917   7.542   3.741   3.372
 6174W        W 9918   6.079   0.703  11.792
 6175W        W 9919   5.954   9.379   2.217
 6176W        W 9920   8.767   2.269  10.582
 6177W        W 9921   7.604   4.104  10.890
 6178W        W 9922   9.052   8.460  11.348
 6179W        W 9923   7.427   6.147   2.236
 6180W        W 9924   2.572   7.466   1.471
 6181W        W 9925   5.266   6.472   0.666
 6182W        W 9926   1.602   9.888  11.572
 6183W        W 9927   0.871   7.530   9.801
 6184W        W 9928  10.012   5.346   0.039
 6185W        W 9929  10.326   2.337   0.032
 6186W        W 9930   6.852   6.130  10.097
 6187W        W 9931   2.480  10.378   0.741
 6188W        W 9932   3.348   2.830  10.425
 6189W        W 9933   0.336   0.292   1.478
 6190W        W 9934   5.255   6.250  11.526
 6191W        W 9935   1.732   1.637   2.859
 6192W        W 9936   3.264   7.940   9.526
 6193W        W 9937   5.334   6.031   0.365
 6194W        W 9938   1.096   3.157   9.972
 6195W        W 9939   7.348  10.168   0.176
 6196W        W 9940   7.389   0.748   2.463
 6197W        W 9941   3.663  10.429  11.719
 6198W        W 9942   0.389   6.119  10.319
 6199W        W 9943   2.723   0.794  10.551
 6200W        W 9944   4.040   5.079  11.962
 6201W        W 9945   1.207   9.812   3.849
 6202W        W 9946  10.062   8.992   1.416
 6203W        W 9947   5.782   1.565   1.002
 6204W        W 9948   1.483   5.991   0.301
 6205W        W 9949   9.629   8.108  10.283
 6206W        W 9950   4.707   4.105   3.656
 6207W        W 9951   7.303   2.809   9.960
 6208W        W 9952   5.731   7.341  10.869
 6209W        W 9953   1.161   6.127   0.724
 6210W        W 9954   2.732   5.542   3.554
 6211W        W 9955  10.262   4.225   3.424
 6212W        W 9956   2.335   5.236   9.859
 6213W        W 9957   6.762   0.310   9.989
 6214W        W 9958   5.141   3.868  10.265
 6215W        W 9959   3.780   3.752   2.876
 6216W        W 9960   0.333   6.497   2.403
 6217W        W 9961   8.809   1.368   2.020
 6218W        W 9962  10.169   1.610   2.915
 6219W        W 9963   7.006   6.524   2.786
 6220W        W 9964   9.505   1.334   9.020
 6221W        W 9965   3.832   2.673   3.478
 6222W        W 9966   6.476   8.812  11.926
 6223W        W 9967   2.065   1.720   9.597
 6224W        W 9968   3.277   8.582   0.931
 6225W        W 9969  10.407   7.701   1.898
 6226W        W 9970   1.211   2.119   0.358
 6227W        W 9971   6.208   4.196   2.635
 6228W        W 9972   9.593   8.503  11.387
 6229W        W 9973   8.459   2.633  11.441
 6230W        W 9974   9.343   7.406  10.599
 6231W        W 9975   3.682   9.243   3.403
 6232W        W 9976   5.932   8.065   3.218
 6233W        W 9977   3.527   4.875   1.011
 6234W        W 9978   4.312   9.833   9.373
 6235W        W 9979   2.246   3.503   9.329
 6236W        W 9980   7.420   1.901   3.444
 6237W        W 9981   2.321   8.847   9.080
 6238W        W 9982   9.452   1.737  10.008
 6239W        W 9983   5.926   7.369  11.790
 6240W        W 9984   7.881  10.371  11.437
 6241W        W 9985   0.605   8.187   1.986
 6242W        W 9986  10.317   7.805   2.404
 6243W        W 9987   9.015   4.525   0.105
 6244W        W 9988   3.846   6.154   1.792
 6245W        W 9989   0.845   2.609   2.484
 6246W        W 9990  10.342   9.549  10.962
 6247W        W 9991   2.826   1.100   1.795
 6248W        W 9992   9.645   5.962   9.965
 6249W        W 9993   9.453   1.194  11.433
 6250W        W 9994   1.498   5.459   3.468
 6251W        W 9995   1.446   3.207   1.618
 6252W        W 9996   6.018   9.808   2.484
 6253W        W 9997   5.811   8.711   2.730
 6254W        W 9998   7.165   0.897   1.595
 6255W        W 9999   6.932   5.641   9.355
 6256W        W10000   7.603   1.562  10.543
 6257W        W10001   2.138   2.973   3.001
 6258W        W10002   8.838  10.195   2.226
 6259W        W10003   1.009   7.929  10.465
 6260W        W10004   0.409   6.665   9.852
 6261W        W10005   4.079   7.013  10.818
 6262W        W10006  10.001   0.884  11.465
 6263W        W10007   5.172   1.679   9.246
 6264W        W10008   5.062   6.082  10.067
 6265W        W10009   2.822   7.627  10.597
 6266W        W10010   3.480   7.624   8.494
 6267W        W10011   6.461   4.165   3.137
 6268W        W10012   5.906  10.338   2.463
 6269W        W10013  10.253   4.091   9.180
 6270W        W10014   9.769   5.189   2.982
 6271W        W10015   9.863   3.177   1.961
 6272W        W10016   1.792   9.377   9.517
 6273W        W10017   0.402   0.847  11.561
 6274W        W10018  10.247   3.247   2.462
 6275W        W10019   9.343   6.587   3.538
 6276W        W10020   0.011   4.679   9.054
 6277W        W10021   0.791   1.452   9.464
 6278W        W10022   8.079   7.891   1.308
 6279W        W10023   6.270   7.878   1.766
 6280W        W10024   9.247   0.730  10.969
 6281W        W10025   6.513   6.894  10.081
 6282W        W10026   7.065  10.253   3.349
 6283W        W10027   4.308   4.291   2.389
 6284W        W10028   0.901   0.814  10.752
 6285W        W10029   0.923   4.612   3.476
 6286W        W10030   8.475   7.702   2.311
 6287W        W10031   0.464   2.557   0.709
 6288W        W10032   8.579   7.462   1.873
 6289W        W10033   2.246   1.452   2.747
 6290W        W10034   9.556   1.944  10.484
 6291W        W10035   9.086   7.634  11.905
 6292W        W10036   9.376   8.419   1.268
 6293W        W10037   1.322   8.022   1.437
 6294W        W10038   4.416   9.030   2.964
 6295W        W10039   6.738   1.360  11.034
 6296W        W10040   0.407   3.751   2.060
 6297W        W10041   9.368   6.729   8.989
 6298W        W10042  10.449   2.265  11.554
 6299W        W10043   1.604   0.821  11.893
 6300W        W10044   5.212   3.332  10.296
 6301W        W10045   3.783   7.389  11.884
 6302W        W10046  10.481   3.598  10.444
 6303W        W10047   1.921   0.049   0.049
 6304W        W10048   7.411   1.669   0.277
 6305W        W10049   7.417   9.287   0.678
 6306W        W10050  10.443   9.628   9.115
 6307W        W10051   7.826   6.968   2.422
 6308W        W10052   2.642   1.649   3.170
 6309W        W10053   7.021   0.722   2.086
 6310W        W10054  10.232   4.654   9.499
 6311W        W10055   7.952   5.651  11.294
 6312W        W10056   5.685   0.767   2.014
 6313W        W10057  10.084   5.702   8.538
 6314W        W10058   1.732   1.196  10.364
 6315W        W10059   9.436   1.601  11.808
 6316W        W10060   8.163   4.541  11.686
 6317W        W10061   1.620   8.997  11.001
 6318W        W10062   7.358   4.322  10.477
 6319W        W10063  10.487   1.904   0.983
 6320W        W10064   2.394   9.098   9.530
 6321W        W10065   6.784   5.091  10.605
 6322W        W10066   7.432   3.619  10.949
 6323W        W10067   8.905   7.488  11.424
 6324W        W10068   7.868   5.072   9.594
 6325W        W10069   7.427   4.230   2.174
 6326W        W10070   1.923   8.430   0.842
 6327W        W10071   4.552   0.703   9.558
 6328W        W10072   9.959   1.784  11.955
 6329W        W10073   3.712   9.099   9.536
 6330W        W10074   2.214   9.953  10.082
 6331W        W10075   4.830   1.767   2.457
 6332W        W10076   9.046   3.721   0.774
 6333W        W10077   0.429   3.156   1.975
 6334W        W10078  10.462   5.070   0.084
 6335W        W10079   8.885   6.478  11.209
 6336W        W10080   8.851   8.507   8.905
 6337W        W10081   1.467   7.011   2.277
 6338W        W10082   2.634   7.343   8.183
 6339W        W10083   0.295   7.653  11.382
 6340W        W10084   2.229  10.230   0.300
 6341W        W10085   4.071   1.795   1.719
 6342W        W10086   5.654   2.149   2.374
 6343W        W10087   7.553   7.492   9.450
 6344W        W10088   5.091   2.117   9.020
 6345W        W10089   9.038   6.200  11.985
 6346W        W10090   5.315   6.771   3.599
 6347W        W10091   9.311   3.851   9.636
 6348W        W10092   5.357   4.756  10.626
 6349W        W10093   2.201   9.821   1.932
 6350W        W10094   3.473   6.636   1.832
 6351W        W10095   6.638   3.273   9.621
 6352W        W10096   6.001   0.752   9.065
 6353W        W10097   1.645   1.841   3.326
 6354W        W10098   4.354  10.438   8.648
 6355W        W10099   4.604   7.615  11.965
 6356W        W10100   2.256   6.479  11.105
 6357W        W10101   1.010  10.434  11.058
 6358W        W10102   2.195   2.046  11.637
 6359W        W10103   2.378   3.306   1.828
 6360W        W10104   6.481   2.108   3.441
 6361W        W10105   5.107   6.911   1.840
 6362W        W10106   5.443   2.558   0.826
 6363W        W10107   1.876   6.704   8.837
 6364W        W10108   5.586   9.752   0.461
 6365W        W10109   1.854   2.298   1.862
 6366W        W10110   6.489   4.040  11.364
 6367W        W10111   5.049  10.367  10.281
 6368W        W10112   7.994   4.604   3.440
 6369W        W10113   8.537   3.163   8.703
 6370W        W10114   1.328  10.388   8.763
 6371W        W10115  10.358  10.029   9.578
 6372W        W10116   0.784   0.711   2.744
 6373W        W10117   5.936   9.094   1.218
 6374W        W10118   4.296   0.522   0.208
 6375W        W10119   1.064   4.685  10.980
 6376W        W10120   7.568   6.382  10.882
 6377W        W10121   0.447   5.647  10.512
 6378W        W10122   7.650   5.743   3.084
 6379W        W10123   3.987   9.608   2.457
 6380W        W10124   1.808   5.082   0.409
 6381W        W10125   1.566   7.582   9.091
 6382W        W10126   6.165   2.806   1.674
 6383W        W10127   3.183  10.195  10.005
 6384W        W10128   6.642   8.880  10.537
 6385W        W10129   8.954  10.329   3.207
 6386W        W10130   6.270   7.059   2.311
 6387W        W10131   1.405   2.283   3.246
 6388W        W10132   8.776  10.002  10.015
 6389W        W10133   1.581   1.189   0.382
 6390W        W10134   3.636   8.979   0.074
 6391W        W10135   5.944   7.178   8.680
 6392W        W10136   8.313   4.160  11.375
 6393W        W10137   7.578   6.922  10.919
 6394W        W10138   0.012   8.389   9.625
 6395W        W10139   8.320   0.957   2.420
 6396W        W10140   9.782   7.604  11.419
 6397W        W10141  10.243   2.241   9.559
 6398W        W10142   4.002   0.948   8.468
 6399W        W10143   6.573   0.434  11.045
 6400W        W10144   7.571   1.793   8.977
 6401W        W10145   8.470   1.786   9.123
 6402W        W10146   2.689   6.098  11.537
 6403W        W10147   0.852   7.002   3.021
 6404W        W10148  10.220   5.345   2.797
 6405W        W10149   3.562   0.955   9.606
 6406W        W10150   9.901   4.950   1.677
 6407W        W10151   8.122   7.083   9.950
 6408W        W10152   7.296   8.740  11.272
 6409W        W10153   1.900  10.016  11.967
 6410W        W10154   7.980   7.538   8.107
 6411W        W10155   4.613   8.494  10.833
 6412W        W10156   3.052   8.537   1.828
 6413W        W10157   9.783   6.514   2.703
 6414W        W10158   0.813   3.776  10.352
 6415W        W10159   1.345   6.733   1.309
 6416W        W10160   5.215   1.397   0.501
 6417W        W10161  10.398   4.165   0.282
 6418W        W10162   0.712   1.695  11.165
 6419W        W10163   3.675   4.601  10.273
 6420W        W10164   4.398   2.362   9.837
 6421W        W10165   3.955   2.322   3.102
 6422W        W10166   1.163   6.662  10.264
 6423W        W10167   8.762   8.001   8.836
 6424W        W10168   0.634   8.005   9.979
 6425W        W10169   8.486  10.024   9.272
 6426W        W10170   1.313   8.726   0.583
 6427W        W10171   5.549   2.875   8.692
 6428W        W10172   4.379   8.065   1.459
 6429W        W10173   8.265   3.258   2.948
 6430W        W10174  10.361   5.151   1.502
 6431W        W10175   3.550   1.824   1.710
 6432W        W10176   0.936   6.933  11.580
 6433W        W10177   8.322   2.150   0.822
 6434W        W10178   4.609   5.993  10.946
 6435W        W10179   8.304   8.884  11.352
 6436W        W10180   1.830   9.920   2.640
 6437W        W10181   7.191   1.356  10.799
 6438W        W10182   4.615   9.625   1.848
 6439W        W10183   7.653   0.057   2.750
 6440W        W10184   6.947   6.295   0.494
 6441W        W10185   2.977   6.419   0.230
 6442W        W10186   5.115   7.162   3.327
 6443W        W10187   4.259  10.327  10.941
 6444W        W10188   0.699  10.456   2.380
 6445W        W10189   5.344   8.807   2.893
 6446W        W10190   6.062   4.203   8.377
 6447W        W10191   3.347   0.533   9.049
 6448W        W10192   0.848   4.344   1.202
 6449W        W10193   1.683   1.345  11.860
 6450W        W10194   0.538   6.646  11.454
 6451W        W10195   0.497   2.429   9.478
 6452W        W10196   8.131  10.042  11.746
 6453W        W10197   5.129   2.853  10.432
 6454W        W10198  10.473   3.800  10.951
 6455W        W10199   8.065   1.941   1.364
 6456W        W10200   6.726   2.711  10.862
 6457W        W10201   2.300   8.067   0.926
 6458W        W10202   3.180   6.621  10.803
 6459W        W10203   1.866   9.115  11.500
 6460W        W10204   6.693   9.846  10.930
 6461W        W10205   4.234   2.007  11.600
 6462W        W10206   1.640   7.008   0.496
 6463W        W10207   8.954   3.131  11.540
 6464W        W10208   1.345   0.229   1.453
 6465W        W10209   4.665   3.561   3.947
 6466W        W10210   2.259   8.783  11.348
 6467W        W10211   2.796   2.359   1.939
 6468W        W10212   1.407   5.700   0.943
 6469W        W10213   9.140   4.181   9.999
 6470W        W10214   9.854   2.364   9.255
 6471W        W10215   0.554   2.748  10.525
 6472W        W10216   0.869   2.168   2.729
 6473W        W10217   0.937   5.714   2.226
 6474W        W10218   4.861   8.640   1.191
 6475W        W10219   7.575   0.460   1.761
 6476W        W10220   2.156   6.026   0.850
 6477W        W10221   9.348   6.899   9.494
 6478W        W10222   7.022   9.756   9.515
 6479W        W10223   3.271   5.755   1.323
 6480W        W10224   8.433   4.127   1.879
 6481W        W10225   2.280   0.958   9.159
 6482W        W10226   2.410   4.537  10.819
 6483W        W10227   1.797   9.501  11.879
 6484W        W10228   4.363   8.447   8.567
 6485W        W10229   6.028   2.528   2.710
 6486W        W10230   7.267   0.399  10.911
 6487W        W10231   0.175  10.252   1.411
 6488W        W10232   0.258  10.207   2.223
 6489W        W10233   1.326   4.761   0.664
 6490W        W10234   8.071   9.767   1.886
 6491W        W10235   8.876   3.021   1.941
 6492W        W10236   7.439   9.489   1.163
 6493W        W10237   6.256   9.612   9.555
 6494W        W10238   3.592   9.368   9.951
 6495W        W10239   1.673   2.453   1.351
 6496W        W10240   7.367   7.051   9.629
 6497W        W10241   4.271   7.472   9.474
 6498W        W10242   1.909   7.240   2.411
 6499W        W10243   6.443   7.408   0.918
 6500W        W10244   1.387   9.358   8.753
 6501W        W10245   4.611   4.131   1.717
 6502W        W10246   6.651   9.519   9.865
 6503W        W10247   0.507   5.515   3.242
 6504W        W10248   2.283  10.313  11.776
 6505W        W10249   6.032   1.385   1.439
 6506W        W10250   6.204   5.203   0.511
 6507W        W10251   5.296   6.122   8.242
 6508W        W10252   0.900   3.878  11.267
 6509W        W10253   3.068   7.565   1.393
 6510W        W10254   7.523   5.272  11.910
 6511W        W10255   5.718   1.287  11.283
 6512W        W10256   7.823   2.260   1.851
 6513W        W10257   4.505   7.695   3.231
 6514W        W10258   3.808   4.531  10.778
 6515W        W10259   9.547   5.655  10.635
 6516W        W10260   5.991   2.186   1.780
 6517W        W10261   2.147   7.502   9.057
 6518W        W10262   0.190   7.345   1.542
 6519W        W10263   1.986   6.044   0.347
 6520W        W10264   5.660   4.355  10.514
 6521W        W10265   2.235   8.192   3.100
 6522W        W10266   7.461   1.361   2.234
 6523W        W10267   2.392   3.261   8.893
 6524W        W10268   6.429   5.700   1.393
 6525W        W10269   5.107   9.960   0.444
 6526W        W10270   4.643   2.337   2.356
 6527W        W10271  10.051   9.561   0.694
 6528W        W10272   4.167   7.701   2.345
 6529W        W10273   8.977   6.726   9.799
 6530W        W10274   7.890   8.453  10.402
 6531W        W10275   8.152   3.665   1.931
 6532W        W10276   8.348   5.257  11.377
 6533W        W10277   3.291   2.294   1.819
 6534W        W10278   0.342   9.468  11.730
 6535W        W10279   5.968   3.308   0.428
 6536W        W10280   3.837   6.557   1.454
 6537W        W10281   5.601   7.548   2.379
 6538W        W10282   7.468   6.055   0.326
 6539W        W10283   6.562   9.856  10.277
 6540W        W10284   7.385   0.656   0.307
 6541W        W10285   0.829   7.335   1.735
 6542W        W10286   5.078   3.746   3.682
 6543W        W10287   1.002   9.452   0.904
 6544W        W10288   5.045   5.143   2.415
 6545W        W10289   5.147   6.528   3.153
 6546W        W10290   4.755   6.254  11.388
 6547W        W10291   9.151   7.431   3.896
 6548W        W10292  10.319   4.123  11.730
 6549W        W10293   3.576   2.706   9.001
 6550W        W10294   2.104   5.130   0.829
 6551W        W10295   7.003   0.627   3.457
 6552W        W10296   1.767  10.015   3.155
 6553W        W10297   6.700   1.715  11.452
 6554W        W10298   1.153   5.140  10.779
 6555W        W10299   9.915   0.767   2.708
 6556W        W10300   0.660   9.334   3.250
 6557W        W10301   6.095   9.161  10.511
 6558W        W10302   7.411   1.171   0.346
 6559W        W10303   9.913   2.669   1.310
 6560W        W10304   9.750   4.263   2.661
 6561W        W10305   9.076   6.531   1.650
 6562W        W10306   8.831   3.114   2.948
 6563W        W10307   3.713   2.291   9.250
 6564W        W10308   1.281   6.253   9.952
 6565W        W10309   0.357  10.031   2.706
 6566W        W10310   8.964   0.739   8.522
 6567W        W10311   8.484   3.191  11.389
 6568W        W10312  10.371   0.398  10.473
 6569W        W10313   5.081   5.096   2.922
 6570W        W10314   6.464   0.857   9.825
 6571W        W10315   9.415   9.016   9.235
 6572W        W10316   8.952   5.525  10.257
 6573W        W10317  10.485   7.156  11.738
 6574W        W10318   3.855   1.885   2.181
 6575W        W10319   4.421   8.212   3.186
 6576W        W10320   7.964   8.381   1.204
 6577W        W10321   5.573   2.726   2.926
 6578W        W10322   5.194   4.007  11.249
 6579W        W10323   7.980   7.884   0.348
 6580W        W10324   7.168   9.680  11.019
 6581W        W10325   7.607   4.948   2.750
 6582W        W10326   5.684  10.420   9.453
 6583W        W10327   0.042   7.662   1.112
 6584W        W10328   6.204   1.579  11.510
 6585W        W10329   0.489   9.275   9.638
 6586W        W10330   0.475  10.398   1.789
 6587W        W10331   5.672   2.300   3.447
 6588W        W10332   8.363   4.941   3.484
 6589W        W10333   0.842   4.842   1.001
 6590W        W10334   4.631   1.287   3.131
 6591W        W10335   5.509   0.862   9.003
 6592W        W10336   5.114   7.571   4.031
 6593W        W10337   6.131   1.928   2.302
 6594W        W10338   2.200   2.417   2.827
 6595W        W10339   5.285   1.882   3.413
 6596W        W10340   8.654   6.937   0.209
 6597W        W10341   9.424   0.554   2.727
 6598W        W10342   9.392   3.083  11.780
 6599W        W10343   0.878   4.158   8.443
 6600W        W10344   4.786   5.601   0.801
 6601W        W10345   2.305   7.944   9.305
 6602W        W10346   5.015   5.618   2.166
 6603W        W10347  10.026   7.897  11.739
 6604W        W10348  10.237   8.694   8.731
 6605W        W10349   6.699   8.070   0.996
 6606W        W10350   1.280   9.449   9.775
 6607W        W10351   0.657   4.312  10.344
 6608W        W10352   5.590   3.083   4.096
 6609W        W10353   1.489   6.303  10.456
 6610W        W10354   8.161   4.200   8.202
 6611W        W10355   6.917   4.795  11.371
 6612W        W10356   0.086   8.797   1.206
 6613W        W10357   7.682   4.088   8.851
 6614W        W10358   9.035   5.253   1.480
 6615W        W10359   0.916   9.343   8.978
 6616W        W10360   6.946   8.859   2.365
 6617W        W10361   3.075   3.707   8.777
 6618W        W10362   4.124   2.634  10.152
 6619W        W10363   4.346   1.904   2.344
 6620W        W10364   0.292   9.083   2.967
 6621W        W10365   1.838   4.141  11.250
 6622W        W10366   9.294   7.039   0.957
 6623W        W10367   6.109   0.406   2.001
 6624W        W10368   7.471   3.773   1.203
 6625W        W10369   0.776   8.126   1.525
 6626W        W10370   5.581   3.865  10.509
 6627W        W10371  10.292   8.679   9.242
 6628W        W10372   8.108  10.301   2.741
 6629W        W10373   2.306   5.279   9.096
 6630W        W10374   8.557   6.122  11.823
 6631W        W10375   4.777   7.914   1.827
 6632W        W10376   2.394   4.977   8.620
 6633W        W10377   0.317   2.133  10.305
 6634W        W10378   6.421   6.528   9.376
 6635W        W10379   6.100  10.191  10.407
 6636W        W10380   8.889   0.384   9.655
 6637W        W10381   1.889   7.844   3.221
 6638W        W10382   2.612   6.055   2.385
 6639W        W10383   5.214   2.901   1.116
 6640W        W10384   2.810   1.505  11.201
 6641W        W10385   3.510   1.019  10.947
 6642W        W10386   5.523   3.838   3.451
 6643W        W10387  10.057   3.403  11.788
 6644W        W10388   3.073   8.976   1.244
 6645W        W10389   1.685   8.051  10.989
 6646W        W10390   8.769   5.979  10.454
 6647W        W10391   7.987   5.899   9.973
 6648W        W10392   3.534   1.899  11.043
 6649W        W10393   5.289   9.047   3.408
 6650W        W10394   9.347   9.870  11.645
 6651W        W10395   4.979   9.708   9.495
 6652W        W10396   3.385   5.946  11.351
 6653W        W10397   8.499   0.986  10.014
 6654W        W10398   5.252   2.626  10.925
 6655W        W10399   7.966   9.878   1.345
 6656W        W10400   4.883   7.790   2.759
 6657W        W10401   1.419   1.337  10.789
 6658W        W10402   4.239   8.730   2.221
 6659W        W10403   6.522   2.734   0.401
 6660W        W10404   2.244   5.617  10.964
 6661W        W10405   5.995   5.164  10.639
 6662W        W10406   1.455   9.724   0.833
 6663W        W10407   7.372   2.847   3.235
 6664W        W10408   1.903   5.397   1.238
 6665W        W10409   4.588   9.468  11.443
 6666W        W10410  10.092  10.500  10.980
 6667W        W10411   7.412   0.343  11.811
 6668W        W10412   3.676   5.859  10.944
 6669W        W10413   0.779   0.816   1.770
 6670W        W10414   3.958   1.822   2.691
 6671W        W10415  10.076   3.648   9.388
 6672W        W10416   9.444   6.006  11.761
 6673W        W10417   4.011   0.108   0.350
 6674W        W10418   7.942   9.226   1.862
 6675W        W10419   7.491   3.558  11.477
 6676W        W10420   6.203   4.707   2.579
 6677W        W10421  10.220   7.459   1.449
 6678W        W10422   8.026   1.311  10.630
 6679W        W10423   6.712   3.882   2.802
 6680W        W10424   2.620   9.950  10.476
 6681W        W10425   9.400   2.031   9.589
 6682W        W10426   0.225   0.666   1.849
 6683W        W10427   8.934   6.060   1.841
 6684W        W10428   4.615   5.959   9.845
 6685W        W10429   7.037   6.034   2.612
 6686W        W10430   1.466   6.255   9.478
 6687W        W10431   2.821   1.877   2.196
 6688W        W10432   7.322   2.339  10.280
 6689W        W10433   3.334   6.311  10.421
 6690W        W10434   0.811   4.091  10.774
 6691W        W10435   9.641   5.903   9.059
 6692W        W10436   8.554   6.574   2.839
 6693W        W10437   2.138   0.473   1.793
 6694W        W10438   9.388  10.266   1.628
 6695W        W10439   9.804   8.158   1.219
 6696W        W10440   6.353   9.106   9.646
 6697W        W10441   3.178   8.779   8.774
 6698W        W10442   1.741   2.672   2.740
 6699W        W10443   9.333   8.481   0.764
 6700W        W10444   4.292   0.256   3.244
 6701W        W10445   2.205   5.253   2.399
 6702W        W10446   1.768   0.709   9.828
 6703W        W10447   3.069   2.272  11.617
 6704W        W10448   2.566   4.025   8.503
 6705W        W10449   8.008   9.586  11.926
 6706W        W10450   5.050   0.791  10.414
 6707W        W10451   9.279   3.007   2.308
 6708W        W10452   1.422   8.411   9.792
 6709W        W10453   2.685   4.164   1.008
 6710W        W10454  10.381   1.265   9.484
 6711W        W10455   7.177   0.257   2.646
 6712W        W10456   1.378   6.969  11.224
 6713W        W10457   5.900   5.719   1.964
 6714W        W10458   2.724   7.016   1.320
 6715W        W10459   2.186   1.447  10.462
 6716W        W10460   4.945   4.588  11.968
 6717W        W10461   4.258   3.285   9.479
 6718W        W10462   8.073   0.172  10.084
 6719W        W10463   8.966   8.391   1.560
 6720W        W10464   6.662   2.743   1.468
 6721W        W10465   4.373   8.764   0.368
 6722W        W10466   2.391   8.996   2.507
 6723W        W10467   1.266   0.929   1.628
 6724W        W10468   7.133   5.701  11.113
 6725W        W10469   8.361   2.358   3.012
 6726W        W10470  10.169  10.462   9.311
 6727W        W10471   1.190   9.526   2.642
 6728W        W10472   2.633   2.855   9.906
 6729W        W10473   3.357   7.613  10.784
 6730W        W10474   0.988   1.072   9.745
 6731W        W10475   3.875   8.713   0.430
 6732W        W10476   6.084  10.186  11.827
 6733W        W10477   5.214   9.049   2.462
 6734W        W10478   5.173   2.380   2.238
 6735W        W10479   7.076   6.194   1.828
 6736W        W10480   1.407   0.260   3.274
 6737W        W10481   5.001   7.634   3.524
 6738W        W10482   5.207   5.677   9.818
 6739W        W10483   7.650   3.291   3.609
 6740W        W10484  10.186   0.308   2.200
 6741W        W10485   6.531   9.259   1.563
 6742W        W10486   5.100   9.979   9.959
 6743W        W10487   3.792   0.512   1.493
 6744W        W10488   5.727   5.048   0.000
 6745W        W10489   4.191   1.905   9.753
 6746W        W10490   8.053   5.238   0.686
 6747W        W10491   2.176   4.287   8.962
 6748W        W10492   7.049   3.306   9.906
 6749W        W10493   7.007   0.616   9.099
 6750W        W10494   5.660   7.337  10.091
 6751W        W10495   5.923   0.891  11.002
 6752W        W10496   4.976   7.066   8.530
 6753W        W10497   1.792   0.474   3.519
 6754W        W10498   5.521   6.000  11.891
 6755W        W10499   7.469   5.932   9.882
 6756W        W10500   9.232   4.177   9.076
 6757W        W10501   4.762   2.758   3.622
 6758W        W10502   5.128   5.136   3.432
 6759W        W10503   3.426   3.309   0.328
 6760W        W10504   0.885   4.580   9.966
 6761W        W10505   2.840   6.203  10.012
 6762W        W10506   8.295   5.064  10.531
 6763W        W10507   2.341   9.457   1.110
 6764W        W10508   6.248   0.834   3.165
 6765W        W10509   7.963   4.058   1.645
 6766W        W10510   1.769   7.394   3.541
 6767W        W10511   8.925   8.956   9.133
 6768W        W10512   5.150   4.014   1.904
 6769W        W10513  10.252   0.038  11.858
 6770W        W10514   7.932   6.107   0.515
 6771W        W10515   1.867   4.653   1.895
 6772W        W10516   9.925   8.599   2.019
 6773W        W10517   0.614   5.519   9.222
 6774W        W10518   4.035   2.760  11.003
 6775W        W10519   4.717   1.540   9.421
 6776W        W10520   8.745   0.016  10.014
 6777W        W10521   1.264   5.922   9.079
 6778W        W10522   0.417   3.974  11.469
 6779W        W10523   1.303   7.501   1.670
 6780W        W10524   8.053   2.783   9.223
 6781W        W10525   4.938   1.009  10.858
 6782W        W10526   4.088  10.409  10.444
 6783W        W10527   2.689   2.891   1.746
 6784W        W10528   3.219   3.632   9.294
 6785W        W10529   3.697   3.096   2.684
 6786W        W10530   6.587   8.005  10.758
 6787W        W10531   0.318   5.033   2.370
 6788W        W10532   7.024   6.445   2.277
 6789W        W10533   8.310   8.409  10.100
 6790W        W10534   0.426   3.735   9.026
 6791W        W10535   9.714   2.316  10.807
 6792W        W10536   2.225   2.949  10.201
 6793W        W10537   0.734   4.880  11.319
 6794W        W10538   2.261   1.950   2.621
 6795W        W10539   1.005   5.455   2.692
 6796W        W10540   3.609   5.333   1.274
 6797W        W10541   5.653   0.488   8.670
 6798W        W10542   5.621   0.390  10.159
 6799W        W10543   5.554   7.993   0.774
 6800W        W10544   5.241   0.770   1.154
 6801W        W10545   1.289   4.632   1.167
 6802W        W10546   1.440   6.604   0.813
 6803W        W10547   5.616   8.579   9.152
 6804W        W10548   4.306   2.212   2.755
 6805W        W10549   9.582   5.125  11.840
 6806W        W10550   0.701   0.321   0.970
 6807W        W10551   9.467   1.400   0.609
 6808W        W10552   6.438   3.684   9.414
 6809W        W10553   5.036   8.177   2.366
 6810W        W10554   9.462   1.353   3.038
 6811W        W10555   3.294   7.400   0.713
 6812W        W10556   7.969   3.810   8.499
 6813W        W10557   5.786   1.822   3.657
 6814W        W10558   8.452   0.822  10.537
 6815W        W10559   0.182   2.043   9.361
 6816W        W10560   3.832   7.605   8.932
 6817W        W10561   0.975   6.600  11.201
 6818W        W10562   6.376   8.777   1.678
 6819W        W10563   7.065   8.175  11.019
 6820W        W10564   0.318   9.755   9.575
 6821W        W10565   8.361   4.581   9.880
 6822W        W10566   2.127  10.374   2.667
 6823W        W10567   5.553   1.671  10.027
 6824W        W10568   0.464  10.402   3.165
 6825W        W10569   5.071   7.468   0.065
 6826W        W10570   2.665  10.347   9.498
 6827W        W10571   3.740   7.153   0.335
 6828W        W10572   4.037   5.686   1.368
 6829W        W10573   4.062   5.790   0.547
 6830W        W10574   1.385   0.453   8.650
 6831W        W10575   4.723   8.593   3.036
 6832W        W10576   9.038   5.372   2.344
 6833W        W10577   4.738   6.463   9.925
 6834W        W10578   8.484   9.831   1.528
 6835W        W10579   1.413   4.678   2.681
 6836W        W10580   1.689   5.506  10.179
 6837W        W10581   6.356   4.645   1.010
 6838W        W10582   3.030   7.688   8.149
 6839W        W10583   7.359   6.184   1.281
 6840W        W10584   6.893   1.299   9.344
 6841W        W10585   0.868   8.811  11.401
 6842W        W10586   3.061   0.296  11.328
 6843W        W10587   5.103   5.220  10.599
 6844W        W10588   3.480   0.012   2.340
 6845W        W10589   3.711  10.382   1.221
 6846W        W10590   8.986   2.731   9.741
 6847W        W10591   7.059   9.424   0.342
 6848W        W10592   7.661   8.374   1.917
 6849W        W10593   2.828   6.420   0.715
 6850W        W10594   5.734   0.930   3.529
 6851W        W10595   3.128   5.515   9.235
 6852W        W10596   6.198   3.463  10.346
 6853W        W10597   2.157   6.312   2.346
 6854W        W10598   6.483   9.724   0.600
 6855W        W10599   1.856   3.624   3.198
 6856W        W10600   2.669   9.994   0.398
 6857W        W10601   1.774   0.905  10.813
 6858W        W10602   4.182   1.454   1.316
 6859W        W10603   3.493   9.040  11.609
 6860W        W10604   1.065   2.736  10.698
 6861W        W10605   0.745   5.991   9.038
 6862W        W10606   0.548   8.698   0.441
 6863W        W10607   7.732   7.871   1.871
 6864W        W10608   8.947   9.342   2.995
 6865W        W10609   6.302   7.550   2.150
 6866W        W10610   0.410   6.390   1.317
 6867W        W10611   9.791   4.939   0.272
 6868W        W10612  10.258  10.049  10.407
 6869W        W10613   6.491   3.193   0.040
 6870W        W10614   0.693   1.300   2.309
 6871W        W10615   6.984   2.217   2.708
 6872W        W10616   6.726   5.226   2.165
 6873W        W10617   7.934   8.421   8.783
 6874W        W10618   3.275   4.464   0.831
 6875W        W10619   0.786   6.321   0.318
 6876W        W10620   1.504   2.448   0.593
 6877W        W10621   7.059   4.743   8.640
 6878W        W10622   6.828   7.075  10.434
 6879W        W10623   1.412   6.404   8.982
 6880W        W10624   2.340   8.970   1.996
 6881W        W10625   9.794   4.248   1.224
 6882W        W10626   9.559   8.464   9.936
 6883W        W10627   8.818   0.422  11.122
 6884W        W10628   2.092   6.887  10.515
 6885W        W10629   3.860   5.723  11.426
 6886W        W10630   1.988   7.646  10.905
 6887W        W10631   9.862   8.362   0.742
 6888W        W10632   4.498   4.531   1.988
 6889W        W10633   4.902  10.436   2.510
 6890W        W10634   9.716   7.919   9.810
 6891W        W10635   7.695   1.339  11.949
 6892W        W10636   7.595   9.147  10.236
 6893W        W10637  10.399   2.499   1.438
 6894W        W10638   0.488   0.717  10.456
 6895W        W10639   2.120   6.482   0.122
 6896W        W10640   4.148   9.776   1.990
 6897W        W10641   8.014   8.843  10.098
 6898W        W10642   2.246   6.911  11.493
 6899W        W10643   7.078   4.493   2.429
 6900W        W10644   4.638   4.093   2.734
 6901W        W10645   9.026   0.259   2.878
 6902W        W10646   9.046   1.837   1.186
 6903W        W10647   9.433   2.736  10.898
 6904W        W10648   0.353   7.132  11.392
 6905W        W10649   7.000   3.623   1.067
 6906W        W10650   3.068   0.154   8.808
 6907W        W10651   9.808   9.963   2.351
 6908W        W10652   9.596   8.153   9.356
 6909W        W10653   5.032   4.107   1.431
 6910W        W10654   9.721   9.222   0.857
 6911W        W10655   6.514   1.237   0.390
 6912W        W10656   1.406   7.365   0.152
 6913W        W10657  10.120   9.065   2.189
 6914W        W10658  10.420   6.936   1.701
 6915W        W10659   2.530   0.516   8.971
 6916W        W10660   0.427   1.187   1.833
 6917W        W10661   3.334   7.572  11.760
 6918W        W10662   8.799   0.891   2.245
 6919W        W10663   4.088   4.541   3.207
 6920W        W10664   8.930   1.013   3.451
 6921W        W10665   2.796   5.546   1.250
 6922W        W10666   8.480   6.195  10.823
 6923W        W10667   9.433   7.499   1.749
 6924W        W10668   1.694   5.073  10.453
 6925W        W10669   5.557   2.259  11.698
 6926W        W10670   2.713  10.429  10.033
 6927W        W10671   9.062   9.015   9.643
 6928W        W10672   7.235   4.101   3.785
 6929W        W10673   3.887   1.066  11.354
 6930W        W10674   2.624   1.634  10.707
 6931W        W10675   0.660   5.826   2.838
 6932W        W10676   7.614   9.133   1.501
 6933W        W10677   6.017   9.894   8.609
 6934W        W10678   6.828   6.147   3.087
 6935W        W10679   6.352   2.349   9.387
 6936W        W10680   6.328   4.351  10.028
 6937W        W10681   7.157   0.914  10.502
 6938W        W10682   7.898   0.857  11.228
 6939W        W10683   3.123   3.218   1.168
 6940W        W10684   8.372   1.399   1.663
 6941W        W10685   9.110   0.796  11.938
 6942W        W10686   7.883   1.224   1.003
 6943W        W10687   5.308   5.638   0.679
 6944W        W10688   4.550   5.146   0.617
 6945W        W10689   9.689   3.192  10.659
 6946W        W10690   3.870   4.901   1.376
 6947W        W10691   8.817   0.399  11.627
 6948W        W10692   2.601   2.488   1.302
 6949W        W10693   9.407  10.008   1.174
 6950W        W10694   5.251   7.004  11.999
 6951W        W10695   5.830   6.775   3.693
 6952W        W10696   9.438   2.925   9.906
 6953W        W10697   9.038   4.057  11.882
 6954W        W10698   6.912   2.423   0.751
 6955W        W10699   4.864   2.108   1.934
 6956W        W10700   2.479   8.337   8.263
 6957W        W10701   9.989   6.865  10.929
 6958W        W10702   1.743   7.660   1.509
 6959W        W10703   2.830   9.924  10.936
 6960W        W10704   1.106   7.188   1.333
 6961W        W10705   1.931   7.440   0.442
 6962W        W10706  10.183   3.163  10.351
 6963W        W10707   4.583   1.654  11.526
 6964W        W10708   3.555   6.356  11.041
 6965W        W10709   7.216   6.584   8.868
 6966W        W10710   2.359   8.732   0.407
 6967W        W10711   0.273   9.702   2.302
 6968W        W10712   2.329   7.492   0.778
 6969W        W10713   0.189   2.685  11.803
 6970W        W10714   6.042   8.201  11.991
 6971W        W10715   9.319   1.743  11.331
 6972W        W10716   5.028   0.524  10.974
 6973W        W10717   9.741   6.790   8.627
 6974W        W10718   1.707   7.847   0.276
 6975W        W10719   7.976   9.844   2.404
 6976W        W10720   4.775   1.623   8.350
 6977W        W10721   9.978   1.411   1.718
 6978W        W10722   6.442   8.033   9.807
 6979W        W10723  10.442   5.649  10.471
 6980W        W10724   7.087   9.924   1.262
 6981W        W10725   3.060   4.616   9.011
 6982W        W10726   5.311   2.871   2.072
 6983W        W10727   1.184   8.002   0.885
 6984W        W10728   8.983   3.962   2.877
 6985W        W10729   1.267   1.942  11.334
 6986W        W10730   7.054   1.160   2.468
 6987W        W10731   6.004   1.584   2.787
 6988W        W10732   5.738   9.063   3.117
 6989W        W10733   0.489   3.079   0.732
 6990W        W10734   8.605   2.254   1.571
 6991W        W10735   4.367   1.177   0.007
 6992W        W10736   8.947   7.021   8.963
 6993W        W10737   5.193   3.060   3.037
 6994W        W10738   5.809   1.394  11.781
 6995W        W10739   3.256   6.646   1.071
 6996W        W10740   0.451   7.550  10.088
 6997W        W10741   8.941   7.822   1.227
 6998W        W10742   0.544   0.837   3.202
 6999W        W10743   7.101   1.704   2.481
 7000W        W10744   0.181   9.911  11.408
 7001W        W10745   0.783   4.160   0.217
 7002W        W10746  10.470   2.927   2.120
 7003W        W10747   8.063   3.735  10.303
 7004W        W10748   7.031  10.363  10.397
 7005W        W10749   7.952   5.659  10.730
 7006W        W10750   7.676   3.590   0.349
 7007W        W10751   9.817   7.865   0.709
 7008W        W10752   3.272   9.280   0.288
 7009W        W10753   0.020   3.238  11.846
 7010W        W10754   9.496  10.024   0.271
 7011W        W10755   3.170   4.600   8.166
 7012W        W10756   3.413   4.467   3.161
 7013W        W10757   1.001   3.810   2.796
 7014W        W10758   9.172  10.331   9.799
 7015W        W10759   2.605   6.486   1.656
 7016W        W10760   1.423   9.783   1.366
 7017W        W10761   4.259   0.468   2.254
 7018W        W10762   9.996   6.696   1.426
 7019W        W10763   4.940   7.129   3.800
 7020W        W10764   3.845   9.033  11.222
 7021W        W10765   4.603   0.894   2.268
 7022W        W10766   0.672  10.004   9.953
 7023W        W10767   3.158   7.143  10.797
 7024W        W10768   5.774   4.666  10.917
 7025W        W10769   7.326   0.858   1.113
 7026W        W10770   4.696   6.467   0.803
 7027W        W10771   5.426   5.422   0.211
 7028W        W10772  10.335   0.815  10.203
 7029W        W10773   6.906  10.279   9.469
 7030W        W10774   3.803   1.441  10.890
 7031W        W10775   9.883   4.082   0.396
 7032W        W10776   2.830   6.680   9.814
 7033W        W10777   2.369   8.536  10.873
 7034W        W10778   9.799   3.595   0.776
 7035W        W10779   5.187   9.821   2.965
 7036W        W10780   9.210   7.436   3.396
 7037W        W10781   4.719   3.618   2.957
 7038W        W10782   9.833   6.375  10.926
 7039W        W10783   2.719   1.688   2.655
 7040W        W10784   0.360   3.583  10.097
 7041W        W10785   7.548   4.439   2.658
 7042W        W10786   2.170   2.885   2.018
 7043W        W10787   1.571   3.669   1.380
 7044W        W10788   8.978   8.350  10.835
 7045W        W10789   1.779   3.149  10.461
 7046W        W10790   7.225   3.344   3.291
 7047W        W10791   1.934   8.852   9.525
 7048W        W10792   7.357   4.538  11.525
 7049W        W10793   2.212   5.551   1.909
 7050W        W10794   8.086   1.582  11.059
 7051W        W10795   2.651   4.678  10.040
 7052W        W10796   2.928  10.234   1.716
 7053W        W10797   8.963   1.802   9.844
 7054W        W10798   6.086   3.314   9.419
 7055W        W10799  10.060   0.417   9.045
 7056W        W10800   6.180   0.644   3.619
 7057W        W10801  10.326   1.374  10.468
 7058W        W10802   3.583   9.937  11.539
 7059W        W10803   5.011   9.966  11.211
 7060W        W10804   7.574   5.034   1.852
 7061W        W10805   8.673   3.683   9.044
 7062W        W10806   6.268   0.826  10.348
 7063W        W10807   2.520   4.026   9.425
 7064W        W10808   8.522   3.362   0.008
 7065W        W10809   3.795   0.269   3.030
 7066W        W10810   9.719   0.347  10.806
 7067W        W10811   6.936   5.982  10.639
 7068W        W10812   0.888   3.847   1.869
 7069W        W10813   8.134   4.622  10.332
 7070W        W10814   1.266   3.821   2.343
 7071W        W10815   6.959   8.292   9.747
 7072W        W10816  10.044   1.817  10.443
 7073W        W10817  10.271   5.999   1.756
 7074W        W10818   5.889   0.699   2.809
 7075W        W10819   0.977   8.964   3.471
 7076W        W10820   4.084   4.091  10.793
 7077W        W10821   4.717   8.644   1.687
 7078W        W10822  10.434   3.708   3.234
 7079W        W10823   1.657   1.950   1.480
 7080W        W10824   6.623   6.239   4.051
 7081W        W10825   8.609   1.724   0.877
 7082W        W10826   0.167   0.844   0.571
 7083W        W10827   1.004   4.680   0.260
 7084W        W10828   0.160   2.195   2.318
 7085W        W10829   1.798   7.148  10.907
 7086W        W10830   8.930   7.474  10.331
 7087W        W10831   8.554   2.135  11.481
 7088W        W10832   6.547   0.979  11.942
 7089W        W10833   9.687   8.949  11.112
 7090W        W10834   2.782   9.551  11.661
 7091W        W10835   7.799   6.589   0.655
 7092W        W10836   8.503   3.710  11.554
 7093W        W10837   0.364   5.024   1.365
 7094W        W10838   3.672   4.104  11.075
 7095W        W10839   6.174   7.075  10.945
 7096W        W10840   0.807   2.195   1.740
 7097W        W10841   2.370   3.786   1.667
 7098W        W10842   0.453   1.825   3.438
 7099W        W10843   8.390   7.415  11.434
 7100W        W10844   7.592   3.761   2.055
 7101W        W10845   6.601   1.226  11.502
 7102W        W10846   2.782   7.342   2.878
 7103W        W10847   0.605   4.582  10.775
 7104W        W10848   0.786   0.934   8.716
 7105W        W10849   6.253   4.953   0.048
 7106W        W10850   3.965   2.094   0.021
 7107W        W10851   2.980  10.372   3.214
 7108W        W10852   5.822   0.454   3.250
 7109W        W10853   2.176   8.722   8.503
 7110W        W10854   1.465   1.226   3.236
 7111W        W10855   0.154   8.955  10.910
 7112W        W10856   1.075   0.914   3.127
 7113W        W10857   3.283   4.148   8.989
 7114W        W10858   8.583   1.369   0.394
 7115W        W10859   6.600   6.526   0.888
 7116W        W10860   7.386   2.267  10.883
 7117W        W10861   3.417  10.289   1.855
 7118W        W10862   9.339   1.821   0.255
 7119W        W10863   6.271   7.859   0.791
 7120W        W10864   2.700   0.557   0.203
 7121W        W10865   5.763   4.924   0.491
 7122W        W10866   6.413   8.986  10.991
 7123W        W10867   6.261   0.398   9.986
 7124W        W10868   3.138   9.304  11.390
 7125W        W10869   6.545  10.416   9.121
 7126W        W10870   6.844   4.336  10.088
 7127W        W10871  10.036   2.146   8.772
 7128W        W10872   7.568   2.213   9.297
 7129W        W10873   1.284   7.999   9.045
 7130W        W10874   8.592   1.283   8.945
 7131W        W10875   7.870   3.841   9.279
 7132W        W10876   4.280   1.813   9.251
 7133W        W10877  10.415   4.732   3.539
 7134W        W10878   9.978   1.840   2.475
 7135W        W10879   2.563   9.007   1.167
 7136W        W10880   3.701   7.593  10.277
 7137W        W10881   8.421   3.716   9.937
 7138W        W10882   2.856   2.393   9.866
 7139W        W10883  10.348   1.618   8.625
 7140W        W10884   6.554   1.962   2.029
 7141W        W10885   4.089   7.814   0.315
 7142W        W10886   0.804   3.292   8.993
 7143W        W10887   3.587   5.514   9.884
 7144W        W10888   1.767  10.412   9.528
 7145W        W10889   9.903   0.157   0.834
 7146W        W10890   5.994   0.901   8.575
 7147W        W10891   7.262   7.759  11.963
 7148W        W10892   6.737   2.712   2.311
 7149W        W10893   3.676   0.824  10.506
 7150W        W10894   2.322   8.146   3.592
 7151W        W10895   8.320   3.666   9.431
 7152W        W10896   7.903   3.244   2.104
 7153W        W10897   0.932   3.197   1.827
 7154W        W10898   7.440   8.643  10.462
 7155W        W10899   0.818   0.620   9.584
 7156W        W10900   9.081   1.947  10.318
 7157W        W10901   9.092   9.286   1.362
 7158W        W10902   4.328   2.890  10.530
 7159W        W10903   8.662   1.220   1.272
 7160W        W10904   6.957   2.693   3.505
 7161W        W10905   4.136   6.122   9.641
 7162W        W10906   2.306  10.319  11.267
 7163W        W10907   2.939   3.261   9.929
 7164W        W10908   9.035   1.269  11.719
 7165W        W10909   1.861   0.188  10.551
 7166W        W10910   1.115   2.668   3.402
 7167W        W10911   9.529   2.614  11.984
 7168W        W10912   7.125   4.191   2.857
 7169W        W10913   0.681   6.038  10.721
 7170W        W10914   6.531   1.933  11.916
 7171W        W10915   2.678   4.104  10.891
 7172W        W10916   8.289   6.964   2.621
 7173W        W10917   0.933   8.494   0.927
 7174W        W10918   1.407   0.275   9.550
 7175W        W10919   1.532   5.040   9.339
 7176W        W10920   4.080   4.337   0.561
 7177W        W10921   4.217   8.339   3.644
 7178W        W10922   6.453   6.081   9.760
 7179W        W10923   8.101   2.107   9.995
 7180W        W10924   3.228   8.948   2.472
 7181W        W10925   7.930   0.198   3.441
 7182W        W10926   3.104   3.728  10.018
 7183W        W10927   4.018  10.213  11.403
 7184W        W10928   1.165   5.925   2.876
 7185W        W10929   0.949   1.281   1.887
 7186W        W10930   8.827   8.547   9.451
 7187W        W10931   4.330   6.608   2.880
 7188W        W10932   7.530   6.068   8.865
 7189W        W10933   0.683   1.959   9.374
 7190W        W10934   3.778   0.965   1.750
 7191W        W10935   7.047   0.175   2.148
 7192W        W10936   5.825   2.898   2.064
 7193W        W10937   9.830   8.842   0.075
 7194W        W10938   1.813  10.177  10.505
 7195W        W10939   3.096   2.299   2.365
 7196W        W10940   0.668   1.353   0.056
 7197W        W10941   2.188   2.403   0.629
 7198W        W10942   7.459   4.144   9.331
 7199W        W10943   3.341   0.744  11.362
 7200W        W10944   2.662  10.327   2.726
 7201W        W10945   0.017   5.565   9.009
 7202W        W10946   4.969   1.701   2.980
 7203W        W10947   3.937   4.485   0.096
 7204W        W10948   9.331   4.534   2.379
 7205W        W10949   9.221  10.123  10.368
 7206W        W10950   9.359   0.916   0.397
 7207W        W10951   1.225   2.747   9.297
 7208W        W10952   2.590   4.223   1.901
 7209W        W10953   3.106   5.541   9.735
 7210W        W10954   2.891   8.963   9.532
 7211W        W10955   5.531   6.037  10.758
 7212W        W10956   7.712   7.822   9.833
 7213W        W10957   3.076   2.714   8.845
 7214W        W10958   5.064  10.394   8.731
 7215W        W10959   6.507  10.465   0.009
 7216W        W10960   3.829   3.170   9.763
 7217W        W10961   7.821   6.474   0.165
 7218W        W10962   6.063   2.190   8.520
 7219W        W10963   3.211   3.204  11.055
 7220W        W10964   4.756  10.146   9.360
 7221W        W10965   4.122   7.054   9.772
 7222W        W10966  10.347   9.930   2.746
 7223W        W10967   4.089   2.634   1.868
 7224W        W10968   0.517   0.846   2.222
 7225W        W10969   1.359   1.454   0.745
 7226W        W10970   2.028   1.788   1.793
 7227W        W10971   3.730  10.074   2.203
 7228W        W10972   5.638   4.870  11.395
 7229W        W10973   9.841   7.729   2.272
 7230ION    NA+10974   7.969   7.127   8.970
 7231ION    NA+10975   8.842  10.457  11.967
 7232ION    NA+10976   0.391   6.631   3.620
 7233ION    NA+10977   6.643   1.826   3.026
 7234ION    NA+10978  10.494   3.685  11.509
 7235ION    NA+10979   1.386   8.629   2.975
 7236ION    NA+10980   9.979   6.489   0.957
 7237ION    NA+10981   4.891   0.344   9.417
 7238ION    NA+10982   2.978   4.754   0.166
 7239ION    NA+10983   0.079   0.429   9.023
 7240ION    NA+10984   7.313   4.598   8.197
 7241ION    NA+10985   0.195   9.038   9.265
 7242ION    NA+10986   5.264   7.112  11.043
 7243ION    NA+10987   5.210   3.079   9.040
 7244ION    NA+10988   6.358   8.910  10.126
 7245ION    NA+10989   1.439   6.741   9.800
 7246ION    NA+10990   4.065   1.978  11.069
 7247ION    NA+10991   1.573   0.258   0.947
 7248ION    NA+10992   2.743   0.365  10.837
 7249ION    NA+10993   2.330   2.509   1.740
 7250ION    NA+10994   9.417   0.185   2.006
 7251ION    NA+10995   0.467   7.725   1.361
 7252ION    NA+10996   7.715   0.956   3.842
 7253ION    NA+10997   7.919   3.748   9.783
 7254ION    NA+10998   0.178   5.370  10.837
 7255ION    NA+10999   3.805   4.788  11.219
 7256ION    NA+11000   7.048   1.978   0.523
 7257ION    NA+11001   3.621   9.265   2.431
 7258ION    NA+11002   6.620   3.532   1.885
 7259ION    NA+11003   3.260   6.587   9.449
 7260ION    NA+11004   1.625   4.985   1.351
 7261ION    NA+11005  10.436  10.426   3.081
 7262ION    NA+11006   2.681   1.973  11.107
 7263ION    NA+11007   6.981  10.088   9.015
 7264ION    NA+11008   9.363   3.282   0.783
 7265ION    NA+11009   1.697   1.802  11.072
 7266ION    NA+11010   1.715   2.955   9.174
 7267ION    NA+11011   4.537   6.798   9.596
 7268ION    NA+11012   1.784   7.161  11.529
 7269ION    NA+11013   3.892   0.875   0.271
 7270ION    NA+11014   0.313   9.142   0.325
 7271ION    NA+11015   9.397   1.464  10.442
 7272ION    NA+11016   7.587   2.111  11.364
 7273ION    NA+11017   9.589   5.194   3.459
 7274ION    NA+11018   4.533   5.162   0.083
 7275ION    NA+11019   0.916   5.408   0.117
 7276ION    NA+11020  10.107   9.591   9.539
 7277ION    NA+11021   3.344   6.679   2.589
 7278ION    NA+11022   2.739   9.336   1.941
 7279ION    NA+11023   5.917   9.127  10.997
 7280ION    NA+11024   4.944   3.272   8.095
 7281ION    NA+11025   5.370   4.853   1.644
 7282ION    NA+11026   9.650   3.730  11.126
 7283ION    NA+11027   0.246   5.151   1.866
 7284ION    NA+11028   1.142  10.088  11.616
 7285ION    NA+11029   1.706   0.402  10.998
 7286ION    NA+11030   4.104   8.138   1.025
 7287ION    NA+11031   5.116   2.402   1.197
 7288ION    NA+11032   1.091   9.018  11.835
 7289ION    NA+11033   0.356   8.125   2.776
 7290ION    NA+11034   6.305   9.619   1.881
 7291ION    NA+11035   4.945   4.726   0.918
 7292ION    NA+11036   0.670   0.760   0.731
 7293ION    NA+11037   1.342   9.782   3.367
 7294ION    NA+11038   3.824   0.906  10.031
 7295ION    NA+11039   1.940   7.663   9.954
 7296ION    NA+11040   5.259   5.581  11.743
 7297ION    NA+11041   3.931   0.066   9.455
 7298ION    NA+11042   2.810   0.206   0.550
 7299ION    NA+11043   7.895   0.702   2.231
 7300ION    NA+11044   2.005   0.545   0.026
 7301ION    NA+11045   4.755   3.656   1.930
 7302ION    NA+11046   1.030   8.208  11.877
 7303ION    NA+11047   6.788   7.638   0.681
 7304ION    NA+11048   2.772   7.964   2.329
 7305ION    NA+11049   4.369   8.614   9.919
 7306ION    CL-11050   5.115   4.951   1.280
 7307ION    CL-11051   4.866   5.388  11.866
 7308ION    CL-11052   9.017   2.813  10.242
 7309ION    CL-11053   8.571   1.386   9.446
 7310ION    CL-11054  10.362   3.244   1.752
 7311ION    CL-11055   5.459   6.910   1.478
 7312ION    CL-11056   1.722  10.082   8.601
 7313ION    CL-11057   8.559   8.805   9.817
 7314ION    CL-11058   9.227   0.205  10.890
 7315ION    CL-11059   3.168   2.761   3.341
 7316ION    CL-11060   1.989   8.044   9.714
 7317ION    CL-11061   2.800   3.620   1.087
 7318ION    CL-11062   7.350  10.087   9.275
 7319ION    CL-11063   0.615   7.315   1.256
 7320ION    CL-11064   2.680   1.868  11.542
 7321ION    CL-11065   1.209   8.584  11.695
 7322ION    CL-11066   1.329   2.933  11.733
 7323ION    CL-11067   3.733   8.877   2.242
 7324ION    CL-11068   4.687   0.495   1.937
 7325ION    CL-11069   9.084   2.633   8.741
 7326ION    CL-11070   2.855   0.574   2.023
 7327ION    CL-11071   4.057   0.928   1.292
 7328ION    CL-11072   6.773   9.024  10.009
 7329ION    CL-11073   8.536   9.132   0.521
 7330ION    CL-11074   9.406   4.335   9.571
 7331ION    CL-11075   6.752   9.560   1.933
 7332ION    CL-11076   9.333   3.497  10.899
 7333ION    CL-11077   7.868   8.912  10.607
 7334ION    CL-11078   2.899   4.526   3.230
 7335ION    CL-11079   2.705   1.231   1.284
 7336ION    CL-11080   0.649   9.027   0.006
 7337ION    CL-11081   0.171   8.944   0.716
 7338ION    CL-11082   2.092   3.810   0.408
 7339ION    CL-11083   1.571   2.936   8.743
 7340ION    CL-11084   4.437   9.998  11.964
 7341ION    CL-11085   1.294   8.646   2.529
 7342ION    CL-11086   2.452   7.687   2.470
 7343ION    CL-11087   5.122   9.215   9.488
 7344ION    CL-11088   4.747   9.913  10.305
 7345ION    CL-11089   8.305   5.262   8.783
 7346ION    CL-11090   6.501   1.424   3.183
 7347ION    CL-11091  10.071   3.722  11.343
 7348ION    CL-11092   9.903   8.067   1.848
 7349ION    CL-11093   6.842   7.144   0.953
 7350ION    CL-11094   2.252   1.874   0.528
 7351ION    CL-11095   5.060   2.900   9.419
 7352ION    CL-11096  10.480   9.340   9.525
 7353ION    CL-11097   4.181   3.663   3.674
 7354ION    CL-11098   5.864   7.822   1.148
 7355ION    CL-11099   2.543   4.684   0.230
 7356ION    CL-11100   3.169   5.159   8.859
 7357ION    CL-11101   4.848   4.561  10.703
 7358ION    CL-11102   7.165   8.413   1.772
 7359ION    CL-11103   4.023   2.354  11.307
 7360ION    CL-11104   1.247   9.080  10.130
 7361ION    CL-11105   6.795   9.999   8.606
 7362ION    CL-11106   7.982   4.501   1.369
 7363ION    CL-11107   0.288   9.864   0.418
 7364ION    CL-11108   2.585   6.460  11.917
 7365ION    CL-11109   8.019   6.145   9.500
 7366ION    CL-11110   1.380   8.627   3.469
 7367ION    CL-11111   9.269   5.012   8.694
 7368ION    CL-11112   0.607   5.267  10.914
 7369ION    CL-11113   5.156   3.454   4.106
 7370ION    CL-11114   6.944   7.953   0.389
 7371ION    CL-11115   5.859   9.675   1.815
 7372ION    CL-11116   4.014   5.063  10.937
 7373ION    CL-11117   3.487   6.863   2.970
 7374ION    CL-11118   0.573   1.145   0.529
 7375ION    CL-11119   8.467   8.209  10.996
 7376ION    CL-11120   8.915   6.930  10.793
 7377ION    CL-11121   8.532  10.078   3.042
 7378ION    CL-11122   4.201   2.295   9.387
 7379ION    CL-11123   3.010   0.665   8.680
 7380ION    CL-11124   2.240   2.879   1.503
 7381ION    CL-11125   1.257   9.773  11.918
  10.50000  10.50000  12.00000
