Protein in INSANE! Membrane UpperLeaflet>POPC=1.0 LowerLeaflet>POPC=1.0
12914
    1AU     AUC    1   5.748   5.819   6.000
    1AU     AUC    2   6.044   5.818   5.834
    1AU     AUC    3   6.004   5.807   6.173
    1AU     AUC    4   5.476   5.809   5.836
    1AU     AUC    5   5.483   5.858   6.181
    1AU     AUC    6   5.582   6.092   5.998
    1AU     AUC    7   5.929   6.084   5.989
    1AU     AUC    8   5.556   5.552   6.001
    1AU     AUC    9   5.912   5.548   6.008
    1AU     AUC   10   5.749   5.644   6.266
    1AU     AUC   11   5.740   6.011   6.254
    1AU     AUC   12   5.748   5.657   5.733
    1AU     AUC   13   5.780   5.970   5.728
    1AU     AUC   14   6.381   5.813   5.686
    1AU     AUC   15   6.367   5.797   6.024
    1AU     AUC   16   6.297   5.783   6.377
    1AU     AUC   17   5.159   5.817   5.671
    1AU     AUC   18   5.139   5.858   6.032
    1AU     AUC   19   5.192   5.901   6.365
    1AU     AUC   20   5.430   6.415   5.965
    1AU     AUC   21   5.782   6.437   5.942
    1AU     AUC   22   6.105   6.375   5.976
    1AU     AUC   23   5.357   5.270   5.997
    1AU     AUC   24   5.686   5.210   5.968
    1AU     AUC   25   6.074   5.224   5.985
    1AU     AUC   26   5.727   5.468   6.563
    1AU     AUC   27   5.743   5.827   6.599
    1AU     AUC   28   5.771   6.186   6.546
    1AU     AUC   29   5.781   5.489   5.447
    1AU     AUC   30   5.772   5.798   5.390
    1AU     AUC   31   5.777   6.117   5.422
    1AU     AUC   32   6.015   5.583   6.494
    1AU     AUC   33   6.043   5.967   6.496
    1AU     AUC   34   6.099   5.641   5.524
    1AU     AUC   35   6.102   5.988   5.536
    1AU     AUC   36   5.445   5.707   6.515
    1AU     AUC   37   5.469   6.080   6.483
    1AU     AUC   38   5.450   5.641   5.543
    1AU     AUC   39   5.434   5.948   5.496
    1AU     AUC   40   6.292   6.098   5.835
    1AU     AUC   41   6.216   6.079   6.198
    1AU     AUC   42   5.260   6.122   5.835
    1AU     AUC   43   5.288   6.191   6.181
    1AU     AUC   44   6.254   5.502   5.855
    1AU     AUC   45   6.203   5.474   6.181
    1AU     AUC   46   5.214   5.529   5.868
    1AU     AUC   47   5.272   5.580   6.215
    1AU     AUC   48   5.608   6.362   6.250
    1AU     AUC   49   5.937   6.306   6.268
    1AU     AUC   50   5.546   5.357   6.290
    1AU     AUC   51   5.868   5.295   6.267
    1AU     AUC   52   5.581   6.246   5.683
    1AU     AUC   53   5.968   6.268   5.664
    1AU     AUC   54   5.537   5.340   5.709
    1AU     AUC   55   5.926   5.368   5.716
    1AU    AUSL   56   6.280   5.708   6.748
    1AU    AUSL   57   6.013   5.290   6.657
    1AU     AUL   58   6.311   5.305   6.850
    1AU       S   59   6.372   4.939   6.586
    1AU     LIG   60   6.252   4.784   6.955
    1AU     LIG   61   6.394   4.422   7.157
    1AU     LIG   62   6.630   4.125   7.398
    1AU     LIG   63   6.847   3.963   7.778
    1AU     LIG   64   6.913   3.666   8.129
    1AU       S   65   6.508   5.714   6.872
    1AU     LIG   66   6.390   5.722   7.318
    1AU     LIG   67   6.549   5.566   7.741
    1AU     LIG   68   6.842   5.431   8.107
    1AU     LIG   69   7.229   5.491   8.408
    1AU     LIG   70   7.502   5.609   8.785
    1AU    AUSL   71   5.867   5.617   6.912
    1AU    AUSL   72   5.615   6.016   6.938
    1AU     AUL   73   5.801   5.911   7.244
    1AU       S   74   5.987   5.533   7.074
    1AU     LIG   75   5.955   5.486   7.511
    1AU     LIG   76   6.162   5.237   7.847
    1AU     LIG   77   6.428   5.074   8.204
    1AU     LIG   78   6.447   4.854   8.631
    1AU     LIG   79   6.466   4.883   9.100
    1AU       S   80   5.390   5.748   7.130
    1AU     LIG   81   5.460   5.714   7.601
    1AU     LIG   82   5.197   5.644   7.982
    1AU     LIG   83   5.079   5.707   8.433
    1AU     LIG   84   5.121   5.996   8.826
    1AU     LIG   85   5.049   6.069   9.288
    1AU    AUSL   86   5.936   5.993   6.659
    1AU    AUSL   87   6.378   6.118   6.624
    1AU     AUL   88   6.165   6.010   6.954
    1AU       S   89   5.846   6.372   7.116
    1AU     LIG   90   6.190   6.239   7.406
    1AU     LIG   91   6.404   6.389   7.812
    1AU     LIG   92   6.368   6.487   8.298
    1AU     LIG   93   6.391   6.673   8.742
    1AU     LIG   94   6.664   6.749   9.112
    1AU       S   95   6.527   6.262   6.791
    1AU     LIG   96   6.955   6.278   6.839
    1AU     LIG   97   7.243   6.467   7.157
    1AU     LIG   98   7.460   6.670   7.529
    1AU     LIG   99   7.786   6.723   7.880
    1AU     LIG  100   8.222   6.856   8.035
    1AU    AUSL  101   6.290   5.854   5.391
    1AU    AUSL  102   6.184   6.290   5.325
    1AU     AUL  103   6.466   6.100   5.131
    1AU       S  104   6.127   6.025   4.846
    1AU     LIG  105   6.538   6.028   4.547
    1AU     LIG  106   6.694   5.746   4.209
    1AU     LIG  107   6.837   5.515   3.822
    1AU     LIG  108   7.203   5.415   3.531
    1AU     LIG  109   7.631   5.461   3.313
    1AU       S  110   6.507   6.535   5.320
    1AU     LIG  111   6.700   6.659   4.918
    1AU     LIG  112   6.938   6.822   4.534
    1AU     LIG  113   7.210   6.952   4.179
    1AU     LIG  114   7.455   7.080   3.801
    1AU     LIG  115   7.660   7.406   3.522
    1AU    AUSL  116   6.082   5.604   5.086
    1AU    AUSL  117   6.496   5.475   5.431
    1AU     AUL  118   6.458   5.631   5.155
    1AU       S  119   6.569   5.167   5.202
    1AU     LIG  120   6.680   4.793   4.902
    1AU     LIG  121   6.926   4.408   4.845
    1AU     LIG  122   7.222   4.192   4.557
    1AU     LIG  123   7.551   4.286   4.217
    1AU     LIG  124   8.006   4.402   4.090
    1AU       S  125   6.199   5.829   4.823
    1AU     LIG  126   6.305   5.525   4.516
    1AU     LIG  127   6.405   5.337   4.077
    1AU     LIG  128   6.427   5.249   3.605
    1AU     LIG  129   6.483   5.017   3.189
    1AU     LIG  130   6.714   4.896   2.783
    1AU    AUSL  131   5.889   5.973   5.259
    1AU    AUSL  132   5.656   5.591   5.199
    1AU     AUL  133   5.808   5.627   4.939
    1AU       S  134   5.361   5.650   4.782
    1AU     LIG  135   5.400   5.467   4.392
    1AU     LIG  136   5.157   5.198   4.097
    1AU     LIG  137   4.935   5.159   3.691
    1AU     LIG  138   4.953   4.961   3.253
    1AU     LIG  139   4.931   4.966   2.776
    1AU       S  140   5.973   6.080   4.951
    1AU     LIG  141   5.860   5.865   4.466
    1AU     LIG  142   6.178   5.804   4.094
    1AU     LIG  143   6.398   5.767   3.659
    1AU     LIG  144   6.468   5.861   3.179
    1AU     LIG  145   6.465   6.151   2.790
    1AU    AUSL  146   5.213   5.972   6.751
    1AU    AUSL  147   5.529   6.310   6.628
    1AU     AUL  148   5.378   6.250   6.958
    1AU       S  149   5.205   5.866   7.189
    1AU     LIG  150   5.025   5.493   7.411
    1AU     LIG  151   4.789   5.365   7.809
    1AU     LIG  152   4.576   5.317   8.245
    1AU     LIG  153   4.175   5.350   8.524
    1AU     LIG  154   3.865   5.551   8.833
    1AU       S  155   5.125   6.570   6.718
    1AU     LIG  156   5.120   6.733   7.148
    1AU     LIG  157   4.975   6.951   7.542
    1AU     LIG  158   4.829   7.314   7.807
    1AU     LIG  159   4.662   7.433   8.243
    1AU     LIG  160   4.552   7.603   8.684
    1AU    AUSL  161   5.522   5.678   6.658
    1AU    AUSL  162   5.094   5.549   6.645
    1AU     AUL  163   5.015   5.774   6.779
    1AU       S  164   4.989   5.315   6.906
    1AU     LIG  165   4.578   4.991   6.950
    1AU     LIG  166   4.191   4.751   6.994
    1AU     LIG  167   3.881   4.522   7.246
    1AU     LIG  168   3.707   4.315   7.627
    1AU     LIG  169   3.332   4.308   7.935
    1AU       S  170   5.397   5.613   7.047
    1AU     LIG  171   5.504   5.284   7.348
    1AU     LIG  172   5.291   5.188   7.757
    1AU     LIG  173   5.078   5.167   8.189
    1AU     LIG  174   4.879   4.978   8.574
    1AU     LIG  175   4.916   4.910   9.042
    1AU    AUSL  176   5.249   5.736   5.277
    1AU    AUSL  177   5.440   5.362   5.490
    1AU     AUL  178   5.417   5.363   5.139
    1AU       S  179   5.128   5.642   4.905
    1AU     LIG  180   4.903   5.552   4.510
    1AU     LIG  181   4.697   5.434   4.116
    1AU     LIG  182   4.584   5.579   3.701
    1AU     LIG  183   4.255   5.614   3.353
    1AU     LIG  184   3.912   5.647   3.007
    1AU       S  185   5.007   5.212   5.286
    1AU     LIG  186   4.751   4.847   5.132
    1AU     LIG  187   4.505   4.518   4.908
    1AU     LIG  188   4.303   4.242   4.582
    1AU     LIG  189   4.242   4.066   4.147
    1AU     LIG  190   4.273   3.865   3.718
    1AU    AUSL  191   5.519   6.016   5.048
    1AU    AUSL  192   5.020   6.086   5.416
    1AU     AUL  193   5.152   6.060   5.093
    1AU       S  194   4.752   6.258   5.257
    1AU     LIG  195   4.553   6.495   4.904
    1AU     LIG  196   4.580   6.634   4.461
    1AU     LIG  197   4.356   6.770   4.064
    1AU     LIG  198   3.945   6.872   3.832
    1AU     LIG  199   3.593   7.167   3.735
    1AU       S  200   5.448   5.893   4.774
    1AU     LIG  201   5.201   5.955   4.397
    1AU     LIG  202   5.121   5.707   4.010
    1AU     LIG  203   5.076   5.654   3.553
    1AU     LIG  204   5.106   5.821   3.110
    1AU     LIG  205   4.890   5.955   2.709
    1AU    AUSL  206   6.533   6.330   6.029
    1AU    AUSL  207   6.534   6.142   5.605
    1AU     AUL  208   6.812   6.453   5.863
    1AU       S  209   6.623   6.350   5.477
    1AU     LIG  210   6.951   6.289   5.179
    1AU     LIG  211   7.158   6.423   4.784
    1AU     LIG  212   7.455   6.705   4.554
    1AU     LIG  213   7.730   6.890   4.205
    1AU     LIG  214   7.962   7.176   3.896
    1AU       S  215   6.929   6.205   6.247
    1AU     LIG  216   7.369   6.354   6.112
    1AU     LIG  217   7.846   6.449   6.032
    1AU     LIG  218   8.285   6.622   6.035
    1AU     LIG  219   8.588   6.933   6.195
    1AU     LIG  220   8.773   7.309   6.425
    1AU    AUSL  221   6.744   5.923   5.915
    1AU    AUSL  222   6.678   5.590   6.233
    1AU     AUL  223   7.037   5.695   6.249
    1AU       S  224   6.879   6.008   5.969
    1AU     LIG  225   7.347   5.891   5.905
    1AU     LIG  226   7.837   5.978   5.830
    1AU     LIG  227   8.289   6.172   5.746
    1AU     LIG  228   8.737   6.274   5.537
    1AU     LIG  229   9.112   6.369   5.271
    1AU       S  230   6.939   5.288   6.059
    1AU     LIG  231   7.341   5.058   6.187
    1AU     LIG  232   7.771   4.839   6.259
    1AU     LIG  233   8.235   4.678   6.262
    1AU     LIG  234   8.698   4.836   6.302
    1AU     LIG  235   9.150   4.752   6.472
    1AU    AUSL  236   6.440   5.949   6.238
    1AU    AUSL  237   6.184   6.336   6.289
    1AU     AUL  238   6.513   6.395   6.336
    1AU       S  239   6.505   6.565   6.763
    1AU     LIG  240   6.878   6.781   6.953
    1AU     LIG  241   7.227   7.005   7.183
    1AU     LIG  242   7.385   7.423   7.364
    1AU     LIG  243   7.537   7.889   7.399
    1AU     LIG  244   7.897   8.149   7.572
    1AU       S  245   6.780   6.034   6.393
    1AU     LIG  246   7.296   6.026   6.513
    1AU     LIG  247   7.752   6.043   6.337
    1AU     LIG  248   8.237   6.175   6.287
    1AU     LIG  249   8.578   6.488   6.490
    1AU     LIG  250   9.014   6.604   6.666
    1AU    AUSL  251   5.111   6.415   6.001
    1AU    AUSL  252   5.169   6.200   6.392
    1AU     AUL  253   4.878   6.535   6.232
    1AU       S  254   5.014   6.368   6.639
    1AU     LIG  255   4.880   6.276   7.075
    1AU     LIG  256   4.684   6.527   7.441
    1AU     LIG  257   4.381   6.670   7.803
    1AU     LIG  258   4.023   6.744   8.129
    1AU     LIG  259   3.688   6.994   8.359
    1AU       S  260   5.128   6.797   5.924
    1AU     LIG  261   4.673   6.816   5.838
    1AU     LIG  262   4.249   7.056   5.916
    1AU     LIG  263   3.829   7.315   5.951
    1AU     LIG  264   3.383   7.528   5.937
    1AU     LIG  265   2.974   7.792   5.956
    1AU    AUSL  266   5.065   6.008   5.828
    1AU    AUSL  267   5.186   6.468   5.579
    1AU     AUL  268   4.889   6.363   5.700
    1AU       S  269   4.673   5.791   5.459
    1AU     LIG  270   4.251   6.013   5.489
    1AU     LIG  271   3.838   6.179   5.296
    1AU     LIG  272   3.363   6.204   5.416
    1AU     LIG  273   2.970   6.499   5.382
    1AU     LIG  274   2.607   6.700   5.140
    1AU       S  275   5.027   6.716   5.399
    1AU     LIG  276   5.025   6.999   4.996
    1AU     LIG  277   4.942   7.449   4.772
    1AU     LIG  278   4.787   7.919   4.664
    1AU     LIG  279   4.464   8.284   4.552
    1AU     LIG  280   4.054   8.559   4.504
    1AU    AUSL  281   4.814   6.080   6.189
    1AU    AUSL  282   4.773   5.701   5.907
    1AU     AUL  283   4.657   6.009   5.886
    1AU       S  284   4.574   5.631   6.171
    1AU     LIG  285   4.278   5.580   5.774
    1AU     LIG  286   3.916   5.319   5.616
    1AU     LIG  287   3.457   5.171   5.590
    1AU     LIG  288   2.973   5.122   5.704
    1AU     LIG  289   2.521   5.060   5.560
    1AU       S  290   4.668   6.117   6.388
    1AU     LIG  291   4.186   6.128   6.486
    1AU     LIG  292   3.738   6.181   6.696
    1AU     LIG  293   3.353   6.455   6.790
    1AU     LIG  294   2.875   6.416   6.745
    1AU     LIG  295   2.412   6.546   6.650
    1AU    AUSL  296   6.469   5.234   6.058
    1AU    AUSL  297   6.280   5.498   6.376
    1AU     AUL  298   6.607   5.394   6.454
    1AU       S  299   6.765   5.129   6.083
    1AU     LIG  300   6.982   4.769   5.946
    1AU     LIG  301   7.382   4.545   6.042
    1AU     LIG  302   7.828   4.376   6.040
    1AU     LIG  303   8.206   4.126   6.196
    1AU     LIG  304   8.447   3.763   6.407
    1AU       S  305   6.489   4.954   6.464
    1AU     LIG  306   6.726   4.648   6.761
    1AU     LIG  307   6.927   4.409   7.092
    1AU     LIG  308   7.158   4.165   7.413
    1AU     LIG  309   7.462   4.149   7.773
    1AU     LIG  310   7.871   4.152   8.023
    1AU    AUSL  311   6.458   5.614   5.833
    1AU    AUSL  312   6.331   5.124   5.657
    1AU     AUL  313   6.603   5.265   5.674
    1AU       S  314   6.949   5.486   5.842
    1AU     LIG  315   7.253   5.137   5.688
    1AU     LIG  316   7.662   4.869   5.755
    1AU     LIG  317   8.130   4.697   5.764
    1AU     LIG  318   8.629   4.670   5.760
    1AU     LIG  319   8.997   4.722   5.448
    1AU       S  320   6.523   4.926   5.352
    1AU     LIG  321   6.448   4.449   5.352
    1AU     LIG  322   6.699   4.077   5.169
    1AU     LIG  323   6.944   3.833   4.859
    1AU     LIG  324   7.309   3.524   4.779
    1AU     LIG  325   7.666   3.193   4.687
    1AU    AUSL  326   4.963   5.329   6.069
    1AU    AUSL  327   5.080   5.566   5.638
    1AU     AUL  328   4.736   5.403   5.781
    1AU       S  329   4.950   5.387   5.370
    1AU     LIG  330   4.487   5.230   5.380
    1AU     LIG  331   4.221   4.911   5.124
    1AU     LIG  332   4.002   4.622   4.783
    1AU     LIG  333   3.802   4.317   4.451
    1AU     LIG  334   3.477   4.134   4.137
    1AU       S  335   4.536   5.390   6.213
    1AU     LIG  336   4.302   5.091   5.922
    1AU     LIG  337   3.863   4.875   5.880
    1AU     LIG  338   3.385   4.815   5.993
    1AU     LIG  339   3.046   4.602   6.267
    1AU     LIG  340   2.621   4.385   6.380
    1AU    AUSL  341   5.049   5.725   6.258
    1AU    AUSL  342   5.304   5.334   6.331
    1AU     AUL  343   4.952   5.320   6.410
    1AU       S  344   5.023   5.115   6.818
    1AU     LIG  345   4.847   4.807   6.539
    1AU     LIG  346   4.489   4.508   6.630
    1AU     LIG  347   4.182   4.241   6.909
    1AU     LIG  348   3.875   4.001   7.209
    1AU     LIG  349   3.536   3.645   7.269
    1AU       S  350   4.622   5.644   6.360
    1AU     LIG  351   4.094   5.704   6.226
    1AU     LIG  352   3.692   5.590   5.998
    1AU     LIG  353   3.333   5.325   6.050
    1AU     LIG  354   2.960   5.108   6.213
    1AU     LIG  355   2.646   4.903   6.459
    1AU    AUSL  356   5.796   6.559   6.392
    1AU    AUSL  357   5.360   6.587   6.315
    1AU     AUL  358   5.594   6.632   6.685
    1AU       S  359   5.232   6.782   6.428
    1AU     LIG  360   5.053   7.074   6.754
    1AU     LIG  361   4.924   7.296   7.158
    1AU     LIG  362   4.735   7.662   7.396
    1AU     LIG  363   4.445   8.053   7.431
    1AU     LIG  364   4.089   8.383   7.496
    1AU       S  365   5.791   6.971   6.440
    1AU     LIG  366   5.879   7.104   6.835
    1AU     LIG  367   5.955   7.547   6.985
    1AU     LIG  368   5.939   7.862   7.349
    1AU     LIG  369   6.016   8.110   7.765
    1AU     LIG  370   5.989   8.509   8.032
    1AU    AUSL  371   5.633   6.781   6.037
    1AU    AUSL  372   5.928   6.707   5.678
    1AU     AUL  373   5.862   7.046   5.821
    1AU       S  374   5.636   7.010   6.241
    1AU     LIG  375   5.665   7.449   6.498
    1AU     LIG  376   5.574   7.856   6.747
    1AU     LIG  377   5.443   8.307   6.843
    1AU     LIG  378   5.404   8.779   6.917
    1AU     LIG  379   5.373   9.233   6.809
    1AU       S  380   5.650   6.880   5.449
    1AU     LIG  381   6.006   7.202   5.360
    1AU     LIG  382   6.191   7.653   5.313
    1AU     LIG  383   6.485   8.049   5.261
    1AU     LIG  384   6.708   8.483   5.223
    1AU     LIG  385   6.655   8.941   5.127
    1AU    AUSL  386   6.087   6.701   6.089
    1AU    AUSL  387   6.041   6.405   6.708
    1AU     AUL  388   6.146   6.668   6.475
    1AU       S  389   6.281   6.491   6.917
    1AU     LIG  390   6.635   6.445   7.253
    1AU     LIG  391   6.931   6.710   7.497
    1AU     LIG  392   7.169   7.071   7.700
    1AU     LIG  393   7.225   7.423   8.015
    1AU     LIG  394   7.224   7.633   8.445
    1AU       S  395   5.994   7.054   6.267
    1AU     LIG  396   6.186   7.384   6.532
    1AU     LIG  397   6.378   7.788   6.697
    1AU     LIG  398   6.730   8.128   6.690
    1AU     LIG  399   6.878   8.577   6.744
    1AU     LIG  400   6.852   8.984   6.943
    1AU    AUSL  401   5.687   5.118   6.420
    1AU    AUSL  402   6.101   5.117   6.253
    1AU     AUL  403   5.914   4.988   6.638
    1AU       S  404   5.645   4.646   6.487
    1AU     LIG  405   5.526   4.497   6.866
    1AU     LIG  406   5.430   4.056   6.911
    1AU     LIG  407   5.501   3.597   6.954
    1AU     LIG  408   5.525   3.315   7.348
    1AU     LIG  409   5.522   3.247   7.839
    1AU       S  410   6.255   4.883   6.312
    1AU     LIG  411   6.279   4.450   6.545
    1AU     LIG  412   6.591   4.143   6.782
    1AU     LIG  413   6.921   3.883   7.028
    1AU     LIG  414   7.045   3.429   7.149
    1AU     LIG  415   7.365   3.097   7.336
    1AU    AUSL  416   5.366   4.962   6.137
    1AU    AUSL  417   5.468   5.269   6.754
    1AU     AUL  418   5.335   5.004   6.498
    1AU       S  419   5.471   4.584   6.347
    1AU     LIG  420   5.151   4.349   6.547
    1AU     LIG  421   5.123   3.882   6.541
    1AU     LIG  422   5.136   3.419   6.593
    1AU     LIG  423   4.928   2.988   6.617
    1AU     LIG  424   4.895   2.671   6.949
    1AU       S  425   5.256   5.146   6.947
    1AU     LIG  426   5.041   4.669   7.001
    1AU     LIG  427   4.618   4.475   7.126
    1AU     LIG  428   4.294   4.267   7.416
    1AU     LIG  429   4.136   4.080   7.824
    1AU     LIG  430   4.198   3.900   8.270
    1AU    AUSL  431   5.803   4.850   6.092
    1AU    AUSL  432   5.552   4.982   5.738
    1AU     AUL  433   5.435   4.719   5.905
    1AU       S  434   5.804   4.701   5.625
    1AU     LIG  435   5.545   4.310   5.586
    1AU     LIG  436   5.340   3.876   5.465
    1AU     LIG  437   5.135   3.431   5.427
    1AU     LIG  438   4.911   2.988   5.384
    1AU     LIG  439   4.774   2.611   5.104
    1AU       S  440   5.799   4.670   6.238
    1AU     LIG  441   5.826   4.212   6.250
    1AU     LIG  442   5.770   3.829   6.543
    1AU     LIG  443   6.028   3.448   6.728
    1AU     LIG  444   6.169   2.981   6.790
    1AU     LIG  445   6.128   2.479   6.755
    1AU    AUSL  446   5.769   6.432   5.351
    1AU    AUSL  447   6.204   6.391   5.753
    1AU     AUL  448   6.061   6.623   5.380
    1AU       S  449   5.664   6.833   5.225
    1AU     LIG  450   5.630   7.231   5.000
    1AU     LIG  451   5.886   7.595   4.889
    1AU     LIG  452   6.111   7.805   4.529
    1AU     LIG  453   6.121   8.084   4.159
    1AU     LIG  454   5.985   8.515   4.084
    1AU       S  455   6.443   6.626   5.639
    1AU     LIG  456   6.917   6.771   5.421
    1AU     LIG  457   7.159   6.899   5.003
    1AU     LIG  458   7.303   7.217   4.650
    1AU     LIG  459   7.504   7.681   4.606
    1AU     LIG  460   7.678   8.155   4.598
    1AU    AUSL  461   5.570   6.469   5.754
    1AU    AUSL  462   5.463   6.144   5.451
    1AU     AUL  463   5.421   6.450   5.309
    1AU       S  464   5.480   6.847   5.577
    1AU     LIG  465   5.524   7.365   5.481
    1AU     LIG  466   5.682   7.818   5.332
    1AU     LIG  467   5.458   8.264   5.256
    1AU     LIG  468   5.376   8.770   5.306
    1AU     LIG  469   5.363   9.281   5.262
    1AU       S  470   4.983   6.492   5.163
    1AU     LIG  471   5.048   6.510   4.722
    1AU     LIG  472   5.058   6.810   4.360
    1AU     LIG  473   4.982   7.087   3.981
    1AU     LIG  474   4.905   7.343   3.583
    1AU     LIG  475   4.604   7.689   3.457
    1AU    AUSL  476   5.773   5.112   5.373
    1AU    AUSL  477   5.153   5.133   5.735
    1AU     AUL  478   5.412   4.974   5.433
    1AU       S  479   4.973   5.086   5.538
    1AU     LIG  480   4.632   4.801   5.630
    1AU     LIG  481   4.341   4.501   5.407
    1AU     LIG  482   4.115   4.220   5.085
    1AU     LIG  483   3.795   3.960   4.839
    1AU     LIG  484   3.427   3.634   4.810
    1AU       S  485   5.819   4.709   5.404
    1AU     LIG  486   5.939   4.327   5.233
    1AU     LIG  487   5.724   3.951   5.109
    1AU     LIG  488   5.488   3.557   5.048
    1AU     LIG  489   5.472   3.218   4.718
    1AU     LIG  490   5.639   2.992   4.334
    1AU    AUSL  491   5.941   5.144   5.809
    1AU    AUSL  492   6.050   5.427   5.471
    1AU     AUL  493   6.093   5.079   5.416
    1AU       S  494   6.037   4.728   5.711
    1AU     LIG  495   6.063   4.265   5.731
    1AU     LIG  496   5.837   3.891   5.602
    1AU     LIG  497   5.934   3.519   5.321
    1AU     LIG  498   6.208   3.180   5.123
    1AU     LIG  499   6.527   2.823   5.204
    1AU       S  500   6.338   5.181   5.057
    1AU     LIG  501   6.181   4.741   5.019
    1AU     LIG  502   6.389   4.335   4.844
    1AU     LIG  503   6.680   4.122   4.504
    1AU     LIG  504   6.975   4.140   4.113
    1AU     LIG  505   7.124   3.950   3.705
    2POPC   NC3  506   1.987   8.078   8.277
    2POPC   PO4  507   2.481   8.395   8.227
    2POPC   GL1  508   2.337   8.265   7.780
    2POPC   GL2  509   2.171   7.921   7.750
    2POPC   C1A  510   2.257   8.217   7.307
    2POPC   D2A  511   2.171   8.412   6.885
    2POPC   C3A  512   2.228   8.283   6.436
    2POPC   C4A  513   2.382   8.446   6.014
    2POPC   C1B  514   1.828   7.895   7.404
    2POPC   C2B  515   1.681   7.764   6.989
    2POPC   C3B  516   1.746   7.841   6.563
    2POPC   C4B  517   1.713   8.167   6.262
    3POPC   NC3  518   1.923   2.710   8.263
    3POPC   PO4  519   1.591   3.268   8.021
    3POPC   GL1  520   1.794   2.998   7.689
    3POPC   GL2  521   2.118   2.972   7.824
    3POPC   C1A  522   1.737   2.764   7.253
    3POPC   D2A  523   1.809   2.573   6.810
    3POPC   C3A  524   1.646   2.871   6.497
    3POPC   C4A  525   1.745   3.002   6.087
    3POPC   C1B  526   2.251   2.811   7.391
    3POPC   C2B  527   2.405   2.802   6.992
    3POPC   C3B  528   2.323   2.646   6.631
    3POPC   C4B  529   2.134   2.812   6.343
    4POPC   NC3  530   8.090   9.773   8.001
    4POPC   PO4  531   8.256   9.156   8.165
    4POPC   GL1  532   8.397   9.353   7.778
    4POPC   GL2  533   8.101   9.523   7.561
    4POPC   C1A  534   8.510   9.301   7.344
    4POPC   D2A  535   8.244   9.501   7.027
    4POPC   C3A  536   8.380   9.622   6.627
    4POPC   C4A  537   8.401   9.394   6.198
    4POPC   C1B  538   7.839   9.802   7.283
    4POPC   C2B  539   7.699   9.931   6.850
    4POPC   C3B  540   7.643   9.781   6.460
    4POPC   C4B  541   8.010   9.700   6.286
    5POPC   NC3  542   1.950   0.546   7.951
    5POPC   PO4  543   1.557   0.026   8.068
    5POPC   GL1  544   1.642   0.115   7.629
    5POPC   GL2  545   1.950   0.305   7.521
    5POPC   C1A  546   1.732   0.042   7.181
    5POPC   D2A  547   1.889   0.344   6.891
    5POPC   C3A  548   1.889   0.177   6.491
    5POPC   C4A  549   1.717   0.202   6.094
    5POPC   C1B  550   1.920   0.701   7.272
    5POPC   C2B  551   1.821   0.849   6.823
    5POPC   C3B  552   1.994   0.692   6.392
    5POPC   C4B  553   1.923   0.605   5.909
    6POPC   NC3  554   7.284   9.275   8.104
    6POPC   PO4  555   7.585   9.890   8.060
    6POPC   GL1  556   7.567   9.575   7.729
    6POPC   GL2  557   7.216   9.623   7.682
    6POPC   C1A  558   7.622   9.330   7.340
    6POPC   D2A  559   7.754   9.422   6.886
    6POPC   C3A  560   7.606   9.286   6.451
    6POPC   C4A  561   7.744   9.387   5.988
    6POPC   C1B  562   7.334   9.730   7.265
    6POPC   C2B  563   7.230   9.691   6.880
    6POPC   C3B  564   7.172   9.536   6.484
    6POPC   C4B  565   7.278   9.660   6.076
    7POPC   NC3  566  10.913   0.402   8.030
    7POPC   PO4  567   0.102   0.693   8.119
    7POPC   GL1  568   0.135   0.521   7.721
    7POPC   GL2  569  11.295   0.468   7.634
    7POPC   C1A  570   0.145   0.650   7.302
    7POPC   D2A  571  11.296   0.631   7.031
    7POPC   C3A  572  11.443   0.513   6.637
    7POPC   C4A  573  11.258   0.533   6.245
    7POPC   C1B  574  10.929   0.391   7.354
    7POPC   C2B  575  10.813   0.482   6.930
    7POPC   C3B  576  10.911   0.294   6.540
    7POPC   C4B  577  10.653   0.106   6.198
    8POPC   NC3  578  10.584   7.273   8.110
    8POPC   PO4  579  10.602   7.938   8.108
    8POPC   GL1  580  10.665   7.642   7.737
    8POPC   GL2  581  10.364   7.429   7.686
    8POPC   C1A  582  10.692   7.516   7.274
    8POPC   D2A  583  10.679   7.705   6.852
    8POPC   C3A  584  10.451   7.474   6.520
    8POPC   C4A  585  10.603   7.445   6.108
    8POPC   C1B  586  10.209   7.259   7.315
    8POPC   C2B  587  10.298   7.160   6.900
    8POPC   C3B  588  10.098   7.033   6.556
    8POPC   C4B  589   9.966   7.367   6.294
    9POPC   NC3  590   1.953   8.930   7.974
    9POPC   PO4  591   1.838   8.308   7.913
    9POPC   GL1  592   1.964   8.566   7.580
    9POPC   GL2  593   2.300   8.765   7.624
    9POPC   C1A  594   1.770   8.387   7.206
    9POPC   D2A  595   1.701   8.296   6.778
    9POPC   C3A  596   1.828   8.613   6.465
    9POPC   C4A  597   1.843   8.665   6.022
    9POPC   C1B  598   2.162   8.832   7.175
    9POPC   C2B  599   2.205   8.888   6.710
    9POPC   C3B  600   2.159   8.970   6.268
    9POPC   C4B  601   1.933   9.293   6.023
   10POPC   NC3  602   9.401   1.784   8.057
   10POPC   PO4  603   8.721   1.951   8.031
   10POPC   GL1  604   8.857   1.857   7.610
   10POPC   GL2  605   9.161   2.072   7.618
   10POPC   C1A  606   8.951   1.722   7.177
   10POPC   D2A  607   9.167   1.981   6.837
   10POPC   C3A  608   9.345   1.882   6.454
   10POPC   C4A  609   9.045   1.984   6.129
   10POPC   C1B  610   8.954   2.239   7.247
   10POPC   C2B  611   8.696   2.093   6.902
   10POPC   C3B  612   8.659   1.959   6.480
   10POPC   C4B  613   8.583   2.198   6.075
   11POPC   NC3  614  11.268   5.953   8.063
   11POPC   PO4  615  10.677   6.314   8.069
   11POPC   GL1  616  10.918   6.142   7.696
   11POPC   GL2  617  11.015   5.775   7.670
   11POPC   C1A  618  11.043   6.037   7.246
   11POPC   D2A  619  11.321   5.802   6.927
   11POPC   C3A  620  11.165   5.825   6.499
   11POPC   C4A  621  11.066   6.244   6.313
   11POPC   C1B  622  11.256   5.547   7.374
   11POPC   C2B  623  11.449   5.312   7.035
   11POPC   C3B  624  11.467   5.404   6.592
   11POPC   C4B  625  11.244   5.401   6.174
   12POPC   NC3  626   0.416   0.269   8.086
   12POPC   PO4  627   0.855   0.774   7.954
   12POPC   GL1  628   0.643   0.569   7.673
   12POPC   GL2  629   0.778   0.267   7.622
   12POPC   C1A  630   0.672   0.696   7.263
   12POPC   D2A  631   0.474   0.571   6.877
   12POPC   C3A  632   0.620   0.758   6.508
   12POPC   C4A  633   0.775   0.682   6.080
   12POPC   C1B  634   0.465   0.227   7.290
   12POPC   C2B  635   0.258   0.102   6.888
   12POPC   C3B  636   0.390   0.234   6.471
   12POPC   C4B  637   0.264   0.572   6.209
   13POPC   NC3  638   2.951   2.890   8.133
   13POPC   PO4  639   2.383   2.739   8.233
   13POPC   GL1  640   2.592   2.802   7.779
   13POPC   GL2  641   2.809   2.566   7.673
   13POPC   C1A  642   2.743   2.953   7.338
   13POPC   D2A  643   2.733   3.207   6.952
   13POPC   C3A  644   2.722   2.983   6.591
   13POPC   C4A  645   2.894   2.665   6.366
   13POPC   C1B  646   2.637   2.436   7.284
   13POPC   C2B  647   2.755   2.449   6.847
   13POPC   C3B  648   2.601   2.257   6.475
   13POPC   C4B  649   2.475   2.464   6.127
   14POPC   NC3  650  11.284   8.735   8.038
   14POPC   PO4  651  10.674   8.920   7.935
   14POPC   GL1  652  10.928   8.675   7.630
   14POPC   GL2  653  11.252   8.783   7.540
   14POPC   C1A  654  10.901   8.707   7.180
   14POPC   D2A  655  11.204   8.708   6.842
   14POPC   C3A  656  10.981   8.840   6.498
   14POPC   C4A  657  10.881   8.734   6.088
   14POPC   C1B  658  11.429   9.027   7.219
   14POPC   C2B  659  11.265   9.240   6.839
   14POPC   C3B  660  11.459   9.099   6.510
   14POPC   C4B  661  11.356   8.853   6.146
   15POPC   NC3  662   8.589  11.372   8.023
   15POPC   PO4  663   9.074  10.949   8.260
   15POPC   GL1  664   8.900  11.046   7.770
   15POPC   GL2  665   9.027  11.253   7.502
   15POPC   C1A  666   8.729  10.881   7.321
   15POPC   D2A  667   8.854  11.089   6.893
   15POPC   C3A  668   8.942  10.886   6.450
   15POPC   C4A  669   8.950  10.934   5.986
   15POPC   C1B  670   8.591  11.372   7.315
   15POPC   C2B  671   8.492  11.458   6.882
   15POPC   C3B  672   8.729  11.440   6.496
   15POPC   C4B  673   9.156  11.366   6.379
   16POPC   NC3  674   7.009  11.230   7.844
   16POPC   PO4  675   6.840  10.656   8.114
   16POPC   GL1  676   6.689  10.842   7.699
   16POPC   GL2  677   6.684  11.150   7.480
   16POPC   C1A  678   6.844  10.726   7.270
   16POPC   D2A  679   6.779  11.014   6.899
   16POPC   C3A  680   6.736  10.836   6.464
   16POPC   C4A  681   6.499  11.053   6.101
   16POPC   C1B  682   6.409  11.334   7.193
   16POPC   C2B  683   6.298  11.198   6.780
   16POPC   C3B  684   6.624  11.339   6.521
   16POPC   C4B  685   6.520   0.083   6.220
   17POPC   NC3  686   0.530   8.074   8.120
   17POPC   PO4  687   0.032   7.670   7.871
   17POPC   GL1  688   0.208   7.997   7.644
   17POPC   GL2  689   0.546   8.114   7.619
   17POPC   C1A  690   0.199   8.078   7.214
   17POPC   D2A  691   0.441   8.089   6.864
   17POPC   C3A  692   0.189   8.039   6.509
   17POPC   C4A  693   0.168   8.199   6.108
   17POPC   C1B  694   0.722   8.415   7.339
   17POPC   C2B  695   0.748   8.514   6.901
   17POPC   C3B  696   0.875   8.208   6.608
   17POPC   C4B  697   0.672   7.984   6.299
   18POPC   NC3  698   4.088  11.074   8.145
   18POPC   PO4  699   4.647   0.065   8.078
   18POPC   GL1  700   4.381  11.447   7.742
   18POPC   GL2  701   4.380  11.098   7.704
   18POPC   C1A  702   4.316  11.410   7.271
   18POPC   D2A  703   4.282   0.051   6.823
   18POPC   C3A  704   4.212  11.302   6.435
   18POPC   C4A  705   4.214  11.380   5.967
   18POPC   C1B  706   4.421  10.921   7.299
   18POPC   C2B  707   4.342  11.030   6.874
   18POPC   C3B  708   4.557  10.876   6.499
   18POPC   C4B  709   4.425  10.921   6.097
   19POPC   NC3  710   5.819  11.133   7.987
   19POPC   PO4  711   6.515  11.196   8.016
   19POPC   GL1  712   6.223  11.062   7.670
   19POPC   GL2  713   6.085  11.394   7.611
   19POPC   C1A  714   6.085  10.945   7.215
   19POPC   D2A  715   5.783  10.756   6.945
   19POPC   C3A  716   5.789  10.855   6.506
   19POPC   C4A  717   5.998  11.088   6.185
   19POPC   C1B  718   5.755  11.328   7.310
   19POPC   C2B  719   5.746  11.248   6.881
   19POPC   C3B  720   5.663  11.349   6.486
   19POPC   C4B  721   5.471   0.128   6.258
   20POPC   NC3  722   6.386   1.006   8.147
   20POPC   PO4  723   6.197   1.615   7.984
   20POPC   GL1  724   6.428   1.341   7.684
   20POPC   GL2  725   6.540   1.010   7.673
   20POPC   C1A  726   6.544   1.375   7.250
   20POPC   D2A  727   6.523   1.627   6.876
   20POPC   C3A  728   6.413   1.426   6.496
   20POPC   C4A  729   6.319   1.386   6.056
   20POPC   C1B  730   6.774   0.910   7.332
   20POPC   C2B  731   6.677   0.994   6.917
   20POPC   C3B  732   6.864   0.961   6.544
   20POPC   C4B  733   6.770   1.163   6.193
   21POPC   NC3  734   0.388   6.303   8.144
   21POPC   PO4  735   0.593   7.003   8.043
   21POPC   GL1  736   0.266   6.811   7.734
   21POPC   GL2  737   0.389   6.470   7.655
   21POPC   C1A  738   0.105   6.723   7.288
   21POPC   D2A  739   0.236   6.531   6.900
   21POPC   C3A  740   0.061   6.738   6.563
   21POPC   C4A  741   0.223   6.884   6.170
   21POPC   C1B  742   0.599   6.607   7.270
   21POPC   C2B  743   0.737   6.414   6.853
   21POPC   C3B  744   0.558   6.552   6.444
   21POPC   C4B  745   0.530   6.458   5.991
   22POPC   NC3  746   2.383   6.225   8.166
   22POPC   PO4  747   2.227   6.833   8.096
   22POPC   GL1  748   1.896   6.837   7.806
   22POPC   GL2  749   1.866   6.495   7.717
   22POPC   C1A  750   1.874   6.946   7.387
   22POPC   D2A  751   1.911   6.758   6.970
   22POPC   C3A  752   2.081   6.956   6.599
   22POPC   C4A  753   2.222   6.756   6.200
   22POPC   C1B  754   2.047   6.284   7.325
   22POPC   C2B  755   1.900   6.251   6.881
   22POPC   C3B  756   1.901   6.460   6.477
   22POPC   C4B  757   1.787   6.344   6.051
   23POPC   NC3  758  11.100   7.715   8.036
   23POPC   PO4  759  10.917   8.419   8.117
   23POPC   GL1  760  10.947   8.149   7.743
   23POPC   GL2  761  11.277   8.275   7.694
   23POPC   C1A  762  11.103   7.875   7.363
   23POPC   D2A  763  11.173   7.609   6.977
   23POPC   C3A  764  11.096   7.827   6.555
   23POPC   C4A  765  11.061   7.957   6.126
   23POPC   C1B  766  11.263   8.354   7.250
   23POPC   C2B  767  11.312   8.202   6.829
   23POPC   C3B  768  11.254   8.367   6.394
   23POPC   C4B  769  11.236   8.376   5.930
   24POPC   NC3  770   0.119   4.263   8.282
   24POPC   PO4  771   0.745   4.439   8.249
   24POPC   GL1  772   0.435   4.285   7.865
   24POPC   GL2  773   0.298   4.544   7.662
   24POPC   C1A  774   0.351   4.105   7.398
   24POPC   D2A  775   0.474   4.182   6.939
   24POPC   C3A  776   0.307   4.014   6.542
   24POPC   C4A  777   0.380   4.081   6.075
   24POPC   C1B  778   0.554   4.559   7.283
   24POPC   C2B  779   0.610   4.655   6.825
   24POPC   C3B  780   0.419   4.519   6.429
   24POPC   C4B  781   0.083   4.510   6.121
   25POPC   NC3  782   1.149   1.132   8.071
   25POPC   PO4  783   1.524   1.631   8.064
   25POPC   GL1  784   1.235   1.520   7.709
   25POPC   GL2  785   1.218   1.159   7.586
   25POPC   C1A  786   1.255   1.546   7.246
   25POPC   D2A  787   1.021   1.454   6.850
   25POPC   C3A  788   1.239   1.572   6.500
   25POPC   C4A  789   1.358   1.442   6.115
   25POPC   C1B  790   1.135   1.013   7.186
   25POPC   C2B  791   1.173   0.956   6.774
   25POPC   C3B  792   1.061   1.069   6.390
   25POPC   C4B  793   1.187   0.983   5.983
   26POPC   NC3  794   1.230   9.614   8.070
   26POPC   PO4  795   1.730   9.301   7.807
   26POPC   GL1  796   1.582   9.687   7.554
   26POPC   GL2  797   1.277   9.840   7.636
   26POPC   C1A  798   1.398   9.763   7.147
   26POPC   D2A  799   1.210   9.427   6.959
   26POPC   C3A  800   1.310   9.372   6.551
   26POPC   C4A  801   1.234   9.520   6.172
   26POPC   C1B  802   0.939   9.717   7.390
   26POPC   C2B  803   0.912   9.856   6.978
   26POPC   C3B  804   1.110   9.836   6.602
   26POPC   C4B  805   0.860   9.837   6.238
   27POPC   NC3  806   5.282   2.573   8.219
   27POPC   PO4  807   5.461   1.976   8.082
   27POPC   GL1  808   5.372   1.745   7.680
   27POPC   GL2  809   5.742   1.716   7.555
   27POPC   C1A  810   5.303   1.888   7.232
   27POPC   D2A  811   5.605   2.053   6.920
   27POPC   C3A  812   5.484   2.099   6.478
   27POPC   C4A  813   5.719   2.152   6.091
   27POPC   C1B  814   5.649   1.530   7.168
   27POPC   C2B  815   5.527   1.585   6.724
   27POPC   C3B  816   5.849   1.743   6.436
   27POPC   C4B  817   6.141   1.842   6.116
   28POPC   NC3  818   7.674   0.267   7.943
   28POPC   PO4  819   7.147  11.437   8.241
   28POPC   GL1  820   7.101   0.226   7.799
   28POPC   GL2  821   7.247   0.576   7.809
   28POPC   C1A  822   7.186   0.139   7.299
   28POPC   D2A  823   6.953   0.007   6.925
   28POPC   C3A  824   7.129  11.498   6.507
   28POPC   C4A  825   7.011   0.158   6.081
   28POPC   C1B  826   7.247   0.644   7.359
   28POPC   C2B  827   7.410   0.493   6.959
   28POPC   C3B  828   7.457   0.387   6.519
   28POPC   C4B  829   7.283   0.589   6.140
   29POPC   NC3  830   7.986   8.787   8.154
   29POPC   PO4  831   8.543   8.586   8.140
   29POPC   GL1  832   8.323   8.812   7.750
   29POPC   GL2  833   7.989   9.042   7.723
   29POPC   C1A  834   8.004   8.631   7.412
   29POPC   D2A  835   7.868   8.777   6.965
   29POPC   C3A  836   8.127   8.654   6.611
   29POPC   C4A  837   8.000   8.545   6.203
   29POPC   C1B  838   8.060   9.104   7.295
   29POPC   C2B  839   8.348   8.970   6.995
   29POPC   C3B  840   8.367   9.102   6.607
   29POPC   C4B  841   8.020   9.066   6.305
   30POPC   NC3  842   6.330   9.574   8.171
   30POPC   PO4  843   6.837   9.177   8.088
   30POPC   GL1  844   6.709   9.544   7.764
   30POPC   GL2  845   6.412   9.798   7.705
   30POPC   C1A  846   6.806   9.672   7.309
   30POPC   D2A  847   6.758   9.516   6.873
   30POPC   C3A  848   6.722   9.768   6.482
   30POPC   C4A  849   6.789   9.442   6.146
   30POPC   C1B  850   6.267   9.706   7.317
   30POPC   C2B  851   6.351   9.823   6.933
   30POPC   C3B  852   6.197   9.689   6.556
   30POPC   C4B  853   6.127   9.834   6.179
   31POPC   NC3  854   2.328   5.383   8.237
   31POPC   PO4  855   3.039   5.322   8.170
   31POPC   GL1  856   2.703   5.498   7.846
   31POPC   GL2  857   2.575   5.846   7.836
   31POPC   C1A  858   2.658   5.534   7.353
   31POPC   D2A  859   2.826   5.410   6.910
   31POPC   C3A  860   2.670   5.475   6.472
   31POPC   C4A  861   2.913   5.602   6.088
   31POPC   C1B  862   2.620   6.034   7.401
   31POPC   C2B  863   2.743   5.923   6.952
   31POPC   C3B  864   2.695   5.993   6.481
   31POPC   C4B  865   2.296   6.162   6.290
   32POPC   NC3  866   8.069   2.048   8.191
   32POPC   PO4  867   7.818   1.585   7.805
   32POPC   GL1  868   8.085   1.808   7.550
   32POPC   GL2  869   8.321   2.006   7.746
   32POPC   C1A  870   8.449   1.657   7.312
   32POPC   D2A  871   8.507   1.578   6.854
   32POPC   C3A  872   8.070   1.617   6.656
   32POPC   C4A  873   7.809   1.599   6.266
   32POPC   C1B  874   8.418   2.164   7.358
   32POPC   C2B  875   8.221   1.989   6.989
   32POPC   C3B  876   8.152   2.135   6.587
   32POPC   C4B  877   8.223   1.877   6.228
   33POPC   NC3  878   4.663  10.699   7.911
   33POPC   PO4  879   4.281  10.215   8.272
   33POPC   GL1  880   4.444  10.234   7.762
   33POPC   GL2  881   4.265  10.473   7.491
   33POPC   C1A  882   4.692  10.311   7.335
   33POPC   D2A  883   4.608  10.581   6.961
   33POPC   C3A  884   4.705  10.373   6.553
   33POPC   C4A  885   4.730  10.512   6.132
   33POPC   C1B  886   4.104  10.112   7.290
   33POPC   C2B  887   3.939   9.950   6.890
   33POPC   C3B  888   3.915  10.128   6.451
   33POPC   C4B  889   4.249  10.399   6.291
   34POPC   NC3  890   7.369   8.217   8.038
   34POPC   PO4  891   6.787   8.274   7.948
   34POPC   GL1  892   7.114   8.486   7.655
   34POPC   GL2  893   7.469   8.430   7.586
   34POPC   C1A  894   7.115   8.453   7.201
   34POPC   D2A  895   7.251   8.201   6.825
   34POPC   C3A  896   7.129   8.313   6.395
   34POPC   C4A  897   6.781   8.147   6.153
   34POPC   C1B  898   7.626   8.361   7.168
   34POPC   C2B  899   7.739   8.329   6.731
   34POPC   C3B  900   7.624   8.215   6.320
   34POPC   C4B  901   7.691   8.291   5.876
   35POPC   NC3  902   0.960   6.775   7.873
   35POPC   PO4  903   0.934   6.141   8.106
   35POPC   GL1  904   0.985   6.313   7.668
   35POPC   GL2  905   1.339   6.445   7.695
   35POPC   C1A  906   1.084   6.531   7.246
   35POPC   D2A  907   0.981   6.856   6.917
   35POPC   C3A  908   1.074   6.654   6.491
   35POPC   C4A  909   1.036   6.508   6.055
   35POPC   C1B  910   1.577   6.476   7.286
   35POPC   C2B  911   1.447   6.590   6.867
   35POPC   C3B  912   1.568   6.846   6.556
   35POPC   C4B  913   1.489   6.750   6.146
   36POPC   NC3  914   3.251   5.730   8.121
   36POPC   PO4  915   3.036   6.296   8.295
   36POPC   GL1  916   3.029   6.158   7.776
   36POPC   GL2  917   3.049   5.819   7.634
   36POPC   C1A  918   3.113   6.171   7.245
   36POPC   D2A  919   3.220   5.974   6.781
   36POPC   C3A  920   3.176   6.226   6.351
   36POPC   C4A  921   3.319   6.406   5.926
   36POPC   C1B  922   3.161   5.664   7.216
   36POPC   C2B  923   3.540   5.594   6.954
   36POPC   C3B  924   3.670   5.686   6.541
   36POPC   C4B  925   3.320   5.747   6.331
   37POPC   NC3  926   8.346   0.623   8.013
   37POPC   PO4  927   8.118   0.022   8.018
   37POPC   GL1  928   8.347   0.216   7.660
   37POPC   GL2  929   8.066   0.456   7.591
   37POPC   C1A  930   8.409   0.373   7.198
   37POPC   D2A  931   8.093   0.328   6.831
   37POPC   C3A  932   8.204   0.382   6.393
   37POPC   C4A  933   8.304   0.082   6.012
   37POPC   C1B  934   7.835   0.661   7.227
   37POPC   C2B  935   7.803   0.754   6.765
   37POPC   C3B  936   7.803   0.684   6.287
   37POPC   C4B  937   7.696   0.685   5.836
   38POPC   NC3  938   1.531   2.596   7.906
   38POPC   PO4  939   0.982   2.919   8.069
   38POPC   GL1  940   1.016   2.708   7.709
   38POPC   GL2  941   1.282   2.944   7.635
   38POPC   C1A  942   1.170   2.531   7.306
   38POPC   D2A  943   1.307   2.666   6.907
   38POPC   C3A  944   1.370   2.461   6.508
   38POPC   C4A  945   1.371   2.637   6.092
   38POPC   C1B  946   1.010   3.106   7.342
   38POPC   C2B  947   0.882   2.973   6.959
   38POPC   C3B  948   1.086   3.014   6.592
   38POPC   C4B  949   0.913   2.895   6.212
   39POPC   NC3  950   0.559   2.709   8.112
   39POPC   PO4  951   0.735   2.111   7.966
   39POPC   GL1  952   0.541   2.433   7.688
   39POPC   GL2  953   0.257   2.682   7.688
   39POPC   C1A  954   0.656   2.673   7.336
   39POPC   D2A  955   0.770   2.435   6.989
   39POPC   C3A  956   0.890   2.555   6.598
   39POPC   C4A  957   0.895   2.391   6.153
   39POPC   C1B  958   0.147   2.757   7.241
   39POPC   C2B  959   0.387   2.759   6.860
   39POPC   C3B  960   0.448   2.755   6.422
   39POPC   C4B  961   0.111   2.757   6.120
   40POPC   NC3  962   5.008   1.837   8.094
   40POPC   PO4  963   4.757   2.509   8.146
   40POPC   GL1  964   4.902   2.259   7.764
   40POPC   GL2  965   4.743   1.966   7.676
   40POPC   C1A  966   4.887   2.218   7.267
   40POPC   D2A  967   5.121   2.224   6.845
   40POPC   C3A  968   5.011   2.312   6.393
   40POPC   C4A  969   5.274   2.429   6.026
   40POPC   C1B  970   4.866   1.651   7.363
   40POPC   C2B  971   4.837   1.818   6.928
   40POPC   C3B  972   5.040   1.818   6.532
   40POPC   C4B  973   4.849   1.701   6.149
   41POPC   NC3  974   8.828  10.609   8.027
   41POPC   PO4  975   8.310  10.155   8.175
   41POPC   GL1  976   8.449  10.428   7.766
   41POPC   GL2  977   8.767  10.340   7.601
   41POPC   C1A  978   8.387  10.468   7.281
   41POPC   D2A  979   8.532  10.235   6.870
   41POPC   C3A  980   8.575  10.512   6.481
   41POPC   C4A  981   8.509  10.655   6.018
   41POPC   C1B  982   8.906  10.191   7.225
   41POPC   C2B  983   9.034  10.311   6.798
   41POPC   C3B  984   8.914  10.159   6.397
   41POPC   C4B  985   8.964  10.434   6.095
   42POPC   NC3  986   7.487   2.222   8.022
   42POPC   PO4  987   7.783   1.710   8.321
   42POPC   GL1  988   7.374   1.743   7.859
   42POPC   GL2  989   7.559   1.976   7.596
   42POPC   C1A  990   7.420   1.619   7.304
   42POPC   D2A  991   7.727   1.864   6.975
   42POPC   C3A  992   7.661   2.009   6.498
   42POPC   C4A  993   7.369   1.853   6.161
   42POPC   C1B  994   7.331   2.108   7.219
   42POPC   C2B  995   7.256   1.954   6.800
   42POPC   C3B  996   7.177   2.227   6.450
   42POPC   C4B  997   6.964   2.139   6.053
   43POPC   NC3  998   7.552   1.227   7.946
   43POPC   PO4  999   6.852   1.249   8.053
   43POPC   GL1 1000   6.955   1.372   7.640
   43POPC   GL2 1001   7.180   1.091   7.628
   43POPC   C1A 1002   7.036   1.320   7.192
   43POPC   D2A 1003   6.971   1.419   6.774
   43POPC   C3A 1004   7.246   1.423   6.431
   43POPC   C4A 1005   7.158   1.435   5.979
   43POPC   C1B 1006   7.479   1.086   7.283
   43POPC   C2B 1007   7.268   0.975   6.906
   43POPC   C3B 1008   7.377   0.915   6.515
   43POPC   C4B 1009   7.478   1.069   6.121
   44POPC   NC3 1010   1.983   9.693   7.862
   44POPC   PO4 1011   2.378   9.141   8.032
   44POPC   GL1 1012   2.345   9.384   7.666
   44POPC   GL2 1013   2.105   9.223   7.484
   44POPC   C1A 1014   2.346   9.611   7.241
   44POPC   D2A 1015   2.341   9.362   6.860
   44POPC   C3A 1016   2.129   9.448   6.485
   44POPC   C4A 1017   2.141   9.760   6.166
   44POPC   C1B 1018   1.878   9.279   7.089
   44POPC   C2B 1019   1.722   9.588   6.789
   44POPC   C3B 1020   1.674   9.686   6.366
   44POPC   C4B 1021   1.688   9.912   6.004
   45POPC   NC3 1022  11.055   3.481   8.018
   45POPC   PO4 1023   0.088   3.221   7.738
   45POPC   GL1 1024  11.176   3.440   7.535
   45POPC   GL2 1025  11.077   3.828   7.664
   45POPC   C1A 1026  10.869   3.670   7.234
   45POPC   D2A 1027  10.761   3.531   6.838
   45POPC   C3A 1028  11.055   3.236   6.652
   45POPC   C4A 1029  11.034   3.185   6.206
   45POPC   C1B 1030  11.382   3.860   7.340
   45POPC   C2B 1031  11.293   3.700   6.932
   45POPC   C3B 1032  11.133   3.736   6.521
   45POPC   C4B 1033  11.436   3.511   6.276
   46POPC   NC3 1034   8.800   8.217   8.046
   46POPC   PO4 1035   8.463   7.749   7.813
   46POPC   GL1 1036   8.849   7.905   7.606
   46POPC   GL2 1037   8.886   8.269   7.547
   46POPC   C1A 1038   9.022   7.835   7.185
   46POPC   D2A 1039   8.994   7.997   6.746
   46POPC   C3A 1040   8.947   7.797   6.331
   46POPC   C4A 1041   8.661   7.766   5.939
   46POPC   C1B 1042   8.837   8.369   7.107
   46POPC   C2B 1043   9.152   8.482   6.794
   46POPC   C3B 1044   9.114   8.338   6.370
   46POPC   C4B 1045   8.946   8.174   5.988
   47POPC   NC3 1046   1.401   8.266   8.040
   47POPC   PO4 1047   0.952   7.865   8.054
   47POPC   GL1 1048   1.054   8.063   7.678
   47POPC   GL2 1049   0.963   7.755   7.537
   47POPC   C1A 1050   1.253   8.240   7.288
   47POPC   D2A 1051   1.273   8.541   6.941
   47POPC   C3A 1052   1.320   8.441   6.479
   47POPC   C4A 1053   1.058   8.327   6.109
   47POPC   C1B 1054   1.195   7.721   7.162
   47POPC   C2B 1055   1.284   8.009   6.812
   47POPC   C3B 1056   1.258   7.942   6.369
   47POPC   C4B 1057   1.506   7.712   6.115
   48POPC   NC3 1058   0.651  10.424   7.970
   48POPC   PO4 1059   0.128  10.077   8.164
   48POPC   GL1 1060   0.267  10.163   7.720
   48POPC   GL2 1061   0.311  10.527   7.617
   48POPC   C1A 1062   0.603  10.136   7.365
   48POPC   D2A 1063   0.452  10.057   6.939
   48POPC   C3A 1064   0.722  10.191   6.614
   48POPC   C4A 1065   0.736  10.368   6.220
   48POPC   C1B 1066   0.185  10.401   7.230
   48POPC   C2B 1067   0.331  10.545   6.848
   48POPC   C3B 1068   0.288  10.452   6.435
   48POPC   C4B 1069   0.234  10.785   6.175
   49POPC   NC3 1070   1.144   3.341   8.110
   49POPC   PO4 1071   0.756   3.882   7.913
   49POPC   GL1 1072   1.142   3.800   7.661
   49POPC   GL2 1073   1.304   3.478   7.652
   49POPC   C1A 1074   1.263   3.718   7.209
   49POPC   D2A 1075   1.084   3.468   6.866
   49POPC   C3A 1076   1.113   3.701   6.452
   49POPC   C4A 1077   1.124   3.623   6.002
   49POPC   C1B 1078   1.518   3.272   7.330
   49POPC   C2B 1079   1.481   3.138   6.935
   49POPC   C3B 1080   1.477   3.348   6.555
   49POPC   C4B 1081   1.309   3.209   6.189
   50POPC   NC3 1082   1.878   7.088   8.243
   50POPC   PO4 1083   1.269   7.019   8.096
   50POPC   GL1 1084   1.392   6.989   7.673
   50POPC   GL2 1085   1.250   7.341   7.683
   50POPC   C1A 1086   1.394   6.959   7.221
   50POPC   D2A 1087   1.324   7.276   6.918
   50POPC   C3A 1088   1.165   7.158   6.533
   50POPC   C4A 1089   1.377   7.239   6.177
   50POPC   C1B 1090   0.993   7.247   7.355
   50POPC   C2B 1091   0.808   7.372   6.983
   50POPC   C3B 1092   0.990   7.618   6.662
   50POPC   C4B 1093   0.969   7.531   6.233
   51POPC   NC3 1094   3.530   9.483   8.311
   51POPC   PO4 1095   3.341  10.107   8.129
   51POPC   GL1 1096   3.609   9.962   7.800
   51POPC   GL2 1097   3.558   9.591   7.766
   51POPC   C1A 1098   3.604   9.950   7.350
   51POPC   D2A 1099   3.281   9.828   7.053
   51POPC   C3A 1100   3.486   9.793   6.676
   51POPC   C4A 1101   3.449   9.976   6.305
   51POPC   C1B 1102   3.523   9.444   7.327
   51POPC   C2B 1103   3.350   9.339   6.901
   51POPC   C3B 1104   3.520   9.333   6.461
   51POPC   C4B 1105   3.801   9.294   6.092
   52POPC   NC3 1106   8.954   3.305   8.218
   52POPC   PO4 1107   9.134   3.874   8.109
   52POPC   GL1 1108   9.237   3.612   7.729
   52POPC   GL2 1109   8.989   3.335   7.711
   52POPC   C1A 1110   9.105   3.608   7.277
   52POPC   D2A 1111   8.833   3.543   6.904
   52POPC   C3A 1112   8.965   3.634   6.474
   52POPC   C4A 1113   8.843   3.833   6.085
   52POPC   C1B 1114   8.861   3.151   7.315
   52POPC   C2B 1115   9.038   3.079   6.918
   52POPC   C3B 1116   8.777   3.136   6.574
   52POPC   C4B 1117   8.649   3.342   6.172
   53POPC   NC3 1118   1.710   5.297   7.981
   53POPC   PO4 1119   2.168   5.814   8.174
   53POPC   GL1 1120   2.121   5.587   7.761
   53POPC   GL2 1121   1.766   5.683   7.648
   53POPC   C1A 1122   2.131   5.718   7.293
   53POPC   D2A 1123   1.904   5.730   6.883
   53POPC   C3A 1124   2.155   5.695   6.493
   53POPC   C4A 1125   2.012   5.481   6.102
   53POPC   C1B 1126   1.635   5.953   7.287
   53POPC   C2B 1127   1.406   6.091   6.915
   53POPC   C3B 1128   1.465   6.193   6.493
   53POPC   C4B 1129   1.733   5.890   6.279
   54POPC   NC3 1130  10.889   9.624   8.050
   54POPC   PO4 1131  11.496   9.227   8.108
   54POPC   GL1 1132  11.470   9.401   7.678
   54POPC   GL2 1133  11.310   9.722   7.717
   54POPC   C1A 1134  11.305   9.537   7.244
   54POPC   D2A 1135  11.284   9.822   6.864
   54POPC   C3A 1136  11.432   9.627   6.493
   54POPC   C4A 1137  11.469   9.635   6.064
   54POPC   C1B 1138  10.900   9.791   7.416
   54POPC   C2B 1139  10.828   9.616   6.982
   54POPC   C3B 1140  10.911   9.596   6.534
   54POPC   C4B 1141  11.090   9.303   6.249
   55POPC   NC3 1142  10.772   5.084   8.059
   55POPC   PO4 1143  10.170   5.444   8.126
   55POPC   GL1 1144  10.231   5.273   7.707
   55POPC   GL2 1145  10.435   4.975   7.674
   55POPC   C1A 1146  10.374   5.379   7.286
   55POPC   D2A 1147  10.485   5.254   6.865
   55POPC   C3A 1148  10.185   5.262   6.543
   55POPC   C4A 1149  10.193   4.923   6.254
   55POPC   C1B 1150  10.613   4.851   7.276
   55POPC   C2B 1151  10.628   4.761   6.843
   55POPC   C3B 1152  10.676   4.877   6.412
   55POPC   C4B 1153  10.562   4.684   6.001
   56POPC   NC3 1154   5.910   0.466   8.139
   56POPC   PO4 1155   5.264   0.298   8.303
   56POPC   GL1 1156   5.441   0.481   7.814
   56POPC   GL2 1157   5.683   0.731   7.747
   56POPC   C1A 1158   5.758   0.374   7.403
   56POPC   D2A 1159   5.704   0.255   6.941
   56POPC   C3A 1160   6.030   0.203   6.604
   56POPC   C4A 1161   5.981   0.111   6.158
   56POPC   C1B 1162   6.091   0.777   7.501
   56POPC   C2B 1163   6.148   0.844   7.041
   56POPC   C3B 1164   5.865   0.725   6.693
   56POPC   C4B 1165   5.781   0.559   6.293
   57POPC   NC3 1166   9.536  10.923   8.210
   57POPC   PO4 1167   9.184  10.633   7.711
   57POPC   GL1 1168   9.467  11.005   7.653
   57POPC   GL2 1169   9.526  11.385   7.689
   57POPC   C1A 1170   9.478  11.149   7.215
   57POPC   D2A 1171   9.718  11.006   6.850
   57POPC   C3A 1172   9.520  10.968   6.436
   57POPC   C4A 1173   9.769  11.025   6.050
   57POPC   C1B 1174   9.806   0.014   7.343
   57POPC   C2B 1175   9.665   0.034   6.874
   57POPC   C3B 1176   9.677  11.449   6.415
   57POPC   C4B 1177   9.781   0.019   5.975
   58POPC   NC3 1178  10.492   8.322   8.345
   58POPC   PO4 1179   9.939   8.473   7.916
   58POPC   GL1 1180  10.123   8.324   7.591
   58POPC   GL2 1181  10.278   8.007   7.685
   58POPC   C1A 1182  10.222   8.263   7.177
   58POPC   D2A 1183  10.351   8.088   6.812
   58POPC   C3A 1184  10.270   8.310   6.470
   58POPC   C4A 1185  10.280   8.173   6.048
   58POPC   C1B 1186  10.613   8.016   7.370
   58POPC   C2B 1187  10.818   8.216   7.021
   58POPC   C3B 1188  10.787   8.264   6.578
   58POPC   C4B 1189  10.602   7.921   6.340
   59POPC   NC3 1190   4.658   1.272   7.998
   59POPC   PO4 1191   4.139   0.805   8.076
   59POPC   GL1 1192   4.012   1.071   7.736
   59POPC   GL2 1193   4.355   1.040   7.641
   59POPC   C1A 1194   3.894   0.951   7.311
   59POPC   D2A 1195   4.137   0.955   6.934
   59POPC   C3A 1196   3.987   0.944   6.551
   59POPC   C4A 1197   4.279   1.168   6.394
   59POPC   C1B 1198   4.284   1.298   7.288
   59POPC   C2B 1199   4.524   1.425   6.948
   59POPC   C3B 1200   4.571   1.541   6.545
   59POPC   C4B 1201   4.167   1.673   6.359
   60POPC   NC3 1202   1.349   4.844   8.199
   60POPC   PO4 1203   2.043   5.025   8.156
   60POPC   GL1 1204   2.032   4.937   7.715
   60POPC   GL2 1205   1.877   5.190   7.524
   60POPC   C1A 1206   1.998   4.749   7.304
   60POPC   D2A 1207   1.898   5.042   6.965
   60POPC   C3A 1208   1.853   4.820   6.576
   60POPC   C4A 1209   1.826   5.010   6.179
   60POPC   C1B 1210   2.249   5.222   7.315
   60POPC   C2B 1211   2.308   5.372   6.887
   60POPC   C3B 1212   2.227   5.189   6.466
   60POPC   C4B 1213   2.459   5.203   6.056
   61POPC   NC3 1214   9.798   5.155   8.222
   61POPC   PO4 1215   9.753   4.489   8.026
   61POPC   GL1 1216   9.931   4.833   7.745
   61POPC   GL2 1217   9.729   5.150   7.719
   61POPC   C1A 1218  10.044   4.984   7.303
   61POPC   D2A 1219  10.115   4.860   6.856
   61POPC   C3A 1220   9.777   4.951   6.518
   61POPC   C4A 1221   9.631   4.790   6.126
   61POPC   C1B 1222   9.542   5.087   7.314
   61POPC   C2B 1223   9.535   5.214   6.870
   61POPC   C3B 1224   9.341   5.227   6.452
   61POPC   C4B 1225   9.403   5.229   6.015
   62POPC   NC3 1226  11.358  11.119   7.875
   62POPC   PO4 1227  10.818  11.455   8.101
   62POPC   GL1 1228  11.070   0.018   7.734
   62POPC   GL2 1229  10.832  11.396   7.534
   62POPC   C1A 1230  11.310   0.043   7.339
   62POPC   D2A 1231  11.064   0.027   6.966
   62POPC   C3A 1232  11.318  11.489   6.606
   62POPC   C4A 1233  11.204   0.025   6.185
   62POPC   C1B 1234  11.029  11.101   7.276
   62POPC   C2B 1235  11.137  11.015   6.859
   62POPC   C3B 1236  11.250  10.996   6.435
   62POPC   C4B 1237  10.989  10.761   6.128
   63POPC   NC3 1238  10.200   3.393   8.233
   63POPC   PO4 1239  10.676   3.318   7.772
   63POPC   GL1 1240  10.300   3.297   7.573
   63POPC   GL2 1241  10.192   3.600   7.753
   63POPC   C1A 1242  10.335   3.303   7.112
   63POPC   D2A 1243  10.269   3.377   6.662
   63POPC   C3A 1244  10.619   3.494   6.348
   63POPC   C4A 1245  10.621   3.329   5.912
   63POPC   C1B 1246  10.155   3.775   7.349
   63POPC   C2B 1247  10.330   3.791   6.940
   63POPC   C3B 1248  10.183   3.891   6.545
   63POPC   C4B 1249  10.231   3.725   6.125
   64POPC   NC3 1250   6.718   0.065   8.214
   64POPC   PO4 1251   6.358   0.550   8.222
   64POPC   GL1 1252   6.306   0.368   7.767
   64POPC   GL2 1253   6.566   0.104   7.698
   64POPC   C1A 1254   6.268   0.329   7.282
   64POPC   D2A 1255   6.485   0.256   6.866
   64POPC   C3A 1256   6.405   0.592   6.556
   64POPC   C4A 1257   6.271   0.520   6.138
   64POPC   C1B 1258   6.764   0.400   7.408
   64POPC   C2B 1259   6.906   0.535   6.978
   64POPC   C3B 1260   6.908   0.450   6.526
   64POPC   C4B 1261   6.770   0.644   6.130
   65POPC   NC3 1262   4.708  10.339   8.435
   65POPC   PO4 1263   4.942  10.954   8.186
   65POPC   GL1 1264   5.140  10.734   7.751
   65POPC   GL2 1265   4.901  10.794   7.445
   65POPC   C1A 1266   5.197  10.408   7.397
   65POPC   D2A 1267   5.089  10.453   6.925
   65POPC   C3A 1268   5.153  10.120   6.600
   65POPC   C4A 1269   5.047  10.121   6.146
   65POPC   C1B 1270   5.304  10.866   7.202
   65POPC   C2B 1271   5.327  10.901   6.749
   65POPC   C3B 1272   5.159  10.648   6.394
   65POPC   C4B 1273   5.223  10.569   5.925
   66POPC   NC3 1274  11.496   5.438   8.111
   66POPC   PO4 1275   0.016   4.700   8.105
   66POPC   GL1 1276  11.191   4.836   7.848
   66POPC   GL2 1277  11.176   5.204   7.765
   66POPC   C1A 1278  11.114   4.816   7.415
   66POPC   D2A 1279  11.096   4.610   7.019
   66POPC   C3A 1280  11.146   4.860   6.662
   66POPC   C4A 1281  11.152   4.749   6.255
   66POPC   C1B 1282  10.849   5.272   7.446
   66POPC   C2B 1283  10.958   5.155   7.030
   66POPC   C3B 1284  10.941   5.341   6.614
   66POPC   C4B 1285  10.617   5.383   6.309
   67POPC   NC3 1286   7.880  10.293   8.055
   67POPC   PO4 1287   8.353   9.956   7.670
   67POPC   GL1 1288   8.005  10.267   7.567
   67POPC   GL2 1289   8.006  10.663   7.733
   67POPC   C1A 1290   7.809  10.309   7.163
   67POPC   D2A 1291   8.070  10.432   6.806
   67POPC   C3A 1292   8.184  10.151   6.484
   67POPC   C4A 1293   7.801  10.241   6.334
   67POPC   C1B 1294   7.839  10.756   7.362
   67POPC   C2B 1295   7.715  10.790   6.919
   67POPC   C3B 1296   7.954  10.904   6.609
   67POPC   C4B 1297   8.122  10.659   6.326
   68POPC   NC3 1298   4.545   2.861   8.455
   68POPC   PO4 1299   3.993   2.615   8.094
   68POPC   GL1 1300   4.189   2.671   7.683
   68POPC   GL2 1301   3.997   2.968   7.625
   68POPC   C1A 1302   4.498   2.610   7.305
   68POPC   D2A 1303   4.525   2.332   6.921
   68POPC   C3A 1304   4.587   2.561   6.531
   68POPC   C4A 1305   4.476   2.447   6.108
   68POPC   C1B 1306   3.990   2.755   7.215
   68POPC   C2B 1307   4.181   2.774   6.786
   68POPC   C3B 1308   4.158   2.799   6.318
   68POPC   C4B 1309   4.428   2.954   5.976
   69POPC   NC3 1310   1.384   6.219   8.187
   69POPC   PO4 1311   1.227   5.576   7.980
   69POPC   GL1 1312   1.253   5.877   7.663
   69POPC   GL2 1313   1.296   5.604   7.453
   69POPC   C1A 1314   1.043   6.005   7.246
   69POPC   D2A 1315   0.904   5.876   6.798
   69POPC   C3A 1316   0.950   6.133   6.411
   69POPC   C4A 1317   0.825   6.052   5.961
   69POPC   C1B 1318   1.586   5.434   7.184
   69POPC   C2B 1319   1.387   5.580   6.820
   69POPC   C3B 1320   1.263   5.705   6.417
   69POPC   C4B 1321   1.513   5.417   6.212
   70POPC   NC3 1322   3.550   0.167   8.185
   70POPC   PO4 1323   3.603  10.946   8.213
   70POPC   GL1 1324   3.679  10.992   7.785
   70POPC   GL2 1325   3.559  11.353   7.749
   70POPC   C1A 1326   3.916  11.066   7.406
   70POPC   D2A 1327   3.863  11.308   7.013
   70POPC   C3A 1328   3.753  11.116   6.609
   70POPC   C4A 1329   3.758  11.224   6.157
   70POPC   C1B 1330   3.378  11.216   7.346
   70POPC   C2B 1331   3.211  11.279   6.915
   70POPC   C3B 1332   3.309  11.333   6.456
   70POPC   C4B 1333   3.347  10.906   6.280
   71POPC   NC3 1334  11.128   4.454   8.241
   71POPC   PO4 1335  11.430   3.904   8.028
   71POPC   GL1 1336  11.374   4.283   7.790
   71POPC   GL2 1337  11.032   4.358   7.730
   71POPC   C1A 1338  11.441   4.416   7.353
   71POPC   D2A 1339  11.472   4.207   6.969
   71POPC   C3A 1340  11.383   4.323   6.554
   71POPC   C4A 1341  11.393   4.032   6.195
   71POPC   C1B 1342  11.001   4.194   7.325
   71POPC   C2B 1343  10.980   4.111   6.900
   71POPC   C3B 1344  10.891   4.418   6.565
   71POPC   C4B 1345  10.958   4.285   6.165
   72POPC   NC3 1346   9.361   4.267   8.080
   72POPC   PO4 1347   9.996   3.877   8.164
   72POPC   GL1 1348   9.816   3.954   7.746
   72POPC   GL2 1349   9.971   4.208   7.558
   72POPC   C1A 1350   9.598   3.820   7.354
   72POPC   D2A 1351   9.342   3.912   6.949
   72POPC   C3A 1352   9.432   3.884   6.502
   72POPC   C4A 1353   9.781   4.049   6.290
   72POPC   C1B 1354   9.735   4.555   7.352
   72POPC   C2B 1355   9.639   4.690   6.942
   72POPC   C3B 1356   9.612   4.467   6.545
   72POPC   C4B 1357   9.342   4.352   6.213
   73POPC   NC3 1358   2.666   7.998   8.062
   73POPC   PO4 1359   2.130   7.493   8.279
   73POPC   GL1 1360   2.067   7.408   7.848
   73POPC   GL2 1361   1.754   7.336   7.785
   73POPC   C1A 1362   2.113   7.469   7.393
   73POPC   D2A 1363   2.178   7.745   7.032
   73POPC   C3A 1364   2.174   7.536   6.625
   73POPC   C4A 1365   2.018   7.626   6.179
   73POPC   C1B 1366   1.619   7.398   7.348
   73POPC   C2B 1367   1.839   7.278   6.967
   73POPC   C3B 1368   1.714   7.333   6.544
   73POPC   C4B 1369   1.857   7.124   6.168
   74POPC   NC3 1370  10.642   1.295   8.358
   74POPC   PO4 1371  10.196   0.871   8.021
   74POPC   GL1 1372  10.382   1.131   7.713
   74POPC   GL2 1373  10.261   1.446   7.741
   74POPC   C1A 1374  10.372   1.098   7.300
   74POPC   D2A 1375  10.007   0.972   7.074
   74POPC   C3A 1376  10.055   1.047   6.644
   74POPC   C4A 1377  10.453   1.041   6.371
   74POPC   C1B 1378  10.142   1.547   7.305
   74POPC   C2B 1379  10.309   1.410   6.898
   74POPC   C3B 1380  10.256   1.506   6.463
   74POPC   C4B 1381  10.382   1.442   6.002
   75POPC   NC3 1382   0.544   4.778   8.018
   75POPC   PO4 1383   0.453   5.485   7.925
   75POPC   GL1 1384   0.513   5.138   7.657
   75POPC   GL2 1385   0.169   5.035   7.713
   75POPC   C1A 1386   0.622   5.062   7.230
   75POPC   D2A 1387   0.387   5.126   6.844
   75POPC   C3A 1388   0.591   5.057   6.475
   75POPC   C4A 1389   0.872   4.767   6.359
   75POPC   C1B 1390   0.134   4.881   7.274
   75POPC   C2B 1391   0.099   4.703   6.844
   75POPC   C3B 1392   0.103   4.936   6.424
   75POPC   C4B 1393   0.269   5.329   6.180
   76POPC   NC3 1394   0.933   7.385   8.106
   76POPC   PO4 1395   0.416   7.698   8.363
   76POPC   GL1 1396   0.543   7.630   7.853
   76POPC   GL2 1397   0.402   7.332   7.695
   76POPC   C1A 1398   0.509   7.668   7.358
   76POPC   D2A 1399   0.294   7.509   7.019
   76POPC   C3A 1400   0.492   7.630   6.649
   76POPC   C4A 1401   0.458   7.508   6.251
   76POPC   C1B 1402   0.509   7.106   7.358
   76POPC   C2B 1403   0.431   6.995   6.967
   76POPC   C3B 1404   0.395   7.129   6.591
   76POPC   C4B 1405   0.700   7.054   6.292
   77POPC   NC3 1406   2.056   4.453   7.991
   77POPC   PO4 1407   1.514   4.019   8.067
   77POPC   GL1 1408   1.665   4.219   7.677
   77POPC   GL2 1409   2.000   4.244   7.524
   77POPC   C1A 1410   1.596   4.369   7.237
   77POPC   D2A 1411   1.769   4.102   6.899
   77POPC   C3A 1412   1.604   4.151   6.467
   77POPC   C4A 1413   1.698   4.505   6.193
   77POPC   C1B 1414   2.212   3.981   7.181
   77POPC   C2B 1415   2.325   4.061   6.749
   77POPC   C3B 1416   2.110   4.319   6.434
   77POPC   C4B 1417   2.225   4.711   6.204
   78POPC   NC3 1418   7.057  10.247   8.040
   78POPC   PO4 1419   7.530  10.715   8.065
   78POPC   GL1 1420   7.530  10.464   7.652
   78POPC   GL2 1421   7.505  10.106   7.618
   78POPC   C1A 1422   7.355  10.626   7.229
   78POPC   D2A 1423   7.104  10.633   6.833
   78POPC   C3A 1424   7.407  10.529   6.532
   78POPC   C4A 1425   7.626  10.785   6.260
   78POPC   C1B 1426   7.154  10.181   7.353
   78POPC   C2B 1427   7.292  10.194   6.951
   78POPC   C3B 1428   7.230  10.054   6.540
   78POPC   C4B 1429   7.101  10.153   6.166
   79POPC   NC3 1430   2.000   1.121   8.076
   79POPC   PO4 1431   2.270   1.602   7.818
   79POPC   GL1 1432   2.047   1.335   7.567
   79POPC   GL2 1433   1.719   1.329   7.692
   79POPC   C1A 1434   2.143   1.151   7.153
   79POPC   D2A 1435   2.313   0.958   6.757
   79POPC   C3A 1436   2.112   1.187   6.400
   79POPC   C4A 1437   2.239   1.483   6.088
   79POPC   C1B 1438   1.633   1.134   7.295
   79POPC   C2B 1439   1.527   1.287   6.898
   79POPC   C3B 1440   1.570   1.155   6.492
   79POPC   C4B 1441   1.679   1.008   6.119
   80POPC   NC3 1442  10.363   9.067   8.241
   80POPC   PO4 1443  10.471   9.653   8.243
   80POPC   GL1 1444  10.465   9.701   7.773
   80POPC   GL2 1445  10.140   9.796   7.683
   80POPC   C1A 1446  10.440   9.546   7.326
   80POPC   D2A 1447  10.321   9.658   6.883
   80POPC   C3A 1448  10.373   9.578   6.442
   80POPC   C4A 1449  10.605   9.883   6.211
   80POPC   C1B 1450  10.147   9.990   7.266
   80POPC   C2B 1451   9.969  10.038   6.831
   80POPC   C3B 1452  10.153  10.098   6.386
   80POPC   C4B 1453  10.173   9.902   5.934
   81POPC   NC3 1454   1.815   3.672   8.009
   81POPC   PO4 1455   2.398   4.009   7.998
   81POPC   GL1 1456   2.172   3.784   7.655
   81POPC   GL2 1457   2.106   3.444   7.661
   81POPC   C1A 1458   1.799   3.733   7.347
   81POPC   D2A 1459   1.769   3.564   6.921
   81POPC   C3A 1460   1.962   3.778   6.552
   81POPC   C4A 1461   2.300   3.864   6.259
   81POPC   C1B 1462   2.019   3.243   7.267
   81POPC   C2B 1463   1.984   3.060   6.866
   81POPC   C3B 1464   1.979   3.273   6.495
   81POPC   C4B 1465   1.762   3.521   6.170
   82POPC   NC3 1466  10.329   2.156   8.015
   82POPC   PO4 1467   9.849   1.695   8.005
   82POPC   GL1 1468   9.718   1.816   7.620
   82POPC   GL2 1469   9.387   1.617   7.580
   82POPC   C1A 1470   9.935   2.037   7.270
   82POPC   D2A 1471  10.103   1.882   6.890
   82POPC   C3A 1472   9.861   1.843   6.479
   82POPC   C4A 1473   9.939   1.687   6.095
   82POPC   C1B 1474   9.484   1.824   7.184
   82POPC   C2B 1475   9.654   2.090   6.850
   82POPC   C3B 1476   9.601   2.348   6.467
   82POPC   C4B 1477   9.399   2.376   6.046
   83POPC   NC3 1478   0.811   5.687   8.182
   83POPC   PO4 1479   0.182   5.860   8.238
   83POPC   GL1 1480   0.213   5.943   7.772
   83POPC   GL2 1481   0.576   5.982   7.749
   83POPC   C1A 1482   0.224   5.732   7.339
   83POPC   D2A 1483   0.557   5.564   7.062
   83POPC   C3A 1484   0.474   5.574   6.612
   83POPC   C4A 1485   0.748   5.660   6.275
   83POPC   C1B 1486   0.547   6.111   7.304
   83POPC   C2B 1487   0.392   6.032   6.880
   83POPC   C3B 1488   0.445   6.047   6.416
   83POPC   C4B 1489   0.108   5.817   6.235
   84POPC   NC3 1490  10.308  10.077   8.113
   84POPC   PO4 1491  10.027  10.724   8.082
   84POPC   GL1 1492  10.160  10.449   7.707
   84POPC   GL2 1493  10.448  10.204   7.643
   84POPC   C1A 1494  10.296  10.524   7.274
   84POPC   D2A 1495  10.257  10.804   6.933
   84POPC   C3A 1496  10.250  10.629   6.546
   84POPC   C4A 1497  10.200  10.762   6.116
   84POPC   C1B 1498  10.786  10.379   7.406
   84POPC   C2B 1499  10.787  10.677   7.066
   84POPC   C3B 1500  10.803  10.674   6.613
   84POPC   C4B 1501  10.607  10.443   6.243
   85POPC   NC3 1502   4.418   0.478   7.893
   85POPC   PO4 1503   4.020   0.058   8.227
   85POPC   GL1 1504   3.935   0.227   7.746
   85POPC   GL2 1505   3.999   0.573   7.634
   85POPC   C1A 1506   3.982   0.274   7.231
   85POPC   D2A 1507   3.901   0.508   6.832
   85POPC   C3A 1508   4.048   0.321   6.418
   85POPC   C4A 1509   4.136   0.379   5.970
   85POPC   C1B 1510   4.323   0.662   7.299
   85POPC   C2B 1511   4.412   0.521   6.919
   85POPC   C3B 1512   4.408   0.673   6.524
   85POPC   C4B 1513   4.590   0.541   6.193
   86POPC   NC3 1514   1.944   1.822   8.068
   86POPC   PO4 1515   1.979   2.495   7.853
   86POPC   GL1 1516   2.077   2.224   7.581
   86POPC   GL2 1517   1.946   1.878   7.548
   86POPC   C1A 1518   2.114   2.327   7.157
   86POPC   D2A 1519   1.990   2.055   6.831
   86POPC   C3A 1520   2.066   2.227   6.419
   86POPC   C4A 1521   1.849   2.463   6.121
   86POPC   C1B 1522   1.817   1.627   7.194
   86POPC   C2B 1523   1.955   1.519   6.766
   86POPC   C3B 1524   1.805   1.603   6.343
   86POPC   C4B 1525   1.914   1.896   6.015
   87POPC   NC3 1526   9.566   3.719   8.127
   87POPC   PO4 1527   9.807   3.151   8.238
   87POPC   GL1 1528   9.752   3.333   7.793
   87POPC   GL2 1529   9.455   3.148   7.816
   87POPC   C1A 1530   9.848   3.375   7.296
   87POPC   D2A 1531   9.834   3.716   6.902
   87POPC   C3A 1532   9.808   3.544   6.468
   87POPC   C4A 1533   9.817   3.131   6.502
   87POPC   C1B 1534   9.375   3.194   7.380
   87POPC   C2B 1535   9.450   3.374   6.951
   87POPC   C3B 1536   9.327   3.280   6.534
   87POPC   C4B 1537   9.350   3.454   6.151
   88POPC   NC3 1538   8.729   9.025   8.173
   88POPC   PO4 1539   9.194   8.482   8.072
   88POPC   GL1 1540   8.894   8.735   7.778
   88POPC   GL2 1541   8.894   9.124   7.694
   88POPC   C1A 1542   8.694   8.800   7.363
   88POPC   D2A 1543   8.839   8.851   6.932
   88POPC   C3A 1544   8.689   8.678   6.542
   88POPC   C4A 1545   8.440   8.823   6.182
   88POPC   C1B 1546   9.001   9.246   7.242
   88POPC   C2B 1547   8.790   9.325   6.803
   88POPC   C3B 1548   8.835   9.156   6.341
   88POPC   C4B 1549   9.162   9.105   5.971
   89POPC   NC3 1550   2.656   1.381   8.016
   89POPC   PO4 1551   2.303   0.774   8.136
   89POPC   GL1 1552   2.409   0.986   7.703
   89POPC   GL2 1553   2.580   1.297   7.535
   89POPC   C1A 1554   2.608   0.873   7.278
   89POPC   D2A 1555   2.879   0.948   6.913
   89POPC   C3A 1556   2.747   0.884   6.481
   89POPC   C4A 1557   2.441   0.875   6.180
   89POPC   C1B 1558   3.010   1.413   7.389
   89POPC   C2B 1559   3.109   1.404   6.949
   89POPC   C3B 1560   3.070   1.271   6.519
   89POPC   C4B 1561   2.704   1.400   6.263
   90POPC   NC3 1562   9.583   8.227   8.077
   90POPC   PO4 1563   9.433   7.665   8.044
   90POPC   GL1 1564   9.348   8.041   7.671
   90POPC   GL2 1565   9.523   8.400   7.626
   90POPC   C1A 1566   9.299   8.246   7.238
   90POPC   D2A 1567   9.459   8.082   6.923
   90POPC   C3A 1568   9.553   8.212   6.576
   90POPC   C4A 1569   9.454   7.981   6.211
   90POPC   C1B 1570   9.770   8.074   7.325
   90POPC   C2B 1571   9.900   7.849   6.886
   90POPC   C3B 1572   9.943   7.926   6.402
   90POPC   C4B 1573   9.836   8.361   6.190
   91POPC   NC3 1574   6.656   1.667   8.000
   91POPC   PO4 1575   7.021   2.224   7.928
   91POPC   GL1 1576   6.958   1.895   7.601
   91POPC   GL2 1577   6.588   1.810   7.530
   91POPC   C1A 1578   6.916   1.814   7.160
   91POPC   D2A 1579   6.766   2.073   6.831
   91POPC   C3A 1580   6.855   1.833   6.489
   91POPC   C4A 1581   6.740   1.670   6.152
   91POPC   C1B 1582   6.199   1.762   7.285
   91POPC   C2B 1583   6.099   1.915   6.878
   91POPC   C3B 1584   6.342   2.019   6.534
   91POPC   C4B 1585   6.181   2.339   6.247
   92POPC   NC3 1586   6.300   3.422   8.317
   92POPC   PO4 1587   6.608   3.008   8.157
   92POPC   GL1 1588   6.473   3.237   7.760
   92POPC   GL2 1589   6.489   3.586   7.846
   92POPC   C1A 1590   6.441   3.194   7.257
   92POPC   D2A 1591   6.657   3.202   6.829
   92POPC   C3A 1592   6.429   3.244   6.413
   92POPC   C4A 1593   6.497   3.199   5.944
   92POPC   C1B 1594   6.652   3.623   7.426
   92POPC   C2B 1595   6.472   3.658   7.003
   92POPC   C3B 1596   6.656   3.670   6.590
   92POPC   C4B 1597   6.532   3.697   6.152
   93POPC   NC3 1598   8.062   1.378   8.141
   93POPC   PO4 1599   7.732   0.782   7.952
   93POPC   GL1 1600   7.917   1.077   7.615
   93POPC   GL2 1601   8.234   1.268   7.642
   93POPC   C1A 1602   7.931   1.321   7.199
   93POPC   D2A 1603   7.635   1.354   6.827
   93POPC   C3A 1604   7.843   1.158   6.468
   93POPC   C4A 1605   7.969   1.100   6.003
   93POPC   C1B 1606   8.295   0.885   7.328
   93POPC   C2B 1607   8.318   0.785   6.857
   93POPC   C3B 1608   8.277   0.898   6.402
   93POPC   C4B 1609   8.303   1.355   6.291
   94POPC   NC3 1610   6.376  10.733   8.113
   94POPC   PO4 1611   6.598  10.048   8.091
   94POPC   GL1 1612   6.498  10.353   7.778
   94POPC   GL2 1613   6.789  10.363   7.634
   94POPC   C1A 1614   6.382  10.587   7.392
   94POPC   D2A 1615   6.524  10.562   6.914
   94POPC   C3A 1616   6.266  10.676   6.533
   94POPC   C4A 1617   6.255  10.626   6.048
   94POPC   C1B 1618   6.602  10.135   7.303
   94POPC   C2B 1619   6.808  10.060   6.921
   94POPC   C3B 1620   6.793  10.309   6.556
   94POPC   C4B 1621   6.475  10.205   6.312
   95POPC   NC3 1622   6.863   2.644   8.039
   95POPC   PO4 1623   7.551   2.675   8.182
   95POPC   GL1 1624   7.325   2.724   7.761
   95POPC   GL2 1625   7.353   2.441   7.593
   95POPC   C1A 1626   7.021   2.712   7.351
   95POPC   D2A 1627   7.065   2.484   6.921
   95POPC   C3A 1628   7.077   2.731   6.513
   95POPC   C4A 1629   6.914   3.094   6.247
   95POPC   C1B 1630   7.496   2.598   7.199
   95POPC   C2B 1631   7.555   2.374   6.827
   95POPC   C3B 1632   7.593   2.546   6.438
   95POPC   C4B 1633   7.434   2.870   6.152
   96POPC   NC3 1634  11.129   2.127   8.094
   96POPC   PO4 1635  11.346   1.456   8.043
   96POPC   GL1 1636  11.251   1.778   7.739
   96POPC   GL2 1637  11.370   1.552   7.509
   96POPC   C1A 1638  11.060   1.959   7.356
   96POPC   D2A 1639  11.064   1.775   6.942
   96POPC   C3A 1640  11.145   2.027   6.562
   96POPC   C4A 1641  11.166   1.844   6.151
   96POPC   C1B 1642   0.033   1.816   7.190
   96POPC   C2B 1643   0.034   1.769   6.767
   96POPC   C3B 1644   0.138   1.912   6.400
   96POPC   C4B 1645   0.261   1.529   6.280
   97POPC   NC3 1646   5.209   0.744   8.187
   97POPC   PO4 1647   5.119   1.393   8.037
   97POPC   GL1 1648   5.017   1.122   7.687
   97POPC   GL2 1649   5.224   0.873   7.545
   97POPC   C1A 1650   4.760   1.108   7.290
   97POPC   D2A 1651   4.664   0.960   6.860
   97POPC   C3A 1652   4.917   0.833   6.516
   97POPC   C4A 1653   4.741   1.046   6.156
   97POPC   C1B 1654   5.235   1.269   7.271
   97POPC   C2B 1655   5.048   1.353   6.883
   97POPC   C3B 1656   5.042   1.325   6.451
   97POPC   C4B 1657   5.304   1.408   6.110
   98POPC   NC3 1658   0.306   3.644   7.861
   98POPC   PO4 1659   0.302   3.056   8.248
   98POPC   GL1 1660   0.577   3.085   7.763
   98POPC   GL2 1661   0.783   3.388   7.705
   98POPC   C1A 1662   0.486   3.149   7.254
   98POPC   D2A 1663   0.070   3.203   6.978
   98POPC   C3A 1664   0.053   3.073   6.527
   98POPC   C4A 1665   0.373   3.206   6.174
   98POPC   C1B 1666   0.753   3.588   7.261
   98POPC   C2B 1667   0.567   3.579   6.801
   98POPC   C3B 1668   0.613   3.651   6.316
   98POPC   C4B 1669   0.625   3.660   5.829
   99POPC   NC3 1670  10.278   6.574   7.979
   99POPC   PO4 1671  10.762   7.035   7.763
   99POPC   GL1 1672  10.438   6.872   7.586
   99POPC   GL2 1673  10.615   6.552   7.605
   99POPC   C1A 1674  10.521   6.799   7.159
   99POPC   D2A 1675  10.479   6.688   6.717
   99POPC   C3A 1676  10.580   6.986   6.423
   99POPC   C4A 1677  10.323   7.032   6.097
   99POPC   C1B 1678  10.509   6.299   7.260
   99POPC   C2B 1679  10.308   6.222   6.873
   99POPC   C3B 1680  10.388   6.265   6.423
   99POPC   C4B 1681  10.189   6.151   6.039
  100POPC   NC3 1682  10.541   5.813   8.101
  100POPC   PO4 1683   9.948   6.179   7.978
  100POPC   GL1 1684  10.324   6.107   7.712
  100POPC   GL2 1685  10.208   5.780   7.698
  100POPC   C1A 1686  10.605   5.822   7.411
  100POPC   D2A 1687  10.790   5.639   7.046
  100POPC   C3A 1688  10.701   5.898   6.692
  100POPC   C4A 1689  10.704   5.887   6.253
  100POPC   C1B 1690  10.132   5.906   7.269
  100POPC   C2B 1691  10.267   5.711   6.888
  100POPC   C3B 1692  10.238   5.763   6.438
  100POPC   C4B 1693  10.307   5.659   5.984
  101POPC   NC3 1694  11.433   2.870   8.041
  101POPC   PO4 1695  10.806   3.154   8.251
  101POPC   GL1 1696  10.995   2.953   7.774
  101POPC   GL2 1697  11.273   2.842   7.571
  101POPC   C1A 1698  10.936   3.033   7.271
  101POPC   D2A 1699  11.194   2.826   6.985
  101POPC   C3A 1700  10.989   2.663   6.675
  101POPC   C4A 1701  11.142   2.713   6.323
  101POPC   C1B 1702  11.227   2.455   7.345
  101POPC   C2B 1703  11.388   2.283   6.962
  101POPC   C3B 1704   0.028   2.430   6.565
  101POPC   C4B 1705  11.381   2.297   6.164
  102POPC   NC3 1706   3.630   2.969   8.043
  102POPC   PO4 1707   3.139   2.478   8.045
  102POPC   GL1 1708   3.310   2.723   7.716
  102POPC   GL2 1709   3.656   2.583   7.657
  102POPC   C1A 1710   3.267   2.904   7.301
  102POPC   D2A 1711   3.120   2.801   6.870
  102POPC   C3A 1712   3.305   2.952   6.469
  102POPC   C4A 1713   3.288   2.874   6.000
  102POPC   C1B 1714   3.564   2.459   7.212
  102POPC   C2B 1715   3.626   2.617   6.770
  102POPC   C3B 1716   3.680   2.601   6.316
  102POPC   C4B 1717   3.607   2.474   5.896
  103POPC   NC3 1718   9.537   7.230   8.125
  103POPC   PO4 1719  10.197   7.023   8.113
  103POPC   GL1 1720   9.942   7.063   7.750
  103POPC   GL2 1721   9.827   7.408   7.709
  103POPC   C1A 1722   9.767   6.989   7.322
  103POPC   D2A 1723   9.768   7.214   6.893
  103POPC   C3A 1724   9.596   7.049   6.458
  103POPC   C4A 1725   9.766   6.962   6.026
  103POPC   C1B 1726   9.557   7.610   7.385
  103POPC   C2B 1727   9.426   7.587   6.966
  103POPC   C3B 1728   9.550   7.595   6.547
  103POPC   C4B 1729   9.277   7.406   6.256
  104POPC   NC3 1730   5.421  10.341   8.353
  104POPC   PO4 1731   5.884   9.742   8.165
  104POPC   GL1 1732   5.639   9.930   7.849
  104POPC   GL2 1733   5.881   9.745   7.645
  104POPC   C1A 1734   5.536   9.992   7.396
  104POPC   D2A 1735   5.851   9.919   7.031
  104POPC   C3A 1736   5.695   9.912   6.566
  104POPC   C4A 1737   5.522   9.792   6.122
  104POPC   C1B 1738   5.682   9.511   7.284
  104POPC   C2B 1739   5.816   9.463   6.842
  104POPC   C3B 1740   5.742   9.421   6.405
  104POPC   C4B 1741   6.050   9.310   6.099
  105POPC   NC3 1742   2.014  11.401   8.157
  105POPC   PO4 1743   1.779  10.803   8.094
  105POPC   GL1 1744   1.792  11.103   7.732
  105POPC   GL2 1745   2.080  11.310   7.667
  105POPC   C1A 1746   1.875  11.052   7.298
  105POPC   D2A 1747   1.721  11.090   6.908
  105POPC   C3A 1748   1.972  11.099   6.544
  105POPC   C4A 1749   1.946  10.907   6.150
  105POPC   C1B 1750   2.274  11.437   7.295
  105POPC   C2B 1751   2.152  11.409   6.890
  105POPC   C3B 1752   2.362  11.439   6.485
  105POPC   C4B 1753   2.112  11.387   6.131
  106POPC   NC3 1754   4.287   9.819   8.045
  106POPC   PO4 1755   4.866   9.425   8.085
  106POPC   GL1 1756   4.645   9.626   7.740
  106POPC   GL2 1757   4.330   9.466   7.662
  106POPC   C1A 1758   4.545   9.790   7.317
  106POPC   D2A 1759   4.341   9.620   6.924
  106POPC   C3A 1760   4.368   9.907   6.564
  106POPC   C4A 1761   4.604   9.921   6.198
  106POPC   C1B 1762   4.011   9.614   7.331
  106POPC   C2B 1763   3.845   9.451   6.906
  106POPC   C3B 1764   3.944   9.610   6.481
  106POPC   C4B 1765   4.222   9.603   6.116
  107POPC   NC3 1766   2.706   9.474   8.108
  107POPC   PO4 1767   2.398  10.034   7.937
  107POPC   GL1 1768   2.679   9.774   7.666
  107POPC   GL2 1769   3.039   9.679   7.724
  107POPC   C1A 1770   2.818   9.854   7.265
  107POPC   D2A 1771   2.755   9.966   6.854
  107POPC   C3A 1772   2.442   9.831   6.658
  107POPC   C4A 1773   2.587   9.643   6.329
  107POPC   C1B 1774   3.023   9.397   7.328
  107POPC   C2B 1775   2.854   9.458   6.906
  107POPC   C3B 1776   3.046   9.575   6.517
  107POPC   C4B 1777   2.928   9.337   6.108
  108POPC   NC3 1778   6.829   8.722   8.009
  108POPC   PO4 1779   7.544   8.642   8.077
  108POPC   GL1 1780   7.482   8.925   7.726
  108POPC   GL2 1781   7.142   9.011   7.686
  108POPC   C1A 1782   7.459   8.851   7.273
  108POPC   D2A 1783   7.373   8.699   6.844
  108POPC   C3A 1784   7.620   8.770   6.493
  108POPC   C4A 1785   7.420   8.652   6.142
  108POPC   C1B 1786   7.120   9.253   7.305
  108POPC   C2B 1787   7.300   9.196   6.883
  108POPC   C3B 1788   7.163   9.014   6.468
  108POPC   C4B 1789   7.303   9.143   6.040
  109POPC   NC3 1790  10.510   2.909   7.934
  109POPC   PO4 1791  10.759   2.263   7.868
  109POPC   GL1 1792  10.504   2.499   7.604
  109POPC   GL2 1793  10.146   2.430   7.506
  109POPC   C1A 1794  10.730   2.559   7.236
  109POPC   D2A 1795  10.876   2.254   6.951
  109POPC   C3A 1796  10.687   2.261   6.532
  109POPC   C4A 1797  10.450   2.572   6.356
  109POPC   C1B 1798  10.257   2.790   7.234
  109POPC   C2B 1799  10.573   2.892   6.895
  109POPC   C3B 1800  10.616   3.018   6.490
  109POPC   C4B 1801  10.256   3.133   6.223
  110POPC   NC3 1802   9.631   8.771   8.107
  110POPC   PO4 1803   9.349   9.302   7.905
  110POPC   GL1 1804   9.376   8.910   7.673
  110POPC   GL2 1805   9.725   8.872   7.608
  110POPC   C1A 1806   9.274   8.771   7.246
  110POPC   D2A 1807   9.305   9.023   6.850
  110POPC   C3A 1808   9.218   8.853   6.455
  110POPC   C4A 1809   9.421   8.676   6.107
  110POPC   C1B 1810   9.819   8.593   7.264
  110POPC   C2B 1811   9.911   8.486   6.842
  110POPC   C3B 1812   9.715   8.711   6.533
  110POPC   C4B 1813   9.906   8.856   6.170
  111POPC   NC3 1814   2.875  10.125   7.998
  111POPC   PO4 1815   2.600  10.771   8.051
  111POPC   GL1 1816   2.901  10.612   7.782
  111POPC   GL2 1817   2.647  10.413   7.653
  111POPC   C1A 1818   2.995  10.687   7.358
  111POPC   D2A 1819   2.741  10.754   6.990
  111POPC   C3A 1820   2.960  10.729   6.604
  111POPC   C4A 1821   2.789  10.621   6.220
  111POPC   C1B 1822   2.597  10.319   7.257
  111POPC   C2B 1823   2.356  10.388   6.924
  111POPC   C3B 1824   2.546  10.370   6.589
  111POPC   C4B 1825   2.561  10.134   6.235
  112POPC   NC3 1826   7.826  11.129   7.980
  112POPC   PO4 1827   8.445  10.906   7.970
  112POPC   GL1 1828   8.235  11.160   7.638
  112POPC   GL2 1829   7.926  11.400   7.580
  112POPC   C1A 1830   8.231  11.021   7.216
  112POPC   D2A 1831   8.414  10.793   6.898
  112POPC   C3A 1832   8.454  11.008   6.572
  112POPC   C4A 1833   8.486  11.119   6.184
  112POPC   C1B 1834   8.068   0.010   7.236
  112POPC   C2B 1835   8.024  11.320   6.864
  112POPC   C3B 1836   8.141  11.387   6.467
  112POPC   C4B 1837   7.978  11.143   6.137
  113POPC   NC3 1838   2.406   2.348   7.983
  113POPC   PO4 1839   2.496   1.746   8.269
  113POPC   GL1 1840   2.628   1.922   7.805
  113POPC   GL2 1841   2.891   2.083   7.836
  113POPC   C1A 1842   2.434   1.962   7.343
  113POPC   D2A 1843   2.498   2.020   6.914
  113POPC   C3A 1844   2.347   1.793   6.525
  113POPC   C4A 1845   2.418   1.947   6.106
  113POPC   C1B 1846   2.929   1.974   7.380
  113POPC   C2B 1847   3.041   2.006   6.937
  113POPC   C3B 1848   3.104   2.201   6.542
  113POPC   C4B 1849   2.920   1.964   6.204
  114POPC   NC3 1850   4.512   9.132   8.057
  114POPC   PO4 1851   3.891   9.319   8.060
  114POPC   GL1 1852   3.908   9.202   7.604
  114POPC   GL2 1853   4.133   8.955   7.691
  114POPC   C1A 1854   4.161   9.149   7.200
  114POPC   D2A 1855   4.079   8.980   6.777
  114POPC   C3A 1856   4.205   9.164   6.374
  114POPC   C4A 1857   4.277   9.130   5.910
  114POPC   C1B 1858   4.434   8.761   7.408
  114POPC   C2B 1859   4.552   8.770   6.972
  114POPC   C3B 1860   4.567   8.843   6.519
  114POPC   C4B 1861   4.309   8.686   6.156
  115POPC   NC3 1862  10.930   1.381   7.825
  115POPC   PO4 1863  10.598   1.763   8.227
  115POPC   GL1 1864  10.638   1.791   7.724
  115POPC   GL2 1865  10.327   1.922   7.582
  115POPC   C1A 1866  10.649   1.639   7.254
  115POPC   D2A 1867  10.584   1.844   6.818
  115POPC   C3A 1868  10.740   1.722   6.426
  115POPC   C4A 1869  10.676   1.854   5.978
  115POPC   C1B 1870  10.470   2.117   7.245
  115POPC   C2B 1871  10.347   2.370   6.923
  115POPC   C3B 1872  10.111   2.273   6.569
  115POPC   C4B 1873  10.311   1.987   6.294
  116POPC   NC3 1874  10.939   6.728   8.045
  116POPC   PO4 1875  11.465   6.356   7.987
  116POPC   GL1 1876  11.383   6.371   7.620
  116POPC   GL2 1877  11.245   6.712   7.641
  116POPC   C1A 1878   0.019   6.214   7.247
  116POPC   D2A 1879  11.273   6.312   6.882
  116POPC   C3A 1880  11.498   6.203   6.579
  116POPC   C4A 1881   0.083   6.369   6.216
  116POPC   C1B 1882  11.026   6.557   7.297
  116POPC   C2B 1883  10.956   6.709   6.900
  116POPC   C3B 1884  11.056   6.831   6.505
  116POPC   C4B 1885  11.230   6.717   6.138
  117POPC   NC3 1886   2.190  10.476   7.988
  117POPC   PO4 1887   1.599   9.964   8.033
  117POPC   GL1 1888   1.610  10.226   7.654
  117POPC   GL2 1889   1.741  10.556   7.659
  117POPC   C1A 1890   1.698  10.163   7.221
  117POPC   D2A 1891   2.020   9.988   6.930
  117POPC   C3A 1892   2.053  10.120   6.495
  117POPC   C4A 1893   1.813  10.357   6.177
  117POPC   C1B 1894   2.024  10.552   7.311
  117POPC   C2B 1895   1.845  10.541   6.898
  117POPC   C3B 1896   2.038  10.608   6.556
  117POPC   C4B 1897   2.277  10.539   6.196
  118POPC   NC3 1898   2.786   0.537   8.049
  118POPC   PO4 1899   2.259   0.204   7.934
  118POPC   GL1 1900   2.419   0.473   7.661
  118POPC   GL2 1901   2.726   0.327   7.577
  118POPC   C1A 1902   2.356   0.440   7.221
  118POPC   D2A 1903   2.512   0.262   6.877
  118POPC   C3A 1904   2.448   0.469   6.524
  118POPC   C4A 1905   2.309   0.366   6.142
  118POPC   C1B 1906   2.907   0.149   7.192
  118POPC   C2B 1907   3.003   0.210   6.750
  118POPC   C3B 1908   2.851   0.177   6.349
  118POPC   C4B 1909   3.093   0.151   5.979
  119POPC   NC3 1910   2.951  11.066   8.059
  119POPC   PO4 1911   3.080   0.148   8.071
  119POPC   GL1 1912   2.981  11.393   7.675
  119POPC   GL2 1913   2.603  11.293   7.709
  119POPC   C1A 1914   2.853  11.165   7.294
  119POPC   D2A 1915   2.630  11.258   6.933
  119POPC   C3A 1916   2.827  11.221   6.561
  119POPC   C4A 1917   2.932  11.163   6.146
  119POPC   C1B 1918   2.396  10.948   7.413
  119POPC   C2B 1919   2.243  10.897   6.971
  119POPC   C3B 1920   2.451  10.886   6.578
  119POPC   C4B 1921   2.460  11.017   6.170
  120POPC   NC3 1922   1.552  10.409   8.153
  120POPC   PO4 1923   0.959  10.728   8.117
  120POPC   GL1 1924   1.238  10.638   7.790
  120POPC   GL2 1925   1.111  10.319   7.746
  120POPC   C1A 1926   1.115  10.709   7.354
  120POPC   D2A 1927   0.862  10.538   6.984
  120POPC   C3A 1928   1.093  10.595   6.572
  120POPC   C4A 1929   1.525  10.687   6.412
  120POPC   C1B 1930   1.131  10.199   7.316
  120POPC   C2B 1931   1.285  10.238   6.919
  120POPC   C3B 1932   1.553  10.148   6.608
  120POPC   C4B 1933   1.309  10.167   6.251
  121POPC   NC3 1934   9.916   1.238   8.046
  121POPC   PO4 1935   9.248   1.337   8.076
  121POPC   GL1 1936   9.515   1.127   7.721
  121POPC   GL2 1937   9.885   1.113   7.568
  121POPC   C1A 1938   9.527   0.855   7.335
  121POPC   D2A 1939   9.529   0.997   6.894
  121POPC   C3A 1940   9.271   1.104   6.543
  121POPC   C4A 1941   9.511   0.943   6.213
  121POPC   C1B 1942   9.687   1.351   7.261
  121POPC   C2B 1943   9.789   1.480   6.861
  121POPC   C3B 1944   9.700   1.368   6.449
  121POPC   C4B 1945   9.984   1.179   6.153
  122POPC   NC3 1946   9.927   0.238   8.015
  122POPC   PO4 1947   9.606   0.761   8.269
  122POPC   GL1 1948   9.746   0.694   7.841
  122POPC   GL2 1949   9.532   0.464   7.776
  122POPC   C1A 1950   9.935   0.552   7.425
  122POPC   D2A 1951  10.044   0.331   7.031
  122POPC   C3A 1952   9.833   0.528   6.685
  122POPC   C4A 1953   9.978   0.688   6.300
  122POPC   C1B 1954   9.416   0.343   7.383
  122POPC   C2B 1955   9.387   0.484   6.981
  122POPC   C3B 1956   9.322   0.333   6.567
  122POPC   C4B 1957   9.569   0.421   6.217
  123POPC   NC3 1958   5.035  11.375   8.370
  123POPC   PO4 1959   5.565   0.019   7.923
  123POPC   GL1 1960   5.277  11.245   7.617
  123POPC   GL2 1961   4.888  11.191   7.756
  123POPC   C1A 1962   5.259  11.375   7.158
  123POPC   D2A 1963   5.230   0.033   6.737
  123POPC   C3A 1964   5.159  11.246   6.403
  123POPC   C4A 1965   5.434  11.016   6.145
  123POPC   C1B 1966   4.797  11.291   7.371
  123POPC   C2B 1967   4.848  11.102   6.979
  123POPC   C3B 1968   4.719  11.334   6.642
  123POPC   C4B 1969   4.669  11.352   6.212
  124POPC   NC3 1970   0.413   9.063   8.234
  124POPC   PO4 1971   0.613   8.527   8.006
  124POPC   GL1 1972   0.555   8.827   7.685
  124POPC   GL2 1973   0.211   8.923   7.721
  124POPC   C1A 1974   0.541   8.885   7.234
  124POPC   D2A 1975   0.344   9.058   6.875
  124POPC   C3A 1976   0.618   8.904   6.574
  124POPC   C4A 1977   0.644   8.545   6.327
  124POPC   C1B 1978   0.200   8.563   7.411
  124POPC   C2B 1979   0.199   8.546   6.940
  124POPC   C3B 1980   0.179   8.642   6.481
  124POPC   C4B 1981   0.331   9.021   6.176
  125POPC   NC3 1982   4.230   0.449   8.368
  125POPC   PO4 1983   3.605   0.625   8.257
  125POPC   GL1 1984   3.511   0.575   7.788
  125POPC   GL2 1985   3.265   0.332   7.636
  125POPC   C1A 1986   3.576   0.554   7.304
  125POPC   D2A 1987   3.504   0.200   6.990
  125POPC   C3A 1988   3.537   0.292   6.529
  125POPC   C4A 1989   3.613   0.226   6.072
  125POPC   C1B 1990   3.077   0.609   7.296
  125POPC   C2B 1991   3.270   0.637   6.855
  125POPC   C3B 1992   3.155   0.595   6.388
  125POPC   C4B 1993   3.301   0.641   5.954
  126POPC   NC3 1994   0.958   8.844   8.017
  126POPC   PO4 1995   1.514   8.588   8.395
  126POPC   GL1 1996   1.488   8.746   7.863
  126POPC   GL2 1997   1.295   9.056   7.715
  126POPC   C1A 1998   1.591   8.840   7.365
  126POPC   D2A 1999   1.717   8.809   6.918
  126POPC   C3A 2000   1.743   9.108   6.577
  126POPC   C4A 2001   1.520   9.060   6.188
  126POPC   C1B 2002   1.064   8.827   7.367
  126POPC   C2B 2003   0.965   8.974   6.965
  126POPC   C3B 2004   1.141   8.912   6.605
  126POPC   C4B 2005   1.076   8.810   6.235
  127POPC   NC3 2006   9.639  10.546   7.858
  127POPC   PO4 2007   9.123  10.181   8.090
  127POPC   GL1 2008   9.344  10.158   7.628
  127POPC   GL2 2009   9.746  10.205   7.510
  127POPC   C1A 2010   9.407  10.180   7.154
  127POPC   D2A 2011   9.446   9.993   6.768
  127POPC   C3A 2012   9.407  10.266   6.406
  127POPC   C4A 2013   9.393  10.192   5.967
  127POPC   C1B 2014   9.789  10.536   7.191
  127POPC   C2B 2015   9.738  10.501   6.750
  127POPC   C3B 2016   9.798  10.556   6.323
  127POPC   C4B 2017   9.886  10.319   5.991
  128POPC   NC3 2018   3.526   9.072   7.898
  128POPC   PO4 2019   3.100   8.563   7.868
  128POPC   GL1 2020   3.311   8.815   7.515
  128POPC   GL2 2021   3.677   8.742   7.526
  128POPC   C1A 2022   3.150   8.880   7.091
  128POPC   D2A 2023   3.165   8.539   6.764
  128POPC   C3A 2024   3.123   8.700   6.377
  128POPC   C4A 2025   3.080   9.079   6.526
  128POPC   C1B 2026   3.668   8.990   7.151
  128POPC   C2B 2027   3.545   8.901   6.733
  128POPC   C3B 2028   3.762   8.858   6.368
  128POPC   C4B 2029   3.839   8.799   5.956
  129POPC   NC3 2030  10.496   0.682   8.303
  129POPC   PO4 2031  10.367   0.162   8.018
  129POPC   GL1 2032  10.528   0.283   7.655
  129POPC   GL2 2033  10.561   0.631   7.698
  129POPC   C1A 2034  10.496   0.100   7.213
  129POPC   D2A 2035  10.484   0.121   6.759
  129POPC   C3A 2036  10.138   0.153   6.482
  129POPC   C4A 2037  10.198   0.297   6.044
  129POPC   C1B 2038  10.425   0.601   7.261
  129POPC   C2B 2039  10.345   0.668   6.822
  129POPC   C3B 2040  10.456   0.539   6.443
  129POPC   C4B 2041  10.765   0.627   6.195
  130POPC   NC3 2042   2.469   7.218   8.110
  130POPC   PO4 2043   2.854   7.596   7.942
  130POPC   GL1 2044   2.554   7.409   7.628
  130POPC   GL2 2045   2.352   7.064   7.608
  130POPC   C1A 2046   2.592   7.481   7.170
  130POPC   D2A 2047   2.638   7.770   6.800
  130POPC   C3A 2048   2.637   7.552   6.402
  130POPC   C4A 2049   2.358   7.251   6.222
  130POPC   C1B 2050   2.301   7.069   7.118
  130POPC   C2B 2051   2.540   7.137   6.721
  130POPC   C3B 2052   2.694   6.892   6.345
  130POPC   C4B 2053   2.597   6.946   5.869
  131POPC   NC3 2054   1.113   1.865   8.085
  131POPC   PO4 2055   1.681   2.295   8.234
  131POPC   GL1 2056   1.568   2.099   7.815
  131POPC   GL2 2057   1.228   2.214   7.720
  131POPC   C1A 2058   1.593   2.188   7.341
  131POPC   D2A 2059   1.372   2.154   6.943
  131POPC   C3A 2060   1.562   1.991   6.565
  131POPC   C4A 2061   1.476   2.115   6.153
  131POPC   C1B 2062   1.039   2.010   7.354
  131POPC   C2B 2063   0.900   1.949   6.925
  131POPC   C3B 2064   1.046   2.052   6.500
  131POPC   C4B 2065   1.053   1.863   6.066
  132POPC   NC3 2066   5.297   9.604   8.110
  132POPC   PO4 2067   5.019  10.239   8.098
  132POPC   GL1 2068   4.970  10.029   7.670
  132POPC   GL2 2069   5.147   9.697   7.611
  132POPC   C1A 2070   5.054   9.976   7.194
  132POPC   D2A 2071   5.355   9.778   6.949
  132POPC   C3A 2072   5.070   9.614   6.682
  132POPC   C4A 2073   5.068   9.635   6.282
  132POPC   C1B 2074   5.018   9.456   7.204
  132POPC   C2B 2075   4.869   9.162   6.847
  132POPC   C3B 2076   5.017   9.124   6.405
  132POPC   C4B 2077   5.163   9.246   5.950
  133POPC   NC3 2078   5.718   1.593   8.047
  133POPC   PO4 2079   5.909   0.930   8.148
  133POPC   GL1 2080   5.933   1.195   7.780
  133POPC   GL2 2081   5.582   1.240   7.674
  133POPC   C1A 2082   6.054   1.272   7.347
  133POPC   D2A 2083   6.060   1.408   6.903
  133POPC   C3A 2084   5.906   1.236   6.528
  133POPC   C4A 2085   6.104   0.971   6.260
  133POPC   C1B 2086   5.657   0.976   7.294
  133POPC   C2B 2087   5.558   1.098   6.891
  133POPC   C3B 2088   5.443   1.015   6.486
  133POPC   C4B 2089   5.621   1.005   6.081
  134POPC   NC3 2090   9.323   9.722   8.126
  134POPC   PO4 2091   9.849  10.152   8.003
  134POPC   GL1 2092   9.640   9.767   7.736
  134POPC   GL2 2093   9.761   9.429   7.660
  134POPC   C1A 2094   9.687   9.749   7.277
  134POPC   D2A 2095   9.853   9.508   6.962
  134POPC   C3A 2096   9.739   9.639   6.551
  134POPC   C4A 2097   9.735   9.885   6.194
  134POPC   C1B 2098   9.564   9.213   7.284
  134POPC   C2B 2099   9.801   8.997   6.955
  134POPC   C3B 2100   9.932   9.174   6.570
  134POPC   C4B 2101   9.564   9.209   6.296
  135POPC   NC3 2102   8.830   1.498   7.979
  135POPC   PO4 2103   8.409   1.057   8.138
  135POPC   GL1 2104   8.658   0.981   7.746
  135POPC   GL2 2105   8.998   1.102   7.716
  135POPC   C1A 2106   8.686   1.201   7.331
  135POPC   D2A 2107   8.872   1.191   6.946
  135POPC   C3A 2108   8.670   1.115   6.626
  135POPC   C4A 2109   8.745   1.115   6.227
  135POPC   C1B 2110   9.199   1.241   7.316
  135POPC   C2B 2111   9.285   1.461   6.908
  135POPC   C3B 2112   8.974   1.557   6.606
  135POPC   C4B 2113   9.114   1.479   6.232
  136POPC   NC3 2114   9.158   0.851   8.199
  136POPC   PO4 2115   8.721   0.358   8.037
  136POPC   GL1 2116   9.020   0.535   7.804
  136POPC   GL2 2117   9.114   0.178   7.767
  136POPC   C1A 2118   9.042   0.730   7.406
  136POPC   D2A 2119   8.774   0.717   7.086
  136POPC   C3A 2120   9.010   0.724   6.722
  136POPC   C4A 2121   9.071   0.700   6.272
  136POPC   C1B 2122   8.902   0.252   7.380
  136POPC   C2B 2123   8.917   0.238   6.946
  136POPC   C3B 2124   8.628   0.411   6.657
  136POPC   C4B 2125   8.675   0.379   6.201
  137POPC   NC3 2126   3.608   1.081   8.083
  137POPC   PO4 2127   2.890   0.980   7.930
  137POPC   GL1 2128   3.244   0.994   7.638
  137POPC   GL2 2129   3.502   1.270   7.612
  137POPC   C1A 2130   3.353   1.028   7.204
  137POPC   D2A 2131   3.623   1.099   6.895
  137POPC   C3A 2132   3.486   0.955   6.521
  137POPC   C4A 2133   3.461   1.157   6.169
  137POPC   C1B 2134   3.783   1.436   7.290
  137POPC   C2B 2135   4.010   1.445   6.860
  137POPC   C3B 2136   3.772   1.401   6.485
  137POPC   C4B 2137   3.690   1.667   6.144
  138POPC   NC3 2138   3.727  10.459   8.215
  138POPC   PO4 2139   4.207  10.678   7.933
  138POPC   GL1 2140   3.804  10.478   7.705
  138POPC   GL2 2141   3.418  10.465   7.761
  138POPC   C1A 2142   3.612  10.474   7.286
  138POPC   D2A 2143   3.535  10.252   6.899
  138POPC   C3A 2144   3.544  10.490   6.528
  138POPC   C4A 2145   3.850  10.727   6.262
  138POPC   C1B 2146   3.170  10.219   7.411
  138POPC   C2B 2147   3.048  10.341   6.969
  138POPC   C3B 2148   3.050  10.232   6.501
  138POPC   C4B 2149   3.268  10.410   6.118
  139POPC   NC3 2150  11.255  10.260   8.377
  139POPC   PO4 2151  10.783  10.072   8.018
  139POPC   GL1 2152  11.143  10.190   7.737
  139POPC   GL2 2153  11.339  10.469   7.807
  139POPC   C1A 2154  11.249  10.127   7.286
  139POPC   D2A 2155  10.896  10.150   6.957
  139POPC   C3A 2156  10.947  10.120   6.500
  139POPC   C4A 2157  10.986  10.200   6.016
  139POPC   C1B 2158  11.243  10.634   7.366
  139POPC   C2B 2159  11.272  10.526   6.915
  139POPC   C3B 2160  11.286  10.491   6.468
  139POPC   C4B 2161  11.408  10.109   6.273
  140POPC   NC3 2162   3.364   2.083   8.098
  140POPC   PO4 2163   3.448   1.527   8.055
  140POPC   GL1 2164   3.306   1.784   7.677
  140POPC   GL2 2165   3.324   2.191   7.603
  140POPC   C1A 2166   3.381   1.769   7.242
  140POPC   D2A 2167   3.532   1.624   6.864
  140POPC   C3A 2168   3.306   1.715   6.490
  140POPC   C4A 2169   3.166   1.544   6.074
  140POPC   C1B 2170   3.727   2.042   7.500
  140POPC   C2B 2171   3.888   1.886   7.100
  140POPC   C3B 2172   3.803   1.952   6.605
  140POPC   C4B 2173   3.514   2.119   6.252
  141POPC   NC3 2174   2.807   3.794   7.986
  141POPC   PO4 2175   3.225   3.250   8.061
  141POPC   GL1 2176   2.981   3.182   7.709
  141POPC   GL2 2177   2.630   3.324   7.705
  141POPC   C1A 2178   3.035   3.385   7.324
  141POPC   D2A 2179   3.258   3.298   6.936
  141POPC   C3A 2180   3.034   3.400   6.561
  141POPC   C4A 2181   2.964   3.234   6.163
  141POPC   C1B 2182   2.470   3.497   7.299
  141POPC   C2B 2183   2.296   3.481   6.859
  141POPC   C3B 2184   2.508   3.435   6.439
  141POPC   C4B 2185   2.805   3.782   6.275
  142POPC   NC3 2186   8.711  10.003   7.966
  142POPC   PO4 2187   8.968   9.439   8.266
  142POPC   GL1 2188   8.992   9.627   7.771
  142POPC   GL2 2189   8.746   9.664   7.575
  142POPC   C1A 2190   9.179   9.740   7.341
  142POPC   D2A 2191   9.337   9.527   6.966
  142POPC   C3A 2192   9.225   9.454   6.567
  142POPC   C4A 2193   9.272   9.787   6.327
  142POPC   C1B 2194   8.704   9.729   7.130
  142POPC   C2B 2195   8.930   9.812   6.775
  142POPC   C3B 2196   8.797   9.670   6.365
  142POPC   C4B 2197   8.491   9.889   6.120
  143POPC   NC3 2198   7.184  10.961   8.276
  143POPC   PO4 2199   7.461  11.370   7.812
  143POPC   GL1 2200   7.492  11.017   7.603
  143POPC   GL2 2201   7.187  10.819   7.651
  143POPC   C1A 2202   7.654  11.196   7.209
  143POPC   D2A 2203   7.573   0.026   6.921
  143POPC   C3A 2204   7.634  11.349   6.521
  143POPC   C4A 2205   7.471  11.302   6.136
  143POPC   C1B 2206   7.157  11.112   7.241
  143POPC   C2B 2207   7.301  11.106   6.848
  143POPC   C3B 2208   7.220  11.005   6.475
  143POPC   C4B 2209   6.985  11.158   6.142
  144POPC   NC3 2210   8.622   2.410   8.017
  144POPC   PO4 2211   9.091   2.876   8.141
  144POPC   GL1 2212   9.077   2.814   7.715
  144POPC   GL2 2213   8.731   2.859   7.722
  144POPC   C1A 2214   9.141   2.728   7.284
  144POPC   D2A 2215   8.869   2.612   6.891
  144POPC   C3A 2216   9.026   2.674   6.467
  144POPC   C4A 2217   9.032   3.026   6.171
  144POPC   C1B 2218   8.626   2.641   7.336
  144POPC   C2B 2219   8.384   2.478   6.955
  144POPC   C3B 2220   8.543   2.464   6.529
  144POPC   C4B 2221   8.576   2.772   6.210
  145POPC   NC3 2222  11.324   1.037   8.330
  145POPC   PO4 2223  10.748   0.997   8.017
  145POPC   GL1 2224  11.014   0.886   7.700
  145POPC   GL2 2225  11.366   1.003   7.760
  145POPC   C1A 2226  10.852   0.887   7.286
  145POPC   D2A 2227  10.716   1.015   6.888
  145POPC   C3A 2228  11.011   0.844   6.604
  145POPC   C4A 2229  11.095   1.007   6.214
  145POPC   C1B 2230  11.320   1.078   7.303
  145POPC   C2B 2231  11.214   1.262   6.880
  145POPC   C3B 2232  11.263   1.443   6.449
  145POPC   C4B 2233  11.393   1.391   5.986
  146POPC   NC3 2234   5.087   0.104   7.925
  146POPC   PO4 2235   4.778   0.743   8.011
  146POPC   GL1 2236   4.745   0.704   7.587
  146POPC   GL2 2237   4.913   0.428   7.612
  146POPC   C1A 2238   4.852   0.610   7.166
  146POPC   D2A 2239   4.822   0.199   7.024
  146POPC   C3A 2240   4.805   0.331   6.620
  146POPC   C4A 2241   4.985   0.231   6.259
  146POPC   C1B 2242   5.259   0.369   7.339
  146POPC   C2B 2243   5.368   0.633   7.013
  146POPC   C3B 2244   5.355   0.513   6.602
  146POPC   C4B 2245   5.288   0.624   6.200
  147POPC   NC3 2246   5.223   7.679   8.533
  147POPC   PO4 2247   5.288   7.776   8.077
  147POPC   GL1 2248   5.177   7.832   7.613
  147POPC   GL2 2249   4.955   8.124   7.520
  147POPC   C1A 2250   5.216   7.898   7.143
  147POPC   D2A 2251   5.000   8.063   6.777
  147POPC   C3A 2252   5.224   8.115   6.386
  147POPC   C4A 2253   5.015   8.043   5.985
  147POPC   C1B 2254   5.028   8.422   7.157
  147POPC   C2B 2255   4.974   8.588   6.729
  147POPC   C3B 2256   4.896   8.502   6.304
  147POPC   C4B 2257   5.123   8.564   5.917
  148POPC   NC3 2258   0.792  11.141   8.231
  148POPC   PO4 2259   0.186  11.360   8.072
  148POPC   GL1 2260   0.252  11.480   7.675
  148POPC   GL2 2261   0.563  11.307   7.722
  148POPC   C1A 2262   0.259  11.257   7.271
  148POPC   D2A 2263   0.132  11.032   6.893
  148POPC   C3A 2264   0.242  11.217   6.514
  148POPC   C4A 2265   0.192  11.427   6.106
  148POPC   C1B 2266   0.618  10.925   7.424
  148POPC   C2B 2267   0.635  10.994   6.962
  148POPC   C3B 2268   0.631  10.843   6.527
  148POPC   C4B 2269   0.598  11.135   6.178
  149POPC   NC3 2270   0.848   5.542   7.687
  149POPC   PO4 2271   0.971   4.964   7.987
  149POPC   GL1 2272   1.063   5.099   7.606
  149POPC   GL2 2273   1.373   5.142   7.658
  149POPC   C1A 2274   1.130   5.194   7.181
  149POPC   D2A 2275   0.967   5.011   6.852
  149POPC   C3A 2276   0.950   5.357   6.646
  149POPC   C4A 2277   1.033   5.252   6.250
  149POPC   C1B 2278   1.514   4.897   7.338
  149POPC   C2B 2279   1.442   4.819   6.950
  149POPC   C3B 2280   1.404   5.071   6.590
  149POPC   C4B 2281   1.356   4.886   6.200
  150POPC   NC3 2282   1.083   4.225   8.020
  150POPC   PO4 2283   1.658   4.676   7.918
  150POPC   GL1 2284   1.260   4.622   7.700
  150POPC   GL2 2285   1.183   4.302   7.536
  150POPC   C1A 2286   1.042   4.703   7.287
  150POPC   D2A 2287   1.059   4.442   6.938
  150POPC   C3A 2288   1.275   4.532   6.569
  150POPC   C4A 2289   1.180   4.421   6.162
  150POPC   C1B 2290   0.877   4.100   7.288
  150POPC   C2B 2291   0.914   3.954   6.871
  150POPC   C3B 2292   0.821   4.184   6.496
  150POPC   C4B 2293   0.877   4.031   6.089
  151POPC   NC3 2294   0.409   0.976   7.911
  151POPC   PO4 2295   0.803   1.502   8.103
  151POPC   GL1 2296   0.724   1.352   7.722
  151POPC   GL2 2297   0.365   1.437   7.654
  151POPC   C1A 2298   0.781   1.349   7.298
  151POPC   D2A 2299   0.685   1.072   6.925
  151POPC   C3A 2300   0.606   1.259   6.547
  151POPC   C4A 2301   0.795   1.428   6.151
  151POPC   C1B 2302   0.317   1.157   7.277
  151POPC   C2B 2303   0.157   0.982   6.880
  151POPC   C3B 2304   0.082   1.011   6.438
  151POPC   C4B 2305   0.399   1.070   6.124
  152POPC   NC3 2306   0.408   1.804   8.067
  152POPC   PO4 2307   0.012   2.398   8.093
  152POPC   GL1 2308   0.035   2.222   7.669
  152POPC   GL2 2309   0.236   1.953   7.633
  152POPC   C1A 2310   0.297   2.284   7.268
  152POPC   D2A 2311   0.393   2.088   6.896
  152POPC   C3A 2312   0.515   2.246   6.532
  152POPC   C4A 2313   0.379   2.333   6.147
  152POPC   C1B 2314   0.541   1.812   7.329
  152POPC   C2B 2315   0.507   1.590   6.932
  152POPC   C3B 2316   0.639   1.756   6.524
  152POPC   C4B 2317   0.561   1.882   6.080
  153POPC   NC3 2318   9.462   6.258   8.039
  153POPC   PO4 2319   9.265   6.869   8.183
  153POPC   GL1 2320   9.470   6.732   7.764
  153POPC   GL2 2321   9.787   6.577   7.723
  153POPC   C1A 2322   9.486   6.542   7.305
  153POPC   D2A 2323   9.544   6.745   6.874
  153POPC   C3A 2324   9.483   6.545   6.449
  153POPC   C4A 2325   9.161   6.283   6.279
  153POPC   C1B 2326  10.014   6.462   7.363
  153POPC   C2B 2327  10.045   6.686   7.004
  153POPC   C3B 2328   9.955   6.518   6.641
  153POPC   C4B 2329  10.042   6.614   6.263
  154POPC   NC3 2330   2.703   8.752   8.044
  154POPC   PO4 2331   3.147   9.319   8.088
  154POPC   GL1 2332   2.816   9.170   7.719
  154POPC   GL2 2333   2.811   8.851   7.562
  154POPC   C1A 2334   2.579   9.150   7.265
  154POPC   D2A 2335   2.691   8.962   6.854
  154POPC   C3A 2336   2.582   9.168   6.451
  154POPC   C4A 2337   2.430   9.319   5.979
  154POPC   C1B 2338   2.623   8.603   7.234
  154POPC   C2B 2339   2.663   8.445   6.807
  154POPC   C3B 2340   2.608   8.653   6.425
  154POPC   C4B 2341   2.665   8.875   6.040
  155POPC   NC3 2342   0.219   7.346   8.150
  155POPC   PO4 2343  11.044   7.231   8.226
  155POPC   GL1 2344  11.300   7.204   7.814
  155POPC   GL2 2345  11.103   7.402   7.593
  155POPC   C1A 2346   0.009   7.219   7.357
  155POPC   D2A 2347  11.433   7.143   6.876
  155POPC   C3A 2348   0.006   7.511   6.587
  155POPC   C4A 2349  11.495   7.704   6.167
  155POPC   C1B 2350  11.029   7.131   7.202
  155POPC   C2B 2351  10.817   7.205   6.826
  155POPC   C3B 2352  10.979   7.341   6.438
  155POPC   C4B 2353  11.340   7.208   6.226
  156POPC   NC3 2354  10.167   4.289   8.020
  156POPC   PO4 2355  10.733   4.620   8.062
  156POPC   GL1 2356  10.512   4.451   7.661
  156POPC   GL2 2357  10.493   4.061   7.694
  156POPC   C1A 2358  10.238   4.517   7.268
  156POPC   D2A 2359   9.997   4.273   6.961
  156POPC   C3A 2360  10.128   4.427   6.555
  156POPC   C4A 2361  10.026   4.464   6.149
  156POPC   C1B 2362  10.523   4.113   7.265
  156POPC   C2B 2363  10.505   4.248   6.854
  156POPC   C3B 2364  10.665   3.981   6.506
  156POPC   C4B 2365  10.458   4.202   6.199
  157POPC   NC3 2366  10.405  11.207   8.096
  157POPC   PO4 2367   9.785  11.308   8.123
  157POPC   GL1 2368   9.979  11.128   7.758
  157POPC   GL2 2369  10.238  11.350   7.617
  157POPC   C1A 2370   9.972  11.022   7.315
  157POPC   D2A 2371  10.129  11.301   6.964
  157POPC   C3A 2372  10.107  11.132   6.521
  157POPC   C4A 2373  10.213  11.286   6.108
  157POPC   C1B 2374  10.482  11.075   7.329
  157POPC   C2B 2375  10.653  11.169   6.933
  157POPC   C3B 2376  10.822  11.268   6.545
  157POPC   C4B 2377  10.598  11.025   6.286
  158POPC   NC3 2378   1.398  11.084   8.053
  158POPC   PO4 2379   0.874   0.062   8.087
  158POPC   GL1 2380   1.153  11.420   7.747
  158POPC   GL2 2381   1.020  11.095   7.703
  158POPC   C1A 2382   1.365  11.219   7.358
  158POPC   D2A 2383   1.143  11.064   6.979
  158POPC   C3A 2384   1.336  11.112   6.597
  158POPC   C4A 2385   1.587  11.243   6.259
  158POPC   C1B 2386   0.861  11.357   7.322
  158POPC   C2B 2387   0.787   0.018   6.922
  158POPC   C3B 2388   0.871  11.299   6.558
  158POPC   C4B 2389   1.089  11.089   6.160
  159POPC   NC3 2390   0.228   9.630   8.083
  159POPC   PO4 2391   0.821   9.294   8.128
  159POPC   GL1 2392   0.506   9.339   7.784
  159POPC   GL2 2393   0.502   9.701   7.667
  159POPC   C1A 2394   0.351   9.324   7.356
  159POPC   D2A 2395   0.690   9.399   7.068
  159POPC   C3A 2396   0.803   9.382   6.636
  159POPC   C4A 2397   0.819   9.233   6.223
  159POPC   C1B 2398   0.208   9.814   7.336
  159POPC   C2B 2399   0.230   9.585   6.924
  159POPC   C3B 2400   0.440   9.724   6.542
  159POPC   C4B 2401   0.380   9.997   6.183
  160POPC   NC3 2402   9.810   5.728   8.007
  160POPC   PO4 2403   9.143   5.945   7.962
  160POPC   GL1 2404   9.505   5.921   7.641
  160POPC   GL2 2405   9.739   5.631   7.537
  160POPC   C1A 2406   9.647   6.038   7.233
  160POPC   D2A 2407   9.506   6.230   6.862
  160POPC   C3A 2408   9.561   6.021   6.480
  160POPC   C4A 2409   9.329   5.724   6.221
  160POPC   C1B 2410   9.878   5.468   7.186
  160POPC   C2B 2411   9.768   5.679   6.841
  160POPC   C3B 2412   9.750   5.525   6.452
  160POPC   C4B 2413   9.836   5.776   6.123
  161POPC   NC3 2414   6.146  10.114   8.061
  161POPC   PO4 2415   5.907  10.697   8.144
  161POPC   GL1 2416   6.011  10.549   7.752
  161POPC   GL2 2417   5.772  10.820   7.593
  161POPC   C1A 2418   6.083  10.181   7.435
  161POPC   D2A 2419   6.083  10.364   7.045
  161POPC   C3A 2420   6.121  10.193   6.683
  161POPC   C4A 2421   5.982  10.302   6.327
  161POPC   C1B 2422   5.688  10.484   7.365
  161POPC   C2B 2423   5.550  10.305   7.004
  161POPC   C3B 2424   5.572  10.416   6.623
  161POPC   C4B 2425   5.492  10.280   6.247
  162POPC   NC3 2426   4.337   2.310   8.023
  162POPC   PO4 2427   4.551   1.716   8.070
  162POPC   GL1 2428   4.383   1.614   7.669
  162POPC   GL2 2429   4.201   1.929   7.680
  162POPC   C1A 2430   4.408   1.826   7.235
  162POPC   D2A 2431   4.299   1.894   6.805
  162POPC   C3A 2432   4.561   2.042   6.462
  162POPC   C4A 2433   4.424   1.939   6.045
  162POPC   C1B 2434   4.155   2.255   7.352
  162POPC   C2B 2435   4.016   2.328   6.936
  162POPC   C3B 2436   4.132   2.327   6.520
  162POPC   C4B 2437   4.006   2.207   6.132
  163POPC   NC3 2438   8.905   5.569   8.048
  163POPC   PO4 2439   9.471   5.439   8.099
  163POPC   GL1 2440   9.283   5.447   7.671
  163POPC   GL2 2441   9.033   5.692   7.545
  163POPC   C1A 2442   9.367   5.570   7.196
  163POPC   D2A 2443   9.272   5.667   6.739
  163POPC   C3A 2444   8.921   5.525   6.436
  163POPC   C4A 2445   8.940   5.459   5.964
  163POPC   C1B 2446   9.131   6.024   7.210
  163POPC   C2B 2447   9.009   6.098   6.760
  163POPC   C3B 2448   8.758   6.017   6.388
  163POPC   C4B 2449   8.696   6.317   6.036
  164POPC   NC3 2450   7.801   2.970   7.913
  164POPC   PO4 2451   8.167   2.482   8.076
  164POPC   GL1 2452   7.927   2.326   7.692
  164POPC   GL2 2453   7.829   2.617   7.574
  164POPC   C1A 2454   7.930   2.336   7.187
  164POPC   D2A 2455   7.943   2.695   6.833
  164POPC   C3A 2456   8.090   2.635   6.394
  164POPC   C4A 2457   8.024   2.315   6.097
  164POPC   C1B 2458   8.150   2.810   7.291
  164POPC   C2B 2459   8.401   2.977   6.899
  164POPC   C3B 2460   8.276   3.115   6.449
  164POPC   C4B 2461   8.256   3.091   5.957
  165POPC   NC3 2462   1.169   0.401   7.973
  165POPC   PO4 2463   1.596   0.902   7.992
  165POPC   GL1 2464   1.510   0.668   7.588
  165POPC   GL2 2465   1.143   0.633   7.523
  165POPC   C1A 2466   1.440   0.614   7.107
  165POPC   D2A 2467   1.013   0.496   6.915
  165POPC   C3A 2468   1.080   0.556   6.481
  165POPC   C4A 2469   1.503   0.601   6.390
  165POPC   C1B 2470   1.221   0.217   7.318
  165POPC   C2B 2471   1.319   0.055   6.887
  165POPC   C3B 2472   1.277   0.102   6.432
  165POPC   C4B 2473   0.874   0.163   6.201
  166POPC   NC3 2474   9.545   2.769   8.159
  166POPC   PO4 2475  10.143   2.615   7.982
  166POPC   GL1 2476   9.852   2.829   7.702
  166POPC   GL2 2477   9.558   2.596   7.677
  166POPC   C1A 2478   9.708   2.826   7.258
  166POPC   D2A 2479   9.861   2.540   6.977
  166POPC   C3A 2480  10.105   2.767   6.693
  166POPC   C4A 2481   9.969   2.696   6.277
  166POPC   C1B 2482   9.489   2.332   7.306
  166POPC   C2B 2483   9.344   2.465   6.913
  166POPC   C3B 2484   9.466   2.812   6.712
  166POPC   C4B 2485   9.478   2.828   6.268
  167POPC   NC3 2486  10.524   8.482   7.855
  167POPC   PO4 2487  10.060   8.746   8.336
  167POPC   GL1 2488  10.186   8.880   7.806
  167POPC   GL2 2489  10.230   9.238   7.767
  167POPC   C1A 2490  10.315   8.756   7.324
  167POPC   D2A 2491  10.466   8.618   6.894
  167POPC   C3A 2492  10.292   8.811   6.531
  167POPC   C4A 2493  10.378   8.665   6.115
  167POPC   C1B 2494  10.072   9.194   7.347
  167POPC   C2B 2495  10.291   9.142   6.959
  167POPC   C3B 2496  10.630   9.185   6.678
  167POPC   C4B 2497  10.600   9.141   6.226
  168POPC   NC3 2498   1.616   1.187   3.930
  168POPC   PO4 2499   0.972   0.949   3.945
  168POPC   GL1 2500   1.228   1.113   4.232
  168POPC   GL2 2501   1.050   1.367   4.396
  168POPC   C1A 2502   1.473   1.094   4.594
  168POPC   D2A 2503   1.347   1.096   5.031
  168POPC   C3A 2504   1.564   1.354   5.353
  168POPC   C4A 2505   1.659   0.971   5.612
  168POPC   C1B 2506   0.932   0.985   4.641
  168POPC   C2B 2507   0.867   0.877   5.084
  168POPC   C3B 2508   1.121   0.940   5.467
  168POPC   C4B 2509   1.149   1.389   5.649
  169POPC   NC3 2510  10.861   3.416   3.841
  169POPC   PO4 2511  10.178   3.445   3.819
  169POPC   GL1 2512  10.202   3.681   4.213
  169POPC   GL2 2513  10.576   3.681   4.242
  169POPC   C1A 2514  10.099   3.511   4.635
  169POPC   D2A 2515  10.218   3.223   4.998
  169POPC   C3A 2516   9.975   3.221   5.381
  169POPC   C4A 2517  10.128   3.347   5.771
  169POPC   C1B 2518  10.578   3.565   4.707
  169POPC   C2B 2519  10.386   3.702   5.128
  169POPC   C3B 2520  10.417   3.731   5.602
  169POPC   C4B 2521  10.710   3.831   5.960
  170POPC   NC3 2522   9.751   5.700   3.740
  170POPC   PO4 2523   9.323   5.353   3.929
  170POPC   GL1 2524   9.637   5.452   4.201
  170POPC   GL2 2525   9.646   5.804   4.251
  170POPC   C1A 2526   9.667   5.450   4.631
  170POPC   D2A 2527   9.434   5.449   4.991
  170POPC   C3A 2528   9.642   5.627   5.337
  170POPC   C4A 2529   9.527   5.640   5.753
  170POPC   C1B 2530   9.825   5.942   4.696
  170POPC   C2B 2531   9.863   6.051   5.151
  170POPC   C3B 2532   9.577   6.195   5.494
  170POPC   C4B 2533   9.510   6.119   5.940
  171POPC   NC3 2534   3.653  10.273   3.973
  171POPC   PO4 2535   3.947  10.822   4.010
  171POPC   GL1 2536   3.770  10.628   4.352
  171POPC   GL2 2537   3.418  10.605   4.304
  171POPC   C1A 2538   3.883  10.685   4.773
  171POPC   D2A 2539   3.910  10.818   5.173
  171POPC   C3A 2540   3.858  10.505   5.524
  171POPC   C4A 2541   3.773  10.320   5.956
  171POPC   C1B 2542   3.466  10.383   4.700
  171POPC   C2B 2543   3.468  10.527   5.136
  171POPC   C3B 2544   3.350  10.380   5.555
  171POPC   C4B 2545   3.368  10.031   5.798
  172POPC   NC3 2546  10.498   2.106   4.045
  172POPC   PO4 2547   9.865   1.949   4.080
  172POPC   GL1 2548  10.088   2.183   4.379
  172POPC   GL2 2549  10.282   1.895   4.461
  172POPC   C1A 2550  10.322   2.277   4.782
  172POPC   D2A 2551  10.396   2.033   5.155
  172POPC   C3A 2552  10.318   2.329   5.494
  172POPC   C4A 2553  10.448   2.317   5.925
  172POPC   C1B 2554  10.563   1.618   4.696
  172POPC   C2B 2555  10.551   1.469   5.108
  172POPC   C3B 2556  10.528   1.614   5.526
  172POPC   C4B 2557  10.224   1.888   5.731
  173POPC   NC3 2558  10.130  11.174   3.901
  173POPC   PO4 2559  10.694  10.655   3.839
  173POPC   GL1 2560  10.488  10.920   4.226
  173POPC   GL2 2561  10.360  11.275   4.343
  173POPC   C1A 2562  10.347  10.922   4.695
  173POPC   D2A 2563  10.112  10.829   5.081
  173POPC   C3A 2564  10.390  10.749   5.409
  173POPC   C4A 2565  10.542  10.922   5.780
  173POPC   C1B 2566  10.167  11.463   4.712
  173POPC   C2B 2567  10.028  11.365   5.133
  173POPC   C3B 2568  10.146   0.135   5.487
  173POPC   C4B 2569  10.485  11.469   5.719
  174POPC   NC3 2570   6.393  11.386   3.882
  174POPC   PO4 2571   7.083  11.441   4.010
  174POPC   GL1 2572   6.748  11.288   4.243
  174POPC   GL2 2573   6.759  10.936   4.313
  174POPC   C1A 2574   6.493  11.334   4.596
  174POPC   D2A 2575   6.615  11.305   5.048
  174POPC   C3A 2576   6.366  11.495   5.375
  174POPC   C4A 2577   6.218  11.380   5.787
  174POPC   C1B 2578   6.602  10.863   4.750
  174POPC   C2B 2579   6.293  10.880   5.110
  174POPC   C3B 2580   6.460  10.965   5.516
  174POPC   C4B 2581   6.837  10.874   5.739
  175POPC   NC3 2582   3.007   9.882   4.012
  175POPC   PO4 2583   3.634   9.822   3.958
  175POPC   GL1 2584   3.504   9.966   4.351
  175POPC   GL2 2585   3.441   9.640   4.419
  175POPC   C1A 2586   3.699   9.940   4.757
  175POPC   D2A 2587   3.534   9.972   5.192
  175POPC   C3A 2588   3.817   9.966   5.550
  175POPC   C4A 2589   3.790   9.806   5.988
  175POPC   C1B 2590   3.487   9.478   4.830
  175POPC   C2B 2591   3.301   9.470   5.215
  175POPC   C3B 2592   3.480   9.577   5.588
  175POPC   C4B 2593   3.366   9.544   6.010
  176POPC   NC3 2594  10.524   7.927   3.865
  176POPC   PO4 2595  10.701   8.558   3.975
  176POPC   GL1 2596  10.467   8.388   4.323
  176POPC   GL2 2597  10.450   8.031   4.372
  176POPC   C1A 2598  10.429   8.303   4.783
  176POPC   D2A 2599  10.666   8.096   5.108
  176POPC   C3A 2600  10.488   8.367   5.378
  176POPC   C4A 2601  10.205   8.480   5.662
  176POPC   C1B 2602  10.364   7.790   4.773
  176POPC   C2B 2603  10.190   7.911   5.159
  176POPC   C3B 2604  10.248   7.957   5.585
  176POPC   C4B 2605  10.183   7.693   5.974
  177POPC   NC3 2606   9.571   2.243   4.277
  177POPC   PO4 2607   9.589   2.903   3.959
  177POPC   GL1 2608   9.529   2.745   4.302
  177POPC   GL2 2609   9.886   2.654   4.303
  177POPC   C1A 2610   9.440   2.797   4.719
  177POPC   D2A 2611   9.345   3.025   5.066
  177POPC   C3A 2612   9.503   2.923   5.419
  177POPC   C4A 2613   9.301   2.934   5.781
  177POPC   C1B 2614   9.891   2.548   4.731
  177POPC   C2B 2615   9.877   2.807   5.061
  177POPC   C3B 2616   9.967   2.703   5.457
  177POPC   C4B 2617   9.745   2.677   5.829
  178POPC   NC3 2618  10.799   0.402   3.750
  178POPC   PO4 2619  11.275   0.174   4.160
  178POPC   GL1 2620  11.285   0.557   4.389
  178POPC   GL2 2621   0.132   0.615   4.323
  178POPC   C1A 2622  11.048   0.542   4.812
  178POPC   D2A 2623  10.941   0.176   5.107
  178POPC   C3A 2624  11.064   0.258   5.550
  178POPC   C4A 2625  11.060   0.669   5.751
  178POPC   C1B 2626   0.126   0.385   4.722
  178POPC   C2B 2627  11.444   0.443   5.106
  178POPC   C3B 2628   0.043   0.476   5.492
  178POPC   C4B 2629  11.487   0.322   5.858
  179POPC   NC3 2630   6.642   9.555   3.847
  179POPC   PO4 2631   6.175   9.953   3.791
  179POPC   GL1 2632   6.382   9.892   4.199
  179POPC   GL2 2633   6.624   9.647   4.357
  179POPC   C1A 2634   6.364  10.013   4.647
  179POPC   D2A 2635   6.410   9.799   5.035
  179POPC   C3A 2636   6.252   9.842   5.452
  179POPC   C4A 2637   6.387   9.565   5.800
  179POPC   C1B 2638   6.843   9.846   4.726
  179POPC   C2B 2639   6.860  10.025   5.136
  179POPC   C3B 2640   6.753   9.828   5.520
  179POPC   C4B 2641   6.726   9.906   5.957
  180POPC   NC3 2642   9.337   8.975   3.812
  180POPC   PO4 2643  10.044   9.054   3.751
  180POPC   GL1 2644   9.722   9.195   4.114
  180POPC   GL2 2645   9.533   8.896   4.277
  180POPC   C1A 2646   9.588   9.304   4.577
  180POPC   D2A 2647   9.780   9.178   4.986
  180POPC   C3A 2648   9.609   9.216   5.399
  180POPC   C4A 2649   9.677   9.122   5.814
  180POPC   C1B 2650   9.472   8.826   4.727
  180POPC   C2B 2651   9.302   8.860   5.140
  180POPC   C3B 2652   9.362   8.785   5.585
  180POPC   C4B 2653   9.743   8.616   5.730
  181POPC   NC3 2654  11.203   8.388   4.097
  181POPC   PO4 2655  10.947   7.858   3.727
  181POPC   GL1 2656  10.946   7.934   4.183
  181POPC   GL2 2657  11.277   7.877   4.207
  181POPC   C1A 2658  10.913   8.096   4.644
  181POPC   D2A 2659  11.179   8.191   5.047
  181POPC   C3A 2660  10.982   8.341   5.459
  181POPC   C4A 2661  10.720   8.333   5.842
  181POPC   C1B 2662  11.322   7.765   4.641
  181POPC   C2B 2663  11.096   7.647   5.019
  181POPC   C3B 2664  11.037   7.833   5.437
  181POPC   C4B 2665  11.415   7.934   5.704
  182POPC   NC3 2666   5.726  10.959   3.944
  182POPC   PO4 2667   6.345  11.000   3.626
  182POPC   GL1 2668   6.228  10.956   4.124
  182POPC   GL2 2669   6.040  11.301   4.237
  182POPC   C1A 2670   6.130  10.969   4.597
  182POPC   D2A 2671   6.093  11.326   4.934
  182POPC   C3A 2672   5.943  11.215   5.360
  182POPC   C4A 2673   5.988  10.928   5.694
  182POPC   C1B 2674   5.718  11.272   4.586
  182POPC   C2B 2675   5.562  11.310   5.022
  182POPC   C3B 2676   5.470  11.425   5.456
  182POPC   C4B 2677   5.676  11.339   5.847
  183POPC   NC3 2678   1.122   8.129   3.782
  183POPC   PO4 2679   1.690   8.377   3.958
  183POPC   GL1 2680   1.383   8.259   4.241
  183POPC   GL2 2681   1.073   8.148   4.303
  183POPC   C1A 2682   1.453   8.076   4.655
  183POPC   D2A 2683   1.314   8.189   5.074
  183POPC   C3A 2684   1.357   7.918   5.437
  183POPC   C4A 2685   1.443   8.122   5.820
  183POPC   C1B 2686   0.960   8.022   4.728
  183POPC   C2B 2687   0.803   8.166   5.141
  183POPC   C3B 2688   0.932   8.162   5.555
  183POPC   C4B 2689   0.961   7.894   5.890
  184POPC   NC3 2690  10.998  10.968   4.046
  184POPC   PO4 2691  10.612   0.030   3.986
  184POPC   GL1 2692  10.872  11.351   4.352
  184POPC   GL2 2693  11.229  11.227   4.411
  184POPC   C1A 2694  10.796  11.212   4.758
  184POPC   D2A 2695  10.556  11.277   5.145
  184POPC   C3A 2696  10.883  11.282   5.461
  184POPC   C4A 2697  10.904  11.242   5.918
  184POPC   C1B 2698  11.297  11.456   4.808
  184POPC   C2B 2699  11.393  11.460   5.252
  184POPC   C3B 2700  11.371  11.357   5.673
  184POPC   C4B 2701  11.375  11.045   5.949
  185POPC   NC3 2702   2.018  11.057   3.866
  185POPC   PO4 2703   2.513  10.585   3.904
  185POPC   GL1 2704   2.289  10.646   4.306
  185POPC   GL2 2705   2.082  10.942   4.359
  185POPC   C1A 2706   2.409  10.794   4.723
  185POPC   D2A 2707   2.304  11.094   5.027
  185POPC   C3A 2708   2.090  10.987   5.372
  185POPC   C4A 2709   2.206  11.077   5.744
  185POPC   C1B 2710   1.902  11.153   4.719
  185POPC   C2B 2711   1.647  11.101   5.058
  185POPC   C3B 2712   1.599  11.062   5.452
  185POPC   C4B 2713   1.751  11.313   5.768
  186POPC   NC3 2714   3.625   2.899   3.793
  186POPC   PO4 2715   2.992   3.148   4.017
  186POPC   GL1 2716   3.360   2.945   4.253
  186POPC   GL2 2717   3.347   2.575   4.218
  186POPC   C1A 2718   3.380   2.779   4.717
  186POPC   D2A 2719   3.245   2.824   5.183
  186POPC   C3A 2720   3.577   2.835   5.538
  186POPC   C4A 2721   3.783   2.983   5.962
  186POPC   C1B 2722   3.108   2.365   4.600
  186POPC   C2B 2723   3.234   2.301   5.055
  186POPC   C3B 2724   3.232   2.427   5.542
  186POPC   C4B 2725   3.135   2.390   6.030
  187POPC   NC3 2726   9.700   1.521   4.194
  187POPC   PO4 2727   9.291   2.143   3.941
  187POPC   GL1 2728   9.147   1.978   4.376
  187POPC   GL2 2729   9.477   1.824   4.537
  187POPC   C1A 2730   9.065   1.818   4.828
  187POPC   D2A 2731   9.464   1.839   5.095
  187POPC   C3A 2732   9.562   1.751   5.535
  187POPC   C4A 2733   9.511   1.897   5.955
  187POPC   C1B 2734   9.871   1.967   4.801
  187POPC   C2B 2735   9.918   2.238   5.173
  187POPC   C3B 2736   9.815   2.206   5.626
  187POPC   C4B 2737   9.920   2.222   6.069
  188POPC   NC3 2738   2.760   7.379   3.911
  188POPC   PO4 2739   2.996   6.885   3.975
  188POPC   GL1 2740   2.888   7.180   4.378
  188POPC   GL2 2741   2.656   7.490   4.406
  188POPC   C1A 2742   2.848   7.258   4.864
  188POPC   D2A 2743   2.969   7.041   5.267
  188POPC   C3A 2744   3.005   7.268   5.662
  188POPC   C4A 2745   2.951   7.277   6.114
  188POPC   C1B 2746   2.430   7.138   4.605
  188POPC   C2B 2747   2.282   7.110   5.049
  188POPC   C3B 2748   2.509   7.224   5.434
  188POPC   C4B 2749   2.579   7.487   5.826
  189POPC   NC3 2750   8.485  11.291   4.126
  189POPC   PO4 2751   8.372  10.696   3.760
  189POPC   GL1 2752   8.332  10.791   4.209
  189POPC   GL2 2753   8.068  11.012   4.265
  189POPC   C1A 2754   8.370  10.944   4.662
  189POPC   D2A 2755   8.160  11.251   4.931
  189POPC   C3A 2756   8.086  11.137   5.351
  189POPC   C4A 2757   8.293  11.035   5.726
  189POPC   C1B 2758   7.834  11.293   4.525
  189POPC   C2B 2759   7.640  11.305   4.911
  189POPC   C3B 2760   7.571  11.282   5.330
  189POPC   C4B 2761   7.758  11.301   5.716
  190POPC   NC3 2762   5.758   0.189   3.609
  190POPC   PO4 2763   5.273   0.491   3.940
  190POPC   GL1 2764   4.998   0.470   4.329
  190POPC   GL2 2765   4.922   0.118   4.487
  190POPC   C1A 2766   5.128   0.509   4.762
  190POPC   D2A 2767   5.265   0.232   5.055
  190POPC   C3A 2768   5.301   0.425   5.426
  190POPC   C4A 2769   5.084   0.430   5.790
  190POPC   C1B 2770   4.654   0.301   4.727
  190POPC   C2B 2771   4.678   0.518   5.050
  190POPC   C3B 2772   4.723   0.498   5.430
  190POPC   C4B 2773   4.703   0.753   5.754
  191POPC   NC3 2774   4.782   1.763   3.899
  191POPC   PO4 2775   4.800   2.440   3.937
  191POPC   GL1 2776   4.896   2.203   4.314
  191POPC   GL2 2777   5.075   1.883   4.301
  191POPC   C1A 2778   4.709   2.189   4.747
  191POPC   D2A 2779   4.509   2.159   5.161
  191POPC   C3A 2780   4.814   2.252   5.484
  191POPC   C4A 2781   4.849   2.162   5.915
  191POPC   C1B 2782   4.866   1.712   4.680
  191POPC   C2B 2783   4.891   1.825   5.141
  191POPC   C3B 2784   5.077   1.815   5.601
  191POPC   C4B 2785   5.279   1.913   6.028
  192POPC   NC3 2786   4.156   0.220   3.836
  192POPC   PO4 2787   4.684  11.493   4.041
  192POPC   GL1 2788   4.363   0.218   4.331
  192POPC   GL2 2789   4.182   0.539   4.312
  192POPC   C1A 2790   4.155   0.163   4.755
  192POPC   D2A 2791   4.410   0.058   5.123
  192POPC   C3A 2792   4.332   0.170   5.530
  192POPC   C4A 2793   4.638   0.193   5.841
  192POPC   C1B 2794   4.280   0.665   4.750
  192POPC   C2B 2795   4.172   0.534   5.166
  192POPC   C3B 2796   4.234   0.690   5.568
  192POPC   C4B 2797   4.264   0.877   5.983
  193POPC   NC3 2798   1.197   2.100   4.010
  193POPC   PO4 2799   1.683   1.652   3.941
  193POPC   GL1 2800   1.513   1.599   4.361
  193POPC   GL2 2801   1.272   1.867   4.442
  193POPC   C1A 2802   1.352   1.542   4.799
  193POPC   D2A 2803   1.059   1.568   5.139
  193POPC   C3A 2804   1.222   1.875   5.399
  193POPC   C4A 2805   1.452   1.795   5.755
  193POPC   C1B 2806   0.902   1.869   4.723
  193POPC   C2B 2807   0.767   2.073   5.110
  193POPC   C3B 2808   0.964   2.370   5.350
  193POPC   C4B 2809   1.180   2.255   5.747
  194POPC   NC3 2810   5.854   0.521   4.085
  194POPC   PO4 2811   5.603  11.435   3.961
  194POPC   GL1 2812   5.510   0.203   4.367
  194POPC   GL2 2813   5.493   0.580   4.424
  194POPC   C1A 2814   5.713   0.269   4.793
  194POPC   D2A 2815   5.993   0.290   5.165
  194POPC   C3A 2816   5.891   0.224   5.575
  194POPC   C4A 2817   5.587   0.367   5.845
  194POPC   C1B 2818   5.872   0.751   4.664
  194POPC   C2B 2819   6.155   0.732   4.968
  194POPC   C3B 2820   6.084   0.881   5.399
  194POPC   C4B 2821   5.947   0.719   5.807
  195POPC   NC3 2822   4.047   9.672   3.829
  195POPC   PO4 2823   4.679   9.416   4.086
  195POPC   GL1 2824   4.237   9.488   4.249
  195POPC   GL2 2825   4.068   9.851   4.307
  195POPC   C1A 2826   3.945   9.463   4.600
  195POPC   D2A 2827   3.982   9.619   5.035
  195POPC   C3A 2828   4.230   9.369   5.334
  195POPC   C4A 2829   3.989   9.465   5.661
  195POPC   C1B 2830   4.363   9.777   4.693
  195POPC   C2B 2831   4.467   9.769   5.161
  195POPC   C3B 2832   4.502   9.759   5.622
  195POPC   C4B 2833   4.699  10.167   5.766
  196POPC   NC3 2834   2.983   1.808   4.004
  196POPC   PO4 2835   2.449   1.483   3.708
  196POPC   GL1 2836   2.390   1.707   4.217
  196POPC   GL2 2837   2.496   2.034   4.176
  196POPC   C1A 2838   2.277   1.770   4.656
  196POPC   D2A 2839   2.586   1.630   4.963
  196POPC   C3A 2840   2.549   1.777   5.399
  196POPC   C4A 2841   2.732   1.670   5.809
  196POPC   C1B 2842   2.724   1.992   4.575
  196POPC   C2B 2843   2.613   2.135   4.972
  196POPC   C3B 2844   2.834   2.180   5.342
  196POPC   C4B 2845   2.735   2.196   5.765
  197POPC   NC3 2846   7.570  11.415   3.878
  197POPC   PO4 2847   7.239   0.540   3.715
  197POPC   GL1 2848   7.408   0.497   4.192
  197POPC   GL2 2849   7.645   0.228   4.249
  197POPC   C1A 2850   7.223   0.603   4.641
  197POPC   D2A 2851   7.386   0.849   5.004
  197POPC   C3A 2852   7.284   0.733   5.426
  197POPC   C4A 2853   7.023   0.493   5.688
  197POPC   C1B 2854   7.397   0.122   4.590
  197POPC   C2B 2855   7.466   0.285   4.996
  197POPC   C3B 2856   7.364   0.228   5.403
  197POPC   C4B 2857   7.452   0.234   5.823
  198POPC   NC3 2858   1.137   7.619   3.714
  198POPC   PO4 2859   1.543   7.049   3.894
  198POPC   GL1 2860   1.382   7.350   4.201
  198POPC   GL2 2861   1.170   7.160   4.434
  198POPC   C1A 2862   1.489   7.561   4.601
  198POPC   D2A 2863   1.283   7.653   5.000
  198POPC   C3A 2864   1.404   7.337   5.324
  198POPC   C4A 2865   1.486   7.055   5.706
  198POPC   C1B 2866   0.923   7.514   4.620
  198POPC   C2B 2867   0.728   7.655   5.020
  198POPC   C3B 2868   0.906   7.668   5.427
  198POPC   C4B 2869   1.206   7.484   5.756
  199POPC   NC3 2870   0.855   3.653   3.907
  199POPC   PO4 2871   0.553   3.020   3.910
  199POPC   GL1 2872   0.550   3.323   4.242
  199POPC   GL2 2873   0.655   3.663   4.396
  199POPC   C1A 2874   0.457   3.272   4.667
  199POPC   D2A 2875   0.652   3.540   4.958
  199POPC   C3A 2876   0.659   3.362   5.359
  199POPC   C4A 2877   0.396   3.195   5.661
  199POPC   C1B 2878   0.246   3.735   4.633
  199POPC   C2B 2879   0.140   3.527   5.038
  199POPC   C3B 2880   0.258   3.645   5.456
  199POPC   C4B 2881   0.102   3.707   5.841
  200POPC   NC3 2882  10.476   5.784   3.980
  200POPC   PO4 2883  10.009   5.276   3.888
  200POPC   GL1 2884  10.147   5.532   4.278
  200POPC   GL2 2885  10.538   5.540   4.407
  200POPC   C1A 2886  10.165   5.413   4.714
  200POPC   D2A 2887  10.151   5.631   5.089
  200POPC   C3A 2888  10.137   5.508   5.509
  200POPC   C4A 2889   9.962   5.906   5.656
  200POPC   C1B 2890  10.457   5.863   4.709
  200POPC   C2B 2891  10.413   6.051   5.132
  200POPC   C3B 2892  10.466   5.910   5.545
  200POPC   C4B 2893  10.679   6.162   5.840
  201POPC   NC3 2894   8.945   5.613   3.800
  201POPC   PO4 2895   8.470   5.840   4.113
  201POPC   GL1 2896   8.799   5.562   4.316
  201POPC   GL2 2897   9.155   5.588   4.333
  201POPC   C1A 2898   8.925   5.608   4.787
  201POPC   D2A 2899   8.818   5.925   5.127
  201POPC   C3A 2900   8.667   5.767   5.557
  201POPC   C4A 2901   8.529   5.794   5.999
  201POPC   C1B 2902   9.304   5.909   4.615
  201POPC   C2B 2903   9.360   5.971   5.056
  201POPC   C3B 2904   9.178   5.880   5.476
  201POPC   C4B 2905   9.021   5.963   5.888
  202POPC   NC3 2906   6.035   1.495   3.949
  202POPC   PO4 2907   5.706   0.944   4.023
  202POPC   GL1 2908   5.514   1.089   4.394
  202POPC   GL2 2909   5.545   1.420   4.329
  202POPC   C1A 2910   5.441   0.955   4.824
  202POPC   D2A 2911   5.647   0.708   5.155
  202POPC   C3A 2912   5.574   0.947   5.537
  202POPC   C4A 2913   5.388   1.382   5.590
  202POPC   C1B 2914   5.962   1.261   4.550
  202POPC   C2B 2915   5.936   1.185   4.975
  202POPC   C3B 2916   5.852   1.367   5.353
  202POPC   C4B 2917   5.940   1.234   5.770
  203POPC   NC3 2918   7.031   1.416   3.994
  203POPC   PO4 2919   6.948   2.119   3.914
  203POPC   GL1 2920   7.299   1.955   4.208
  203POPC   GL2 2921   7.562   2.183   4.325
  203POPC   C1A 2922   7.478   1.799   4.627
  203POPC   D2A 2923   7.322   1.687   5.040
  203POPC   C3A 2924   7.345   1.717   5.474
  203POPC   C4A 2925   6.996   1.799   5.684
  203POPC   C1B 2926   7.644   2.280   4.780
  203POPC   C2B 2927   7.514   2.148   5.207
  203POPC   C3B 2928   7.300   2.225   5.610
  203POPC   C4B 2929   7.453   2.353   6.003
  204POPC   NC3 2930   8.009   1.475   3.793
  204POPC   PO4 2931   7.928   0.805   3.882
  204POPC   GL1 2932   8.266   0.949   4.146
  204POPC   GL2 2933   8.042   1.204   4.231
  204POPC   C1A 2934   8.460   1.122   4.543
  204POPC   D2A 2935   8.460   0.965   4.987
  204POPC   C3A 2936   8.495   1.206   5.362
  204POPC   C4A 2937   8.455   1.169   5.810
  204POPC   C1B 2938   7.974   1.177   4.662
  204POPC   C2B 2939   8.097   1.366   5.060
  204POPC   C3B 2940   8.030   1.321   5.514
  204POPC   C4B 2941   8.134   1.567   5.849
  205POPC   NC3 2942   8.687   9.203   3.914
  205POPC   PO4 2943   9.000   8.624   3.873
  205POPC   GL1 2944   9.010   8.905   4.242
  205POPC   GL2 2945   8.699   8.987   4.413
  205POPC   C1A 2946   9.093   9.157   4.646
  205POPC   D2A 2947   8.832   9.041   5.005
  205POPC   C3A 2948   8.953   9.076   5.453
  205POPC   C4A 2949   8.666   8.972   5.755
  205POPC   C1B 2950   8.960   8.661   4.690
  205POPC   C2B 2951   8.906   8.527   5.141
  205POPC   C3B 2952   8.919   8.535   5.614
  205POPC   C4B 2953   8.910   8.673   6.063
  206POPC   NC3 2954   4.905  11.184   3.773
  206POPC   PO4 2955   4.241  11.276   3.725
  206POPC   GL1 2956   4.270  11.238   4.202
  206POPC   GL2 2957   4.055  11.062   4.429
  206POPC   C1A 2958   4.471  11.279   4.622
  206POPC   D2A 2959   4.313  11.084   4.974
  206POPC   C3A 2960   4.623  11.092   5.294
  206POPC   C4A 2961   4.630  11.196   5.709
  206POPC   C1B 2962   3.827  11.229   4.759
  206POPC   C2B 2963   3.902  11.394   5.161
  206POPC   C3B 2964   4.136  11.199   5.478
  206POPC   C4B 2965   4.020  10.930   5.804
  207POPC   NC3 2966   0.495  10.817   3.935
  207POPC   PO4 2967   0.726  11.482   4.016
  207POPC   GL1 2968   0.567  11.187   4.276
  207POPC   GL2 2969   0.209  11.142   4.197
  207POPC   C1A 2970   0.677  11.048   4.704
  207POPC   D2A 2971   0.907  11.301   4.994
  207POPC   C3A 2972   0.727  11.188   5.395
  207POPC   C4A 2973   0.806  11.353   5.782
  207POPC   C1B 2974   0.199  11.195   4.633
  207POPC   C2B 2975   0.272  10.973   5.009
  207POPC   C3B 2976   0.218  11.087   5.390
  207POPC   C4B 2977   0.340  11.090   5.754
  208POPC   NC3 2978   8.736  10.450   3.945
  208POPC   PO4 2979   9.351  10.494   3.742
  208POPC   GL1 2980   9.144  10.604   4.273
  208POPC   GL2 2981   8.897  10.380   4.418
  208POPC   C1A 2982   8.846  10.750   4.723
  208POPC   D2A 2983   8.524  10.713   5.089
  208POPC   C3A 2984   8.705  10.769   5.524
  208POPC   C4A 2985   9.101  10.539   5.619
  208POPC   C1B 2986   9.195  10.388   4.752
  208POPC   C2B 2987   8.995  10.442   5.127
  208POPC   C3B 2988   8.652  10.296   5.354
  208POPC   C4B 2989   8.608  10.243   5.773
  209POPC   NC3 2990   5.132   0.057   4.047
  209POPC   PO4 2991   5.327  11.019   3.710
  209POPC   GL1 2992   5.232  11.071   4.187
  209POPC   GL2 2993   4.855  11.091   4.314
  209POPC   C1A 2994   5.205  11.237   4.654
  209POPC   D2A 2995   4.880  11.396   4.970
  209POPC   C3A 2996   4.948   0.012   5.436
  209POPC   C4A 2997   5.136  11.425   5.876
  209POPC   C1B 2998   4.810  10.909   4.773
  209POPC   C2B 2999   5.042  10.813   5.178
  209POPC   C3B 3000   5.182  10.988   5.605
  209POPC   C4B 3001   4.943  10.969   6.035
  210POPC   NC3 3002   0.517  10.151   3.677
  210POPC   PO4 3003  11.412   9.902   3.920
  210POPC   GL1 3004   0.263  10.141   4.188
  210POPC   GL2 3005   0.395  10.435   4.231
  210POPC   C1A 3006   0.260  10.121   4.664
  210POPC   D2A 3007   0.067  10.072   5.095
  210POPC   C3A 3008   0.353  10.189   5.446
  210POPC   C4A 3009   0.351  10.394   5.860
  210POPC   C1B 3010   0.331  10.641   4.615
  210POPC   C2B 3011   0.472  10.499   5.037
  210POPC   C3B 3012   0.550  10.685   5.445
  210POPC   C4B 3013   0.700  10.761   5.859
  211POPC   NC3 3014   2.127   1.786   3.823
  211POPC   PO4 3015   2.316   2.424   3.880
  211POPC   GL1 3016   2.038   2.284   4.206
  211POPC   GL2 3017   1.934   1.945   4.282
  211POPC   C1A 3018   2.137   2.275   4.642
  211POPC   D2A 3019   1.984   2.242   5.054
  211POPC   C3A 3020   2.292   2.241   5.364
  211POPC   C4A 3021   2.196   2.247   5.769
  211POPC   C1B 3022   1.727   1.956   4.681
  211POPC   C2B 3023   1.654   1.822   5.100
  211POPC   C3B 3024   1.859   1.924   5.471
  211POPC   C4B 3025   1.689   2.236   5.695
  212POPC   NC3 3026  10.915   8.857   3.711
  212POPC   PO4 3027  11.476   8.623   3.818
  212POPC   GL1 3028  11.414   8.808   4.254
  212POPC   GL2 3029  11.164   9.008   4.174
  212POPC   C1A 3030  11.279   8.668   4.703
  212POPC   D2A 3031  11.299   8.713   5.134
  212POPC   C3A 3032  11.472   8.428   5.442
  212POPC   C4A 3033  11.215   8.775   5.658
  212POPC   C1B 3034  11.224   9.151   4.624
  212POPC   C2B 3035  11.021   9.135   4.987
  212POPC   C3B 3036  11.097   9.187   5.399
  212POPC   C4B 3037  10.915   9.180   5.799
  213POPC   NC3 3038   7.127  10.964   3.899
  213POPC   PO4 3039   7.839  11.011   3.824
  213POPC   GL1 3040   7.577  10.865   4.168
  213POPC   GL2 3041   7.401  11.160   4.285
  213POPC   C1A 3042   7.557  10.864   4.644
  213POPC   D2A 3043   7.467  10.848   5.080
  213POPC   C3A 3044   7.661  10.793   5.440
  213POPC   C4A 3045   7.457  10.893   5.808
  213POPC   C1B 3046   7.112  11.184   4.620
  213POPC   C2B 3047   7.129  11.355   5.002
  213POPC   C3B 3048   7.069  11.127   5.355
  213POPC   C4B 3049   7.209  11.316   5.706
  214POPC   NC3 3050   4.041   1.412   4.086
  214POPC   PO4 3051   3.390   1.539   3.842
  214POPC   GL1 3052   3.299   1.421   4.259
  214POPC   GL2 3053   3.551   1.168   4.224
  214POPC   C1A 3054   3.557   1.441   4.667
  214POPC   D2A 3055   3.938   1.519   4.937
  214POPC   C3A 3056   3.743   1.519   5.329
  214POPC   C4A 3057   3.514   1.537   5.690
  214POPC   C1B 3058   3.286   0.980   4.546
  214POPC   C2B 3059   3.352   0.865   4.965
  214POPC   C3B 3060   3.333   0.840   5.393
  214POPC   C4B 3061   3.529   1.028   5.702
  215POPC   NC3 3062   9.716   6.639   4.019
  215POPC   PO4 3063  10.076   6.065   3.873
  215POPC   GL1 3064   9.883   6.250   4.287
  215POPC   GL2 3065   9.486   6.334   4.360
  215POPC   C1A 3066   9.831   6.492   4.688
  215POPC   D2A 3067   9.626   6.507   5.093
  215POPC   C3A 3068   9.867   6.730   5.450
  215POPC   C4A 3069   9.837   6.487   5.821
  215POPC   C1B 3070   9.383   6.746   4.660
  215POPC   C2B 3071   9.397   6.945   5.108
  215POPC   C3B 3072   9.373   6.719   5.525
  215POPC   C4B 3073   9.371   6.610   5.952
  216POPC   NC3 3074   4.515   8.993   4.025
  216POPC   PO4 3075   3.961   9.185   3.859
  216POPC   GL1 3076   3.938   9.026   4.285
  216POPC   GL2 3077   4.249   9.029   4.463
  216POPC   C1A 3078   3.808   8.995   4.751
  216POPC   D2A 3079   3.766   9.173   5.185
  216POPC   C3A 3080   4.022   8.942   5.509
  216POPC   C4A 3081   4.146   8.518   5.663
  216POPC   C1B 3082   4.540   8.919   4.788
  216POPC   C2B 3083   4.458   8.881   5.235
  216POPC   C3B 3084   4.573   8.800   5.646
  216POPC   C4B 3085   4.752   8.910   6.025
  217POPC   NC3 3086   1.165   4.411   3.956
  217POPC   PO4 3087   1.708   4.795   4.126
  217POPC   GL1 3088   1.440   4.392   4.361
  217POPC   GL2 3089   1.167   4.040   4.287
  217POPC   C1A 3090   1.129   4.316   4.697
  217POPC   D2A 3091   1.269   4.487   5.041
  217POPC   C3A 3092   1.285   4.359   5.438
  217POPC   C4A 3093   1.444   4.599   5.770
  217POPC   C1B 3094   1.071   3.794   4.681
  217POPC   C2B 3095   0.975   3.912   5.127
  217POPC   C3B 3096   0.986   3.974   5.585
  217POPC   C4B 3097   1.352   4.064   5.869
  218POPC   NC3 3098   1.678   3.669   3.793
  218POPC   PO4 3099   2.190   3.745   4.054
  218POPC   GL1 3100   2.044   3.591   4.380
  218POPC   GL2 3101   2.211   3.294   4.336
  218POPC   C1A 3102   1.965   3.755   4.756
  218POPC   D2A 3103   1.893   3.933   5.140
  218POPC   C3A 3104   1.951   3.678   5.448
  218POPC   C4A 3105   2.122   3.684   5.821
  218POPC   C1B 3106   1.974   3.227   4.741
  218POPC   C2B 3107   2.070   3.236   5.188
  218POPC   C3B 3108   1.962   3.200   5.640
  218POPC   C4B 3109   2.171   3.246   6.034
  219POPC   NC3 3110  10.576   1.118   3.835
  219POPC   PO4 3111   9.942   1.247   3.902
  219POPC   GL1 3112  10.218   1.091   4.270
  219POPC   GL2 3113  10.623   1.102   4.332
  219POPC   C1A 3114  10.309   1.144   4.725
  219POPC   D2A 3115  10.080   1.252   5.095
  219POPC   C3A 3116  10.034   1.643   5.289
  219POPC   C4A 3117   9.971   1.420   5.667
  219POPC   C1B 3118  10.819   1.025   4.733
  219POPC   C2B 3119  10.631   0.961   5.122
  219POPC   C3B 3120  10.436   1.100   5.503
  219POPC   C4B 3121  10.654   1.005   5.890
  220POPC   NC3 3122   8.686   3.578   3.886
  220POPC   PO4 3123   9.252   3.308   3.698
  220POPC   GL1 3124   9.166   3.321   4.180
  220POPC   GL2 3125   8.851   3.407   4.330
  220POPC   C1A 3126   9.252   3.516   4.637
  220POPC   D2A 3127   9.234   3.813   5.029
  220POPC   C3A 3128   9.125   3.572   5.401
  220POPC   C4A 3129   8.994   3.413   5.795
  220POPC   C1B 3130   8.556   3.344   4.680
  220POPC   C2B 3131   8.466   3.235   5.136
  220POPC   C3B 3132   8.524   3.389   5.559
  220POPC   C4B 3133   8.378   3.671   5.895
  221POPC   NC3 3134   0.860   0.510   3.861
  221POPC   PO4 3135   1.422   0.177   3.806
  221POPC   GL1 3136   1.152   0.280   4.191
  221POPC   GL2 3137   1.137   0.609   4.324
  221POPC   C1A 3138   1.032   0.199   4.618
  221POPC   D2A 3139   0.974   0.374   5.016
  221POPC   C3A 3140   0.826   0.181   5.357
  221POPC   C4A 3141   0.979   0.351   5.729
  221POPC   C1B 3142   1.347   0.614   4.741
  221POPC   C2B 3143   1.605   0.561   5.130
  221POPC   C3B 3144   1.609   0.331   5.545
  221POPC   C4B 3145   1.413   0.546   5.891
  222POPC   NC3 3146   1.524   8.800   4.118
  222POPC   PO4 3147   0.861   8.830   3.926
  222POPC   GL1 3148   1.052   8.671   4.279
  222POPC   GL2 3149   1.104   9.009   4.385
  222POPC   C1A 3150   1.241   8.538   4.676
  222POPC   D2A 3151   1.034   8.633   5.076
  222POPC   C3A 3152   1.245   8.540   5.456
  222POPC   C4A 3153   1.366   8.645   5.860
  222POPC   C1B 3154   1.294   9.030   4.786
  222POPC   C2B 3155   1.281   9.061   5.206
  222POPC   C3B 3156   0.984   8.988   5.486
  222POPC   C4B 3157   1.149   9.127   5.843
  223POPC   NC3 3158   9.953   0.605   3.882
  223POPC   PO4 3159   9.713  11.427   3.844
  223POPC   GL1 3160   9.747   0.213   4.202
  223POPC   GL2 3161   9.428   0.332   4.220
  223POPC   C1A 3162   9.679   0.302   4.659
  223POPC   D2A 3163   9.907   0.334   5.007
  223POPC   C3A 3164   9.709   0.395   5.361
  223POPC   C4A 3165   9.809   0.468   5.765
  223POPC   C1B 3166   9.267   0.584   4.549
  223POPC   C2B 3167   9.287   0.470   4.990
  223POPC   C3B 3168   9.299   0.679   5.396
  223POPC   C4B 3169   9.336   0.666   5.809
  224POPC   NC3 3170   8.089   2.943   4.016
  224POPC   PO4 3171   7.885   2.344   3.646
  224POPC   GL1 3172   8.146   2.445   4.056
  224POPC   GL2 3173   7.964   2.480   4.335
  224POPC   C1A 3174   8.449   2.547   4.449
  224POPC   D2A 3175   8.507   2.817   4.840
  224POPC   C3A 3176   8.522   2.728   5.325
  224POPC   C4A 3177   8.386   2.567   5.765
  224POPC   C1B 3178   7.967   2.725   4.699
  224POPC   C2B 3179   8.021   2.956   5.068
  224POPC   C3B 3180   8.061   2.876   5.507
  224POPC   C4B 3181   7.867   2.740   5.896
  225POPC   NC3 3182   7.466   0.902   3.887
  225POPC   PO4 3183   7.581   1.610   3.916
  225POPC   GL1 3184   7.544   1.361   4.322
  225POPC   GL2 3185   7.437   0.999   4.392
  225POPC   C1A 3186   7.501   1.301   4.785
  225POPC   D2A 3187   7.601   1.305   5.221
  225POPC   C3A 3188   7.557   1.130   5.611
  225POPC   C4A 3189   7.630   1.469   5.828
  225POPC   C1B 3190   7.036   1.110   4.686
  225POPC   C2B 3191   6.910   1.363   5.058
  225POPC   C3B 3192   7.093   1.250   5.451
  225POPC   C4B 3193   7.073   0.969   5.830
  226POPC   NC3 3194  10.305   4.874   3.841
  226POPC   PO4 3195  10.824   5.406   3.956
  226POPC   GL1 3196  10.593   5.075   4.219
  226POPC   GL2 3197  10.195   5.030   4.310
  226POPC   C1A 3198  10.621   5.110   4.681
  226POPC   D2A 3199  10.450   5.225   5.086
  226POPC   C3A 3200  10.634   5.272   5.488
  226POPC   C4A 3201  10.410   5.175   5.869
  226POPC   C1B 3202  10.324   4.702   4.571
  226POPC   C2B 3203  10.325   4.739   5.023
  226POPC   C3B 3204  10.223   4.936   5.437
  226POPC   C4B 3205  10.010   4.783   5.770
  227POPC   NC3 3206   2.143   4.207   4.000
  227POPC   PO4 3207   1.478   4.089   3.857
  227POPC   GL1 3208   1.658   3.933   4.293
  227POPC   GL2 3209   1.899   4.114   4.411
  227POPC   C1A 3210   1.575   4.102   4.786
  227POPC   D2A 3211   1.744   4.397   5.179
  227POPC   C3A 3212   1.759   4.165   5.586
  227POPC   C4A 3213   1.858   4.052   6.027
  227POPC   C1B 3214   2.092   4.255   4.767
  227POPC   C2B 3215   2.276   4.246   5.165
  227POPC   C3B 3216   2.262   4.088   5.551
  227POPC   C4B 3217   2.337   4.268   5.957
  228POPC   NC3 3218  11.035   4.243   3.906
  228POPC   PO4 3219  11.480   4.713   3.881
  228POPC   GL1 3220   0.012   4.529   4.278
  228POPC   GL2 3221  11.153   4.544   4.335
  228POPC   C1A 3222   0.202   4.394   4.683
  228POPC   D2A 3223   0.201   4.423   5.139
  228POPC   C3A 3224  11.329   4.357   5.387
  228POPC   C4A 3225  11.167   4.555   5.780
  228POPC   C1B 3226  11.270   4.132   4.547
  228POPC   C2B 3227  11.422   3.985   4.960
  228POPC   C3B 3228  11.298   3.835   5.372
  228POPC   C4B 3229  11.149   4.030   5.746
  229POPC   NC3 3230   3.453   5.743   4.014
  229POPC   PO4 3231   3.862   5.500   4.281
  229POPC   GL1 3232   3.609   5.786   4.549
  229POPC   GL2 3233   3.353   6.019   4.436
  229POPC   C1A 3234   3.516   5.891   5.004
  229POPC   D2A 3235   3.611   5.734   5.452
  229POPC   C3A 3236   3.759   6.036   5.770
  229POPC   C4A 3237   3.680   6.092   6.199
  229POPC   C1B 3238   3.123   5.704   4.711
  229POPC   C2B 3239   3.119   5.605   5.173
  229POPC   C3B 3240   3.153   5.593   5.618
  229POPC   C4B 3241   3.270   5.911   5.863
  230POPC   NC3 3242   9.106   2.907   3.851
  230POPC   PO4 3243   8.508   3.144   3.987
  230POPC   GL1 3244   8.795   2.889   4.260
  230POPC   GL2 3245   8.894   2.515   4.143
  230POPC   C1A 3246   8.990   3.035   4.645
  230POPC   D2A 3247   8.952   3.312   4.994
  230POPC   C3A 3248   8.929   3.094   5.382
  230POPC   C4A 3249   8.726   2.965   5.757
  230POPC   C1B 3250   8.975   2.519   4.600
  230POPC   C2B 3251   8.967   2.680   5.038
  230POPC   C3B 3252   9.042   2.608   5.484
  230POPC   C4B 3253   8.936   2.535   5.928
  231POPC   NC3 3254   9.981   3.137   4.099
  231POPC   PO4 3255  10.236   2.470   3.962
  231POPC   GL1 3256  10.414   2.583   4.328
  231POPC   GL2 3257  10.767   2.569   4.274
  231POPC   C1A 3258  10.311   2.825   4.690
  231POPC   D2A 3259  10.387   2.725   5.125
  231POPC   C3A 3260  10.416   2.988   5.497
  231POPC   C4A 3261  10.255   2.789   5.862
  231POPC   C1B 3262  10.747   2.560   4.741
  231POPC   C2B 3263  10.779   2.409   5.158
  231POPC   C3B 3264  10.733   2.598   5.600
  231POPC   C4B 3265  10.736   2.806   6.015
  232POPC   NC3 3266   1.799   7.485   3.939
  232POPC   PO4 3267   2.438   7.713   3.958
  232POPC   GL1 3268   2.156   7.537   4.296
  232POPC   GL2 3269   2.044   7.174   4.244
  232POPC   C1A 3270   2.009   7.381   4.693
  232POPC   D2A 3271   1.801   7.417   5.019
  232POPC   C3A 3272   2.098   7.534   5.324
  232POPC   C4A 3273   2.187   7.762   5.720
  232POPC   C1B 3274   1.659   7.055   4.546
  232POPC   C2B 3275   1.650   6.917   4.993
  232POPC   C3B 3276   1.868   7.071   5.380
  232POPC   C4B 3277   2.114   7.239   5.753
  233POPC   NC3 3278   0.379   8.808   3.971
  233POPC   PO4 3279   0.106   8.299   4.312
  233POPC   GL1 3280   0.303   8.673   4.539
  233POPC   GL2 3281   0.591   8.890   4.417
  233POPC   C1A 3282   0.219   9.060   4.757
  233POPC   D2A 3283   0.034   9.189   5.136
  233POPC   C3A 3284   0.186   8.888   5.440
  233POPC   C4A 3285   0.209   8.653   5.840
  233POPC   C1B 3286   0.764   9.039   4.813
  233POPC   C2B 3287   0.566   9.173   5.210
  233POPC   C3B 3288   0.535   9.172   5.674
  233POPC   C4B 3289   0.708   8.830   5.902
  234POPC   NC3 3290   3.526   9.036   3.887
  234POPC   PO4 3291   3.273   8.490   4.071
  234POPC   GL1 3292   3.464   8.752   4.395
  234POPC   GL2 3293   3.446   9.122   4.402
  234POPC   C1A 3294   3.488   8.608   4.836
  234POPC   D2A 3295   3.738   8.648   5.211
  234POPC   C3A 3296   3.521   8.571   5.604
  234POPC   C4A 3297   3.440   8.465   6.047
  234POPC   C1B 3298   3.231   9.040   4.810
  234POPC   C2B 3299   3.305   8.942   5.261
  234POPC   C3B 3300   3.539   9.078   5.651
  234POPC   C4B 3301   3.368   9.033   6.074
  235POPC   NC3 3302   2.777   2.767   3.812
  235POPC   PO4 3303   3.213   2.192   3.877
  235POPC   GL1 3304   2.846   2.416   4.167
  235POPC   GL2 3305   2.898   2.783   4.356
  235POPC   C1A 3306   2.597   2.481   4.581
  235POPC   D2A 3307   2.821   2.597   4.985
  235POPC   C3A 3308   2.643   2.636   5.406
  235POPC   C4A 3309   2.843   2.718   5.788
  235POPC   C1B 3310   2.914   3.040   4.772
  235POPC   C2B 3311   2.592   3.097   5.157
  235POPC   C3B 3312   2.488   3.066   5.633
  235POPC   C4B 3313   2.557   2.965   6.109
  236POPC   NC3 3314   1.846   0.345   3.871
  236POPC   PO4 3315   1.693  11.247   4.121
  236POPC   GL1 3316   1.620   0.163   4.327
  236POPC   GL2 3317   1.679   0.550   4.319
  236POPC   C1A 3318   1.741   0.241   4.744
  236POPC   D2A 3319   2.112   0.080   4.940
  236POPC   C3A 3320   2.006  11.492   5.341
  236POPC   C4A 3321   2.164   0.152   5.705
  236POPC   C1B 3322   2.109   0.517   4.526
  236POPC   C2B 3323   2.157   0.596   4.977
  236POPC   C3B 3324   2.060   0.550   5.398
  236POPC   C4B 3325   2.386   0.638   5.701
  237POPC   NC3 3326   1.968   2.716   3.883
  237POPC   PO4 3327   2.427   3.078   3.779
  237POPC   GL1 3328   2.422   2.854   4.197
  237POPC   GL2 3329   2.097   2.769   4.370
  237POPC   C1A 3330   2.428   2.959   4.675
  237POPC   D2A 3331   2.319   2.645   4.999
  237POPC   C3A 3332   2.122   2.750   5.386
  237POPC   C4A 3333   2.166   2.752   5.840
  237POPC   C1B 3334   1.870   2.707   4.762
  237POPC   C2B 3335   1.531   2.512   4.986
  237POPC   C3B 3336   1.418   2.585   5.395
  237POPC   C4B 3337   1.694   2.725   5.680
  238POPC   NC3 3338   0.253   0.124   4.074
  238POPC   PO4 3339   0.423   0.749   3.838
  238POPC   GL1 3340   0.630   0.699   4.271
  238POPC   GL2 3341   0.639   0.366   4.314
  238POPC   C1A 3342   0.609   0.592   4.741
  238POPC   D2A 3343   0.459   0.460   5.126
  238POPC   C3A 3344   0.633   0.635   5.467
  238POPC   C4A 3345   0.395   0.742   5.744
  238POPC   C1B 3346   0.548   0.075   4.679
  238POPC   C2B 3347   0.392  11.463   5.076
  238POPC   C3B 3348   0.347   0.064   5.520
  238POPC   C4B 3349   0.500   0.265   5.873
  239POPC   NC3 3350   1.936   9.577   3.858
  239POPC   PO4 3351   2.585   9.497   4.098
  239POPC   GL1 3352   2.189   9.677   4.307
  239POPC   GL2 3353   1.803   9.624   4.322
  239POPC   C1A 3354   2.047   9.692   4.743
  239POPC   D2A 3355   2.205   9.562   5.108
  239POPC   C3A 3356   2.248   9.915   5.364
  239POPC   C4A 3357   2.057   9.669   5.691
  239POPC   C1B 3358   1.658   9.354   4.632
  239POPC   C2B 3359   1.522   9.465   5.013
  239POPC   C3B 3360   1.674   9.495   5.397
  239POPC   C4B 3361   1.529   9.498   5.782
  240POPC   NC3 3362   0.366   1.906   4.186
  240POPC   PO4 3363  11.497   2.341   3.833
  240POPC   GL1 3364   0.213   2.367   4.321
  240POPC   GL2 3365   0.556   2.227   4.525
  240POPC   C1A 3366   0.190   2.402   4.803
  240POPC   D2A 3367   0.326   2.366   5.234
  240POPC   C3A 3368   0.272   1.969   5.455
  240POPC   C4A 3369   0.088   1.878   5.875
  240POPC   C1B 3370   0.355   1.908   4.860
  240POPC   C2B 3371   0.523   1.614   5.199
  240POPC   C3B 3372   0.747   1.803   5.581
  240POPC   C4B 3373   0.641   2.247   5.716
  241POPC   NC3 3374   9.137   7.450   3.939
  241POPC   PO4 3375   8.648   7.802   4.036
  241POPC   GL1 3376   8.850   7.533   4.358
  241POPC   GL2 3377   9.023   7.189   4.406
  241POPC   C1A 3378   8.944   7.605   4.761
  241POPC   D2A 3379   8.814   7.536   5.180
  241POPC   C3A 3380   9.074   7.396   5.505
  241POPC   C4A 3381   8.878   7.302   5.926
  241POPC   C1B 3382   8.965   7.101   4.888
  241POPC   C2B 3383   8.933   6.921   5.346
  241POPC   C3B 3384   8.914   6.789   5.811
  241POPC   C4B 3385   9.095   6.908   6.256
  242POPC   NC3 3386   2.896  10.871   3.919
  242POPC   PO4 3387   2.378  11.387   3.848
  242POPC   GL1 3388   2.542  11.141   4.204
  242POPC   GL2 3389   2.899  11.204   4.303
  242POPC   C1A 3390   2.543  11.309   4.638
  242POPC   D2A 3391   2.767  11.419   5.032
  242POPC   C3A 3392   2.528  11.326   5.411
  242POPC   C4A 3393   2.717  11.085   5.687
  242POPC   C1B 3394   2.902  10.902   4.610
  242POPC   C2B 3395   2.953  10.924   5.050
  242POPC   C3B 3396   3.149  10.854   5.443
  242POPC   C4B 3397   3.054  10.754   5.828
  243POPC   NC3 3398   6.456   2.060   3.932
  243POPC   PO4 3399   6.474   1.354   3.849
  243POPC   GL1 3400   6.471   1.607   4.211
  243POPC   GL2 3401   6.782   1.795   4.291
  243POPC   C1A 3402   6.326   1.674   4.625
  243POPC   D2A 3403   6.270   1.578   5.056
  243POPC   C3A 3404   6.588   1.735   5.345
  243POPC   C4A 3405   6.502   1.864   5.767
  243POPC   C1B 3406   6.975   1.904   4.714
  243POPC   C2B 3407   6.992   2.038   5.182
  243POPC   C3B 3408   6.772   2.227   5.529
  243POPC   C4B 3409   6.551   2.385   5.896
  244POPC   NC3 3410   9.499   1.392   3.754
  244POPC   PO4 3411   9.505   0.726   3.888
  244POPC   GL1 3412   9.670   0.970   4.244
  244POPC   GL2 3413   9.373   1.113   4.416
  244POPC   C1A 3414   9.794   1.066   4.685
  244POPC   D2A 3415   9.653   0.810   4.994
  244POPC   C3A 3416   9.781   0.917   5.373
  244POPC   C4A 3417   9.753   0.959   5.776
  244POPC   C1B 3418   9.397   1.389   4.789
  244POPC   C2B 3419   9.574   1.341   5.164
  244POPC   C3B 3420   9.435   1.260   5.540
  244POPC   C4B 3421   9.539   1.392   5.959
  245POPC   NC3 3422   8.022   8.657   3.929
  245POPC   PO4 3423   8.200   9.214   3.767
  245POPC   GL1 3424   8.191   8.980   4.248
  245POPC   GL2 3425   7.939   9.167   4.392
  245POPC   C1A 3426   8.285   9.025   4.726
  245POPC   D2A 3427   7.989   9.006   5.037
  245POPC   C3A 3428   8.259   8.984   5.404
  245POPC   C4A 3429   8.194   9.130   5.830
  245POPC   C1B 3430   7.887   8.714   4.603
  245POPC   C2B 3431   7.766   8.525   5.012
  245POPC   C3B 3432   7.912   8.460   5.437
  245POPC   C4B 3433   8.216   8.614   5.747
  246POPC   NC3 3434   7.417   8.067   3.924
  246POPC   PO4 3435   7.082   7.639   4.049
  246POPC   GL1 3436   7.165   7.991   4.381
  246POPC   GL2 3437   7.279   8.350   4.333
  246POPC   C1A 3438   7.236   8.088   4.839
  246POPC   D2A 3439   7.527   8.117   5.216
  246POPC   C3A 3440   7.388   7.946   5.631
  246POPC   C4A 3441   7.271   7.902   6.094
  246POPC   C1B 3442   7.367   8.581   4.697
  246POPC   C2B 3443   7.218   8.525   5.117
  246POPC   C3B 3444   7.398   8.519   5.525
  246POPC   C4B 3445   7.157   8.340   5.858
  247POPC   NC3 3446   4.336   2.341   3.923
  247POPC   PO4 3447   4.147   1.713   3.721
  247POPC   GL1 3448   4.143   1.912   4.134
  247POPC   GL2 3449   4.452   1.930   4.356
  247POPC   C1A 3450   3.965   1.902   4.554
  247POPC   D2A 3451   4.038   2.164   4.929
  247POPC   C3A 3452   4.052   1.929   5.319
  247POPC   C4A 3453   4.088   1.649   5.700
  247POPC   C1B 3454   4.383   1.780   4.824
  247POPC   C2B 3455   4.423   1.574   5.238
  247POPC   C3B 3456   4.562   1.799   5.577
  247POPC   C4B 3457   4.331   2.207   5.646
  248POPC   NC3 3458  10.849   0.346   4.242
  248POPC   PO4 3459  10.421   0.666   3.799
  248POPC   GL1 3460  10.434   0.628   4.239
  248POPC   GL2 3461  10.262   0.319   4.303
  248POPC   C1A 3462  10.523   0.592   4.717
  248POPC   D2A 3463  10.431   0.315   5.060
  248POPC   C3A 3464  10.664   0.514   5.370
  248POPC   C4A 3465  10.592   0.459   5.769
  248POPC   C1B 3466  10.048   0.643   4.584
  248POPC   C2B 3467  10.159   0.762   5.031
  248POPC   C3B 3468  10.188   0.640   5.456
  248POPC   C4B 3469  10.214   0.789   5.876
  249POPC   NC3 3470   9.137   0.463   3.826
  249POPC   PO4 3471   8.717  11.486   3.774
  249POPC   GL1 3472   9.043   0.007   4.124
  249POPC   GL2 3473   8.887   0.271   4.294
  249POPC   C1A 3474   9.192   0.071   4.640
  249POPC   D2A 3475   8.998   0.074   5.140
  249POPC   C3A 3476   9.247   0.184   5.543
  249POPC   C4A 3477   9.150   0.257   6.011
  249POPC   C1B 3478   8.792   0.366   4.751
  249POPC   C2B 3479   8.825   0.580   5.171
  249POPC   C3B 3480   8.812   0.440   5.595
  249POPC   C4B 3481   8.751   0.751   5.868
  250POPC   NC3 3482   7.840   2.001   3.952
  250POPC   PO4 3483   8.434   1.666   3.826
  250POPC   GL1 3484   8.210   1.697   4.236
  250POPC   GL2 3485   8.190   2.022   4.338
  250POPC   C1A 3486   7.991   1.713   4.676
  250POPC   D2A 3487   8.104   1.896   5.105
  250POPC   C3A 3488   7.850   1.800   5.450
  250POPC   C4A 3489   7.756   1.959   5.854
  250POPC   C1B 3490   8.159   2.233   4.732
  250POPC   C2B 3491   8.089   2.447   5.127
  250POPC   C3B 3492   7.972   2.329   5.542
  250POPC   C4B 3493   8.257   2.038   5.717
  251POPC   NC3 3494   2.934   8.358   3.809
  251POPC   PO4 3495   2.301   8.547   3.969
  251POPC   GL1 3496   2.362   8.372   4.425
  251POPC   GL2 3497   2.376   7.989   4.433
  251POPC   C1A 3498   2.501   8.320   4.903
  251POPC   D2A 3499   2.863   8.187   5.225
  251POPC   C3A 3500   3.079   8.234   5.663
  251POPC   C4A 3501   2.885   8.326   6.082
  251POPC   C1B 3502   2.398   7.757   4.849
  251POPC   C2B 3503   2.392   7.958   5.278
  251POPC   C3B 3504   2.589   8.067   5.692
  251POPC   C4B 3505   2.477   7.943   6.119
  252POPC   NC3 3506   6.534   3.617   4.033
  252POPC   PO4 3507   6.920   3.448   4.234
  252POPC   GL1 3508   6.610   3.605   4.539
  252POPC   GL2 3509   6.328   3.391   4.488
  252POPC   C1A 3510   6.414   3.658   4.969
  252POPC   D2A 3511   6.246   3.928   5.313
  252POPC   C3A 3512   6.534   3.920   5.663
  252POPC   C4A 3513   6.844   3.553   5.769
  252POPC   C1B 3514   6.617   3.176   4.799
  252POPC   C2B 3515   6.726   3.303   5.218
  252POPC   C3B 3516   6.423   3.457   5.492
  252POPC   C4B 3517   6.157   3.580   5.826
  253POPC   NC3 3518   8.160   9.647   3.958
  253POPC   PO4 3519   7.658  10.048   4.026
  253POPC   GL1 3520   7.917   9.861   4.348
  253POPC   GL2 3521   8.279   9.835   4.430
  253POPC   C1A 3522   7.958  10.045   4.770
  253POPC   D2A 3523   7.919   9.804   5.142
  253POPC   C3A 3524   7.693   9.818   5.515
  253POPC   C4A 3525   7.693   9.912   5.946
  253POPC   C1B 3526   8.164   9.563   4.762
  253POPC   C2B 3527   8.260   9.418   5.120
  253POPC   C3B 3528   7.994   9.414   5.470
  253POPC   C4B 3529   8.138   9.671   5.803
  254POPC   NC3 3530   9.290   9.962   3.670
  254POPC   PO4 3531   9.138   9.338   4.016
  254POPC   GL1 3532   9.293   9.665   4.278
  254POPC   GL2 3533   9.687   9.734   4.331
  254POPC   C1A 3534   9.206   9.667   4.709
  254POPC   D2A 3535   9.243   9.381   5.075
  254POPC   C3A 3536   9.214   9.532   5.510
  254POPC   C4A 3537   9.423   9.556   5.911
  254POPC   C1B 3538   9.904   9.659   4.778
  254POPC   C2B 3539   9.887   9.636   5.249
  254POPC   C3B 3540  10.008   9.484   5.650
  254POPC   C4B 3541   9.985   9.445   6.115
  255POPC   NC3 3542   5.238   0.956   3.986
  255POPC   PO4 3543   5.134   1.570   3.641
  255POPC   GL1 3544   5.034   1.392   4.140
  255POPC   GL2 3545   4.793   1.086   4.234
  255POPC   C1A 3546   5.086   1.268   4.599
  255POPC   D2A 3547   5.203   1.401   5.010
  255POPC   C3A 3548   4.896   1.362   5.339
  255POPC   C4A 3549   4.903   1.375   5.779
  255POPC   C1B 3550   4.759   0.850   4.625
  255POPC   C2B 3551   4.963   0.938   5.021
  255POPC   C3B 3552   5.074   0.892   5.436
  255POPC   C4B 3553   5.166   0.962   5.862
  256POPC   NC3 3554   0.195   8.025   3.953
  256POPC   PO4 3555   0.838   7.813   3.992
  256POPC   GL1 3556   0.573   8.014   4.320
  256POPC   GL2 3557   0.613   8.378   4.250
  256POPC   C1A 3558   0.456   8.057   4.777
  256POPC   D2A 3559   0.189   7.910   5.109
  256POPC   C3A 3560   0.391   8.057   5.484
  256POPC   C4A 3561   0.437   7.833   5.865
  256POPC   C1B 3562   0.740   8.479   4.675
  256POPC   C2B 3563   0.514   8.633   5.045
  256POPC   C3B 3564   0.609   8.566   5.478
  256POPC   C4B 3565   0.599   8.322   5.881
  257POPC   NC3 3566  10.190   7.329   4.235
  257POPC   PO4 3567   9.601   7.519   3.925
  257POPC   GL1 3568   9.710   7.528   4.362
  257POPC   GL2 3569   9.377   7.553   4.382
  257POPC   C1A 3570   9.917   7.457   4.811
  257POPC   D2A 3571  10.093   7.408   5.234
  257POPC   C3A 3572   9.843   7.648   5.510
  257POPC   C4A 3573   9.655   7.538   5.929
  257POPC   C1B 3574   9.399   7.366   4.762
  257POPC   C2B 3575   9.503   7.449   5.176
  257POPC   C3B 3576   9.594   7.195   5.527
  257POPC   C4B 3577   9.330   7.113   5.849
  258POPC   NC3 3578   8.290  11.144   3.679
  258POPC   PO4 3579   8.804  10.949   4.083
  258POPC   GL1 3580   8.846  11.166   4.446
  258POPC   GL2 3581   9.164  11.109   4.431
  258POPC   C1A 3582   8.659  11.365   4.796
  258POPC   D2A 3583   8.620  11.194   5.210
  258POPC   C3A 3584   8.581  11.447   5.569
  258POPC   C4A 3585   8.798  11.427   5.958
  258POPC   C1B 3586   9.114  11.145   4.888
  258POPC   C2B 3587   9.096  10.939   5.231
  258POPC   C3B 3588   9.052  11.199   5.562
  258POPC   C4B 3589   9.332  11.286   5.912
  259POPC   NC3 3590   1.717   6.629   3.751
  259POPC   PO4 3591   2.222   6.261   3.768
  259POPC   GL1 3592   1.918   6.369   4.148
  259POPC   GL2 3593   1.880   6.699   4.236
  259POPC   C1A 3594   1.814   6.323   4.635
  259POPC   D2A 3595   1.716   6.192   5.093
  259POPC   C3A 3596   1.927   6.310   5.515
  259POPC   C4A 3597   2.283   6.395   5.839
  259POPC   C1B 3598   2.063   6.778   4.670
  259POPC   C2B 3599   2.094   6.615   5.097
  259POPC   C3B 3600   2.240   6.763   5.502
  259POPC   C4B 3601   1.903   6.766   5.804
  260POPC   NC3 3602  11.190   5.697   3.944
  260POPC   PO4 3603  10.757   6.207   3.988
  260POPC   GL1 3604  10.901   5.920   4.307
  260POPC   GL2 3605  11.281   5.923   4.376
  260POPC   C1A 3606  10.954   5.716   4.718
  260POPC   D2A 3607  10.726   5.647   5.107
  260POPC   C3A 3608  10.925   5.730   5.489
  260POPC   C4A 3609  10.794   5.570   5.871
  260POPC   C1B 3610  11.463   5.921   4.778
  260POPC   C2B 3611  11.358   5.936   5.207
  260POPC   C3B 3612  11.424   5.734   5.598
  260POPC   C4B 3613  11.180   5.873   5.966
  261POPC   NC3 3614   5.132   9.276   3.999
  261POPC   PO4 3615   5.223  10.032   3.832
  261POPC   GL1 3616   5.125   9.815   4.192
  261POPC   GL2 3617   5.257   9.530   4.411
  261POPC   C1A 3618   4.984   9.918   4.603
  261POPC   D2A 3619   4.963   9.755   5.004
  261POPC   C3A 3620   4.927   9.929   5.387
  261POPC   C4A 3621   4.998   9.731   5.789
  261POPC   C1B 3622   4.928   9.346   4.706
  261POPC   C2B 3623   4.732   9.313   5.144
  261POPC   C3B 3624   4.713   9.292   5.614
  261POPC   C4B 3625   4.678   9.411   6.061
  262POPC   NC3 3626  10.879   6.661   3.957
  262POPC   PO4 3627  11.357   7.006   3.984
  262POPC   GL1 3628  11.216   6.788   4.330
  262POPC   GL2 3629  11.207   6.427   4.267
  262POPC   C1A 3630  11.320   6.724   4.734
  262POPC   D2A 3631  11.164   6.554   5.083
  262POPC   C3A 3632  11.209   6.764   5.445
  262POPC   C4A 3633  11.323   7.030   5.755
  262POPC   C1B 3634  11.052   6.274   4.654
  262POPC   C2B 3635  10.904   6.122   5.033
  262POPC   C3B 3636  11.012   6.226   5.453
  262POPC   C4B 3637  11.189   6.351   5.809
  263POPC   NC3 3638  11.112   7.420   3.860
  263POPC   PO4 3639  10.534   6.949   3.778
  263POPC   GL1 3640  10.853   7.119   4.174
  263POPC   GL2 3641  11.072   7.409   4.346
  263POPC   C1A 3642  10.943   7.066   4.686
  263POPC   D2A 3643  10.844   6.988   5.141
  263POPC   C3A 3644  10.883   7.181   5.534
  263POPC   C4A 3645  10.869   7.047   5.989
  263POPC   C1B 3646  11.414   7.245   4.629
  263POPC   C2B 3647  11.339   7.148   5.081
  263POPC   C3B 3648  11.342   7.430   5.454
  263POPC   C4B 3649  11.106   7.510   5.866
  264POPC   NC3 3650   5.284  10.564   3.791
  264POPC   PO4 3651   5.903  10.530   3.992
  264POPC   GL1 3652   5.890  10.527   4.396
  264POPC   GL2 3653   6.008  10.194   4.353
  264POPC   C1A 3654   5.741  10.692   4.814
  264POPC   D2A 3655   5.568  10.820   5.238
  264POPC   C3A 3656   5.642  10.567   5.607
  264POPC   C4A 3657   5.747  10.645   6.034
  264POPC   C1B 3658   5.850  10.164   4.764
  264POPC   C2B 3659   5.677  10.286   5.135
  264POPC   C3B 3660   5.802  10.094   5.488
  264POPC   C4B 3661   5.814  10.155   5.888
  265POPC   NC3 3662   0.136   3.446   3.971
  265POPC   PO4 3663  11.110   3.794   3.910
  265POPC   GL1 3664  11.214   3.502   4.227
  265POPC   GL2 3665  10.950   3.344   4.354
  265POPC   C1A 3666  11.422   3.332   4.600
  265POPC   D2A 3667  11.228   3.212   5.006
  265POPC   C3A 3668  11.380   3.303   5.445
  265POPC   C4A 3669  11.440   3.165   5.884
  265POPC   C1B 3670  11.066   3.671   4.687
  265POPC   C2B 3671  10.917   3.628   5.091
  265POPC   C3B 3672  10.884   3.553   5.509
  265POPC   C4B 3673  11.116   3.547   5.871
  266POPC   NC3 3674   1.238  11.315   4.015
  266POPC   PO4 3675   1.286  10.687   3.783
  266POPC   GL1 3676   1.302  10.866   4.277
  266POPC   GL2 3677   1.074  11.145   4.438
  266POPC   C1A 3678   1.282  10.824   4.777
  266POPC   D2A 3679   1.001  10.816   5.173
  266POPC   C3A 3680   1.133  10.931   5.623
  266POPC   C4A 3681   1.505  10.877   5.908
  266POPC   C1B 3682   1.385  11.352   4.699
  266POPC   C2B 3683   1.390   0.066   5.096
  266POPC   C3B 3684   1.247  11.431   5.493
  266POPC   C4B 3685   1.288  11.493   5.922
  267POPC   NC3 3686   1.561   5.020   3.770
  267POPC   PO4 3687   0.966   5.377   3.742
  267POPC   GL1 3688   1.111   5.349   4.174
  267POPC   GL2 3689   1.246   5.020   4.181
  267POPC   C1A 3690   1.302   5.378   4.605
  267POPC   D2A 3691   1.142   5.382   5.048
  267POPC   C3A 3692   1.350   5.424   5.439
  267POPC   C4A 3693   1.474   5.151   5.781
  267POPC   C1B 3694   1.198   4.834   4.607
  267POPC   C2B 3695   0.990   4.897   5.003
  267POPC   C3B 3696   1.174   4.885   5.417
  267POPC   C4B 3697   0.998   4.889   5.848
  268POPC   NC3 3698   1.153   6.767   4.044
  268POPC   PO4 3699   1.503   6.216   3.829
  268POPC   GL1 3700   1.420   6.263   4.287
  268POPC   GL2 3701   1.425   6.595   4.434
  268POPC   C1A 3702   1.164   6.234   4.705
  268POPC   D2A 3703   1.231   6.394   5.139
  268POPC   C3A 3704   1.011   6.318   5.537
  268POPC   C4A 3705   1.418   6.508   5.711
  268POPC   C1B 3706   1.148   6.758   4.755
  268POPC   C2B 3707   1.139   6.919   5.162
  268POPC   C3B 3708   1.031   6.820   5.564
  268POPC   C4B 3709   1.029   7.000   5.932
  269POPC   NC3 3710   0.609   5.317   4.049
  269POPC   PO4 3711   0.751   4.608   3.937
  269POPC   GL1 3712   0.470   4.800   4.242
  269POPC   GL2 3713   0.772   4.932   4.353
  269POPC   C1A 3714   0.405   4.973   4.702
  269POPC   D2A 3715   0.510   4.818   5.152
  269POPC   C3A 3716   0.435   4.999   5.564
  269POPC   C4A 3717   0.447   4.882   6.019
  269POPC   C1B 3718   0.816   5.255   4.664
  269POPC   C2B 3719   0.644   5.296   5.075
  269POPC   C3B 3720   0.852   5.277   5.472
  269POPC   C4B 3721   0.705   5.303   5.884
  270POPC   NC3 3722   6.463   0.878   3.776
  270POPC   PO4 3723   7.030   0.938   4.071
  270POPC   GL1 3724   6.649   0.797   4.299
  270POPC   GL2 3725   6.352   1.043   4.260
  270POPC   C1A 3726   6.660   0.697   4.751
  270POPC   D2A 3727   6.886   0.849   5.120
  270POPC   C3A 3728   6.687   0.872   5.513
  270POPC   C4A 3729   6.421   0.927   5.854
  270POPC   C1B 3730   6.485   1.182   4.678
  270POPC   C2B 3731   6.448   1.112   5.115
  270POPC   C3B 3732   6.364   1.306   5.498
  270POPC   C4B 3733   6.705   1.375   5.736
  271POPC   NC3 3734  10.252   7.365   3.675
  271POPC   PO4 3735  10.567   7.588   4.177
  271POPC   GL1 3736  10.583   7.367   4.534
  271POPC   GL2 3737  10.480   7.004   4.483
  271POPC   C1A 3738  10.494   7.302   4.920
  271POPC   D2A 3739  10.617   7.570   5.210
  271POPC   C3A 3740  10.505   7.524   5.598
  271POPC   C4A 3741  10.679   7.842   5.822
  271POPC   C1B 3742  10.224   6.870   4.797
  271POPC   C2B 3743  10.332   6.914   5.216
  271POPC   C3B 3744  10.392   7.029   5.589
  271POPC   C4B 3745  10.061   7.262   5.743
  272POPC   NC3 3746   9.531   7.992   3.971
  272POPC   PO4 3747  10.096   7.819   3.669
  272POPC   GL1 3748  10.028   7.862   4.130
  272POPC   GL2 3749   9.966   8.230   4.200
  272POPC   C1A 3750   9.894   7.934   4.603
  272POPC   D2A 3751   9.690   7.915   5.024
  272POPC   C3A 3752   9.803   8.162   5.415
  272POPC   C4A 3753   9.817   8.021   5.844
  272POPC   C1B 3754   9.602   8.367   4.512
  272POPC   C2B 3755   9.356   8.367   4.921
  272POPC   C3B 3756   9.321   8.321   5.358
  272POPC   C4B 3757   9.382   8.269   5.787
  273POPC   NC3 3758   0.966   9.336   3.838
  273POPC   PO4 3759   1.607   9.236   3.995
  273POPC   GL1 3760   1.301   9.470   4.254
  273POPC   GL2 3761   1.329   9.853   4.295
  273POPC   C1A 3762   1.145   9.502   4.655
  273POPC   D2A 3763   0.933   9.501   5.041
  273POPC   C3A 3764   1.137   9.514   5.435
  273POPC   C4A 3765   0.871   9.548   5.796
  273POPC   C1B 3766   1.540   9.869   4.681
  273POPC   C2B 3767   1.264   9.901   5.016
  273POPC   C3B 3768   1.311  10.031   5.417
  273POPC   C4B 3769   1.210   9.917   5.823
  274POPC   NC3 3770   0.579   6.101   3.788
  274POPC   PO4 3771   0.684   6.766   3.980
  274POPC   GL1 3772   0.439   6.427   4.172
  274POPC   GL2 3773   0.689   6.207   4.313
  274POPC   C1A 3774   0.167   6.364   4.548
  274POPC   D2A 3775   0.239   6.537   4.977
  274POPC   C3A 3776   0.063   6.392   5.375
  274POPC   C4A 3777   0.113   6.621   5.752
  274POPC   C1B 3778   0.692   6.492   4.659
  274POPC   C2B 3779   0.727   6.410   5.098
  274POPC   C3B 3780   0.557   6.603   5.465
  274POPC   C4B 3781   0.539   6.924   5.781
  275POPC   NC3 3782   4.729  10.063   3.913
  275POPC   PO4 3783   4.883  10.741   3.934
  275POPC   GL1 3784   5.051  10.391   4.208
  275POPC   GL2 3785   5.446  10.321   4.194
  275POPC   C1A 3786   4.847  10.406   4.605
  275POPC   D2A 3787   4.642  10.177   4.922
  275POPC   C3A 3788   4.717  10.392   5.302
  275POPC   C4A 3789   4.788  10.675   5.641
  275POPC   C1B 3790   5.374  10.302   4.627
  275POPC   C2B 3791   5.152  10.263   5.008
  275POPC   C3B 3792   5.211  10.373   5.422
  275POPC   C4B 3793   5.337  10.118   5.734
  276POPC   NC3 3794   4.611   2.873   3.958
  276POPC   PO4 3795   4.021   3.067   3.978
  276POPC   GL1 3796   4.226   2.720   4.278
  276POPC   GL2 3797   4.126   2.372   4.385
  276POPC   C1A 3798   4.400   2.606   4.727
  276POPC   D2A 3799   4.234   2.591   5.164
  276POPC   C3A 3800   4.504   2.675   5.535
  276POPC   C4A 3801   4.853   2.674   5.828
  276POPC   C1B 3802   3.884   2.616   4.684
  276POPC   C2B 3803   3.692   2.519   5.090
  276POPC   C3B 3804   3.876   2.402   5.472
  276POPC   C4B 3805   4.084   2.608   5.820
  277POPC   NC3 3806   8.707   4.644   3.856
  277POPC   PO4 3807   8.752   4.029   3.859
  277POPC   GL1 3808   8.962   3.911   4.257
  277POPC   GL2 3809   9.084   4.210   4.436
  277POPC   C1A 3810   8.845   3.827   4.708
  277POPC   D2A 3811   8.695   3.713   5.146
  277POPC   C3A 3812   8.758   3.857   5.584
  277POPC   C4A 3813   8.538   4.167   5.812
  277POPC   C1B 3814   9.014   4.337   4.869
  277POPC   C2B 3815   8.957   4.219   5.305
  277POPC   C3B 3816   9.051   4.301   5.751
  277POPC   C4B 3817   8.841   4.370   6.162
  278POPC   NC3 3818   1.046   2.923   4.039
  278POPC   PO4 3819   1.262   3.501   3.772
  278POPC   GL1 3820   1.310   3.560   4.194
  278POPC   GL2 3821   1.062   3.365   4.305
  278POPC   C1A 3822   1.511   3.534   4.611
  278POPC   D2A 3823   1.629   3.525   5.052
  278POPC   C3A 3824   1.447   3.812   5.350
  278POPC   C4A 3825   1.554   3.623   5.737
  278POPC   C1B 3826   0.992   3.230   4.716
  278POPC   C2B 3827   1.139   3.407   5.094
  278POPC   C3B 3828   1.107   3.476   5.519
  278POPC   C4B 3829   0.883   3.213   5.822
  279POPC   NC3 3830   3.139   1.141   3.748
  279POPC   PO4 3831   2.769   1.416   4.153
  279POPC   GL1 3832   2.804   1.118   4.437
  279POPC   GL2 3833   2.502   0.894   4.378
  279POPC   C1A 3834   2.916   1.209   4.892
  279POPC   D2A 3835   3.243   1.323   5.212
  279POPC   C3A 3836   3.075   1.260   5.645
  279POPC   C4A 3837   2.990   1.033   6.045
  279POPC   C1B 3838   2.345   1.252   4.606
  279POPC   C2B 3839   2.355   1.184   4.998
  279POPC   C3B 3840   2.630   1.274   5.357
  279POPC   C4B 3841   2.582   1.182   5.786
  280POPC   NC3 3842   3.817  11.259   3.940
  280POPC   PO4 3843   3.102  11.327   3.843
  280POPC   GL1 3844   3.359  11.395   4.212
  280POPC   GL2 3845   3.530  11.102   4.330
  280POPC   C1A 3846   3.233  11.383   4.681
  280POPC   D2A 3847   3.310   0.046   5.118
  280POPC   C3A 3848   3.118  11.363   5.491
  280POPC   C4A 3849   3.337  11.229   5.870
  280POPC   C1B 3850   3.413  10.899   4.720
  280POPC   C2B 3851   3.466  11.068   5.104
  280POPC   C3B 3852   3.622  11.050   5.504
  280POPC   C4B 3853   3.551  10.764   5.841
  281POPC   NC3 3854   5.151   8.234   3.888
  281POPC   PO4 3855   4.828   8.688   3.896
  281POPC   GL1 3856   4.888   8.457   4.301
  281POPC   GL2 3857   5.193   8.244   4.393
  281POPC   C1A 3858   4.910   8.423   4.775
  281POPC   D2A 3859   4.984   8.120   5.114
  281POPC   C3A 3860   4.930   8.295   5.532
  281POPC   C4A 3861   4.622   8.361   5.890
  281POPC   C1B 3862   5.301   7.922   4.731
  281POPC   C2B 3863   5.252   7.671   5.113
  281POPC   C3B 3864   5.214   7.851   5.531
  281POPC   C4B 3865   5.449   8.179   5.763
  282POPC   NC3 3866   6.940   0.420   4.033
  282POPC   PO4 3867   6.262   0.377   3.846
  282POPC   GL1 3868   6.485   0.264   4.269
  282POPC   GL2 3869   6.184   0.340   4.471
  282POPC   C1A 3870   6.849   0.197   4.628
  282POPC   D2A 3871   6.972   0.353   5.042
  282POPC   C3A 3872   6.863   0.107   5.400
  282POPC   C4A 3873   6.717  11.357   5.746
  282POPC   C1B 3874   6.398   0.261   4.860
  282POPC   C2B 3875   6.510   0.479   5.213
  282POPC   C3B 3876   6.337   0.483   5.567
  282POPC   C4B 3877   6.568   0.321   5.792
  283POPC   NC3 3878   7.968  10.553   3.900
  283POPC   PO4 3879   8.488  10.017   3.913
  283POPC   GL1 3880   8.407  10.290   4.279
  283POPC   GL2 3881   8.085  10.325   4.326
  283POPC   C1A 3882   8.417  10.308   4.740
  283POPC   D2A 3883   8.409   9.946   5.065
  283POPC   C3A 3884   8.191  10.071   5.481
  283POPC   C4A 3885   8.120  10.208   5.929
  283POPC   C1B 3886   7.993  10.609   4.611
  283POPC   C2B 3887   7.998  10.745   5.027
  283POPC   C3B 3888   8.143  10.600   5.454
  283POPC   C4B 3889   7.940  10.686   5.861
  284POPC   NC3 3890   2.521   5.912   3.786
  284POPC   PO4 3891   3.199   5.951   3.683
  284POPC   GL1 3892   2.948   5.925   4.126
  284POPC   GL2 3893   2.605   5.823   4.289
  284POPC   C1A 3894   2.874   6.128   4.586
  284POPC   D2A 3895   2.723   6.145   5.055
  284POPC   C3A 3896   2.877   6.005   5.487
  284POPC   C4A 3897   2.775   6.092   5.939
  284POPC   C1B 3898   2.564   5.732   4.760
  284POPC   C2B 3899   2.617   5.653   5.224
  284POPC   C3B 3900   2.640   5.559   5.671
  284POPC   C4B 3901   2.443   5.722   6.059
  285POPC   NC3 3902   1.882   5.943   3.845
  285POPC   PO4 3903   2.338   5.531   3.973
  285POPC   GL1 3904   2.072   5.619   4.296
  285POPC   GL2 3905   1.997   5.921   4.352
  285POPC   C1A 3906   1.805   5.453   4.608
  285POPC   D2A 3907   1.645   5.469   5.015
  285POPC   C3A 3908   1.777   5.746   5.350
  285POPC   C4A 3909   1.648   5.656   5.788
  285POPC   C1B 3910   2.047   5.871   4.787
  285POPC   C2B 3911   2.226   6.025   5.156
  285POPC   C3B 3912   2.349   5.969   5.565
  285POPC   C4B 3913   2.042   5.945   5.873
  286POPC   NC3 3914   7.254   9.949   4.255
  286POPC   PO4 3915   7.176  10.507   3.883
  286POPC   GL1 3916   7.148  10.581   4.365
  286POPC   GL2 3917   7.168  10.269   4.615
  286POPC   C1A 3918   7.080  10.701   4.820
  286POPC   D2A 3919   7.216  10.400   5.183
  286POPC   C3A 3920   7.166  10.516   5.627
  286POPC   C4A 3921   7.119  10.664   6.116
  286POPC   C1B 3922   7.558  10.378   4.787
  286POPC   C2B 3923   7.763  10.308   5.178
  286POPC   C3B 3924   7.700  10.310   5.601
  286POPC   C4B 3925   7.507  10.386   5.968
  287POPC   NC3 3926   2.044   5.163   4.079
  287POPC   PO4 3927   2.318   4.628   3.922
  287POPC   GL1 3928   2.105   4.588   4.362
  287POPC   GL2 3929   2.158   4.890   4.513
  287POPC   C1A 3930   1.735   4.626   4.723
  287POPC   D2A 3931   1.523   4.940   5.015
  287POPC   C3A 3932   1.712   4.862   5.428
  287POPC   C4A 3933   1.976   4.599   5.751
  287POPC   C1B 3934   2.271   5.296   4.725
  287POPC   C2B 3935   2.156   5.501   5.119
  287POPC   C3B 3936   2.147   5.489   5.582
  287POPC   C4B 3937   2.040   5.109   5.748
  288POPC   NC3 3938   0.334   4.422   3.876
  288POPC   PO4 3939   0.432   3.825   3.967
  288POPC   GL1 3940   0.448   4.129   4.308
  288POPC   GL2 3941   0.736   4.323   4.331
  288POPC   C1A 3942   0.624   4.060   4.743
  288POPC   D2A 3943   0.427   3.965   5.113
  288POPC   C3A 3944   0.475   4.132   5.531
  288POPC   C4A 3945   0.273   4.516   5.658
  288POPC   C1B 3946   0.695   4.563   4.711
  288POPC   C2B 3947   0.769   4.388   5.123
  288POPC   C3B 3948   0.792   4.545   5.528
  288POPC   C4B 3949   0.701   4.468   5.959
  289POPC   NC3 3950   1.956   8.604   3.664
  289POPC   PO4 3951   2.214   9.183   3.747
  289POPC   GL1 3952   2.038   9.167   4.225
  289POPC   GL2 3953   2.012   8.799   4.317
  289POPC   C1A 3954   2.138   9.181   4.688
  289POPC   D2A 3955   1.899   9.123   5.101
  289POPC   C3A 3956   2.118   9.195   5.494
  289POPC   C4A 3957   2.231   8.871   5.760
  289POPC   C1B 3958   1.760   8.823   4.706
  289POPC   C2B 3959   1.584   8.650   5.077
  289POPC   C3B 3960   1.750   8.643   5.494
  289POPC   C4B 3961   1.661   9.025   5.677
  290POPC   NC3 3962   0.646   1.125   3.694
  290POPC   PO4 3963   0.160   1.510   3.965
  290POPC   GL1 3964   0.295   1.409   4.339
  290POPC   GL2 3965   0.570   1.197   4.225
  290POPC   C1A 3966   0.118   1.438   4.769
  290POPC   D2A 3967  11.446   1.663   5.127
  290POPC   C3A 3968   0.050   1.493   5.509
  290POPC   C4A 3969   0.401   1.477   5.790
  290POPC   C1B 3970   0.355   0.995   4.603
  290POPC   C2B 3971   0.279   0.942   5.049
  290POPC   C3B 3972   0.479   1.133   5.407
  290POPC   C4B 3973   0.747   1.101   5.762
  291POPC   NC3 3974   8.315   0.567   3.787
  291POPC   PO4 3975   8.080  11.481   3.953
  291POPC   GL1 3976   8.125   0.412   4.226
  291POPC   GL2 3977   7.875   0.667   4.388
  291POPC   C1A 3978   8.346   0.607   4.601
  291POPC   D2A 3979   8.348   0.444   5.054
  291POPC   C3A 3980   8.372   0.701   5.474
  291POPC   C4A 3981   8.240   0.646   5.938
  291POPC   C1B 3982   7.912   0.289   4.721
  291POPC   C2B 3983   7.928   0.146   5.202
  291POPC   C3B 3984   7.957   0.265   5.673
  291POPC   C4B 3985   7.822   0.177   6.144
  292POPC   NC3 3986   8.911   1.932   3.739
  292POPC   PO4 3987   9.236   1.519   4.133
  292POPC   GL1 3988   8.752   1.667   4.295
  292POPC   GL2 3989   8.662   2.014   4.166
  292POPC   C1A 3990   8.501   1.635   4.719
  292POPC   D2A 3991   8.618   1.825   5.145
  292POPC   C3A 3992   8.599   1.660   5.584
  292POPC   C4A 3993   8.653   1.638   6.045
  292POPC   C1B 3994   8.662   2.104   4.613
  292POPC   C2B 3995   8.584   2.318   5.017
  292POPC   C3B 3996   8.688   2.232   5.477
  292POPC   C4B 3997   9.121   2.110   5.640
  293POPC   NC3 3998   9.723  10.292   3.937
  293POPC   PO4 3999   9.096  10.137   4.046
  293POPC   GL1 4000   9.405  10.164   4.351
  293POPC   GL2 4001   9.666  10.394   4.416
  293POPC   C1A 4002   9.560  10.040   4.754
  293POPC   D2A 4003   9.448   9.853   5.120
  293POPC   C3A 4004   9.319  10.041   5.482
  293POPC   C4A 4005   9.705   9.912   5.681
  293POPC   C1B 4006   9.800  10.506   4.816
  293POPC   C2B 4007   9.515  10.441   5.160
  293POPC   C3B 4008   9.621  10.434   5.566
  293POPC   C4B 4009   9.947  10.692   5.671
  294POPC   NC3 4010   2.585   1.070   3.898
  294POPC   PO4 4011   1.953   0.792   3.917
  294POPC   GL1 4012   1.963   1.031   4.292
  294POPC   GL2 4013   1.978   1.398   4.283
  294POPC   C1A 4014   1.944   0.960   4.710
  294POPC   D2A 4015   1.864   1.024   5.120
  294POPC   C3A 4016   2.169   1.038   5.441
  294POPC   C4A 4017   2.110   1.057   5.861
  294POPC   C1B 4018   1.876   1.462   4.749
  294POPC   C2B 4019   2.106   1.597   5.142
  294POPC   C3B 4020   2.148   1.521   5.588
  294POPC   C4B 4021   1.784   1.431   5.838
  295POPC   NC3 4022   3.592   1.953   3.732
  295POPC   PO4 4023   3.903   2.500   3.918
  295POPC   GL1 4024   3.689   2.201   4.198
  295POPC   GL2 4025   3.482   1.907   4.230
  295POPC   C1A 4026   3.583   2.214   4.649
  295POPC   D2A 4027   3.588   1.898   4.972
  295POPC   C3A 4028   3.533   2.020   5.378
  295POPC   C4A 4029   3.741   2.003   5.761
  295POPC   C1B 4030   3.225   1.843   4.606
  295POPC   C2B 4031   3.059   1.810   5.019
  295POPC   C3B 4032   3.090   1.750   5.452
  295POPC   C4B 4033   3.233   1.964   5.800
  296POPC   NC3 4034   1.191   5.785   3.859
  296POPC   PO4 4035   1.751   5.448   3.851
  296POPC   GL1 4036   1.536   5.719   4.240
  296POPC   GL2 4037   1.167   5.828   4.360
  296POPC   C1A 4038   1.532   5.875   4.704
  296POPC   D2A 4039   1.295   5.869   5.121
  296POPC   C3A 4040   1.414   6.027   5.538
  296POPC   C4A 4041   1.336   6.070   5.999
  296POPC   C1B 4042   0.949   5.754   4.742
  296POPC   C2B 4043   0.780   5.783   5.147
  296POPC   C3B 4044   0.936   5.780   5.547
  296POPC   C4B 4045   1.138   5.601   5.898
  297POPC   NC3 4046   0.236   9.659   4.143
  297POPC   PO4 4047   0.817   9.803   3.763
  297POPC   GL1 4048   0.829   9.719   4.219
  297POPC   GL2 4049   0.724   9.396   4.356
  297POPC   C1A 4050   0.847   9.912   4.652
  297POPC   D2A 4051   0.610   9.979   5.019
  297POPC   C3A 4052   0.806   9.913   5.402
  297POPC   C4A 4053   0.724  10.058   5.805
  297POPC   C1B 4054   0.489   9.513   4.770
  297POPC   C2B 4055   0.300   9.621   5.201
  297POPC   C3B 4056   0.378   9.695   5.654
  297POPC   C4B 4057   0.444   9.512   6.064
  298POPC   NC3 4058   0.135   2.786   3.898
  298POPC   PO4 4059   0.675   2.242   4.003
  298POPC   GL1 4060   0.640   2.653   4.252
  298POPC   GL2 4061   0.328   2.865   4.350
  298POPC   C1A 4062   0.656   2.730   4.698
  298POPC   D2A 4063   0.612   2.971   5.053
  298POPC   C3A 4064   0.606   2.747   5.442
  298POPC   C4A 4065   0.552   2.743   5.887
  298POPC   C1B 4066   0.093   2.884   4.725
  298POPC   C2B 4067   0.120   2.924   5.175
  298POPC   C3B 4068   0.123   2.782   5.577
  298POPC   C4B 4069   0.117   2.376   5.719
  299POPC   NC3 4070   7.336   2.358   3.857
  299POPC   PO4 4071   7.665   2.792   4.098
  299POPC   GL1 4072   7.441   2.668   4.446
  299POPC   GL2 4073   7.143   2.467   4.327
  299POPC   C1A 4074   7.480   2.759   4.894
  299POPC   D2A 4075   7.645   2.636   5.288
  299POPC   C3A 4076   7.409   2.740   5.646
  299POPC   C4A 4077   7.144   3.108   5.781
  299POPC   C1B 4078   7.135   2.391   4.784
  299POPC   C2B 4079   7.128   2.537   5.219
  299POPC   C3B 4080   6.902   2.711   5.566
  299POPC   C4B 4081   7.003   2.641   5.996
  300POPC   NC3 4082   1.352  10.277   3.974
  300POPC   PO4 4083   0.766  10.535   3.696
  300POPC   GL1 4084   0.895  10.572   4.157
  300POPC   GL2 4085   0.927  10.232   4.265
  300POPC   C1A 4086   0.841  10.553   4.665
  300POPC   D2A 4087   0.987  10.320   5.087
  300POPC   C3A 4088   1.004  10.430   5.572
  300POPC   C4A 4089   1.127  10.592   6.038
  300POPC   C1B 4090   1.265  10.288   4.616
  300POPC   C2B 4091   1.515  10.372   4.991
  300POPC   C3B 4092   1.508  10.543   5.400
  300POPC   C4B 4093   1.482  10.360   5.797
  301POPC   NC3 4094   8.847   1.409   3.875
  301POPC   PO4 4095   8.744   0.715   3.800
  301POPC   GL1 4096   8.757   0.771   4.268
  301POPC   GL2 4097   8.887   1.098   4.267
  301POPC   C1A 4098   8.879   0.854   4.723
  301POPC   D2A 4099   9.166   1.000   5.037
  301POPC   C3A 4100   8.969   1.060   5.464
  301POPC   C4A 4101   9.115   1.104   5.895
  301POPC   C1B 4102   8.913   1.341   4.644
  301POPC   C2B 4103   8.840   1.381   5.036
  301POPC   C3B 4104   9.077   1.577   5.329
  301POPC   C4B 4105   9.101   1.609   5.754
  302POPC   NC3 4106   0.056   1.008   3.996
  302POPC   PO4 4107  10.934   0.822   3.964
  302POPC   GL1 4108  11.157   1.052   4.325
  302POPC   GL2 4109  11.273   1.416   4.354
  302POPC   C1A 4110  11.341   0.978   4.738
  302POPC   D2A 4111  11.186   0.887   5.171
  302POPC   C3A 4112  11.483   0.978   5.493
  302POPC   C4A 4113  11.471   0.890   5.925
  302POPC   C1B 4114  11.080   1.478   4.790
  302POPC   C2B 4115  11.036   1.367   5.242
  302POPC   C3B 4116  11.051   1.195   5.657
  302POPC   C4B 4117  10.891   1.416   6.049
  303POPC   NC3 4118   2.097   8.117   4.005
  303POPC   PO4 4119   1.523   7.835   3.840
  303POPC   GL1 4120   1.744   7.893   4.271
  303POPC   GL2 4121   1.857   8.275   4.415
  303POPC   C1A 4122   1.932   7.864   4.673
  303POPC   D2A 4123   1.738   7.915   5.041
  303POPC   C3A 4124   1.854   7.975   5.414
  303POPC   C4A 4125   1.715   7.591   5.674
  303POPC   C1B 4126   1.925   8.354   4.830
  303POPC   C2B 4127   2.126   8.618   5.133
  303POPC   C3B 4128   2.223   8.405   5.515
  303POPC   C4B 4129   1.975   8.208   5.841
  304POPC   NC3 4130   0.616   5.531   3.485
  304POPC   PO4 4131   0.766   5.772   4.051
  304POPC   GL1 4132   0.594   5.685   4.389
  304POPC   GL2 4133   0.295   5.875   4.332
  304POPC   C1A 4134   0.349   5.504   4.702
  304POPC   D2A 4135   0.188   5.560   5.102
  304POPC   C3A 4136   0.421   5.557   5.473
  304POPC   C4A 4137   0.446   5.720   5.874
  304POPC   C1B 4138   0.487   6.015   4.744
  304POPC   C2B 4139   0.356   6.051   5.128
  304POPC   C3B 4140   0.498   6.094   5.523
  304POPC   C4B 4141   0.164   6.121   5.805
  305POPC   NC3 4142  10.380   6.431   3.839
  305POPC   PO4 4143  10.056   6.905   4.137
  305POPC   GL1 4144  10.297   6.552   4.328
  305POPC   GL2 4145  10.667   6.527   4.387
  305POPC   C1A 4146  10.307   6.342   4.716
  305POPC   D2A 4147  10.135   6.469   5.102
  305POPC   C3A 4148  10.228   6.354   5.512
  305POPC   C4A 4149  10.321   6.597   5.846
  305POPC   C1B 4150  10.708   6.626   4.818
  305POPC   C2B 4151  10.650   6.521   5.254
  305POPC   C3B 4152  10.780   6.651   5.675
  305POPC   C4B 4153  10.723   6.579   6.150
  306POPC   NC3 4154   9.243  10.934   3.901
  306POPC   PO4 4155   9.959  10.696   3.996
  306POPC   GL1 4156   9.611  10.863   4.260
  306POPC   GL2 4157   9.641  11.203   4.286
  306POPC   C1A 4158   9.451  10.829   4.718
  306POPC   D2A 4159   9.621  10.983   5.149
  306POPC   C3A 4160   9.481  10.915   5.593
  306POPC   C4A 4161   9.408  10.691   6.001
  306POPC   C1B 4162   9.650  11.302   4.720
  306POPC   C2B 4163   9.502  11.492   5.094
  306POPC   C3B 4164   9.666  11.389   5.500
  306POPC   C4B 4165  10.056  11.168   5.634
  307POPC   NC3 4166   7.364   9.060   3.811
  307POPC   PO4 4167   7.599   8.488   3.936
  307POPC   GL1 4168   7.535   8.845   4.261
  307POPC   GL2 4169   7.197   8.941   4.334
  307POPC   C1A 4170   7.555   9.077   4.708
  307POPC   D2A 4171   7.484   8.932   5.134
  307POPC   C3A 4172   7.745   8.943   5.478
  307POPC   C4A 4173   7.768   8.876   5.887
  307POPC   C1B 4174   7.060   8.987   4.794
  307POPC   C2B 4175   7.080   9.209   5.220
  307POPC   C3B 4176   7.129   8.940   5.591
  307POPC   C4B 4177   6.941   8.784   6.006
  308POPC   NC3 4178   9.642   4.986   3.946
  308POPC   PO4 4179   9.121   4.568   4.054
  308POPC   GL1 4180   9.396   4.644   4.408
  308POPC   GL2 4181   9.580   4.972   4.440
  308POPC   C1A 4182   9.453   4.710   4.861
  308POPC   D2A 4183   9.447   4.953   5.239
  308POPC   C3A 4184   9.473   4.725   5.638
  308POPC   C4A 4185   9.134   4.773   5.961
  308POPC   C1B 4186   9.896   4.977   4.760
  308POPC   C2B 4187   9.893   5.194   5.148
  308POPC   C3B 4188   9.748   5.184   5.598
  308POPC   C4B 4189   9.917   5.279   6.017
  309POPC   NC3 4190  11.118   9.442   3.833
  309POPC   PO4 4191   0.136   9.221   4.051
  309POPC   GL1 4192  11.305   9.509   4.311
  309POPC   GL2 4193  10.932   9.445   4.306
  309POPC   C1A 4194  11.450   9.613   4.759
  309POPC   D2A 4195  11.243   9.643   5.148
  309POPC   C3A 4196  11.392   9.568   5.550
  309POPC   C4A 4197  11.499   9.202   5.797
  309POPC   C1B 4198  10.925   9.591   4.718
  309POPC   C2B 4199  10.736   9.548   5.104
  309POPC   C3B 4200  10.863   9.611   5.507
  309POPC   C4B 4201  10.995   9.693   5.923
  310POPC   NC3 4202   9.712   3.323   3.671
  310POPC   PO4 4203   9.731   3.890   4.009
  310POPC   GL1 4204   9.675   3.626   4.359
  310POPC   GL2 4205   9.614   3.249   4.407
  310POPC   C1A 4206   9.689   3.760   4.784
  310POPC   D2A 4207   9.851   3.994   5.123
  310POPC   C3A 4208   9.898   3.769   5.513
  310POPC   C4A 4209   9.772   3.696   5.940
  310POPC   C1B 4210   9.718   3.249   4.832
  310POPC   C2B 4211   9.581   3.474   5.202
  310POPC   C3B 4212   9.529   3.381   5.645
  310POPC   C4B 4213   9.734   3.163   6.000
  311POPC   NC3 4214   3.169   0.286   3.688
  311POPC   PO4 4215   3.714   0.215   3.942
  311POPC   GL1 4216   3.460   0.399   4.311
  311POPC   GL2 4217   3.673   0.683   4.400
  311POPC   C1A 4218   3.282   0.412   4.755
  311POPC   D2A 4219   3.022   0.465   5.163
  311POPC   C3A 4220   3.251   0.354   5.537
  311POPC   C4A 4221   3.622   0.063   5.579
  311POPC   C1B 4222   3.777   0.534   4.811
  311POPC   C2B 4223   3.650   0.458   5.227
  311POPC   C3B 4224   3.740   0.566   5.673
  311POPC   C4B 4225   3.780   0.736   6.122
  312POPC   NC3 4226   4.402  10.850   3.901
  312POPC   PO4 4227   4.246  10.124   3.816
  312POPC   GL1 4228   4.180  10.355   4.179
  312POPC   GL2 4229   4.521  10.457   4.203
  312POPC   C1A 4230   4.125  10.248   4.639
  312POPC   D2A 4231   3.965  10.250   5.082
  312POPC   C3A 4232   4.265  10.179   5.431
  312POPC   C4A 4233   4.209  10.059   5.896
  312POPC   C1B 4234   4.388  10.689   4.571
  312POPC   C2B 4235   4.349  10.586   5.004
  312POPC   C3B 4236   4.325  10.708   5.427
  312POPC   C4B 4237   4.321  10.528   5.806
  313POPC   NC3 4238  11.487   1.876   3.724
  313POPC   PO4 4239  10.852   2.005   3.786
  313POPC   GL1 4240  10.998   2.104   4.234
  313POPC   GL2 4241  11.344   2.013   4.218
  313POPC   C1A 4242  10.861   2.060   4.706
  313POPC   D2A 4243  10.899   1.860   5.134
  313POPC   C3A 4244  10.760   2.072   5.526
  313POPC   C4A 4245  10.971   2.242   5.880
  313POPC   C1B 4246  11.367   1.928   4.667
  313POPC   C2B 4247  11.333   2.152   5.067
  313POPC   C3B 4248  11.271   2.039   5.486
  313POPC   C4B 4249  11.083   1.699   5.665
  314POPC   NC3 4250  11.158   5.060   3.879
  314POPC   PO4 4251   0.128   5.516   3.948
  314POPC   GL1 4252   0.001   5.113   4.259
  314POPC   GL2 4253  11.119   5.141   4.374
  314POPC   C1A 4254  11.423   4.861   4.670
  314POPC   D2A 4255   0.062   5.051   5.081
  314POPC   C3A 4256  11.445   4.873   5.472
  314POPC   C4A 4257  11.458   4.983   5.917
  314POPC   C1B 4258  11.338   5.376   4.723
  314POPC   C2B 4259  11.203   5.433   5.175
  314POPC   C3B 4260  11.158   5.289   5.626
  314POPC   C4B 4261  10.909   5.073   5.954
  315POPC   NC3 4262  11.088  10.397   3.953
  315POPC   PO4 4263   0.070  10.853   3.741
  315POPC   GL1 4264  11.429  10.728   4.226
  315POPC   GL2 4265  11.381  10.405   4.393
  315POPC   C1A 4266  11.358  10.828   4.715
  315POPC   D2A 4267  11.281  10.941   5.177
  315POPC   C3A 4268   0.009  10.646   5.513
  315POPC   C4A 4269  11.372  10.516   5.930
  315POPC   C1B 4270  11.177  10.058   4.648
  315POPC   C2B 4271  10.925  10.027   5.047
  315POPC   C3B 4272  11.104  10.052   5.487
  315POPC   C4B 4273  11.471  10.041   5.760
  316POPC   NC3 4274   6.332  10.362   3.934
  316POPC   PO4 4275   6.869   9.932   4.009
  316POPC   GL1 4276   6.727  10.246   4.341
  316POPC   GL2 4277   6.451  10.519   4.385
  316POPC   C1A 4278   6.708  10.354   4.793
  316POPC   D2A 4279   6.708  10.578   5.179
  316POPC   C3A 4280   6.689  10.333   5.526
  316POPC   C4A 4281   6.723  10.425   5.942
  316POPC   C1B 4282   6.229  10.497   4.763
  316POPC   C2B 4283   6.224  10.296   5.136
  316POPC   C3B 4284   6.180  10.453   5.541
  316POPC   C4B 4285   6.304  10.161   5.837
  317POPC   NC3 4286   5.722   9.943   3.897
  317POPC   PO4 4287   5.586   9.276   4.067
  317POPC   GL1 4288   5.784   9.619   4.287
  317POPC   GL2 4289   5.606   9.891   4.396
  317POPC   C1A 4290   5.985   9.679   4.679
  317POPC   D2A 4291   5.888   9.766   5.106
  317POPC   C3A 4292   5.876   9.389   5.368
  317POPC   C4A 4293   5.655   9.195   5.746
  317POPC   C1B 4294   5.455   9.821   4.811
  317POPC   C2B 4295   5.402   9.866   5.248
  317POPC   C3B 4296   5.494   9.662   5.605
  317POPC   C4B 4297   5.884   9.668   5.781
  318POPC   NC3 4298   2.636   3.458   3.946
  318POPC   PO4 4299   2.585   4.056   3.915
  318POPC   GL1 4300   2.567   3.730   4.372
  318POPC   GL2 4301   2.735   3.364   4.415
  318POPC   C1A 4302   2.408   3.504   4.760
  318POPC   D2A 4303   2.324   3.691   5.116
  318POPC   C3A 4304   2.474   3.534   5.472
  318POPC   C4A 4305   2.592   3.496   5.915
  318POPC   C1B 4306   2.906   3.568   4.774
  318POPC   C2B 4307   3.022   3.374   5.165
  318POPC   C3B 4308   2.957   3.290   5.605
  318POPC   C4B 4309   3.098   3.635   5.880
  319POPC   NC3 4310  11.026   2.430   3.817
  319POPC   PO4 4311  11.252   3.097   3.878
  319POPC   GL1 4312  11.315   2.954   4.263
  319POPC   GL2 4313  11.278   2.610   4.219
  319POPC   C1A 4314  11.068   2.928   4.600
  319POPC   D2A 4315  10.739   3.076   4.869
  319POPC   C3A 4316  10.870   2.943   5.257
  319POPC   C4A 4317  10.976   3.077   5.659
  319POPC   C1B 4318  11.226   2.430   4.594
  319POPC   C2B 4319  11.216   2.641   4.993
  319POPC   C3B 4320  11.208   2.543   5.415
  319POPC   C4B 4321  11.206   2.676   5.832
  320POPC   NC3 4322   9.354   4.167   4.006
  320POPC   PO4 4323   9.940   4.567   3.880
  320POPC   GL1 4324   9.894   4.563   4.326
  320POPC   GL2 4325   9.741   4.239   4.374
  320POPC   C1A 4326   9.929   4.463   4.797
  320POPC   D2A 4327   9.856   4.647   5.200
  320POPC   C3A 4328   9.812   4.352   5.496
  320POPC   C4A 4329   9.665   4.273   5.849
  320POPC   C1B 4330   9.490   4.215   4.739
  320POPC   C2B 4331   9.436   4.294   5.173
  320POPC   C3B 4332   9.412   3.985   5.507
  320POPC   C4B 4333   9.317   3.910   5.947
  321POPC   NC3 4334   7.266  10.053   3.761
  321POPC   PO4 4335   7.077   9.402   3.868
  321POPC   GL1 4336   7.120   9.454   4.320
  321POPC   GL2 4337   7.481   9.404   4.312
  321POPC   C1A 4338   7.210   9.472   4.799
  321POPC   D2A 4339   7.584   9.417   5.135
  321POPC   C3A 4340   7.453   9.353   5.563
  321POPC   C4A 4341   7.025   9.434   5.696
  321POPC   C1B 4342   7.664   9.619   4.680
  321POPC   C2B 4343   7.443   9.902   4.970
  321POPC   C3B 4344   7.232   9.752   5.325
  321POPC   C4B 4345   7.212  10.004   5.693
  322POPC   NC3 4346  10.332  10.383   3.949
  322POPC   PO4 4347  10.902  10.613   4.318
  322POPC   GL1 4348  10.513  10.458   4.473
  322POPC   GL2 4349  10.172  10.524   4.422
  322POPC   C1A 4350  10.383  10.409   4.910
  322POPC   D2A 4351  10.535  10.252   5.302
  322POPC   C3A 4352  10.814  10.471   5.597
  322POPC   C4A 4353  11.046  10.833   5.628
  322POPC   C1B 4354  10.068  10.124   4.629
  322POPC   C2B 4355   9.936  10.116   5.100
  322POPC   C3B 4356  10.080  10.205   5.512
  322POPC   C4B 4357  10.355  10.401   5.803
  323POPC   NC3 4358   2.358  10.177   4.074
  323POPC   PO4 4359   1.733  10.009   3.989
  323POPC   GL1 4360   1.861  10.347   4.199
  323POPC   GL2 4361   2.025  10.154   4.448
  323POPC   C1A 4362   1.766  10.585   4.580
  323POPC   D2A 4363   1.963  10.696   4.969
  323POPC   C3A 4364   2.037  10.468   5.343
  323POPC   C4A 4365   1.933  10.621   5.737
  323POPC   C1B 4366   1.996  10.183   4.874
  323POPC   C2B 4367   1.773   9.940   5.151
  323POPC   C3B 4368   1.801  10.075   5.548
  323POPC   C4B 4369   2.163  10.175   5.834
  324POPC   NC3 4370   2.662   9.313   3.672
  324POPC   PO4 4371   2.634   9.990   3.766
  324POPC   GL1 4372   2.657   9.918   4.356
  324POPC   GL2 4373   2.928   9.678   4.466
  324POPC   C1A 4374   2.590   9.803   4.822
  324POPC   D2A 4375   2.748   9.480   5.127
  324POPC   C3A 4376   2.541   9.534   5.516
  324POPC   C4A 4377   2.531   9.824   5.839
  324POPC   C1B 4378   3.149   9.906   4.798
  324POPC   C2B 4379   3.022   9.924   5.240
  324POPC   C3B 4380   2.990   9.741   5.653
  324POPC   C4B 4381   2.986   9.863   6.109
  325POPC   NC3 4382  10.268   8.660   3.867
  325POPC   PO4 4383  10.674   9.252   3.780
  325POPC   GL1 4384  10.655   9.029   4.170
  325POPC   GL2 4385  10.355   8.902   4.289
  325POPC   C1A 4386  10.792   8.867   4.580
  325POPC   D2A 4387  10.826   8.583   4.944
  325POPC   C3A 4388  10.795   8.795   5.313
  325POPC   C4A 4389  10.598   8.802   5.671
  325POPC   C1B 4390  10.283   8.981   4.709
  325POPC   C2B 4391  10.306   8.822   5.134
  325POPC   C3B 4392  10.072   8.961   5.484
  325POPC   C4B 4393  10.225   9.078   5.867
  326POPC   NC3 4394  10.109   4.104   3.878
  326POPC   PO4 4395  10.642   4.502   3.847
  326POPC   GL1 4396  10.570   4.184   4.156
  326POPC   GL2 4397  10.266   4.204   4.341
  326POPC   C1A 4398  10.707   4.052   4.584
  326POPC   D2A 4399  10.932   4.130   4.973
  326POPC   C3A 4400  10.756   4.043   5.373
  326POPC   C4A 4401  10.698   4.280   5.733
  326POPC   C1B 4402  10.190   4.012   4.718
  326POPC   C2B 4403  10.329   4.223   5.081
  326POPC   C3B 4404  10.301   4.420   5.468
  326POPC   C4B 4405  10.164   4.128   5.797
  327POPC   NC3 4406   2.490   9.031   4.105
  327POPC   PO4 4407   3.076   9.097   3.750
  327POPC   GL1 4408   2.978   8.965   4.240
  327POPC   GL2 4409   2.796   8.639   4.247
  327POPC   C1A 4410   2.724   9.062   4.704
  327POPC   D2A 4411   2.434   9.056   5.105
  327POPC   C3A 4412   2.663   9.058   5.513
  327POPC   C4A 4413   3.061   9.234   5.633
  327POPC   C1B 4414   2.949   8.599   4.695
  327POPC   C2B 4415   2.807   8.698   5.135
  327POPC   C3B 4416   2.714   8.570   5.581
  327POPC   C4B 4417   3.074   8.732   5.805
  328POPC   NC3 4418   0.667   2.609   3.723
  328POPC   PO4 4419   1.326   2.554   3.959
  328POPC   GL1 4420   1.106   2.440   4.354
  328POPC   GL2 4421   1.458   2.351   4.467
  328POPC   C1A 4422   1.048   2.402   4.799
  328POPC   D2A 4423   1.090   2.801   5.000
  328POPC   C3A 4424   1.053   2.971   5.374
  328POPC   C4A 4425   1.038   2.736   5.735
  328POPC   C1B 4426   1.392   2.798   4.577
  328POPC   C2B 4427   1.496   3.073   4.877
  328POPC   C3B 4428   1.574   3.077   5.305
  328POPC   C4B 4429   1.407   3.125   5.712
  329POPC   NC3 4430   5.361   2.233   3.986
  329POPC   PO4 4431   5.997   1.959   3.964
  329POPC   GL1 4432   5.908   1.780   4.351
  329POPC   GL2 4433   5.588   1.935   4.369
  329POPC   C1A 4434   5.811   1.673   4.789
  329POPC   D2A 4435   5.895   1.920   5.134
  329POPC   C3A 4436   6.070   1.795   5.517
  329POPC   C4A 4437   6.095   2.182   5.746
  329POPC   C1B 4438   5.341   1.880   4.761
  329POPC   C2B 4439   5.407   1.822   5.209
  329POPC   C3B 4440   5.585   1.935   5.605
  329POPC   C4B 4441   5.715   1.657   5.923
  330POPC   NC3 4442  10.265   9.337   4.039
  330POPC   PO4 4443  10.027   9.912   3.787
  330POPC   GL1 4444  10.216   9.806   4.242
  330POPC   GL2 4445  10.571   9.779   4.160
  330POPC   C1A 4446  10.392   9.508   4.639
  330POPC   D2A 4447  10.263   9.346   5.076
  330POPC   C3A 4448  10.496   9.263   5.462
  330POPC   C4A 4449  10.502   9.503   5.871
  330POPC   C1B 4450  10.587   9.974   4.599
  330POPC   C2B 4451  10.361   9.874   4.990
  330POPC   C3B 4452  10.369   9.775   5.423
  330POPC   C4B 4453  10.627   9.991   5.722
  331POPC   NC3 4454   2.667  10.366   3.530
  331POPC   PO4 4455   3.156  10.322   3.989
  331POPC   GL1 4456   3.049  10.244   4.398
  331POPC   GL2 4457   2.761  10.442   4.337
  331POPC   C1A 4458   2.967  10.417   4.814
  331POPC   D2A 4459   2.944  10.436   5.237
  331POPC   C3A 4460   2.663  10.210   5.491
  331POPC   C4A 4461   2.865  10.263   5.845
  331POPC   C1B 4462   2.492  10.289   4.673
  331POPC   C2B 4463   2.449  10.396   5.060
  331POPC   C3B 4464   2.529  10.727   5.342
  331POPC   C4B 4465   2.505  10.635   5.769
  332POPC   NC3 4466   8.784   8.208   3.885
  332POPC   PO4 4467   9.229   7.822   3.678
  332POPC   GL1 4468   9.105   7.947   4.195
  332POPC   GL2 4469   9.079   8.310   4.309
  332POPC   C1A 4470   9.307   7.953   4.643
  332POPC   D2A 4471   9.191   7.884   5.101
  332POPC   C3A 4472   9.022   7.933   5.526
  332POPC   C4A 4473   9.183   7.730   5.873
  332POPC   C1B 4474   8.851   8.150   4.712
  332POPC   C2B 4475   8.693   8.056   5.155
  332POPC   C3B 4476   8.552   8.177   5.613
  332POPC   C4B 4477   8.474   8.319   6.074
  333POPC   NC3 4478   2.753   4.471   3.946
  333POPC   PO4 4479   3.190   4.759   4.290
  333POPC   GL1 4480   2.676   4.658   4.402
  333POPC   GL2 4481   2.514   4.278   4.380
  333POPC   C1A 4482   2.503   4.560   4.804
  333POPC   D2A 4483   2.756   4.384   5.155
  333POPC   C3A 4484   2.601   4.485   5.570
  333POPC   C4A 4485   2.668   4.734   5.951
  333POPC   C1B 4486   2.567   4.022   4.789
  333POPC   C2B 4487   2.779   3.869   5.196
  333POPC   C3B 4488   2.736   3.937   5.652
  333POPC   C4B 4489   2.861   4.223   5.962
  334POPC   NC3 4490   8.890   9.739   3.938
  334POPC   PO4 4491   8.423   9.396   4.229
  334POPC   GL1 4492   8.783   9.509   4.392
  334POPC   GL2 4493   8.789   9.873   4.397
  334POPC   C1A 4494   8.710   9.530   4.818
  334POPC   D2A 4495   8.758   9.482   5.221
  334POPC   C3A 4496   8.526   9.428   5.563
  334POPC   C4A 4497   8.801   9.449   5.899
  334POPC   C1B 4498   8.838  10.028   4.773
  334POPC   C2B 4499   8.951   9.929   5.141
  334POPC   C3B 4500   8.820   9.852   5.551
  334POPC   C4B 4501   8.983   9.917   5.936
  335POPC   NC3 4502   0.312   7.045   3.980
  335POPC   PO4 4503   0.026   7.625   3.814
  335POPC   GL1 4504   0.185   7.553   4.231
  335POPC   GL2 4505   0.532   7.475   4.262
  335POPC   C1A 4506   0.307   7.585   4.687
  335POPC   D2A 4507   0.320   7.340   5.051
  335POPC   C3A 4508   0.351   7.532   5.454
  335POPC   C4A 4509   0.197   7.350   5.850
  335POPC   C1B 4510   0.571   7.123   4.591
  335POPC   C2B 4511   0.644   6.928   5.008
  335POPC   C3B 4512   0.730   7.187   5.384
  335POPC   C4B 4513   0.711   7.396   5.814
  336POPC   NC3 4514   4.418   1.462   3.455
  336POPC   PO4 4515   4.495   1.475   4.092
  336POPC   GL1 4516   4.438   1.410   4.481
  336POPC   GL2 4517   4.286   1.089   4.460
  336POPC   C1A 4518   4.609   1.282   4.865
  336POPC   D2A 4519   4.472   0.988   5.196
  336POPC   C3A 4520   4.482   1.182   5.603
  336POPC   C4A 4521   4.437   1.425   5.987
  336POPC   C1B 4522   3.904   1.034   4.739
  336POPC   C2B 4523   3.826   0.965   5.197
  336POPC   C3B 4524   3.992   1.144   5.582
  336POPC   C4B 4525   3.936   1.253   6.013
  337POPC   NC3 4526   2.768   0.092   4.001
  337POPC   PO4 4527   2.940   0.709   3.780
  337POPC   GL1 4528   2.961   0.616   4.278
  337POPC   GL2 4529   2.912   0.264   4.453
  337POPC   C1A 4530   2.867   0.721   4.743
  337POPC   D2A 4531   2.636   0.797   5.164
  337POPC   C3A 4532   2.865   0.764   5.588
  337POPC   C4A 4533   2.791   0.560   6.013
  337POPC   C1B 4534   2.560   0.320   4.779
  337POPC   C2B 4535   2.495   0.313   5.242
  337POPC   C3B 4536   2.728   0.246   5.611
  337POPC   C4B 4537   2.588  11.489   5.957
  338W        W 4538   4.571   7.119   1.911
  339W        W 4539   5.151   6.010   0.005
  340W        W 4540   7.842   4.663  10.369
  341W        W 4541  10.027   0.228  10.590
  342W        W 4542   0.223   4.722   3.432
  343W        W 4543   7.480   3.855  10.484
  344W        W 4544  10.863   8.800  11.753
  345W        W 4545   8.567   3.208   8.918
  346W        W 4546   1.424   0.908   0.897
  347W        W 4547   1.260   6.501  10.839
  348W        W 4548   4.322   9.019   2.259
  349W        W 4549   7.698   6.478   2.724
  350W        W 4550  11.362   0.996   2.133
  351W        W 4551  10.023   2.852   3.674
  352W        W 4552   0.467  11.391   3.247
  353W        W 4553   2.249  10.423  10.442
  354W        W 4554  10.710   5.804  11.463
  355W        W 4555   3.825   7.623   0.899
  356W        W 4556  11.494   8.164  11.803
  357W        W 4557  11.106   7.995   2.203
  358W        W 4558   5.982   3.626   7.953
  359W        W 4559   5.990   4.096   3.953
  360W        W 4560   2.541   3.025   0.097
  361W        W 4561   9.173   5.287   2.912
  362W        W 4562   2.424  10.316   0.432
  363W        W 4563   2.592  10.888   3.488
  364W        W 4564   4.645   0.373   0.456
  365W        W 4565   6.224   0.365   2.800
  366W        W 4566   2.347   5.761   0.951
  367W        W 4567   9.324  11.131  10.312
  368W        W 4568   7.260   6.153  10.502
  369W        W 4569   5.809   6.832  11.503
  370W        W 4570  11.281  10.565  11.309
  371W        W 4571   2.182  10.914   3.183
  372W        W 4572   7.961   8.403   1.862
  373W        W 4573   7.008   4.745   1.426
  374W        W 4574   0.892   1.400  10.456
  375W        W 4575   5.656   0.499   0.012
  376W        W 4576  10.433   2.785   3.156
  377W        W 4577   2.679   8.790   3.712
  378W        W 4578   3.275   8.570   0.825
  379W        W 4579   5.244   2.427  10.770
  380W        W 4580   2.711   2.567   9.890
  381W        W 4581   2.649   4.731   3.392
  382W        W 4582   3.823   8.991   3.027
  383W        W 4583   6.097   0.480   9.272
  384W        W 4584   6.760   6.485   1.978
  385W        W 4585   5.834   4.135   8.157
  386W        W 4586   0.608   2.473  11.826
  387W        W 4587   1.757   5.373  10.382
  388W        W 4588   0.577   2.808   0.691
  389W        W 4589   3.241   1.512   0.036
  390W        W 4590   6.603   1.006   0.878
  391W        W 4591   6.061   7.406  10.283
  392W        W 4592   4.413   8.919   0.760
  393W        W 4593   2.653   4.133   9.787
  394W        W 4594   3.703   4.741  11.658
  395W        W 4595  10.783   6.742  11.090
  396W        W 4596   0.944  10.508   2.763
  397W        W 4597   9.586   0.320   1.961
  398W        W 4598   8.919   2.465  10.962
  399W        W 4599   9.192   8.943   3.021
  400W        W 4600   9.156  10.826   9.955
  401W        W 4601   8.993  11.295   1.686
  402W        W 4602   9.042   9.538   9.900
  403W        W 4603   5.219   9.238   1.304
  404W        W 4604   9.358  10.408  11.440
  405W        W 4605   7.679   5.228   0.735
  406W        W 4606   1.493   2.804   1.472
  407W        W 4607   3.864   4.655   2.737
  408W        W 4608   5.669  10.348  11.308
  409W        W 4609  10.477   3.268   9.044
  410W        W 4610   9.831  10.575  11.449
  411W        W 4611   4.251   1.765  10.588
  412W        W 4612   3.213   8.195   9.582
  413W        W 4613  10.509   4.639   1.469
  414W        W 4614   1.129   8.356   8.854
  415W        W 4615  11.361   4.365   0.558
  416W        W 4616  10.447   7.400   1.669
  417W        W 4617   6.574   7.584  11.460
  418W        W 4618   5.532   6.167   0.310
  419W        W 4619   4.202   2.820   0.449
  420W        W 4620   4.716   6.224   0.156
  421W        W 4621   8.042   9.988  10.877
  422W        W 4622   9.465  11.315   1.911
  423W        W 4623   4.326   0.183   9.753
  424W        W 4624   7.097   4.292   0.082
  425W        W 4625   9.151   7.304   3.447
  426W        W 4626   9.461   4.231  11.526
  427W        W 4627   5.421   3.560   9.125
  428W        W 4628  10.601   8.850   0.347
  429W        W 4629   5.573  11.202   2.189
  430W        W 4630   5.701   4.508   2.966
  431W        W 4631   5.089  11.452  10.600
  432W        W 4632   5.763   3.273  10.306
  433W        W 4633  10.938   8.065  11.097
  434W        W 4634   1.795   3.262   3.117
  435W        W 4635  11.221   0.391  10.809
  436W        W 4636   6.010  10.079  11.663
  437W        W 4637   3.620   5.172   8.108
  438W        W 4638   4.827   8.737   8.138
  439W        W 4639   2.260  10.248   9.895
  440W        W 4640   1.746   9.825   0.033
  441W        W 4641   6.973   2.670   1.618
  442W        W 4642  10.035   2.375  10.853
  443W        W 4643   0.348   0.402   9.013
  444W        W 4644   6.463   0.174  11.024
  445W        W 4645   6.485   3.825   9.846
  446W        W 4646   1.015   6.286   3.937
  447W        W 4647   9.296   9.383   8.955
  448W        W 4648   5.276   7.368   1.719
  449W        W 4649  10.240   7.663   0.841
  450W        W 4650   9.126   5.044  11.943
  451W        W 4651   4.990  10.518  10.643
  452W        W 4652   1.343   3.410  10.644
  453W        W 4653   2.692   4.032  11.959
  454W        W 4654   4.474   0.393   8.845
  455W        W 4655   4.742   3.129   2.764
  456W        W 4656   4.045   4.280  11.424
  457W        W 4657   2.629  10.312   0.910
  458W        W 4658  10.795   1.772  10.938
  459W        W 4659   6.967   9.733   3.495
  460W        W 4660  10.897   0.921   0.253
  461W        W 4661   9.848   1.246   9.801
  462W        W 4662   8.453   9.150   8.994
  463W        W 4663   2.466   5.360   1.669
  464W        W 4664   7.719   3.845   4.041
  465W        W 4665   1.071   6.605   8.371
  466W        W 4666   7.397   7.503  10.729
  467W        W 4667   2.156   6.529   3.288
  468W        W 4668   8.786   9.458   1.806
  469W        W 4669   9.516   0.580   9.807
  470W        W 4670   8.132   4.638  10.781
  471W        W 4671   2.113   2.303   0.234
  472W        W 4672  11.164   4.962  11.130
  473W        W 4673   8.378   5.586   0.336
  474W        W 4674   1.351   3.389  11.639
  475W        W 4675   2.344   3.739  10.010
  476W        W 4676   6.224   1.042   9.900
  477W        W 4677   6.595   6.945   2.197
  478W        W 4678  11.044  11.278   2.208
  479W        W 4679   3.510   6.177   1.746
  480W        W 4680   4.672   2.214  11.292
  481W        W 4681   9.550   0.296  11.362
  482W        W 4682   9.427   9.110  10.281
  483W        W 4683  10.441   8.677  11.452
  484W        W 4684   6.003   6.931   0.792
  485W        W 4685   2.522   8.188   9.119
  486W        W 4686   2.890  10.602   3.154
  487W        W 4687   5.754   3.658  11.374
  488W        W 4688   9.634   7.203   9.499
  489W        W 4689  10.569   7.025  11.901
  490W        W 4690   3.316   6.950  11.454
  491W        W 4691  11.302  11.134   0.069
  492W        W 4692   2.741   4.541   0.064
  493W        W 4693   6.563   4.073   9.383
  494W        W 4694   4.008   8.304   3.499
  495W        W 4695   1.251   9.936  10.751
  496W        W 4696   7.624  11.068   1.688
  497W        W 4697  10.007   3.752  11.621
  498W        W 4698  11.118   5.467  10.869
  499W        W 4699   7.215   3.989   2.466
  500W        W 4700   1.858   6.120  11.341
  501W        W 4701   9.756   9.033   0.892
  502W        W 4702   8.450   1.630  10.850
  503W        W 4703   9.638  11.222   2.767
  504W        W 4704   1.366   1.748   0.687
  505W        W 4705   4.300   9.150   1.233
  506W        W 4706   0.337   4.739  11.700
  507W        W 4707   0.586   4.220   0.722
  508W        W 4708  10.494  10.227   0.684
  509W        W 4709   0.801   0.336  11.823
  510W        W 4710   8.467   5.461   3.753
  511W        W 4711   0.844  10.777   9.871
  512W        W 4712   4.691   0.890   2.164
  513W        W 4713   3.604   8.561  11.734
  514W        W 4714   3.424   8.065   3.143
  515W        W 4715   4.276   3.345   2.818
  516W        W 4716   1.174   7.826   1.064
  517W        W 4717   8.767   1.523   3.011
  518W        W 4718   5.266   8.733   8.608
  519W        W 4719   8.088   1.181   9.312
  520W        W 4720   0.925  11.272   0.937
  521W        W 4721   6.643   5.578   2.491
  522W        W 4722   4.362   1.339   9.478
  523W        W 4723   2.166   6.582   1.303
  524W        W 4724   0.902   7.957   9.099
  525W        W 4725   3.538   0.438   2.332
  526W        W 4726   1.986   3.732   8.493
  527W        W 4727   7.157   1.401  11.433
  528W        W 4728   3.692   6.572   3.098
  529W        W 4729   0.824   6.595  10.024
  530W        W 4730   1.595   5.321   0.829
  531W        W 4731   1.607   2.702  11.670
  532W        W 4732   6.410   8.878  10.250
  533W        W 4733   3.091  11.044   3.412
  534W        W 4734  10.616   0.323   1.749
  535W        W 4735  10.024   8.612   9.683
  536W        W 4736   5.253   3.563  11.337
  537W        W 4737  10.575   3.095  11.571
  538W        W 4738   1.744   0.517   2.610
  539W        W 4739   5.518   3.510   4.271
  540W        W 4740   2.471   8.567  10.769
  541W        W 4741   1.745   7.946   3.008
  542W        W 4742   7.985   3.455   2.112
  543W        W 4743   9.667   9.630   0.085
  544W        W 4744   7.950  11.297   2.970
  545W        W 4745  10.006   7.428   0.465
  546W        W 4746   5.549   8.603  10.654
  547W        W 4747   2.117   0.966   9.387
  548W        W 4748   7.247   1.273   2.278
  549W        W 4749   7.139  10.395  10.862
  550W        W 4750   0.715   6.483   2.780
  551W        W 4751   2.308   1.716   2.465
  552W        W 4752   5.699   4.218   0.117
  553W        W 4753   2.038   5.231  11.733
  554W        W 4754   0.505   5.091   2.811
  555W        W 4755   4.157   8.521  10.512
  556W        W 4756   3.335   9.407   1.932
  557W        W 4757   5.264   8.252   2.978
  558W        W 4758  10.037   3.520   0.063
  559W        W 4759   0.695   3.608   2.792
  560W        W 4760   9.606   1.435  10.596
  561W        W 4761   4.331   6.571   1.719
  562W        W 4762  11.137   9.520   9.543
  563W        W 4763   9.269   9.431   3.100
  564W        W 4764   3.982  10.986   3.171
  565W        W 4765   7.039  11.065   1.541
  566W        W 4766   2.181   9.762  10.797
  567W        W 4767   4.110   2.644   2.322
  568W        W 4768   6.204   4.117   8.647
  569W        W 4769   3.251   0.006   2.201
  570W        W 4770   6.055   7.158   3.961
  571W        W 4771  10.480   6.495   2.843
  572W        W 4772   3.426   8.966   3.372
  573W        W 4773   6.733  11.067   0.547
  574W        W 4774   6.149   3.006   8.604
  575W        W 4775   5.570   5.559  10.008
  576W        W 4776   1.344   4.210   2.933
  577W        W 4777   7.625   0.503  11.578
  578W        W 4778   6.923   6.526   0.703
  579W        W 4779   2.318   4.818  10.957
  580W        W 4780   0.501   1.306   9.881
  581W        W 4781   5.947   0.595   9.859
  582W        W 4782   7.597   2.471   1.211
  583W        W 4783   3.804   2.322  11.765
  584W        W 4784   8.235   1.308   1.751
  585W        W 4785   0.753   9.054   3.031
  586W        W 4786   9.962  11.406   9.863
  587W        W 4787   4.901   1.834   3.285
  588W        W 4788   3.624   1.639   9.046
  589W        W 4789   7.379   7.134  11.491
  590W        W 4790   3.155   4.232   2.767
  591W        W 4791   5.619   7.549  10.486
  592W        W 4792  10.459   4.711   1.959
  593W        W 4793   5.157   5.594   0.315
  594W        W 4794   9.434   7.691   9.402
  595W        W 4795   4.960   1.414  11.550
  596W        W 4796   4.941   3.081   8.688
  597W        W 4797   0.315   9.047   9.253
  598W        W 4798   3.757   5.177   2.663
  599W        W 4799  10.340   4.750   2.435
  600W        W 4800   4.350   1.708  11.508
  601W        W 4801   2.232   3.608   1.746
  602W        W 4802  10.910   8.469  11.389
  603W        W 4803   3.742  11.337  10.875
  604W        W 4804   5.718   0.116   1.884
  605W        W 4805   1.658   1.878   1.779
  606W        W 4806   6.212   3.403   0.021
  607W        W 4807   5.058   8.111  11.274
  608W        W 4808   2.861   7.391   0.679
  609W        W 4809   3.529   2.868  11.261
  610W        W 4810   4.267   9.608   8.978
  611W        W 4811   5.633   6.606   1.129
  612W        W 4812  10.716   9.458  11.122
  613W        W 4813   3.716   7.508   3.086
  614W        W 4814   1.313   8.672  11.909
  615W        W 4815   0.202   3.016   9.291
  616W        W 4816   2.712   3.602   1.528
  617W        W 4817   3.158   2.972   2.350
  618W        W 4818   1.918   8.543   9.918
  619W        W 4819   4.656   2.907  11.832
  620W        W 4820   1.921   9.486   2.583
  621W        W 4821   4.070  10.276  11.836
  622W        W 4822   3.639   6.265  11.892
  623W        W 4823   1.269   9.049   0.716
  624W        W 4824   5.167   1.038   9.972
  625W        W 4825   9.072   8.066   2.933
  626W        W 4826   2.750   8.341   1.502
  627W        W 4827   0.870   3.034  11.032
  628W        W 4828   9.148   0.987   8.706
  629W        W 4829   4.302   8.050  11.986
  630W        W 4830   6.077   8.715   3.623
  631W        W 4831   7.785   2.061  11.871
  632W        W 4832   1.320   9.852   3.024
  633W        W 4833   3.277   0.396   1.871
  634W        W 4834   4.014   6.182   8.264
  635W        W 4835   3.159   6.168   0.724
  636W        W 4836   7.592   6.876   9.960
  637W        W 4837  11.218   5.678   2.755
  638W        W 4838   1.427   9.511  10.494
  639W        W 4839   7.428  11.167  11.862
  640W        W 4840   2.033   2.295  10.473
  641W        W 4841   9.294   9.908  11.372
  642W        W 4842   2.343  11.039   9.125
  643W        W 4843   8.367   6.144   3.154
  644W        W 4844   3.356   3.473   4.194
  645W        W 4845   6.521   1.829   0.449
  646W        W 4846   5.302   7.619   0.827
  647W        W 4847  10.841   6.397   3.520
  648W        W 4848   9.413   0.830   9.122
  649W        W 4849   3.603   4.982  10.786
  650W        W 4850   6.019   9.917  11.146
  651W        W 4851   1.695   4.112   9.422
  652W        W 4852   1.645   7.116   0.997
  653W        W 4853   8.145   3.389   2.612
  654W        W 4854   7.355   0.932  11.407
  655W        W 4855   7.048   1.866   1.637
  656W        W 4856   5.225   2.663  11.797
  657W        W 4857   7.928   8.987   0.834
  658W        W 4858  10.066   4.329   9.379
  659W        W 4859   9.877   3.920   3.032
  660W        W 4860   7.432   5.984   9.866
  661W        W 4861   8.518   1.402  11.457
  662W        W 4862   1.447   8.172   1.311
  663W        W 4863   8.013  10.788   0.563
  664W        W 4864   5.222   0.646   0.922
  665W        W 4865   8.230   6.099   0.378
  666W        W 4866   9.082   8.072  10.739
  667W        W 4867   5.469   6.529   9.166
  668W        W 4868   6.074   9.811   8.653
  669W        W 4869   9.949   5.661   9.009
  670W        W 4870  11.205   3.803   2.676
  671W        W 4871   7.526   4.708   1.647
  672W        W 4872   8.532   8.976  11.976
  673W        W 4873   2.710   6.156   1.999
  674W        W 4874   1.241   6.563  10.325
  675W        W 4875   4.747   9.423   1.189
  676W        W 4876   5.221   9.391  10.054
  677W        W 4877   5.179   8.561   2.067
  678W        W 4878  11.401   2.950   8.881
  679W        W 4879   0.806   9.087   0.501
  680W        W 4880   6.043   2.058   2.758
  681W        W 4881   4.080   2.887  11.092
  682W        W 4882   7.047   0.087   9.240
  683W        W 4883   1.762   7.951   0.377
  684W        W 4884  10.874   6.372   9.296
  685W        W 4885   1.287   6.487   9.789
  686W        W 4886   9.003  10.852   2.034
  687W        W 4887   8.060   7.170   0.674
  688W        W 4888   1.206  10.882   9.514
  689W        W 4889   1.399   6.958  10.997
  690W        W 4890   8.593   9.802   9.807
  691W        W 4891   8.846   4.065  11.757
  692W        W 4892   6.257   2.186   3.214
  693W        W 4893   6.032   9.486   0.807
  694W        W 4894   1.122   0.290  10.876
  695W        W 4895   4.742   5.658   0.637
  696W        W 4896   4.211   7.544  10.509
  697W        W 4897   8.945   8.684   8.490
  698W        W 4898   2.958   5.288   1.589
  699W        W 4899   6.332   3.309   1.337
  700W        W 4900   6.490   8.340  10.999
  701W        W 4901   4.056   7.252   2.785
  702W        W 4902  10.763   4.169  10.061
  703W        W 4903   2.678   1.211  10.827
  704W        W 4904   9.192   5.898  10.779
  705W        W 4905   6.992   0.614  11.217
  706W        W 4906   7.141   6.192   2.254
  707W        W 4907   3.082   3.104   9.525
  708W        W 4908   4.948   5.221  11.485
  709W        W 4909   4.118   0.264   1.519
  710W        W 4910   0.871   1.274   1.513
  711W        W 4911   4.664   2.821   3.453
  712W        W 4912  10.410   6.470   9.024
  713W        W 4913   2.624   6.153   2.852
  714W        W 4914   9.977   8.877  11.577
  715W        W 4915   8.262   0.305  10.492
  716W        W 4916   8.830   0.249   1.830
  717W        W 4917   6.518   8.214   1.992
  718W        W 4918   4.148   6.065   0.838
  719W        W 4919   6.298   1.446  11.627
  720W        W 4920   8.013   6.465   0.014
  721W        W 4921   2.654   3.285   0.543
  722W        W 4922   1.250   0.779   9.950
  723W        W 4923   4.697   5.682  11.515
  724W        W 4924   2.999   3.742   2.832
  725W        W 4925  11.053   1.613   2.839
  726W        W 4926   6.916   7.513  11.856
  727W        W 4927   3.779  10.832   8.962
  728W        W 4928   4.930  10.793   3.439
  729W        W 4929   4.398   0.719  11.659
  730W        W 4930  10.467   6.903  10.708
  731W        W 4931   6.638   1.566   0.867
  732W        W 4932   0.217   3.501   9.906
  733W        W 4933   4.996  10.359  11.974
  734W        W 4934   0.827   7.158   0.502
  735W        W 4935   6.104   2.693   1.213
  736W        W 4936   8.904   1.460   1.727
  737W        W 4937   1.210  10.081   3.501
  738W        W 4938  10.930   1.300  10.667
  739W        W 4939   1.646  11.445  10.120
  740W        W 4940   1.139   7.310   1.039
  741W        W 4941   2.105   6.209   0.915
  742W        W 4942   4.500   3.187   2.279
  743W        W 4943  10.029  10.836  10.895
  744W        W 4944  10.366   8.830  10.947
  745W        W 4945   8.102  10.161  10.414
  746W        W 4946  10.002   7.198   1.884
  747W        W 4947   5.521   8.474   9.020
  748W        W 4948   3.808  10.443   1.405
  749W        W 4949   4.806   0.998  11.790
  750W        W 4950   1.254  10.686   1.921
  751W        W 4951   1.781   2.432   2.834
  752W        W 4952   6.682   5.223   1.387
  753W        W 4953  10.024   8.409   9.215
  754W        W 4954   3.363   4.676   2.610
  755W        W 4955   4.588   3.716   1.993
  756W        W 4956   4.299   2.438  10.975
  757W        W 4957   8.575   1.940   9.366
  758W        W 4958  11.300   4.251   9.395
  759W        W 4959   9.444   5.532  10.008
  760W        W 4960   8.381   8.074  10.008
  761W        W 4961   6.944   4.184   0.578
  762W        W 4962   1.262   5.338   1.263
  763W        W 4963   3.450   3.219  10.385
  764W        W 4964   4.729   0.360   9.370
  765W        W 4965   9.767   6.718   8.214
  766W        W 4966   8.185   0.439   9.975
  767W        W 4967   6.323   6.117  11.480
  768W        W 4968   5.180   4.833  11.738
  769W        W 4969   2.245   3.841   8.939
  770W        W 4970  11.493  11.223   0.986
  771W        W 4971   9.952   6.186   8.925
  772W        W 4972   1.126   9.534   9.021
  773W        W 4973   6.285   5.296   1.756
  774W        W 4974   7.927   9.800  11.795
  775W        W 4975   4.553   2.297  10.020
  776W        W 4976   0.411   0.327   1.936
  777W        W 4977   7.483   1.011   3.019
  778W        W 4978   7.467   1.473  10.487
  779W        W 4979   0.068   7.300   0.345
  780W        W 4980  10.699   2.949   9.422
  781W        W 4981   8.485   2.386  11.237
  782W        W 4982   5.753   3.683   2.294
  783W        W 4983   7.228   8.451  11.941
  784W        W 4984   7.803   4.230   1.585
  785W        W 4985   0.145   6.141   9.868
  786W        W 4986   4.775   4.119   9.608
  787W        W 4987   7.670   9.549   9.771
  788W        W 4988   5.569   0.282  11.543
  789W        W 4989   5.535   9.859   8.517
  790W        W 4990  11.244   2.222  10.612
  791W        W 4991   7.817   7.947   0.594
  792W        W 4992  11.059   7.010  11.944
  793W        W 4993   7.963   4.287   2.820
  794W        W 4994   6.751   8.073   0.246
  795W        W 4995  11.268   0.335   9.918
  796W        W 4996   7.548  10.590   2.618
  797W        W 4997   4.548   0.839  10.331
  798W        W 4998   7.453   5.214  11.762
  799W        W 4999   7.220   0.874   9.802
  800W        W 5000   6.640  11.366   9.030
  801W        W 5001   7.951   6.161   8.734
  802W        W 5002   4.610   3.083   0.303
  803W        W 5003   3.048   9.059  11.481
  804W        W 5004   7.546   1.706  11.080
  805W        W 5005   8.846   7.985   2.008
  806W        W 5006  11.306  10.791   0.754
  807W        W 5007   0.793   7.512  11.769
  808W        W 5008   4.722   7.490  11.322
  809W        W 5009   1.027   7.963   9.603
  810W        W 5010   9.845   6.549  11.776
  811W        W 5011   0.092  11.454  11.768
  812W        W 5012  10.540   0.337   9.265
  813W        W 5013   5.336   6.606   2.092
  814W        W 5014   2.900  10.126   1.776
  815W        W 5015   5.327   6.752  11.616
  816W        W 5016  10.225   5.678   9.442
  817W        W 5017  11.070   4.480  10.368
  818W        W 5018   6.450   3.765   8.954
  819W        W 5019   4.198   6.540   2.214
  820W        W 5020   4.035   6.707  10.023
  821W        W 5021   8.861   9.922  11.140
  822W        W 5022   8.949   1.098  11.431
  823W        W 5023   9.717   8.150   1.752
  824W        W 5024   3.771   9.515   2.275
  825W        W 5025   0.267   7.510   1.920
  826W        W 5026   4.716   9.861   8.854
  827W        W 5027   7.077   9.370  11.692
  828W        W 5028   5.454  10.364  10.342
  829W        W 5029   5.471   3.780   8.652
  830W        W 5030  10.462  11.344   9.853
  831W        W 5031  11.457   8.469  10.810
  832W        W 5032   1.318  10.882   3.044
  833W        W 5033   8.892   1.442  10.683
  834W        W 5034   7.257   0.077   9.707
  835W        W 5035  10.329   5.656   0.401
  836W        W 5036   8.625   3.716   8.171
  837W        W 5037  10.330   7.292  10.359
  838W        W 5038  10.326   2.923   9.763
  839W        W 5039   0.453   2.208  10.780
  840W        W 5040  10.930   0.068   0.798
  841W        W 5041   7.876   5.724   0.328
  842W        W 5042  10.876   0.708   9.893
  843W        W 5043   4.067   5.532  11.791
  844W        W 5044   3.740   8.938  10.091
  845W        W 5045   9.540  10.557  11.891
  846W        W 5046   4.683   0.490   0.956
  847W        W 5047   1.003   2.689   2.128
  848W        W 5048   1.970   0.442  11.052
  849W        W 5049  10.907   6.173  11.798
  850W        W 5050   9.353   5.666   0.670
  851W        W 5051   5.920   3.647   8.955
  852W        W 5052   1.630   9.426   2.157
  853W        W 5053   0.018   7.170   3.518
  854W        W 5054   8.024   7.203   2.545
  855W        W 5055   0.864   3.285  11.468
  856W        W 5056   6.565   0.290   1.993
  857W        W 5057   8.076   0.514   3.328
  858W        W 5058  10.696   9.784  11.519
  859W        W 5059   7.713   2.229   2.169
  860W        W 5060   5.112   7.000  10.455
  861W        W 5061   9.645   2.064   1.806
  862W        W 5062   6.650  11.278  10.761
  863W        W 5063   4.435   9.762   0.912
  864W        W 5064   5.935   6.621  10.408
  865W        W 5065   1.225   7.574   9.235
  866W        W 5066   1.893  10.611   9.854
  867W        W 5067  10.745   8.351   0.367
  868W        W 5068   8.869   9.960   1.052
  869W        W 5069   0.676   5.981   2.839
  870W        W 5070  10.838   9.591  10.079
  871W        W 5071   9.992  10.087   1.682
  872W        W 5072   2.756   2.265   3.636
  873W        W 5073   5.604  11.486   3.157
  874W        W 5074  10.978  11.157   9.040
  875W        W 5075   7.984   1.852   1.939
  876W        W 5076   2.973   0.663   9.542
  877W        W 5077  10.836   9.170   9.758
  878W        W 5078   4.647   1.946   2.486
  879W        W 5079   5.452   7.157  11.921
  880W        W 5080   8.574   3.225  11.293
  881W        W 5081   9.981  10.004   9.248
  882W        W 5082   0.342   6.091   9.405
  883W        W 5083   4.119   1.610  11.948
  884W        W 5084   8.494   1.733   8.896
  885W        W 5085  10.500   9.802   0.410
  886W        W 5086   4.197   7.227  10.900
  887W        W 5087   5.525   9.881   2.477
  888W        W 5088   4.983   6.908  11.947
  889W        W 5089   5.043   4.534   1.233
  890W        W 5090   4.361  11.279   2.981
  891W        W 5091   7.164   7.388   2.614
  892W        W 5092  11.147  10.278   2.331
  893W        W 5093   0.505   9.991   1.877
  894W        W 5094   0.812   0.676   9.104
  895W        W 5095   5.654   0.892  11.674
  896W        W 5096   7.850  10.396   0.276
  897W        W 5097   6.703   7.305   1.796
  898W        W 5098   9.424   7.333   1.860
  899W        W 5099   6.440   3.202   9.553
  900W        W 5100   6.185   7.009   3.099
  901W        W 5101   6.188   3.555  10.293
  902W        W 5102   3.398   9.333   0.277
  903W        W 5103   3.872   1.657  10.926
  904W        W 5104   2.009   0.462   9.526
  905W        W 5105   1.916   1.558   2.748
  906W        W 5106   5.162   6.947   9.249
  907W        W 5107  10.623   5.038  10.360
  908W        W 5108   8.947   9.303   9.340
  909W        W 5109   1.356   3.151   9.785
  910W        W 5110   3.810   3.731   2.176
  911W        W 5111   5.883   7.460   9.317
  912W        W 5112   6.782   7.828   3.258
  913W        W 5113   6.406  10.002   2.917
  914W        W 5114   0.903   3.637   9.313
  915W        W 5115   5.824  10.320  10.812
  916W        W 5116   3.533   0.793  10.464
  917W        W 5117   7.104   6.926   9.792
  918W        W 5118   9.728  11.429  10.325
  919W        W 5119   4.953   8.365   0.259
  920W        W 5120   7.056   0.496   2.710
  921W        W 5121   0.310   7.342  10.342
  922W        W 5122   3.577  10.356   2.510
  923W        W 5123   6.964   7.425   9.822
  924W        W 5124   9.043   6.444   8.394
  925W        W 5125   3.948   9.838  11.569
  926W        W 5126  10.426   7.651  11.529
  927W        W 5127   9.904   6.679  10.764
  928W        W 5128   2.836   1.396   3.360
  929W        W 5129   2.984   9.856   9.478
  930W        W 5130   7.639   6.679   0.317
  931W        W 5131   9.360  10.583   0.365
  932W        W 5132   0.241   4.610   0.816
  933W        W 5133  11.068   2.667  10.792
  934W        W 5134   1.810  10.413   2.602
  935W        W 5135   2.448   0.699   1.632
  936W        W 5136   9.817   4.153  11.910
  937W        W 5137  10.026   3.697  11.128
  938W        W 5138   1.361   7.551   3.284
  939W        W 5139   5.037   3.647  10.069
  940W        W 5140   8.654  10.527   0.894
  941W        W 5141   1.879   8.371   1.513
  942W        W 5142   9.338   2.895   1.568
  943W        W 5143   9.245   5.747   8.448
  944W        W 5144   6.777   7.586   0.772
  945W        W 5145   3.131   7.447   0.213
  946W        W 5146   4.830   9.478   3.254
  947W        W 5147   4.488   1.206  11.456
  948W        W 5148   7.611   3.338   2.454
  949W        W 5149   3.145  10.369  11.776
  950W        W 5150   6.673   9.011   9.812
  951W        W 5151   0.321   2.613   9.990
  952W        W 5152   2.328   7.201   9.055
  953W        W 5153   6.254   3.770  11.446
  954W        W 5154   0.687   7.306   2.659
  955W        W 5155   3.642   9.402   0.744
  956W        W 5156   0.508   1.692   9.075
  957W        W 5157  11.458   0.016   8.880
  958W        W 5158   6.752   9.795   0.371
  959W        W 5159   5.883   7.289  11.693
  960W        W 5160   4.954   7.987  10.668
  961W        W 5161   3.281   2.147   9.206
  962W        W 5162   3.709   1.978  11.312
  963W        W 5163   7.245   3.111  10.147
  964W        W 5164   7.723   9.552   0.240
  965W        W 5165   9.937   5.020   9.245
  966W        W 5166   4.455  11.005   0.903
  967W        W 5167   9.774   2.397  11.296
  968W        W 5168  10.796   9.406   9.161
  969W        W 5169   5.288   5.102   0.357
  970W        W 5170   9.146   5.936  10.245
  971W        W 5171   6.090   9.513   2.979
  972W        W 5172  11.288   6.525  11.885
  973W        W 5173   1.005   0.282   9.585
  974W        W 5174   1.016   0.510  10.418
  975W        W 5175   7.342   7.948  10.448
  976W        W 5176   0.225   0.780   2.852
  977W        W 5177   6.087   7.561  11.279
  978W        W 5178   4.547   4.539   1.336
  979W        W 5179  10.358  10.831   1.969
  980W        W 5180   3.074   0.836   1.224
  981W        W 5181   8.622   4.710   1.742
  982W        W 5182   4.708   7.587  10.315
  983W        W 5183   8.607   4.812  11.988
  984W        W 5184   3.216   7.385  11.712
  985W        W 5185   7.275   2.318   1.847
  986W        W 5186   8.440   2.728   3.558
  987W        W 5187   5.687  10.855   9.477
  988W        W 5188  11.379   8.650  11.631
  989W        W 5189   8.997   4.545   8.345
  990W        W 5190   9.319   0.352   1.072
  991W        W 5191   7.060   5.514  11.989
  992W        W 5192   3.905   2.152   2.917
  993W        W 5193   8.124   6.554   1.363
  994W        W 5194   3.911   6.650   8.981
  995W        W 5195   5.287  11.470   9.709
  996W        W 5196   6.915   8.580   1.334
  997W        W 5197  10.924  10.093  11.882
  998W        W 5198   1.888   5.026  10.744
  999W        W 5199   4.285   8.162   1.390
 1000W        W 5200   0.969   5.004   2.608
 1001W        W 5201  10.389   8.961  11.875
 1002W        W 5202   2.688   1.185  10.318
 1003W        W 5203   8.882   2.796   1.811
 1004W        W 5204   7.994   9.027   2.638
 1005W        W 5205   7.140   3.087  10.672
 1006W        W 5206  11.020   5.670  11.846
 1007W        W 5207   2.707   3.105   9.879
 1008W        W 5208   3.935   0.739   1.600
 1009W        W 5209   7.194   9.032  11.259
 1010W        W 5210   7.596   3.623  10.948
 1011W        W 5211   2.679   4.118   1.513
 1012W        W 5212   1.384   3.879   3.387
 1013W        W 5213  10.909  10.628   1.696
 1014W        W 5214   0.783   6.064   2.344
 1015W        W 5215  10.182   8.071   8.833
 1016W        W 5216   3.775  10.462   1.932
 1017W        W 5217  10.767   2.326   9.280
 1018W        W 5218   0.541   0.482   9.498
 1019W        W 5219   6.159  11.446   3.369
 1020W        W 5220   5.260   7.263   2.794
 1021W        W 5221   9.510  10.673   3.257
 1022W        W 5222   0.068   5.876   3.600
 1023W        W 5223   5.993   9.961   3.239
 1024W        W 5224   5.179   6.544   9.600
 1025W        W 5225   6.723  10.931  10.305
 1026W        W 5226   7.874   2.213  10.230
 1027W        W 5227   0.189  10.916   1.764
 1028W        W 5228   9.096   5.073   8.130
 1029W        W 5229   5.638   3.732   0.264
 1030W        W 5230   0.884   2.827   3.134
 1031W        W 5231   1.285   2.550  10.413
 1032W        W 5232   9.076   2.090   9.473
 1033W        W 5233   6.879   8.107  10.704
 1034W        W 5234   2.911   8.056   0.009
 1035W        W 5235   4.052   0.201   2.318
 1036W        W 5236   9.437   3.725   8.966
 1037W        W 5237  10.797   6.586   0.095
 1038W        W 5238   8.234   4.890   0.545
 1039W        W 5239   0.900  11.151   8.995
 1040W        W 5240  11.088   9.658   8.833
 1041W        W 5241   8.880   7.633   3.156
 1042W        W 5242   0.996   2.045   8.617
 1043W        W 5243   5.925   1.281   1.214
 1044W        W 5244   5.739   5.786   2.507
 1045W        W 5245   7.449   8.572   9.644
 1046W        W 5246  11.211   0.724   2.540
 1047W        W 5247   9.011   9.011  10.726
 1048W        W 5248   5.581   4.539  11.198
 1049W        W 5249   2.868   0.438   0.748
 1050W        W 5250   4.210  10.078   8.767
 1051W        W 5251   3.183   6.732  10.776
 1052W        W 5252   0.479  11.472   8.733
 1053W        W 5253   7.106   0.744   1.835
 1054W        W 5254   5.247   0.022   3.535
 1055W        W 5255   1.580   7.213  10.218
 1056W        W 5256   4.754   8.608   8.624
 1057W        W 5257   3.493   0.273   3.244
 1058W        W 5258   3.188   5.741   1.536
 1059W        W 5259   7.294   6.077   1.433
 1060W        W 5260   6.130   2.161   1.271
 1061W        W 5261   3.666   8.529   3.183
 1062W        W 5262   7.601   9.735   2.311
 1063W        W 5263   4.838   9.626  10.279
 1064W        W 5264   5.497   7.585   1.280
 1065W        W 5265   7.424   4.958   9.451
 1066W        W 5266  11.340   0.845   9.997
 1067W        W 5267   3.213   9.399   3.178
 1068W        W 5268   5.783   7.412   1.652
 1069W        W 5269   2.785   4.574  11.184
 1070W        W 5270   9.811   1.879  11.385
 1071W        W 5271   0.183   1.303   8.909
 1072W        W 5272   9.529   3.143  11.060
 1073W        W 5273   1.433   3.927  10.441
 1074W        W 5274   4.313   4.163   0.641
 1075W        W 5275   5.740  10.316   2.269
 1076W        W 5276   9.145   3.185   2.589
 1077W        W 5277   5.826  11.118   1.739
 1078W        W 5278   1.216   2.774   3.510
 1079W        W 5279  10.933  11.443  10.892
 1080W        W 5280   7.661  11.321   2.143
 1081W        W 5281   7.048   1.016   2.677
 1082W        W 5282   2.530   4.370  11.591
 1083W        W 5283   1.001   4.598  10.920
 1084W        W 5284   2.031   1.503   8.478
 1085W        W 5285   7.303   2.211  11.882
 1086W        W 5286   0.772   3.768   1.319
 1087W        W 5287   9.753   9.511   1.997
 1088W        W 5288   7.771   3.886  11.376
 1089W        W 5289   6.424   7.451   3.202
 1090W        W 5290   8.651   5.116   0.408
 1091W        W 5291   4.805   9.092   3.587
 1092W        W 5292   4.266   6.518   9.527
 1093W        W 5293   4.168   4.159   1.217
 1094W        W 5294   8.087   5.163   3.930
 1095W        W 5295   7.082   3.953   9.510
 1096W        W 5296   2.865   1.264   9.282
 1097W        W 5297   5.522   3.238   3.057
 1098W        W 5298   6.946   0.976   9.357
 1099W        W 5299   7.969   9.421   2.975
 1100W        W 5300   4.532   6.520   9.959
 1101W        W 5301   5.123   2.380   1.366
 1102W        W 5302   4.536   6.553  11.460
 1103W        W 5303   7.702   7.510   0.831
 1104W        W 5304   5.449  10.376   0.276
 1105W        W 5305  10.923   2.278  11.982
 1106W        W 5306   5.105   2.043  10.438
 1107W        W 5307   4.665   5.591  11.008
 1108W        W 5308   2.886   0.848   2.641
 1109W        W 5309   1.184   0.438   0.212
 1110W        W 5310  10.478   0.797   1.901
 1111W        W 5311   6.043   7.883  10.512
 1112W        W 5312   5.123   4.467   3.409
 1113W        W 5313   0.533   6.170   8.907
 1114W        W 5314   3.814   4.079   0.853
 1115W        W 5315   4.883   2.736   9.048
 1116W        W 5316   3.299   9.137  10.563
 1117W        W 5317   6.672   9.017  11.720
 1118W        W 5318   5.820   3.256  11.680
 1119W        W 5319   5.095   4.674   2.185
 1120W        W 5320   5.343   6.102   9.994
 1121W        W 5321   4.607   5.110  10.698
 1122W        W 5322   5.248   0.306   1.806
 1123W        W 5323   2.605  11.013   1.542
 1124W        W 5324   1.796   7.780  10.919
 1125W        W 5325   3.634   0.731   0.189
 1126W        W 5326   9.359   0.371  11.856
 1127W        W 5327   4.962   0.245   8.884
 1128W        W 5328   8.159   8.925  11.233
 1129W        W 5329   7.464   0.157  11.941
 1130W        W 5330  10.365  10.309   3.189
 1131W        W 5331   0.589   8.785   1.286
 1132W        W 5332   7.497   9.388   3.300
 1133W        W 5333   0.485   8.189   2.125
 1134W        W 5334  10.449   6.925   1.863
 1135W        W 5335   6.429   0.047  11.903
 1136W        W 5336   5.663   7.528   2.145
 1137W        W 5337   6.997   6.515  11.814
 1138W        W 5338   9.889   8.098   1.284
 1139W        W 5339   6.037   9.638   9.165
 1140W        W 5340   7.206  10.876   3.317
 1141W        W 5341   5.249  11.281   0.455
 1142W        W 5342   4.586  11.409  10.602
 1143W        W 5343  10.471   0.995   8.788
 1144W        W 5344   6.184   2.966   1.712
 1145W        W 5345  11.235   2.712   1.406
 1146W        W 5346   0.910   7.055  11.988
 1147W        W 5347   9.470  10.746   2.758
 1148W        W 5348  10.885   1.122  10.185
 1149W        W 5349   3.433   0.834   1.649
 1150W        W 5350   8.845   2.474   0.929
 1151W        W 5351   8.477  10.247   1.302
 1152W        W 5352   0.970   7.101   9.267
 1153W        W 5353   7.385   1.135   0.733
 1154W        W 5354   6.631   7.579   0.282
 1155W        W 5355   5.088   9.852  11.801
 1156W        W 5356  11.052   3.219   1.332
 1157W        W 5357   1.416   1.459  10.640
 1158W        W 5358   5.026   1.695   2.248
 1159W        W 5359   0.113   6.475   0.519
 1160W        W 5360   0.387   6.622  11.524
 1161W        W 5361   4.821   3.305  11.462
 1162W        W 5362   4.794  11.326  11.573
 1163W        W 5363   7.957   4.420   2.055
 1164W        W 5364   5.132   0.870   2.498
 1165W        W 5365   9.830   0.887   1.074
 1166W        W 5366   8.769   3.580   8.635
 1167W        W 5367   4.100   2.383   9.809
 1168W        W 5368   2.464   1.881   0.980
 1169W        W 5369   0.468  10.850   3.403
 1170W        W 5370   0.112   8.225  10.394
 1171W        W 5371   2.284   9.670   8.929
 1172W        W 5372   5.025   5.675   1.368
 1173W        W 5373   9.317   4.220   9.065
 1174W        W 5374  11.275   5.226   0.541
 1175W        W 5375   1.742   1.042   8.815
 1176W        W 5376   3.567   7.226   1.034
 1177W        W 5377   3.624   4.936   9.451
 1178W        W 5378   7.380  10.885   1.220
 1179W        W 5379   3.133   1.178  11.075
 1180W        W 5380   9.895   8.998  11.079
 1181W        W 5381   3.444   7.454   9.839
 1182W        W 5382  11.226   1.871  11.887
 1183W        W 5383  11.478   1.304   9.805
 1184W        W 5384   7.867   4.606   1.255
 1185W        W 5385   7.876  10.676  10.490
 1186W        W 5386  10.008   5.238   2.941
 1187W        W 5387   7.493   4.116  10.929
 1188W        W 5388   0.079   0.854  11.733
 1189W        W 5389   5.838   1.333  11.855
 1190W        W 5390   2.776   4.068  10.985
 1191W        W 5391   6.785   8.197  11.611
 1192W        W 5392   9.210   1.151  10.434
 1193W        W 5393   4.829   0.170   9.852
 1194W        W 5394   8.001   5.222   1.435
 1195W        W 5395   5.052  10.861   1.721
 1196W        W 5396   8.314  10.983   0.933
 1197W        W 5397  10.279   8.957   0.993
 1198W        W 5398  11.306   5.032   3.354
 1199W        W 5399   1.742   5.216   9.004
 1200W        W 5400   2.576   7.976   0.937
 1201W        W 5401   6.173   6.688   3.787
 1202W        W 5402   7.034   5.644   1.443
 1203W        W 5403   8.730   4.072   2.281
 1204W        W 5404   0.013   1.862   9.081
 1205W        W 5405   9.060   2.382   2.981
 1206W        W 5406   1.436   1.747   0.183
 1207W        W 5407   1.765   2.378   1.794
 1208W        W 5408   0.815   9.800   9.876
 1209W        W 5409   6.880   9.942  10.921
 1210W        W 5410   4.523   4.788   8.249
 1211W        W 5411   7.925   8.935  10.390
 1212W        W 5412   4.651   3.813   0.859
 1213W        W 5413   8.957   9.874  10.618
 1214W        W 5414   1.979   7.567  11.354
 1215W        W 5415   6.017   3.594   4.114
 1216W        W 5416   0.005   0.415  10.393
 1217W        W 5417   7.993  10.790  11.540
 1218W        W 5418   5.833   3.102   1.379
 1219W        W 5419   2.290   4.105  10.583
 1220W        W 5420   0.684   8.723   9.034
 1221W        W 5421   6.217   4.548   9.396
 1222W        W 5422  11.383   9.792   1.628
 1223W        W 5423   1.810  10.095  11.585
 1224W        W 5424   0.907   1.923   9.376
 1225W        W 5425   8.445   9.513   2.780
 1226W        W 5426   5.469   0.871   9.589
 1227W        W 5427   5.417   3.336   1.099
 1228W        W 5428   9.229   2.041   0.394
 1229W        W 5429   5.645   8.985   2.000
 1230W        W 5430  10.006   9.927   2.708
 1231W        W 5431   6.653   4.185   3.148
 1232W        W 5432   9.919   9.881   1.211
 1233W        W 5433   9.226   0.627  10.418
 1234W        W 5434   3.788   8.037  10.013
 1235W        W 5435   8.716   2.184   0.254
 1236W        W 5436   9.095   9.480   1.374
 1237W        W 5437   1.824   2.630  10.122
 1238W        W 5438   8.914   7.178   9.994
 1239W        W 5439   5.628   9.528   8.888
 1240W        W 5440   3.125   2.363  10.123
 1241W        W 5441   1.257   4.726   0.146
 1242W        W 5442  11.421   1.883   2.003
 1243W        W 5443   9.441   5.141   9.066
 1244W        W 5444  11.243  11.261   0.545
 1245W        W 5445   2.585  10.753   9.565
 1246W        W 5446   8.547   9.543   0.793
 1247W        W 5447   3.860   0.412   9.685
 1248W        W 5448   5.938   4.748  11.860
 1249W        W 5449   0.778   0.090   0.268
 1250W        W 5450   7.206   2.296   9.364
 1251W        W 5451   2.584   2.330   0.416
 1252W        W 5452   3.202   1.740   2.505
 1253W        W 5453  10.865   7.995  11.594
 1254W        W 5454   8.494   1.752   1.864
 1255W        W 5455   9.373   7.617   3.079
 1256W        W 5456   8.506   5.743  11.833
 1257W        W 5457   5.638   2.126  10.888
 1258W        W 5458   2.129   6.553   8.522
 1259W        W 5459  10.878   4.122   9.111
 1260W        W 5460   4.834  10.335   9.127
 1261W        W 5461   3.350   6.100  10.201
 1262W        W 5462  11.247   2.341   2.929
 1263W        W 5463   1.169   1.795  10.312
 1264W        W 5464   8.907   9.938   2.044
 1265W        W 5465   3.220   1.587   9.605
 1266W        W 5466   0.745  10.693   8.799
 1267W        W 5467  10.527   1.339  11.041
 1268W        W 5468  11.354   8.819  11.152
 1269W        W 5469   8.761   3.197   3.533
 1270W        W 5470   2.194  11.378   1.390
 1271W        W 5471   3.439  11.127   2.530
 1272W        W 5472   5.897   4.163  11.445
 1273W        W 5473   2.222   9.053   1.017
 1274W        W 5474   0.893   0.393   2.619
 1275W        W 5475   7.652  11.094   2.592
 1276W        W 5476   3.783   8.141   8.709
 1277W        W 5477   6.123   6.514   0.305
 1278W        W 5478  11.354   7.420  11.915
 1279W        W 5479   1.538   4.382   8.998
 1280W        W 5480   5.533  11.414   2.653
 1281W        W 5481  11.435   7.585   1.096
 1282W        W 5482   6.113   4.846   0.853
 1283W        W 5483   4.669   3.584  10.980
 1284W        W 5484   8.519   2.481   1.363
 1285W        W 5485   1.960  10.885  10.954
 1286W        W 5486   7.712   4.375   3.265
 1287W        W 5487   6.683   8.375   8.985
 1288W        W 5488   7.722   2.243   2.685
 1289W        W 5489   1.586   7.040  11.531
 1290W        W 5490   7.093   1.885  11.288
 1291W        W 5491   5.543   6.595   2.632
 1292W        W 5492   9.023   3.324   1.140
 1293W        W 5493   9.389   7.450   0.415
 1294W        W 5494   8.005   2.937  11.866
 1295W        W 5495   0.499   7.105  11.716
 1296W        W 5496  10.927  10.930   2.630
 1297W        W 5497   5.433   2.354   3.506
 1298W        W 5498   1.109   2.453  11.691
 1299W        W 5499   9.928   9.475   2.471
 1300W        W 5500   0.975   8.333   8.331
 1301W        W 5501   9.178   4.220   2.117
 1302W        W 5502   6.197  10.423   1.990
 1303W        W 5503   5.696   4.115   3.537
 1304W        W 5504   3.784   9.780   8.884
 1305W        W 5505  11.024  11.020  10.469
 1306W        W 5506   3.815   9.800  10.605
 1307W        W 5507   2.537   7.504   1.145
 1308W        W 5508  10.892  10.013   0.886
 1309W        W 5509   0.949   3.658   1.811
 1310W        W 5510   2.140   0.851   9.881
 1311W        W 5511   7.010   1.274   1.029
 1312W        W 5512   6.689   4.321  11.764
 1313W        W 5513  10.933   8.526   1.879
 1314W        W 5514   1.043   0.825  10.869
 1315W        W 5515   3.598  11.241  10.383
 1316W        W 5516   9.333   1.050   2.569
 1317W        W 5517   9.507   2.420   0.110
 1318W        W 5518   1.760  10.816   0.141
 1319W        W 5519  10.030   6.105  11.978
 1320W        W 5520   6.555   4.768   1.128
 1321W        W 5521   2.767   7.399   8.881
 1322W        W 5522   8.936   0.024   3.191
 1323W        W 5523  10.953   9.932   3.701
 1324W        W 5524   1.106   5.616   3.327
 1325W        W 5525   2.399   7.906   1.451
 1326W        W 5526   0.426   3.146   2.793
 1327W        W 5527   6.436   6.687   0.684
 1328W        W 5528   3.135  10.116   3.297
 1329W        W 5529   3.599   0.352   1.431
 1330W        W 5530   2.558   1.101   9.685
 1331W        W 5531   3.329   7.151   0.571
 1332W        W 5532  11.027   1.647   9.328
 1333W        W 5533   2.620   3.503  11.796
 1334W        W 5534   5.731   5.266   1.205
 1335W        W 5535   6.157   2.895  11.805
 1336W        W 5536   6.013   1.312  10.297
 1337W        W 5537   4.628   7.953  11.552
 1338W        W 5538  11.317   9.291   9.130
 1339W        W 5539  11.313   9.776   0.714
 1340W        W 5540   7.469   6.835   9.431
 1341W        W 5541   3.328  10.616   9.123
 1342W        W 5542   2.251   6.922   2.295
 1343W        W 5543   8.719   4.695  10.617
 1344W        W 5544   8.973   3.282   3.069
 1345W        W 5545   7.533   6.950   2.629
 1346W        W 5546   9.092   6.481   0.943
 1347W        W 5547   5.345   0.058   9.191
 1348W        W 5548   0.888   9.789  11.820
 1349W        W 5549  10.727  11.124   1.788
 1350W        W 5550   5.787  10.478   2.813
 1351W        W 5551   3.914   1.590   2.078
 1352W        W 5552   3.223   4.657  11.861
 1353W        W 5553   7.044   9.512   3.029
 1354W        W 5554   4.053   1.294  10.617
 1355W        W 5555   3.593  10.728  10.332
 1356W        W 5556   5.392   4.041  11.421
 1357W        W 5557   6.963   9.011   1.089
 1358W        W 5558   8.909   1.437  10.148
 1359W        W 5559   1.932   3.871  10.285
 1360W        W 5560   0.239   5.006   9.459
 1361W        W 5561   3.343   7.645  11.293
 1362W        W 5562   6.493   2.583   1.823
 1363W        W 5563   4.162  11.325   9.406
 1364W        W 5564   1.258   4.385   3.452
 1365W        W 5565   4.081   8.192   2.275
 1366W        W 5566   5.626   1.193  10.908
 1367W        W 5567   1.828   7.108   9.782
 1368W        W 5568   1.807   3.607  11.719
 1369W        W 5569   3.097   8.686   1.315
 1370W        W 5570   8.188   7.665   0.818
 1371W        W 5571   4.572   1.863   9.408
 1372W        W 5572   7.727   1.469   2.196
 1373W        W 5573   7.648   1.410   9.253
 1374W        W 5574   9.258   0.342   8.236
 1375W        W 5575   3.289   2.567   3.553
 1376W        W 5576   2.957   9.630   1.657
 1377W        W 5577   1.294   0.291  10.045
 1378W        W 5578   3.984   4.052  10.560
 1379W        W 5579   2.174   5.312   1.135
 1380W        W 5580   5.094   3.621   3.938
 1381W        W 5581   3.742   8.801  11.111
 1382W        W 5582   7.108   8.928   9.529
 1383W        W 5583   9.051  10.341   9.293
 1384W        W 5584   6.608   1.382   3.364
 1385W        W 5585   2.139  10.016   3.157
 1386W        W 5586   4.159   6.213  10.769
 1387W        W 5587   4.152   9.359   0.773
 1388W        W 5588   4.554   0.087   2.323
 1389W        W 5589   1.434   1.134  11.044
 1390W        W 5590   2.685  11.128  11.747
 1391W        W 5591   8.463   1.000   1.102
 1392W        W 5592   5.083   3.273  10.967
 1393W        W 5593   9.337   0.789   2.995
 1394W        W 5594   3.289   2.623   2.943
 1395W        W 5595  11.228   2.195   3.430
 1396W        W 5596   8.531   9.586   3.616
 1397W        W 5597   5.992   7.284   8.627
 1398W        W 5598   3.084   2.364   0.466
 1399W        W 5599   3.621  10.607  11.750
 1400W        W 5600   2.345   4.142   0.870
 1401W        W 5601   8.437   0.747  10.716
 1402W        W 5602  10.283  10.496   9.739
 1403W        W 5603   2.748   7.847   0.455
 1404W        W 5604   8.427   8.832   8.573
 1405W        W 5605   8.185   5.984   8.290
 1406W        W 5606   5.759  10.305   1.736
 1407W        W 5607   6.606   8.085   0.717
 1408W        W 5608   5.658   2.341   8.681
 1409W        W 5609   3.497   1.915   2.131
 1410W        W 5610   3.316   5.719  10.551
 1411W        W 5611  11.308   2.728   3.497
 1412W        W 5612   6.028   2.815   3.653
 1413W        W 5613   6.194  10.543   1.503
 1414W        W 5614   9.678   1.459  11.111
 1415W        W 5615  10.443   0.705   0.464
 1416W        W 5616   2.577   5.644   2.602
 1417W        W 5617   6.078   8.848   2.773
 1418W        W 5618   5.530   8.632   9.977
 1419W        W 5619  10.990   9.913   0.359
 1420W        W 5620   6.532   4.369   8.965
 1421W        W 5621   8.684   8.103   0.057
 1422W        W 5622   7.439   4.327  10.318
 1423W        W 5623   4.645   5.635  10.495
 1424W        W 5624   8.824   4.813   0.814
 1425W        W 5625   4.921   9.634   3.715
 1426W        W 5626   2.391   7.055   1.431
 1427W        W 5627   9.949   2.837  11.100
 1428W        W 5628   1.359   1.661   9.329
 1429W        W 5629   9.698   9.185   0.410
 1430W        W 5630  10.421   1.662   0.222
 1431W        W 5631   4.171   4.690   9.358
 1432W        W 5632   2.222   6.406   9.406
 1433W        W 5633   9.555   6.523   9.071
 1434W        W 5634   7.709   9.407  10.277
 1435W        W 5635   2.410   8.142   1.894
 1436W        W 5636   8.082   8.603   8.915
 1437W        W 5637   9.729   2.088   0.734
 1438W        W 5638   8.977   7.509  11.502
 1439W        W 5639   8.474   4.748   2.674
 1440W        W 5640   8.606   6.475   9.665
 1441W        W 5641   1.683  10.983   1.864
 1442W        W 5642   8.149   6.413   9.460
 1443W        W 5643  11.334   6.028   3.158
 1444W        W 5644   8.033   0.277  11.327
 1445W        W 5645   7.571   7.164   0.487
 1446W        W 5646   0.321   5.848   2.264
 1447W        W 5647   5.216  10.811  10.275
 1448W        W 5648   7.426   7.784   2.301
 1449W        W 5649   6.045   2.013   8.858
 1450W        W 5650   6.328   6.069  10.127
 1451W        W 5651   8.686   4.071   3.343
 1452W        W 5652   5.615   9.306  11.331
 1453W        W 5653   7.255   9.755   0.037
 1454W        W 5654   8.667   3.719   0.422
 1455W        W 5655   8.879  11.185  11.899
 1456W        W 5656   4.969  11.174   0.889
 1457W        W 5657   4.889   3.258   9.188
 1458W        W 5658   1.920   4.750   8.913
 1459W        W 5659   5.440   6.606  10.359
 1460W        W 5660   1.252   1.240   0.048
 1461W        W 5661   6.226   8.009   0.250
 1462W        W 5662   9.772   8.629   0.578
 1463W        W 5663  10.762   2.780   1.209
 1464W        W 5664   0.298  10.357  11.312
 1465W        W 5665   6.015   0.877   0.044
 1466W        W 5666   1.371   9.095  11.644
 1467W        W 5667   2.294   1.444  10.606
 1468W        W 5668   2.087   9.370   9.338
 1469W        W 5669   5.269   9.253   3.276
 1470W        W 5670   6.501   9.514   2.287
 1471W        W 5671   5.985   5.513  10.355
 1472W        W 5672   8.455   3.062   3.100
 1473W        W 5673   3.914   0.400  10.938
 1474W        W 5674   7.259   5.073   9.948
 1475W        W 5675   7.585   5.888  11.210
 1476W        W 5676   2.950   1.260   0.423
 1477W        W 5677   8.419   9.756   1.270
 1478W        W 5678  10.694   5.268  11.770
 1479W        W 5679   3.196   4.573   3.434
 1480W        W 5680   0.575   0.803  11.747
 1481W        W 5681   8.578   6.931  10.272
 1482W        W 5682   0.686   8.153  10.042
 1483W        W 5683   0.361   0.757  11.279
 1484W        W 5684   5.951   9.027   1.005
 1485W        W 5685   4.751   0.477   1.824
 1486W        W 5686   2.834   0.463   8.947
 1487W        W 5687   7.800   3.080   2.869
 1488W        W 5688   9.088   3.347   9.435
 1489W        W 5689   2.814   4.239   3.498
 1490W        W 5690   1.739   2.697  10.630
 1491W        W 5691  10.883   9.953   9.229
 1492W        W 5692   0.290   7.625  10.837
 1493W        W 5693   9.153   6.224   2.280
 1494W        W 5694   7.490   5.749  11.727
 1495W        W 5695   5.946   5.183  11.388
 1496W        W 5696   1.463   6.191   1.657
 1497W        W 5697   1.908   6.142   1.407
 1498W        W 5698  10.937   4.069   0.598
 1499W        W 5699   9.472   5.951   9.737
 1500W        W 5700   2.573   5.257  11.815
 1501W        W 5701   7.912   1.355   3.150
 1502W        W 5702   2.384   0.977  11.996
 1503W        W 5703   6.123   1.263  10.798
 1504W        W 5704   5.249   1.557  10.592
 1505W        W 5705   0.055   0.333   9.489
 1506W        W 5706   0.385   8.423   0.968
 1507W        W 5707   2.072   4.036  11.401
 1508W        W 5708   2.883   0.318   9.914
 1509W        W 5709   0.276   5.571   2.711
 1510W        W 5710   6.462   2.069  11.862
 1511W        W 5711   4.255   2.554  11.876
 1512W        W 5712   3.567   2.079   9.999
 1513W        W 5713   1.023   2.065   0.084
 1514W        W 5714   6.570   8.144   9.490
 1515W        W 5715   0.122  10.431   2.415
 1516W        W 5716   1.307   3.999   1.957
 1517W        W 5717   4.267  11.022   8.954
 1518W        W 5718  10.955   6.710   9.714
 1519W        W 5719   1.650  10.372   3.554
 1520W        W 5720   2.503   5.790  10.002
 1521W        W 5721   4.891   2.344   3.422
 1522W        W 5722   3.291   5.016  10.059
 1523W        W 5723   2.111   4.578  11.407
 1524W        W 5724  11.335   3.312  10.579
 1525W        W 5725   1.676   7.470   1.728
 1526W        W 5726   6.575   0.761   8.898
 1527W        W 5727   7.821   9.872  11.304
 1528W        W 5728  10.665   4.291  11.771
 1529W        W 5729   6.815   1.004  11.518
 1530W        W 5730   3.171   9.754   0.471
 1531W        W 5731   3.750   2.784   1.178
 1532W        W 5732   7.358   5.597  10.813
 1533W        W 5733   7.155   4.862  11.170
 1534W        W 5734   8.540   8.610   4.121
 1535W        W 5735   7.984   5.728  10.044
 1536W        W 5736  10.539   5.992   2.753
 1537W        W 5737   6.456   4.726  10.183
 1538W        W 5738   2.457   0.487   8.584
 1539W        W 5739   3.311   2.728  10.441
 1540W        W 5740   5.697   1.816   8.527
 1541W        W 5741   5.821   6.141   1.370
 1542W        W 5742   1.854   7.434   9.043
 1543W        W 5743   9.973   9.846  11.721
 1544W        W 5744   1.483   3.312   2.700
 1545W        W 5745   7.740   0.078   0.374
 1546W        W 5746   8.485  11.431   2.128
 1547W        W 5747   5.197   3.975   3.582
 1548W        W 5748   3.788   8.504   0.721
 1549W        W 5749   7.951   1.443   2.660
 1550W        W 5750   3.734   0.721   0.740
 1551W        W 5751   8.043   8.532   2.379
 1552W        W 5752  10.476   2.299   2.983
 1553W        W 5753   2.222   8.118   9.928
 1554W        W 5754  10.983   7.191  10.987
 1555W        W 5755   4.562   3.508   8.621
 1556W        W 5756   5.033   3.565   8.799
 1557W        W 5757   3.839   1.242   1.690
 1558W        W 5758  11.043   0.395   2.913
 1559W        W 5759  10.559   5.209   2.251
 1560W        W 5760   7.196   5.266  10.434
 1561W        W 5761   4.789   3.562   2.459
 1562W        W 5762   8.928   1.999   8.980
 1563W        W 5763   8.623   3.330   0.788
 1564W        W 5764   5.697   2.718   0.016
 1565W        W 5765   4.604  10.779   9.396
 1566W        W 5766   0.832   4.709  10.451
 1567W        W 5767   2.838   1.349   2.835
 1568W        W 5768   5.280   5.096   1.962
 1569W        W 5769   3.282   7.477   8.984
 1570W        W 5770   5.541   2.687   1.423
 1571W        W 5771   4.261   0.822   9.055
 1572W        W 5772   5.544   4.962  10.877
 1573W        W 5773  10.353   4.761  10.721
 1574W        W 5774  10.884   9.838   2.182
 1575W        W 5775   7.976   6.549   2.291
 1576W        W 5776   0.359   5.658   1.050
 1577W        W 5777   8.600   0.743   9.889
 1578W        W 5778  10.507   2.395  11.046
 1579W        W 5779   8.010   7.893   1.793
 1580W        W 5780   5.545   3.825   1.096
 1581W        W 5781   9.111   8.397   0.034
 1582W        W 5782   9.697   5.092  10.019
 1583W        W 5783   9.923   9.099   9.560
 1584W        W 5784  11.292   7.216   0.776
 1585W        W 5785   4.685  10.695  11.020
 1586W        W 5786   9.516  10.089   0.351
 1587W        W 5787   0.718   0.638   0.223
 1588W        W 5788   2.784   6.638   1.797
 1589W        W 5789   3.171   0.432  10.517
 1590W        W 5790   4.811   5.139   0.523
 1591W        W 5791   0.816   4.525   9.895
 1592W        W 5792   1.524   1.865   1.148
 1593W        W 5793   3.994   2.637   9.072
 1594W        W 5794   4.426   6.622   9.059
 1595W        W 5795   9.483   0.075   9.903
 1596W        W 5796  10.571   8.553   0.820
 1597W        W 5797  10.794   2.694   0.709
 1598W        W 5798   0.899  11.082   3.279
 1599W        W 5799   9.007  11.350   2.217
 1600W        W 5800  10.416   3.822  10.845
 1601W        W 5801   1.722   7.261  10.710
 1602W        W 5802   0.867  11.362   2.446
 1603W        W 5803   4.017   1.083   1.216
 1604W        W 5804   0.099   4.607   9.188
 1605W        W 5805  11.382  10.840   1.319
 1606W        W 5806   1.280   8.641  11.392
 1607W        W 5807   1.844   3.388   8.878
 1608W        W 5808   4.345   2.273  10.499
 1609W        W 5809   0.689   3.286   3.181
 1610W        W 5810   2.974   9.533   2.748
 1611W        W 5811   7.610   7.202  11.972
 1612W        W 5812   1.646   0.170  10.749
 1613W        W 5813   7.395   9.838  11.554
 1614W        W 5814  11.400   4.544  11.480
 1615W        W 5815  11.040   2.026   8.963
 1616W        W 5816   8.616   6.432  10.216
 1617W        W 5817   0.260  11.004  11.947
 1618W        W 5818   2.704   6.369   3.961
 1619W        W 5819   4.630   7.047  11.593
 1620W        W 5820   9.850   1.225   1.684
 1621W        W 5821   5.219   1.315   2.792
 1622W        W 5822   1.709   4.893   1.856
 1623W        W 5823   3.760   9.880   2.642
 1624W        W 5824   8.847   2.825   2.323
 1625W        W 5825   4.508   8.233   9.038
 1626W        W 5826   6.730   3.591   9.434
 1627W        W 5827   9.812   6.971   9.089
 1628W        W 5828   4.441   2.758   9.275
 1629W        W 5829   8.619   8.877   2.446
 1630W        W 5830   2.210   0.976  10.358
 1631W        W 5831   2.527   4.505   0.547
 1632W        W 5832   6.060   7.943   9.525
 1633W        W 5833   1.549   1.313   2.241
 1634W        W 5834   4.314   1.462   1.752
 1635W        W 5835   1.446   8.646   1.504
 1636W        W 5836   2.893   2.351  11.602
 1637W        W 5837   8.379   1.384   3.389
 1638W        W 5838   5.004   7.236   9.641
 1639W        W 5839   2.532   3.534   2.593
 1640W        W 5840  10.326   7.947   0.420
 1641W        W 5841   3.839   5.969   0.458
 1642W        W 5842   3.814   0.904  10.882
 1643W        W 5843   5.431   3.308   1.609
 1644W        W 5844   7.276   3.820  11.347
 1645W        W 5845   3.556   0.844   3.380
 1646W        W 5846   2.193   1.767  11.017
 1647W        W 5847   2.241   5.223   0.199
 1648W        W 5848   0.025   4.226  10.255
 1649W        W 5849   2.808   5.055   2.560
 1650W        W 5850   7.933   5.053   9.526
 1651W        W 5851   2.890   9.875   0.889
 1652W        W 5852   4.031   9.839   0.071
 1653W        W 5853   9.086   3.949  11.259
 1654W        W 5854  10.782  10.706   9.161
 1655W        W 5855  11.487   0.050   3.569
 1656W        W 5856   0.538   7.479   0.225
 1657W        W 5857   4.713   2.101  10.793
 1658W        W 5858   8.097   3.176   1.170
 1659W        W 5859   9.154   6.244   2.800
 1660W        W 5860   1.655   8.257   8.797
 1661W        W 5861  10.901   5.753   9.993
 1662W        W 5862   5.533   0.258   0.463
 1663W        W 5863   2.203   8.140   2.797
 1664W        W 5864   0.385  11.260   3.720
 1665W        W 5865   1.060   2.246   2.341
 1666W        W 5866   8.003   7.559   2.163
 1667W        W 5867   9.084   1.992   2.646
 1668W        W 5868   2.326   5.576  11.435
 1669W        W 5869   6.308   8.318  10.330
 1670W        W 5870   8.091   8.001  11.576
 1671W        W 5871   0.326   4.209   3.392
 1672W        W 5872  11.464   5.194   2.803
 1673W        W 5873   2.920  10.191   0.430
 1674W        W 5874   6.090   3.020   2.370
 1675W        W 5875   2.022   4.800   2.742
 1676W        W 5876   9.029  11.148  11.294
 1677W        W 5877   4.750   9.899   2.978
 1678W        W 5878   8.357   7.618  10.737
 1679W        W 5879   4.793   9.368   9.754
 1680W        W 5880   8.099   0.663  11.662
 1681W        W 5881   1.676   9.558   9.627
 1682W        W 5882   7.559   2.003   3.469
 1683W        W 5883   8.932   1.455   8.821
 1684W        W 5884   1.985   7.643   9.920
 1685W        W 5885   0.030  10.937  10.645
 1686W        W 5886   0.219   0.268  11.013
 1687W        W 5887   4.300  10.496   9.056
 1688W        W 5888   6.602   4.383   8.447
 1689W        W 5889   8.611  11.396  11.442
 1690W        W 5890   4.689   2.092   8.458
 1691W        W 5891   9.431   4.137   3.129
 1692W        W 5892   9.036   8.766   9.383
 1693W        W 5893   2.090   7.194   1.875
 1694W        W 5894   9.560   2.627  10.859
 1695W        W 5895   3.272   2.912   1.350
 1696W        W 5896   7.068   1.810   9.463
 1697W        W 5897   3.553   3.846  11.812
 1698W        W 5898  11.111   4.982  10.487
 1699W        W 5899   8.949   9.083   3.461
 1700W        W 5900  11.216   9.331   2.464
 1701W        W 5901   4.225   2.492   3.151
 1702W        W 5902   0.305   7.521   0.741
 1703W        W 5903   3.058   6.167   9.347
 1704W        W 5904   1.320   0.318  11.732
 1705W        W 5905  10.471   9.378   1.268
 1706W        W 5906   9.005   3.766  10.791
 1707W        W 5907   6.009   2.305  10.099
 1708W        W 5908  11.275   3.304  10.073
 1709W        W 5909   8.823   7.105   2.549
 1710W        W 5910   8.355   9.875  11.308
 1711W        W 5911   2.747  11.391   0.702
 1712W        W 5912   7.518   2.709   2.671
 1713W        W 5913  10.522   9.552   8.752
 1714W        W 5914   4.629   8.621   3.344
 1715W        W 5915   0.399   1.943   3.332
 1716W        W 5916   2.358   2.833   1.324
 1717W        W 5917   6.088   9.309  11.095
 1718W        W 5918   7.326   7.802   1.440
 1719W        W 5919   6.122   0.529   8.723
 1720W        W 5920   6.462  10.902   8.811
 1721W        W 5921   7.977   0.439   8.880
 1722W        W 5922   7.126   7.255   9.369
 1723W        W 5923   5.954   7.571   0.247
 1724W        W 5924   1.731   7.415   2.993
 1725W        W 5925  10.463   3.134   2.376
 1726W        W 5926   1.364   9.708   3.816
 1727W        W 5927  10.679   6.967   1.388
 1728W        W 5928   8.368   6.868   9.338
 1729W        W 5929   7.116  10.046   9.079
 1730W        W 5930   4.444   8.149   3.214
 1731W        W 5931   4.578   7.095  10.519
 1732W        W 5932   2.874   9.415  10.901
 1733W        W 5933   3.069   9.983  11.032
 1734W        W 5934   8.143   6.653  10.412
 1735W        W 5935  11.293   1.408   1.818
 1736W        W 5936   4.213   7.663   3.126
 1737W        W 5937   2.150   7.136   0.980
 1738W        W 5938   0.336   1.301   9.406
 1739W        W 5939  11.045  11.251   1.280
 1740W        W 5940   4.482   5.285   0.961
 1741W        W 5941   5.221   7.849   1.629
 1742W        W 5942   9.715   5.493   9.444
 1743W        W 5943   9.122   4.882   8.713
 1744W        W 5944  11.317   5.464  10.391
 1745W        W 5945  10.721   0.573   2.513
 1746W        W 5946   8.254   1.491   2.230
 1747W        W 5947   9.634   7.135  11.812
 1748W        W 5948   1.770   0.570  11.511
 1749W        W 5949   8.547   0.449   2.244
 1750W        W 5950  10.944   7.209   3.130
 1751W        W 5951  10.853   9.143   2.748
 1752W        W 5952   1.726   2.678  11.150
 1753W        W 5953   2.598   7.226   2.799
 1754W        W 5954   6.486   0.161   0.967
 1755W        W 5955   8.629   1.020   1.581
 1756W        W 5956   7.092   8.916  10.756
 1757W        W 5957   9.009   7.437   9.085
 1758W        W 5958   4.893   3.239   3.653
 1759W        W 5959   0.373   8.594  11.844
 1760W        W 5960   5.624   2.761   2.355
 1761W        W 5961  11.423   5.963   0.554
 1762W        W 5962   1.443   2.729   2.503
 1763W        W 5963   1.460   7.157   8.544
 1764W        W 5964   7.186   3.352  11.118
 1765W        W 5965  10.836   7.470  11.806
 1766W        W 5966   6.668   0.542   0.677
 1767W        W 5967   4.355   2.061  11.925
 1768W        W 5968  10.088   6.848  10.317
 1769W        W 5969   1.756  11.287  11.940
 1770W        W 5970   2.216   5.662   0.475
 1771W        W 5971   3.095  11.425  10.132
 1772W        W 5972   3.193   6.467   1.165
 1773W        W 5973  10.878   3.843   3.100
 1774W        W 5974   3.669   9.810   0.413
 1775W        W 5975   3.319   3.747   2.043
 1776W        W 5976   3.401  11.160  11.533
 1777W        W 5977   3.364   4.247   1.787
 1778W        W 5978   3.606   4.810   0.165
 1779W        W 5979   2.967   4.245   0.437
 1780W        W 5980   2.454  11.441   1.850
 1781W        W 5981   8.384   3.127   2.197
 1782W        W 5982   6.273  10.927   1.843
 1783W        W 5983   3.270  11.027   2.046
 1784W        W 5984   0.877   3.211   9.980
 1785W        W 5985   7.988  10.474  10.037
 1786W        W 5986   7.409   8.980  10.361
 1787W        W 5987   8.161   5.167   2.719
 1788W        W 5988   5.701  10.351   9.491
 1789W        W 5989   6.642   7.303   9.181
 1790W        W 5990   2.085   5.624   2.436
 1791W        W 5991   5.431   5.129  11.349
 1792W        W 5992   6.257   0.855   1.417
 1793W        W 5993   7.869   4.548   0.706
 1794W        W 5994   4.134   5.143  10.037
 1795W        W 5995   6.175   3.303  11.248
 1796W        W 5996  10.409   0.259   2.242
 1797W        W 5997   4.230  10.590   0.551
 1798W        W 5998   2.825   5.052   9.878
 1799W        W 5999   7.673   7.562   2.726
 1800W        W 6000   0.507   1.494  10.819
 1801W        W 6001   2.480   9.829   9.361
 1802W        W 6002   9.076   0.378   9.964
 1803W        W 6003   8.951  10.508  10.312
 1804W        W 6004   9.412   1.505   9.588
 1805W        W 6005  11.269   0.975   8.860
 1806W        W 6006   8.565   3.315   9.429
 1807W        W 6007   0.286   5.757  11.343
 1808W        W 6008   4.346   8.334  10.062
 1809W        W 6009   1.534   7.800  11.472
 1810W        W 6010   6.882   3.312   0.486
 1811W        W 6011   8.055   0.660   1.020
 1812W        W 6012   9.975  10.984   9.447
 1813W        W 6013   2.830   3.933   1.976
 1814W        W 6014   5.474   5.295   0.774
 1815W        W 6015   9.524   7.063   4.267
 1816W        W 6016   8.122  10.569   9.182
 1817W        W 6017   5.609   5.722  11.981
 1818W        W 6018  10.008   9.997   0.213
 1819W        W 6019   3.733  11.328   2.178
 1820W        W 6020   3.771   1.229  11.962
 1821W        W 6021   6.299   4.333   1.760
 1822W        W 6022   1.914   2.647   2.272
 1823W        W 6023   3.720   0.197   0.805
 1824W        W 6024  11.468   2.138   0.308
 1825W        W 6025   0.810   9.580   0.316
 1826W        W 6026   9.332   5.506  10.493
 1827W        W 6027   4.242   9.601   1.490
 1828W        W 6028   7.898   4.942  11.876
 1829W        W 6029   7.765   8.628   1.274
 1830W        W 6030   0.398   5.211   2.325
 1831W        W 6031   5.018   1.007   9.433
 1832W        W 6032   2.091   7.460   1.394
 1833W        W 6033   5.093   8.475   3.456
 1834W        W 6034   0.580   8.380  10.510
 1835W        W 6035   6.109   4.050  10.135
 1836W        W 6036  10.002   4.620  11.074
 1837W        W 6037   5.996   3.292   0.934
 1838W        W 6038   7.612  10.478   0.721
 1839W        W 6039   5.301   6.956   0.366
 1840W        W 6040   6.020   2.383  11.752
 1841W        W 6041   4.674   4.790  11.571
 1842W        W 6042   1.563   0.831  11.914
 1843W        W 6043   3.615   5.091  11.289
 1844W        W 6044   5.422   5.728   9.169
 1845W        W 6045  10.244   0.378  11.020
 1846W        W 6046   6.266   6.556   3.300
 1847W        W 6047   6.489   5.561  11.026
 1848W        W 6048   8.008   0.561   2.441
 1849W        W 6049   8.692   2.431   9.374
 1850W        W 6050  11.305   7.026  10.275
 1851W        W 6051   9.540   3.283   1.309
 1852W        W 6052   9.107   6.022   4.073
 1853W        W 6053  11.389  10.365   1.523
 1854W        W 6054   7.162   6.864   0.410
 1855W        W 6055   1.947   5.539  10.817
 1856W        W 6056   8.674   3.238  10.771
 1857W        W 6057   9.083   3.702   2.479
 1858W        W 6058   4.113   0.352  11.473
 1859W        W 6059   3.341   2.375   1.313
 1860W        W 6060   0.390   4.181   2.023
 1861W        W 6061   5.198   6.707   1.621
 1862W        W 6062   6.576   6.830   1.610
 1863W        W 6063  10.091   8.167   0.805
 1864W        W 6064   3.143   1.244   8.832
 1865W        W 6065   4.521   9.508   8.467
 1866W        W 6066   6.155   2.191   0.259
 1867W        W 6067  10.743   0.431  10.955
 1868W        W 6068   8.600   9.977   8.856
 1869W        W 6069   1.178   5.263   9.033
 1870W        W 6070   3.705   9.279   8.965
 1871W        W 6071   5.019  11.280   0.015
 1872W        W 6072  10.324   3.096   0.030
 1873W        W 6073   6.881   2.236  11.624
 1874W        W 6074   2.286   1.267  11.172
 1875W        W 6075   7.127   2.700  11.744
 1876W        W 6076   4.159   3.331   0.376
 1877W        W 6077   4.482   3.520   1.248
 1878W        W 6078   5.311   2.091   3.085
 1879W        W 6079   3.511   2.848   9.470
 1880W        W 6080   9.643   6.233   1.887
 1881W        W 6081   3.115   8.729   8.677
 1882W        W 6082   2.712   9.464  11.457
 1883W        W 6083  10.310  10.035  10.482
 1884W        W 6084   0.295   6.724  11.015
 1885W        W 6085   2.360   9.882   0.892
 1886W        W 6086  10.082   9.523   0.394
 1887W        W 6087   0.355   2.323   0.619
 1888W        W 6088   1.933   0.157   0.411
 1889W        W 6089   9.470   9.399   2.646
 1890W        W 6090  11.407   6.621   9.963
 1891W        W 6091   3.096   8.402   2.386
 1892W        W 6092   3.099   8.498  11.841
 1893W        W 6093   5.629   1.672   0.226
 1894W        W 6094   3.020   4.929   3.828
 1895W        W 6095   4.730   6.121  10.266
 1896W        W 6096   1.632   6.780  10.579
 1897W        W 6097   2.293   6.223   1.731
 1898W        W 6098   1.175   3.685   2.958
 1899W        W 6099   4.317   3.160  11.491
 1900W        W 6100   7.447   6.118   8.645
 1901W        W 6101   9.912  10.922  10.379
 1902W        W 6102   5.862   7.137   3.464
 1903W        W 6103   2.308   8.577   1.659
 1904W        W 6104   1.852   6.112   2.470
 1905W        W 6105   1.314   0.955   1.513
 1906W        W 6106   6.973   4.255  11.331
 1907W        W 6107   6.116   1.298   2.619
 1908W        W 6108   8.623   5.339   1.475
 1909W        W 6109   5.809   3.822  10.529
 1910W        W 6110   3.191   0.716  11.458
 1911W        W 6111   4.713   3.708   3.491
 1912W        W 6112   5.909   4.573   3.439
 1913W        W 6113   0.459   1.451   1.236
 1914W        W 6114   9.523  10.055  11.811
 1915W        W 6115   2.777   8.108  10.799
 1916W        W 6116   2.247   3.509  11.436
 1917W        W 6117   3.629   5.243  11.830
 1918W        W 6118   2.487   4.735  10.102
 1919W        W 6119   7.995   9.569   3.468
 1920W        W 6120   1.112   2.217  10.029
 1921W        W 6121   1.615   9.413   9.135
 1922W        W 6122   7.195   4.217   3.258
 1923W        W 6123   2.262   1.468   9.462
 1924W        W 6124   7.365  11.335   3.041
 1925W        W 6125   3.250   5.257   9.620
 1926W        W 6126   2.510   7.697   9.886
 1927W        W 6127   1.408   8.310   2.805
 1928W        W 6128   2.022   5.625   9.973
 1929W        W 6129   2.376   2.327   1.206
 1930W        W 6130   2.177   6.668   9.917
 1931W        W 6131   0.753   9.968  10.528
 1932W        W 6132   4.707   7.942   2.375
 1933W        W 6133   2.098   6.169  10.026
 1934W        W 6134  10.733   5.878   9.426
 1935W        W 6135   0.251   8.419   3.463
 1936W        W 6136   1.447   2.313   1.380
 1937W        W 6137   3.086   5.071   3.341
 1938W        W 6138   0.686   8.606   2.740
 1939W        W 6139   1.393   4.872   1.436
 1940W        W 6140   9.052   8.464   8.957
 1941W        W 6141   3.177   4.036   3.234
 1942W        W 6142   5.637   8.054   3.955
 1943W        W 6143  10.045   4.568   8.935
 1944W        W 6144   8.150   9.751   9.562
 1945W        W 6145  10.765  11.402   9.443
 1946W        W 6146   0.323   6.584   1.623
 1947W        W 6147   7.393   2.185   9.887
 1948W        W 6148   9.596   9.075   8.537
 1949W        W 6149   8.115   5.234   9.974
 1950W        W 6150   3.942   9.473   2.888
 1951W        W 6151   0.374   6.561   0.962
 1952W        W 6152  10.912   9.022   3.230
 1953W        W 6153   0.431   2.812   8.873
 1954W        W 6154   3.299  11.443   0.386
 1955W        W 6155   0.776   5.891  11.279
 1956W        W 6156   6.455   8.458   0.418
 1957W        W 6157   6.449   1.727   2.563
 1958W        W 6158   6.598   2.732  11.099
 1959W        W 6159   2.826   8.431  10.410
 1960W        W 6160   6.054   5.514   2.196
 1961W        W 6161   0.937   2.200  10.535
 1962W        W 6162   4.769  10.410   2.974
 1963W        W 6163   4.673   9.348   0.687
 1964W        W 6164   8.910  10.405   9.783
 1965W        W 6165   2.020   2.165   2.464
 1966W        W 6166   8.648  10.749  10.781
 1967W        W 6167   1.259   0.477   1.357
 1968W        W 6168   5.651   0.937   3.249
 1969W        W 6169   8.380  10.323   2.124
 1970W        W 6170   4.387   1.342   0.364
 1971W        W 6171   0.402   1.264   2.969
 1972W        W 6172   1.194   5.840   8.487
 1973W        W 6173   4.170   3.687   0.734
 1974W        W 6174   7.452   5.069   8.915
 1975W        W 6175   4.757   4.415  11.910
 1976W        W 6176   2.682   3.512  10.871
 1977W        W 6177   3.174   9.557  11.293
 1978W        W 6178   5.615   8.503   1.257
 1979W        W 6179  10.582   0.034  11.771
 1980W        W 6180   9.006   4.419   3.127
 1981W        W 6181  11.114   4.573   9.041
 1982W        W 6182  11.118   0.544   0.894
 1983W        W 6183   1.511   0.633  10.942
 1984W        W 6184   2.770   5.385  10.274
 1985W        W 6185   3.113   5.109   1.141
 1986W        W 6186   8.244   5.239   1.874
 1987W        W 6187   9.826   0.937   3.484
 1988W        W 6188   1.876   7.950   9.143
 1989W        W 6189   2.214   4.337  11.991
 1990W        W 6190   2.815   2.260   0.897
 1991W        W 6191   4.390   9.508  10.064
 1992W        W 6192   8.537   9.879   2.380
 1993W        W 6193   0.062  10.425   1.019
 1994W        W 6194   5.151   7.660  11.087
 1995W        W 6195   1.872   1.373  10.879
 1996W        W 6196   4.124   3.151   1.409
 1997W        W 6197   7.269   9.273   0.164
 1998W        W 6198   6.741   1.389   9.588
 1999W        W 6199  10.198   1.801  11.735
 2000W        W 6200  10.506  10.928   9.554
 2001W        W 6201   1.873   1.366  10.350
 2002W        W 6202   4.750   6.711   0.397
 2003W        W 6203   0.246   6.972   0.697
 2004W        W 6204  11.263   4.572   2.390
 2005W        W 6205  10.071   8.125   2.152
 2006W        W 6206   3.355   5.121   2.349
 2007W        W 6207  10.095   8.726   1.517
 2008W        W 6208   5.653  10.968   2.933
 2009W        W 6209  11.004  11.400   2.791
 2010W        W 6210  10.885  10.295   1.323
 2011W        W 6211   5.022  10.963  11.319
 2012W        W 6212   8.159   8.948   1.301
 2013W        W 6213   8.688   8.137   9.127
 2014W        W 6214   6.039   8.233   1.213
 2015W        W 6215   8.853   3.778   0.921
 2016W        W 6216   2.296   3.804  11.005
 2017W        W 6217   9.797   2.560   1.813
 2018W        W 6218   1.187   4.727   3.073
 2019W        W 6219   4.254   4.588   0.912
 2020W        W 6220   7.115  10.954   0.200
 2021W        W 6221   8.996  11.352   9.991
 2022W        W 6222  11.323   2.359   9.938
 2023W        W 6223   7.249   4.109   1.543
 2024W        W 6224   1.216   6.943   9.998
 2025W        W 6225   3.251   8.984   2.861
 2026W        W 6226   2.428   0.188   0.967
 2027W        W 6227   3.748   5.743   1.946
 2028W        W 6228  10.002   3.617   9.074
 2029W        W 6229   6.082   0.864   1.920
 2030W        W 6230  10.017   3.678  10.022
 2031W        W 6231   8.454  10.045   0.784
 2032W        W 6232   4.811   2.081   0.160
 2033W        W 6233   6.686   8.650   9.419
 2034W        W 6234   1.697   8.852   0.296
 2035W        W 6235   4.387   5.897   2.500
 2036W        W 6236  10.850   1.201   9.094
 2037W        W 6237  11.036   7.386   0.314
 2038W        W 6238  11.106   5.550   9.542
 2039W        W 6239   9.085   7.937  11.232
 2040W        W 6240   5.804   4.868   9.576
 2041W        W 6241   5.743   3.837   9.391
 2042W        W 6242   0.254   5.547   0.554
 2043W        W 6243   9.607   8.853   9.889
 2044W        W 6244   1.802   6.259   0.515
 2045W        W 6245   3.865   7.525  10.118
 2046W        W 6246   7.183   1.706   9.950
 2047W        W 6247   0.147   5.126   0.063
 2048W        W 6248   3.487   0.775   9.547
 2049W        W 6249   3.633   3.287   1.346
 2050W        W 6250  10.344  10.611   8.706
 2051W        W 6251   6.913   4.924  10.724
 2052W        W 6252   9.114   8.583   1.347
 2053W        W 6253   9.616   3.243   8.951
 2054W        W 6254   1.440   5.240  10.945
 2055W        W 6255   4.662   3.688   2.947
 2056W        W 6256   0.589   5.991  11.749
 2057W        W 6257   2.340   4.312  11.049
 2058W        W 6258   1.834   4.640   2.302
 2059W        W 6259   6.490   8.864   8.912
 2060W        W 6260   8.185   3.310  10.939
 2061W        W 6261   9.216   5.548  11.746
 2062W        W 6262   8.300   4.407   1.470
 2063W        W 6263   3.272   4.675  11.340
 2064W        W 6264   9.550   5.031  10.508
 2065W        W 6265   8.507   0.579   0.788
 2066W        W 6266   8.329   8.020   0.447
 2067W        W 6267   5.451   3.277   2.109
 2068W        W 6268   8.159  10.454   0.934
 2069W        W 6269   6.861   0.735  10.743
 2070W        W 6270   8.289   3.766   3.494
 2071W        W 6271   7.565  10.244   2.176
 2072W        W 6272   9.126   5.205   0.976
 2073W        W 6273   8.792  10.018   3.499
 2074W        W 6274   0.110   7.995   8.658
 2075W        W 6275   3.737   7.646   8.832
 2076W        W 6276   9.891   5.186   8.759
 2077W        W 6277   3.514  11.359   3.544
 2078W        W 6278   8.012   3.110  11.377
 2079W        W 6279  10.105   0.427   1.839
 2080W        W 6280   1.043   4.116   1.023
 2081W        W 6281   7.764  11.161  10.523
 2082W        W 6282   9.984   3.711  10.567
 2083W        W 6283   6.634   3.174   8.669
 2084W        W 6284   7.582   8.083   2.755
 2085W        W 6285   4.476   1.367  10.327
 2086W        W 6286   8.356   2.392   0.880
 2087W        W 6287   3.319  10.457   2.946
 2088W        W 6288   4.053   8.636  11.491
 2089W        W 6289  11.201   6.963   1.320
 2090W        W 6290  10.854   2.098   2.702
 2091W        W 6291   5.793   6.598   3.094
 2092W        W 6292   6.209   9.416   4.092
 2093W        W 6293   6.302  10.502   2.975
 2094W        W 6294   2.358   9.690   2.823
 2095W        W 6295   8.885   4.067   8.507
 2096W        W 6296   3.275   8.956  11.950
 2097W        W 6297   4.774   4.790  10.314
 2098W        W 6298   0.305   6.247   3.326
 2099W        W 6299   1.641   3.055   3.573
 2100W        W 6300   9.586   8.026  11.780
 2101W        W 6301   2.178   9.371   2.170
 2102W        W 6302   8.617   8.036  10.973
 2103W        W 6303   2.730   8.185   9.975
 2104W        W 6304   2.922   9.446   1.176
 2105W        W 6305   6.126   1.664   1.537
 2106W        W 6306   6.575   1.880   3.474
 2107W        W 6307  10.352   2.683   2.628
 2108W        W 6308   3.144   3.414   1.248
 2109W        W 6309   7.992   2.590  11.300
 2110W        W 6310   5.985   6.212  11.084
 2111W        W 6311   2.768   3.318   3.013
 2112W        W 6312   0.474  10.468   9.644
 2113W        W 6313  11.366   9.516   1.181
 2114W        W 6314   6.333   7.116  11.517
 2115W        W 6315   0.328   2.626   0.221
 2116W        W 6316   9.416   6.059   1.002
 2117W        W 6317   2.600   8.514   0.014
 2118W        W 6318   4.632   8.091   1.001
 2119W        W 6319   6.844   3.486   0.008
 2120W        W 6320   2.009   5.591   8.741
 2121W        W 6321  10.930   0.319  11.419
 2122W        W 6322   9.086   7.592  10.651
 2123W        W 6323   5.308   0.848   0.400
 2124W        W 6324   7.341  10.500   0.271
 2125W        W 6325  10.699   1.833  11.825
 2126W        W 6326   5.671   6.715   0.064
 2127W        W 6327   9.816   4.096   8.872
 2128W        W 6328   7.694   6.431   9.712
 2129W        W 6329   9.391   2.949   0.379
 2130W        W 6330   7.946   7.220  10.058
 2131W        W 6331   1.792   8.100   2.514
 2132W        W 6332   5.576   3.527  10.901
 2133W        W 6333   9.800   1.711   1.049
 2134W        W 6334   1.368   6.234   0.227
 2135W        W 6335   5.293   8.661   9.463
 2136W        W 6336   3.432   0.519   8.763
 2137W        W 6337   3.391   9.518   1.396
 2138W        W 6338   8.013   2.629   2.851
 2139W        W 6339   2.351   1.579   1.961
 2140W        W 6340   9.866   9.388  11.504
 2141W        W 6341   4.992   3.771   8.324
 2142W        W 6342   0.271   1.335   0.405
 2143W        W 6343   2.569   4.236   9.269
 2144W        W 6344   3.689   5.260   9.860
 2145W        W 6345   5.935   5.804  10.775
 2146W        W 6346   5.585   6.211   2.281
 2147W        W 6347   2.170   0.747   2.322
 2148W        W 6348   8.929   6.712   2.204
 2149W        W 6349   3.703   5.581  11.385
 2150W        W 6350   5.769   1.650  10.666
 2151W        W 6351   0.806   7.917   0.229
 2152W        W 6352  11.296   1.931   2.506
 2153W        W 6353   6.978   5.058   1.014
 2154W        W 6354  11.189   2.421  11.533
 2155W        W 6355   7.065   8.161   2.930
 2156W        W 6356   9.482   6.425   1.366
 2157W        W 6357   1.200   3.632   9.941
 2158W        W 6358   7.701   5.625   2.071
 2159W        W 6359   3.392   9.066   1.081
 2160W        W 6360   2.932   3.883   1.137
 2161W        W 6361   9.493   9.963   0.867
 2162W        W 6362   5.248   8.764   3.086
 2163W        W 6363   8.802   8.224   0.543
 2164W        W 6364   6.955   9.389   1.998
 2165W        W 6365   5.648   1.517   0.741
 2166W        W 6366   7.451   8.059   9.556
 2167W        W 6367   2.134  10.577   3.565
 2168W        W 6368   8.366   1.209   2.901
 2169W        W 6369   9.226   5.581   9.353
 2170W        W 6370  10.485   9.329   0.697
 2171W        W 6371   8.601   5.947   3.597
 2172W        W 6372   2.264   6.328  10.866
 2173W        W 6373   7.994   4.759   3.046
 2174W        W 6374   5.322   2.412   0.337
 2175W        W 6375   9.543   6.497   3.078
 2176W        W 6376  11.284   3.975   0.223
 2177W        W 6377  10.808   3.642   1.488
 2178W        W 6378   6.542   7.377  10.540
 2179W        W 6379   9.536  10.765  11.071
 2180W        W 6380   5.661   0.499   8.987
 2181W        W 6381   1.871   5.872  10.387
 2182W        W 6382   6.920   9.734  10.006
 2183W        W 6383   3.700   1.928   1.157
 2184W        W 6384   6.410   4.243  11.350
 2185W        W 6385   2.475  10.738   2.273
 2186W        W 6386   1.916   8.965   9.063
 2187W        W 6387   5.351   4.163   1.442
 2188W        W 6388   6.145   5.452   3.160
 2189W        W 6389  10.847  10.040  10.437
 2190W        W 6390   4.534   0.841   9.481
 2191W        W 6391   5.776   2.384   3.115
 2192W        W 6392   1.679   6.685  10.082
 2193W        W 6393   4.629   5.711   9.971
 2194W        W 6394   3.105   7.999   2.732
 2195W        W 6395   1.436  10.275   1.682
 2196W        W 6396   0.831   3.165   1.918
 2197W        W 6397   7.819   8.576   2.839
 2198W        W 6398   8.987   3.139  11.614
 2199W        W 6399  10.488   4.192   0.404
 2200W        W 6400   9.081   7.954  11.753
 2201W        W 6401  10.029   1.562   2.918
 2202W        W 6402   0.675   8.833   9.558
 2203W        W 6403   9.311   9.933   1.335
 2204W        W 6404   6.249   2.362   9.167
 2205W        W 6405   8.854   5.548   0.628
 2206W        W 6406  10.528   1.520   8.800
 2207W        W 6407   3.613  10.238   3.462
 2208W        W 6408   3.721   8.576   1.736
 2209W        W 6409   8.706   1.007  10.321
 2210W        W 6410   5.176   7.677   2.121
 2211W        W 6411   7.170  10.048  10.483
 2212W        W 6412  10.320   6.186   9.471
 2213W        W 6413   2.834   1.498   9.933
 2214W        W 6414  10.353   6.038   1.688
 2215W        W 6415  10.063   2.473   3.314
 2216W        W 6416   5.592   2.180  10.380
 2217W        W 6417   0.841   2.688  10.168
 2218W        W 6418   5.663   8.967   1.472
 2219W        W 6419   9.094   6.272   0.376
 2220W        W 6420  11.018   8.347  11.925
 2221W        W 6421  10.872   1.615  10.049
 2222W        W 6422  10.977   8.059   8.819
 2223W        W 6423   3.648   1.657  11.716
 2224W        W 6424  10.027  10.319  11.058
 2225W        W 6425  10.860   4.762   1.137
 2226W        W 6426   9.968   0.885   2.048
 2227W        W 6427   7.442   4.806   3.277
 2228W        W 6428   1.609   7.582   1.201
 2229W        W 6429   7.165   2.850   9.341
 2230W        W 6430  10.524  11.309   1.370
 2231W        W 6431   1.261   9.096   0.195
 2232W        W 6432   1.302   2.920  10.787
 2233W        W 6433   5.659   9.685  11.936
 2234W        W 6434   2.398  10.031   1.827
 2235W        W 6435   5.648  11.031  11.848
 2236W        W 6436   8.882   1.962  10.857
 2237W        W 6437   3.832   6.245   9.978
 2238W        W 6438   7.463   1.516   3.317
 2239W        W 6439   7.266   1.420   1.781
 2240W        W 6440  10.071   3.208   8.717
 2241W        W 6441   3.228   8.141  11.113
 2242W        W 6442   6.577   0.766   1.812
 2243W        W 6443   7.617   1.379   0.328
 2244W        W 6444   6.395   3.192   0.491
 2245W        W 6445   6.147   5.549   1.248
 2246W        W 6446   3.339   0.710  10.964
 2247W        W 6447   4.152   2.410   1.874
 2248W        W 6448   9.859   3.091   0.930
 2249W        W 6449   4.065   9.955   3.338
 2250W        W 6450   3.449   6.072  11.444
 2251W        W 6451   4.955   4.112   4.060
 2252W        W 6452   0.600   6.512   0.458
 2253W        W 6453   9.961   7.613   8.637
 2254W        W 6454   4.761   8.943   2.533
 2255W        W 6455   8.156   9.166  10.782
 2256W        W 6456   3.716   2.383   9.468
 2257W        W 6457   3.964   3.831   9.269
 2258W        W 6458   5.264   2.128   2.313
 2259W        W 6459   9.942   4.744   9.696
 2260W        W 6460   9.404  11.478   9.008
 2261W        W 6461   4.729  10.815   8.899
 2262W        W 6462   3.718   1.238  10.264
 2263W        W 6463   5.940   3.673   9.835
 2264W        W 6464   9.695   4.190   3.576
 2265W        W 6465   0.400   8.146  10.918
 2266W        W 6466   0.163   4.172  10.754
 2267W        W 6467   0.111   8.823   1.432
 2268W        W 6468   3.787   8.109   1.287
 2269W        W 6469   8.185  11.263   0.342
 2270W        W 6470   5.750  11.368   9.482
 2271W        W 6471   2.654   9.983   3.169
 2272W        W 6472  10.296   5.489  11.481
 2273W        W 6473   5.981   0.794   3.622
 2274W        W 6474   1.519   0.549  10.432
 2275W        W 6475   8.239  10.324   8.697
 2276W        W 6476   1.880   6.024   3.336
 2277W        W 6477   5.621   7.948   0.453
 2278W        W 6478   0.648   6.986  11.256
 2279W        W 6479   5.850   5.311   2.688
 2280W        W 6480   6.680   4.138  10.911
 2281W        W 6481   2.173   2.797  10.917
 2282W        W 6482   9.285  10.870   0.786
 2283W        W 6483   8.985   7.049   1.819
 2284W        W 6484   6.479   0.637  11.259
 2285W        W 6485   5.201   0.913  10.910
 2286W        W 6486   3.206   0.850   2.120
 2287W        W 6487   8.085   5.957  11.048
 2288W        W 6488   3.639   2.607   9.926
 2289W        W 6489   5.480   0.426   2.278
 2290W        W 6490   6.070   1.911  11.502
 2291W        W 6491   0.980   1.739   1.060
 2292W        W 6492  10.726   6.281  11.282
 2293W        W 6493   0.781   7.514   9.506
 2294W        W 6494   0.208   8.545   2.965
 2295W        W 6495   3.855   9.435   1.205
 2296W        W 6496   2.265   2.329  10.024
 2297W        W 6497   4.886   4.311   1.687
 2298W        W 6498   6.022   4.572   0.366
 2299W        W 6499  10.220   6.998   0.265
 2300W        W 6500   3.152   4.243   9.632
 2301W        W 6501   0.826   7.639   0.714
 2302W        W 6502   1.099   7.501   0.221
 2303W        W 6503   0.187   4.790   2.556
 2304W        W 6504   6.975   6.597  10.414
 2305W        W 6505   8.391   1.904   1.012
 2306W        W 6506   2.255   0.208   2.965
 2307W        W 6507   9.789   5.766   0.255
 2308W        W 6508   9.994  11.441   0.639
 2309W        W 6509   5.086   0.217  11.726
 2310W        W 6510   1.458   3.005  10.287
 2311W        W 6511   7.674  11.213   3.408
 2312W        W 6512   3.149   9.997   1.335
 2313W        W 6513  10.468  11.040   2.899
 2314W        W 6514   4.013   5.037   1.025
 2315W        W 6515   9.426  11.036   2.328
 2316W        W 6516   2.810   6.768  11.361
 2317W        W 6517   4.406   0.713   1.371
 2318W        W 6518   9.997   5.687  10.822
 2319W        W 6519   0.768   6.565   2.278
 2320W        W 6520   5.636   8.501   2.303
 2321W        W 6521   4.132   9.395  11.853
 2322W        W 6522   2.850   1.846  10.814
 2323W        W 6523   1.916   2.588   1.336
 2324W        W 6524   2.853   2.614   1.278
 2325W        W 6525   2.811   2.829  10.312
 2326W        W 6526  11.371   5.646   9.098
 2327W        W 6527  10.330  10.980   0.952
 2328W        W 6528   1.820   4.617   9.411
 2329W        W 6529  10.852   1.376   0.511
 2330W        W 6530   4.435   7.135   3.117
 2331W        W 6531   4.200   0.358   9.284
 2332W        W 6532   9.045   4.921   3.259
 2333W        W 6533  10.502   8.939   2.428
 2334W        W 6534   8.490   0.730   2.685
 2335W        W 6535   8.183   5.641   2.210
 2336W        W 6536  10.674   0.795   2.969
 2337W        W 6537  10.384   6.129   1.152
 2338W        W 6538   0.982   7.941  10.428
 2339W        W 6539   8.607   6.487  11.169
 2340W        W 6540   0.546   1.013  10.881
 2341W        W 6541   6.012   2.366   9.604
 2342W        W 6542   6.474   8.592  11.499
 2343W        W 6543   3.182  10.674   2.444
 2344W        W 6544  10.842   6.571  10.199
 2345W        W 6545   6.114   7.827   2.770
 2346W        W 6546   0.874   4.053  10.080
 2347W        W 6547   9.420   5.257   8.565
 2348W        W 6548   7.716  11.280   1.241
 2349W        W 6549   6.355  10.751   0.316
 2350W        W 6550   7.860   5.036   3.484
 2351W        W 6551   2.942   7.280  11.287
 2352W        W 6552   9.143   1.817   9.894
 2353W        W 6553   3.659  10.415  10.851
 2354W        W 6554   0.456  10.277   2.808
 2355W        W 6555   0.092   3.720  10.370
 2356W        W 6556   4.715  10.926  10.393
 2357W        W 6557   1.818   1.807  10.600
 2358W        W 6558   1.969   1.840   0.911
 2359W        W 6559   9.237   7.019   0.094
 2360W        W 6560   3.231   9.100  10.042
 2361W        W 6561   5.186   8.881   1.676
 2362W        W 6562   3.168  10.327   9.518
 2363W        W 6563   1.197   6.317   1.237
 2364W        W 6564  11.221   3.438   3.480
 2365W        W 6565   3.386   3.890   0.377
 2366W        W 6566   0.037   2.456   9.021
 2367W        W 6567   0.251   9.791  10.407
 2368W        W 6568   2.129   1.338   8.976
 2369W        W 6569   7.764  10.503   8.804
 2370W        W 6570   7.853   4.036   0.635
 2371W        W 6571  11.181   6.169  10.065
 2372W        W 6572   5.243   1.247   2.181
 2373W        W 6573   9.734   7.592   0.057
 2374W        W 6574   2.681   5.500   0.270
 2375W        W 6575   7.335   3.262   2.870
 2376W        W 6576   5.199   9.055   2.245
 2377W        W 6577   2.858   5.401   4.060
 2378W        W 6578   7.093   8.614   3.939
 2379W        W 6579   3.868   4.200   1.683
 2380W        W 6580  10.331   8.560   2.140
 2381W        W 6581   0.366   9.281   0.315
 2382W        W 6582  11.433   2.233   1.369
 2383W        W 6583   7.591   4.324   0.278
 2384W        W 6584   2.286   1.328   1.511
 2385W        W 6585   3.664   6.731   1.146
 2386W        W 6586   1.167  10.981   8.553
 2387W        W 6587   9.468   2.972   9.394
 2388W        W 6588   1.414  10.425   0.019
 2389W        W 6589   4.270   3.630   2.398
 2390W        W 6590   0.460   5.043  10.598
 2391W        W 6591   3.228   7.364  10.401
 2392W        W 6592   4.112   5.592   9.759
 2393W        W 6593  10.398   5.901   9.877
 2394W        W 6594   2.605   5.072   1.264
 2395W        W 6595   0.856   6.644   9.016
 2396W        W 6596   4.432   3.653  11.430
 2397W        W 6597   2.365   6.637   2.754
 2398W        W 6598   1.633   7.466   0.274
 2399W        W 6599   2.348   9.385   0.261
 2400W        W 6600   0.875   3.527   2.311
 2401W        W 6601   8.172   6.073   2.490
 2402W        W 6602   7.656  10.089   2.677
 2403W        W 6603   6.416   5.148   2.232
 2404W        W 6604   7.143   4.870   1.958
 2405W        W 6605   1.581   7.024   2.728
 2406W        W 6606   4.203   1.792   2.686
 2407W        W 6607   3.653  10.773  11.241
 2408W        W 6608   1.562   2.276   2.259
 2409W        W 6609   6.455   0.673  10.188
 2410W        W 6610   4.646   9.899   1.368
 2411W        W 6611   5.436   9.242   8.515
 2412W        W 6612   0.880   6.670   9.528
 2413W        W 6613   9.570  10.172   3.328
 2414W        W 6614   1.356   4.389  11.738
 2415W        W 6615   1.054   5.908  11.969
 2416W        W 6616   0.552   1.420   2.491
 2417W        W 6617   8.523   9.612   9.225
 2418W        W 6618   7.181   4.531   2.350
 2419W        W 6619   0.966   1.190   9.998
 2420W        W 6620   5.130   2.920   1.220
 2421W        W 6621   0.412   7.896   1.118
 2422W        W 6622   9.490   9.660  10.366
 2423W        W 6623   9.120  11.328   2.741
 2424W        W 6624  10.643   8.086   1.988
 2425W        W 6625   9.433   7.642   2.275
 2426W        W 6626   9.525   8.326   9.034
 2427W        W 6627  10.790  10.168   2.665
 2428W        W 6628   3.355   0.488   1.009
 2429W        W 6629   7.224   8.040  11.449
 2430W        W 6630   7.550   2.750   3.580
 2431W        W 6631   8.376  10.671  10.353
 2432W        W 6632   9.529   2.431   1.369
 2433W        W 6633   5.477  10.664   3.343
 2434W        W 6634  11.377   2.866   9.843
 2435W        W 6635   5.205   2.884   1.814
 2436W        W 6636   7.091   9.033   3.217
 2437W        W 6637  11.408   3.309  11.085
 2438W        W 6638   4.646   2.710   2.495
 2439W        W 6639   6.437   0.857   9.387
 2440W        W 6640   0.765  10.260   1.397
 2441W        W 6641   8.638   4.867   8.564
 2442W        W 6642   2.323   1.182   3.309
 2443W        W 6643  10.273   3.384   0.981
 2444W        W 6644   2.605   8.870   0.416
 2445W        W 6645   5.529   9.015  10.338
 2446W        W 6646   6.578   4.268   1.284
 2447W        W 6647  10.901   6.259   3.018
 2448W        W 6648   8.426   3.784  11.937
 2449W        W 6649   8.941   0.413   0.207
 2450W        W 6650   4.606   3.021   1.193
 2451W        W 6651   9.292   2.221   0.944
 2452W        W 6652   1.969   9.597   1.786
 2453W        W 6653   1.029   9.056   9.240
 2454W        W 6654   4.798   8.068  10.163
 2455W        W 6655   2.371   5.027  11.404
 2456W        W 6656   1.000   2.763   1.621
 2457W        W 6657   4.308   6.073   9.784
 2458W        W 6658   0.557   2.670   1.897
 2459W        W 6659   9.502   3.987   2.646
 2460W        W 6660   3.875   3.787  11.420
 2461W        W 6661   2.236   7.953   2.320
 2462W        W 6662   0.272   4.915  11.189
 2463W        W 6663   8.398   6.977  11.506
 2464W        W 6664   3.441   3.920   9.319
 2465W        W 6665   0.971   3.715  11.736
 2466W        W 6666   8.133   8.184  11.040
 2467W        W 6667   6.490   9.947  11.350
 2468W        W 6668   1.098   1.836   2.715
 2469W        W 6669  10.140  10.945   9.930
 2470W        W 6670   2.713   4.142   8.797
 2471W        W 6671   0.639   8.079   8.658
 2472W        W 6672   4.960   3.356   1.421
 2473W        W 6673   9.786   3.621   8.584
 2474W        W 6674   5.991   8.490  11.378
 2475W        W 6675   5.204   9.354  10.572
 2476W        W 6676  11.081   5.927  10.504
 2477W        W 6677  10.881  10.238  11.371
 2478W        W 6678   4.354   4.315   1.731
 2479W        W 6679   1.313   1.414   1.275
 2480W        W 6680   6.494   3.443   2.718
 2481W        W 6681   7.464  10.083   1.681
 2482W        W 6682  10.001   7.445   9.146
 2483W        W 6683   4.143   3.418   1.934
 2484W        W 6684   6.900   2.050   0.163
 2485W        W 6685   6.262   2.687   0.258
 2486W        W 6686  11.357   6.096  10.892
 2487W        W 6687   2.604   3.883  11.440
 2488W        W 6688   1.717   1.280   9.289
 2489W        W 6689   8.910   2.833   1.296
 2490W        W 6690   6.584   1.817   1.366
 2491W        W 6691   2.905   6.616   2.691
 2492W        W 6692   8.451   4.529  11.574
 2493W        W 6693   0.299   4.618   0.318
 2494W        W 6694   1.850  11.194   9.086
 2495W        W 6695   0.489   4.326  11.956
 2496W        W 6696  10.702   2.255  11.514
 2497W        W 6697   8.351   7.264  11.953
 2498W        W 6698   2.721   1.752   9.492
 2499W        W 6699   6.242   3.026  10.329
 2500W        W 6700  10.013   8.107   3.232
 2501W        W 6701   2.849   2.264  11.102
 2502W        W 6702   9.213  11.373   9.514
 2503W        W 6703   2.684   3.805   3.235
 2504W        W 6704   6.633   8.680   2.115
 2505W        W 6705   1.898   1.623   1.386
 2506W        W 6706   7.137  11.143  10.927
 2507W        W 6707   4.198   3.044  11.975
 2508W        W 6708   1.637  10.733   1.403
 2509W        W 6709   4.796   8.856  10.991
 2510W        W 6710   3.206   5.117  11.579
 2511W        W 6711   5.682  10.478   0.711
 2512W        W 6712   6.486   3.845  11.888
 2513W        W 6713   3.505   4.977   3.630
 2514W        W 6714   2.218  10.715   2.710
 2515W        W 6715   4.756   2.414  11.761
 2516W        W 6716   3.109   8.392   0.358
 2517W        W 6717   0.768   6.597   1.312
 2518W        W 6718  10.033  11.322   1.200
 2519W        W 6719   7.591   2.853  10.524
 2520W        W 6720   7.947  10.280   1.845
 2521W        W 6721   5.444   1.413   1.201
 2522W        W 6722   0.999   6.882   2.600
 2523W        W 6723   3.135   2.731  10.952
 2524W        W 6724   3.070   4.252  10.595
 2525W        W 6725   5.581   1.862   3.639
 2526W        W 6726  10.026   6.651   2.704
 2527W        W 6727   6.654   9.939   1.305
 2528W        W 6728   8.224   7.642  10.229
 2529W        W 6729   4.312  10.148  11.313
 2530W        W 6730   3.555   0.928   1.175
 2531W        W 6731  10.782   1.419   1.934
 2532W        W 6732   3.295   5.750   9.538
 2533W        W 6733   0.976   3.669   0.265
 2534W        W 6734   2.955   1.774   1.026
 2535W        W 6735  10.038   2.823  10.598
 2536W        W 6736   7.087   9.033   2.712
 2537W        W 6737   8.494   6.252  11.926
 2538W        W 6738   2.447   0.246   0.445
 2539W        W 6739  11.257   3.609   1.783
 2540W        W 6740  10.259   9.406   9.766
 2541W        W 6741   7.483   6.684  11.824
 2542W        W 6742   5.479   7.215   8.523
 2543W        W 6743   3.619   4.458  10.716
 2544W        W 6744   0.922   3.284   1.434
 2545W        W 6745   6.281   3.280   3.726
 2546W        W 6746   1.421   1.388  10.129
 2547W        W 6747  10.207   7.104  11.267
 2548W        W 6748   6.711   9.160   9.302
 2549W        W 6749   3.135  10.475  10.837
 2550W        W 6750   2.665   1.898   3.265
 2551W        W 6751   3.692   2.624  10.772
 2552W        W 6752   9.480   4.619  10.009
 2553W        W 6753   8.114   0.869   1.485
 2554W        W 6754   2.398   6.582  10.374
 2555W        W 6755   5.838   6.097   9.149
 2556W        W 6756   0.896   6.022   1.520
 2557W        W 6757   6.973   5.245  11.551
 2558W        W 6758  10.012   2.241   9.925
 2559W        W 6759   3.352   6.997   2.390
 2560W        W 6760   4.624   0.237   1.382
 2561W        W 6761  11.016   0.542   1.999
 2562W        W 6762  10.444   9.957   1.913
 2563W        W 6763   6.458   5.229  11.456
 2564W        W 6764   5.930  11.463  11.756
 2565W        W 6765   9.540   0.136  10.787
 2566W        W 6766   1.274   8.421   1.938
 2567W        W 6767   6.424   4.902   9.704
 2568W        W 6768   5.012   9.054   0.253
 2569W        W 6769  11.221   3.994   1.425
 2570W        W 6770  10.037   6.292   3.091
 2571W        W 6771   1.106   7.120  11.400
 2572W        W 6772   8.676  10.033   0.243
 2573W        W 6773   7.575   2.980   1.191
 2574W        W 6774   2.630   4.614   9.630
 2575W        W 6775   8.299  11.007   9.648
 2576W        W 6776   0.250   6.994   8.543
 2577W        W 6777   7.497   1.210  10.928
 2578W        W 6778   5.319  10.607  11.625
 2579W        W 6779  10.943   0.971   1.728
 2580W        W 6780  10.558   3.507  11.233
 2581W        W 6781   6.900   3.708   0.785
 2582W        W 6782   8.136   2.987   8.722
 2583W        W 6783   1.885   8.845   1.333
 2584W        W 6784   1.713   0.682   1.242
 2585W        W 6785   2.592   9.401   2.450
 2586W        W 6786  10.847   2.744   8.969
 2587W        W 6787   1.219   5.728  11.484
 2588W        W 6788   4.991   5.303   0.996
 2589W        W 6789  10.773   6.238   9.778
 2590W        W 6790  10.745   5.130  10.846
 2591W        W 6791   0.610   9.473  11.475
 2592W        W 6792   7.665   6.092   2.385
 2593W        W 6793   1.406   7.135   1.452
 2594W        W 6794   5.634   2.199  11.423
 2595W        W 6795   5.767  11.133   9.930
 2596W        W 6796   0.330   0.989   2.360
 2597W        W 6797   6.059   5.699  11.251
 2598W        W 6798   0.780   1.509   3.331
 2599W        W 6799   6.715   1.728   3.004
 2600W        W 6800   8.652   6.108   2.744
 2601W        W 6801   4.083   5.141   9.539
 2602W        W 6802   0.002   2.395  11.046
 2603W        W 6803  11.451   4.586  10.974
 2604W        W 6804   1.396   3.249   1.222
 2605W        W 6805   9.403  10.609   9.563
 2606W        W 6806   1.926   4.417   0.932
 2607W        W 6807   8.541   0.299   3.415
 2608W        W 6808   4.923   7.653   9.351
 2609W        W 6809   5.292   2.800   9.827
 2610W        W 6810   8.578   2.339  11.750
 2611W        W 6811   5.789   8.829   8.623
 2612W        W 6812   6.950   2.632   2.136
 2613W        W 6813   4.728   9.404   2.759
 2614W        W 6814   8.940   6.358   3.714
 2615W        W 6815   2.727   9.052  11.898
 2616W        W 6816  10.531   7.472   0.385
 2617W        W 6817   3.063   6.510   9.929
 2618W        W 6818  10.781   4.778   3.118
 2619W        W 6819   0.365  10.132  11.775
 2620W        W 6820   7.540   4.193   8.754
 2621W        W 6821   1.386   3.641   1.550
 2622W        W 6822  10.952   4.397   0.200
 2623W        W 6823   1.166  10.569   1.376
 2624W        W 6824   6.553   6.149   9.680
 2625W        W 6825   3.572   1.011   8.628
 2626W        W 6826   3.338   1.011  11.838
 2627W        W 6827  10.417   6.685   0.995
 2628W        W 6828   2.102   3.221   0.405
 2629W        W 6829   9.010   4.775   2.756
 2630W        W 6830   2.479   9.417   9.651
 2631W        W 6831   1.715   8.364   0.071
 2632W        W 6832   1.218   7.357   9.702
 2633W        W 6833   0.317   5.766   3.165
 2634W        W 6834  10.920   4.837   2.121
 2635W        W 6835   3.517  10.711   0.694
 2636W        W 6836   6.639   6.230   8.760
 2637W        W 6837   1.514   2.230  11.957
 2638W        W 6838   3.845   2.320   1.458
 2639W        W 6839   8.427   5.567  11.313
 2640W        W 6840   7.906   3.602  11.829
 2641W        W 6841   7.998  11.483  10.193
 2642W        W 6842   0.246   0.926   3.364
 2643W        W 6843   6.725   3.091   0.920
 2644W        W 6844   9.893  10.375   3.007
 2645W        W 6845  11.016   0.360   9.473
 2646W        W 6846   2.093   6.940   3.639
 2647W        W 6847   6.452   9.083   0.899
 2648W        W 6848   5.609   5.585  11.481
 2649W        W 6849   8.143   1.771   1.469
 2650W        W 6850   4.690   4.588   9.429
 2651W        W 6851   7.594   9.403  11.771
 2652W        W 6852   8.775   6.837   3.584
 2653W        W 6853   5.690   0.452   0.903
 2654W        W 6854  10.482   5.081   2.788
 2655W        W 6855   0.516   2.112   0.170
 2656W        W 6856   1.452   6.154  10.528
 2657W        W 6857   0.382   0.821   1.883
 2658W        W 6858   5.464   2.893   0.452
 2659W        W 6859   6.179   1.342   0.233
 2660W        W 6860   7.096   3.532  10.407
 2661W        W 6861   6.022   6.115   3.172
 2662W        W 6862   5.011   2.794   0.239
 2663W        W 6863  10.882   0.462  11.919
 2664W        W 6864  10.380   5.182   0.155
 2665W        W 6865   6.365   6.032   0.373
 2666W        W 6866  11.122   3.950  10.394
 2667W        W 6867   5.611   8.051   2.622
 2668W        W 6868   5.969   8.086   2.256
 2669W        W 6869   4.050   5.986  12.000
 2670W        W 6870   1.824   6.902  11.967
 2671W        W 6871  11.158   6.372   0.367
 2672W        W 6872   6.790   2.182   1.939
 2673W        W 6873   1.063   0.797  11.857
 2674W        W 6874   8.207   7.175  10.506
 2675W        W 6875   1.732   2.240  10.861
 2676W        W 6876   6.220   9.968   2.238
 2677W        W 6877   9.081   0.887  10.001
 2678W        W 6878   6.884   9.119  10.312
 2679W        W 6879   6.781   0.748   2.284
 2680W        W 6880   9.965   4.206  11.392
 2681W        W 6881   9.939   6.694   1.734
 2682W        W 6882   8.539  10.908  11.255
 2683W        W 6883   7.226   4.662   4.132
 2684W        W 6884  10.900   2.136  10.163
 2685W        W 6885   9.296   4.137  10.133
 2686W        W 6886   3.813   6.633   1.644
 2687W        W 6887   5.619   1.796  11.737
 2688W        W 6888   4.347   6.969   9.739
 2689W        W 6889   2.975  11.423   1.724
 2690W        W 6890   8.472   8.900  10.431
 2691W        W 6891   3.889  11.074  11.672
 2692W        W 6892   6.522   7.874  11.862
 2693W        W 6893   4.198   2.209  11.470
 2694W        W 6894   8.078   3.809  10.911
 2695W        W 6895   5.710   2.906   1.861
 2696W        W 6896   6.433   7.801   1.092
 2697W        W 6897   8.704   5.132  11.128
 2698W        W 6898   0.726   5.572   2.499
 2699W        W 6899   3.648   0.521  11.349
 2700W        W 6900   5.053  10.999  10.807
 2701W        W 6901   2.885   8.936   0.899
 2702W        W 6902   8.042   2.695  10.296
 2703W        W 6903   7.107   0.775   0.940
 2704W        W 6904   4.740   7.155   2.693
 2705W        W 6905   6.713   3.685   2.227
 2706W        W 6906  10.088   1.498  10.769
 2707W        W 6907   4.571   9.910   3.449
 2708W        W 6908   8.877   5.624   2.646
 2709W        W 6909   8.222   4.238   3.246
 2710W        W 6910   1.763   6.536  11.024
 2711W        W 6911   0.784   1.837   2.330
 2712W        W 6912   1.306   7.543  10.518
 2713W        W 6913   8.816   7.092  11.799
 2714W        W 6914   0.016   3.754   2.236
 2715W        W 6915   4.714   6.667   1.419
 2716W        W 6916   7.494   4.083   2.879
 2717W        W 6917   7.784  10.686  11.090
 2718W        W 6918   7.922   7.691   1.264
 2719W        W 6919   0.778   6.445  10.529
 2720W        W 6920   7.535   4.653   9.948
 2721W        W 6921   6.514   0.880   3.258
 2722W        W 6922   6.090   5.600   0.272
 2723W        W 6923   9.072   6.703   3.165
 2724W        W 6924   5.463   8.905   0.986
 2725W        W 6925   5.521  10.904  11.251
 2726W        W 6926   6.551  10.939   1.426
 2727W        W 6927   9.044   9.954   9.619
 2728W        W 6928   2.872   6.072   3.307
 2729W        W 6929   3.215   5.546  10.067
 2730W        W 6930   8.441   5.952   9.608
 2731W        W 6931   2.172   5.609   3.486
 2732W        W 6932   5.054   3.788   1.169
 2733W        W 6933   5.606   9.345   9.362
 2734W        W 6934   7.566  10.006   0.394
 2735W        W 6935  10.593   4.514   8.942
 2736W        W 6936   2.720   8.877   1.742
 2737W        W 6937   2.800   7.683  11.681
 2738W        W 6938  11.267  11.468  10.296
 2739W        W 6939   7.562  10.575   1.704
 2740W        W 6940   0.446   9.157   2.228
 2741W        W 6941   4.803  10.198  11.009
 2742W        W 6942   1.880   0.065  11.516
 2743W        W 6943   9.025   6.714  10.962
 2744W        W 6944   3.804   2.722   0.117
 2745W        W 6945   7.883   9.787   1.729
 2746W        W 6946  10.247   5.016  11.666
 2747W        W 6947  10.975   2.971   3.196
 2748W        W 6948   7.079   8.716  10.029
 2749W        W 6949  10.341   7.683   2.084
 2750W        W 6950   6.958   1.265  10.040
 2751W        W 6951   9.132   0.370   2.205
 2752W        W 6952   4.753  11.361   3.313
 2753W        W 6953   8.890   3.548  10.348
 2754W        W 6954   0.002   8.021   1.382
 2755W        W 6955   7.462   7.222   3.060
 2756W        W 6956   5.252  10.793   0.638
 2757W        W 6957  10.682   7.136  11.420
 2758W        W 6958   1.724   9.847   0.540
 2759W        W 6959   2.212   1.865  10.278
 2760W        W 6960   8.465   7.656   1.842
 2761W        W 6961   8.415   4.191  10.760
 2762W        W 6962   2.144   9.865   1.398
 2763W        W 6963   5.065   7.776   0.415
 2764W        W 6964   3.160  11.414  10.629
 2765W        W 6965   5.286   6.922   9.954
 2766W        W 6966   8.652   5.855   1.378
 2767W        W 6967   1.829   8.611  11.339
 2768W        W 6968   1.884   9.394   1.281
 2769W        W 6969   7.544   9.179   9.444
 2770W        W 6970   2.365   6.987   3.184
 2771W        W 6971   1.911   9.020   3.315
 2772W        W 6972   0.858   9.078   2.539
 2773W        W 6973   2.626  11.364  10.887
 2774W        W 6974   6.202  10.448  11.331
 2775W        W 6975   1.244  11.475   1.304
 2776W        W 6976   8.004   7.589   8.845
 2777W        W 6977   6.534   6.698  11.719
 2778W        W 6978   4.251   3.896   8.800
 2779W        W 6979   2.678  10.161  11.972
 2780W        W 6980   6.839   6.553   2.487
 2781W        W 6981   1.106   7.110   1.872
 2782W        W 6982   0.725   8.336   9.386
 2783W        W 6983   7.511   2.550   0.702
 2784W        W 6984   3.533   9.994   9.653
 2785W        W 6985   9.770   1.494   3.353
 2786W        W 6986   9.042   6.169   1.360
 2787W        W 6987   7.651   4.269   2.424
 2788W        W 6988   5.636   5.693   0.497
 2789W        W 6989   2.649   5.064   8.898
 2790W        W 6990  10.127  11.274   2.575
 2791W        W 6991   4.782   0.665   9.903
 2792W        W 6992   1.301   4.399  10.200
 2793W        W 6993   1.326   1.792   9.813
 2794W        W 6994   3.934   8.112   3.023
 2795W        W 6995   3.969   6.454   2.669
 2796W        W 6996  11.284   8.565   9.500
 2797W        W 6997   2.187   7.685   1.875
 2798W        W 6998   5.674   4.295  10.252
 2799W        W 6999   5.225  10.716   8.818
 2800W        W 7000  11.280   2.841  11.233
 2801W        W 7001  10.929   8.484   9.116
 2802W        W 7002   2.516   5.522   8.712
 2803W        W 7003   0.183   9.125  10.855
 2804W        W 7004   8.932   5.651   8.923
 2805W        W 7005   2.673   9.459   3.179
 2806W        W 7006   5.792   8.840  11.028
 2807W        W 7007   0.384   8.938   0.806
 2808W        W 7008   8.549   9.789  10.307
 2809W        W 7009   4.538   3.975  11.803
 2810W        W 7010   6.833   2.282  11.116
 2811W        W 7011   0.343   4.027   9.888
 2812W        W 7012   4.201   0.430   0.033
 2813W        W 7013   4.910   2.805  11.419
 2814W        W 7014   1.778   0.941  10.650
 2815W        W 7015   6.022   5.107   9.991
 2816W        W 7016   9.556   9.879   2.426
 2817W        W 7017  11.471   0.366   1.658
 2818W        W 7018   8.900   1.760   2.187
 2819W        W 7019  11.055   0.042   1.727
 2820W        W 7020   2.863   8.524  11.083
 2821W        W 7021   6.534   3.636  10.872
 2822W        W 7022  10.328   9.169  11.340
 2823W        W 7023   3.871   1.398   3.424
 2824W        W 7024   5.207   4.125  11.908
 2825W        W 7025   1.885   1.984   3.053
 2826W        W 7026   3.277   8.609  11.359
 2827W        W 7027   6.684   6.676   3.579
 2828W        W 7028   2.740   0.022   2.279
 2829W        W 7029   1.107   5.419   0.761
 2830W        W 7030   9.975   1.188  10.320
 2831W        W 7031   2.875   5.892  10.359
 2832W        W 7032   4.852   9.542   0.211
 2833W        W 7033   6.235   5.837   9.402
 2834W        W 7034   5.541   1.928   9.544
 2835W        W 7035   0.452   0.958   1.367
 2836W        W 7036   9.088   5.058   4.271
 2837W        W 7037   6.749   2.593   4.012
 2838W        W 7038   3.245   0.493   2.831
 2839W        W 7039   0.236   2.158   2.829
 2840W        W 7040   6.450  11.166   0.972
 2841W        W 7041   4.514   8.614   0.227
 2842W        W 7042   8.142  10.030   9.124
 2843W        W 7043   0.889  11.047   3.778
 2844W        W 7044  10.041  10.343  11.833
 2845W        W 7045   2.682   8.157   2.937
 2846W        W 7046   9.943   6.236   1.464
 2847W        W 7047   3.201   9.216   2.390
 2848W        W 7048   8.350   0.784   8.999
 2849W        W 7049   0.033   0.669   1.191
 2850W        W 7050   5.323  10.181  10.821
 2851W        W 7051   8.908   9.512   0.403
 2852W        W 7052   9.337   2.259  10.104
 2853W        W 7053   5.637   7.057   9.022
 2854W        W 7054   6.576   9.531   2.807
 2855W        W 7055   8.468   9.017   1.727
 2856W        W 7056   4.547   9.757  10.990
 2857W        W 7057   4.363   9.565  11.439
 2858W        W 7058   4.164  10.062   0.518
 2859W        W 7059   7.944  10.055   0.724
 2860W        W 7060   4.322   1.433  11.033
 2861W        W 7061   8.978   0.661   9.528
 2862W        W 7062   7.579  10.388   1.233
 2863W        W 7063   0.440   9.908   9.487
 2864W        W 7064  10.818   0.224   1.282
 2865W        W 7065   2.765   7.373  10.190
 2866W        W 7066   9.908   6.520   0.283
 2867W        W 7067  10.359   1.318   9.244
 2868W        W 7068   8.375   5.039  11.503
 2869W        W 7069   7.426   0.943   9.166
 2870W        W 7070   8.752   7.554  11.050
 2871W        W 7071   0.750   2.313   9.664
 2872W        W 7072   2.198   9.215   2.924
 2873W        W 7073   8.475   3.210   8.394
 2874W        W 7074   0.297   1.732  10.062
 2875W        W 7075   8.336   4.117   0.492
 2876W        W 7076   6.260   5.760   0.798
 2877W        W 7077   6.085   0.982   8.996
 2878W        W 7078   6.056   7.449   9.788
 2879W        W 7079   2.328   0.245  11.352
 2880W        W 7080   4.328   6.819   2.690
 2881W        W 7081   2.085   7.876   1.054
 2882W        W 7082   8.036   9.251   9.562
 2883W        W 7083   7.626   6.705  11.333
 2884W        W 7084  10.854  11.431   0.229
 2885W        W 7085   2.219   7.484   3.082
 2886W        W 7086   2.405   5.273   2.172
 2887W        W 7087   3.292   4.715   8.953
 2888W        W 7088   2.159   2.892   9.328
 2889W        W 7089  10.503   9.877   3.463
 2890W        W 7090   8.889   0.631   9.008
 2891W        W 7091   3.432  10.907   3.848
 2892W        W 7092   0.124   1.448   2.220
 2893W        W 7093   6.803   7.963  11.177
 2894W        W 7094   2.698  10.675  10.424
 2895W        W 7095   4.587   4.025   2.543
 2896W        W 7096   8.159   3.653   0.345
 2897W        W 7097   2.373   7.560   0.680
 2898W        W 7098   6.438   9.388  10.404
 2899W        W 7099   4.099   6.419  11.236
 2900W        W 7100  10.924   5.362  11.330
 2901W        W 7101   0.890   6.705  11.606
 2902W        W 7102   0.269   0.422   9.951
 2903W        W 7103   7.178  11.343   3.524
 2904W        W 7104   5.967   8.057  11.005
 2905W        W 7105   7.419   9.597   1.848
 2906W        W 7106   5.671  11.336   1.317
 2907W        W 7107   7.949   3.677  10.429
 2908W        W 7108   2.258   1.159   2.789
 2909W        W 7109   0.071   4.176   2.547
 2910W        W 7110   4.074   3.409   8.837
 2911W        W 7111   9.399   6.559   3.570
 2912W        W 7112   5.334  11.293   1.716
 2913W        W 7113   9.025   2.293   1.372
 2914W        W 7114   8.956   9.025   1.552
 2915W        W 7115   9.932   0.458   2.334
 2916W        W 7116   0.343   9.249   1.209
 2917W        W 7117   0.697   9.522   1.955
 2918W        W 7118   5.047   9.642   8.542
 2919W        W 7119   0.328   8.054   3.128
 2920W        W 7120   8.045   9.500   2.459
 2921W        W 7121  11.446  11.383   2.519
 2922W        W 7122   7.117   2.953   4.098
 2923W        W 7123   4.819  10.819   9.890
 2924W        W 7124   6.437   2.356  10.809
 2925W        W 7125   5.179   6.865   3.566
 2926W        W 7126   4.074  11.062  11.180
 2927W        W 7127   2.755  11.068   2.014
 2928W        W 7128  10.608   0.473   0.891
 2929W        W 7129   5.233   2.627   0.820
 2930W        W 7130   0.221   6.967   1.254
 2931W        W 7131   0.587   1.760   2.879
 2932W        W 7132   0.886   7.670  10.000
 2933W        W 7133   1.562   2.142  10.298
 2934W        W 7134   0.170   9.575   2.060
 2935W        W 7135   2.882   2.126   0.058
 2936W        W 7136   8.425   6.762  11.979
 2937W        W 7137  10.616   8.570  10.407
 2938W        W 7138   1.818   9.316  11.851
 2939W        W 7139   6.302  10.479  11.870
 2940W        W 7140   0.358   3.393   2.359
 2941W        W 7141   7.273   2.412  11.349
 2942W        W 7142   3.358   5.699   2.837
 2943W        W 7143   3.565   4.346   3.053
 2944W        W 7144  11.102   0.885  10.956
 2945W        W 7145   3.220   5.188   2.848
 2946W        W 7146   0.834   9.511  10.310
 2947W        W 7147  10.373   0.436   0.016
 2948W        W 7148   5.079  10.102   2.618
 2949W        W 7149   9.550   5.035   2.668
 2950W        W 7150   9.505   6.946   8.657
 2951W        W 7151   2.673   1.988   1.871
 2952W        W 7152   3.867   1.441   9.462
 2953W        W 7153  10.893   5.677   0.738
 2954W        W 7154   3.964  11.307   9.985
 2955W        W 7155   2.668  10.233  10.745
 2956W        W 7156   0.289   5.219   3.249
 2957W        W 7157   7.569   3.351  10.502
 2958W        W 7158   9.855   9.624   9.546
 2959W        W 7159   5.135   9.324   8.922
 2960W        W 7160   5.518   6.321  11.822
 2961W        W 7161   1.225   3.235   0.184
 2962W        W 7162   5.979   1.749   2.365
 2963W        W 7163   0.888  10.345   1.877
 2964W        W 7164   3.803   1.232   2.431
 2965W        W 7165   9.374   2.783   1.039
 2966W        W 7166   7.416   5.009   3.770
 2967W        W 7167   5.060   6.085   0.511
 2968W        W 7168   4.916  10.112   1.739
 2969W        W 7169   9.375   8.135   1.364
 2970W        W 7170   7.942   9.064   9.096
 2971W        W 7171   3.853   5.509   0.248
 2972W        W 7172   1.713   3.151  10.948
 2973W        W 7173   8.947   8.831   0.267
 2974W        W 7174   2.903  10.295   9.089
 2975W        W 7175   9.080   1.493   2.599
 2976W        W 7176   5.120   7.324   8.887
 2977W        W 7177  10.781   3.276   0.905
 2978W        W 7178   2.753   1.858   2.712
 2979W        W 7179   5.852   3.296   9.386
 2980W        W 7180  10.023   9.473   0.892
 2981W        W 7181   8.964   2.943   0.769
 2982W        W 7182   0.178   4.042  11.664
 2983W        W 7183   5.205   1.439  11.085
 2984W        W 7184   2.171   4.270   9.589
 2985W        W 7185   6.789   2.097   2.449
 2986W        W 7186   0.511   0.434  10.392
 2987W        W 7187  10.152   7.086   9.500
 2988W        W 7188   3.551   6.704   9.830
 2989W        W 7189   6.137   6.524   9.945
 2990W        W 7190   2.708   6.739   8.250
 2991W        W 7191   0.338   0.079   1.154
 2992W        W 7192   2.070   4.290   9.081
 2993W        W 7193  11.407   3.895   0.756
 2994W        W 7194   3.710   0.835   9.094
 2995W        W 7195   6.529   4.588  10.705
 2996W        W 7196   8.634  10.475   9.017
 2997W        W 7197   0.130   0.418   3.223
 2998W        W 7198   8.855   4.868  11.529
 2999W        W 7199   9.777  11.326  11.730
 3000W        W 7200   0.454   3.316   8.906
 3001W        W 7201   2.209   0.017  -0.000
 3002W        W 7202  10.923   0.438   0.434
 3003W        W 7203   4.874   1.479   9.569
 3004W        W 7204   0.916   1.366   2.850
 3005W        W 7205   4.313   2.317   2.640
 3006W        W 7206   7.265   2.804   3.113
 3007W        W 7207   3.478   9.448   2.739
 3008W        W 7208   4.360   3.696  10.572
 3009W        W 7209  10.775   0.804  10.578
 3010W        W 7210   9.892   7.683   2.980
 3011W        W 7211   1.226   5.781   1.849
 3012W        W 7212   0.784   8.516  11.222
 3013W        W 7213   2.977   6.000   9.862
 3014W        W 7214   1.304   3.167   1.747
 3015W        W 7215   7.407   2.096   0.933
 3016W        W 7216   1.359   8.578   0.947
 3017W        W 7217   4.109   9.196  10.446
 3018W        W 7218   0.676   8.384   3.748
 3019W        W 7219   3.749   4.924  10.289
 3020W        W 7220   9.591   5.124  11.718
 3021W        W 7221  10.001   8.117   2.698
 3022W        W 7222   2.274   1.962   9.256
 3023W        W 7223   5.645   8.985   2.515
 3024W        W 7224   5.135   3.814  10.917
 3025W        W 7225   6.701   2.654   8.551
 3026W        W 7226   4.259   1.127  11.909
 3027W        W 7227   6.555   1.668   8.768
 3028W        W 7228   3.218   5.292  11.043
 3029W        W 7229   2.632   0.618   1.173
 3030W        W 7230   3.861   5.854   1.476
 3031W        W 7231   3.627   4.339   1.248
 3032W        W 7232   5.088   5.708  10.208
 3033W        W 7233   0.694   7.994  11.348
 3034W        W 7234   8.673   7.437  10.372
 3035W        W 7235   4.618   7.957  11.048
 3036W        W 7236  11.211  11.038   1.786
 3037W        W 7237  10.060   5.181   2.447
 3038W        W 7238   6.261   3.263   9.057
 3039W        W 7239   1.394   5.724  10.205
 3040W        W 7240   2.662   1.690  10.369
 3041W        W 7241  10.143   9.603   1.628
 3042W        W 7242   2.646   0.180  11.822
 3043W        W 7243   0.157   2.584   1.016
 3044W        W 7244   3.137   7.537   1.676
 3045W        W 7245   3.603   9.771   3.169
 3046W        W 7246   0.940  10.798  11.963
 3047W        W 7247   6.282   7.672   0.627
 3048W        W 7248   6.026   1.374   8.436
 3049W        W 7249   9.882   5.152  11.305
 3050W        W 7250   9.178   7.935   9.023
 3051W        W 7251   7.965   4.705   2.524
 3052W        W 7252   6.772   8.760  11.109
 3053W        W 7253   7.717   3.638   2.823
 3054W        W 7254   3.154  10.894  11.905
 3055W        W 7255   7.741   7.589  10.369
 3056W        W 7256  11.037  11.499   3.306
 3057W        W 7257   7.062   0.570   9.076
 3058W        W 7258   0.521  10.848  11.562
 3059W        W 7259   9.905   7.607   9.628
 3060W        W 7260   0.901   0.463   0.664
 3061W        W 7261   2.322   7.212   9.930
 3062W        W 7262   1.195   1.194   9.171
 3063W        W 7263   4.424   2.668  11.410
 3064W        W 7264   3.717  11.327   9.096
 3065W        W 7265  10.411   8.170  11.491
 3066W        W 7266  10.936   2.738   0.215
 3067W        W 7267   9.935   4.862   3.460
 3068W        W 7268   8.884   7.251   0.338
 3069W        W 7269   2.771   1.812  11.642
 3070W        W 7270   7.471  10.393   9.796
 3071W        W 7271   9.454   8.836   8.973
 3072W        W 7272   7.486   6.704   3.132
 3073W        W 7273   5.520  10.756   1.911
 3074W        W 7274   1.457   5.266  11.484
 3075W        W 7275   0.016  10.092   2.011
 3076W        W 7276   5.543   0.613  10.177
 3077W        W 7277   5.811   7.572   0.779
 3078W        W 7278   5.240   3.725   2.276
 3079W        W 7279  10.542   1.417   2.917
 3080W        W 7280   8.182   5.047  10.460
 3081W        W 7281   6.658  10.473   1.229
 3082W        W 7282   6.758   3.762  11.320
 3083W        W 7283   6.063  11.014   1.277
 3084W        W 7284   9.863   4.688  11.564
 3085W        W 7285  11.358   9.241   3.435
 3086W        W 7286   0.518   5.910  10.844
 3087W        W 7287   7.461   8.512  11.472
 3088W        W 7288   5.192   5.727   9.676
 3089W        W 7289   8.077   0.027   3.431
 3090W        W 7290   2.674  10.191  10.244
 3091W        W 7291   8.330   0.785  11.215
 3092W        W 7292   9.438   7.374   1.052
 3093W        W 7293   8.960   1.599   9.329
 3094W        W 7294   5.608   4.484   1.092
 3095W        W 7295   2.897   4.646   8.617
 3096W        W 7296   5.302  10.967   9.792
 3097W        W 7297   1.846   6.570   2.793
 3098W        W 7298   4.138   0.013   8.882
 3099W        W 7299   6.498   9.886   8.946
 3100W        W 7300   5.819   6.047  11.545
 3101W        W 7301   0.852   2.658  10.705
 3102W        W 7302   4.588   5.445   1.445
 3103W        W 7303   4.278   7.836  10.083
 3104W        W 7304   2.831   7.521   2.096
 3105W        W 7305   1.441   8.151  10.529
 3106W        W 7306   7.504   2.755   1.648
 3107W        W 7307  11.384   1.250   0.044
 3108W        W 7308   8.039   0.817   1.992
 3109W        W 7309   6.132   0.451  11.772
 3110W        W 7310   5.263  10.505   1.062
 3111W        W 7311   8.116   2.445  11.933
 3112W        W 7312   7.042   4.086   1.082
 3113W        W 7313   3.276   8.658   9.370
 3114W        W 7314   3.591   5.762  11.865
 3115W        W 7315   5.808  10.764   0.273
 3116W        W 7316   4.048   0.795  10.424
 3117W        W 7317  11.380   5.200   9.760
 3118W        W 7318   6.443   4.773  11.706
 3119W        W 7319   1.200   8.578   9.326
 3120W        W 7320   3.267   7.911   0.364
 3121W        W 7321   3.276   8.203   1.263
 3122W        W 7322   1.806  11.220  10.566
 3123W        W 7323   4.569   0.008   0.896
 3124W        W 7324   8.467  11.298   2.637
 3125W        W 7325   6.164   1.296   0.745
 3126W        W 7326   0.906   7.255   4.009
 3127W        W 7327   0.371   3.811   0.992
 3128W        W 7328   3.733   3.201  11.886
 3129W        W 7329   1.624  10.307   9.011
 3130W        W 7330   3.528  11.255   3.043
 3131W        W 7331  11.041   8.733   0.572
 3132W        W 7332   5.705   2.305   9.203
 3133W        W 7333   2.522   5.070   3.795
 3134W        W 7334   6.714  10.537   9.083
 3135W        W 7335   5.750   2.827  10.031
 3136W        W 7336   3.979   4.679   9.827
 3137W        W 7337   4.498   9.124   0.264
 3138W        W 7338   7.760   8.318   9.237
 3139W        W 7339   0.257   0.852  10.269
 3140W        W 7340  11.474   1.268   1.306
 3141W        W 7341  11.110  10.749   3.548
 3142W        W 7342   1.290  11.363  10.501
 3143W        W 7343   6.973   7.867   2.505
 3144W        W 7344   6.503   4.468   2.608
 3145W        W 7345   1.025   4.514   1.327
 3146W        W 7346   4.259  10.327   2.039
 3147W        W 7347   0.630  10.055   0.193
 3148W        W 7348   1.410   9.529  11.017
 3149W        W 7349   8.971   1.091   9.204
 3150W        W 7350   2.921   0.286   0.249
 3151W        W 7351  11.324   8.736   3.344
 3152W        W 7352  11.218   4.545   3.440
 3153W        W 7353  11.214   4.341   9.881
 3154W        W 7354   1.912   1.869   0.041
 3155W        W 7355   6.974   9.801   0.913
 3156W        W 7356   5.296   8.946  11.001
 3157W        W 7357   1.890   3.885   0.882
 3158W        W 7358  10.493   8.445  11.929
 3159W        W 7359   4.427  10.017   9.249
 3160W        W 7360   2.564   1.224   2.395
 3161W        W 7361   8.411   5.554   8.987
 3162W        W 7362   1.550  10.395   0.994
 3163W        W 7363   3.741   1.762  10.424
 3164W        W 7364   5.627   1.677   1.598
 3165W        W 7365   8.171   1.041   2.444
 3166W        W 7366  10.538   9.340   0.179
 3167W        W 7367   6.244   5.076  10.474
 3168W        W 7368   3.586  10.954   9.447
 3169W        W 7369   8.494   2.669  10.002
 3170W        W 7370   2.315   8.654   9.075
 3171W        W 7371  10.911   9.523   3.368
 3172W        W 7372   9.346   4.278   9.630
 3173W        W 7373   5.742   8.001   9.091
 3174W        W 7374   3.156   6.945   1.046
 3175W        W 7375   9.989   4.558  10.176
 3176W        W 7376   2.827   2.803   0.476
 3177W        W 7377   5.585   2.830   3.372
 3178W        W 7378   6.961   0.776  10.244
 3179W        W 7379  11.466  10.953   2.262
 3180W        W 7380   2.116   6.115  11.767
 3181W        W 7381  11.340   7.609   1.622
 3182W        W 7382   1.685   0.693   9.175
 3183W        W 7383  10.589   8.857   1.389
 3184W        W 7384   3.200   8.874   1.991
 3185W        W 7385   6.059   8.333   1.770
 3186W        W 7386   0.362  11.079   1.311
 3187W        W 7387   6.000  10.919  11.445
 3188W        W 7388   9.869   2.231  11.777
 3189W        W 7389   8.931   0.866  10.748
 3190W        W 7390   8.610   3.784   2.673
 3191W        W 7391   1.230   6.541   3.536
 3192W        W 7392   8.882   1.234   9.690
 3193W        W 7393   3.813   7.786  11.433
 3194W        W 7394   8.317   9.555   2.011
 3195W        W 7395   9.315   7.844   1.837
 3196W        W 7396   0.952   9.879   9.383
 3197W        W 7397   8.781   4.556   1.268
 3198W        W 7398   1.101  11.313  11.941
 3199W        W 7399   1.201   0.997   2.633
 3200W        W 7400   5.757   3.259   8.364
 3201W        W 7401   9.939   6.184   9.844
 3202W        W 7402   5.650   0.926   2.213
 3203W        W 7403   2.693   7.175  11.735
 3204W        W 7404   5.758  11.271   0.418
 3205W        W 7405   2.640   2.841   9.456
 3206W        W 7406   3.744   2.698   3.278
 3207W        W 7407  10.936   8.942   9.310
 3208W        W 7408   2.203  11.232   2.763
 3209W        W 7409   9.057   4.690   9.682
 3210W        W 7410   8.134   9.379   1.568
 3211W        W 7411   7.558   9.041   2.905
 3212W        W 7412   2.004   7.638   2.635
 3213W        W 7413   8.711  11.339   0.384
 3214W        W 7414   0.790   1.593  11.350
 3215W        W 7415   8.446   0.569   1.746
 3216W        W 7416   7.510   7.992   1.000
 3217W        W 7417   4.007   2.826   9.554
 3218W        W 7418   0.833   8.802   0.061
 3219W        W 7419  10.767   4.870  11.442
 3220W        W 7420  11.278   8.180   0.369
 3221W        W 7421   2.736   1.529  11.218
 3222W        W 7422   6.600   0.750   2.767
 3223W        W 7423   4.172   0.982   3.361
 3224W        W 7424  10.818  10.800  10.894
 3225W        W 7425   7.257   1.342   9.583
 3226W        W 7426  10.925   2.550   9.707
 3227W        W 7427   9.429   6.625   0.324
 3228W        W 7428   1.868   2.917   2.719
 3229W        W 7429   3.479   4.400   0.459
 3230W        W 7430   9.568   6.551   0.813
 3231W        W 7431  10.236   1.270   3.336
 3232W        W 7432   7.509   9.429  11.284
 3233W        W 7433   9.940   9.485  10.518
 3234W        W 7434   3.927  10.019   9.317
 3235W        W 7435   3.441   7.965   1.745
 3236W        W 7436  10.581   1.835   9.192
 3237W        W 7437  10.781   0.826   3.464
 3238W        W 7438   3.584   8.947   0.576
 3239W        W 7439   6.991   4.317   2.778
 3240W        W 7440   3.140   3.215   0.456
 3241W        W 7441   6.487   9.198   8.487
 3242W        W 7442   6.108   5.222  11.898
 3243W        W 7443   4.330   8.614   2.578
 3244W        W 7444   6.284  11.299   0.379
 3245W        W 7445   3.662   6.507   2.141
 3246W        W 7446   2.815   4.331   0.931
 3247W        W 7447   1.230  10.074   1.265
 3248W        W 7448  11.336  10.291   9.954
 3249W        W 7449   8.079  10.313  11.278
 3250W        W 7450   0.925   5.638   9.961
 3251W        W 7451   8.415   7.091   9.817
 3252W        W 7452   0.781   7.782  10.878
 3253W        W 7453   3.949   3.210   0.900
 3254W        W 7454   6.397   5.758  10.556
 3255W        W 7455  10.423   9.785   0.930
 3256W        W 7456   0.792   9.971   0.671
 3257W        W 7457   0.400  11.046   9.955
 3258W        W 7458   4.648   4.392  10.016
 3259W        W 7459   0.854   1.261  11.727
 3260W        W 7460  11.485   0.168   0.712
 3261W        W 7461  10.913   1.237   3.210
 3262W        W 7462   1.894  10.479   3.099
 3263W        W 7463   6.301   6.042   1.236
 3264W        W 7464   0.311  11.467  10.251
 3265W        W 7465  10.258   0.534   2.741
 3266W        W 7466   5.360  10.088   0.756
 3267W        W 7467   5.997  11.367   2.877
 3268W        W 7468   2.795   9.382   9.252
 3269W        W 7469   8.379   9.259   3.255
 3270W        W 7470   9.915   2.833   0.462
 3271W        W 7471   9.396   0.028   1.454
 3272W        W 7472   5.059  11.481   2.483
 3273W        W 7473   9.684   0.046   0.165
 3274W        W 7474   8.407   8.620   2.047
 3275W        W 7475   3.342   8.466   2.815
 3276W        W 7476   0.375   6.087   0.749
 3277W        W 7477   4.216   6.548   8.576
 3278W        W 7478   5.057   2.377   9.986
 3279W        W 7479   1.165   8.765   2.876
 3280W        W 7480   2.609   8.464   3.337
 3281W        W 7481   0.346  11.040   8.454
 3282W        W 7482   7.502   1.417   1.193
 3283W        W 7483   1.420   2.216   3.233
 3284W        W 7484   9.959   7.191   9.948
 3285W        W 7485   1.296   0.591   2.371
 3286W        W 7486   2.684   3.466   1.019
 3287W        W 7487  11.289   6.871   0.368
 3288W        W 7488   7.482   8.196   0.301
 3289W        W 7489   6.971  10.177   0.057
 3290W        W 7490   0.467   0.464   1.460
 3291W        W 7491   5.509   3.254   0.094
 3292W        W 7492   8.649   5.939  10.081
 3293W        W 7493   2.216   4.118   1.753
 3294W        W 7494   0.402   2.972  11.839
 3295W        W 7495   7.666   0.080   1.681
 3296W        W 7496   1.927   5.137   2.329
 3297W        W 7497   7.476   2.679   2.162
 3298W        W 7498   1.398   6.920   9.517
 3299W        W 7499   8.505   0.260   2.909
 3300W        W 7500   1.571   9.436   0.855
 3301W        W 7501  11.335   1.616   0.425
 3302W        W 7502   6.600   7.105   9.663
 3303W        W 7503   9.055   8.895  11.234
 3304W        W 7504   3.748   4.635   0.832
 3305W        W 7505   1.803   0.462  10.014
 3306W        W 7506   8.377   8.886   9.424
 3307W        W 7507   1.040   7.939  11.744
 3308W        W 7508   0.443   5.550  10.480
 3309W        W 7509   2.955   9.490   9.831
 3310W        W 7510  10.841   0.657   8.958
 3311W        W 7511   3.245   8.205  10.099
 3312W        W 7512   7.471   0.533   0.262
 3313W        W 7513  11.322   6.452  10.460
 3314W        W 7514   3.173   1.266   1.554
 3315W        W 7515   3.188   7.686  10.803
 3316W        W 7516   6.686   9.074   2.414
 3317W        W 7517   8.027   0.515   0.293
 3318W        W 7518   1.884   3.081   1.273
 3319W        W 7519   4.979  10.368   0.503
 3320W        W 7520  10.309   3.681   8.664
 3321W        W 7521   3.887   2.340   0.909
 3322W        W 7522   7.542   5.622   1.568
 3323W        W 7523   1.386   8.924   1.938
 3324W        W 7524   6.217  10.142   1.184
 3325W        W 7525  10.589   6.091   0.676
 3326W        W 7526   4.008   2.201   3.519
 3327W        W 7527   9.764   3.067   1.862
 3328W        W 7528   0.194   4.512   2.976
 3329W        W 7529   0.553   3.890  10.570
 3330W        W 7530   6.053  10.589   1.023
 3331W        W 7531  10.476  11.205   0.496
 3332W        W 7532  10.320  10.487   9.205
 3333W        W 7533   4.362   5.993  11.179
 3334W        W 7534   9.360   1.014   9.594
 3335W        W 7535   3.071   1.447  10.563
 3336W        W 7536   4.736   6.784   9.491
 3337W        W 7537   4.635   1.100   2.912
 3338W        W 7538  10.721   3.618   2.658
 3339W        W 7539   0.609   9.060  10.504
 3340W        W 7540   8.526   1.505   8.421
 3341W        W 7541   0.892   0.505   3.122
 3342W        W 7542   0.497   2.299   8.793
 3343W        W 7543   6.179  11.479   9.862
 3344W        W 7544   4.083   1.608   1.307
 3345W        W 7545   9.938   6.662  11.282
 3346W        W 7546   4.055   5.045   0.053
 3347W        W 7547   8.052  10.532   1.425
 3348W        W 7548   7.271   5.464   1.033
 3349W        W 7549  11.360   6.015   2.391
 3350W        W 7550   9.473   8.399   2.765
 3351W        W 7551   0.581   7.490  11.269
 3352W        W 7552   7.474   6.044   1.905
 3353W        W 7553   2.992   9.682   3.538
 3354W        W 7554   6.786   4.204   2.266
 3355W        W 7555   3.441   6.565   2.645
 3356W        W 7556   4.993   7.533   1.278
 3357W        W 7557   0.874   8.421  11.714
 3358W        W 7558   7.407   9.905  10.035
 3359W        W 7559   0.947   5.674  10.477
 3360W        W 7560   8.009   8.922   3.175
 3361W        W 7561   5.703   3.121  11.179
 3362W        W 7562  11.456   2.831   2.962
 3363W        W 7563   5.183  10.546  11.123
 3364W        W 7564   2.292   8.595   0.782
 3365W        W 7565   0.376   1.761  11.598
 3366W        W 7566   2.892   7.170  10.788
 3367W        W 7567   8.351   5.660   2.751
 3368W        W 7568   0.948   8.033   1.479
 3369W        W 7569   6.722   9.132   4.144
 3370W        W 7570   1.101  11.239   0.466
 3371W        W 7571   6.585   3.051   0.042
 3372W        W 7572   9.181   6.428   1.800
 3373W        W 7573   2.844   2.965   1.925
 3374W        W 7574   6.504   4.368   9.811
 3375W        W 7575   3.200   3.513   3.238
 3376W        W 7576   4.753   0.769  11.300
 3377W        W 7577   9.365   4.085  10.637
 3378W        W 7578   7.774   3.362   8.740
 3379W        W 7579   3.778   6.455   9.446
 3380W        W 7580  10.325   9.501  11.743
 3381W        W 7581   3.815   4.129   2.651
 3382W        W 7582   4.530   7.310   9.418
 3383W        W 7583   6.944   0.485   9.593
 3384W        W 7584   1.053   6.225   8.804
 3385W        W 7585   1.281   2.438  10.919
 3386W        W 7586   4.899   6.552  10.607
 3387W        W 7587   9.364   2.320  11.623
 3388W        W 7588  10.938   6.730   2.670
 3389W        W 7589   4.273   5.304   1.856
 3390W        W 7590   5.012   2.400   1.876
 3391W        W 7591   5.475   4.963   2.799
 3392W        W 7592   9.784   9.935  11.266
 3393W        W 7593   4.398   7.031   0.631
 3394W        W 7594   8.267   6.976   3.355
 3395W        W 7595  10.848  11.040  11.843
 3396W        W 7596  10.499   6.096   3.273
 3397W        W 7597   5.241   2.251   8.969
 3398W        W 7598   7.030   1.016   8.822
 3399W        W 7599   7.058   2.873  11.252
 3400W        W 7600   6.785   7.045  10.185
 3401W        W 7601   5.239   5.734   0.848
 3402W        W 7602  10.035   7.172  10.797
 3403W        W 7603   9.018   6.188   9.779
 3404W        W 7604   4.182   1.947   1.685
 3405W        W 7605   2.957   8.642   9.935
 3406W        W 7606   0.434   9.487   8.528
 3407W        W 7607   9.868   8.571   8.758
 3408W        W 7608   6.488   9.641   9.416
 3409W        W 7609   3.115   1.682   1.886
 3410W        W 7610   8.446   2.574   8.533
 3411W        W 7611   5.241   1.438   9.199
 3412W        W 7612   4.152   3.157   9.911
 3413W        W 7613   9.517  10.272  10.962
 3414W        W 7614   3.017   3.152  10.653
 3415W        W 7615   3.569   8.581   0.238
 3416W        W 7616   1.354   2.641   9.899
 3417W        W 7617   1.788   7.658  10.407
 3418W        W 7618   4.106   6.739  10.838
 3419W        W 7619   7.842   6.931   1.538
 3420W        W 7620   1.950   2.852   1.781
 3421W        W 7621   8.432   6.303   0.817
 3422W        W 7622   6.687  11.275   2.366
 3423W        W 7623   2.763   2.577   9.044
 3424W        W 7624   2.350   6.914   9.503
 3425W        W 7625   4.315   0.379  10.604
 3426W        W 7626   3.104  10.832   9.554
 3427W        W 7627   7.106   5.015   0.089
 3428W        W 7628  10.821   9.009   0.956
 3429W        W 7629   9.595   1.479   2.629
 3430W        W 7630   4.241   9.947   2.824
 3431W        W 7631   0.706   0.889   2.713
 3432W        W 7632   6.742  10.618   3.220
 3433W        W 7633  10.938  10.907   0.336
 3434W        W 7634  10.939   8.073   2.719
 3435W        W 7635   5.830   6.671  10.922
 3436W        W 7636   8.960   4.405  11.388
 3437W        W 7637   2.203   8.391   9.490
 3438W        W 7638   4.129   3.061   3.226
 3439W        W 7639   2.515   2.171   2.333
 3440W        W 7640   4.153   3.636  10.119
 3441W        W 7641   6.532  10.473  10.136
 3442W        W 7642   3.473   8.775   2.418
 3443W        W 7643   6.624   5.194  11.993
 3444W        W 7644   9.881   2.704   9.593
 3445W        W 7645  10.823   8.952  11.235
 3446W        W 7646   1.335   5.209   0.357
 3447W        W 7647   7.238   6.987   0.908
 3448W        W 7648   2.325   1.071   1.949
 3449W        W 7649   8.680   7.794   0.908
 3450W        W 7650   6.992   3.911  11.761
 3451W        W 7651   7.097   8.555   3.423
 3452W        W 7652   9.806   4.564   1.023
 3453W        W 7653   8.634  11.227   1.279
 3454W        W 7654   1.677   0.837   9.653
 3455W        W 7655   8.080   0.995   3.452
 3456W        W 7656   8.194  10.479  10.813
 3457W        W 7657  10.858   5.743   3.115
 3458W        W 7658   2.049   4.946   3.605
 3459W        W 7659   5.278   7.872  10.285
 3460W        W 7660   1.760   2.706   9.598
 3461W        W 7661   0.100   1.750  10.559
 3462W        W 7662   9.407   2.732   3.021
 3463W        W 7663   3.412   1.231   9.286
 3464W        W 7664   7.116   3.926   1.983
 3465W        W 7665   8.770   5.160   8.969
 3466W        W 7666   0.266   8.286   0.238
 3467W        W 7667   7.698   8.041  11.263
 3468W        W 7668   5.130   6.863   2.505
 3469W        W 7669   2.427   9.464  10.161
 3470W        W 7670   6.702   6.917  10.703
 3471W        W 7671   5.065   4.209   2.386
 3472W        W 7672   0.041   9.637  10.901
 3473W        W 7673   5.908   7.535   3.139
 3474W        W 7674  11.394   8.791   9.057
 3475W        W 7675   7.737   8.548  11.935
 3476W        W 7676   5.160   9.406   1.870
 3477W        W 7677   1.771   9.497   3.063
 3478W        W 7678   3.032   5.260   0.642
 3479W        W 7679   5.967   6.067   0.067
 3480W        W 7680  10.840   4.535   9.474
 3481W        W 7681   9.019   6.704   1.403
 3482W        W 7682   0.780  10.810   1.178
 3483W        W 7683   5.988   0.807  10.351
 3484W        W 7684  11.476   1.282  10.806
 3485W        W 7685   9.579   5.409  10.940
 3486W        W 7686   4.346   9.476   9.493
 3487W        W 7687  10.294   2.783   8.945
 3488W        W 7688   4.024   5.549   2.364
 3489W        W 7689  10.832   8.190  10.117
 3490W        W 7690   4.682   0.823   3.328
 3491W        W 7691   1.374   6.105  11.149
 3492W        W 7692   6.048   6.467  11.785
 3493W        W 7693   9.771   4.100  10.315
 3494W        W 7694   8.326   1.434   0.854
 3495W        W 7695   5.746   5.770   0.997
 3496W        W 7696   3.567   8.320   2.157
 3497W        W 7697   8.537   4.688   3.191
 3498W        W 7698   1.210   8.639   0.431
 3499W        W 7699   8.874  10.465   0.450
 3500W        W 7700   0.818   4.727   2.177
 3501W        W 7701   0.536  10.593  10.908
 3502W        W 7702  10.045   1.714   9.581
 3503W        W 7703   4.309   3.708   9.637
 3504W        W 7704   2.424   3.038   3.281
 3505W        W 7705   3.309   9.565   8.807
 3506W        W 7706   2.386   5.328  10.975
 3507W        W 7707   9.362   7.018   0.678
 3508W        W 7708   7.507   4.589   2.805
 3509W        W 7709  11.025  11.371   8.574
 3510W        W 7710   1.590   8.644   3.167
 3511W        W 7711  10.850   8.363   1.291
 3512W        W 7712   6.787   5.240   1.883
 3513W        W 7713  11.318   5.760   1.910
 3514W        W 7714   8.307  11.184  10.497
 3515W        W 7715   2.789   5.039  10.878
 3516W        W 7716   2.259   6.632  11.286
 3517W        W 7717   1.587   8.537   2.340
 3518W        W 7718   3.032  10.565   0.745
 3519W        W 7719   3.253   5.599   9.026
 3520W        W 7720   1.032  10.721  11.003
 3521W        W 7721   1.818   6.584  11.551
 3522W        W 7722   8.158   8.409   3.205
 3523W        W 7723   4.620   9.038   9.378
 3524W        W 7724  11.353   3.311   9.554
 3525W        W 7725   3.189   4.167  11.989
 3526W        W 7726   9.045   2.284   2.230
 3527W        W 7727   1.288   0.731  11.390
 3528W        W 7728   3.133   4.759   9.532
 3529W        W 7729   5.258   1.405   0.428
 3530W        W 7730   9.329   4.687   2.318
 3531W        W 7731   0.482   0.255   2.886
 3532W        W 7732   0.758   6.415  11.144
 3533W        W 7733   3.766   2.608   2.734
 3534W        W 7734   1.062  10.396   0.873
 3535W        W 7735   6.146   7.675   8.930
 3536W        W 7736   0.729   3.331  11.979
 3537W        W 7737   1.745   9.822   8.847
 3538W        W 7738   4.312   1.856   0.385
 3539W        W 7739   3.328   4.615  10.351
 3540W        W 7740  10.431  10.881   0.091
 3541W        W 7741   6.609   9.224  11.225
 3542W        W 7742   8.153   2.149  11.529
 3543W        W 7743   0.941   3.759  11.237
 3544W        W 7744   4.624   1.501  11.933
 3545W        W 7745   5.242  10.627   9.336
 3546W        W 7746   8.856  10.404   2.276
 3547W        W 7747  11.140   5.187   0.004
 3548W        W 7748   8.069  10.370   2.947
 3549W        W 7749   9.371   5.529   2.467
 3550W        W 7750   1.629   1.853  11.609
 3551W        W 7751   6.417   9.380   8.951
 3552W        W 7752   6.039  10.430  10.338
 3553W        W 7753   7.883   8.916   1.735
 3554W        W 7754  10.965   7.423   1.340
 3555W        W 7755   1.852   8.986   2.310
 3556W        W 7756   4.949   8.302  11.745
 3557W        W 7757  10.184  11.398   0.100
 3558W        W 7758   6.698  11.292   1.848
 3559W        W 7759   4.768   9.865   9.582
 3560W        W 7760   8.579  10.339  11.102
 3561W        W 7761   5.373   7.286   3.307
 3562W        W 7762   6.294   3.841   1.394
 3563W        W 7763   2.720   3.052  11.069
 3564W        W 7764  11.366   5.572   0.902
 3565W        W 7765   7.940   3.232   9.595
 3566W        W 7766   5.257  11.095   3.223
 3567W        W 7767   1.308   0.095   2.323
 3568W        W 7768   1.358   9.159   3.137
 3569W        W 7769   7.131   7.401   2.090
 3570W        W 7770   4.095   6.473  11.767
 3571W        W 7771  10.978   1.866   1.715
 3572W        W 7772   9.263   0.026   3.611
 3573W        W 7773   6.173   2.473   8.639
 3574W        W 7774   6.707   9.934   2.501
 3575W        W 7775   3.609   3.578   8.982
 3576W        W 7776   3.120  10.050   9.979
 3577W        W 7777   8.082   0.235   0.738
 3578W        W 7778   9.978  10.272   8.831
 3579W        W 7779   8.700   2.402   2.582
 3580W        W 7780   0.433   2.278   1.352
 3581W        W 7781   3.681   0.336   9.214
 3582W        W 7782  11.387  11.025   8.708
 3583W        W 7783  11.033   2.316   2.279
 3584W        W 7784   1.831   6.040  10.855
 3585W        W 7785   3.450   8.599   9.842
 3586W        W 7786   2.585   7.095   1.937
 3587W        W 7787   9.947   4.841   0.626
 3588W        W 7788   7.610   8.793   2.381
 3589W        W 7789  11.340  10.571   1.971
 3590W        W 7790   0.912   5.427   1.621
 3591W        W 7791   6.981   1.887   0.660
 3592W        W 7792   1.981   2.294  11.754
 3593W        W 7793   6.547   5.696   1.517
 3594W        W 7794   9.118   3.450  11.211
 3595W        W 7795   3.508   7.495   2.613
 3596W        W 7796   3.592   7.076  10.183
 3597W        W 7797   7.269   6.223  11.012
 3598W        W 7798   4.028   9.363   8.572
 3599W        W 7799   6.148   2.828   0.736
 3600W        W 7800   9.547   9.054  11.760
 3601W        W 7801   2.405   9.161   8.982
 3602W        W 7802   9.206   5.790   3.031
 3603W        W 7803   4.988   6.657  11.232
 3604W        W 7804   4.253   4.725  11.246
 3605W        W 7805   5.342   8.851  11.921
 3606W        W 7806   3.236   7.922   2.238
 3607W        W 7807   8.451   1.804   0.512
 3608W        W 7808  11.383   7.841   3.027
 3609W        W 7809   0.997   8.268  10.821
 3610W        W 7810   1.132   4.270  11.282
 3611W        W 7811   6.096   5.286   9.480
 3612W        W 7812   6.677  10.209   0.807
 3613W        W 7813   6.798   0.300  10.062
 3614W        W 7814   5.629   4.067   9.819
 3615W        W 7815   4.620   1.609   2.924
 3616W        W 7816   8.071   8.135   0.993
 3617W        W 7817   1.902  10.313   0.226
 3618W        W 7818   1.315   2.703   9.322
 3619W        W 7819   6.488   2.639   2.334
 3620W        W 7820   4.116   7.562   9.642
 3621W        W 7821   2.297   5.561  10.433
 3622W        W 7822   9.542   8.267  10.741
 3623W        W 7823   1.896   6.981   9.271
 3624W        W 7824   9.969   0.867   0.572
 3625W        W 7825   6.149   8.559   2.243
 3626W        W 7826  11.309   1.101   0.534
 3627W        W 7827   7.493   7.676   0.237
 3628W        W 7828  11.070   6.168   0.863
 3629W        W 7829   2.131   9.007   0.524
 3630W        W 7830   8.396   6.883   2.312
 3631W        W 7831   3.247   4.695   2.095
 3632W        W 7832  10.960   1.394   1.443
 3633W        W 7833   4.674   1.916   0.910
 3634W        W 7834   5.641   0.636   1.790
 3635W        W 7835   3.207   7.581   3.036
 3636W        W 7836   1.066   7.633  11.332
 3637W        W 7837  10.026   9.927   3.249
 3638W        W 7838   5.766   2.216   2.344
 3639W        W 7839   9.045  10.816   1.538
 3640W        W 7840   6.547   8.177   2.898
 3641W        W 7841   1.830  10.410  10.732
 3642W        W 7842   9.943   8.753   0.084
 3643W        W 7843   1.737   4.248   9.924
 3644W        W 7844   4.250   8.484   0.946
 3645W        W 7845   9.843   5.672  11.307
 3646W        W 7846   0.175   1.714   0.054
 3647W        W 7847   3.698  10.454   9.462
 3648W        W 7848   8.517  10.863   0.433
 3649W        W 7849   5.018   3.878   9.212
 3650W        W 7850   8.022   0.037   2.449
 3651W        W 7851   5.450   7.449   0.374
 3652W        W 7852  10.436   0.838  10.953
 3653W        W 7853   8.220   1.903   0.071
 3654W        W 7854   0.691   0.058  11.061
 3655W        W 7855   8.089  10.320   3.454
 3656W        W 7856   8.561   6.618   3.137
 3657W        W 7857  10.950   8.593  10.875
 3658W        W 7858   1.336   0.284   2.823
 3659W        W 7859   5.041   5.242  10.440
 3660W        W 7860   8.539   4.631  11.093
 3661W        W 7861   2.315   5.217   2.674
 3662W        W 7862   9.336   2.364   9.130
 3663W        W 7863   3.988   1.252   9.004
 3664W        W 7864   2.611   6.559   2.284
 3665W        W 7865   7.295   7.939  10.960
 3666W        W 7866   5.102   3.880   2.754
 3667W        W 7867   4.484   9.885   1.880
 3668W        W 7868   8.355  11.452   9.238
 3669W        W 7869   8.493   0.312   8.909
 3670W        W 7870   0.932   2.292   1.422
 3671W        W 7871   2.878  10.525   9.917
 3672W        W 7872   5.112   3.257   0.460
 3673W        W 7873   9.632   3.485   9.408
 3674W        W 7874  10.059   7.180   2.825
 3675W        W 7875  10.604   2.670  11.844
 3676W        W 7876   5.063   3.065   3.187
 3677W        W 7877   6.331   6.590  10.850
 3678W        W 7878   0.351  10.825   0.879
 3679W        W 7879  11.397   3.072   0.071
 3680W        W 7880   1.263   0.353   9.105
 3681W        W 7881  11.225   2.339   1.815
 3682W        W 7882   3.777   5.224   2.052
 3683W        W 7883   2.381   3.113   1.760
 3684W        W 7884   4.294   9.262  10.949
 3685W        W 7885   6.016   5.309  10.876
 3686W        W 7886   5.673   1.347   3.577
 3687W        W 7887   3.311   8.662  10.852
 3688W        W 7888   8.728   5.145   1.953
 3689W        W 7889   6.286   3.989  10.609
 3690W        W 7890   2.353  10.364   1.337
 3691W        W 7891   4.906   4.087   3.159
 3692W        W 7892   8.148  10.750   0.070
 3693W        W 7893   7.292   2.128  10.901
 3694W        W 7894   2.832  11.026   9.943
 3695W        W 7895   6.515   5.676   2.014
 3696W        W 7896   7.080   7.555  11.330
 3697W        W 7897   4.366   6.002   1.536
 3698W        W 7898   9.727   0.109   3.351
 3699W        W 7899   4.194   9.016   1.753
 3700W        W 7900   9.503   4.520   2.783
 3701W        W 7901   3.387   2.269  11.003
 3702W        W 7902   6.136   5.625   9.882
 3703W        W 7903   2.381   7.970  11.516
 3704W        W 7904   2.272   5.676  11.962
 3705W        W 7905   0.363   6.580   9.182
 3706W        W 7906   9.965   1.038  11.023
 3707W        W 7907   0.443  11.358   1.769
 3708W        W 7908  11.378   2.668  10.348
 3709W        W 7909   7.978   6.678   3.738
 3710W        W 7910   2.671   6.656  10.814
 3711W        W 7911   3.173   5.900   2.019
 3712W        W 7912   5.719   6.645   1.648
 3713W        W 7913  11.382   9.061   2.930
 3714W        W 7914   1.115   2.958  11.767
 3715W        W 7915  11.039   7.913   9.330
 3716W        W 7916   5.656   9.430   1.717
 3717W        W 7917   3.835   2.459  11.230
 3718W        W 7918   9.580   5.214   0.733
 3719W        W 7919   8.537   7.436   1.369
 3720W        W 7920   9.520   3.271  11.563
 3721W        W 7921   2.299   3.583  10.521
 3722W        W 7922   9.646   9.642   3.460
 3723W        W 7923   8.590  11.306  10.921
 3724W        W 7924   7.109   2.658  10.322
 3725W        W 7925   3.143   6.190   2.869
 3726W        W 7926   1.128   0.899   0.428
 3727W        W 7927   8.543   5.658   1.849
 3728W        W 7928  10.068   6.139   2.601
 3729W        W 7929   4.158   7.740  10.983
 3730W        W 7930  10.429  11.497   0.921
 3731W        W 7931   0.127   2.638   8.517
 3732W        W 7932   6.124   2.779  11.308
 3733W        W 7933   4.254   0.064   0.447
 3734W        W 7934   6.264   6.903   1.219
 3735W        W 7935   6.069   4.822   1.787
 3736W        W 7936   7.769   5.568   1.115
 3737W        W 7937   7.288   9.381   0.984
 3738W        W 7938   5.168   9.200   0.718
 3739W        W 7939   1.887  10.079   1.831
 3740W        W 7940   5.285   4.648  10.278
 3741W        W 7941   4.302   3.802   0.233
 3742W        W 7942   3.086   2.566   9.468
 3743W        W 7943   6.903   4.707   9.857
 3744W        W 7944   5.049   9.681   0.699
 3745W        W 7945   5.168   0.863   3.017
 3746W        W 7946   9.388   3.561   2.912
 3747W        W 7947   0.280   6.332  10.671
 3748W        W 7948   0.799  11.278   1.424
 3749W        W 7949   3.265   4.239  11.055
 3750W        W 7950   4.036   0.314  10.169
 3751W        W 7951   0.458   5.763   1.563
 3752W        W 7952  10.833   3.226   0.018
 3753W        W 7953   8.140   8.184   2.750
 3754W        W 7954   6.230   8.311  11.840
 3755W        W 7955   9.090   6.504   9.373
 3756W        W 7956   2.158   3.884   2.643
 3757W        W 7957   3.553  10.877   1.249
 3758W        W 7958   9.636   1.904   9.827
 3759W        W 7959   8.301   4.315   2.437
 3760W        W 7960   9.482  10.779   1.856
 3761W        W 7961   9.535   8.541  11.784
 3762W        W 7962   3.306   1.944   0.291
 3763W        W 7963   3.880   9.083   2.529
 3764W        W 7964   9.272   1.381   3.069
 3765W        W 7965   6.119   0.309  10.257
 3766W        W 7966   7.622   4.611  10.964
 3767W        W 7967  10.846  11.061   0.829
 3768W        W 7968   6.053   8.117   0.717
 3769W        W 7969   6.672   4.668  11.221
 3770W        W 7970   2.214   4.256  10.095
 3771W        W 7971   8.513   3.632   9.973
 3772W        W 7972   0.752   9.800   1.162
 3773W        W 7973   3.030   0.436   2.364
 3774W        W 7974   8.434   3.623  10.545
 3775W        W 7975   2.914   5.144   2.075
 3776W        W 7976   6.087   4.112   9.132
 3777W        W 7977   9.273   5.414   3.422
 3778W        W 7978   2.569   5.682   3.109
 3779W        W 7979   6.896  10.681   8.619
 3780W        W 7980   4.179   5.641  10.256
 3781W        W 7981   6.678   3.143   2.330
 3782W        W 7982   0.807  11.235   9.501
 3783W        W 7983   0.275   7.468   8.784
 3784W        W 7984   8.007   1.892   2.439
 3785W        W 7985   9.793   7.897   0.470
 3786W        W 7986   9.833   6.013   9.382
 3787W        W 7987   3.358   3.326  11.565
 3788W        W 7988   5.608   0.891   2.731
 3789W        W 7989  10.953   9.970   3.112
 3790W        W 7990   2.171   8.207   8.755
 3791W        W 7991   8.596  10.090   9.379
 3792W        W 7992   1.824   5.968   9.093
 3793W        W 7993  11.278   7.494   2.112
 3794W        W 7994  10.073   5.344   1.509
 3795W        W 7995   7.947   8.172   9.705
 3796W        W 7996   8.018   1.937   8.932
 3797W        W 7997   9.829   0.915   2.545
 3798W        W 7998   5.691   9.899   0.418
 3799W        W 7999  10.794   2.729  11.285
 3800W        W 8000   9.783   1.529  11.791
 3801W        W 8001   8.995   2.976  11.093
 3802W        W 8002   3.406   5.676   0.575
 3803W        W 8003   0.692   1.191   9.060
 3804W        W 8004   2.557   2.226  10.446
 3805W        W 8005   1.845   3.590   1.316
 3806W        W 8006   3.646   7.852   9.576
 3807W        W 8007   7.893   7.399  10.827
 3808W        W 8008   5.236   3.502  10.529
 3809W        W 8009   4.689  10.033  10.540
 3810W        W 8010   7.961   3.819   9.068
 3811W        W 8011   3.614   8.599   1.219
 3812W        W 8012   6.676   7.468   2.316
 3813W        W 8013   7.587   7.547  11.222
 3814W        W 8014   3.144  10.463  10.333
 3815W        W 8015   0.628   2.786   1.237
 3816W        W 8016   9.802   2.365  10.395
 3817W        W 8017   8.487   9.377  11.137
 3818W        W 8018   8.514  10.568   9.515
 3819W        W 8019   4.471  11.339  10.114
 3820W        W 8020  11.212   9.143  11.531
 3821W        W 8021   1.613   9.375   3.518
 3822W        W 8022   8.103   5.451   8.216
 3823W        W 8023   2.012   8.891   9.560
 3824W        W 8024   8.762   5.330   3.364
 3825W        W 8025   8.438   8.186   1.785
 3826W        W 8026  10.956   1.230   9.670
 3827W        W 8027   9.111   8.101   2.429
 3828W        W 8028   3.995  10.011   1.736
 3829W        W 8029   8.189   5.500   9.475
 3830W        W 8030  10.696   2.305   1.878
 3831W        W 8031   7.383   4.469   1.224
 3832W        W 8032   9.464   6.967  10.831
 3833W        W 8033   0.454   6.857   2.562
 3834W        W 8034  10.377   6.554   0.479
 3835W        W 8035   1.777   4.108  11.827
 3836W        W 8036   4.668   4.100  10.899
 3837W        W 8037   0.569   5.009   3.662
 3838W        W 8038   1.851  10.271   1.363
 3839W        W 8039   7.225  11.426   0.346
 3840W        W 8040   6.293   6.994  10.063
 3841W        W 8041  10.021   9.739   8.795
 3842W        W 8042   2.491  10.545   1.794
 3843W        W 8043   8.920   2.967   0.173
 3844W        W 8044   9.394   0.363   9.359
 3845W        W 8045  10.281   1.292   1.989
 3846W        W 8046   0.800   3.490  10.827
 3847W        W 8047   6.942   1.530   2.600
 3848W        W 8048   8.431  10.518  11.566
 3849W        W 8049  10.999  10.324  10.859
 3850W        W 8050   9.501   1.921  11.949
 3851W        W 8051   3.505   3.339   2.347
 3852W        W 8052  10.009   0.387   0.364
 3853W        W 8053   3.794   8.986  11.981
 3854W        W 8054   8.985  10.358   1.354
 3855W        W 8055   3.781   0.254   0.298
 3856W        W 8056   2.308   1.412  10.037
 3857W        W 8057   9.415   3.628  10.323
 3858W        W 8058   6.970   9.487   9.572
 3859W        W 8059   8.592   5.116   4.117
 3860W        W 8060  10.141   0.808   1.483
 3861W        W 8061   1.424   1.442   2.707
 3862W        W 8062   0.812   9.393   1.473
 3863W        W 8063   7.290  10.951   0.697
 3864W        W 8064   6.471   2.347   2.762
 3865W        W 8065   9.575   1.818   3.010
 3866W        W 8066   4.983   3.376   1.932
 3867W        W 8067   2.467   1.361  11.645
 3868W        W 8068   7.186   3.472   2.207
 3869W        W 8069   8.506  10.959   9.176
 3870W        W 8070  10.430  10.951  10.589
 3871W        W 8071   9.818   3.568   1.827
 3872W        W 8072  11.430   6.674   8.894
 3873W        W 8073   0.271   9.607   3.639
 3874W        W 8074   3.556   5.419   1.372
 3875W        W 8075   6.005   1.856   9.340
 3876W        W 8076   4.717   4.307   0.920
 3877W        W 8077   6.041   1.749   0.517
 3878W        W 8078   3.128   3.448   9.147
 3879W        W 8079   6.078   7.446  10.781
 3880W        W 8080   4.494   8.899  10.586
 3881W        W 8081  10.951   9.412   0.499
 3882W        W 8082   5.122   4.673   0.704
 3883W        W 8083   4.444   8.739   9.003
 3884W        W 8084   5.775   1.872   3.150
 3885W        W 8085  10.325  10.141  11.441
 3886W        W 8086   5.736   4.376   9.415
 3887W        W 8087   9.516   7.385   8.992
 3888W        W 8088   4.769   0.686  10.766
 3889W        W 8089   4.279   4.224   9.540
 3890W        W 8090   7.219   1.828   2.959
 3891W        W 8091   1.339  10.436  11.505
 3892W        W 8092   4.471   1.256   1.301
 3893W        W 8093   4.799   3.622   9.591
 3894W        W 8094   3.374   7.133   3.276
 3895W        W 8095   9.033  10.731  11.729
 3896W        W 8096  11.241   5.780  11.343
 3897W        W 8097   4.808  10.655   0.886
 3898W        W 8098  11.317   0.165   0.203
 3899W        W 8099   4.161   9.877   9.755
 3900W        W 8100   3.594   8.069   2.617
 3901W        W 8101   3.130   9.911  12.000
 3902W        W 8102   2.693   9.071   9.933
 3903W        W 8103   9.444   9.293  10.745
 3904W        W 8104   5.529   4.701   0.164
 3905W        W 8105   8.472   0.506  11.966
 3906W        W 8106  10.896  11.249  11.375
 3907W        W 8107   8.851   5.860  11.460
 3908W        W 8108   9.548   3.629  10.847
 3909W        W 8109   6.343   5.225   2.735
 3910W        W 8110   5.212  10.127   9.458
 3911W        W 8111   0.467   3.308   0.878
 3912W        W 8112  11.409   1.334   3.131
 3913W        W 8113   8.344   1.251  10.561
 3914W        W 8114   4.903  10.847  11.791
 3915W        W 8115   1.769   0.187   9.150
 3916W        W 8116   4.634   8.425  10.732
 3917W        W 8117   5.560  11.233  10.801
 3918W        W 8118   8.550   1.746   2.568
 3919W        W 8119   6.388   7.300   0.953
 3920W        W 8120   0.285   8.992   8.744
 3921W        W 8121  10.509   2.255   2.353
 3922W        W 8122   4.214   9.466   2.001
 3923W        W 8123  10.372   8.493   2.651
 3924W        W 8124  11.322   3.829   9.947
 3925W        W 8125   7.154   0.328  11.587
 3926W        W 8126   2.262   5.754   1.966
 3927W        W 8127   0.450   3.659   1.930
 3928W        W 8128   8.051   2.217   1.252
 3929W        W 8129   7.226   7.837   9.957
 3930W        W 8130   2.745   7.985   2.331
 3931W        W 8131   7.410   5.232   2.253
 3932W        W 8132   8.414   6.430   3.589
 3933W        W 8133   7.647   5.080   2.698
 3934W        W 8134   9.664  10.264   2.045
 3935W        W 8135   5.981   7.826   1.831
 3936W        W 8136  10.443  11.464  10.758
 3937W        W 8137   5.658   1.720  11.184
 3938W        W 8138   7.209   5.194   1.568
 3939W        W 8139   8.570   1.840  11.736
 3940W        W 8140   3.276   2.708   1.842
 3941W        W 8141   0.510   4.339  10.325
 3942W        W 8142   1.231  11.041   1.565
 3943W        W 8143   3.892   4.102   0.359
 3944W        W 8144   9.462   4.777   8.330
 3945W        W 8145   9.037   4.755  11.042
 3946W        W 8146   7.667   1.025   2.498
 3947W        W 8147   4.489  10.914   8.435
 3948W        W 8148   7.199   8.427   0.916
 3949W        W 8149   7.555   8.338   3.216
 3950W        W 8150   5.422   7.756   3.077
 3951W        W 8151   6.281  11.353  11.399
 3952W        W 8152   3.787   2.789   1.681
 3953W        W 8153   7.522   3.103  11.846
 3954W        W 8154   3.257   1.820   1.412
 3955W        W 8155   7.938   3.164   1.640
 3956W        W 8156   1.971   9.440  10.390
 3957W        W 8157   1.041   5.576  10.984
 3958W        W 8158   9.322   2.868   2.082
 3959W        W 8159   2.715   7.581   3.178
 3960W        W 8160   8.459   4.296   0.014
 3961W        W 8161   7.178   7.339   1.594
 3962W        W 8162   7.141   4.565   3.634
 3963W        W 8163   6.660   3.083   1.811
 3964W        W 8164   4.181   3.847   2.859
 3965W        W 8165   4.261   8.853  10.113
 3966W        W 8166   7.874   4.450  11.718
 3967W        W 8167   2.182   7.429  10.866
 3968W        W 8168   9.532   4.603  11.934
 3969W        W 8169   2.119   6.157   2.892
 3970W        W 8170   1.348   8.672  10.613
 3971W        W 8171   8.319   5.083   9.172
 3972W        W 8172   4.797  10.411   1.344
 3973W        W 8173   6.066   3.208   9.885
 3974W        W 8174   9.051   5.584   1.618
 3975W        W 8175   8.475   7.134   1.863
 3976W        W 8176   9.050   4.706   0.349
 3977W        W 8177   5.859   2.620  10.481
 3978W        W 8178   2.082   5.645   2.958
 3979W        W 8179   1.792   8.806  11.795
 3980W        W 8180  11.433   9.023   0.453
 3981W        W 8181   0.710   7.722   2.969
 3982W        W 8182   5.121   9.961   9.948
 3983W        W 8183   8.628   9.301  10.125
 3984W        W 8184   4.803   0.754   9.012
 3985W        W 8185   7.700   2.194   9.244
 3986W        W 8186   4.835   0.832   0.622
 3987W        W 8187   7.653  11.195  11.068
 3988W        W 8188   2.363   3.820   2.185
 3989W        W 8189   8.108   7.206   1.183
 3990W        W 8190   6.742   4.991   0.553
 3991W        W 8191   6.646  10.895   2.765
 3992W        W 8192   1.311   3.785   2.475
 3993W        W 8193   0.719   5.721   0.664
 3994W        W 8194   4.711   1.739   8.924
 3995W        W 8195   8.969   9.548   2.707
 3996W        W 8196   2.032   0.490  10.532
 3997W        W 8197   6.581   1.253   9.086
 3998W        W 8198   6.138   6.938  11.981
 3999W        W 8199   8.918   7.747   0.440
 4000W        W 8200   5.278   8.037   0.042
 4001W        W 8201   2.194   0.902   1.210
 4002W        W 8202   9.476   4.613   3.320
 4003W        W 8203  10.415   0.546   9.712
 4004W        W 8204   7.426   9.262   2.372
 4005W        W 8205  11.275   1.752   1.251
 4006W        W 8206   7.642   8.464  10.991
 4007W        W 8207   1.943  10.809   2.282
 4008W        W 8208   4.363   9.543   3.126
 4009W        W 8209   4.237   2.843   2.773
 4010W        W 8210   9.625   5.986   2.352
 4011W        W 8211   7.968   3.756   9.931
 4012W        W 8212   3.327   5.419   1.918
 4013W        W 8213   4.649   4.364   2.141
 4014W        W 8214   5.920   4.052   3.069
 4015W        W 8215   7.174  10.954   2.782
 4016W        W 8216   9.318   4.616   1.350
 4017W        W 8217   2.646   7.605  10.712
 4018W        W 8218  10.716   2.181  10.633
 4019W        W 8219   1.315   2.279   0.444
 4020W        W 8220   6.093   6.435   0.968
 4021W        W 8221   3.361   1.379   3.329
 4022W        W 8222   6.601   6.966   3.997
 4023W        W 8223   5.703   8.218  10.341
 4024W        W 8224   1.338   5.172   3.337
 4025W        W 8225   2.881   9.270   8.745
 4026W        W 8226   8.242   5.664   3.324
 4027W        W 8227   0.393   2.890   3.381
 4028W        W 8228   2.929   0.801   1.697
 4029W        W 8229   5.671  10.811   8.581
 4030W        W 8230   5.940   1.306  11.298
 4031W        W 8231   6.430   6.143   1.770
 4032W        W 8232   1.267   0.805   8.854
 4033W        W 8233   9.524   4.153   0.853
 4034W        W 8234   3.873   6.888   2.420
 4035W        W 8235   4.308   8.519   9.456
 4036W        W 8236   4.609   8.039   0.494
 4037W        W 8237   3.010   5.111   0.045
 4038W        W 8238   9.378   1.367   9.084
 4039W        W 8239   6.891  10.590   0.504
 4040W        W 8240   5.684   1.160   1.695
 4041W        W 8241  11.320   6.641   1.787
 4042W        W 8242   4.040  10.563   3.548
 4043W        W 8243   3.736   0.280  11.795
 4044W        W 8244   4.038   8.510   0.014
 4045W        W 8245   2.489   0.555   9.653
 4046W        W 8246   2.735  11.389   9.025
 4047W        W 8247   1.787   3.617  11.205
 4048W        W 8248   3.665   6.422   8.583
 4049W        W 8249   1.207   1.873   1.534
 4050W        W 8250  11.297   7.485  10.051
 4051W        W 8251   6.749   7.853   8.273
 4052W        W 8252   0.414  11.267  10.735
 4053W        W 8253   8.775   7.585  11.966
 4054W        W 8254   5.527   3.027  10.686
 4055W        W 8255   6.644   1.876  10.857
 4056W        W 8256  11.276   5.141   9.249
 4057W        W 8257   8.091   9.322  11.942
 4058W        W 8258   7.456   0.527   9.495
 4059W        W 8259   3.245   4.631   0.931
 4060W        W 8260   7.680   9.993   9.524
 4061W        W 8261   4.021   8.436   9.050
 4062W        W 8262   1.767  11.170   0.492
 4063W        W 8263   9.496  11.024   8.731
 4064W        W 8264   0.551   6.191   1.885
 4065W        W 8265   5.020   3.820   1.688
 4066W        W 8266   5.533   5.198  11.861
 4067W        W 8267   2.141   8.408  11.748
 4068W        W 8268   2.362   3.406   8.644
 4069W        W 8269  10.780   5.525  10.465
 4070W        W 8270   3.999   0.927   9.517
 4071W        W 8271   7.616   3.753   1.658
 4072W        W 8272   4.739   9.120  10.201
 4073W        W 8273  10.808   3.901   0.068
 4074W        W 8274   7.951  11.190  11.885
 4075W        W 8275   5.645   0.208  10.500
 4076W        W 8276   3.071   5.125   9.181
 4077W        W 8277   6.766  10.632   0.012
 4078W        W 8278   2.221   9.857  11.832
 4079W        W 8279   4.002   3.160   2.383
 4080W        W 8280   3.233   6.357   4.012
 4081W        W 8281   7.518   0.085   2.627
 4082W        W 8282   3.093  10.009  10.531
 4083W        W 8283   2.972  10.612   1.951
 4084W        W 8284   6.808   1.977   8.400
 4085W        W 8285   8.464   7.495  11.504
 4086W        W 8286   9.543   4.590   8.798
 4087W        W 8287   6.315   8.047  11.396
 4088W        W 8288   1.039   6.276   1.932
 4089W        W 8289  11.005   1.810  11.418
 4090W        W 8290   2.648   7.497   9.383
 4091W        W 8291   8.319   7.766  11.957
 4092W        W 8292   9.531   4.900   0.337
 4093W        W 8293   0.041   2.884  10.793
 4094W        W 8294   6.713  10.300  10.572
 4095W        W 8295   3.775   3.869   8.592
 4096W        W 8296   5.768   8.846   9.430
 4097W        W 8297   3.522   5.357   3.241
 4098W        W 8298   6.633   6.818  11.200
 4099W        W 8299   0.560   9.482   0.780
 4100W        W 8300   3.662   1.730   3.086
 4101W        W 8301   0.553   3.833   0.003
 4102W        W 8302   9.768   1.937  10.862
 4103W        W 8303   5.685   2.171   0.084
 4104W        W 8304   6.492   6.672   2.851
 4105W        W 8305   2.321   4.810  11.867
 4106W        W 8306   0.784   8.487   1.766
 4107W        W 8307  11.082  10.578  11.807
 4108W        W 8308   5.007   4.734   9.847
 4109W        W 8309   3.024   0.792   8.571
 4110W        W 8310   4.481   4.835   9.823
 4111W        W 8311   0.512   7.458   3.749
 4112W        W 8312  10.885   9.519   0.980
 4113W        W 8313   9.824   9.500  11.008
 4114W        W 8314   3.952   0.004   3.229
 4115W        W 8315   9.623   5.950  10.484
 4116W        W 8316   1.956   0.818   1.698
 4117W        W 8317  11.232   2.753   2.439
 4118W        W 8318   3.189   6.666   3.113
 4119W        W 8319   9.940   7.671  10.121
 4120W        W 8320   6.836  11.195   8.580
 4121W        W 8321   2.192   1.375   0.993
 4122W        W 8322   5.274   0.980   1.410
 4123W        W 8323   0.364  10.582   1.407
 4124W        W 8324   8.464   6.192   8.665
 4125W        W 8325  10.813  10.333   8.826
 4126W        W 8326   1.738   8.504   9.277
 4127W        W 8327  10.851   7.873   0.461
 4128W        W 8328   0.061   6.219   1.960
 4129W        W 8329  11.442   7.615   9.578
 4130W        W 8330  10.014   8.490  11.229
 4131W        W 8331  11.352   4.104  11.241
 4132W        W 8332  11.460  10.040   2.852
 4133W        W 8333   6.045   3.764  10.985
 4134W        W 8334   9.809   4.104  10.904
 4135W        W 8335  10.985   6.824  10.620
 4136W        W 8336   2.432  10.510   9.152
 4137W        W 8337   4.331   4.310   0.148
 4138W        W 8338   2.780   0.749  10.994
 4139W        W 8339   6.565   1.249   2.869
 4140W        W 8340   9.407   4.058   8.554
 4141W        W 8341   6.743   2.721   3.155
 4142W        W 8342   6.584  11.048   9.828
 4143W        W 8343   8.803  11.025   0.826
 4144W        W 8344   0.161   2.657  11.523
 4145W        W 8345   6.810   0.828   0.263
 4146W        W 8346   0.316   4.363  11.269
 4147W        W 8347   1.070   4.954   1.803
 4148W        W 8348   6.710  10.355  11.593
 4149W        W 8349   4.023   4.607   0.402
 4150W        W 8350   0.957   3.341   8.870
 4151W        W 8351   0.841  10.828   0.671
 4152W        W 8352   8.215   6.662   1.846
 4153W        W 8353   1.772   9.870   1.044
 4154W        W 8354   7.720   9.599   0.787
 4155W        W 8355  10.095   1.761   0.629
 4156W        W 8356   7.593   4.000   1.160
 4157W        W 8357   9.522   6.212   0.031
 4158W        W 8358   2.823  10.840   9.112
 4159W        W 8359   1.652   4.321  11.310
 4160W        W 8360   7.028   3.223   3.293
 4161W        W 8361   3.655   6.108   2.862
 4162W        W 8362   9.421  11.209   3.233
 4163W        W 8363  10.705   7.102   9.479
 4164W        W 8364   8.151  10.978  10.920
 4165W        W 8365   5.626   7.660   3.562
 4166W        W 8366   3.004   6.503   3.569
 4167W        W 8367  10.514   6.151   0.170
 4168W        W 8368   2.676   3.447   2.010
 4169W        W 8369   6.579   1.854  11.389
 4170W        W 8370  11.271   8.942  10.613
 4171W        W 8371   8.772   6.979   9.046
 4172W        W 8372  10.675  10.338   2.165
 4173W        W 8373  10.042   9.032   3.222
 4174W        W 8374   2.787   6.132  10.841
 4175W        W 8375   9.834   1.062  11.605
 4176W        W 8376   9.667  10.560   8.545
 4177W        W 8377   9.144  10.370   0.873
 4178W        W 8378  10.430   2.167   1.444
 4179W        W 8379   3.507   1.507  11.229
 4180W        W 8380   5.631   1.362   2.494
 4181W        W 8381   3.951   0.711   2.492
 4182W        W 8382  10.813   4.204   8.594
 4183W        W 8383   7.646  10.704  11.907
 4184W        W 8384   7.716   9.030   0.092
 4185W        W 8385  10.808   9.934   8.509
 4186W        W 8386   6.062   4.292  10.963
 4187W        W 8387   8.986   2.784   3.337
 4188W        W 8388   9.892   8.562   2.448
 4189W        W 8389   3.139   3.721  10.866
 4190W        W 8390   2.386   4.662   8.312
 4191W        W 8391   1.911   7.055  11.139
 4192W        W 8392   2.057   1.273   2.326
 4193W        W 8393   2.767   0.468  11.407
 4194W        W 8394   9.929  11.081   1.827
 4195W        W 8395   1.808  10.254  10.215
 4196W        W 8396   9.612   8.577   1.461
 4197W        W 8397  10.697  10.316   9.989
 4198W        W 8398   9.495   6.977   3.269
 4199W        W 8399   5.550   5.263  10.456
 4200W        W 8400   5.714   7.684   8.383
 4201W        W 8401  11.405   6.760  11.418
 4202W        W 8402   9.726   8.304   0.189
 4203W        W 8403   3.768  11.490  11.360
 4204W        W 8404  10.307   8.180  10.596
 4205W        W 8405  10.807   0.942   0.773
 4206W        W 8406   0.804   7.435  10.464
 4207W        W 8407   8.154   6.554   8.442
 4208W        W 8408  10.866   5.178   0.845
 4209W        W 8409   7.601   2.576  10.973
 4210W        W 8410   4.643   7.506  10.819
 4211W        W 8411  10.362   6.440  10.501
 4212W        W 8412   6.068   0.390  10.764
 4213W        W 8413   3.930  11.240   2.687
 4214W        W 8414   2.826   4.542   2.500
 4215W        W 8415   5.044  11.233   8.860
 4216W        W 8416   1.696  11.241   1.425
 4217W        W 8417   2.903   6.031   2.444
 4218W        W 8418   9.884   1.654   2.032
 4219W        W 8419   4.704   1.257   9.113
 4220W        W 8420   4.227   2.765   0.953
 4221W        W 8421   6.621   0.289   2.501
 4222W        W 8422   7.478   0.710   8.713
 4223W        W 8423   7.914   8.250   3.612
 4224W        W 8424   9.473   0.049   2.410
 4225W        W 8425   6.741   5.665   1.006
 4226W        W 8426   9.626   3.427   0.388
 4227W        W 8427  10.844   2.660   2.785
 4228W        W 8428   2.828   9.774   2.147
 4229W        W 8429   8.016   9.403  11.405
 4230W        W 8430   8.345   9.877   3.228
 4231W        W 8431  10.000   3.095   9.262
 4232W        W 8432   4.935  11.471   1.999
 4233W        W 8433   0.006   8.072   0.857
 4234W        W 8434   8.830   6.907   0.963
 4235W        W 8435   3.693   4.478   3.544
 4236W        W 8436  10.299   2.237   9.023
 4237W        W 8437   2.850   7.784  11.177
 4238W        W 8438   3.704   8.443  10.283
 4239W        W 8439   9.119   4.163   1.215
 4240W        W 8440   1.715   5.710   1.636
 4241W        W 8441   8.258   8.387   9.340
 4242W        W 8442  10.899   1.839   0.294
 4243W        W 8443   9.492   7.883   9.882
 4244W        W 8444   7.807   6.088   1.512
 4245W        W 8445   9.719   7.198   1.448
 4246W        W 8446   1.220   4.947   0.947
 4247W        W 8447  10.817   4.979   9.052
 4248W        W 8448   5.056   7.031   2.026
 4249W        W 8449   4.058  10.905   1.400
 4250W        W 8450   4.319   9.636  10.563
 4251W        W 8451  11.143   4.233  10.805
 4252W        W 8452   9.136   0.858   0.359
 4253W        W 8453   0.958   3.121  10.470
 4254W        W 8454   6.834   6.204  11.372
 4255W        W 8455   4.292   1.099   2.549
 4256W        W 8456   8.076   1.166  11.646
 4257W        W 8457   8.358   6.098  11.460
 4258W        W 8458   0.935  10.431   0.360
 4259W        W 8459   0.362   4.683   8.480
 4260W        W 8460   3.926   8.852   8.748
 4261W        W 8461   5.367   9.885   1.645
 4262W        W 8462   0.816   8.156   0.942
 4263W        W 8463   3.451   1.314   2.025
 4264W        W 8464   9.124   1.383   0.470
 4265W        W 8465   8.435   4.306   1.952
 4266W        W 8466  10.278   9.564   9.228
 4267W        W 8467   0.990   8.486   9.792
 4268W        W 8468   7.251   2.325   2.881
 4269W        W 8469   9.455   4.406   0.417
 4270W        W 8470  10.417   6.674  11.479
 4271W        W 8471   2.920   8.979   3.278
 4272W        W 8472   6.060   4.792   2.662
 4273W        W 8473   5.346   3.121   9.377
 4274W        W 8474   0.792   0.141   9.132
 4275W        W 8475   7.230   1.932  10.398
 4276W        W 8476   1.438   7.123   9.053
 4277W        W 8477   4.211   7.432  11.411
 4278W        W 8478  10.967   5.700   2.285
 4279W        W 8479   9.171   9.791   0.088
 4280W        W 8480   8.000   4.069   0.074
 4281W        W 8481  11.050   8.049   1.660
 4282W        W 8482  10.980   5.228   2.991
 4283W        W 8483   1.353   6.617  11.869
 4284W        W 8484   7.943   4.333   9.062
 4285W        W 8485   0.256   8.524   2.459
 4286W        W 8486   0.303   1.836  11.096
 4287W        W 8487   8.869   0.953   0.785
 4288W        W 8488   6.290   2.158   2.272
 4289W        W 8489  10.207   1.035   2.872
 4290W        W 8490   0.034   3.810   9.495
 4291W        W 8491   7.924   7.787   3.823
 4292W        W 8492   9.538   9.103   2.224
 4293W        W 8493  11.250   6.997   2.190
 4294W        W 8494   7.102  10.346   1.937
 4295W        W 8495   7.104  10.131   0.545
 4296W        W 8496   0.935   7.985   1.984
 4297W        W 8497   4.255   8.456   8.598
 4298W        W 8498  10.059   9.026   2.690
 4299W        W 8499   2.422   8.993   3.318
 4300W        W 8500   0.468   0.272   3.615
 4301W        W 8501   8.251   3.227   3.560
 4302W        W 8502   4.078   7.173   1.022
 4303W        W 8503   4.738   6.095   3.586
 4304W        W 8504  10.814   8.524   2.957
 4305W        W 8505   8.166   9.509  10.009
 4306W        W 8506   3.132   6.540   2.190
 4307W        W 8507   0.290   6.507   0.023
 4308W        W 8508   1.680   1.410   0.932
 4309W        W 8509   2.779   8.442   0.981
 4310W        W 8510   7.678   5.135  10.244
 4311W        W 8511   8.157   7.700   2.632
 4312W        W 8512   4.636   0.295  11.483
 4313W        W 8513   6.540   6.228  11.930
 4314W        W 8514   7.051   1.186  10.539
 4315W        W 8515  10.935   1.130   2.706
 4316W        W 8516   0.626   4.666   9.434
 4317W        W 8517   9.466  10.933  11.539
 4318W        W 8518   9.387   9.860   1.856
 4319W        W 8519   9.041   3.644   9.877
 4320W        W 8520   9.969   4.765   2.801
 4321W        W 8521   3.849   5.960   9.511
 4322W        W 8522   8.951   8.991   8.914
 4323W        W 8523   6.808   2.203   3.096
 4324W        W 8524   7.708   6.191   0.470
 4325W        W 8525   4.561   3.436  11.929
 4326W        W 8526   6.469   3.185   3.204
 4327W        W 8527   4.505   2.035   3.546
 4328W        W 8528   7.534   1.895   1.406
 4329W        W 8529   9.837   3.580   2.652
 4330W        W 8530  11.155   9.444   1.958
 4331W        W 8531   9.149   8.554   9.888
 4332W        W 8532   4.510  10.315   0.226
 4333W        W 8533   2.776   4.261   7.751
 4334W        W 8534   2.722  10.628  11.660
 4335W        W 8535  10.462   5.946  10.713
 4336W        W 8536   6.049   3.710   3.613
 4337W        W 8537   6.224   3.661   9.404
 4338W        W 8538   1.188   7.043  10.513
 4339W        W 8539   6.164   0.923  11.561
 4340W        W 8540   7.193  10.515  11.732
 4341W        W 8541   4.690   2.479   1.107
 4342W        W 8542   3.159  11.287  11.109
 4343W        W 8543  10.204   4.194   8.534
 4344W        W 8544   8.425  10.025  11.798
 4345W        W 8545   9.177   3.138  10.234
 4346W        W 8546   6.480   9.826   3.397
 4347W        W 8547   6.294  10.320   3.434
 4348W        W 8548   1.263   5.331   2.861
 4349W        W 8549   9.349   4.734  11.473
 4350W        W 8550   1.752   2.559   0.472
 4351W        W 8551   8.915   4.276  10.881
 4352W        W 8552   2.763   0.361   1.906
 4353W        W 8553   0.674   8.687   2.231
 4354W        W 8554   4.467   0.834   0.265
 4355W        W 8555  10.374   7.943  10.160
 4356W        W 8556   6.978  11.297  10.018
 4357W        W 8557   6.693   0.173  11.470
 4358W        W 8558  10.014   8.389  11.731
 4359W        W 8559   4.060   8.840   0.406
 4360W        W 8560  10.913   6.552   1.182
 4361W        W 8561   8.835   0.555   8.499
 4362W        W 8562   5.043   3.238   9.777
 4363W        W 8563   1.148  10.527   9.115
 4364W        W 8564   3.869  10.336   0.884
 4365W        W 8565   2.988   3.164  11.888
 4366W        W 8566   5.932   6.624   8.956
 4367W        W 8567   8.751   6.856   8.169
 4368W        W 8568   9.837   1.327   9.299
 4369W        W 8569  11.301  10.296   3.335
 4370W        W 8570   2.399   1.996  11.952
 4371W        W 8571   6.171  10.084   9.368
 4372W        W 8572  10.270   2.625   1.283
 4373W        W 8573   5.208   2.586   3.115
 4374W        W 8574   7.589   3.403  11.434
 4375W        W 8575   4.066   7.046  10.412
 4376W        W 8576   4.529   6.644  11.948
 4377W        W 8577   3.803   2.223   2.414
 4378W        W 8578   3.212   0.995   3.019
 4379W        W 8579   6.162   9.029  11.548
 4380W        W 8580   0.770   1.006   3.208
 4381W        W 8581   8.305   6.046   9.120
 4382W        W 8582   2.725  10.529   2.676
 4383W        W 8583   8.113   3.322   9.124
 4384W        W 8584  11.257   9.556   2.946
 4385W        W 8585  11.372   8.467   1.144
 4386W        W 8586   4.457   0.047   1.831
 4387W        W 8587   8.093   7.409   3.053
 4388W        W 8588  11.443   3.243   2.638
 4389W        W 8589   4.803   2.587  10.972
 4390W        W 8590  10.348   7.660   3.240
 4391W        W 8591   9.419   2.693  10.385
 4392W        W 8592  10.964   7.115   1.776
 4393W        W 8593   9.329   8.811   1.825
 4394W        W 8594   0.881   4.131   3.183
 4395W        W 8595   6.062   2.265  11.133
 4396W        W 8596   7.838  10.821   1.049
 4397W        W 8597   7.222  11.354  11.398
 4398W        W 8598   3.123   4.093  10.115
 4399W        W 8599   7.532   7.082  10.992
 4400W        W 8600   9.865   0.037   1.627
 4401W        W 8601  11.416   5.035  11.602
 4402W        W 8602   9.556   6.165   3.871
 4403W        W 8603   3.700   6.777  11.912
 4404W        W 8604  10.896  10.795   2.159
 4405W        W 8605   9.950   6.699   9.825
 4406W        W 8606   4.667   9.427   1.709
 4407W        W 8607   0.581   6.023  10.332
 4408W        W 8608   4.579   2.531   0.265
 4409W        W 8609   4.948   0.389   3.248
 4410W        W 8610   7.738   4.556   9.502
 4411W        W 8611   3.136   1.300   1.040
 4412W        W 8612   8.453   2.233   8.949
 4413W        W 8613   0.805   2.854   0.157
 4414W        W 8614   4.320   9.064   2.831
 4415W        W 8615   7.991   2.846   3.314
 4416W        W 8616   0.333   3.128   1.939
 4417W        W 8617   3.481   6.692   3.555
 4418W        W 8618   0.137   2.565   9.519
 4419W        W 8619   8.885   2.512   8.892
 4420W        W 8620   9.224   8.329   1.827
 4421W        W 8621   9.854   9.947  10.728
 4422W        W 8622  10.336   8.986  10.450
 4423W        W 8623   6.423   7.985   3.738
 4424W        W 8624   5.598   3.357   0.619
 4425W        W 8625   9.939   4.410   3.172
 4426W        W 8626  11.020   3.591   2.241
 4427W        W 8627  10.894   1.995   9.679
 4428W        W 8628   3.470   7.688   1.293
 4429W        W 8629   3.254   1.964  11.744
 4430W        W 8630   8.998   6.120  11.879
 4431W        W 8631   0.691   1.218   2.011
 4432W        W 8632   3.785   9.534   1.728
 4433W        W 8633   5.757   1.368   2.990
 4434W        W 8634  10.728   2.722   2.253
 4435W        W 8635   8.732   9.107   2.894
 4436W        W 8636   1.171   1.541   8.467
 4437W        W 8637  10.355  10.996   9.064
 4438W        W 8638   6.665   0.005   3.465
 4439W        W 8639   1.440   4.838   9.165
 4440W        W 8640   4.577  11.441   8.594
 4441W        W 8641   9.797   3.615   0.848
 4442W        W 8642   2.778   2.483   1.785
 4443W        W 8643   6.826   6.266   9.251
 4444W        W 8644   2.355   8.428  11.260
 4445W        W 8645   3.190   0.040   0.874
 4446W        W 8646   3.059   3.736  11.740
 4447W        W 8647   7.603   0.330   2.185
 4448W        W 8648   0.224   2.854   2.425
 4449W        W 8649   5.156   8.191   2.440
 4450W        W 8650  11.335   0.506   9.064
 4451W        W 8651   1.324   1.812   2.203
 4452W        W 8652   1.217   3.208   9.302
 4453W        W 8653   9.979   4.340   0.404
 4454W        W 8654   9.449   1.573   1.771
 4455W        W 8655   2.628   8.338   0.497
 4456W        W 8656   9.805  10.570   9.959
 4457W        W 8657   1.296   3.307   0.715
 4458W        W 8658   1.624   1.443   3.486
 4459W        W 8659   1.968   9.871   9.315
 4460W        W 8660   2.365   5.828  10.899
 4461W        W 8661   1.066   5.009   9.557
 4462W        W 8662   7.578   3.169   9.192
 4463W        W 8663   0.076   5.949  10.370
 4464W        W 8664   9.243   4.589  10.594
 4465W        W 8665   3.091   0.601   3.306
 4466W        W 8666   9.256   1.181  10.993
 4467W        W 8667  10.401   6.771   2.388
 4468W        W 8668   9.002   1.194   1.285
 4469W        W 8669   4.757   1.712  11.191
 4470W        W 8670   9.408   6.359  10.100
 4471W        W 8671   1.884   3.743   3.320
 4472W        W 8672   9.498   5.002   9.558
 4473W        W 8673  10.911   4.384  11.311
 4474W        W 8674   6.103   9.225   1.500
 4475W        W 8675   4.442   7.815   9.332
 4476W        W 8676   7.008   8.868   9.012
 4477W        W 8677   8.196   0.848  10.275
 4478W        W 8678   8.625   6.676   8.643
 4479W        W 8679   2.843   9.273   2.024
 4480W        W 8680   6.022   6.808   2.656
 4481W        W 8681   3.415   6.217   9.700
 4482W        W 8682   6.758   9.348   0.112
 4483W        W 8683   7.056   3.232  11.613
 4484W        W 8684   1.514   6.096  11.731
 4485W        W 8685   1.151   8.454   3.366
 4486W        W 8686   8.914   6.614   0.013
 4487W        W 8687   3.173   6.119   8.782
 4488W        W 8688   8.037   2.830  10.808
 4489W        W 8689  11.380  10.856   9.190
 4490W        W 8690   1.291   2.233   9.530
 4491W        W 8691   2.584   6.796   3.638
 4492W        W 8692   2.276   3.357   9.144
 4493W        W 8693   0.948   1.642   1.893
 4494W        W 8694   4.060   5.089  11.537
 4495W        W 8695   3.771   0.799   9.996
 4496W        W 8696  10.949   3.967   9.636
 4497W        W 8697   5.695   0.146   9.977
 4498W        W 8698   8.642   1.779   9.861
 4499W        W 8699   7.467   1.851   1.941
 4500W        W 8700  10.783   4.309   3.300
 4501W        W 8701   0.957   2.835   8.967
 4502W        W 8702   4.770   8.044   1.493
 4503W        W 8703   9.078   1.227   2.150
 4504W        W 8704   9.961   5.078  10.802
 4505W        W 8705   5.891   4.110   1.297
 4506W        W 8706   2.155   8.482   0.296
 4507W        W 8707   8.842   3.077   9.802
 4508W        W 8708  10.845   1.847   2.235
 4509W        W 8709   4.265   4.675  10.261
 4510W        W 8710   5.529   5.466  10.935
 4511W        W 8711   1.747   4.250   3.266
 4512W        W 8712   0.448   2.670  11.036
 4513W        W 8713   4.365   0.896   0.858
 4514W        W 8714   4.490  10.566  11.808
 4515W        W 8715  10.526   0.047  11.256
 4516W        W 8716   4.876   6.180   1.525
 4517W        W 8717   8.886   0.680   1.236
 4518W        W 8718  10.795   0.821  11.347
 4519W        W 8719   8.107   2.458   2.372
 4520W        W 8720   7.633  10.863   3.044
 4521W        W 8721   5.661   7.642  10.979
 4522W        W 8722   8.404   2.830   2.604
 4523W        W 8723   4.262   0.734   2.926
 4524W        W 8724   8.531   9.323   9.639
 4525W        W 8725   3.104   1.917  10.349
 4526W        W 8726   8.878   2.922   9.226
 4527W        W 8727   3.380   6.077   0.277
 4528W        W 8728   1.946   9.345   8.728
 4529W        W 8729   3.561   9.035  11.530
 4530W        W 8730   6.097   4.538   8.373
 4531W        W 8731   9.402   5.748   1.969
 4532W        W 8732   4.732  11.335   0.441
 4533W        W 8733   6.304   1.654  10.526
 4534W        W 8734   3.586   1.027  11.362
 4535W        W 8735   0.000   3.159  11.577
 4536W        W 8736   3.907   4.383   8.578
 4537W        W 8737   6.507   2.348   9.841
 4538W        W 8738   5.201   9.149   2.761
 4539W        W 8739   1.879   0.936  11.171
 4540W        W 8740   3.954   0.489   3.416
 4541W        W 8741   6.980   3.640   9.910
 4542W        W 8742   2.137   2.046   1.967
 4543W        W 8743   3.486   4.571   9.860
 4544W        W 8744   6.535   7.303  11.045
 4545W        W 8745   7.153   6.415   9.629
 4546W        W 8746   2.190   3.310  10.971
 4547W        W 8747   7.303   4.977   8.401
 4548W        W 8748   8.564   4.120  11.257
 4549W        W 8749  10.698   9.568  10.603
 4550W        W 8750   4.145   7.074  11.813
 4551W        W 8751   6.871   2.247  10.581
 4552W        W 8752  10.516   1.762  11.356
 4553W        W 8753   3.913   9.348   0.315
 4554W        W 8754   6.510   7.459  10.045
 4555W        W 8755   7.141   0.350   0.631
 4556W        W 8756   4.589   4.156   9.108
 4557W        W 8757   6.945   3.516   1.745
 4558W        W 8758   9.675   4.002   9.349
 4559W        W 8759   8.974  11.118   3.517
 4560W        W 8760   3.576   3.807   3.020
 4561W        W 8761   7.824   3.531   0.699
 4562W        W 8762   4.168   9.902   2.296
 4563W        W 8763   7.238   0.453  10.559
 4564W        W 8764   9.444   6.845   1.675
 4565W        W 8765   2.901   6.532   9.039
 4566W        W 8766   0.049   0.669   0.642
 4567W        W 8767   2.670  10.267   2.221
 4568W        W 8768   3.140   8.516   3.300
 4569W        W 8769   8.588   8.642   9.038
 4570W        W 8770  11.357   7.526  11.096
 4571W        W 8771   4.184   3.359  10.939
 4572W        W 8772   7.138   2.266   1.332
 4573W        W 8773   5.269   3.134   4.006
 4574W        W 8774   6.557   8.795   3.347
 4575W        W 8775   8.866   1.972   0.775
 4576W        W 8776  10.084   7.946  11.960
 4577W        W 8777  11.314   6.830   3.153
 4578W        W 8778   3.312   9.495   9.326
 4579W        W 8779   0.064   7.023   9.265
 4580W        W 8780   4.671  11.241  11.082
 4581W        W 8781   9.999   9.907   2.179
 4582W        W 8782  10.888   3.123  10.415
 4583W        W 8783  10.304  10.332   2.677
 4584W        W 8784   2.414   9.478   1.217
 4585W        W 8785   2.368   7.372   3.557
 4586W        W 8786  10.799   6.745   3.157
 4587W        W 8787  11.214   7.566   3.394
 4588W        W 8788   6.569   4.249  10.292
 4589W        W 8789   9.524   9.467   1.022
 4590W        W 8790   2.140   7.394   9.484
 4591W        W 8791   8.993   1.771   8.426
 4592W        W 8792   0.344   3.135   0.344
 4593W        W 8793   9.074  10.013   2.525
 4594W        W 8794   0.478   3.429   3.613
 4595W        W 8795   8.874   2.948   8.610
 4596W        W 8796  11.370   7.474  10.563
 4597W        W 8797  10.313   2.863   0.822
 4598W        W 8798   5.074   4.795  11.217
 4599W        W 8799   2.837   5.534   9.705
 4600W        W 8800   1.484   2.756   1.991
 4601W        W 8801   6.408   3.536   1.795
 4602W        W 8802   5.192   1.679   8.734
 4603W        W 8803   3.407   3.832   2.532
 4604W        W 8804   9.628  10.446   0.778
 4605W        W 8805   5.636   6.258  10.702
 4606W        W 8806   8.705   8.462  10.159
 4607W        W 8807   1.753   2.238   9.277
 4608W        W 8808  10.509   3.787   9.817
 4609W        W 8809   3.799   4.703   8.992
 4610W        W 8810   5.376   7.403   9.310
 4611W        W 8811   5.521   2.433   1.942
 4612W        W 8812   5.573   0.702  11.216
 4613W        W 8813   6.692   8.508  11.977
 4614W        W 8814   1.846   6.668   0.836
 4615W        W 8815   2.846   9.289  10.381
 4616W        W 8816  10.458   1.157   0.252
 4617W        W 8817   6.993   7.803   9.467
 4618W        W 8818   1.387  10.376  10.992
 4619W        W 8819   3.449   0.890   2.573
 4620W        W 8820  10.798   5.452   0.281
 4621W        W 8821   8.164   3.152   0.676
 4622W        W 8822   3.123   1.416  11.550
 4623W        W 8823   8.307   3.153   9.929
 4624W        W 8824   1.842  10.565  11.732
 4625W        W 8825  10.858   7.525   0.824
 4626W        W 8826   0.037  10.483  10.867
 4627W        W 8827  11.006   2.230  11.086
 4628W        W 8828  11.158   4.146  11.732
 4629W        W 8829   1.487   2.296  11.381
 4630W        W 8830   8.878   0.180  11.771
 4631W        W 8831  10.808   5.752   1.792
 4632W        W 8832   9.228   0.124  10.381
 4633W        W 8833   5.162   7.723   2.628
 4634W        W 8834   9.027   6.748  10.442
 4635W        W 8835   3.551   9.068   9.618
 4636W        W 8836   4.230   6.147  10.278
 4637W        W 8837   2.341   2.589   2.589
 4638W        W 8838   6.640   9.333   3.331
 4639W        W 8839   6.085   8.844   9.838
 4640W        W 8840   8.191   4.075  11.593
 4641W        W 8841   1.304  10.871   0.953
 4642W        W 8842   3.179   2.936   9.062
 4643W        W 8843   6.990   0.142  10.991
 4644W        W 8844   3.788   1.957   0.129
 4645W        W 8845   5.735   2.629  10.980
 4646W        W 8846   3.613   4.912   8.564
 4647W        W 8847  10.322   3.376   9.534
 4648W        W 8848  10.497   7.382   1.162
 4649W        W 8849   2.680   9.650  11.941
 4650W        W 8850  10.458   3.340  10.027
 4651W        W 8851   9.858   2.578   0.962
 4652W        W 8852   6.455   6.595  10.355
 4653W        W 8853  10.779  10.560  10.433
 4654W        W 8854   3.596  10.122  11.977
 4655W        W 8855   4.757   4.070   0.342
 4656W        W 8856  11.253   7.672   2.584
 4657W        W 8857   7.263   9.626   0.532
 4658W        W 8858  10.717   3.421   3.337
 4659W        W 8859  10.297   9.329  10.843
 4660W        W 8860   1.868   6.068   1.952
 4661W        W 8861   8.990   3.759   1.961
 4662W        W 8862  10.239  10.876   1.449
 4663W        W 8863   0.318   6.365   2.396
 4664W        W 8864   5.212   0.689  11.881
 4665W        W 8865   5.757   5.270   1.789
 4666W        W 8866   3.463   1.187   0.356
 4667W        W 8867   9.527   7.772  10.940
 4668W        W 8868   9.995   6.554   9.329
 4669W        W 8869   9.954   0.623  11.391
 4670W        W 8870   2.236   8.917   0.036
 4671W        W 8871  10.012   5.253   0.999
 4672W        W 8872  10.105   6.104   0.496
 4673W        W 8873   9.530   9.873   9.007
 4674W        W 8874   7.731   0.256   9.838
 4675W        W 8875   7.992   0.849   2.918
 4676W        W 8876   4.306   5.368   2.746
 4677W        W 8877   1.334   4.779  10.578
 4678W        W 8878   2.695   4.288   2.996
 4679W        W 8879   1.132   4.880  10.092
 4680W        W 8880   4.770   1.358   1.958
 4681W        W 8881  11.018   9.073   0.137
 4682W        W 8882   9.696   7.152  11.274
 4683W        W 8883   2.634   6.400   8.624
 4684W        W 8884   6.229   7.685   8.367
 4685W        W 8885  10.474   6.658   9.509
 4686W        W 8886   4.832   8.804  11.839
 4687W        W 8887   5.165   2.672   4.201
 4688W        W 8888   5.673   2.745   9.498
 4689W        W 8889   5.953   9.995   2.710
 4690W        W 8890   9.614   6.910   2.789
 4691W        W 8891   5.026   3.234  11.953
 4692W        W 8892   8.895   0.340  10.773
 4693W        W 8893  11.343   8.363   9.965
 4694W        W 8894   1.029   9.281  10.721
 4695W        W 8895   2.621   7.430   0.200
 4696W        W 8896   4.042   3.323   9.368
 4697W        W 8897   5.630   7.556   8.873
 4698W        W 8898   2.528   3.057  11.567
 4699W        W 8899   6.637  11.112   0.049
 4700W        W 8900   8.123   9.616  10.509
 4701W        W 8901  10.212   7.989   1.676
 4702W        W 8902   0.750   0.964   9.533
 4703W        W 8903   7.617   4.864   0.351
 4704W        W 8904   6.486   1.056  11.941
 4705W        W 8905   4.607   3.066  11.068
 4706W        W 8906  10.515   4.162   9.477
 4707W        W 8907   1.449  10.858  11.250
 4708W        W 8908   5.181   0.821   3.511
 4709W        W 8909   9.096  10.290   0.010
 4710W        W 8910  10.003   3.834   2.238
 4711W        W 8911   0.262   6.608   2.974
 4712W        W 8912   3.520   3.368   9.447
 4713W        W 8913   3.701   3.363   3.299
 4714W        W 8914   8.354   4.614   8.915
 4715W        W 8915   3.756   4.108  11.046
 4716W        W 8916   6.860   3.107   2.831
 4717W        W 8917   1.003   1.632   8.957
 4718W        W 8918   8.480   6.385   2.203
 4719W        W 8919   5.256   4.230   9.519
 4720W        W 8920   3.416  10.052   8.636
 4721W        W 8921   5.669   6.610   0.574
 4722W        W 8922   0.269   8.642   1.929
 4723W        W 8923   8.150   8.388   8.444
 4724W        W 8924   1.420   4.317  10.814
 4725W        W 8925   3.568   1.213   9.784
 4726W        W 8926   5.272   8.911   3.648
 4727W        W 8927  10.892   4.419   1.807
 4728W        W 8928  10.471   5.003   9.876
 4729W        W 8929  11.292   7.750  11.547
 4730W        W 8930   0.810   0.768   2.223
 4731W        W 8931   5.554   4.482  10.697
 4732W        W 8932   8.181  11.476   1.163
 4733W        W 8933  11.266   0.891  10.483
 4734W        W 8934   7.006   1.114  11.049
 4735W        W 8935   0.798   0.190  10.051
 4736W        W 8936   1.955  11.353   3.173
 4737W        W 8937   9.015   1.717   1.286
 4738W        W 8938   4.728   2.350   9.537
 4739W        W 8939   9.872   2.932   3.194
 4740W        W 8940   3.808   3.638   0.200
 4741W        W 8941   7.676   0.281   1.175
 4742W        W 8942   8.219   9.002   9.974
 4743W        W 8943  10.085   9.221   8.671
 4744W        W 8944   7.413  10.871   9.548
 4745W        W 8945  11.444   1.160   2.645
 4746W        W 8946  10.950   5.926   0.298
 4747W        W 8947   5.574   2.175   1.491
 4748W        W 8948   4.604   3.274   3.221
 4749W        W 8949   8.575   5.238   0.954
 4750W        W 8950   8.307   7.071   8.842
 4751W        W 8951   3.286  10.491   0.250
 4752W        W 8952  10.366   6.540   1.480
 4753W        W 8953   7.929   2.937   2.394
 4754W        W 8954   3.180   3.860   8.839
 4755W        W 8955   5.536   5.782  10.472
 4756W        W 8956   3.235   8.093   8.673
 4757W        W 8957   9.040   0.174  11.257
 4758W        W 8958   4.206   6.750   1.260
 4759W        W 8959   0.803   0.049  10.555
 4760W        W 8960  10.821   4.725   2.611
 4761W        W 8961  11.075   6.846   9.231
 4762W        W 8962  11.456   3.975   9.000
 4763W        W 8963  10.899   5.371   1.456
 4764W        W 8964  11.414   6.533   9.454
 4765W        W 8965   9.991   1.370   0.265
 4766W        W 8966   4.128   7.003   9.285
 4767W        W 8967   1.796   3.333   1.763
 4768W        W 8968  10.108  10.549   0.749
 4769W        W 8969   8.377   2.225   9.749
 4770W        W 8970   6.734   4.556   9.404
 4771W        W 8971  10.563   2.783   1.702
 4772W        W 8972   4.957   7.013   3.128
 4773W        W 8973   0.249   2.149   9.781
 4774W        W 8974   7.862   8.048   2.302
 4775W        W 8975   3.960   6.011  11.513
 4776W        W 8976  11.346   4.631   1.866
 4777W        W 8977   4.590   7.552   0.347
 4778W        W 8978   5.612   4.597   2.468
 4779W        W 8979  10.449   7.524   9.379
 4780W        W 8980   7.482   4.329  11.394
 4781W        W 8981   8.330   8.702   2.821
 4782W        W 8982   3.658   3.249   1.870
 4783W        W 8983   2.032   6.999  10.297
 4784W        W 8984  10.286   1.782   1.135
 4785W        W 8985  11.375   8.740   8.548
 4786W        W 8986  10.159   2.183   1.904
 4787W        W 8987   7.162   9.932   2.739
 4788W        W 8988   0.261   6.242  11.170
 4789W        W 8989   1.205   1.004   2.018
 4790W        W 8990  10.455   9.847   2.948
 4791W        W 8991   8.716   0.005  10.439
 4792W        W 8992   9.346   2.200  11.118
 4793W        W 8993   8.528   3.470   1.276
 4794W        W 8994   9.135   5.188  10.825
 4795W        W 8995   4.784   7.910   0.028
 4796W        W 8996  11.432  11.425  10.773
 4797W        W 8997   0.667   9.406   3.393
 4798W        W 8998   0.462   0.015   9.725
 4799W        W 8999   1.944   7.923  11.808
 4800W        W 9000  10.408   8.539   8.875
 4801W        W 9001   3.818   2.884  10.335
 4802W        W 9002   4.877   4.996   1.403
 4803W        W 9003   1.141   2.812   0.588
 4804W        W 9004   7.391   3.781   0.738
 4805W        W 9005   8.530   6.779  10.755
 4806W        W 9006   2.132   4.745   0.347
 4807W        W 9007   4.744   1.598  10.703
 4808W        W 9008   1.544   2.860   0.923
 4809W        W 9009   9.033  10.962   0.345
 4810W        W 9010   0.691   7.105   2.177
 4811W        W 9011   1.245   2.803  11.297
 4812W        W 9012  11.017  10.138   1.804
 4813W        W 9013   4.804   1.298   2.480
 4814W        W 9014   9.597   9.793   2.962
 4815W        W 9015  10.805   4.568   0.666
 4816W        W 9016   5.956   6.094   9.744
 4817W        W 9017   9.954   5.303   0.411
 4818W        W 9018   9.183   4.697   9.180
 4819W        W 9019   9.092   7.653  10.136
 4820W        W 9020   0.242   2.252   1.835
 4821W        W 9021   9.953  11.054  11.346
 4822W        W 9022   9.510  10.112   9.466
 4823W        W 9023   9.429   6.617  11.258
 4824W        W 9024   1.146   9.553   3.392
 4825W        W 9025   9.801   8.601   1.956
 4826W        W 9026   8.055   4.564   0.205
 4827W        W 9027   9.958   1.886   0.161
 4828W        W 9028   6.582   7.494   8.698
 4829W        W 9029   7.147   4.560   8.673
 4830W        W 9030   0.495   7.924   9.616
 4831W        W 9031   3.452   6.051   1.242
 4832W        W 9032   1.587   6.164  10.036
 4833W        W 9033   1.693   0.829   2.141
 4834W        W 9034   5.983   1.333   2.090
 4835W        W 9035   1.091   8.488   2.432
 4836W        W 9036   1.857   4.045  10.900
 4837W        W 9037   6.682   2.377   3.552
 4838W        W 9038   6.514   8.553   1.632
 4839W        W 9039   0.904   3.649   0.811
 4840W        W 9040   6.857  11.185   3.129
 4841W        W 9041   1.172   5.533   9.464
 4842W        W 9042   6.854   1.177   1.955
 4843W        W 9043  10.433   9.975  11.925
 4844W        W 9044   6.711   4.682   0.143
 4845W        W 9045   1.625   7.987   0.866
 4846W        W 9046   0.282   3.500  10.791
 4847W        W 9047  10.016   7.567  11.120
 4848W        W 9048   7.112  10.193  11.319
 4849W        W 9049   7.979   5.225   0.305
 4850W        W 9050   5.622   1.372   8.798
 4851W        W 9051   8.951   6.146   8.821
 4852W        W 9052   2.261   4.182   8.511
 4853W        W 9053   5.139   5.637  11.241
 4854W        W 9054   4.739   8.587  10.255
 4855W        W 9055   7.748   1.827   2.982
 4856W        W 9056   0.164   9.450   9.506
 4857W        W 9057   7.681   1.335  11.390
 4858W        W 9058   6.305   4.032   2.249
 4859W        W 9059   0.616   2.218  10.141
 4860W        W 9060   7.591   6.201  11.956
 4861W        W 9061   0.784   5.223  10.255
 4862W        W 9062   7.993   2.483   8.851
 4863W        W 9063   7.412   4.290   0.752
 4864W        W 9064   8.367   3.285  11.769
 4865W        W 9065   8.573   4.571   9.805
 4866W        W 9066   0.374   0.304  11.512
 4867W        W 9067   3.012   3.489   2.386
 4868W        W 9068   8.985   0.433   0.710
 4869W        W 9069   0.336   8.349  11.406
 4870W        W 9070   3.062   5.595   3.227
 4871W        W 9071   1.995   1.016  11.680
 4872W        W 9072  10.516   8.363  11.028
 4873W        W 9073   5.743  10.059   8.969
 4874W        W 9074   2.593   5.996   9.512
 4875W        W 9075   4.158   0.541   0.544
 4876W        W 9076   4.340   8.110   2.707
 4877W        W 9077   8.749   7.115   3.154
 4878W        W 9078   8.044   1.909  11.016
 4879W        W 9079   3.948   8.676   2.209
 4880W        W 9080   2.623  10.975   2.945
 4881W        W 9081   9.666   4.256   2.250
 4882W        W 9082   5.577   1.833   9.038
 4883W        W 9083   3.763   4.622  11.161
 4884W        W 9084   0.409   5.247  11.567
 4885W        W 9085   5.632   4.803   0.666
 4886W        W 9086   7.904   8.745   9.515
 4887W        W 9087   0.749   3.018   8.519
 4888W        W 9088   2.883   7.047   1.486
 4889W        W 9089   5.777  10.872  10.401
 4890W        W 9090   1.271  11.386   9.315
 4891W        W 9091   2.434   2.555   3.096
 4892W        W 9092   0.593   2.640   9.311
 4893W        W 9093   9.764   9.068   1.748
 4894W        W 9094   1.432   6.125   2.193
 4895W        W 9095   9.359   2.832  11.830
 4896W        W 9096   6.137  11.037   9.605
 4897W        W 9097   1.815   3.590  10.694
 4898W        W 9098   1.739   9.910  10.580
 4899W        W 9099   4.376  10.485  10.066
 4900W        W 9100   7.715   0.854  11.944
 4901W        W 9101   5.135   8.506   1.069
 4902W        W 9102   3.197   2.182   1.770
 4903W        W 9103   0.667   9.140  11.075
 4904W        W 9104   9.507   2.351   9.621
 4905W        W 9105   9.944   2.163   1.275
 4906W        W 9106   9.285  11.404  11.661
 4907W        W 9107   7.917   5.505  10.515
 4908W        W 9108  10.606   3.103   0.463
 4909W        W 9109   5.654   8.484   0.738
 4910W        W 9110   5.098   6.344   2.455
 4911W        W 9111   7.482   1.299   8.776
 4912W        W 9112   6.542   1.152  10.334
 4913W        W 9113   7.605   6.505   1.307
 4914W        W 9114   0.564  10.360   0.942
 4915W        W 9115   3.996   7.625   1.372
 4916W        W 9116   5.802   9.985  10.417
 4917W        W 9117   8.494   2.653  10.533
 4918W        W 9118   9.333   7.944   0.224
 4919W        W 9119   3.111   9.134   1.551
 4920W        W 9120   1.810   4.500   3.711
 4921W        W 9121   1.685   0.184   1.191
 4922W        W 9122   7.490   0.917  10.456
 4923W        W 9123   7.375   7.329  10.128
 4924W        W 9124   1.836   1.195   3.102
 4925W        W 9125   9.495   7.631  11.454
 4926W        W 9126   6.597   3.952   2.687
 4927W        W 9127   1.112   5.140  11.864
 4928W        W 9128  11.339   7.190   8.824
 4929W        W 9129   2.080   5.949   9.575
 4930W        W 9130   9.392   9.784  10.881
 4931W        W 9131   1.784   4.900   1.039
 4932W        W 9132   2.865  11.074   2.503
 4933W        W 9133   0.472   1.749   9.580
 4934W        W 9134  10.369   2.229  11.944
 4935W        W 9135   7.015   9.571  11.235
 4936W        W 9136  11.296   6.705   0.853
 4937W        W 9137   6.948   6.087  10.049
 4938W        W 9138   4.642   4.529   3.132
 4939W        W 9139   3.349   3.332   3.696
 4940W        W 9140   5.105   8.919   9.898
 4941W        W 9141   3.881  10.878  10.722
 4942W        W 9142   4.345   0.948  10.832
 4943W        W 9143   4.737   2.808   0.715
 4944W        W 9144   9.832   7.681   1.908
 4945W        W 9145   2.772  11.465  11.375
 4946W        W 9146   7.231  11.392   1.871
 4947W        W 9147  10.863   2.619  10.289
 4948W        W 9148   9.883   6.379  10.309
 4949W        W 9149   2.642   3.082   2.373
 4950W        W 9150   6.396   8.747   8.260
 4951W        W 9151  10.959   9.578  11.968
 4952W        W 9152   0.825   2.432   0.423
 4953W        W 9153   5.464   4.105   9.059
 4954W        W 9154   2.896  10.935  10.812
 4955W        W 9155   8.612   6.421   1.273
 4956W        W 9156   5.118   9.529   2.428
 4957W        W 9157   5.835   6.648   2.203
 4958W        W 9158   9.973   1.979   3.438
 4959W        W 9159   0.809   6.255   0.921
 4960W        W 9160   0.727  10.834   1.719
 4961W        W 9161   5.744   9.180  11.837
 4962W        W 9162   2.655   2.266   9.490
 4963W        W 9163   0.276   1.447   3.464
 4964W        W 9164   9.957   4.271   2.672
 4965W        W 9165   3.824   8.109  11.810
 4966W        W 9166   2.989   5.662   8.578
 4967W        W 9167   9.999   6.183  10.773
 4968W        W 9168   5.513   0.975   9.101
 4969W        W 9169  11.394   2.645   0.527
 4970W        W 9170   9.796  10.927   0.930
 4971W        W 9171  10.000  10.805   2.744
 4972W        W 9172   2.755   7.982   9.515
 4973W        W 9173  10.775   7.633   2.380
 4974W        W 9174   4.767   7.586   1.757
 4975W        W 9175  10.764   4.928   3.598
 4976W        W 9176  10.298   1.933  10.941
 4977W        W 9177   1.611   6.158   0.988
 4978W        W 9178  10.342   6.992   9.045
 4979W        W 9179   8.114   9.945   0.251
 4980W        W 9180   6.935   4.415   1.819
 4981W        W 9181   4.632   4.727   3.602
 4982W        W 9182   6.542   5.473   0.473
 4983W        W 9183   7.915   9.960   9.991
 4984W        W 9184   5.029   4.609   3.909
 4985W        W 9185   2.203   3.318   2.198
 4986W        W 9186   5.676   9.048   3.036
 4987W        W 9187   5.531   4.116   2.586
 4988W        W 9188   2.539   2.676   0.869
 4989W        W 9189  10.253   7.263   2.349
 4990W        W 9190   5.677   3.180   8.882
 4991W        W 9191   8.430  11.006  11.744
 4992W        W 9192   1.037   4.087   0.518
 4993W        W 9193   3.390   6.600  10.317
 4994W        W 9194  10.310   6.573  11.969
 4995W        W 9195   4.162   9.139   9.126
 4996W        W 9196   9.921   5.682   9.897
 4997W        W 9197   3.506   8.504   8.940
 4998W        W 9198   4.362  10.991  10.763
 4999W        W 9199   9.998   1.649  10.088
 5000W        W 9200  10.042   1.281   8.824
 5001W        W 9201  10.051   0.860   0.054
 5002W        W 9202   6.076   5.770   1.711
 5003W        W 9203   1.260   9.451  10.013
 5004W        W 9204   2.512   7.727   2.716
 5005W        W 9205   9.895   0.774   8.909
 5006W        W 9206   3.982   1.348  11.477
 5007W        W 9207   2.074   1.625   3.349
 5008W        W 9208   8.660   3.084  10.287
 5009W        W 9209  10.545  10.814   3.374
 5010W        W 9210   2.274   9.352  11.217
 5011W        W 9211   8.449   2.642   2.046
 5012W        W 9212   7.304  11.341   8.820
 5013W        W 9213   8.191   0.747   8.504
 5014W        W 9214   0.186   6.072   2.784
 5015W        W 9215   8.690   9.970   2.863
 5016W        W 9216   4.557   5.310   9.664
 5017W        W 9217   5.936   6.256   2.682
 5018W        W 9218   3.699  10.771   2.803
 5019W        W 9219   1.600   5.614   3.166
 5020W        W 9220   4.723   4.523   2.619
 5021W        W 9221   8.121   4.609   3.559
 5022W        W 9222   6.844   9.363   0.669
 5023W        W 9223   0.083   5.650  10.822
 5024W        W 9224   0.623   1.468   0.748
 5025W        W 9225   2.343   0.673   0.763
 5026W        W 9226   8.363   2.152   3.719
 5027W        W 9227   4.901   6.072   1.006
 5028W        W 9228  10.243  11.418   9.391
 5029W        W 9229   7.110   2.637   9.799
 5030W        W 9230  10.883   7.535   9.667
 5031W        W 9231   5.541   6.427  11.278
 5032W        W 9232   0.962   2.340   9.101
 5033W        W 9233   5.491   0.003   0.018
 5034W        W 9234   1.612   3.481  10.215
 5035W        W 9235   4.737   2.831   2.020
 5036W        W 9236   4.961   8.107   1.971
 5037W        W 9237   8.537   5.498   9.852
 5038W        W 9238   0.705   4.153  11.000
 5039W        W 9239  11.273   2.221   9.414
 5040W        W 9240   9.630   8.360   9.918
 5041W        W 9241   5.762   9.864   2.002
 5042W        W 9242   6.967   4.562   0.916
 5043W        W 9243   4.793   1.653   0.433
 5044W        W 9244   2.286  11.252  11.431
 5045W        W 9245   1.274   0.496   1.878
 5046W        W 9246   4.086   2.328   0.309
 5047W        W 9247   7.232   4.460   9.544
 5048W        W 9248   9.869  10.481   9.427
 5049W        W 9249   1.926   6.385  10.463
 5050W        W 9250   7.007   8.294   9.723
 5051W        W 9251   0.749   8.397   0.396
 5052W        W 9252   9.391   3.915   1.674
 5053W        W 9253   9.868   2.611   2.815
 5054W        W 9254   6.754  10.759   1.875
 5055W        W 9255   5.492   8.083   2.024
 5056W        W 9256   9.389   0.944  11.892
 5057W        W 9257   5.520  11.087   9.053
 5058W        W 9258   6.227   2.746   9.885
 5059W        W 9259   2.269   7.098   0.066
 5060W        W 9260  11.290  11.401   9.358
 5061W        W 9261   5.649   0.689  10.714
 5062W        W 9262  10.868   8.312   9.608
 5063W        W 9263  10.283   5.971  11.191
 5064W        W 9264   6.972   3.175   1.372
 5065W        W 9265   2.758   8.499   9.483
 5066W        W 9266  10.854   7.623   1.862
 5067W        W 9267   9.402   4.389  11.053
 5068W        W 9268   7.487  11.347   9.318
 5069W        W 9269  10.815   3.921   1.905
 5070W        W 9270   2.585   6.305   9.980
 5071W        W 9271  10.592   7.890  11.998
 5072W        W 9272   0.452  11.328   0.713
 5073W        W 9273  11.431   5.023   2.169
 5074W        W 9274   4.611  11.405   9.118
 5075W        W 9275   8.923   5.338   8.521
 5076W        W 9276   8.879   2.836   2.837
 5077W        W 9277   0.483   3.610  11.539
 5078W        W 9278   8.446   2.954   1.545
 5079W        W 9279   8.062   3.927   1.927
 5080W        W 9280   0.508   5.389  11.016
 5081W        W 9281   2.456   2.518  11.881
 5082W        W 9282   2.781   3.105   1.429
 5083W        W 9283   6.152  10.595   9.357
 5084W        W 9284   4.586  10.868   1.408
 5085W        W 9285   1.043   9.506   0.790
 5086W        W 9286   4.657   6.825   2.306
 5087W        W 9287   5.227   9.805   9.062
 5088W        W 9288   0.278   9.916   0.920
 5089W        W 9289   5.807   7.094   0.357
 5090W        W 9290   7.908   6.934   2.967
 5091W        W 9291   3.852  10.794   9.874
 5092W        W 9292   2.603   6.206  11.881
 5093W        W 9293   1.379   2.028   8.972
 5094W        W 9294   0.825   1.878  10.921
 5095W        W 9295   4.097   0.879  11.291
 5096W        W 9296   2.022  11.110  10.085
 5097W        W 9297   1.353   7.841   8.812
 5098W        W 9298   2.163   4.950   1.498
 5099W        W 9299   2.644   9.746  10.550
 5100W        W 9300  10.542  11.238   2.280
 5101W        W 9301   6.219   0.457   3.316
 5102W        W 9302   3.851   7.350   2.235
 5103W        W 9303   3.842   8.522   2.691
 5104W        W 9304  10.035   3.308   1.435
 5105W        W 9305   3.480   2.219  10.497
 5106W        W 9306   0.365   9.606   1.569
 5107W        W 9307   8.873   4.136   9.861
 5108W        W 9308   0.197   3.672   2.744
 5109W        W 9309   0.503   3.065  10.685
 5110W        W 9310   4.174  10.813   1.892
 5111W        W 9311   4.166  10.920  10.292
 5112W        W 9312   5.354   9.460   0.310
 5113W        W 9313   0.148  10.586   3.077
 5114W        W 9314  10.572   0.881  11.841
 5115W        W 9315   2.870   8.622   2.870
 5116W        W 9316   9.534   2.716   3.507
 5117W        W 9317   5.736   7.765  10.041
 5118W        W 9318   8.545   1.476   1.334
 5119W        W 9319   8.109   9.417   1.056
 5120W        W 9320   9.371   2.729  11.322
 5121W        W 9321   6.725   7.894   9.906
 5122W        W 9322   5.781   4.814  10.356
 5123W        W 9323   7.647  10.295  10.799
 5124W        W 9324   5.103   5.716  10.738
 5125W        W 9325   9.155   3.743   0.207
 5126W        W 9326   2.193   0.812   8.904
 5127W        W 9327   0.280   7.557   3.288
 5128W        W 9328   6.853   8.619   2.971
 5129W        W 9329   0.651  10.361   2.341
 5130W        W 9330   2.938   0.263  10.961
 5131W        W 9331   2.983   4.574   9.987
 5132W        W 9332   6.492   4.043   0.796
 5133W        W 9333   3.862   4.695   8.162
 5134W        W 9334   4.788   2.730   1.545
 5135W        W 9335   8.156   1.822   9.984
 5136W        W 9336   3.362   2.375   0.015
 5137W        W 9337   8.501   1.887  11.252
 5138W        W 9338   3.766  10.320   8.935
 5139W        W 9339   9.583   0.614   0.240
 5140W        W 9340   8.593   5.012  10.139
 5141W        W 9341   6.653  10.368  11.085
 5142W        W 9342   9.548   2.366   2.212
 5143W        W 9343  10.703   1.314  11.537
 5144W        W 9344   1.417   3.885  11.482
 5145W        W 9345   8.053   2.772   0.364
 5146W        W 9346   0.419   5.714   9.960
 5147W        W 9347   4.171   7.464   9.064
 5148W        W 9348  10.362   4.557  11.450
 5149W        W 9349   4.694   3.557   0.432
 5150W        W 9350   6.781   3.138   9.174
 5151W        W 9351   7.688   5.767   8.320
 5152W        W 9352   4.580   6.371   2.516
 5153W        W 9353   5.565   8.974   0.404
 5154W        W 9354   2.755   3.399  10.297
 5155W        W 9355   2.820   2.355   2.754
 5156W        W 9356   5.471   2.409   2.704
 5157W        W 9357   6.721   2.805   0.468
 5158W        W 9358   3.179   0.810   9.105
 5159W        W 9359   8.980  10.011  10.127
 5160W        W 9360  11.379   5.582   0.215
 5161W        W 9361   4.515   3.204   9.536
 5162W        W 9362   8.050   1.835   3.442
 5163W        W 9363   8.482   6.966   0.455
 5164W        W 9364  10.468   8.096   2.976
 5165W        W 9365   7.623   0.732   3.418
 5166W        W 9366   4.085  11.398  10.497
 5167W        W 9367   1.916   5.215  11.230
 5168W        W 9368   4.538   5.449   2.273
 5169W        W 9369   5.583   3.676   3.798
 5170W        W 9370   7.376   4.794  10.531
 5171W        W 9371  11.323   6.415   2.797
 5172W        W 9372   1.705   2.319   0.933
 5173W        W 9373   5.179   9.907   2.114
 5174W        W 9374  11.491  11.460   2.013
 5175W        W 9375   9.182   9.538   2.242
 5176W        W 9376   0.774   7.171   9.932
 5177W        W 9377   6.957   1.252  11.945
 5178W        W 9378   0.775   7.496   1.794
 5179W        W 9379   0.873   9.122   1.050
 5180W        W 9380   5.169   5.574  11.761
 5181W        W 9381  10.118   5.023  10.300
 5182W        W 9382  10.122   1.962  10.472
 5183W        W 9383   4.988   1.513  10.118
 5184W        W 9384   8.845   6.921   9.541
 5185W        W 9385   0.806   2.038  11.618
 5186W        W 9386   0.745   5.504   2.993
 5187W        W 9387   6.266   5.039   0.376
 5188W        W 9388   1.264   5.269  10.442
 5189W        W 9389   5.334   6.717  10.852
 5190W        W 9390   1.617   5.070  11.965
 5191W        W 9391   0.267  11.433   0.244
 5192W        W 9392   0.487   4.584  10.830
 5193W        W 9393  11.311   8.895   1.884
 5194W        W 9394   8.712  11.274   9.566
 5195W        W 9395  10.507   7.366  10.950
 5196W        W 9396   9.104   9.059   2.517
 5197W        W 9397  11.257   4.794   0.816
 5198W        W 9398   3.276   2.641   0.863
 5199W        W 9399   8.538   0.944   9.436
 5200W        W 9400   7.020   8.385   1.920
 5201W        W 9401   5.129  11.497   2.985
 5202W        W 9402   3.001   3.847   4.149
 5203W        W 9403   1.203   8.130   0.614
 5204W        W 9404   1.340   9.549   0.406
 5205W        W 9405   0.736   0.925  10.423
 5206W        W 9406  10.335   2.573   9.407
 5207W        W 9407  10.552   1.587   9.644
 5208W        W 9408  10.235   8.465   0.397
 5209W        W 9409   2.280  10.196   2.688
 5210W        W 9410   9.966   8.065  10.954
 5211W        W 9411   2.278  11.264   0.470
 5212W        W 9412   7.649   2.448   3.171
 5213W        W 9413  10.175   0.307  10.101
 5214W        W 9414   8.459  11.291   3.175
 5215W        W 9415   9.449   6.680   2.155
 5216W        W 9416   4.127   8.083   9.643
 5217W        W 9417   9.824   0.827   9.454
 5218W        W 9418   7.182  10.379   3.397
 5219W        W 9419   0.687   6.937  10.377
 5220W        W 9420  11.301   1.796  10.970
 5221W        W 9421   2.160   2.947   8.806
 5222W        W 9422   7.721   7.735   9.877
 5223W        W 9423   8.597   6.005  11.013
 5224W        W 9424   7.490   6.998   1.899
 5225W        W 9425   1.773  10.970   2.831
 5226W        W 9426   1.817  10.483  11.240
 5227W        W 9427   2.965   7.862  10.385
 5228W        W 9428   1.817   3.703   2.299
 5229W        W 9429   9.445   8.785   0.215
 5230W        W 9430   0.396   6.054   0.241
 5231W        W 9431   0.510   3.888   2.405
 5232W        W 9432   4.697   2.648   2.991
 5233W        W 9433   0.721   0.692   9.967
 5234W        W 9434  10.390   7.476   9.882
 5235W        W 9435   3.214   0.165   9.118
 5236W        W 9436   3.754   0.590   2.944
 5237W        W 9437   1.187   5.707   2.359
 5238W        W 9438   7.564   1.039   1.950
 5239W        W 9439   7.409   8.317   2.316
 5240W        W 9440   8.599   6.455   0.375
 5241W        W 9441  10.216   2.247   0.842
 5242W        W 9442   6.660   9.888   1.995
 5243W        W 9443   3.668  11.435   9.586
 5244W        W 9444   4.661   4.625  10.938
 5245W        W 9445   4.794   9.004   3.062
 5246W        W 9446   2.680   1.144   1.266
 5247W        W 9447   4.770   6.996  10.040
 5248W        W 9448   1.351   9.526  11.911
 5249W        W 9449   2.385   3.799   9.474
 5250W        W 9450   4.660   4.755   1.801
 5251W        W 9451   2.893   9.967  11.528
 5252W        W 9452   9.238   7.356  11.082
 5253W        W 9453   8.787   8.690   0.748
 5254W        W 9454   8.083   1.441   8.721
 5255W        W 9455   9.633   9.556   1.505
 5256W        W 9456   0.713   4.677  11.327
 5257W        W 9457   8.109   8.849  11.748
 5258W        W 9458   1.823   7.406  11.814
 5259W        W 9459   4.720   8.503   0.713
 5260W        W 9460   6.323   7.426   1.473
 5261W        W 9461   3.737   8.860  10.595
 5262W        W 9462  10.359   5.036  11.162
 5263W        W 9463   1.427   5.235   2.376
 5264W        W 9464   1.892   0.468   0.815
 5265W        W 9465   2.823   7.038   2.383
 5266W        W 9466   7.905   5.217  11.433
 5267W        W 9467   1.784   5.242   2.825
 5268W        W 9468   6.382   1.253   1.748
 5269W        W 9469   1.631   3.044   0.447
 5270W        W 9470  11.078   0.930   1.232
 5271W        W 9471   1.462   0.031   0.271
 5272W        W 9472   4.094   3.526  11.793
 5273W        W 9473   5.173   0.793   1.954
 5274W        W 9474  10.049   8.913   9.100
 5275W        W 9475   2.003  10.395   9.398
 5276W        W 9476   2.741   4.609   1.354
 5277W        W 9477   4.543   5.134  11.205
 5278W        W 9478   9.004   5.686   9.785
 5279W        W 9479   4.636   4.012   1.360
 5280W        W 9480   7.820   9.527  10.905
 5281W        W 9481   4.185   1.358   2.993
 5282W        W 9482   9.382   8.621   2.307
 5283W        W 9483   1.432   5.554  11.926
 5284W        W 9484   3.767   1.089   2.972
 5285W        W 9485   9.963   2.751  10.095
 5286W        W 9486   1.156   7.311   2.872
 5287W        W 9487   5.932   5.591   9.061
 5288W        W 9488   6.535   2.862   3.610
 5289W        W 9489   9.719   1.134   3.000
 5290W        W 9490   4.083  11.347   0.873
 5291W        W 9491   0.904  11.050  10.652
 5292W        W 9492   8.314   6.792   0.936
 5293W        W 9493   7.126   7.034  11.939
 5294W        W 9494   9.953  10.868  11.889
 5295W        W 9495   3.731   6.922  11.156
 5296W        W 9496   2.214   8.047   0.578
 5297W        W 9497   9.640   4.211   1.344
 5298W        W 9498  10.637   0.700   1.379
 5299W        W 9499   7.583   7.304   2.289
 5300W        W 9500   1.986   5.328   1.852
 5301W        W 9501  10.566  10.478  11.769
 5302W        W 9502   1.604   7.000   1.911
 5303W        W 9503   8.311   4.028  10.278
 5304W        W 9504   5.645   3.231   2.559
 5305W        W 9505   6.077   0.334   2.248
 5306W        W 9506   9.578   7.683   1.443
 5307W        W 9507   9.902   3.203   9.786
 5308W        W 9508   9.613   4.901   1.720
 5309W        W 9509   8.212   3.673   9.502
 5310W        W 9510   6.671   3.973   1.734
 5311W        W 9511   9.977   8.544  10.720
 5312W        W 9512   8.476  10.264  10.032
 5313W        W 9513   0.319  11.454   9.245
 5314W        W 9514   3.680   3.612  10.974
 5315W        W 9515  11.459  10.723   9.687
 5316W        W 9516   0.175   7.188  11.326
 5317W        W 9517   8.945   9.361  11.419
 5318W        W 9518   2.602   0.834   9.235
 5319W        W 9519   0.539   3.438  10.315
 5320W        W 9520  10.226   2.722   2.100
 5321W        W 9521   5.606   8.539   1.775
 5322W        W 9522   3.961   7.993   1.767
 5323W        W 9523   8.251   3.844   4.000
 5324W        W 9524   1.216   4.047   9.227
 5325W        W 9525   2.261   1.887   9.765
 5326W        W 9526   9.872  10.787   2.238
 5327W        W 9527   5.185   9.843   3.346
 5328W        W 9528   1.964   2.149  11.285
 5329W        W 9529   7.990  10.423   2.427
 5330W        W 9530   1.935   3.209   8.397
 5331W        W 9531   0.390  10.020  10.922
 5332W        W 9532   8.568   3.565   3.134
 5333W        W 9533   9.932   7.690   2.418
 5334W        W 9534   6.548  10.962   9.320
 5335W        W 9535   2.792   5.298  11.340
 5336W        W 9536   4.942   2.534   8.612
 5337W        W 9537   6.726   8.630   0.829
 5338W        W 9538   1.851   6.915   8.767
 5339W        W 9539   3.639   0.145   2.730
 5340W        W 9540   5.039   8.323   8.944
 5341W        W 9541   6.995   9.346   8.579
 5342W        W 9542   1.249   7.579   2.059
 5343W        W 9543   7.994   5.906   0.793
 5344W        W 9544   5.638  10.949   0.949
 5345W        W 9545   0.668   8.768  10.086
 5346W        W 9546   4.004   6.209   1.847
 5347W        W 9547  10.725   7.446   3.524
 5348W        W 9548   1.613   6.662   8.342
 5349W        W 9549   0.313  11.001   9.468
 5350W        W 9550   5.217   4.693   1.669
 5351W        W 9551   2.793   4.823  11.629
 5352W        W 9552   3.150   3.339   1.761
 5353W        W 9553   0.137   7.899   9.999
 5354W        W 9554   6.325   6.476   2.411
 5355W        W 9555   2.210  10.992   1.861
 5356W        W 9556   0.432   0.506   2.439
 5357W        W 9557   9.716   7.042   0.306
 5358W        W 9558   0.886   7.087   1.418
 5359W        W 9559   5.211   1.417   1.703
 5360W        W 9560   1.747   4.807  10.291
 5361W        W 9561   5.779   5.180   0.311
 5362W        W 9562   1.782   8.090   9.628
 5363W        W 9563   1.189   1.906  11.279
 5364W        W 9564  10.988   9.971   9.750
 5365W        W 9565   3.938   9.382   3.389
 5366W        W 9566   6.902   2.621   2.659
 5367W        W 9567   6.376   2.529  10.336
 5368W        W 9568   2.221   1.469   0.076
 5369W        W 9569   1.161   1.308   3.654
 5370W        W 9570   7.776   0.352   3.738
 5371W        W 9571   2.297   5.776   9.136
 5372W        W 9572   8.951   7.477   2.166
 5373W        W 9573  11.249   5.140   1.197
 5374W        W 9574   1.409  10.359   2.945
 5375W        W 9575   2.864   3.219   3.517
 5376W        W 9576  10.462   8.889   2.955
 5377W        W 9577   8.619   7.366   9.443
 5378W        W 9578   1.898   4.540  10.904
 5379W        W 9579  10.094   1.306   1.219
 5380W        W 9580   7.570   1.796   9.588
 5381W        W 9581   3.153   5.614   0.102
 5382W        W 9582   4.049   5.157  11.025
 5383W        W 9583   2.692   3.107   8.999
 5384W        W 9584   0.188   1.806   1.521
 5385W        W 9585   9.793   1.307   0.768
 5386W        W 9586   8.944   0.760   1.893
 5387W        W 9587   7.570   5.061   1.241
 5388W        W 9588   6.706  10.392   2.710
 5389W        W 9589   0.837  10.288  10.087
 5390W        W 9590   0.088   9.373   0.756
 5391W        W 9591   7.662   1.024   9.601
 5392W        W 9592   7.730   6.508   1.816
 5393W        W 9593   8.120   6.684   9.914
 5394W        W 9594   3.711   9.072   2.014
 5395W        W 9595   1.674   8.882  10.922
 5396W        W 9596   7.011   5.998  11.833
 5397W        W 9597   6.222   0.819   2.420
 5398W        W 9598   8.068  10.834   2.759
 5399W        W 9599   0.231   5.466   1.905
 5400W        W 9600   8.098   3.733   1.430
 5401W        W 9601  10.879   1.386   0.007
 5402W        W 9602   8.979   8.573   2.703
 5403W        W 9603   8.452   1.462   9.515
 5404W        W 9604   0.288   7.580  11.716
 5405W        W 9605   7.109   6.685  11.335
 5406W        W 9606   2.317   7.934  10.993
 5407W        W 9607   0.354   1.280  11.838
 5408W        W 9608   3.956   6.302   1.272
 5409W        W 9609   6.657   7.513   3.705
 5410W        W 9610  11.335   8.456   2.185
 5411W        W 9611   9.116  11.417   0.725
 5412W        W 9612   0.165   5.160   0.926
 5413W        W 9613   9.885   0.387  11.841
 5414W        W 9614   5.082   0.247   0.233
 5415W        W 9615   6.237   3.498   2.271
 5416W        W 9616  10.799  10.348   3.440
 5417W        W 9617  11.190   5.259   8.761
 5418W        W 9618   5.685   8.600   3.311
 5419W        W 9619   8.978   3.665   3.450
 5420W        W 9620  11.188   1.507   8.842
 5421W        W 9621   2.737  11.283   0.219
 5422W        W 9622   5.714   2.394   1.021
 5423W        W 9623   5.092   7.739  11.644
 5424W        W 9624   1.189   8.241   0.119
 5425W        W 9625  10.622   7.843   1.411
 5426W        W 9626   7.661   3.057   0.702
 5427W        W 9627  11.414   3.765   3.134
 5428W        W 9628   4.365   5.002   1.412
 5429W        W 9629   0.165   9.260  10.355
 5430W        W 9630   8.737   7.963  10.379
 5431W        W 9631   1.709  10.834   9.419
 5432W        W 9632   9.362   6.638  11.786
 5433W        W 9633   9.135   7.339   9.581
 5434W        W 9634  11.490  11.375   9.822
 5435W        W 9635  10.768   0.222   9.912
 5436W        W 9636   1.970  10.700   8.976
 5437W        W 9637   7.755   6.285   8.254
 5438W        W 9638   0.190   5.535   9.513
 5439W        W 9639  10.815   7.153   8.909
 5440W        W 9640   6.444   2.789   8.974
 5441W        W 9641  10.101   0.738  10.547
 5442W        W 9642   6.801   6.093   1.307
 5443W        W 9643   9.510   3.303   2.272
 5444W        W 9644   5.250   5.806   2.361
 5445W        W 9645   7.304   0.442  10.056
 5446W        W 9646   8.922   0.797   2.406
 5447W        W 9647   3.666   3.601   0.714
 5448W        W 9648   0.200   3.061  10.248
 5449W        W 9649   0.411   8.674  10.903
 5450W        W 9650   7.583   6.412   3.542
 5451W        W 9651   1.293   7.847  10.923
 5452W        W 9652   3.998   1.016   0.415
 5453W        W 9653   9.477   2.798   9.898
 5454W        W 9654   7.286   1.005   0.263
 5455W        W 9655   6.789   0.798   8.405
 5456W        W 9656   5.517   3.771   1.828
 5457W        W 9657   9.527   1.362   1.302
 5458W        W 9658   0.509   7.045   8.997
 5459W        W 9659   0.216   8.735  10.411
 5460W        W 9660   0.297   3.862  11.146
 5461W        W 9661   1.416  10.879  11.782
 5462W        W 9662  10.750   9.349   2.259
 5463W        W 9663   2.037   8.361   3.227
 5464W        W 9664   1.634  10.408   2.134
 5465W        W 9665   4.646   8.136   9.672
 5466W        W 9666   9.462   6.889   9.875
 5467W        W 9667   3.694   5.438  10.341
 5468W        W 9668  11.379   6.046   0.041
 5469W        W 9669   3.352   7.209  10.965
 5470W        W 9670  10.871   8.574   8.615
 5471W        W 9671  10.735   6.988   0.399
 5472W        W 9672   3.337   9.131  11.066
 5473W        W 9673   1.630   9.626  11.476
 5474W        W 9674   5.891   1.508   9.800
 5475W        W 9675   4.880  10.389  10.180
 5476W        W 9676   1.306   5.733   0.384
 5477W        W 9677   2.141   1.751  11.575
 5478W        W 9678   9.827   0.628   3.034
 5479W        W 9679   7.702   9.047   9.911
 5480W        W 9680   7.146   7.111  10.537
 5481W        W 9681   0.027   9.832   8.616
 5482W        W 9682   1.359  10.441   9.975
 5483W        W 9683   5.471  10.727   2.451
 5484W        W 9684   5.003   7.973   3.350
 5485W        W 9685   3.251   0.188  11.458
 5486W        W 9686   2.268   7.501  10.350
 5487W        W 9687   1.484   4.259   2.371
 5488W        W 9688  10.483   2.463   9.932
 5489W        W 9689   4.957   6.407  11.721
 5490W        W 9690   7.074   1.763   1.144
 5491W        W 9691   0.417   0.344   0.516
 5492W        W 9692   8.363   7.195  11.021
 5493W        W 9693   2.355   3.067   2.788
 5494W        W 9694  10.575   6.005   2.189
 5495W        W 9695   4.292  11.380  11.521
 5496W        W 9696   2.413  10.209  11.512
 5497W        W 9697   0.979  11.471   8.594
 5498W        W 9698   9.423   0.787   2.123
 5499W        W 9699   7.697   6.608   8.682
 5500W        W 9700   6.561   8.599   3.826
 5501W        W 9701   2.364   0.391   9.152
 5502W        W 9702   8.485   5.048   9.638
 5503W        W 9703   3.720   0.850   2.065
 5504W        W 9704   1.714   0.369   1.653
 5505W        W 9705   4.268   2.269   9.294
 5506W        W 9706   0.371   8.028   9.120
 5507W        W 9707   9.995  10.031   0.719
 5508W        W 9708   0.419   3.382   1.480
 5509W        W 9709   4.243   0.015  11.000
 5510W        W 9710  11.127   1.434   2.333
 5511W        W 9711   5.101   7.002   1.056
 5512W        W 9712  11.476   5.580   1.426
 5513W        W 9713   1.381   7.069   0.126
 5514W        W 9714   1.407   3.734   1.029
 5515W        W 9715   3.307   7.619   0.794
 5516W        W 9716   6.099   1.716   3.505
 5517W        W 9717   8.422   8.479   3.639
 5518W        W 9718  10.000  10.384   3.533
 5519W        W 9719   9.523   7.734  10.415
 5520W        W 9720   8.047  10.982  10.093
 5521W        W 9721  10.888   8.685   9.954
 5522W        W 9722   2.500   4.323   2.143
 5523W        W 9723   8.684   8.531  11.756
 5524W        W 9724   2.394   6.072  10.438
 5525W        W 9725   2.880   8.901  10.726
 5526W        W 9726   7.123   5.741  11.367
 5527W        W 9727   2.879   9.334   0.291
 5528W        W 9728   5.089   9.079  11.465
 5529W        W 9729   3.435   0.213  10.982
 5530W        W 9730   4.623   4.563   0.497
 5531W        W 9731   0.639   0.520  10.860
 5532W        W 9732   8.405   7.863   3.082
 5533W        W 9733  10.395   5.611   0.904
 5534W        W 9734   1.843   5.690  11.648
 5535W        W 9735   2.034   4.689   9.876
 5536W        W 9736  11.053   5.307   1.950
 5537W        W 9737   4.828  10.439  11.465
 5538W        W 9738   4.414   4.072   3.246
 5539W        W 9739   7.290   2.273   8.828
 5540W        W 9740   3.693   1.806   1.666
 5541W        W 9741   8.399   4.157   9.268
 5542W        W 9742   7.861   3.255   0.242
 5543W        W 9743   4.376   3.250   3.663
 5544W        W 9744   9.016   5.021   1.451
 5545W        W 9745   4.251   7.027   8.776
 5546W        W 9746   7.770   0.918   0.455
 5547W        W 9747   6.116   4.557   1.321
 5548W        W 9748  10.358   6.433   9.991
 5549W        W 9749   5.863   9.406   0.330
 5550W        W 9750   4.171   1.374   0.826
 5551W        W 9751  11.262   9.847  10.197
 5552W        W 9752   7.218   9.543  10.363
 5553W        W 9753   6.019   4.279   2.617
 5554W        W 9754   4.957   2.316   2.702
 5555W        W 9755  10.372   9.446  10.249
 5556W        W 9756   2.591   9.841  11.103
 5557W        W 9757   1.433   1.727   3.113
 5558W        W 9758   5.547   5.383   2.269
 5559W        W 9759   4.891   7.114   1.521
 5560W        W 9760   0.378   1.302  11.304
 5561W        W 9761   5.570   4.629   9.015
 5562W        W 9762   5.917   6.513   9.456
 5563W        W 9763   0.239   6.796   2.093
 5564W        W 9764   9.911  10.471   1.236
 5565W        W 9765   2.305   3.348   1.324
 5566W        W 9766   4.908   9.111   8.498
 5567W        W 9767   8.539   3.865   1.734
 5568W        W 9768   1.509   4.814   2.683
 5569W        W 9769   6.234  11.463   1.409
 5570W        W 9770   1.861   6.927   3.156
 5571W        W 9771   3.159   3.606   0.770
 5572W        W 9772   7.689   9.205   1.303
 5573W        W 9773   7.877   8.074  10.217
 5574W        W 9774   9.574  11.396   0.987
 5575W        W 9775   6.753   6.566   9.942
 5576W        W 9776   3.044   5.512   2.467
 5577W        W 9777   7.320   8.574   2.765
 5578W        W 9778   3.397  10.935  10.807
 5579W        W 9779   8.036   1.313   1.261
 5580W        W 9780   5.930   3.070   0.322
 5581W        W 9781  11.264   1.010   3.558
 5582W        W 9782  10.313   3.706   1.706
 5583W        W 9783   4.603   3.361  10.036
 5584W        W 9784   8.504   7.656   9.044
 5585W        W 9785   7.738   5.246   8.524
 5586W        W 9786   1.722   3.143   2.259
 5587W        W 9787   3.142   7.032   9.896
 5588W        W 9788   2.274   2.440   1.681
 5589W        W 9789   9.496   7.393   9.963
 5590W        W 9790   7.497   0.242  11.153
 5591W        W 9791   6.628   2.338   1.383
 5592W        W 9792   8.639   7.630   9.889
 5593W        W 9793  10.974   3.587   0.457
 5594W        W 9794   3.596   2.346   0.467
 5595W        W 9795   8.130   6.602  11.289
 5596W        W 9796   6.933   0.340   1.115
 5597W        W 9797   0.917   5.723   9.001
 5598W        W 9798  10.289   5.656   2.436
 5599W        W 9799   4.199   6.916  11.332
 5600W        W 9800   0.117   0.742  10.817
 5601W        W 9801   1.454  11.368   0.842
 5602W        W 9802  10.006   0.300   9.126
 5603W        W 9803   2.257   1.932   8.726
 5604W        W 9804   1.389   1.426   1.771
 5605W        W 9805   9.135   9.942   3.130
 5606W        W 9806   8.628   1.157  11.020
 5607W        W 9807   9.282   2.657   2.545
 5608W        W 9808   9.185  11.468   0.204
 5609W        W 9809   7.510   8.765   9.152
 5610W        W 9810   2.772   1.595   1.504
 5611W        W 9811  10.710  10.585   2.945
 5612W        W 9812  10.431   8.276   3.490
 5613W        W 9813   8.372   7.919   1.357
 5614W        W 9814   2.166   0.677   2.830
 5615W        W 9815   6.440   1.162  11.200
 5616W        W 9816   7.224   6.473   1.742
 5617W        W 9817   5.421   5.276   9.546
 5618W        W 9818   0.118   1.617   2.730
 5619W        W 9819   3.178   2.820   9.928
 5620W        W 9820   3.008   4.715   2.974
 5621W        W 9821   2.047   5.149   0.663
 5622W        W 9822   6.047   9.345   9.617
 5623W        W 9823   9.038   5.128   2.395
 5624W        W 9824   8.465   0.404   1.249
 5625W        W 9825  10.344   6.474  11.008
 5626W        W 9826   7.121   8.406  11.076
 5627W        W 9827   4.048   4.749  10.711
 5628W        W 9828   2.332   7.720   8.977
 5629W        W 9829   6.553   3.076   4.132
 5630W        W 9830  11.231  11.040  11.054
 5631W        W 9831   0.001   3.450   9.076
 5632W        W 9832   3.017   8.354   9.059
 5633W        W 9833   6.234   9.328  11.984
 5634W        W 9834   2.253   2.816   9.833
 5635W        W 9835   9.897   6.161  11.462
 5636W        W 9836   8.699   6.589   1.769
 5637W        W 9837  10.426  10.466  10.791
 5638W        W 9838  10.040   4.087   0.895
 5639W        W 9839   7.012   0.775   3.152
 5640W        W 9840  10.410   4.513   2.878
 5641W        W 9841   8.752   2.301   1.817
 5642W        W 9842   9.208   3.836   9.422
 5643W        W 9843   5.489   5.037   9.991
 5644W        W 9844   6.938  10.779   2.364
 5645W        W 9845   3.521   7.722  11.945
 5646W        W 9846   0.222   2.711   1.521
 5647W        W 9847   1.886   8.165   1.981
 5648W        W 9848   9.148   9.063   9.792
 5649W        W 9849   1.193   4.802  11.475
 5650W        W 9850  11.386   9.819   9.230
 5651W        W 9851   8.599   9.349  10.629
 5652W        W 9852   7.971   2.334  10.719
 5653W        W 9853   0.502   8.047  11.827
 5654W        W 9854   4.474   2.817  10.655
 5655W        W 9855   8.922   1.569  11.188
 5656W        W 9856   3.485   3.798   1.174
 5657W        W 9857   6.442   3.527   0.874
 5658W        W 9858   6.569   2.851   1.361
 5659W        W 9859  10.448   3.291  10.621
 5660W        W 9860   3.702   8.287  11.295
 5661W        W 9861   4.141   6.581   0.769
 5662W        W 9862   4.738   0.316  10.336
 5663W        W 9863  10.053   0.111  11.425
 5664W        W 9864  10.988  11.249   9.933
 5665W        W 9865   0.830   5.065   3.230
 5666W        W 9866  10.073   1.368   2.448
 5667W        W 9867   8.888   4.180   0.268
 5668W        W 9868   0.790   9.920   3.243
 5669W        W 9869  10.854   9.661   2.667
 5670W        W 9870   3.434   3.147   0.884
 5671W        W 9871  11.017   6.990   3.581
 5672W        W 9872   1.277   2.330   2.780
 5673W        W 9873   2.151  10.846   1.365
 5674W        W 9874   7.137  10.324   2.436
 5675W        W 9875   3.421  11.069   9.927
 5676W        W 9876   2.216   3.328   9.648
 5677W        W 9877   3.495   3.973  10.625
 5678W        W 9878   1.887   5.539   9.359
 5679W        W 9879   8.674   5.188   2.870
 5680W        W 9880   5.542   7.355   9.787
 5681W        W 9881   4.318   7.533   0.779
 5682W        W 9882   0.946   2.686   2.646
 5683W        W 9883   0.208   6.825  10.511
 5684W        W 9884   5.467   4.099   4.037
 5685W        W 9885   8.183   8.070   8.960
 5686W        W 9886   8.890   5.469  10.232
 5687W        W 9887   7.476   2.368  10.497
 5688W        W 9888   7.713  11.235   9.782
 5689W        W 9889   0.198   5.236   8.986
 5690W        W 9890   1.886   6.987   1.456
 5691W        W 9891   0.960   5.275   2.163
 5692W        W 9892   7.649   0.588   1.740
 5693W        W 9893  11.407   5.690   9.938
 5694W        W 9894   2.626  11.246   9.514
 5695W        W 9895  10.872   7.150  10.005
 5696W        W 9896   3.744   4.759   2.254
 5697W        W 9897   4.683   9.948   0.505
 5698W        W 9898   7.876   1.547  11.926
 5699W        W 9899   0.739   0.423   8.656
 5700W        W 9900  11.333   0.026  11.292
 5701W        W 9901   0.453   7.995   0.605
 5702W        W 9902  10.232  11.327  10.307
 5703W        W 9903   1.442   4.241   0.232
 5704W        W 9904   4.934   1.299   3.253
 5705W        W 9905   7.681   8.982  10.911
 5706W        W 9906   6.865   8.855   8.514
 5707W        W 9907   3.676   5.490  10.859
 5708W        W 9908   4.937   4.341  10.506
 5709W        W 9909   0.383   8.777   0.322
 5710W        W 9910   6.950   4.583  10.344
 5711W        W 9911   8.234   9.596   8.802
 5712W        W 9912   5.024   2.899  10.624
 5713W        W 9913   9.752   4.561  10.633
 5714W        W 9914  11.139   8.494  10.403
 5715W        W 9915   4.460   8.002   1.900
 5716W        W 9916   6.422   1.314   1.240
 5717W        W 9917   1.416   9.076   1.220
 5718W        W 9918   9.913   6.456   3.573
 5719W        W 9919   1.320   7.158   2.326
 5720W        W 9920   8.071   4.155   1.083
 5721W        W 9921   4.803   5.242   1.870
 5722W        W 9922   0.394   3.480   9.423
 5723W        W 9923   6.955   1.699   2.115
 5724W        W 9924   4.436  10.293   0.905
 5725W        W 9925  10.045   8.085   9.816
 5726W        W 9926  10.296   3.975  11.984
 5727W        W 9927   8.403   6.170   1.703
 5728W        W 9928  11.289   3.406   0.860
 5729W        W 9929   4.466   6.316   1.152
 5730W        W 9930   0.021   8.553   0.644
 5731W        W 9931   8.830   1.141   3.394
 5732W        W 9932   3.876   7.116   1.486
 5733W        W 9933   9.028   4.329   0.737
 5734W        W 9934   7.752   1.476   1.662
 5735W        W 9935  11.361  10.125  11.631
 5736W        W 9936   4.164   5.060   2.342
 5737W        W 9937   8.933   7.566   1.670
 5738W        W 9938   3.179   7.701   9.430
 5739W        W 9939   2.292   4.787   0.961
 5740W        W 9940   1.440  11.428   8.822
 5741W        W 9941   1.430  11.316  11.536
 5742W        W 9942   7.140   2.925   8.821
 5743W        W 9943  11.186   9.277  11.008
 5744W        W 9944   0.431   3.734   3.219
 5745W        W 9945   1.020   8.466  10.313
 5746W        W 9946   8.808   5.986   8.346
 5747W        W 9947   6.372   0.818  10.696
 5748W        W 9948   5.510   3.708   8.144
 5749W        W 9949   9.538   8.632   3.231
 5750W        W 9950   5.908   3.382   1.885
 5751W        W 9951   2.273   8.443  10.317
 5752W        W 9952   5.725   9.132   3.552
 5753W        W 9953   3.612   1.887   9.507
 5754W        W 9954   1.341   4.753   2.197
 5755W        W 9955   6.082   8.323   2.691
 5756W        W 9956  10.375   6.593   3.365
 5757W        W 9957   0.291  10.563   9.158
 5758W        W 9958   9.560   5.546   1.128
 5759W        W 9959   8.522   0.971   2.080
 5760W        W 9960   2.900   7.869   1.327
 5761W        W 9961   0.092  10.580  11.730
 5762W        W 9962   5.191   0.963  11.435
 5763W        W 9963   9.076   7.600   2.654
 5764W        W 9964   2.272   0.858  10.847
 5765W        W 9965   6.294  10.543  10.775
 5766W        W 9966   3.519   3.804   3.547
 5767W        W 9967  10.573   9.986  10.983
 5768W        W 9968   6.159   1.746  11.019
 5769W        W 9969   8.103   7.677  11.188
 5770W        W 9970   2.170   8.894  11.040
 5771W        W 9971   8.924   6.037   0.787
 5772W        W 9972  10.185   4.259  10.591
 5773W        W 9973   3.262   9.064   9.060
 5774W        W 9974  10.516   9.044   8.901
 5775W        W 9975  10.049   9.017   2.177
 5776W        W 9976  10.325   5.367  10.619
 5777W        W 9977   1.683   3.802   2.845
 5778W        W 9978  11.266  10.277   0.620
 5779W        W 9979   1.939  11.441   1.840
 5780W        W 9980   4.516  10.915  11.439
 5781W        W 9981   2.756   2.060   9.038
 5782W        W 9982   6.148   9.078   2.302
 5783W        W 9983   8.968   0.358   2.694
 5784W        W 9984   9.550   6.443   9.594
 5785W        W 9985   1.374   3.828  10.957
 5786W        W 9986   7.426   7.610  11.713
 5787W        W 9987   0.987   3.669  10.393
 5788W        W 9988   4.904   7.201   0.577
 5789W        W 9989  10.453  10.760   2.463
 5790W        W 9990   3.319   3.758   9.777
 5791W        W 9991   1.756  11.387   3.612
 5792W        W 9992   7.221   7.515   1.001
 5793W        W 9993   3.132  10.799  11.285
 5794W        W 9994   0.288  10.075   1.401
 5795W        W 9995   8.620   1.987   1.445
 5796W        W 9996   5.168   1.937  10.942
 5797W        W 9997   4.706   6.060  10.777
 5798W        W 9998  10.072   7.595   1.355
 5799W        W 9999   2.345   9.845   2.316
 5800W        W10000  10.353   4.964   8.847
 5801W        W10001   4.679  10.560   1.847
 5802W        W10002   6.995   0.375   0.126
 5803W        W10003   0.602  11.351  11.784
 5804W        W10004   9.209   5.214  11.333
 5805W        W10005   8.025   5.664   8.684
 5806W        W10006   8.562  11.035   1.779
 5807W        W10007   2.513   4.770   2.873
 5808W        W10008   3.714   3.068   9.047
 5809W        W10009   3.481   9.467   3.612
 5810W        W10010   2.588   9.334   0.738
 5811W        W10011   2.675   4.296  10.272
 5812W        W10012   3.690   4.249   2.175
 5813W        W10013   8.463   9.577   0.160
 5814W        W10014   7.722   6.434   9.171
 5815W        W10015   1.917   0.986   0.745
 5816W        W10016   8.990  10.867   2.538
 5817W        W10017   2.837   5.560  10.770
 5818W        W10018  10.886  10.531   0.872
 5819W        W10019   5.637  10.102   9.931
 5820W        W10020   5.639   9.598   3.225
 5821W        W10021   6.549   1.247   2.349
 5822W        W10022   6.106   1.504   8.968
 5823W        W10023   0.865   4.864   8.514
 5824W        W10024   8.694   4.738   9.282
 5825W        W10025   6.215   1.628   3.015
 5826W        W10026   6.666   0.586  11.768
 5827W        W10027   4.687   1.322   0.811
 5828W        W10028   9.453   8.776  10.834
 5829W        W10029   2.649   9.013  11.163
 5830W        W10030   3.648   2.365   1.946
 5831W        W10031   0.009   8.944   2.347
 5832W        W10032   1.827   8.668   1.905
 5833W        W10033   8.940   8.451  11.035
 5834W        W10034   8.044   4.788   1.718
 5835W        W10035   7.108   6.490   1.180
 5836W        W10036   5.967   8.478   0.329
 5837W        W10037   9.898   1.865   2.495
 5838W        W10038   8.648   6.462   9.124
 5839W        W10039   6.227   3.643   3.147
 5840W        W10040   2.570   8.793   1.272
 5841W        W10041   3.666   9.948   1.340
 5842W        W10042   0.876   4.610  11.810
 5843W        W10043  11.413   3.654  11.466
 5844W        W10044  10.478   5.709  11.918
 5845W        W10045   7.494   4.079   9.813
 5846W        W10046   7.901   7.932   3.159
 5847W        W10047   1.459   9.889   9.286
 5848W        W10048  10.507   0.071   2.806
 5849W        W10049   2.232  10.658   0.879
 5850W        W10050   2.887   3.440  11.356
 5851W        W10051  11.432   1.063  11.295
 5852W        W10052   8.290   3.725   0.860
 5853W        W10053   5.254   9.748   1.164
 5854W        W10054   0.333   7.483   9.287
 5855W        W10055  10.410   4.217   1.787
 5856W        W10056   8.956   0.133   8.779
 5857W        W10057   0.370   8.362   1.482
 5858W        W10058  10.776   1.820   1.234
 5859W        W10059   1.167  10.343   2.321
 5860W        W10060  10.079   3.258  11.442
 5861W        W10061   6.414   7.809  10.900
 5862W        W10062   6.054   4.333   0.844
 5863W        W10063   6.643   1.288   0.434
 5864W        W10064   8.001   4.260  11.117
 5865W        W10065   8.729   5.814  10.566
 5866W        W10066   7.409   8.296  10.076
 5867W        W10067   8.929   8.072   9.894
 5868W        W10068   6.738  11.420   1.344
 5869W        W10069   1.626   6.165   9.522
 5870W        W10070   1.697   0.944  10.147
 5871W        W10071   1.658   2.509   3.551
 5872W        W10072   6.846   1.404   1.497
 5873W        W10073   5.227   2.155  11.848
 5874W        W10074  11.359   0.402  11.729
 5875W        W10075   2.283   8.909   2.021
 5876W        W10076   8.908   8.512   2.187
 5877W        W10077   3.902   7.037   3.261
 5878W        W10078  10.843   5.876   3.608
 5879W        W10079   2.493   7.067  10.504
 5880W        W10080  10.479   5.643   1.405
 5881W        W10081   3.198   5.623  11.530
 5882W        W10082   7.938   6.998   9.578
 5883W        W10083   6.670   0.332   3.051
 5884W        W10084   9.365   3.192   8.498
 5885W        W10085   4.709   7.048   9.029
 5886W        W10086   5.093   7.154  10.994
 5887W        W10087   8.327   4.813   2.169
 5888W        W10088  11.313   4.790   0.288
 5889W        W10089   2.357   8.654   2.932
 5890W        W10090   6.478   8.003   8.675
 5891W        W10091  11.047   2.834   1.870
 5892W        W10092   6.538   8.488   9.898
 5893W        W10093   5.563   3.275   9.816
 5894W        W10094  10.529   5.546  11.038
 5895W        W10095  10.285   0.288   1.345
 5896W        W10096   3.409  10.192   0.650
 5897W        W10097   4.922   1.154  10.514
 5898W        W10098   2.664  10.971  11.256
 5899W        W10099   7.532  10.172  11.917
 5900W        W10100   2.110   6.659   0.361
 5901W        W10101  10.374   1.060   9.691
 5902W        W10102   7.328   8.322   1.433
 5903W        W10103   2.542   8.870  10.355
 5904W        W10104   2.685   5.829   1.609
 5905W        W10105   7.512   9.565   2.796
 5906W        W10106   8.648   3.279   2.643
 5907W        W10107   6.491  11.394   2.834
 5908W        W10108   5.296   4.767   9.421
 5909W        W10109   1.677   9.753  10.101
 5910W        W10110   0.263   7.610   2.751
 5911W        W10111   2.888  10.447   1.392
 5912W        W10112  10.402   3.817   1.214
 5913W        W10113   6.224   8.166   9.088
 5914W        W10114   9.510   0.230   0.598
 5915W        W10115   6.079   7.012   1.684
 5916W        W10116   4.484  10.506  10.579
 5917W        W10117   0.371  11.027   8.965
 5918W        W10118  11.072   1.861   0.791
 5919W        W10119   3.384   9.772   0.946
 5920W        W10120   5.432   1.058  10.439
 5921W        W10121   6.562   9.536   1.638
 5922W        W10122   6.261   1.897   8.410
 5923W        W10123   0.287   8.470   8.798
 5924W        W10124   1.664   3.141  11.947
 5925W        W10125   9.037   8.511   3.233
 5926W        W10126   4.627   8.743   9.788
 5927W        W10127   9.297   2.839   8.908
 5928W        W10128   7.257  11.488   1.330
 5929W        W10129   6.293   8.816   0.030
 5930W        W10130   9.456   6.152   8.712
 5931W        W10131  10.005   4.569   1.788
 5932W        W10132   1.741   1.983   3.550
 5933W        W10133   1.047   2.300   3.576
 5934W        W10134  11.209   9.453  10.518
 5935W        W10135   2.631   1.101   8.802
 5936W        W10136  10.884   4.726   9.962
 5937W        W10137   2.127   6.805  10.759
 5938W        W10138   7.142   7.954  11.963
 5939W        W10139   1.442  10.891  10.741
 5940W        W10140   9.266   7.493  11.914
 5941W        W10141   4.224   8.460   1.838
 5942W        W10142  10.011   5.775   1.223
 5943W        W10143   4.481  10.704   2.306
 5944W        W10144  10.074   2.657  11.968
 5945W        W10145   2.761   8.468   2.023
 5946W        W10146  10.514   4.549  10.294
 5947W        W10147   7.396   9.869  10.987
 5948W        W10148   4.225  11.182   2.265
 5949W        W10149   8.239   8.585   0.804
 5950W        W10150   8.969   6.768   0.498
 5951W        W10151   6.709   1.863   9.810
 5952W        W10152   1.607   0.673   0.425
 5953W        W10153   9.173   6.729   2.654
 5954W        W10154   9.005   7.393   0.810
 5955W        W10155   7.115   5.566   9.968
 5956W        W10156   2.647   9.931   1.352
 5957W        W10157  11.319   0.674   0.161
 5958W        W10158   7.122   2.529   0.258
 5959W        W10159   5.305   5.253   1.485
 5960W        W10160   5.223   0.216  10.195
 5961W        W10161  11.001   8.889   2.297
 5962W        W10162   0.692   9.249   8.908
 5963W        W10163   7.474   1.838   2.467
 5964W        W10164  10.978   5.978   8.966
 5965W        W10165   2.652  11.463   2.779
 5966W        W10166   0.695   4.118  11.535
 5967W        W10167   8.877   5.584  11.020
 5968W        W10168  11.181   7.217  11.480
 5969W        W10169   5.785   6.987  10.065
 5970W        W10170   9.203   2.337   3.490
 5971W        W10171   1.781  11.294   2.303
 5972W        W10172   6.933   2.231  10.084
 5973W        W10173  10.436   7.554   8.871
 5974W        W10174   0.898   0.223   1.641
 5975W        W10175   8.603   8.979  11.477
 5976W        W10176   1.400   9.870   1.996
 5977W        W10177   4.275   4.334   2.814
 5978W        W10178  10.067   5.072   1.948
 5979W        W10179  10.389  11.084  11.613
 5980W        W10180  10.616   3.166   2.883
 5981W        W10181  10.971   7.677  10.789
 5982W        W10182   7.030   7.130  11.047
 5983W        W10183   9.359   9.523  11.689
 5984W        W10184  10.604   8.013   0.896
 5985W        W10185   5.050   5.233  10.958
 5986W        W10186   1.587   1.942   2.645
 5987W        W10187   1.456   4.505   1.089
 5988W        W10188   9.245   7.065  11.513
 5989W        W10189   0.182   9.454   2.597
 5990W        W10190   1.065   6.688   0.322
 5991W        W10191  11.424   1.502  11.568
 5992W        W10192   6.266   8.962   9.371
 5993W        W10193   3.838  10.822   2.308
 5994W        W10194   6.151   5.704  11.753
 5995W        W10195   5.560   1.853   2.669
 5996W        W10196   2.504   8.952   9.463
 5997W        W10197  10.028  10.960   0.432
 5998W        W10198   9.986   8.574   3.465
 5999W        W10199   7.143   6.978   3.409
 6000W        W10200   4.173  10.020  10.275
 6001W        W10201   3.317  10.337  11.297
 6002W        W10202   3.019   6.228   1.598
 6003W        W10203   2.732   0.417   3.005
 6004W        W10204   6.148  11.017  11.933
 6005W        W10205   8.001   6.097   2.002
 6006W        W10206   4.546   4.321  11.376
 6007W        W10207   5.046   0.181   0.745
 6008W        W10208   4.046   9.709  11.062
 6009W        W10209   9.967   8.577   2.954
 6010W        W10210   5.134   3.601   3.211
 6011W        W10211  10.440   1.929  10.058
 6012W        W10212   2.701   5.482   3.564
 6013W        W10213   7.657   9.858  10.515
 6014W        W10214   8.265   5.575   1.211
 6015W        W10215   3.883   0.776  11.744
 6016W        W10216   1.008   6.988   3.601
 6017W        W10217   2.353   7.949   3.276
 6018W        W10218   0.538   7.927   3.570
 6019W        W10219   7.923   1.433   9.749
 6020W        W10220   1.353   2.530   8.791
 6021W        W10221   8.257   8.066  10.554
 6022W        W10222  10.849   0.986   2.227
 6023W        W10223   0.495   1.911   1.005
 6024W        W10224   9.363   9.608   9.436
 6025W        W10225   7.931   5.175   2.266
 6026W        W10226   8.799   4.599   2.267
 6027W        W10227   5.131   3.704   0.203
 6028W        W10228   9.298   7.134   2.353
 6029W        W10229   8.374   0.446   9.426
 6030W        W10230   7.901  11.250   0.764
 6031W        W10231   1.011   7.318  10.928
 6032W        W10232   9.116   5.161   9.890
 6033W        W10233   6.523  10.265   0.314
 6034W        W10234   6.990   3.588   2.677
 6035W        W10235   6.203  11.433   1.915
 6036W        W10236   6.088   9.510   3.529
 6037W        W10237   1.492   8.873   3.612
 6038W        W10238   5.533   9.550   0.764
 6039W        W10239  11.012   3.221   9.122
 6040W        W10240   0.722   6.523   3.486
 6041W        W10241  11.498   5.354  11.227
 6042W        W10242   2.719   4.024   2.510
 6043W        W10243   9.774   3.087   0.024
 6044W        W10244   7.098   4.449  10.844
 6045W        W10245   3.808   6.964   0.630
 6046W        W10246   7.453   6.595   2.243
 6047W        W10247  11.025  10.961   9.530
 6048W        W10248   6.982   8.652  11.549
 6049W        W10249   4.641   7.216   1.040
 6050W        W10250   1.724   0.307   2.149
 6051W        W10251   5.502   4.552   9.839
 6052W        W10252  10.408   3.046  11.088
 6053W        W10253  10.190   7.043   1.405
 6054W        W10254   2.437   8.628   9.875
 6055W        W10255   8.431   0.302  10.991
 6056W        W10256  10.959   5.387   3.477
 6057W        W10257  10.596   1.402   2.414
 6058W        W10258   9.593   8.239   0.890
 6059W        W10259   3.670   9.485  11.328
 6060W        W10260   6.576   0.334  10.553
 6061W        W10261   3.654   5.769   9.941
 6062W        W10262   6.979   1.750  11.761
 6063W        W10263   9.853   8.141  10.339
 6064W        W10264  10.375   3.990   2.571
 6065W        W10265   8.244   2.182   2.765
 6066W        W10266  10.217   2.179  11.399
 6067W        W10267   2.408  10.461   3.110
 6068W        W10268   3.755   9.813  10.082
 6069W        W10269   8.639   1.018   8.608
 6070W        W10270   2.593   4.868   1.788
 6071W        W10271   6.046   3.255   2.858
 6072W        W10272   2.687   3.389   9.440
 6073W        W10273  10.015   7.681  10.619
 6074W        W10274   6.910   5.869  10.916
 6075W        W10275   5.930  10.813   2.225
 6076W        W10276   4.492   7.668   1.269
 6077W        W10277   9.624  11.068   1.421
 6078W        W10278   5.915   5.028   2.241
 6079W        W10279   9.940   2.215   9.397
 6080W        W10280   4.551   4.462   4.052
 6081W        W10281   9.078   8.227   0.967
 6082W        W10282   6.056   8.492  10.750
 6083W        W10283  10.178  10.376   2.152
 6084W        W10284   6.278   8.470   8.657
 6085W        W10285   7.695   3.489   1.186
 6086W        W10286   1.839   1.732   2.241
 6087W        W10287   3.121  11.346   9.611
 6088W        W10288   8.962   0.683  11.743
 6089W        W10289   0.776   9.261   9.866
 6090W        W10290   9.352   4.745   0.814
 6091W        W10291   2.207   5.733   1.454
 6092W        W10292   0.768   4.305   9.088
 6093W        W10293   8.920   3.912   9.000
 6094W        W10294   0.291   9.775   0.438
 6095W        W10295   1.872   7.767   8.662
 6096W        W10296   4.860   8.935   1.015
 6097W        W10297  10.877   5.055   9.555
 6098W        W10298   7.374   9.645   9.299
 6099W        W10299   4.269   9.462   2.516
 6100W        W10300  11.084   4.307   1.024
 6101W        W10301   0.895   4.187   2.183
 6102W        W10302   5.800   6.153  10.223
 6103W        W10303   3.456   9.516   9.814
 6104W        W10304   9.939   1.715   1.535
 6105W        W10305   9.504   5.370   0.149
 6106W        W10306   2.841   5.731   0.711
 6107W        W10307   6.989   4.726  11.655
 6108W        W10308   8.773   8.574   1.710
 6109W        W10309   3.901   9.820   0.876
 6110W        W10310   9.561   3.751  11.354
 6111W        W10311   3.662   0.247  10.523
 6112W        W10312   4.621   6.997  11.055
 6113W        W10313   7.832   0.858  11.246
 6114W        W10314   8.486  11.282  10.041
 6115W        W10315   2.779  10.639   0.177
 6116W        W10316   8.975   2.824  10.607
 6117W        W10317   4.434  10.923   3.392
 6118W        W10318  10.321  10.643  11.324
 6119W        W10319   3.738   8.103   0.317
 6120W        W10320   2.848   8.190  11.490
 6121W        W10321   4.725   3.307  10.543
 6122W        W10322   1.161   8.964   9.747
 6123W        W10323  10.116   1.453  11.346
 6124W        W10324   6.243   1.355   9.467
 6125W        W10325   0.474   7.849  10.415
 6126W        W10326   3.110   8.897   0.431
 6127W        W10327   3.346   0.435   0.507
 6128W        W10328   5.184   8.157   9.427
 6129W        W10329  11.211   2.790   9.347
 6130W        W10330   9.340  10.523   2.324
 6131W        W10331   9.043  10.438   3.328
 6132W        W10332   0.340   8.858  11.378
 6133W        W10333   2.167   2.397   9.534
 6134W        W10334   8.041   0.365   1.498
 6135W        W10335   9.711  11.443   9.427
 6136W        W10336   1.699   4.813  11.540
 6137W        W10337   1.968  10.566   1.769
 6138W        W10338   8.136   8.911   0.340
 6139W        W10339   6.265   6.625   1.947
 6140W        W10340   4.211   4.628  11.764
 6141W        W10341   7.095   8.934   0.604
 6142W        W10342   4.198   2.742   3.608
 6143W        W10343   2.985   3.731   3.652
 6144W        W10344   3.768   8.830   9.242
 6145W        W10345   6.436   0.462   0.208
 6146W        W10346   6.152  11.282   2.392
 6147W        W10347   5.153   6.585   0.683
 6148W        W10348   5.170  11.038   2.723
 6149W        W10349   2.729   0.192  10.436
 6150W        W10350   7.707  10.777   2.160
 6151W        W10351   8.143  11.036   1.424
 6152W        W10352   5.458   8.052  10.755
 6153W        W10353  10.292   1.299   0.697
 6154W        W10354   5.574   8.535   3.796
 6155W        W10355   9.523   2.521   0.601
 6156W        W10356   5.187   4.469   2.851
 6157W        W10357   0.919   3.169   3.607
 6158W        W10358   2.366  11.150   0.971
 6159W        W10359   3.644   6.905  10.658
 6160W        W10360   6.610   5.627  10.101
 6161W        W10361   6.437   2.387  11.450
 6162W        W10362   1.990   8.447  10.886
 6163W        W10363   1.192   9.448   9.519
 6164W        W10364   6.307   7.183   0.435
 6165W        W10365   8.832   1.677   0.180
 6166W        W10366   9.777   2.830   2.345
 6167W        W10367   4.027   4.625   1.391
 6168W        W10368   5.497  10.054   2.970
 6169W        W10369   6.229  10.335   8.920
 6170W        W10370   7.009  10.975   9.041
 6171W        W10371   5.743   2.834   2.881
 6172W        W10372   1.160   1.674  11.752
 6173W        W10373  11.488   9.102  11.952
 6174W        W10374   7.888   5.466  11.886
 6175W        W10375   5.591   7.123  11.126
 6176W        W10376   4.300   2.054   8.804
 6177W        W10377   6.179   6.484   1.475
 6178W        W10378   3.276   9.961   2.807
 6179W        W10379   0.721   1.151   0.196
 6180W        W10380   0.259  10.069   9.013
 6181W        W10381   7.144   9.989   9.598
 6182W        W10382  10.914   6.239   2.500
 6183W        W10383   6.655  10.358   2.207
 6184W        W10384  10.843   3.427   9.621
 6185W        W10385   7.934   1.316  10.261
 6186W        W10386   9.825   4.232   9.812
 6187W        W10387   7.298   0.729   2.308
 6188W        W10388   0.910   8.004   2.519
 6189W        W10389  10.400   9.890   9.979
 6190W        W10390   3.733   6.482   0.357
 6191W        W10391   5.356   5.484   2.747
 6192W        W10392   1.855   4.096   1.353
 6193W        W10393   9.106  10.739   8.963
 6194W        W10394  10.075   1.753   9.074
 6195W        W10395  10.281   0.747   3.304
 6196W        W10396   1.337   6.594  11.349
 6197W        W10397   6.518   1.749   9.284
 6198W        W10398   9.332   0.493   8.736
 6199W        W10399   6.600  10.546   9.633
 6200W        W10400   1.784   8.524  10.420
 6201W        W10401   6.565   4.202   0.250
 6202W        W10402   0.727   4.566   3.424
 6203W        W10403   9.319   4.144  11.991
 6204W        W10404   6.715   9.447   1.163
 6205W        W10405   9.942  10.585   1.744
 6206W        W10406   2.120   7.599   0.248
 6207W        W10407   8.888   1.023   2.886
 6208W        W10408   8.541  10.362   3.158
 6209W        W10409   6.973  11.445  11.871
 6210W        W10410   3.382   9.897   1.780
 6211W        W10411   6.200   8.592   0.850
 6212W        W10412  11.209   7.921  10.350
 6213W        W10413  11.242   0.853   3.049
 6214W        W10414   7.728   0.752  10.026
 6215W        W10415   8.142   5.417   0.745
 6216W        W10416   9.063   5.686   1.121
 6217W        W10417   6.126   7.567   3.610
 6218W        W10418   8.833   1.463   0.883
 6219W        W10419   5.975  11.340  10.352
 6220W        W10420   5.969   8.064   8.628
 6221W        W10421   8.465   7.413   2.316
 6222W        W10422   4.579   0.061  11.995
 6223W        W10423  10.009   3.306   2.267
 6224W        W10424   8.717   8.401   9.568
 6225W        W10425  11.346   3.196   2.141
 6226W        W10426   0.692   1.656   0.014
 6227W        W10427   4.889   2.301   0.619
 6228W        W10428   9.325   8.326   3.623
 6229W        W10429  10.284   2.679  11.451
 6230W        W10430  10.582   8.118   9.179
 6231W        W10431   8.582   8.773   3.260
 6232W        W10432   0.926  10.297  11.848
 6233W        W10433   8.199   5.969  10.482
 6234W        W10434   2.118  10.056   3.652
 6235W        W10435   3.614   7.234   0.090
 6236W        W10436   4.747   9.900  11.435
 6237W        W10437   0.368  10.311  10.494
 6238W        W10438   9.297   0.577  10.954
 6239W        W10439   5.058   1.802   2.758
 6240W        W10440   2.002  10.224   0.742
 6241W        W10441   1.003   6.064  10.795
 6242W        W10442   4.903   7.528   3.059
 6243W        W10443   5.454   0.461   3.242
 6244W        W10444   7.929   0.488  10.874
 6245W        W10445   4.559   3.219   1.693
 6246W        W10446   2.276   6.724   1.794
 6247W        W10447   9.335   1.444   0.019
 6248W        W10448   3.789   0.320   1.904
 6249W        W10449   7.489   3.558  10.005
 6250W        W10450   4.537   7.511  11.817
 6251W        W10451   4.596   3.885  10.041
 6252W        W10452   5.751   5.674   9.543
 6253W        W10453   8.873  10.278  11.531
 6254W        W10454   5.474   1.370  11.507
 6255W        W10455   5.228   0.481   9.769
 6256W        W10456  11.455   6.897   2.657
 6257W        W10457   1.923   8.108  11.304
 6258W        W10458   5.984   5.342   0.749
 6259W        W10459  10.850   7.291  10.494
 6260W        W10460   5.655   8.072   1.522
 6261W        W10461   0.874  11.003   2.787
 6262W        W10462   0.810   6.384  11.997
 6263W        W10463   1.327  11.242   2.681
 6264W        W10464   7.306   6.891   1.420
 6265W        W10465   4.749   9.338  11.200
 6266W        W10466   8.909   9.008   2.047
 6267W        W10467   8.582   4.553   0.446
 6268W        W10468   8.897   4.236   1.682
 6269W        W10469   7.854   3.537   3.646
 6270W        W10470   5.620   8.020   0.989
 6271W        W10471   0.882   9.677  11.025
 6272W        W10472   9.919  11.474   2.157
 6273W        W10473   1.806   0.387   3.135
 6274W        W10474   9.063   6.231  11.148
 6275W        W10475   9.880  10.452  10.597
 6276W        W10476   7.834   5.605   2.585
 6277W        W10477  11.328   6.517   2.303
 6278W        W10478   0.147   2.195  10.306
 6279W        W10479   3.535   4.257  11.498
 6280W        W10480  10.500   0.391  10.485
 6281W        W10481   9.674   0.731   1.663
 6282W        W10482   3.976   3.653   1.204
 6283W        W10483   2.601   6.182   0.749
 6284W        W10484  11.084   4.705  11.825
 6285W        W10485   1.643   4.812   0.522
 6286W        W10486   4.163  10.562  11.007
 6287W        W10487   1.624   1.845   8.519
 6288W        W10488   3.695   8.345   9.431
 6289W        W10489   1.403  10.738   2.539
 6290W        W10490   4.247  10.375   9.575
 6291W        W10491   7.290   3.688   3.156
 6292W        W10492   1.199   4.555   0.634
 6293W        W10493   7.594  10.353  11.439
 6294W        W10494   9.006   9.815   9.130
 6295W        W10495   3.306   2.111   0.859
 6296W        W10496   4.205   2.003   2.203
 6297W        W10497   3.381   1.798  10.797
 6298W        W10498   1.356   8.043   2.290
 6299W        W10499   3.097   4.268   9.126
 6300W        W10500   7.141   3.046   1.920
 6301W        W10501   2.699   9.090   2.834
 6302W        W10502   7.667   3.658   9.502
 6303W        W10503  10.978  11.009   3.130
 6304W        W10504   7.731   0.382  10.395
 6305W        W10505   2.326   4.364   2.631
 6306W        W10506   8.430   2.841   9.525
 6307W        W10507   3.372   4.454   8.497
 6308W        W10508   9.175   6.758   3.999
 6309W        W10509   6.700   2.834  10.062
 6310W        W10510   7.885   0.981   8.888
 6311W        W10511   3.867   6.482  10.448
 6312W        W10512   5.694   1.868   1.108
 6313W        W10513   9.547   1.893   9.301
 6314W        W10514   8.951  11.220   9.097
 6315W        W10515   1.454   0.751   3.008
 6316W        W10516   2.713   8.677  11.546
 6317W        W10517   6.857  10.087   3.126
 6318W        W10518   6.930   1.944   9.000
 6319W        W10519   3.662   9.383  10.328
 6320W        W10520   9.436   0.520   3.414
 6321W        W10521   5.043   4.626   8.180
 6322W        W10522   9.995   2.339   0.371
 6323W        W10523   2.144   4.607   1.887
 6324W        W10524   6.755   8.370   8.451
 6325W        W10525  10.658   6.096  10.272
 6326W        W10526   7.485   1.253  10.031
 6327W        W10527   4.108   1.903   9.617
 6328W        W10528   5.960   9.147   9.011
 6329W        W10529   1.374   3.593   8.995
 6330W        W10530   9.577   6.121  11.048
 6331W        W10531   1.086   4.512   2.579
 6332W        W10532   1.739   3.927   8.907
 6333W        W10533   1.923   2.108   1.375
 6334W        W10534   3.726   3.131  10.811
 6335W        W10535   5.649   1.006   0.845
 6336W        W10536   9.403   0.803  11.397
 6337W        W10537   5.496   7.049   1.387
 6338W        W10538   3.633   9.556  11.879
 6339W        W10539  10.413   7.111   3.249
 6340W        W10540   0.153   2.424   3.271
 6341W        W10541  10.386   4.062   3.096
 6342W        W10542   9.424   3.172   3.255
 6343W        W10543   0.922   4.049   2.674
 6344W        W10544   8.191   3.848   2.929
 6345W        W10545   7.915   7.990   0.109
 6346W        W10546   0.754   4.688   0.912
 6347W        W10547   8.162   2.384   9.335
 6348W        W10548   5.607   4.720   1.991
 6349W        W10549   3.908   8.949   0.972
 6350W        W10550   8.897   6.020   1.853
 6351W        W10551   6.706   0.894   9.809
 6352W        W10552   8.806   3.449  11.987
 6353W        W10553   6.564   2.589   0.922
 6354W        W10554   6.927   6.009   1.812
 6355W        W10555   9.554   8.620   9.447
 6356W        W10556   1.309  10.787   0.386
 6357W        W10557   3.729   8.382  10.792
 6358W        W10558   0.817   1.759   9.947
 6359W        W10559   1.808   9.367   0.353
 6360W        W10560   2.344   5.223  10.001
 6361W        W10561   9.318   1.700   0.868
 6362W        W10562   9.859   0.184   2.767
 6363W        W10563   9.479  11.005   9.248
 6364W        W10564   1.962   2.769   3.215
 6365W        W10565   9.306   1.087   1.705
 6366W        W10566  10.421   5.949   9.025
 6367W        W10567   3.085   1.109   9.703
 6368W        W10568   8.456   7.507   0.406
 6369W        W10569   5.575  10.174   3.468
 6370W        W10570   9.102   1.919   3.187
 6371W        W10571   9.410   3.299   9.827
 6372W        W10572   9.320   5.727  11.269
 6373W        W10573   0.509   7.006   3.496
 6374W        W10574  10.253   3.225   3.360
 6375W        W10575   3.642   3.131   9.893
 6376W        W10576   1.393   8.096   9.262
 6377W        W10577   0.465   9.776   2.873
 6378W        W10578   1.335   0.356   3.342
 6379W        W10579   6.662   7.135   2.692
 6380W        W10580   7.353   3.572  11.880
 6381W        W10581   7.646  11.057   0.318
 6382W        W10582   4.769   8.929   2.008
 6383W        W10583   4.227   4.369   3.639
 6384W        W10584   5.466   8.466   0.243
 6385W        W10585   1.749   2.217   9.807
 6386W        W10586   8.616   5.903   2.288
 6387W        W10587   1.198   9.933  10.250
 6388W        W10588   3.044   7.413   1.174
 6389W        W10589   9.819   2.852   1.389
 6390W        W10590   6.082   0.395   1.201
 6391W        W10591   4.339  11.324   1.332
 6392W        W10592   5.928   6.242   1.873
 6393W        W10593   0.823  10.490  11.392
 6394W        W10594   7.093   2.744   1.116
 6395W        W10595   5.325   4.167   8.305
 6396W        W10596   1.395  10.959   9.028
 6397W        W10597   4.613   9.225   8.893
 6398W        W10598   1.148   9.981   0.232
 6399W        W10599   4.920   3.354   0.914
 6400W        W10600  11.118   1.626   3.477
 6401W        W10601   4.903   2.835   9.524
 6402W        W10602  10.143   7.927   9.327
 6403W        W10603   5.208  10.101  11.346
 6404W        W10604   2.750   3.859  10.503
 6405W        W10605   7.181   3.012   2.436
 6406W        W10606   2.849   6.036   0.297
 6407W        W10607   9.454   5.651   8.909
 6408W        W10608   8.438   4.099   8.763
 6409W        W10609  11.010   2.291   0.490
 6410W        W10610   5.239   2.418   9.460
 6411W        W10611   2.146   9.035  10.048
 6412W        W10612   4.088  10.372   2.536
 6413W        W10613   0.446   6.957   0.219
 6414W        W10614   9.580   5.036   1.218
 6415W        W10615   3.343  10.407   1.647
 6416W        W10616   3.383   6.656   0.690
 6417W        W10617   3.277   1.589   0.649
 6418W        W10618   4.618   8.425  11.247
 6419W        W10619   7.971   2.843   9.252
 6420W        W10620  10.378   1.814   3.196
 6421W        W10621   3.670   1.268   0.810
 6422W        W10622   1.649   9.104   9.884
 6423W        W10623   4.591   5.242  10.186
 6424W        W10624   5.142   0.435  11.259
 6425W        W10625   8.153  10.750   1.890
 6426W        W10626   2.408   9.280  10.705
 6427W        W10627  10.434   3.984  11.415
 6428W        W10628   6.154   2.833   9.390
 6429W        W10629   1.354   7.576   0.668
 6430W        W10630   4.030   2.900   8.612
 6431W        W10631  10.114   3.821   0.467
 6432W        W10632  11.333   1.374  10.296
 6433W        W10633   8.013   6.994   0.205
 6434W        W10634   1.118   9.493  11.449
 6435W        W10635  11.343   9.811   2.414
 6436W        W10636   9.604  11.125  10.729
 6437W        W10637   4.182   8.138  11.433
 6438W        W10638   9.418   6.887   1.162
 6439W        W10639   4.735   5.750   1.816
 6440W        W10640   3.142  10.966  10.355
 6441W        W10641   7.174   2.912   0.629
 6442W        W10642   6.684   0.023   9.633
 6443W        W10643   7.142  10.483   0.939
 6444W        W10644   9.610   1.254   2.165
 6445W        W10645   3.818  11.270   0.434
 6446W        W10646   6.681   7.940   4.185
 6447W        W10647   1.266   9.404   1.752
 6448W        W10648   4.206   6.628   3.143
 6449W        W10649   9.538   8.720  11.325
 6450W        W10650   1.188   5.924   0.838
 6451W        W10651  11.494   0.481   2.179
 6452W        W10652   2.907   7.977   1.835
 6453W        W10653   4.740   4.438   8.576
 6454W        W10654  10.452   3.743  10.346
 6455W        W10655   6.064   4.575   8.895
 6456W        W10656   3.474   0.011   8.679
 6457W        W10657   0.932   5.099  10.801
 6458W        W10658   0.236  10.576  10.088
 6459W        W10659   9.155  10.841  10.731
 6460W        W10660   7.582   6.066   1.031
 6461W        W10661   9.567   9.131   3.383
 6462W        W10662   7.693   2.147  11.304
 6463W        W10663   0.458   9.102  11.814
 6464W        W10664  10.349   5.456  10.126
 6465W        W10665   8.879   3.306   2.155
 6466W        W10666   0.352   8.989   2.727
 6467W        W10667   9.171   3.295  10.718
 6468W        W10668   4.808   8.520   9.364
 6469W        W10669  11.245   4.747   2.902
 6470W        W10670   7.205  11.235   2.355
 6471W        W10671   6.103   4.048   0.396
 6472W        W10672   1.854   3.692   9.809
 6473W        W10673  11.247   8.635   2.677
 6474W        W10674   1.539   8.276  11.624
 6475W        W10675   7.845  11.422   8.905
 6476W        W10676   0.697   5.283   8.784
 6477W        W10677   3.780   9.309  10.846
 6478W        W10678   2.788   6.999   9.249
 6479W        W10679   8.052   5.964  11.915
 6480W        W10680   3.900   2.375  10.298
 6481W        W10681   8.405   1.322  10.021
 6482W        W10682   0.478  11.030   2.177
 6483W        W10683   0.868   2.351  11.180
 6484W        W10684   9.617   6.085   3.371
 6485W        W10685   2.711   5.206   3.041
 6486W        W10686   1.747   8.911   0.835
 6487W        W10687   6.992  10.716  11.256
 6488W        W10688  11.055   7.221   2.617
 6489W        W10689   9.845   5.462  10.379
 6490W        W10690   1.261   3.257   3.234
 6491W        W10691   7.543   2.833   0.262
 6492W        W10692   4.386   0.510  11.086
 6493W        W10693   0.894   9.999   2.701
 6494W        W10694  10.334   0.888   0.995
 6495W        W10695   5.578   6.906   9.527
 6496W        W10696   0.245   6.607   3.706
 6497W        W10697   6.466   7.995   2.431
 6498W        W10698   5.610   3.679   2.805
 6499W        W10699   5.278   3.126  10.217
 6500W        W10700   1.340   5.830   1.317
 6501W        W10701   8.399   7.922   9.501
 6502W        W10702   5.720   0.879   8.626
 6503W        W10703   7.446   0.008  10.704
 6504W        W10704   9.023   2.025  11.870
 6505W        W10705   8.839   9.910   1.552
 6506W        W10706   4.193   8.241  10.939
 6507W        W10707  10.053   8.617  10.203
 6508W        W10708   6.415   0.449   9.717
 6509W        W10709   5.085  11.011   2.210
 6510W        W10710   2.874   6.973   0.369
 6511W        W10711   1.821   1.765   9.522
 6512W        W10712   7.886   0.188   9.345
 6513W        W10713   9.310   1.721  10.894
 6514W        W10714   4.025  11.301   1.766
 6515W        W10715   0.477   0.586   0.961
 6516W        W10716  11.390   9.513   0.268
 6517W        W10717   2.198  10.999  11.891
 6518W        W10718  10.453   0.821  10.169
 6519W        W10719   8.796   9.480   8.786
 6520W        W10720   0.025   8.115   9.529
 6521W        W10721   9.588   1.657   0.433
 6522W        W10722   5.241   4.268   0.395
 6523W        W10723   0.649   5.007   0.046
 6524W        W10724   3.483   7.811  10.360
 6525W        W10725  10.099   6.984  11.744
 6526W        W10726   4.080  11.421  11.994
 6527W        W10727   4.184   0.348   1.021
 6528W        W10728   1.757   8.094  10.132
 6529W        W10729   7.548   8.827   3.389
 6530W        W10730  10.438   9.883   2.426
 6531W        W10731   6.086   7.103   2.207
 6532W        W10732  10.339   4.691   0.950
 6533W        W10733  10.480   5.139   1.201
 6534W        W10734   7.847   9.910   3.120
 6535W        W10735  11.475   7.127   1.734
 6536W        W10736   6.131  10.349   9.825
 6537W        W10737   7.636   0.226   3.246
 6538W        W10738   2.879   6.617   0.763
 6539W        W10739   2.783  10.402  11.210
 6540W        W10740   4.194   3.585   3.293
 6541W        W10741  10.485   8.444   1.676
 6542W        W10742   0.207   0.849   9.214
 6543W        W10743   5.558   8.816  11.463
 6544W        W10744   5.967   8.323   9.921
 6545W        W10745   7.358   2.100   0.418
 6546W        W10746   3.135   1.743   3.023
 6547W        W10747   1.420   5.314   1.808
 6548W        W10748   6.009   8.632   9.046
 6549W        W10749   0.325   1.823   0.528
 6550W        W10750   0.322   4.702   2.066
 6551W        W10751   1.690   9.873   3.418
 6552W        W10752   1.261   6.669   2.163
 6553W        W10753   0.535   4.411   2.474
 6554W        W10754   5.752   0.798   1.309
 6555W        W10755   1.569   6.134   2.910
 6556W        W10756   0.438   8.089   2.645
 6557W        W10757   9.026   7.213   1.320
 6558W        W10758   1.720  10.880   3.388
 6559W        W10759   9.781   5.626   8.503
 6560W        W10760   0.624   7.648   2.275
 6561W        W10761   6.261   7.937   3.252
 6562W        W10762   4.392   5.383   0.257
 6563W        W10763   4.923   5.205   0.015
 6564W        W10764   6.598   0.360   9.230
 6565W        W10765   0.876   6.825  10.848
 6566W        W10766   6.505   9.132   1.926
 6567W        W10767   2.709   2.033   9.981
 6568W        W10768   5.031   8.418   9.850
 6569W        W10769   9.290   3.293   0.021
 6570W        W10770   8.368   7.968   3.582
 6571W        W10771   1.236   6.806   1.115
 6572W        W10772   8.917   2.131  11.383
 6573W        W10773   8.549   4.018   1.247
 6574W        W10774  10.131   5.917  10.322
 6575W        W10775   1.739   1.023   2.636
 6576W        W10776   4.214   4.338  10.927
 6577W        W10777   6.005  11.439   0.909
 6578W        W10778   1.046   6.221  11.556
 6579W        W10779   8.948   6.638  11.499
 6580W        W10780   5.470   6.201   0.819
 6581W        W10781   0.834   0.495  11.331
 6582W        W10782   2.583   0.211   1.459
 6583W        W10783   6.880   2.531   9.038
 6584W        W10784   7.829   9.355   2.016
 6585W        W10785   9.523   7.906   2.697
 6586W        W10786   5.603   5.678   1.499
 6587W        W10787   4.184   8.310   0.463
 6588W        W10788   7.746   6.894   0.985
 6589W        W10789   1.255   1.811   3.587
 6590W        W10790   6.162   6.209  10.582
 6591W        W10791   9.465   1.923   1.353
 6592W        W10792   2.309   3.132   0.875
 6593W        W10793   2.267   9.108   1.548
 6594W        W10794   7.115   3.803   0.291
 6595W        W10795   4.071   4.287   9.067
 6596W        W10796   2.800   0.673  11.864
 6597W        W10797   4.265  10.444   3.083
 6598W        W10798   9.534   4.887  11.013
 6599W        W10799   8.987   9.471  10.934
 6600W        W10800  11.433   2.146   8.596
 6601W        W10801   8.034  11.482  10.855
 6602W        W10802   8.638   1.805  10.392
 6603W        W10803   4.727   8.495   1.759
 6604W        W10804   8.628   0.221   9.811
 6605W        W10805   4.083   5.123   9.030
 6606W        W10806   3.228   7.207   9.428
 6607W        W10807   3.717   7.277  11.587
 6608W        W10808   5.528   7.131   0.812
 6609W        W10809   4.945   1.398   1.270
 6610W        W10810   9.526   7.052   3.757
 6611W        W10811   0.957   0.038   3.545
 6612W        W10812   3.831   9.518   9.402
 6613W        W10813  11.320   0.188   1.191
 6614W        W10814   0.900   8.772  10.793
 6615W        W10815   1.473  10.393   9.485
 6616W        W10816   6.206  10.406   2.497
 6617W        W10817   9.436  11.046   0.031
 6618W        W10818   0.400   2.164   9.284
 6619W        W10819   7.378   3.353   0.395
 6620W        W10820   2.422   4.584   8.806
 6621W        W10821   9.933   7.245   0.978
 6622W        W10822   0.466   3.828   9.050
 6623W        W10823   9.547   3.800   9.824
 6624W        W10824   8.615   1.292   0.443
 6625W        W10825   0.293   9.049   9.855
 6626W        W10826   8.006  10.324  11.792
 6627W        W10827   6.226   7.891  10.010
 6628W        W10828   2.767   0.954   0.798
 6629W        W10829   2.891   4.441   1.839
 6630W        W10830   6.281  10.048  10.733
 6631W        W10831  10.453   1.693   1.649
 6632W        W10832   0.402  11.251   2.761
 6633W        W10833   2.124   6.440   2.185
 6634W        W10834   5.412   4.087   3.111
 6635W        W10835   3.117   0.809   0.250
 6636W        W10836   7.609  10.655   3.541
 6637W        W10837   4.557   7.108   0.134
 6638W        W10838  10.830   6.596   1.689
 6639W        W10839   2.439  10.758   8.698
 6640W        W10840   7.005   6.916   1.856
 6641W        W10841   0.301   1.929   2.378
 6642W        W10842   2.664   7.038   0.992
 6643W        W10843   1.558   6.192   8.704
 6644W        W10844   6.013   9.256  10.136
 6645W        W10845   6.115   0.819   0.923
 6646W        W10846   6.151  10.221   0.670
 6647W        W10847   3.652   7.886  10.915
 6648W        W10848   7.435   4.654  11.915
 6649W        W10849   9.792   0.548  10.924
 6650W        W10850   7.137   7.906   0.565
 6651W        W10851   1.429   3.063   8.857
 6652W        W10852  10.806   9.026   1.843
 6653W        W10853   8.581   8.888  10.950
 6654W        W10854   9.063   8.891  11.763
 6655W        W10855   1.743   6.739   2.325
 6656W        W10856   7.457  10.878  11.440
 6657W        W10857   1.779   3.855   1.810
 6658W        W10858   1.499   5.639   8.848
 6659W        W10859   5.471   8.141   3.466
 6660W        W10860   9.414   9.595   0.524
 6661W        W10861   0.836   1.956   0.600
 6662W        W10862   4.871   3.934  11.326
 6663W        W10863  10.167   4.321   2.212
 6664W        W10864   8.530   0.939  11.686
 6665W        W10865   2.194   4.605  10.492
 6666W        W10866   1.096   9.015  10.272
 6667W        W10867   7.969   2.715   0.912
 6668W        W10868   2.235  11.496  10.420
 6669W        W10869   7.071   1.433   9.115
 6670W        W10870   1.001   8.491   1.289
 6671W        W10871   7.436   0.709  10.945
 6672W        W10872   6.498   8.613   2.609
 6673W        W10873  10.247   4.128  10.095
 6674W        W10874   1.490   1.479   8.857
 6675W        W10875   2.257  10.699  11.416
 6676W        W10876   0.980   0.020  11.465
 6677W        W10877   1.257   8.128  10.028
 6678W        W10878   2.317   4.295   3.539
 6679W        W10879   1.644   6.570   1.295
 6680W        W10880   1.363   6.677   8.797
 6681W        W10881   9.265   2.440   1.798
 6682W        W10882   8.372   4.102   9.783
 6683W        W10883   5.031   5.275   9.913
 6684W        W10884   0.256   4.085   0.357
 6685W        W10885   4.150   1.876   0.862
 6686W        W10886   7.036   4.269   9.094
 6687W        W10887   2.367   6.644   0.831
 6688W        W10888   7.015   4.084  10.476
 6689W        W10889   8.887   2.643  11.468
 6690W        W10890   8.992   2.685  10.111
 6691W        W10891  10.500   3.552   0.258
 6692W        W10892   4.030   4.022  11.857
 6693W        W10893   9.859   5.559   2.150
 6694W        W10894   7.935   7.162  11.299
 6695W        W10895   8.246   8.181   4.032
 6696W        W10896   8.708   5.516   9.383
 6697W        W10897   7.553   9.180   0.562
 6698W        W10898   8.012   6.522   3.236
 6699W        W10899   5.458   8.127   8.642
 6700W        W10900   0.080   4.228   1.128
 6701W        W10901   1.200   2.188   0.930
 6702W        W10902   9.976   9.209   1.322
 6703W        W10903   1.347   8.996   2.435
 6704W        W10904   3.700   1.886   0.643
 6705W        W10905   5.098   8.601  11.362
 6706W        W10906  10.865  10.406   0.297
 6707W        W10907   6.170   7.094   9.082
 6708W        W10908   0.920   6.121   0.431
 6709W        W10909   6.186   8.486   3.165
 6710W        W10910  11.276   0.797   9.502
 6711W        W10911   0.927   0.822   1.135
 6712W        W10912   7.505   8.070   1.865
 6713W        W10913   7.632  10.023   9.007
 6714W        W10914   5.276   8.779   4.148
 6715W        W10915  11.166   0.493   3.410
 6716W        W10916   6.054   3.554   0.486
 6717W        W10917   5.280  10.419   1.569
 6718W        W10918   8.522  11.309   8.769
 6719W        W10919   6.688   3.231  11.143
 6720W        W10920  10.883   3.766  11.567
 6721W        W10921   9.810  10.117  10.232
 6722W        W10922   0.409   5.691   9.070
 6723W        W10923   8.598   9.291   1.307
 6724W        W10924   7.579   2.583   9.553
 6725W        W10925   0.776   4.146   1.673
 6726W        W10926   8.693   3.655  11.515
 6727W        W10927   3.968   7.736   2.669
 6728W        W10928   5.758  11.351  11.289
 6729W        W10929   7.092   7.378   0.368
 6730W        W10930   7.423   1.816   9.059
 6731W        W10931   8.845   0.200   9.303
 6732W        W10932   7.374   9.250   8.961
 6733W        W10933   4.241  10.838   2.733
 6734W        W10934  11.168   2.412   0.963
 6735W        W10935   3.043   2.242   3.198
 6736W        W10936  10.973   9.279   1.426
 6737W        W10937   1.407   3.779  11.993
 6738W        W10938   1.582   1.245   8.381
 6739W        W10939   2.790   0.213   9.415
 6740W        W10940   8.434   2.730   9.033
 6741W        W10941   7.031  10.769   9.899
 6742W        W10942   2.384   2.726   2.088
 6743W        W10943   9.112   1.948   1.756
 6744W        W10944   1.586   5.703   9.731
 6745W        W10945   2.024   8.070  10.566
 6746W        W10946   1.058   6.116  10.179
 6747W        W10947  11.171   4.037   3.468
 6748W        W10948   7.495   5.688  10.295
 6749W        W10949   7.916   6.051   2.935
 6750W        W10950   7.682   4.693   8.623
 6751W        W10951   9.438   9.058   1.339
 6752W        W10952   4.067   4.584   3.201
 6753W        W10953   3.185   6.687   9.460
 6754W        W10954   7.817   1.855   0.387
 6755W        W10955   9.300   3.729   0.688
 6756W        W10956  10.548   1.669  10.503
 6757W        W10957   4.148   4.782   1.891
 6758W        W10958   8.107  11.062   2.310
 6759W        W10959   4.581   2.124   3.021
 6760W        W10960   1.768  10.666   0.620
 6761W        W10961   2.006   2.769   0.013
 6762W        W10962  10.665   9.524   1.763
 6763W        W10963  10.851   5.484   9.103
 6764W        W10964   9.839   5.620   2.658
 6765W        W10965   2.820   4.674   8.048
 6766W        W10966  10.079   5.245   9.698
 6767W        W10967   4.339   7.320  10.077
 6768W        W10968   4.224   3.819   1.628
 6769W        W10969   7.945   2.695   1.934
 6770W        W10970   6.166   4.560   2.211
 6771W        W10971   2.886   4.881  10.387
 6772W        W10972   0.678   6.144   9.817
 6773W        W10973   5.215   8.188   0.670
 6774W        W10974   5.216   9.618   9.567
 6775W        W10975   3.769   4.149   9.682
 6776W        W10976  11.044   9.793  10.882
 6777W        W10977   7.079   6.896   2.868
 6778W        W10978   3.345   7.441   2.138
 6779W        W10979   3.746   5.736   0.967
 6780W        W10980   8.724   5.945   0.298
 6781W        W10981   0.275  10.307   0.510
 6782W        W10982   0.135   6.182  11.646
 6783W        W10983   1.660   7.587   9.513
 6784W        W10984   5.120   8.443  10.876
 6785W        W10985   7.516   5.715   0.675
 6786W        W10986  10.817   8.141  10.620
 6787W        W10987   5.662   2.899   0.931
 6788W        W10988  10.668   4.358   2.271
 6789W        W10989  11.051   1.370  11.159
 6790W        W10990   3.713   7.417  10.603
 6791W        W10991   1.319   1.952  10.764
 6792W        W10992   6.760  11.206  11.271
 6793W        W10993   4.128   1.211   9.942
 6794W        W10994   5.815   2.534   0.487
 6795W        W10995   0.012   0.342   2.704
 6796W        W10996   4.302  10.445   1.532
 6797W        W10997   6.970   7.578  10.322
 6798W        W10998   5.731   5.724   3.010
 6799W        W10999   6.802   1.646  10.359
 6800W        W11000   8.821  11.015  10.374
 6801W        W11001   8.437   9.049   0.893
 6802W        W11002  10.952   3.161   2.502
 6803W        W11003   1.834   3.150  11.452
 6804W        W11004   6.250  11.474   9.352
 6805W        W11005   0.884   5.451   0.243
 6806W        W11006   9.961   7.949  11.450
 6807W        W11007   9.666   5.615   3.143
 6808W        W11008   5.570   7.656  11.924
 6809W        W11009   5.185   9.641   2.902
 6810W        W11010   5.241   0.646   8.711
 6811W        W11011   4.135   8.982   9.613
 6812W        W11012   5.181   9.946   0.283
 6813W        W11013  10.784   6.149   1.467
 6814W        W11014   9.635   3.938   0.364
 6815W        W11015   9.895   5.789   1.710
 6816W        W11016   9.111   4.695   1.849
 6817W        W11017   5.390   3.279   3.539
 6818W        W11018   4.106   5.473   1.264
 6819W        W11019   1.762   2.715   9.061
 6820W        W11020   7.848   1.297   0.793
 6821W        W11021  11.091   0.238   2.408
 6822W        W11022   0.365  10.477   1.928
 6823W        W11023   2.079   8.913  10.552
 6824W        W11024   9.966   9.143  10.101
 6825W        W11025   0.846   8.209   2.999
 6826W        W11026   2.369   4.792   2.343
 6827W        W11027   6.952   5.341  11.035
 6828W        W11028   5.808   8.120   3.088
 6829W        W11029   1.832   4.314   2.756
 6830W        W11030   9.837   8.998  10.570
 6831W        W11031  10.916   2.304   1.400
 6832W        W11032   8.841   0.658  11.203
 6833W        W11033   2.227   6.222   8.905
 6834W        W11034   0.676   0.947   0.660
 6835W        W11035  10.042   3.248  10.299
 6836W        W11036   8.014   2.697   1.425
 6837W        W11037   0.132   9.325  11.326
 6838W        W11038   5.230   9.060   8.087
 6839W        W11039   6.200   2.822  10.799
 6840W        W11040   8.389   2.233  10.253
 6841W        W11041   8.434  11.483  11.941
 6842W        W11042   6.649  10.293   1.692
 6843W        W11043   6.476   7.617   9.555
 6844W        W11044   8.480   2.879   1.016
 6845W        W11045   7.441   1.422   2.745
 6846W        W11046   9.655   5.792  11.764
 6847W        W11047   3.165   3.832   1.576
 6848W        W11048   4.538   9.850  11.923
 6849W        W11049   2.279   4.404   1.325
 6850W        W11050   8.871   7.147  10.739
 6851W        W11051   5.376   1.432   9.704
 6852W        W11052   4.269   0.700   9.910
 6853W        W11053   6.099   0.870   2.940
 6854W        W11054   1.885   8.548   2.761
 6855W        W11055   7.043   1.328   3.084
 6856W        W11056   8.464   2.119   2.221
 6857W        W11057   7.253   6.700  10.834
 6858W        W11058  11.290  10.326   9.036
 6859W        W11059   4.383   2.328   0.719
 6860W        W11060   8.846   6.013   9.311
 6861W        W11061   1.434   3.646   9.495
 6862W        W11062  11.249   5.725   8.534
 6863W        W11063   7.452  10.012   0.901
 6864W        W11064  11.459   1.762   9.583
 6865W        W11065   1.663   5.635   2.141
 6866W        W11066   1.009   8.978   3.459
 6867W        W11067  11.341   1.256   9.295
 6868W        W11068  10.868   7.592  11.283
 6869W        W11069   0.696   5.719   9.504
 6870W        W11070   4.469   6.106  11.711
 6871W        W11071   9.317   1.180   0.879
 6872W        W11072   1.505   8.360  11.001
 6873W        W11073   1.290   1.210   3.163
 6874W        W11074   9.987  10.997   8.527
 6875W        W11075   0.767   7.487   8.971
 6876W        W11076   9.002   3.892   2.976
 6877W        W11077  10.462   3.548  11.751
 6878W        W11078   7.152   4.645   0.441
 6879W        W11079  10.851   6.651   2.178
 6880W        W11080   1.321  11.138   3.549
 6881W        W11081   8.402   4.914   1.349
 6882W        W11082   8.711   3.803   9.505
 6883W        W11083   1.851   1.792   9.009
 6884W        W11084   8.089  10.961   8.852
 6885W        W11085   7.863   9.571   9.184
 6886W        W11086   5.930   6.108   0.613
 6887W        W11087   9.368  10.149  10.479
 6888W        W11088   0.838   7.399   3.340
 6889W        W11089   2.813   8.838   9.085
 6890W        W11090   9.543   8.195  11.272
 6891W        W11091   1.208   7.588   1.534
 6892W        W11092   1.273   3.344  11.143
 6893W        W11093   6.119   8.707   1.352
 6894W        W11094   1.448  11.396   3.146
 6895W        W11095   8.714   0.500  10.318
 6896W        W11096  10.500   2.139   0.428
 6897W        W11097   9.459   5.912   1.488
 6898W        W11098  10.912   6.679  11.583
 6899W        W11099   1.732   3.188   9.385
 6900W        W11100   5.910  10.855  10.922
 6901W        W11101   2.155  10.333   2.200
 6902W        W11102   2.284   2.726  10.360
 6903W        W11103   8.497   9.801  10.821
 6904W        W11104   6.399   1.516  10.010
 6905W        W11105  11.440   0.888   1.642
 6906W        W11106   0.412   2.253  11.364
 6907W        W11107   8.141   1.269  11.135
 6908W        W11108   9.633   6.037   2.865
 6909W        W11109   7.038   2.791   3.609
 6910W        W11110   9.634   1.888  10.349
 6911W        W11111   1.881   7.087   0.506
 6912W        W11112   5.131   2.769   3.645
 6913W        W11113   4.863   6.145   9.764
 6914W        W11114   8.022   3.876   2.448
 6915W        W11115   4.652   1.150   9.894
 6916W        W11116   8.397   2.801  11.533
 6917W        W11117   2.776   5.789  11.231
 6918W        W11118   8.428   0.042   1.617
 6919W        W11119   3.819  11.381   1.304
 6920W        W11120  11.385  10.599   0.226
 6921W        W11121   5.817   0.693   0.471
 6922W        W11122   1.775   4.321  10.443
 6923W        W11123   5.094   4.787  10.715
 6924W        W11124  10.588   1.740   0.732
 6925W        W11125   3.578  11.209   0.868
 6926W        W11126   0.102   4.669  10.502
 6927W        W11127   6.232   9.637   1.251
 6928W        W11128  11.435   7.735   9.069
 6929W        W11129   4.543   6.495  10.965
 6930W        W11130   5.192  10.424   2.096
 6931W        W11131   1.489   7.586   2.566
 6932W        W11132   5.972   7.744   1.285
 6933W        W11133   7.335   5.876   0.233
 6934W        W11134   0.191   7.269   2.367
 6935W        W11135   6.103   7.044  11.086
 6936W        W11136   9.564   0.958  10.134
 6937W        W11137   9.930   9.662  10.052
 6938W        W11138   0.941   3.875   8.829
 6939W        W11139   0.743  10.763   9.319
 6940W        W11140   8.666   7.910   2.639
 6941W        W11141  11.172   9.657  11.358
 6942W        W11142   3.351   3.798  11.325
 6943W        W11143  10.423   2.640   0.342
 6944W        W11144   5.707   7.091   2.957
 6945W        W11145   7.250   2.288   2.378
 6946W        W11146   2.495   5.032   7.901
 6947W        W11147  10.015   2.349   2.403
 6948W        W11148   9.600   5.141   2.185
 6949W        W11149   5.251  11.002   1.279
 6950W        W11150   4.419   2.541   8.809
 6951W        W11151  11.483   4.409  11.995
 6952W        W11152   9.026   3.348   0.478
 6953W        W11153   7.544  10.825  10.091
 6954W        W11154   8.896   4.280   9.371
 6955W        W11155  10.296   3.203   1.868
 6956W        W11156   7.434   6.512   0.774
 6957W        W11157  11.035   5.791   1.221
 6958W        W11158   3.232   5.220  10.527
 6959W        W11159  10.711   5.519   2.675
 6960W        W11160  11.426   9.323   8.613
 6961W        W11161   5.218   4.201   0.911
 6962W        W11162   8.997   7.047   8.592
 6963W        W11163   7.438   4.791   0.843
 6964W        W11164   3.144   1.871  11.257
 6965W        W11165  11.047   5.187   2.479
 6966W        W11166   3.648   4.677   1.748
 6967W        W11167   0.734   2.373   0.941
 6968W        W11168   2.700   6.607   1.274
 6969W        W11169   2.282   3.525   3.060
 6970W        W11170   5.712   1.055   9.978
 6971W        W11171   9.580   8.151   2.245
 6972W        W11172   8.071   1.662  11.475
 6973W        W11173  10.436   8.409   9.907
 6974W        W11174   0.363   7.460   9.829
 6975W        W11175   7.225   8.466  10.549
 6976W        W11176  11.483   9.277   1.609
 6977W        W11177  10.502  11.463   8.909
 6978W        W11178   5.135   1.663  11.981
 6979W        W11179  10.844   2.492   3.305
 6980W        W11180   7.884  10.734   9.629
 6981W        W11181   7.427   5.321  11.256
 6982W        W11182   1.714   9.982  11.078
 6983W        W11183  10.484   3.614   2.186
 6984W        W11184  11.232   6.050   9.546
 6985W        W11185   4.197   4.073   2.156
 6986W        W11186   8.231   5.173   8.672
 6987W        W11187   3.263   5.813  11.046
 6988W        W11188   6.038  11.035   9.103
 6989W        W11189   7.340   6.249  11.514
 6990W        W11190   3.224   5.615   1.038
 6991W        W11191   0.696   1.836   1.489
 6992W        W11192   7.460   4.576   9.083
 6993W        W11193   1.141   0.807   3.483
 6994W        W11194   6.915   8.375   2.453
 6995W        W11195   5.599   9.104   9.828
 6996W        W11196   3.022   2.868  11.450
 6997W        W11197   8.618   8.316   8.637
 6998W        W11198   6.034   3.309  10.742
 6999W        W11199  11.485   9.838   9.752
 7000W        W11200   8.477   3.684   9.068
 7001W        W11201   2.337   0.767  11.352
 7002W        W11202   0.305  11.328  11.323
 7003W        W11203   5.353   2.632  10.317
 7004W        W11204   7.988   8.419   0.374
 7005W        W11205   8.844   8.073   3.403
 7006W        W11206   0.003   5.124  10.773
 7007W        W11207   0.510   7.041   9.515
 7008W        W11208   0.852   6.192   9.311
 7009W        W11209   9.350   2.221  10.622
 7010W        W11210   8.629  10.543   0.020
 7011W        W11211   4.179   5.678  10.790
 7012W        W11212   4.863   1.170   0.253
 7013W        W11213  10.930   8.408   3.487
 7014W        W11214   1.525   8.984   9.392
 7015W        W11215   6.110   4.447  10.459
 7016W        W11216  10.428  10.019   8.970
 7017W        W11217  10.432   9.979   1.396
 7018W        W11218   0.397   3.164  11.220
 7019W        W11219   7.624   0.901   1.141
 7020W        W11220   3.398   2.130   2.782
 7021W        W11221   0.609   1.820  10.448
 7022W        W11222   4.725   4.219   3.623
 7023W        W11223   3.091  11.435  11.875
 7024W        W11224   1.161   6.285   2.591
 7025W        W11225   4.722   6.719   8.638
 7026W        W11226   2.566   8.427   2.509
 7027W        W11227   2.355   5.516   9.572
 7028W        W11228   1.358   4.146   1.458
 7029W        W11229  11.454   4.822   8.745
 7030W        W11230   2.404   3.580   0.232
 7031W        W11231   7.068   3.784  10.875
 7032W        W11232   2.623   7.495   1.636
 7033W        W11233   4.598   2.263   1.617
 7034W        W11234   3.705   9.044   1.497
 7035W        W11235   3.951   8.543   9.827
 7036W        W11236  11.453   6.506   1.285
 7037W        W11237   6.968   0.273   1.671
 7038W        W11238   7.231   3.659   1.303
 7039W        W11239  11.062   1.766  10.503
 7040W        W11240   9.691   0.461  10.285
 7041W        W11241   5.466   4.826   3.307
 7042W        W11242   5.725   0.375   2.798
 7043W        W11243   4.134   7.788   0.387
 7044W        W11244   7.987   0.303   2.880
 7045W        W11245   9.373   8.698   0.931
 7046W        W11246   6.018   9.554   2.451
 7047W        W11247   9.251   7.200  10.377
 7048W        W11248   4.567  10.434   3.538
 7049W        W11249   3.082   1.259   2.388
 7050W        W11250  10.916   9.793   1.406
 7051W        W11251   8.469   7.469   3.423
 7052W        W11252  10.705   2.219   0.925
 7053W        W11253   8.121   1.426   0.370
 7054W        W11254   8.539  10.807   2.277
 7055W        W11255   0.217   9.434   3.133
 7056W        W11256   8.858   3.271   1.632
 7057W        W11257   5.965   2.472   1.636
 7058W        W11258   4.295   1.939  11.055
 7059W        W11259   6.705   6.622   0.237
 7060W        W11260   1.421   0.688   3.900
 7061W        W11261   2.531   5.302   0.754
 7062W        W11262   3.917   4.062   3.305
 7063W        W11263   3.821   3.560  10.493
 7064W        W11264   5.253  10.462   9.842
 7065W        W11265   0.702   9.994  11.394
 7066W        W11266   8.991  10.660  11.199
 7067W        W11267   7.944   7.505  11.695
 7068W        W11268   8.228   8.355  11.910
 7069W        W11269  10.856   1.969   3.190
 7070W        W11270  11.456   7.075  10.866
 7071W        W11271   4.293   8.920  11.856
 7072W        W11272   4.984  11.260  10.106
 7073W        W11273   5.212   0.420  10.735
 7074W        W11274   3.700   5.467   9.388
 7075W        W11275   6.858   8.091   1.535
 7076W        W11276   2.940   8.035   3.363
 7077W        W11277   1.835   9.915   2.302
 7078W        W11278   2.927   6.017   1.148
 7079W        W11279   1.889   1.356   1.844
 7080W        W11280   6.069   9.050  10.626
 7081W        W11281   6.072   1.773  11.991
 7082W        W11282   7.594   3.804   2.171
 7083W        W11283   7.570   2.644  10.059
 7084W        W11284   2.002   4.176   2.234
 7085W        W11285  11.020   3.298  11.426
 7086W        W11286  10.740  11.434  10.344
 7087W        W11287   2.599   6.522   0.341
 7088W        W11288  10.523   7.709  10.574
 7089W        W11289   2.280   3.620   0.728
 7090W        W11290   5.931   3.739   8.457
 7091W        W11291   5.271   2.136   0.926
 7092W        W11292   6.912   9.561   9.057
 7093W        W11293  10.585   3.713   9.274
 7094W        W11294   3.409   6.120   2.405
 7095W        W11295   7.228   6.386   0.265
 7096W        W11296   2.895   6.405  10.405
 7097W        W11297   2.674   6.556   3.174
 7098W        W11298   6.750   3.645   3.132
 7099W        W11299   5.144   4.176  10.031
 7100W        W11300   9.607   0.919  10.648
 7101W        W11301   9.025  10.340  10.814
 7102W        W11302   0.983   4.143   0.006
 7103W        W11303   7.997   6.091   3.499
 7104W        W11304   9.275   6.974   9.204
 7105W        W11305   9.473   0.535   2.574
 7106W        W11306   4.970   8.852   9.019
 7107W        W11307   3.263   0.911   0.732
 7108W        W11308   6.699   6.161  10.498
 7109W        W11309   5.707   9.429   1.215
 7110W        W11310   3.809  10.278  11.360
 7111W        W11311   2.549   0.450   2.535
 7112W        W11312   9.514  11.312  11.197
 7113W        W11313   9.578   5.093   3.176
 7114W        W11314   7.593   7.307   1.299
 7115W        W11315   6.561   9.015   1.412
 7116W        W11316   1.360   9.906   2.505
 7117W        W11317  11.356   9.052   9.585
 7118W        W11318   6.578   1.588   0.018
 7119W        W11319   0.348   9.950   2.395
 7120W        W11320   3.338   8.081  11.618
 7121W        W11321   2.752   5.538   9.188
 7122W        W11322  10.120   3.292   0.509
 7123W        W11323   3.522   4.850   3.107
 7124W        W11324   7.882   2.209   0.763
 7125W        W11325   2.223  11.490   8.855
 7126W        W11326   1.147   4.508   9.452
 7127W        W11327   1.862   1.301   9.793
 7128W        W11328   8.206   6.195   9.991
 7129W        W11329   4.108   8.677   1.384
 7130W        W11330   1.509   4.727   9.797
 7131W        W11331   6.109   4.111   9.636
 7132W        W11332   7.213   5.151   0.573
 7133W        W11333   9.901   7.295   3.312
 7134W        W11334   3.060   8.072   0.802
 7135W        W11335   8.477   8.490  11.275
 7136W        W11336   3.672   6.271   0.837
 7137W        W11337   8.388   6.981   2.821
 7138W        W11338  10.812   8.424   2.374
 7139W        W11339   0.482   7.898   1.659
 7140W        W11340  10.261   1.307  11.819
 7141W        W11341   5.285   2.823  11.097
 7142W        W11342  11.432   3.135   1.642
 7143W        W11343   7.605   7.395   9.149
 7144W        W11344   7.574  10.923   9.046
 7145W        W11345   4.645   1.865   1.943
 7146W        W11346   2.377  10.741  10.033
 7147W        W11347   2.873   6.245  11.444
 7148W        W11348  11.336   3.762  10.849
 7149W        W11349   8.504   2.560   3.030
 7150W        W11350   8.626   8.745   1.255
 7151W        W11351   5.648   8.555   2.813
 7152W        W11352   1.773   0.346  11.974
 7153W        W11353   2.358   7.424   2.311
 7154W        W11354   2.246   8.882  11.532
 7155W        W11355   5.673   7.047  10.593
 7156W        W11356   0.987   1.353  10.948
 7157W        W11357   0.294   8.953   3.292
 7158W        W11358   1.296   9.942   9.760
 7159W        W11359   2.177   9.874   0.344
 7160W        W11360  10.548   7.933   9.682
 7161W        W11361   2.643   2.643  10.765
 7162W        W11362   6.117   6.191   8.709
 7163W        W11363   0.044   2.355   2.331
 7164W        W11364  11.351   4.649   1.333
 7165W        W11365   9.912  11.277   8.986
 7166W        W11366   6.201   9.830   0.324
 7167W        W11367   6.073   6.989   9.588
 7168W        W11368   4.650   4.923   2.291
 7169W        W11369   7.953  11.143   9.321
 7170W        W11370   8.962   1.538  11.695
 7171W        W11371   5.269  10.539   2.904
 7172W        W11372   3.856   5.079   0.531
 7173W        W11373   3.029   0.032   3.230
 7174W        W11374   6.933   8.896   1.754
 7175W        W11375  10.434   2.898  10.254
 7176W        W11376   4.455   7.988  10.550
 7177W        W11377  10.777  10.894   8.657
 7178W        W11378   9.485   3.791   2.159
 7179W        W11379   0.128   3.300   3.181
 7180W        W11380   0.445   6.185   1.296
 7181W        W11381   4.327  10.943   9.809
 7182W        W11382   2.858   1.172  11.928
 7183W        W11383   7.350   9.911   3.216
 7184W        W11384   5.252   7.848   9.027
 7185W        W11385   6.712   8.582  10.564
 7186W        W11386   9.054  10.894   3.052
 7187W        W11387   2.185   9.532   3.370
 7188W        W11388  10.051   4.856   1.368
 7189W        W11389  10.470   8.033   2.463
 7190W        W11390   6.080   4.661  11.350
 7191W        W11391   6.554  10.034   9.814
 7192W        W11392   4.692   6.716   0.912
 7193W        W11393   3.125   1.836   3.513
 7194W        W11394   1.657   1.782  11.097
 7195W        W11395   3.796  10.261   2.981
 7196W        W11396   1.305   7.423  11.754
 7197W        W11397   3.914   6.062   2.332
 7198W        W11398   8.484   2.773   0.028
 7199W        W11399   9.044   9.422  10.403
 7200W        W11400   8.504   8.557   0.300
 7201W        W11401   0.267   8.536   9.314
 7202W        W11402   0.822   3.235   0.497
 7203W        W11403   9.089   2.641   9.602
 7204W        W11404   9.381   0.222   2.983
 7205W        W11405   6.470   9.489   9.905
 7206W        W11406   9.322   1.026   3.453
 7207W        W11407   7.017   8.452   0.428
 7208W        W11408   5.620   9.454   2.737
 7209W        W11409  11.360   8.103   3.560
 7210W        W11410   1.457   5.688  10.706
 7211W        W11411   6.988  11.496   2.737
 7212W        W11412   0.446  10.762   2.627
 7213W        W11413   8.721   2.314   3.400
 7214W        W11414  11.401   7.966  10.835
 7215W        W11415   9.147  11.173   1.186
 7216W        W11416   5.245   3.325   8.361
 7217W        W11417  10.392   4.512   9.805
 7218W        W11418   4.651   6.716   3.423
 7219W        W11419   8.516   7.284   0.875
 7220W        W11420   5.671   4.839   1.475
 7221W        W11421   2.819   2.112   1.396
 7222W        W11422   9.556   9.358   9.857
 7223W        W11423   3.276   0.451  11.914
 7224W        W11424   9.398   3.244   0.810
 7225W        W11425   7.794   3.123  10.091
 7226W        W11426   6.979   7.983   1.058
 7227W        W11427   9.471   0.722   0.736
 7228W        W11428   5.715  10.578   9.032
 7229W        W11429  10.737   4.159   1.397
 7230W        W11430   9.914   6.211   0.952
 7231W        W11431   5.331   4.925   1.097
 7232W        W11432   1.347   1.219  11.547
 7233W        W11433   9.806  10.361   2.513
 7234W        W11434   3.673   6.533  11.464
 7235W        W11435  10.157   4.287   1.347
 7236W        W11436   3.145   0.001   2.714
 7237W        W11437   0.673   9.436   9.387
 7238W        W11438   2.123  11.448  10.941
 7239W        W11439  10.421   1.365  10.095
 7240W        W11440   5.202   8.375  10.346
 7241W        W11441   6.185  10.857  10.080
 7242W        W11442   7.618  10.451   9.303
 7243W        W11443   0.475   9.082   1.713
 7244W        W11444  10.398   1.851   2.673
 7245W        W11445   8.503   2.042   8.481
 7246W        W11446   4.742   0.528  11.969
 7247W        W11447  10.286   9.484   2.115
 7248W        W11448   4.823   0.927   1.134
 7249W        W11449   8.467   3.223   0.287
 7250W        W11450   8.355   7.960   2.234
 7251W        W11451   0.676   8.610   3.267
 7252W        W11452   3.811   8.615   3.976
 7253W        W11453   5.924   4.982   3.107
 7254W        W11454   2.342   2.115   2.858
 7255W        W11455   5.274  10.835   0.134
 7256W        W11456  10.419   6.946   9.930
 7257W        W11457   3.228   6.523  11.722
 7258W        W11458   3.595   7.003   1.941
 7259W        W11459   6.458   5.238   0.922
 7260W        W11460   4.642   7.623   9.798
 7261W        W11461   2.023   2.732   0.875
 7262W        W11462   1.789   9.141   1.741
 7263W        W11463   5.141   4.323  10.990
 7264W        W11464   6.369   7.104   3.567
 7265W        W11465   0.490   7.168  10.807
 7266W        W11466   5.670   2.065   0.611
 7267W        W11467   5.479   8.977   9.022
 7268W        W11468   8.630   0.797   0.340
 7269W        W11469   0.843   6.762   0.817
 7270W        W11470   1.301   7.026   0.638
 7271W        W11471   9.688   8.120   9.469
 7272W        W11472   0.117   3.076   1.167
 7273W        W11473   2.767   1.662   2.250
 7274W        W11474   8.503   5.616   8.493
 7275W        W11475   8.583   8.447  10.668
 7276W        W11476   0.618   7.194   0.988
 7277W        W11477   2.123   9.731   9.812
 7278W        W11478   7.767   6.360  10.999
 7279W        W11479   5.159   0.042   1.245
 7280W        W11480   2.377   6.062   2.395
 7281W        W11481  10.007   9.481   2.989
 7282W        W11482   5.592   7.035   1.941
 7283W        W11483   3.625   6.915   9.333
 7284W        W11484   7.128   0.273   3.253
 7285W        W11485   4.740   2.233   9.041
 7286W        W11486   2.310   3.849   1.276
 7287W        W11487  10.964   3.780   1.025
 7288W        W11488   0.419   5.064   0.505
 7289W        W11489   4.096  10.655  11.504
 7290W        W11490   0.836   1.005  11.306
 7291W        W11491   6.348   2.559   8.170
 7292W        W11492   3.673   7.504   1.756
 7293W        W11493   0.915   5.207  11.327
 7294W        W11494   3.127  10.967   0.431
 7295W        W11495   4.338   4.978   0.580
 7296W        W11496   1.539  10.966   9.907
 7297W        W11497   3.918   2.815  11.595
 7298W        W11498   5.332   4.019  10.500
 7299W        W11499   6.681   4.708   2.167
 7300W        W11500   6.615   7.655   2.792
 7301W        W11501   9.006   6.666   9.944
 7302W        W11502   8.130  11.255  11.353
 7303W        W11503   7.580   3.220   3.321
 7304W        W11504   9.372   1.809   8.811
 7305W        W11505   3.059   0.936  10.610
 7306W        W11506   1.745   5.249   1.406
 7307W        W11507   8.773   5.354  11.614
 7308W        W11508   6.207   1.931   9.790
 7309W        W11509   2.911   7.861   9.029
 7310W        W11510   9.541   2.225   2.696
 7311W        W11511   8.553   6.385   8.172
 7312W        W11512   7.896   4.838   9.063
 7313W        W11513   4.727   8.465   2.295
 7314W        W11514   9.501   3.714   3.413
 7315W        W11515   0.366  10.085   9.991
 7316W        W11516   4.784   1.188   3.730
 7317W        W11517   6.413   2.897   2.759
 7318W        W11518   1.992   3.403   2.659
 7319W        W11519   1.443   7.966   1.785
 7320W        W11520   3.116   6.512   0.257
 7321W        W11521   4.258   0.546   1.965
 7322W        W11522   7.018   2.394   0.750
 7323W        W11523   1.665   8.421   0.564
 7324W        W11524   0.024   2.061   0.888
 7325W        W11525   5.577   2.715   3.884
 7326W        W11526   6.537   3.371  11.619
 7327W        W11527   5.589   4.609   8.258
 7328W        W11528   7.450   8.874   0.955
 7329W        W11529   0.423   9.627  11.943
 7330W        W11530   5.738   1.396   9.319
 7331W        W11531   5.562   2.361   9.865
 7332W        W11532   0.809   5.529  11.717
 7333W        W11533   3.600  10.879   0.200
 7334W        W11534   5.274   9.869  10.423
 7335W        W11535   8.860   9.353  11.918
 7336W        W11536  10.818   3.679   8.818
 7337W        W11537   4.262   7.709   2.268
 7338W        W11538   9.582   6.440   2.570
 7339W        W11539   4.469   8.454  11.730
 7340W        W11540   4.131   5.537   0.691
 7341W        W11541  11.356   8.974   0.991
 7342W        W11542   3.058   9.745   8.383
 7343W        W11543   4.175   1.830   3.202
 7344W        W11544  11.426   1.859   3.126
 7345W        W11545   0.490   3.637   0.476
 7346W        W11546   8.952   3.740   1.446
 7347W        W11547   0.885  10.517  10.541
 7348W        W11548   7.675   1.922  10.634
 7349W        W11549   3.124  11.014   0.966
 7350W        W11550   0.780   4.129   3.705
 7351W        W11551   1.713  11.339   9.584
 7352W        W11552   1.079   1.267   0.842
 7353W        W11553   4.465   4.648   8.949
 7354W        W11554   3.663   3.186   0.397
 7355W        W11555   8.160   7.531   9.722
 7356W        W11556   2.225  10.234  11.028
 7357W        W11557   1.915   3.780   0.249
 7358W        W11558  10.865   3.596  10.659
 7359W        W11559   3.539  10.782   3.305
 7360W        W11560   9.420   1.836   2.249
 7361W        W11561   3.289   0.627  10.019
 7362W        W11562  11.498  11.352   1.512
 7363W        W11563   2.284   2.745   0.439
 7364W        W11564  11.350   8.875  10.083
 7365W        W11565   4.696   5.962   4.103
 7366W        W11566   6.383  10.938  11.082
 7367W        W11567   6.638   5.712  11.513
 7368W        W11568   7.873   2.204   9.732
 7369W        W11569  11.102   3.694   9.256
 7370W        W11570  10.831   4.958   0.357
 7371W        W11571   2.310   9.346  11.742
 7372W        W11572   1.702   5.243   8.494
 7373W        W11573   0.935   9.515   2.913
 7374W        W11574   1.871   7.888   1.522
 7375W        W11575   1.816   5.694   1.132
 7376W        W11576   1.866   7.540   0.739
 7377W        W11577   3.826   3.557   2.665
 7378W        W11578   6.124   9.502   1.937
 7379W        W11579   7.643   4.551   3.746
 7380W        W11580   1.267   6.669   1.631
 7381W        W11581   9.856  10.490   0.299
 7382W        W11582   1.816   4.588   1.448
 7383W        W11583   1.630   5.663  11.189
 7384W        W11584   9.363  10.326   9.986
 7385W        W11585   2.738   5.542   1.190
 7386W        W11586   5.689   7.542   2.668
 7387W        W11587   0.979   4.203  10.563
 7388W        W11588   9.517   4.407   1.791
 7389W        W11589   2.655  10.257   9.551
 7390W        W11590   5.336   4.252   1.956
 7391W        W11591   0.453   1.732   1.943
 7392W        W11592   3.716   1.739   2.566
 7393W        W11593   0.857   0.757   1.679
 7394W        W11594   2.304   7.047   8.566
 7395W        W11595   8.363   5.258  11.955
 7396W        W11596  10.397   2.097   9.580
 7397W        W11597   1.159   5.831   2.868
 7398W        W11598   6.039   2.584   2.104
 7399W        W11599   3.550   5.172   8.991
 7400W        W11600   8.033   5.705   3.836
 7401W        W11601   2.379   6.084   3.323
 7402W        W11602  11.030   8.281   0.801
 7403W        W11603   4.426   0.318   3.240
 7404W        W11604   9.233   0.477   1.597
 7405W        W11605   5.606   4.044  10.963
 7406W        W11606   9.604   7.393   2.677
 7407W        W11607   0.041  10.254   9.477
 7408W        W11608   5.956  10.267   0.177
 7409W        W11609   2.765   9.990   2.644
 7410W        W11610   1.835   7.249   2.321
 7411W        W11611   1.429   8.645  10.064
 7412W        W11612   9.017   5.120   9.403
 7413W        W11613   4.071  10.817   9.389
 7414W        W11614   6.360   8.004   1.539
 7415W        W11615  10.374   4.697   0.386
 7416W        W11616   7.313   5.715   2.419
 7417W        W11617   3.275   8.210  10.611
 7418W        W11618   2.714   0.922   3.125
 7419W        W11619  10.487   9.355   3.157
 7420W        W11620   6.652   3.753  10.332
 7421W        W11621   3.238   6.952   8.981
 7422W        W11622   8.384   0.252   8.411
 7423W        W11623   3.751   2.778   0.672
 7424W        W11624   2.498  11.361   3.278
 7425W        W11625  11.140   7.927   9.832
 7426W        W11626   5.024   3.109   2.343
 7427W        W11627   6.715   9.800  10.465
 7428W        W11628   3.531   4.452   9.354
 7429W        W11629  11.094   8.793   1.429
 7430W        W11630   3.120  10.918   1.541
 7431W        W11631   6.998  11.146   9.518
 7432W        W11632   6.384   9.384   0.465
 7433W        W11633   8.367   9.988   1.741
 7434W        W11634   4.958   3.699  11.744
 7435W        W11635   7.665   1.762  10.111
 7436W        W11636   3.668  10.928   1.747
 7437W        W11637   0.320   4.307   8.828
 7438W        W11638   4.719   5.711   0.035
 7439W        W11639  10.758   0.820   9.422
 7440W        W11640   1.197  11.341   9.827
 7441W        W11641   2.324   8.938   2.514
 7442W        W11642  10.549   4.219   0.930
 7443W        W11643   0.164   2.199  11.823
 7444W        W11644   2.939   2.663   0.003
 7445W        W11645  10.726   5.245   8.549
 7446W        W11646   7.598   8.101  11.760
 7447W        W11647   0.578   5.106   1.856
 7448W        W11648   2.237   3.847  11.839
 7449W        W11649  10.312   0.989  11.417
 7450W        W11650  11.374  10.085  11.132
 7451W        W11651  10.523  11.355   3.306
 7452W        W11652   7.073   1.845   3.459
 7453W        W11653   3.014   2.122   2.243
 7454W        W11654   8.161   9.934   2.718
 7455W        W11655   3.220   9.609  10.257
 7456W        W11656  10.666   0.363   3.253
 7457W        W11657   3.284   4.120   0.841
 7458W        W11658   4.094   6.974   1.940
 7459W        W11659  11.036  10.707   9.984
 7460W        W11660   5.120   7.222  11.521
 7461W        W11661   8.078  10.844   3.310
 7462W        W11662   2.205   5.078   8.637
 7463W        W11663  10.794   0.331   8.537
 7464W        W11664   5.509   7.192   3.821
 7465W        W11665  10.387   5.472   8.850
 7466W        W11666   2.866   2.729   3.298
 7467W        W11667  10.744   9.275  11.624
 7468W        W11668  10.348   5.601   3.041
 7469W        W11669   8.121  10.257   9.597
 7470W        W11670   1.779  10.092   9.737
 7471W        W11671   5.510   4.535   3.759
 7472W        W11672   4.682   9.308  11.769
 7473W        W11673   7.608   4.770   2.165
 7474W        W11674   7.136   8.416   9.250
 7475W        W11675   1.086   4.861   3.656
 7476W        W11676   1.591   8.197   3.469
 7477W        W11677   4.024   7.600  11.893
 7478W        W11678   9.164   3.664  11.681
 7479W        W11679   5.646   0.373   9.496
 7480W        W11680   8.616   8.013  11.520
 7481W        W11681  11.314  10.017   1.164
 7482W        W11682  11.390   8.263   9.062
 7483W        W11683   3.370  10.409   1.118
 7484W        W11684   1.854   8.422   1.021
 7485W        W11685   1.213   9.068  11.140
 7486W        W11686   2.651   9.766   0.451
 7487W        W11687   5.033   5.312   2.354
 7488W        W11688   7.747   2.369   0.275
 7489W        W11689  10.310   9.131   1.736
 7490W        W11690   8.945  10.434   2.814
 7491W        W11691   1.082   4.406   8.686
 7492W        W11692   2.826   8.864   2.373
 7493W        W11693   1.712   1.415  11.891
 7494W        W11694   3.507   2.556   9.013
 7495W        W11695   7.121   8.815   2.235
 7496W        W11696   6.812   7.574   1.336
 7497W        W11697   2.675   0.307   3.518
 7498W        W11698   1.239   9.560   1.247
 7499W        W11699   7.821   8.575  10.002
 7500W        W11700   6.168   7.316   2.708
 7501W        W11701   2.635   0.719   0.353
 7502W        W11702   3.104   1.677   9.116
 7503W        W11703   8.041   4.725  11.295
 7504W        W11704   4.653   8.519   1.258
 7505W        W11705   5.051   6.098   2.010
 7506W        W11706   4.708   4.836   0.945
 7507W        W11707   1.218   0.751   9.431
 7508W        W11708   7.533   2.652   9.058
 7509W        W11709   6.570   9.039  10.735
 7510W        W11710   1.794   6.618   9.596
 7511W        W11711  10.470   0.200   0.460
 7512W        W11712   8.207   8.494  10.309
 7513W        W11713   4.495   5.258  11.741
 7514W        W11714   0.928   3.098   0.971
 7515W        W11715   9.985   6.812   0.700
 7516W        W11716   2.391   8.022   0.072
 7517W        W11717   0.729   5.704   1.994
 7518W        W11718   8.679   2.052   2.950
 7519W        W11719   5.042   4.390  11.498
 7520W        W11720   9.292   8.392   0.512
 7521W        W11721   8.875   2.293  10.442
 7522W        W11722   3.949   2.390   8.604
 7523W        W11723  10.961   5.246  10.041
 7524W        W11724   6.778   5.126  10.137
 7525W        W11725   9.042   2.533   0.460
 7526W        W11726   8.855   4.442   8.866
 7527W        W11727   3.208   8.418   1.756
 7528W        W11728   3.566   4.871   1.258
 7529W        W11729  10.549   3.740   0.725
 7530W        W11730   6.570   3.335  10.027
 7531W        W11731   0.961   4.793   9.047
 7532W        W11732   5.444   8.379  11.699
 7533W        W11733   1.916   3.667   9.308
 7534W        W11734   3.897   2.148  10.791
 7535W        W11735  10.426   1.168  10.563
 7536W        W11736   3.402   5.222   4.117
 7537W        W11737   6.173   2.733   3.170
 7538W        W11738   4.059   9.141  11.391
 7539W        W11739   6.021   4.785  10.842
 7540W        W11740   8.232   8.440   1.394
 7541W        W11741   9.317   1.815  11.455
 7542W        W11742   1.650   6.475   3.274
 7543W        W11743   8.139   7.337   9.259
 7544W        W11744   8.260   1.715   2.987
 7545W        W11745   8.573  10.828   2.836
 7546W        W11746   2.222   4.078   3.094
 7547W        W11747  11.447   9.603  11.772
 7548W        W11748   0.447   2.640   2.856
 7549W        W11749   6.178   5.052   1.331
 7550W        W11750   6.557   9.036   2.906
 7551W        W11751   7.695  11.454  11.528
 7552W        W11752   6.316   0.887   0.456
 7553W        W11753   0.864   8.935  11.526
 7554W        W11754   2.128   9.811  11.324
 7555W        W11755   5.013   7.413   0.052
 7556W        W11756  10.735  10.839   1.277
 7557W        W11757   3.966   7.940   9.179
 7558W        W11758   5.052   4.071   8.737
 7559W        W11759   9.090   3.321   8.930
 7560W        W11760   4.355   9.597   0.364
 7561W        W11761   2.379   6.700   9.002
 7562W        W11762   6.137   6.011   2.263
 7563W        W11763   6.231   4.494   3.049
 7564W        W11764   0.858   5.660   1.163
 7565W        W11765   0.365   9.556   9.967
 7566W        W11766   8.562   5.199   8.178
 7567W        W11767   3.341   2.481   2.404
 7568W        W11768  10.368   0.486   8.796
 7569W        W11769   8.569   3.674  11.026
 7570W        W11770  11.361   8.248  11.290
 7571W        W11771  10.180   0.260   3.175
 7572W        W11772   6.208   6.593  11.330
 7573W        W11773  10.810   3.291   1.873
 7574W        W11774   5.142   7.395  10.110
 7575W        W11775   0.494  10.846  10.431
 7576W        W11776   5.203   8.668   2.581
 7577W        W11777   9.985  11.386  10.962
 7578W        W11778   7.122   9.326   1.487
 7579W        W11779   9.190   8.242   9.450
 7580W        W11780   5.223   1.926   0.423
 7581W        W11781   4.222   4.551   2.356
 7582W        W11782   8.955   8.918  10.237
 7583W        W11783   0.657   2.388   3.255
 7584W        W11784   7.581   6.421   4.060
 7585W        W11785   9.012   6.472   7.887
 7586W        W11786   7.978   6.849  10.864
 7587W        W11787   2.808  11.337   1.208
 7588W        W11788   9.643   4.569   9.310
 7589W        W11789   6.904   7.598  10.831
 7590W        W11790   5.601   9.769  10.867
 7591W        W11791   0.391   6.560   9.687
 7592W        W11792   2.130   0.404   1.339
 7593W        W11793   3.017   2.335  10.631
 7594W        W11794  10.810  10.757  11.404
 7595W        W11795   1.215   7.848   2.903
 7596W        W11796   0.368   7.114   3.012
 7597W        W11797   5.065   8.856  10.537
 7598W        W11798   7.449   1.647   0.728
 7599W        W11799   5.602   0.235  11.006
 7600W        W11800   7.894   7.797   9.351
 7601W        W11801   6.472   9.622  10.933
 7602W        W11802   5.259   2.891   2.727
 7603W        W11803   5.190   6.158  10.467
 7604W        W11804   5.210   2.125   8.485
 7605W        W11805   1.459   0.231  11.248
 7606W        W11806   2.716   1.622   0.123
 7607W        W11807   0.855   6.899   3.100
 7608W        W11808   8.235   3.605   8.634
 7609W        W11809   0.915   9.073   2.018
 7610W        W11810   6.077  11.363  10.880
 7611W        W11811   5.634   9.514  10.358
 7612W        W11812   3.550   0.149  10.037
 7613W        W11813  11.199  10.486   2.817
 7614W        W11814   6.609   8.938   0.427
 7615W        W11815   0.334   4.202   9.369
 7616W        W11816   1.504   7.416  11.155
 7617W        W11817   8.506   2.822  11.008
 7618W        W11818   2.869   9.793   8.960
 7619W        W11819   4.817   2.470  10.442
 7620W        W11820   3.523   1.292  10.736
 7621W        W11821   4.800   7.655   0.823
 7622W        W11822   1.563   5.181   9.499
 7623W        W11823   3.470   5.445   8.520
 7624W        W11824  10.329   5.576   1.926
 7625W        W11825   2.742   5.727  11.749
 7626W        W11826   9.213   5.193   1.896
 7627W        W11827   2.699   3.645   8.979
 7628W        W11828   5.909  10.292   8.511
 7629W        W11829   6.698  10.114   9.351
 7630W        W11830   2.233   2.442   9.029
 7631W        W11831   6.329   8.187   8.217
 7632W        W11832   6.983   0.028  10.470
 7633W        W11833   8.650  10.806   9.945
 7634W        W11834   6.022   4.546   9.929
 7635W        W11835   5.650   2.709  11.498
 7636W        W11836   4.090  10.603   8.580
 7637W        W11837   5.777   3.208   3.868
 7638W        W11838   5.068   0.699  10.337
 7639W        W11839   2.662   4.546  10.702
 7640W        W11840  11.087  11.486  11.774
 7641W        W11841   7.449   1.268  11.838
 7642W        W11842   5.558   5.934  11.099
 7643W        W11843   1.809   6.401   0.028
 7644W        W11844   5.457  11.268  10.295
 7645W        W11845   2.973   8.357   8.327
 7646W        W11846   4.228   5.533  11.313
 7647W        W11847   4.759   7.439   2.269
 7648W        W11848   6.059   2.114  10.596
 7649W        W11849   9.282   8.162  10.263
 7650W        W11850   2.811   1.254   1.928
 7651W        W11851   8.890   1.144   0.010
 7652W        W11852   4.722   9.340  10.690
 7653W        W11853   0.919  11.277   1.935
 7654W        W11854   1.130   2.659   1.124
 7655W        W11855   8.216   6.076   1.220
 7656W        W11856   9.944   0.356   9.630
 7657W        W11857   0.292   6.963   9.999
 7658W        W11858   2.647   8.502   8.713
 7659W        W11859   2.682   5.058   8.396
 7660W        W11860   2.749   4.241   8.299
 7661W        W11861  11.391   4.802  10.071
 7662W        W11862   4.277   2.708  10.212
 7663W        W11863   5.044   4.423   9.100
 7664W        W11864   5.660   9.853   9.429
 7665W        W11865   5.845   3.604   1.430
 7666W        W11866   9.511  10.422   9.051
 7667W        W11867   6.190   5.732   2.717
 7668W        W11868  10.427   5.227   9.298
 7669W        W11869   9.309   7.456   8.531
 7670W        W11870  11.263   8.314   3.087
 7671W        W11871   0.001   6.027   1.090
 7672W        W11872  11.287   4.741   9.566
 7673W        W11873  11.318   1.861  10.067
 7674W        W11874   2.974   6.911  10.356
 7675W        W11875   6.844   7.128  11.532
 7676W        W11876   6.437   6.633   9.543
 7677W        W11877   5.162   2.360  11.318
 7678W        W11878   7.746   5.068  10.763
 7679W        W11879   6.737   3.654   1.280
 7680W        W11880   2.654   1.452   0.783
 7681W        W11881   2.824   2.594   2.304
 7682W        W11882   7.154  10.472   2.917
 7683W        W11883   9.793   9.376   9.100
 7684W        W11884  10.606   4.775  11.933
 7685W        W11885   7.604  10.359   3.121
 7686W        W11886   0.888   1.444   9.516
 7687W        W11887   3.658   3.929  10.142
 7688W        W11888  10.527   5.151   1.717
 7689W        W11889   0.674   9.557   2.467
 7690W        W11890   1.809   5.160   9.937
 7691W        W11891   3.833   3.279  11.350
 7692W        W11892   9.957  10.089   9.752
 7693W        W11893  10.317  11.421   1.834
 7694W        W11894   7.123   2.605  10.835
 7695W        W11895   4.804   9.516   9.244
 7696W        W11896   5.167   9.581  11.361
 7697W        W11897  10.008   2.110   2.928
 7698W        W11898   7.978   5.726  11.478
 7699W        W11899   9.949   4.911   0.064
 7700W        W11900   1.206  10.845  10.277
 7701W        W11901   7.629   0.516   0.739
 7702W        W11902   6.805   7.052   1.199
 7703W        W11903  10.287   0.785   9.239
 7704W        W11904   0.055   6.956  11.875
 7705W        W11905   6.501   4.546   0.639
 7706W        W11906   8.169  11.494   9.709
 7707W        W11907   0.693   3.016   2.372
 7708W        W11908   5.136   8.001   1.143
 7709W        W11909  10.352   0.922   2.391
 7710W        W11910   0.221   9.820  11.386
 7711W        W11911   8.463   9.490  11.639
 7712W        W11912   2.311   0.649   3.318
 7713W        W11913   2.302  10.496  11.939
 7714W        W11914   0.088   1.552   0.880
 7715W        W11915   2.316   8.337   1.213
 7716W        W11916   3.749   3.092   2.862
 7717W        W11917   4.437   9.435   3.633
 7718W        W11918   2.321  11.225   2.288
 7719W        W11919   3.664   7.588   0.429
 7720W        W11920   2.639   4.969   0.359
 7721W        W11921   1.345   9.996  11.756
 7722W        W11922   7.905   1.484  10.754
 7723W        W11923  10.495   1.180   1.539
 7724W        W11924   0.722   3.131   9.309
 7725W        W11925   7.102   1.625  10.824
 7726W        W11926   6.145   7.609   2.300
 7727W        W11927   6.598   6.537   1.160
 7728W        W11928   1.760   2.037   0.496
 7729W        W11929   9.397   1.316  11.511
 7730W        W11930   3.685   3.718   1.655
 7731W        W11931   7.450   4.308   1.964
 7732W        W11932   1.904   1.538   0.478
 7733W        W11933   1.134   9.469   2.263
 7734W        W11934   9.964   6.658   8.719
 7735W        W11935   5.968  10.694   3.290
 7736W        W11936   0.248   9.517   9.003
 7737W        W11937   7.858   5.503  11.016
 7738W        W11938   8.219   9.072   2.181
 7739W        W11939   0.989   3.191   2.768
 7740W        W11940   3.013   4.216  11.507
 7741W        W11941  10.195   4.483  11.934
 7742W        W11942   7.565  10.323  10.292
 7743W        W11943   1.723   9.029   2.808
 7744W        W11944  10.828   6.573   0.678
 7745W        W11945   6.713   0.074   0.430
 7746W        W11946  11.286   6.109   1.545
 7747W        W11947   9.595   3.690  11.915
 7748W        W11948   1.986  11.460   0.869
 7749W        W11949   3.730   7.825   2.187
 7750W        W11950   1.738   5.783   0.648
 7751W        W11951   8.860   8.113   1.473
 7752W        W11952   4.937   6.521   9.086
 7753W        W11953   0.025   2.721   1.980
 7754W        W11954  10.441  11.079  11.097
 7755W        W11955   6.698   2.209   9.394
 7756W        W11956   4.391   1.526   2.272
 7757W        W11957   3.569   4.210   8.916
 7758W        W11958   4.779   0.219  10.959
 7759W        W11959   2.857   7.070   3.283
 7760W        W11960   5.719  10.625   9.952
 7761W        W11961  10.936   4.768   8.591
 7762W        W11962   9.240   9.095   0.619
 7763W        W11963  10.579   2.767  10.710
 7764W        W11964   6.181   1.732   1.012
 7765W        W11965   6.491  10.684   0.802
 7766W        W11966   3.160   4.211   2.259
 7767W        W11967   5.241   6.810   8.765
 7768W        W11968   0.409   5.572   0.046
 7769W        W11969  11.459   6.175   9.072
 7770W        W11970  10.890   5.903  10.988
 7771W        W11971   4.217  10.106  10.785
 7772W        W11972   8.989   9.048   1.054
 7773W        W11973   5.071  11.114   9.352
 7774W        W11974   8.530   5.312   2.384
 7775W        W11975   3.169   3.317   9.978
 7776W        W11976   8.198   0.967   0.108
 7777W        W11977   1.378  10.379  10.483
 7778W        W11978   1.915   4.280   0.434
 7779W        W11979   6.547   3.700   0.386
 7780W        W11980   6.436  10.822   2.306
 7781W        W11981   0.679   9.778   8.957
 7782W        W11982   6.184   4.293  11.887
 7783W        W11983   9.589  11.056   9.803
 7784W        W11984   2.410   5.068  10.511
 7785W        W11985   8.215   5.111  10.992
 7786W        W11986   9.405   3.747   1.183
 7787W        W11987   7.100   6.965   2.349
 7788W        W11988   1.758   7.721   2.161
 7789W        W11989  11.329   9.382   9.990
 7790W        W11990   2.485   3.108  10.614
 7791W        W11991   8.877   9.800  11.671
 7792W        W11992   5.217   1.945   1.825
 7793W        W11993   4.829  11.292   1.532
 7794W        W11994   2.916   3.656   0.243
 7795W        W11995   5.396   2.730   9.049
 7796W        W11996   7.979   0.216  11.877
 7797W        W11997   6.382   9.113   3.721
 7798W        W11998   8.369   3.402   1.766
 7799W        W11999   5.994   0.187   0.213
 7800W        W12000   6.506  10.852  11.577
 7801W        W12001  10.458   2.226   3.526
 7802W        W12002   0.789   6.706   1.806
 7803W        W12003   8.430   1.406  11.962
 7804W        W12004   1.788   1.755  10.036
 7805W        W12005   3.269   8.682  10.342
 7806W        W12006   6.587   6.156   0.817
 7807W        W12007   9.504   8.105   3.196
 7808W        W12008   1.412   3.524   2.063
 7809W        W12009   6.279   8.824  11.086
 7810W        W12010   8.881   6.221   3.230
 7811W        W12011   8.773   9.568   3.174
 7812W        W12012   5.704   5.127   9.142
 7813W        W12013   9.332   3.389   1.788
 7814W        W12014   7.636   5.414   9.807
 7815W        W12015   3.128   2.085   9.689
 7816W        W12016   0.958   1.971   3.186
 7817W        W12017   8.939   0.547   3.191
 7818W        W12018  10.404   6.439   1.990
 7819W        W12019   7.916   4.264  10.045
 7820W        W12020   6.674   2.534  11.989
 7821W        W12021   4.490   5.785   1.077
 7822W        W12022  10.846   7.019   0.919
 7823W        W12023   4.444   3.244   0.777
 7824W        W12024  10.652   9.631   9.587
 7825W        W12025  11.371   5.523   3.217
 7826W        W12026   6.663   2.728   9.501
 7827W        W12027   5.501  10.160  11.814
 7828W        W12028   2.789   4.844   0.839
 7829W        W12029   2.474   9.529   1.757
 7830W        W12030   5.125   6.496   1.172
 7831W        W12031   1.807   3.359   0.839
 7832W        W12032  10.443   9.101   9.410
 7833W        W12033   4.310   8.637   3.739
 7834W        W12034   0.840   0.257   1.132
 7835W        W12035   5.971   8.209   3.585
 7836W        W12036   7.639   6.552  10.535
 7837W        W12037   4.448   4.214  10.454
 7838W        W12038   8.956  10.839   9.463
 7839W        W12039   7.856   6.938   9.075
 7840W        W12040   8.525   6.920   1.396
 7841W        W12041   2.686  10.789   1.098
 7842W        W12042  10.035  11.281   3.084
 7843W        W12043   3.090   7.045   1.944
 7844W        W12044   3.786   5.964  11.030
 7845W        W12045   4.818   6.142  11.301
 7846W        W12046   9.556   8.611  10.354
 7847W        W12047   3.376  10.005   9.153
 7848W        W12048   2.256   7.881   9.472
 7849W        W12049   3.351   3.463   0.074
 7850W        W12050   1.474   7.847  11.981
 7851W        W12051   4.476   2.746   9.769
 7852W        W12052   8.585   9.141   0.439
 7853W        W12053   9.104  11.350  10.808
 7854W        W12054   7.185   2.359   3.384
 7855W        W12055   2.563   2.629  11.286
 7856W        W12056   0.344   4.814   1.256
 7857W        W12057   4.678   0.135   2.814
 7858W        W12058   5.773   4.375   1.685
 7859W        W12059   6.642   6.087   2.283
 7860W        W12060   5.898   2.728   8.970
 7861W        W12061   8.286   5.165   3.212
 7862W        W12062   6.921   5.130   2.372
 7863W        W12063   9.123   8.414  11.506
 7864W        W12064   2.246   5.272   9.105
 7865W        W12065   1.279   4.106   9.750
 7866W        W12066   0.867   0.269   2.136
 7867W        W12067   7.464  11.464  10.185
 7868W        W12068   0.750   2.167   1.915
 7869W        W12069   7.168   0.768  11.842
 7870W        W12070   8.350   4.541  10.295
 7871W        W12071  11.104   4.103   2.288
 7872W        W12072   9.905   3.785   1.339
 7873W        W12073   3.136   9.336   0.732
 7874W        W12074   3.819   1.630   9.934
 7875W        W12075  10.848   4.638  10.830
 7876W        W12076   8.256   6.362  10.813
 7877W        W12077  10.101   3.837   9.535
 7878W        W12078  10.692   4.156  10.575
 7879W        W12079   5.124   7.495  10.610
 7880W        W12080  11.428  10.955   2.788
 7881W        W12081   0.430   5.288   1.399
 7882W        W12082  10.141   3.775   3.444
 7883W        W12083   6.336   3.952   8.183
 7884W        W12084   3.214   5.422   3.685
 7885W        W12085   8.486   0.796   3.199
 7886W        W12086   1.799   6.494   9.081
 7887W        W12087   2.319   1.849   0.453
 7888W        W12088  10.864   3.912  11.079
 7889W        W12089   5.221   1.843  11.432
 7890W        W12090   5.458   8.154   9.894
 7891W        W12091   5.869   2.014   1.897
 7892W        W12092   2.316   7.542  11.789
 7893W        W12093   3.068   0.336   1.404
 7894W        W12094   7.640   3.117  10.969
 7895W        W12095   2.446  10.679  10.897
 7896W        W12096   4.215   3.210  10.429
 7897W        W12097   8.585   4.263   2.862
 7898W        W12098   1.374   0.392   0.839
 7899W        W12099   0.294   0.399   0.012
 7900W        W12100   7.064   0.244   2.229
 7901W        W12101   9.104   6.625   8.865
 7902W        W12102   4.193   7.489   1.829
 7903W        W12103   8.585   1.830   3.376
 7904W        W12104   1.515   0.331   9.579
 7905W        W12105   1.435   2.885   8.348
 7906W        W12106   7.340   6.456  10.097
 7907W        W12107  10.572   7.111   2.754
 7908W        W12108  11.356   9.778   3.401
 7909W        W12109   6.459   9.761   0.808
 7910W        W12110   1.902   7.760   3.472
 7911W        W12111   2.846   1.889   0.539
 7912W        W12112   7.025   4.835   9.104
 7913W        W12113   3.293   6.217  10.703
 7914W        W12114   9.615   3.112   2.758
 7915W        W12115   6.457   6.078  10.983
 7916W        W12116  10.351  10.384   0.231
 7917W        W12117   3.125   6.049  11.845
 7918W        W12118   5.354   1.910  10.012
 7919W        W12119   7.708   5.952  10.699
 7920W        W12120   7.498   5.387   0.240
 7921W        W12121   9.421  10.248   2.827
 7922W        W12122   0.986   9.855   1.664
 7923W        W12123   4.601   1.768   1.417
 7924W        W12124   6.151   2.256   0.766
 7925W        W12125   1.816   2.271   8.754
 7926W        W12126   2.181   7.081  11.564
 7927W        W12127   9.444   9.116   9.391
 7928W        W12128   4.652   1.883  10.291
 7929W        W12129   1.367   7.016   3.246
 7930W        W12130   9.991   3.279  10.851
 7931W        W12131   8.961   5.070   3.752
 7932W        W12132   6.467   9.969  11.896
 7933W        W12133   5.186   8.356   1.558
 7934W        W12134   6.595   2.325   0.470
 7935W        W12135  11.297  10.537  10.409
 7936W        W12136   4.791   0.965   1.637
 7937W        W12137   7.708   8.975  11.440
 7938W        W12138   5.524   7.543  11.442
 7939W        W12139   7.621   3.124   2.015
 7940W        W12140   7.945   6.879  11.717
 7941W        W12141   4.688   9.383   2.218
 7942W        W12142   2.252   6.145   0.273
 7943W        W12143   3.949   0.486   8.794
 7944W        W12144   5.942   0.940   9.480
 7945W        W12145   7.513   4.101   9.269
 7946W        W12146   9.493   1.901   3.546
 7947W        W12147   4.623  11.067   1.958
 7948W        W12148   5.712   1.177   0.348
 7949W        W12149   5.462  10.698  10.742
 7950W        W12150   6.985   4.192   9.962
 7951W        W12151   7.672   7.071  10.482
 7952W        W12152   3.681   6.457  10.931
 7953W        W12153   9.991   8.224   8.381
 7954W        W12154  10.993   0.419  10.338
 7955W        W12155  10.816   4.206   2.742
 7956W        W12156   1.330   6.634   2.913
 7957W        W12157   2.300   4.714   9.268
 7958W        W12158   2.392   1.603   2.964
 7959W        W12159   2.982   7.526   2.571
 7960W        W12160   5.491  11.446   0.864
 7961W        W12161   9.572   5.404   1.618
 7962W        W12162   0.986   7.057   8.732
 7963W        W12163   7.087   3.034   0.117
 7964W        W12164   1.787   5.417   0.298
 7965W        W12165   6.821   3.273   3.749
 7966W        W12166   6.680   5.348  10.585
 7967W        W12167   3.587   1.437   1.288
 7968W        W12168   4.136   8.005   0.885
 7969W        W12169   4.352   4.846   2.786
 7970W        W12170   2.196   0.385   1.939
 7971W        W12171   8.336  10.389   0.433
 7972W        W12172   5.231   9.364  11.842
 7973W        W12173   7.640   2.576  11.799
 7974W        W12174   2.846   2.862   2.789
 7975W        W12175   4.834   2.874  10.117
 7976W        W12176   0.775   7.587   1.274
 7977W        W12177   8.612  10.827   3.341
 7978W        W12178   0.798   4.111   9.563
 7979W        W12179   6.113   0.403   1.712
 7980W        W12180  10.536  10.718   0.566
 7981W        W12181   4.939  10.612   2.516
 7982W        W12182   5.640   9.598   9.861
 7983W        W12183   8.062   7.387   1.661
 7984W        W12184   3.030   9.051   9.553
 7985W        W12185  10.300   3.579   2.957
 7986W        W12186   5.125   1.656   0.854
 7987W        W12187   5.120   1.141   8.803
 7988W        W12188  10.038  10.806   3.259
 7989W        W12189   8.515   0.394  11.486
 7990W        W12190   8.561   7.450   2.818
 7991W        W12191   4.430   0.558   2.456
 7992W        W12192   7.474   3.051   9.701
 7993W        W12193   7.243  10.872   1.972
 7994W        W12194   0.003   5.538  11.723
 7995W        W12195   5.067  10.318   3.390
 7996W        W12196   8.678   9.375   2.326
 7997W        W12197   9.563   1.119   0.359
 7998W        W12198   6.558   9.512  11.639
 7999W        W12199   1.796   5.896   0.133
 8000W        W12200   5.646   3.669   3.301
 8001W        W12201   8.655   1.248   2.479
 8002W        W12202   9.020   4.533  11.875
 8003W        W12203  11.016   9.050   8.795
 8004W        W12204   2.468   7.049  11.068
 8005W        W12205   0.909   9.926   2.189
 8006W        W12206   9.692  10.954   3.640
 8007W        W12207   8.814   7.082  11.248
 8008W        W12208   6.553   2.195   8.794
 8009W        W12209   3.240   6.483  11.200
 8010W        W12210   0.699   3.654   9.803
 8011W        W12211   8.107   6.223   3.980
 8012W        W12212  10.481   8.591   9.406
 8013W        W12213  10.773   9.078  10.745
 8014W        W12214   6.558   4.795   1.663
 8015W        W12215   7.952   4.125   3.672
 8016W        W12216   7.543   2.868  11.399
 8017W        W12217   3.343   2.781   0.330
 8018W        W12218   2.706   6.529   9.528
 8019W        W12219   7.162   6.620   3.792
 8020W        W12220   1.443   2.802   3.031
 8021W        W12221   1.370   6.034   3.387
 8022W        W12222   0.673   5.222   0.933
 8023W        W12223   8.343   5.579  10.817
 8024W        W12224   8.684  10.497   1.768
 8025W        W12225   2.635   7.999   8.601
 8026W        W12226   6.908   9.871  11.657
 8027W        W12227   9.144   1.807  10.409
 8028W        W12228   2.713   6.024   8.984
 8029W        W12229   2.258   6.616  11.848
 8030W        W12230   5.272   6.033  11.507
 8031W        W12231   5.823   2.705   8.338
 8032W        W12232   0.306   7.460   1.412
 8033W        W12233  10.807   7.667  10.149
 8034W        W12234   3.420   5.239   0.323
 8035W        W12235   9.300   9.316   1.808
 8036W        W12236   7.010   9.806   1.654
 8037W        W12237   5.928   8.687  10.295
 8038W        W12238   5.860   0.029   9.011
 8039W        W12239  10.898   7.967   3.236
 8040W        W12240   3.202  10.208   2.183
 8041W        W12241   6.501  11.399  10.258
 8042W        W12242   5.433   9.565   3.687
 8043W        W12243   4.468   1.635   9.881
 8044W        W12244   2.435   2.168  11.460
 8045W        W12245   6.102   8.842   1.833
 8046W        W12246   0.268  10.057   3.253
 8047W        W12247   3.413  10.523   9.903
 8048W        W12248   9.085  10.216   8.796
 8049W        W12249   6.989  10.977  11.688
 8050W        W12250   8.707   5.755   3.117
 8051W        W12251  10.321   2.424  10.409
 8052W        W12252   5.020   6.514  10.099
 8053W        W12253   6.876   8.989   3.672
 8054W        W12254   9.906   4.068   1.787
 8055W        W12255   9.346   6.071   9.228
 8056W        W12256   0.359   1.330  10.374
 8057W        W12257  11.259   4.233   2.992
 8058W        W12258   7.214  11.080  10.413
 8059W        W12259  10.348   1.782   2.167
 8060W        W12260   8.657   5.215  10.628
 8061W        W12261   7.571   4.827  11.454
 8062W        W12262   3.118   4.766   0.418
 8063W        W12263   3.447   8.005   9.122
 8064W        W12264   7.799   3.871   3.260
 8065W        W12265   2.471   7.486  11.310
 8066W        W12266   4.201   3.854  11.028
 8067W        W12267   0.426   0.849   8.748
 8068W        W12268   7.931   0.695   9.329
 8069W        W12269   9.802   2.828  11.581
 8070W        W12270  11.390   8.628   0.140
 8071W        W12271   3.420   9.909  11.555
 8072W        W12272   1.764   4.589   0.017
 8073W        W12273   0.934  11.494   2.972
 8074W        W12274   5.217   5.596   1.873
 8075W        W12275   6.734   0.502   3.549
 8076W        W12276   2.410   7.067   0.545
 8077W        W12277   9.552  11.191   0.508
 8078W        W12278   2.771   6.912   8.730
 8079W        W12279  10.390   5.082   3.288
 8080W        W12280   1.457   3.724   0.494
 8081W        W12281  10.391   5.141   0.664
 8082W        W12282  11.383   8.432   1.662
 8083W        W12283   4.158   4.148  10.030
 8084W        W12284   4.768   0.628   2.819
 8085W        W12285   9.606   2.292   3.201
 8086W        W12286   7.594   7.548   1.826
 8087W        W12287   6.599   2.077   0.932
 8088W        W12288  10.146   8.996   0.497
 8089W        W12289   6.541   0.411   1.433
 8090W        W12290   3.296   6.655   1.665
 8091W        W12291   3.570   8.060   0.816
 8092W        W12292   3.245   3.239   2.801
 8093W        W12293   0.760   2.224   2.773
 8094W        W12294   5.952   3.826  11.863
 8095W        W12295   0.434   3.052   9.750
 8096W        W12296  10.434  10.072   9.493
 8097W        W12297   9.061   5.006  10.363
 8098W        W12298   5.572   9.433   2.221
 8099W        W12299   3.105   5.147   8.686
 8100W        W12300   3.586   9.936  11.062
 8101W        W12301   4.276   2.658   1.446
 8102W        W12302   8.467  10.370   2.623
 8103W        W12303   2.189   2.273   0.736
 8104W        W12304   4.778   0.427   8.421
 8105W        W12305   9.813   7.009   2.335
 8106W        W12306   0.443   4.810  10.119
 8107W        W12307   3.785   5.949  10.487
 8108W        W12308  11.063   2.880  11.715
 8109W        W12309   2.799   0.799  10.023
 8110W        W12310   0.515   9.509  10.730
 8111W        W12311   6.949  11.397   0.864
 8112W        W12312   6.860   6.064   0.355
 8113W        W12313   0.832  11.199  10.172
 8114W        W12314   7.342   8.933  11.767
 8115W        W12315  10.469   8.873   3.461
 8116W        W12316   3.829   2.119   9.052
 8117W        W12317   4.152   1.965  10.127
 8118W        W12318   6.312   6.308   9.175
 8119W        W12319   5.172   1.151   0.852
 8120W        W12320   0.677   5.235   9.291
 8121W        W12321   8.058   5.682   1.679
 8122W        W12322   9.080   8.537  10.541
 8123W        W12323  10.902   9.106  10.260
 8124W        W12324   6.290   9.977  10.236
 8125W        W12325   8.185   6.562   8.952
 8126W        W12326   2.096   7.110   2.741
 8127W        W12327   7.086  10.570   1.489
 8128W        W12328   6.079   9.828   9.795
 8129W        W12329  10.978   4.896   1.615
 8130W        W12330   0.388   2.615  10.488
 8131W        W12331   9.997   0.770   9.951
 8132W        W12332   1.851  11.016  11.500
 8133W        W12333   0.215   4.522   9.753
 8134W        W12334   2.461   6.153   1.266
 8135W        W12335   7.499   9.708   1.329
 8136W        W12336  11.116   7.847   0.027
 8137W        W12337   4.384   8.967   8.525
 8138W        W12338   8.166   3.185  10.442
 8139W        W12339   1.228   9.970  11.271
 8140W        W12340   3.959  10.851   0.901
 8141W        W12341   6.277  10.994  10.563
 8142W        W12342   5.046   9.743  10.881
 8143W        W12343   5.134   2.618   2.311
 8144W        W12344   3.669   4.347  11.980
 8145W        W12345   2.684  11.189  10.409
 8146W        W12346   7.524   4.055  11.829
 8147W        W12347   9.048   9.524   0.878
 8148W        W12348   7.965   8.479  11.429
 8149W        W12349   2.242  10.947  10.513
 8150W        W12350   2.821   3.661   9.863
 8151W        W12351   7.445  10.782  10.736
 8152W        W12352   1.260   1.001  10.438
 8153W        W12353   6.027   3.817   0.914
 8154W        W12354   5.710   4.265   8.646
 8155W        W12355   2.930   3.027   0.933
 8156W        W12356  10.449   7.865  11.057
 8157W        W12357   1.449  10.296   0.501
 8158W        W12358   6.088   8.960   0.498
 8159W        W12359   2.688   0.787   2.162
 8160W        W12360   1.048   1.393   2.342
 8161W        W12361   5.538   1.482  10.190
 8162W        W12362   2.549  11.447   9.991
 8163W        W12363   7.252  10.524   8.954
 8164W        W12364  10.403   8.925   9.920
 8165W        W12365   1.617   9.046  10.392
 8166W        W12366   9.578   6.132   0.529
 8167W        W12367   3.606   7.018   2.839
 8168W        W12368   7.887   5.348   9.063
 8169W        W12369   8.509   1.261   9.036
 8170W        W12370  11.284   6.592  10.956
 8171W        W12371   3.649   2.835   2.195
 8172W        W12372  11.368   2.566  11.998
 8173W        W12373   3.564  10.191  10.360
 8174W        W12374  10.815   7.614   2.888
 8175W        W12375  10.245   9.672  11.252
 8176W        W12376   3.711   7.424   9.316
 8177W        W12377  11.428  10.990  10.148
 8178W        W12378   3.202   6.959  11.984
 8179W        W12379   5.539   4.464  11.696
 8180W        W12380   4.750  10.924   2.988
 8181W        W12381   4.597   6.283   0.657
 8182W        W12382   5.906   7.256   1.176
 8183W        W12383   5.672   6.689   3.617
 8184W        W12384   2.082   0.071   9.865
 8185W        W12385   3.895   5.102   1.569
 8186W        W12386   6.637   8.301   3.389
 8187W        W12387   8.909   7.798   9.458
 8188W        W12388   3.411   1.382   2.776
 8189W        W12389  10.616   5.464   9.698
 8190W        W12390   1.272   6.444   0.726
 8191W        W12391   8.120   6.596   0.495
 8192W        W12392   6.754  10.231   3.623
 8193W        W12393   3.495   8.357   3.629
 8194W        W12394   6.205   7.002  10.577
 8195W        W12395   0.187  10.860  11.173
 8196W        W12396   7.493   0.293   9.033
 8197W        W12397  11.195   2.912   0.941
 8198W        W12398   8.088   0.281   1.997
 8199W        W12399   0.332   8.469   9.822
 8200W        W12400   1.484   1.252   0.495
 8201W        W12401   7.702   8.441   0.792
 8202W        W12402   8.250   2.251   1.748
 8203W        W12403  11.116   1.358   0.942
 8204W        W12404   6.895  10.917   1.046
 8205W        W12405  11.461   0.522   3.826
 8206W        W12406   1.880   9.351  10.883
 8207W        W12407   9.946   6.512   2.218
 8208W        W12408   8.010   2.722   9.781
 8209W        W12409   2.203   9.917  10.295
 8210W        W12410   6.639   1.366  10.786
 8211W        W12411   8.692   6.600   2.641
 8212W        W12412   2.197   5.138   3.158
 8213W        W12413   8.115   8.645  10.802
 8214W        W12414   7.485   8.595   1.881
 8215W        W12415   5.171   6.236  10.962
 8216W        W12416   6.113  10.886   2.714
 8217W        W12417   5.338   6.047   1.271
 8218W        W12418   9.997   5.427  11.903
 8219W        W12419   7.114  10.579  10.381
 8220W        W12420   3.152  10.950   2.906
 8221W        W12421   4.490   3.596   9.154
 8222W        W12422   2.125  10.176   8.927
 8223W        W12423   7.238   3.315   0.925
 8224W        W12424   7.397   9.096   1.887
 8225W        W12425   2.147  11.014   9.604
 8226W        W12426   7.566   0.580   2.748
 8227W        W12427   8.946   4.546  10.167
 8228W        W12428   3.344   9.599  10.771
 8229W        W12429   7.182   5.577   1.939
 8230W        W12430   0.462   4.101   2.881
 8231W        W12431  10.339   7.612   2.721
 8232W        W12432   0.673  11.050  11.115
 8233W        W12433   2.315   2.280  10.928
 8234W        W12434   7.107   1.483   0.379
 8235W        W12435   2.206  10.770   0.367
 8236W        W12436   3.300   9.729   2.344
 8237W        W12437  11.056   7.908   1.144
 8238W        W12438   6.553   7.866  10.399
 8239W        W12439   0.085   3.790   3.606
 8240W        W12440  10.908   3.146  10.941
 8241W        W12441  10.964   0.160   9.007
 8242W        W12442   5.463   3.667  11.792
 8243W        W12443   6.230   4.162   3.465
 8244W        W12444   2.372   4.053   0.369
 8245W        W12445   2.114   2.715  11.496
 8246W        W12446  10.322   4.067   9.014
 8247W        W12447   1.370   2.707   0.134
 8248W        W12448   8.239   0.979   0.631
 8249W        W12449   7.944   4.103   9.531
 8250W        W12450   5.786   7.579   4.052
 8251W        W12451   8.072   4.730   9.902
 8252W        W12452   4.128   5.219  10.533
 8253W        W12453   1.151   4.464   1.820
 8254W        W12454  11.391  10.069  10.623
 8255W        W12455  11.221   6.287  11.375
 8256W        W12456   7.068   6.310   4.210
 8257W        W12457   5.015   4.713   0.209
 8258W        W12458   9.975   9.240  11.985
 8259W        W12459   0.916   3.671   3.408
 8260W        W12460   5.243   4.549   8.644
 8261W        W12461  11.482   3.516   0.393
 8262W        W12462   1.403  11.477   1.815
 8263W        W12463   1.318  11.108   2.190
 8264W        W12464   9.562   6.776  10.368
 8265W        W12465   5.623   6.518   9.881
 8266W        W12466   3.377   7.133   1.492
 8267W        W12467   1.313   5.973   9.182
 8268W        W12468   1.303   9.923   0.799
 8269W        W12469   0.400   0.016   2.327
 8270W        W12470   6.466   2.036  10.249
 8271W        W12471  10.274  10.536  10.264
 8272W        W12472   7.939   0.974  10.730
 8273W        W12473   6.617   7.817   9.111
 8274W        W12474   1.743   7.279   3.486
 8275W        W12475   4.072  10.750   0.049
 8276W        W12476   8.554  10.739   1.342
 8277W        W12477   6.590   5.722   0.029
 8278W        W12478   6.769   7.076   0.661
 8279W        W12479   6.652   3.277  10.535
 8280W        W12480   7.932   6.408   0.915
 8281W        W12481  10.075   5.870   3.392
 8282W        W12482   4.597  10.002  10.022
 8283W        W12483   9.413  10.654   1.216
 8284W        W12484   9.064   4.273   2.621
 8285W        W12485   8.959   5.568   2.139
 8286W        W12486   9.961   6.805   3.182
 8287W        W12487  11.078   0.946  11.753
 8288W        W12488   3.798   4.420  10.246
 8289W        W12489   9.245   5.809   0.201
 8290W        W12490   5.440   6.225   1.731
 8291W        W12491  11.409   7.323   2.978
 8292W        W12492  10.405   9.408   2.646
 8293W        W12493   6.532   8.307   1.168
 8294W        W12494   9.753   7.266  10.402
 8295W        W12495   4.318   7.204   2.354
 8296W        W12496  11.119   6.348   8.386
 8297W        W12497   4.133   4.842   8.597
 8298W        W12498  11.119   3.110   0.487
 8299W        W12499   1.581   6.686   0.382
 8300W        W12500   8.123   9.392   0.524
 8301W        W12501   8.045   9.948   2.210
 8302W        W12502   4.749  10.804   0.305
 8303W        W12503   8.694   8.857   9.813
 8304W        W12504   3.796  10.401   0.351
 8305W        W12505   9.579   8.893   2.708
 8306W        W12506   6.097   3.776   2.670
 8307W        W12507   0.706  10.267   9.165
 8308W        W12508   1.802   6.550   1.783
 8309W        W12509   0.003   5.075   1.645
 8310W        W12510   3.941   9.367   9.883
 8311W        W12511   1.670  11.286  11.084
 8312W        W12512   3.526   5.611   2.371
 8313W        W12513   2.159   0.196   3.490
 8314W        W12514   9.437   9.236  11.256
 8315W        W12515   6.410   1.684   2.042
 8316W        W12516  10.464   5.523   3.546
 8317W        W12517   1.945   3.138  10.487
 8318W        W12518   1.763   0.024   2.747
 8319W        W12519   6.902   8.243  10.217
 8320W        W12520   9.287   9.268   0.139
 8321W        W12521   2.477   7.970  10.370
 8322W        W12522   2.344   1.870   1.498
 8323W        W12523   4.815   8.006   2.872
 8324W        W12524  11.450  10.054   0.144
 8325W        W12525   7.672   5.172   1.814
 8326W        W12526   2.624   0.694  10.501
 8327W        W12527   3.425   6.474   9.061
 8328W        W12528   5.766  11.127   3.463
 8329W        W12529   4.645   9.814   2.487
 8330W        W12530   2.155   3.273  11.883
 8331W        W12531   3.856   7.131   9.745
 8332W        W12532   3.781   7.419  11.102
 8333W        W12533   7.725   8.468  10.495
 8334W        W12534   0.124   7.798   0.177
 8335W        W12535   1.613   5.687   2.651
 8336W        W12536  10.373   4.733   9.346
 8337W        W12537   6.121   1.216   3.338
 8338W        W12538   1.808   9.137  11.360
 8339W        W12539   8.554   2.724   0.528
 8340W        W12540   3.883  10.291   9.941
 8341W        W12541   9.056   9.974   0.571
 8342W        W12542   2.297   3.229  10.144
 8343W        W12543   8.612   0.051   0.863
 8344W        W12544   7.782   7.928  10.754
 8345W        W12545   1.592   9.798   1.517
 8346W        W12546  10.365   4.576   3.410
 8347W        W12547   6.146   9.068   3.244
 8348W        W12548   7.965  10.028   1.258
 8349W        W12549   8.857   5.472   0.110
 8350W        W12550  11.026   6.195   1.988
 8351W        W12551  11.318   7.699   0.590
 8352W        W12552   5.526   3.690  10.133
 8353W        W12553   8.447   2.177  10.768
 8354W        W12554   3.163   4.803   1.582
 8355W        W12555   1.482   4.758  11.072
 8356W        W12556   3.101   7.096   2.827
 8357W        W12557  10.831   6.345  10.730
 8358W        W12558   3.170  10.559   3.561
 8359W        W12559   6.250   9.974   1.701
 8360W        W12560   1.814   1.399  11.388
 8361W        W12561  10.895   6.594   8.818
 8362W        W12562   6.931   4.656   3.167
 8363W        W12563  10.343   8.314   1.223
 8364W        W12564   2.349   1.146   0.494
 8365W        W12565   0.561   2.441   2.356
 8366W        W12566   6.647   2.862  11.579
 8367W        W12567  10.804   2.893   3.677
 8368W        W12568   2.617   9.862   9.875
 8369W        W12569   2.236   0.515  11.795
 8370W        W12570   7.794   8.147   1.425
 8371W        W12571   0.283   1.305   1.716
 8372W        W12572  11.046  10.428   9.514
 8373W        W12573   5.495   6.140   9.516
 8374W        W12574   3.542   2.204   3.280
 8375W        W12575   0.472   7.080   1.711
 8376W        W12576   3.889   1.506   0.390
 8377W        W12577   5.560   7.814   9.534
 8378W        W12578   9.095   7.729   1.213
 8379W        W12579   7.484   8.693   0.384
 8380W        W12580  10.436  10.418   1.669
 8381W        W12581   4.181   8.596   3.086
 8382W        W12582   4.331   9.037   3.342
 8383W        W12583   8.621   8.315   2.993
 8384W        W12584   5.567   0.326   1.391
 8385W        W12585  11.092   3.396   2.965
 8386W        W12586   5.817  10.562  11.766
 8387W        W12587   4.534   4.869   0.095
 8388W        W12588   1.706   4.847   3.185
 8389W        W12589   8.079   1.833   9.445
 8390W        W12590   9.843   3.432   3.148
 8391W        W12591   7.877   1.762   1.018
 8392W        W12592  11.346  11.030  11.564
 8393W        W12593   5.176   6.498   0.176
 8394W        W12594   2.187  11.475   9.377
 8395W        W12595   0.649  11.084   0.268
 8396W        W12596   5.182   1.847   1.335
 8397W        W12597   6.460   5.050  10.958
 8398W        W12598   3.138   4.305   1.338
 8399W        W12599   1.782   9.947   2.813
 8400W        W12600   4.669   8.234   3.680
 8401W        W12601   6.991   8.871   0.111
 8402W        W12602   5.073   1.915   9.313
 8403W        W12603   2.019  11.071   8.595
 8404W        W12604   7.429   3.282   1.578
 8405W        W12605   0.241   1.071   0.896
 8406W        W12606   1.012  10.998  11.487
 8407W        W12607   4.465  11.073  11.927
 8408W        W12608   1.137  10.051   8.921
 8409W        W12609   5.614   9.818  11.435
 8410W        W12610   5.226   0.421   2.741
 8411W        W12611   3.283   3.267  11.066
 8412W        W12612  10.076   6.028   2.111
 8413W        W12613   0.487  10.557   0.087
 8414W        W12614   2.148   4.595   3.184
 8415W        W12615   3.381   2.418  11.487
 8416W        W12616   4.284   2.181   1.229
 8417W        W12617   5.838   8.660  11.864
 8418W        W12618   6.031   0.323  11.284
 8419W        W12619   4.154   0.241   2.807
 8420W        W12620   0.798   4.519   0.324
 8421W        W12621   9.931   8.583   1.059
 8422W        W12622   6.030   0.832  11.068
 8423W        W12623   5.214   0.557   9.248
 8424W        W12624   8.996   2.517  11.958
 8425W        W12625   7.752   6.160  10.230
 8426W        W12626   2.087   5.076   9.538
 8427W        W12627   2.440   0.357  10.849
 8428W        W12628   9.992   5.369   3.413
 8429W        W12629   5.134   9.139   9.420
 8430W        W12630   4.374   7.193   1.459
 8431W        W12631   8.464   0.265   0.399
 8432W        W12632   0.881  10.214  10.964
 8433W        W12633   2.078   9.483   0.771
 8434W        W12634   4.839   3.833  10.496
 8435W        W12635   3.534   5.241   0.874
 8436W        W12636   1.201   3.126   2.293
 8437W        W12637   7.295   0.550   1.381
 8438W        W12638   0.285   3.934   1.518
 8439W        W12639   8.851   2.249   9.910
 8440W        W12640   0.164  10.973   0.440
 8441W        W12641   9.476   9.850   9.896
 8442W        W12642  10.402   6.176  11.653
 8443W        W12643   1.298   6.480   9.265
 8444W        W12644   8.829   4.082  10.399
 8445W        W12645   7.966   7.505   0.285
 8446W        W12646   0.725   2.785  11.454
 8447W        W12647   6.295   7.609   4.083
 8448W        W12648   0.481   4.818   8.950
 8449W        W12649   4.939   0.440   2.298
 8450W        W12650   6.994  10.254  10.009
 8451W        W12651   3.894   8.827   3.512
 8452W        W12652   4.541   8.915  11.421
 8453W        W12653   4.583   2.345   2.153
 8454W        W12654   0.572   4.297   1.228
 8455W        W12655   3.744   7.132   8.884
 8456W        W12656   0.359   6.467  10.190
 8457W        W12657   0.270   0.875   9.721
 8458W        W12658   5.783   8.128  11.997
 8459W        W12659   5.647   9.269  10.807
 8460W        W12660   1.900   1.078   0.224
 8461W        W12661   2.808   4.671   9.148
 8462W        W12662  10.737   7.151   2.229
 8463W        W12663  10.376   7.139   0.738
 8464W        W12664  10.617   1.341   1.072
 8465W        W12665   6.164   0.376   0.654
 8466W        W12666  11.431   8.161   2.618
 8467W        W12667   2.569   1.587   9.015
 8468W        W12668   4.401   6.602  10.447
 8469W        W12669   8.587  10.244  10.566
 8470W        W12670   3.321   0.305   9.605
 8471W        W12671   3.205   3.658  10.353
 8472W        W12672   7.102   6.048   0.854
 8473W        W12673   7.055   7.585   8.971
 8474W        W12674   8.145   1.843  10.492
 8475W        W12675  11.404   4.122   1.876
 8476W        W12676   4.788   1.907  11.679
 8477W        W12677   6.985   5.731  10.437
 8478W        W12678   6.043   9.589  10.653
 8479W        W12679   5.107   7.808   9.803
 8480W        W12680   3.818   3.631   9.745
 8481W        W12681   1.020   8.937   1.541
 8482W        W12682   5.174   8.701   0.597
 8483W        W12683   7.972   7.051   2.053
 8484W        W12684   9.147   5.190   0.461
 8485W        W12685   4.769  10.362   9.662
 8486W        W12686   8.382   5.514  10.318
 8487W        W12687   2.641  10.892   0.603
 8488W        W12688   9.371   0.834   1.256
 8489W        W12689   9.782   2.651   9.090
 8490W        W12690  10.850   3.009   9.920
 8491W        W12691  11.373   0.562  11.261
 8492W        W12692   2.781   1.024  11.430
 8493W        W12693   2.231   2.153   3.418
 8494W        W12694   9.464   1.464  10.100
 8495W        W12695   5.928   1.816  10.202
 8496W        W12696   4.496   7.598   2.711
 8497W        W12697   5.433   6.095   2.776
 8498W        W12698   4.777   8.517   2.849
 8499W        W12699   4.225   2.915   1.913
 8500W        W12700   6.069  10.962   0.688
 8501W        W12701   7.899   4.191  10.587
 8502W        W12702   4.287  11.066   0.410
 8503W        W12703   5.181  11.427  11.110
 8504W        W12704   7.233   9.248   9.936
 8505W        W12705   9.382   6.173  11.538
 8506W        W12706  10.673   3.892   3.617
 8507W        W12707   3.950   8.005  10.502
 8508W        W12708   6.786  10.776  10.783
 8509W        W12709   4.898  10.095   0.958
 8510W        W12710   1.653   0.890   3.479
 8511W        W12711   7.085  10.483   9.448
 8512W        W12712   9.894  10.760   8.985
 8513W        W12713   2.135   0.184   2.436
 8514W        W12714   2.387   6.116  11.334
 8515W        W12715   4.162   1.714   9.146
 8516W        W12716  10.471   4.318  11.015
 8517W        W12717   9.777   0.405   1.284
 8518W        W12718   0.918   4.984   0.513
 8519W        W12719   1.316   5.309   9.923
 8520W        W12720   8.479   5.802   0.817
 8521W        W12721   1.163   8.153  11.305
 8522W        W12722   0.215   3.460  11.943
 8523W        W12723   2.729   3.857   0.671
 8524W        W12724   2.617   5.094   9.423
 8525W        W12725   9.877   5.700   0.744
 8526W        W12726   8.577   8.280   1.034
 8527W        W12727   5.967   9.328   8.519
 8528W        W12728   9.610   3.142  10.535
 8529W        W12729   6.335   2.100   1.738
 8530W        W12730   5.830   9.858   1.464
 8531W        W12731   7.134   9.881   2.177
 8532W        W12732   4.662  11.262   9.617
 8533W        W12733   5.695   8.332   9.481
 8534W        W12734   5.661   5.805   1.996
 8535ION    NA+12735   2.770   6.692  11.887
 8536ION    NA+12736   4.189   1.064   2.052
 8537ION    NA+12737   1.104  10.568   3.375
 8538ION    NA+12738   6.811   0.883   1.363
 8539ION    NA+12739   7.205   3.417   9.471
 8540ION    NA+12740  10.160   9.489   3.534
 8541ION    NA+12741  11.456   2.013  11.409
 8542ION    NA+12742   5.639   4.061   0.652
 8543ION    NA+12743  11.244   7.137   9.649
 8544ION    NA+12744   8.226   4.617   9.421
 8545ION    NA+12745   6.821   6.440  10.905
 8546ION    NA+12746   7.750   2.280   1.666
 8547ION    NA+12747   8.054   4.976   0.991
 8548ION    NA+12748   8.127   2.305   3.247
 8549ION    NA+12749   1.827  10.997   0.993
 8550ION    NA+12750   0.906   9.292  11.895
 8551ION    NA+12751   7.854   6.236  11.513
 8552ION    NA+12752   5.357   1.589   3.221
 8553ION    NA+12753   3.999  10.454  10.453
 8554ION    NA+12754   1.842   3.117   9.929
 8555ION    NA+12755   9.851   4.721   2.293
 8556ION    NA+12756   0.848   8.667   0.820
 8557ION    NA+12757   6.322   7.423  11.916
 8558ION    NA+12758   8.046   3.414   3.135
 8559ION    NA+12759   8.872   6.309  10.667
 8560ION    NA+12760   9.745   7.748   0.947
 8561ION    NA+12761   6.353  11.002   3.165
 8562ION    NA+12762   8.241   2.289   0.402
 8563ION    NA+12763   0.928   2.811   9.660
 8564ION    NA+12764   2.116   0.626   0.298
 8565ION    NA+12765   3.401   2.837  11.795
 8566ION    NA+12766   6.476   7.723   1.932
 8567ION    NA+12767   3.205   4.902   8.259
 8568ION    NA+12768   4.668  11.148   2.545
 8569ION    NA+12769   5.699  10.290   1.214
 8570ION    NA+12770   3.168   4.709  10.832
 8571ION    NA+12771  10.439   0.484  11.508
 8572ION    NA+12772   7.249   7.699   3.008
 8573ION    NA+12773   7.639   3.767   0.261
 8574ION    NA+12774  10.238   7.442  11.969
 8575ION    NA+12775   3.695  10.011   2.153
 8576ION    NA+12776   3.222   1.126  10.180
 8577ION    NA+12777   1.462   7.671  10.010
 8578ION    NA+12778   1.505   8.743   8.848
 8579ION    NA+12779   3.130   9.436  11.812
 8580ION    NA+12780   8.909   0.154   1.306
 8581ION    NA+12781   0.537   5.234   9.805
 8582ION    NA+12782   5.616   7.077   2.447
 8583ION    NA+12783   2.918   3.857   9.394
 8584ION    NA+12784   7.022   5.617   0.555
 8585ION    NA+12785   3.497  11.424   1.731
 8586ION    NA+12786   0.917  10.808   2.304
 8587ION    NA+12787   4.811   6.539   1.926
 8588ION    NA+12788   1.033   6.278   3.111
 8589ION    NA+12789   9.774   2.152   8.912
 8590ION    NA+12790   6.687   7.006   3.186
 8591ION    NA+12791   9.174  10.352   1.845
 8592ION    NA+12792   1.501   4.161   0.736
 8593ION    NA+12793   1.666   4.364   1.880
 8594ION    NA+12794   3.363   6.205   3.332
 8595ION    NA+12795   9.636   7.692   3.486
 8596ION    NA+12796   5.763   8.028  11.478
 8597ION    NA+12797   1.164   6.004   9.684
 8598ION    NA+12798   8.455   3.644   2.213
 8599ION    NA+12799   9.824   2.337   3.785
 8600ION    NA+12800   7.405   1.743   0.048
 8601ION    NA+12801   8.533   8.371   2.484
 8602ION    NA+12802   0.001  11.056   3.291
 8603ION    NA+12803   6.732   7.409   4.234
 8604ION    NA+12804   5.321  11.289  11.576
 8605ION    NA+12805   6.041   2.551   2.613
 8606ION    NA+12806   8.296   8.536   9.815
 8607ION    NA+12807   7.339   8.848   1.447
 8608ION    NA+12808   4.740  10.209   2.211
 8609ION    NA+12809   4.268   5.812   2.006
 8610ION    NA+12810   0.033   8.008   1.905
 8611ION    NA+12811   4.157  10.050   1.250
 8612ION    NA+12812   8.140   0.942   9.768
 8613ION    NA+12813   4.361   5.913   0.385
 8614ION    NA+12814  10.089   0.427   0.868
 8615ION    NA+12815   9.728   7.866   9.017
 8616ION    NA+12816   6.009   3.907   1.845
 8617ION    NA+12817   7.342   9.363  10.814
 8618ION    NA+12818   5.914   3.235   3.348
 8619ION    NA+12819   1.764   1.156   1.368
 8620ION    NA+12820   7.660   2.845   8.610
 8621ION    NA+12821   6.191   8.475   9.495
 8622ION    NA+12822   0.656   4.674   1.616
 8623ION    NA+12823   3.180   6.608   8.593
 8624ION    NA+12824   4.135   6.805   0.255
 8625ION    CL-12825   5.534   1.684   2.117
 8626ION    CL-12826   0.207   7.858  11.291
 8627ION    CL-12827  11.331   4.324   8.638
 8628ION    CL-12828   2.113   8.491   2.302
 8629ION    CL-12829   6.903   7.847   1.985
 8630ION    CL-12830   4.690   8.962   1.504
 8631ION    CL-12831   8.196   3.597  11.385
 8632ION    CL-12832   0.142   7.828   2.297
 8633ION    CL-12833   9.183   5.900   3.538
 8634ION    CL-12834   0.274   0.876   0.213
 8635ION    CL-12835   7.452  11.478   0.820
 8636ION    CL-12836   3.314  11.357   1.330
 8637ION    CL-12837   6.940   3.145   9.706
 8638ION    CL-12838   5.040   0.530   1.392
 8639ION    CL-12839  11.479  11.430   3.031
 8640ION    CL-12840   4.773   1.188  11.020
 8641ION    CL-12841   5.809   9.933   0.953
 8642ION    CL-12842  11.136   7.352   9.271
 8643ION    CL-12843   0.259   4.455   1.621
 8644ION    CL-12844   6.044   7.764  11.747
 8645ION    CL-12845  10.610  10.936  10.116
 8646ION    CL-12846   3.576  11.338  11.979
 8647ION    CL-12847   7.220   1.049   1.435
 8648ION    CL-12848   9.117   1.566   3.537
 8649ION    CL-12849   3.226  11.153   9.137
 8650ION    CL-12850   0.980  10.354   9.595
 8651ION    CL-12851   3.301   3.002   3.298
 8652ION    CL-12852   6.952   7.363   3.091
 8653ION    CL-12853   6.703   2.782  10.607
 8654ION    CL-12854  11.468   3.554   1.301
 8655ION    CL-12855   2.362   0.435  10.134
 8656ION    CL-12856   9.465  10.646  10.370
 8657ION    CL-12857   1.014   7.916   3.383
 8658ION    CL-12858   6.363   7.196   4.396
 8659ION    CL-12859   8.473   4.962   3.634
 8660ION    CL-12860   5.384   2.857   8.548
 8661ION    CL-12861   8.209   6.499   2.763
 8662ION    CL-12862   6.994   9.500   2.504
 8663ION    CL-12863   5.188   3.391   2.744
 8664ION    CL-12864  11.205   3.559  11.930
 8665ION    CL-12865  10.533   3.211   1.396
 8666ION    CL-12866   7.551   7.314   9.654
 8667ION    CL-12867   1.015   1.522   0.397
 8668ION    CL-12868   3.338   1.551  10.106
 8669ION    CL-12869  10.882   3.605  10.115
 8670ION    CL-12870   1.349   1.235   9.654
 8671ION    CL-12871  11.442   5.495   2.335
 8672ION    CL-12872   2.658   6.830   9.969
 8673ION    CL-12873   6.904   9.416  10.756
 8674ION    CL-12874   8.316   4.609   0.960
 8675ION    CL-12875   4.254   8.745  11.013
 8676ION    CL-12876   5.295   3.769   0.667
 8677ION    CL-12877   0.224   5.263  10.124
 8678ION    CL-12878   5.814   4.174   2.147
 8679ION    CL-12879   9.111   9.563   3.546
 8680ION    CL-12880  10.970   5.537   8.105
 8681ION    CL-12881   3.031   7.757   9.904
 8682ION    CL-12882   5.320   1.183  11.963
 8683ION    CL-12883   9.903   6.685   1.199
 8684ION    CL-12884   9.198   7.177   2.915
 8685ION    CL-12885   4.088   7.261   0.296
 8686ION    CL-12886   9.315   6.384  10.663
 8687ION    CL-12887   0.703   4.611   2.916
 8688ION    CL-12888  10.423  10.454   1.143
 8689ION    CL-12889   7.132  10.114   1.283
 8690ION    CL-12890   5.310   3.694   9.627
 8691ION    CL-12891   4.531   6.186   2.006
 8692ION    CL-12892   4.234   6.348   0.302
 8693ION    CL-12893  10.883   0.872   8.497
 8694ION    CL-12894   5.540   8.317  11.197
 8695ION    CL-12895   5.326   3.112  11.552
 8696ION    CL-12896   4.457   3.062   8.859
 8697ION    CL-12897   9.964   7.464  11.617
 8698ION    CL-12898   0.755   5.985   3.361
 8699ION    CL-12899  10.117   3.123   2.775
 8700ION    CL-12900   9.341   7.817   0.765
 8701ION    CL-12901   7.485   1.760  11.608
 8702ION    CL-12902   2.740   5.642   2.085
 8703ION    CL-12903   5.674  10.703   1.406
 8704ION    CL-12904   1.245   2.302   1.851
 8705ION    CL-12905   1.159  11.273  11.042
 8706ION    CL-12906   4.886   1.932   9.813
 8707ION    CL-12907   8.069  11.281   1.854
 8708ION    CL-12908   1.409   9.436   2.698
 8709ION    CL-12909   6.629   7.109   0.036
 8710ION    CL-12910   1.750  10.750  10.344
 8711ION    CL-12911   0.862   4.989   1.352
 8712ION    CL-12912   6.044   9.558  11.556
 8713ION    CL-12913   5.177  10.190   8.711
 8714ION    CL-12914   9.525  10.320   1.570
  11.50000  11.50000  12.00000
