Protein in INSANE! Membrane UpperLeaflet>POPC=1.0 LowerLeaflet>POPC=1.0
11530
    1AU     AUC    1   4.866   1.470   5.190 -0.0487  0.0213  0.0608
    1AU     AUC    2   4.916   1.167   5.027  0.0643 -0.0601 -0.0124
    1AU     AUC    3   5.170   1.410   5.123  0.0242  0.0040 -0.0014
    1AU     AUC    4   4.522   1.551   5.210 -0.0079 -0.0495  0.0705
    1AU     AUC    5   4.788   1.782   5.241 -0.0056 -0.0037  0.0653
    1AU     AUC    6   4.732   1.691   4.974 -0.0678 -0.0716  0.0860
    1AU     AUC    7   4.943   1.455   4.882  0.0143  0.0282 -0.0354
    1AU     AUC    8   4.730   1.531   5.473 -0.0845  0.0434  0.0126
    1AU     AUC    9   5.006   1.272   5.327  0.0426 -0.0533  0.0258
    1AU     AUC   10   5.091   1.598   5.337  0.0050 -0.0444 -0.0796
    1AU     AUC   11   5.050   1.733   5.037  0.0137 -0.0045 -0.0622
    1AU     AUC   12   4.682   1.239   5.275  0.0874  0.1338  0.0157
    1AU     AUC   13   4.650   1.341   4.974  0.0028 -0.0423  0.0108
    1AU     AUC   14   5.005   0.851   4.945  0.0337 -0.0155  0.0101
    1AU     AUC   15   5.270   1.017   4.973  0.0115  0.0404  0.1128
    1AU     AUC   16   5.509   1.333   5.060 -0.0775 -0.0404  0.1114
    1AU     AUC   17   4.207   1.667   5.247 -0.0740  0.0093  0.0785
    1AU     AUC   18   4.455   1.931   5.300  0.0601  0.0248  0.0743
    1AU     AUC   19   4.731   2.102   5.341  0.0429 -0.0248 -0.0812
    1AU     AUC   20   4.626   1.911   4.721  0.0631  0.0349 -0.0364
    1AU     AUC   21   4.798   1.668   4.585  0.1003 -0.0364 -0.0746
    1AU     AUC   22   4.983   1.407   4.524  0.0553 -0.0204  0.1462
    1AU     AUC   23   4.618   1.547   5.788 -0.0328  0.0012  0.0163
    1AU     AUC   24   4.906   1.322   5.721  0.0709 -0.1159  0.0152
    1AU     AUC   25   5.111   1.081   5.596  0.0583  0.0221  0.0357
    1AU     AUC   26   5.318   1.712   5.599  0.1086 -0.0355 -0.0410
    1AU     AUC   27   5.308   1.862   5.281 -0.0331  0.0157  0.0282
    1AU     AUC   28   5.261   1.943   4.931  0.0001  0.0558 -0.0367
    1AU     AUC   29   4.477   1.002   5.400 -0.0515  0.0480  0.0273
    1AU     AUC   30   4.431   1.071   5.076 -0.0621 -0.0249 -0.0285
    1AU     AUC   31   4.394   1.182   4.753 -0.0037 -0.0830 -0.0127
    1AU     AUC   32   5.443   1.505   5.348  0.0191  0.0675 -0.0241
    1AU     AUC   33   5.439   1.648   5.001  0.0184  0.0313  0.0353
    1AU     AUC   34   4.705   0.886   5.218  0.0392 -0.0294 -0.0159
    1AU     AUC   35   4.714   0.966   4.849 -0.0254  0.0041  0.0409
    1AU     AUC   36   5.013   1.924   5.510  0.0447 -0.0028  0.1115
    1AU     AUC   37   5.010   2.054   5.145  0.0128 -0.0180  0.0418
    1AU     AUC   38   4.299   1.321   5.304  0.0280 -0.0304  0.0225
    1AU     AUC   39   4.269   1.437   5.004  0.0556  0.0216 -0.0514
    1AU     AUC   40   5.036   1.128   4.713 -0.0405  0.0536  0.0084
    1AU     AUC   41   5.279   1.378   4.794  0.0155  0.1244 -0.0206
    1AU     AUC   42   4.372   1.816   4.986 -0.0962 -0.0326 -0.0136
    1AU     AUC   43   4.665   2.060   5.005  0.0965  0.0095  0.0180
    1AU     AUC   44   5.083   0.947   5.288 -0.0315  0.0059 -0.0013
    1AU     AUC   45   5.324   1.164   5.305  0.0675  0.0668 -0.0525
    1AU     AUC   46   4.377   1.639   5.535  0.0038 -0.0054  0.0942
    1AU     AUC   47   4.649   1.838   5.577 -0.0732 -0.0108  0.0368
    1AU     AUC   48   4.922   1.954   4.791  0.0497 -0.0342  0.0239
    1AU     AUC   49   5.134   1.709   4.704 -0.0534 -0.0128 -0.0483
    1AU     AUC   50   4.952   1.605   5.720 -0.0883  0.0877  0.0596
    1AU     AUC   51   5.250   1.360   5.641 -0.0266 -0.0234 -0.1094
    1AU     AUC   52   4.488   1.537   4.740  0.0263  0.0281 -0.0231
    1AU     AUC   53   4.693   1.245   4.615 -0.0685  0.0240 -0.0473
    1AU     AUC   54   4.488   1.324   5.623 -0.0840  0.0196  0.0237
    1AU     AUC   55   4.764   1.037   5.544  0.0691  0.0090 -0.0718
    1AU    AUSL   56   5.815   1.593   5.221 -0.0711  0.0493 -0.0246
    1AU    AUSL   57   5.717   1.437   5.667  0.0768 -0.0534  0.0549
    1AU     AUL   58   6.018   1.348   5.437  0.0382 -0.0195  0.0170
    1AU       S   59   5.858   1.106   5.839 -0.0740 -0.1063  0.1069
    1AU     LIG   60   6.264   0.997   5.603 -0.1803 -0.1479 -0.0605
    1AU     LIG   61   6.647   1.046   5.593  0.0544 -0.3801  0.2971
    1AU       S   62   6.037   1.801   5.499 -0.1010  0.0170  0.1178
    1AU     LIG   63   6.450   1.950   5.678 -0.3241 -0.0610 -0.1275
    1AU     LIG   64   6.781   2.205   5.738  0.0426 -0.2555  0.3703
    1AU    AUSL   65   5.529   1.796   5.478  0.0613  0.0589 -0.0690
    1AU    AUSL   66   5.440   2.200   5.270  0.0752 -0.0593 -0.0713
    1AU     AUL   67   5.737   2.168   5.371  0.0722 -0.0598 -0.0872
    1AU       S   68   5.748   1.899   5.753  0.4226  0.0725  0.0899
    1AU     LIG   69   6.121   2.038   6.035  0.0823  0.2340 -0.3401
    1AU     LIG   70   6.469   2.226   6.127  0.0591 -0.3778 -0.0943
    1AU       S   71   5.396   2.601   5.884  0.2456 -0.1689  0.0444
    1AU     LIG   72   5.552   3.008   5.831 -0.0498 -0.4129 -0.0751
    1AU     LIG   73   5.724   3.404   5.633  0.0080  0.0948 -0.2225
    1AU    AUSL   74   5.490   1.845   5.036  0.0835 -0.0867  0.0521
    1AU    AUSL   75   5.710   1.541   4.783 -0.0568 -0.0247  0.0452
    1AU     AUL   76   5.852   1.814   5.046 -0.0747 -0.1111  0.1125
    1AU       S   77   5.738   2.247   4.915 -0.3191  0.0154  0.1697
    1AU     LIG   78   6.119   2.264   5.092 -0.1415 -0.3469  0.1933
    1AU     LIG   79   6.212   2.356   5.493  0.4806 -0.4758  0.0919
    1AU       S   80   5.972   1.561   4.670  0.4356  0.5363 -0.1581
    1AU     LIG   81   6.294   1.484   5.063 -0.0244  0.3531  0.2895
    1AU     LIG   82   6.497   1.449   5.383  0.2403 -0.2497 -0.1102
    1AU    AUSL   83   4.682   0.600   4.895 -0.1110  0.1206  0.0271
    1AU    AUSL   84   4.561   0.860   4.464  0.0143  0.0034 -0.0555
    1AU     AUL   85   4.466   0.496   4.613 -0.0277  0.0863  0.0639
    1AU       S   86   4.348   0.234   5.051 -0.2440 -0.1101  0.1051
    1AU     LIG   87   4.614  -0.002   5.227 -0.2513 -0.0159  0.0394
    1AU     LIG   88   4.511  -0.243   5.492 -0.1289 -0.1777  0.0239
    1AU       S   89   4.783   0.600   4.275  0.2590 -0.3814 -0.2864
    1AU     LIG   90   4.445   0.709   3.949  0.0826  0.2462 -0.0059
    1AU     LIG   91   4.025   0.607   3.844 -0.0610 -0.2194 -0.0140
    1AU    AUSL   92   4.451   0.691   5.230  0.0736  0.0658 -0.0233
    1AU    AUSL   93   4.927   0.773   5.227  0.0472  0.0526 -0.0264
    1AU     AUL   94   4.759   0.429   5.165  0.0345 -0.0352 -0.0163
    1AU       S   95   4.821   0.200   5.637 -0.0676 -0.0511 -0.2098
    1AU     LIG   96   5.297   0.107   5.625 -0.2276  0.0024  0.3402
    1AU     LIG   97   5.545  -0.205   5.814 -0.0672  0.0105 -0.0245
    1AU       S   98   4.318   0.408   5.338  0.2094 -0.0491 -0.1077
    1AU     LIG   99   4.172   0.033   5.663 -0.1187 -0.0445  0.2827
    1AU     LIG  100   4.040  -0.349   5.675  0.2424 -0.2749  0.0038
    1AU    AUSL  101   4.424   0.967   4.878 -0.0240  0.0103  0.0279
    1AU    AUSL  102   4.113   0.928   5.228  0.0827 -0.0037 -0.0110
    1AU     AUL  103   4.182   0.682   4.968  0.0072  0.0752 -0.0302
    1AU       S  104   3.761   0.885   5.168 -0.0685  0.2278  0.0691
    1AU     LIG  105   3.836   0.588   5.488 -0.2146  0.3454  0.0473
    1AU     LIG  106   3.701   0.146   5.551  0.1829  0.0051 -0.1139
    1AU       S  107   4.166   0.256   5.188  0.3003 -0.0839  0.0887
    1AU     LIG  108   3.918  -0.142   5.221  0.1557 -0.2871 -0.0485
    1AU     LIG  109   3.532  -0.500   5.316  0.2647  0.2169 -0.1402
    1AU    AUSL  110   5.020   2.175   5.400 -0.0778 -0.0887 -0.0515
    1AU    AUSL  111   5.140   2.191   4.952  0.0790  0.0432 -0.0469
    1AU     AUL  112   5.258   2.449   5.209  0.0423 -0.0347  0.0640
    1AU       S  113   5.427   2.551   5.638 -0.2935 -0.2003 -0.1185
    1AU     LIG  114   5.744   2.650   5.511 -0.1120  0.0180 -0.4616
    1AU     LIG  115   6.155   2.724   5.175  0.2529 -0.1286  0.3104
    1AU       S  116   4.955   2.698   4.841 -0.1027  0.2266  0.0079
    1AU     LIG  117   5.277   2.930   4.864 -0.1201 -0.5011  0.1390
    1AU     LIG  118   5.664   2.729   4.988  0.0579 -0.2177  0.1188
    1AU    AUSL  119   5.323   2.123   5.700 -0.1211  0.1382  0.0477
    1AU    AUSL  120   4.877   2.202   5.803  0.0556 -0.0171  0.0647
    1AU     AUL  121   4.967   2.420   5.621  0.0510  0.0340  0.0222
    1AU       S  122   4.981   2.253   6.090  0.1609 -0.4107  0.2122
    1AU     LIG  123   4.842   2.693   5.991  0.0732 -0.1384  0.1026
    1AU     LIG  124   5.005   3.040   5.852  0.2765 -0.2694  0.1050
    1AU       S  125   5.405   2.314   5.775  0.0972  0.0653 -0.3450
    1AU     LIG  126   5.859   2.388   5.900 -0.1397 -0.0311 -0.0400
    1AU     LIG  127   6.172   2.618   6.026  0.0459  0.2784  0.2037
    1AU    AUSL  128   3.984   1.318   5.168 -0.0691 -0.1168 -0.0582
    1AU    AUSL  129   4.284   1.208   5.506 -0.0283 -0.0632  0.0980
    1AU     AUL  130   3.958   1.099   5.532 -0.0227 -0.0663  0.0109
    1AU       S  131   3.538   1.167   5.282 -0.1242  0.2504 -0.1942
    1AU     LIG  132   3.142   1.297   5.535  0.2721  0.2473 -0.2019
    1AU     LIG  133   2.731   1.341   5.727  0.1800  0.1806 -0.1584
    1AU       S  134   3.653   1.404   5.832  0.1783 -0.1872 -0.0063
    1AU     LIG  135   3.476   1.114   6.112  0.0618 -0.0227  0.0918
    1AU     LIG  136   3.425   0.727   6.197  0.1311 -0.0966  0.2198
    1AU    AUSL  137   4.023   1.090   4.783  0.0624 -0.0280  0.0449
    1AU    AUSL  138   3.925   1.693   4.952 -0.0026 -0.0827 -0.0243
    1AU     AUL  139   3.774   1.328   4.896  0.0033  0.0132  0.0650
    1AU       S  140   3.667   1.790   4.793 -0.0206 -0.0355 -0.2056
    1AU     LIG  141   3.565   2.222   4.873  0.0965 -0.0063  0.6461
    1AU     LIG  142   3.599   2.581   5.231 -0.0976 -0.2217  0.4800
    1AU       S  143   3.584   0.878   5.138  0.0435  0.2292  0.0789
    1AU     LIG  144   3.124   0.956   5.216  0.0430 -0.2821 -0.3984
    1AU     LIG  145   2.774   0.798   5.377 -0.2923  0.0173  0.2675
    1AU    AUSL  146   5.269   1.158   4.414 -0.0076 -0.0804  0.0037
    1AU    AUSL  147   4.956   0.840   4.677  0.0544  0.0074  0.0506
    1AU     AUL  148   5.133   0.901   4.268 -0.0454 -0.0438 -0.0206
    1AU       S  149   4.984   0.554   4.554 -0.2134 -0.0137  0.0933
    1AU     LIG  150   4.881   0.144   4.786  0.0627  0.3855  0.1861
    1AU     LIG  151   4.807  -0.266   4.762  0.0132 -0.1542 -0.1004
    1AU       S  152   5.850   1.009   4.420  0.4004  0.0265  0.0393
    1AU     LIG  153   6.254   1.255   4.436 -0.1090  0.2116  0.1546
    1AU     LIG  154   6.571   1.416   4.588  0.0201  0.0130  0.0258
    1AU    AUSL  155   5.366   0.814   4.704  0.0273  0.0408  0.0084
    1AU    AUSL  156   5.611   0.887   5.084  0.0362 -0.0153  0.0191
    1AU     AUL  157   5.698   0.556   4.798  0.0299  0.1261  0.0284
    1AU       S  158   5.615   0.900   4.481 -0.2132 -0.0892 -0.1364
    1AU     LIG  159   6.136   0.684   4.636  0.0586 -0.0420 -0.4467
    1AU     LIG  160   6.519   0.466   4.795  0.1805  0.0439  0.1019
    1AU       S  161   5.705   0.501   5.291  0.0214  0.1028  0.3195
    1AU     LIG  162   6.085   0.602   5.158  0.1777  0.2754 -0.0671
    1AU     LIG  163   6.438   0.407   5.292 -0.2540 -0.0427  0.0791
    1AU    AUSL  164   5.460   1.210   4.816 -0.0039 -0.1129  0.0193
    1AU    AUSL  165   5.266   1.543   4.605 -0.0610 -0.0028  0.0996
    1AU     AUL  166   5.566   1.379   4.448  0.0997  0.0488  0.0192
    1AU       S  167   6.084   1.676   4.434  0.1156 -0.1850 -0.1859
    1AU     LIG  168   6.306   1.949   4.736  0.5688  0.0192 -0.1522
    1AU     LIG  169   6.477   1.917   5.146 -0.4020  0.1597 -0.0797
    1AU       S  170   5.769   1.052   4.705 -0.2164 -0.1451  0.0714
    1AU     LIG  171   6.037   1.044   4.961  0.0083 -0.1457 -0.0172
    1AU     LIG  172   6.464   0.994   5.147  0.1230 -0.0821  0.1408
    1AU    AUSL  173   4.457   2.140   4.801  0.0285 -0.0760  0.0130
    1AU    AUSL  174   4.758   2.342   5.101 -0.0023 -0.0564  0.0005
    1AU     AUL  175   4.451   2.538   4.814  0.0489  0.0166  0.0232
    1AU       S  176   4.828   2.579   5.094  0.0809 -0.1388 -0.0842
    1AU     LIG  177   5.024   2.898   5.368 -0.1875  0.1656  0.2479
    1AU     LIG  178   5.380   2.957   5.362  0.4822 -0.0381 -0.5447
    1AU       S  179   4.314   2.298   4.443 -0.0137  0.1292 -0.1492
    1AU     LIG  180   4.207   2.141   4.083 -0.2391  0.2419  0.1511
    1AU     LIG  181   3.826   2.055   3.903 -0.2024 -0.3428 -0.3015
    1AU    AUSL  182   4.226   1.914   5.136 -0.0152 -0.1158  0.0100
    1AU    AUSL  183   4.195   1.857   4.632  0.0195 -0.0183 -0.0168
    1AU     AUL  184   4.035   2.110   4.834 -0.0762 -0.0413 -0.0324
    1AU       S  185   3.698   1.927   5.279  0.0628 -0.3008  0.1403
    1AU     LIG  186   3.701   2.229   5.604  0.0893  0.2361 -0.0981
    1AU     LIG  187   3.491   2.461   5.996 -0.0589 -0.2814  0.0841
    1AU       S  188   3.901   1.905   4.406  0.3122 -0.0728  0.0154
    1AU     LIG  189   3.829   2.390   4.395 -0.2259 -0.0071 -0.2010
    1AU     LIG  190   3.596   2.688   4.233 -0.1376 -0.3057  0.1516
    1AU    AUSL  191   4.351   2.315   5.212 -0.0211 -0.0250  0.0768
    1AU    AUSL  192   4.132   2.046   5.526  0.0294  0.1482 -0.0187
    1AU     AUL  193   4.077   2.261   5.292 -0.0317  0.0930  0.0852
    1AU       S  194   4.185   2.338   5.713 -0.1320 -0.1887 -0.1713
    1AU     LIG  195   3.929   2.322   6.015  0.1736 -0.4402 -0.0894
    1AU     LIG  196   3.903   2.377   6.384  0.0087  0.0074 -0.2405
    1AU       S  197   4.366   2.677   5.252 -0.3450  0.0611 -0.2082
    1AU     LIG  198   4.492   3.033   5.318  0.0871 -0.3261 -0.2695
    1AU     LIG  199   4.735   3.305   5.500  0.1946 -0.1437 -0.0141
    1AU    AUSL  200   5.340   0.829   5.411  0.0192 -0.0557  0.0002
    1AU    AUSL  201   5.559   1.262   5.297 -0.0083  0.0179  0.0223
    1AU     AUL  202   5.773   0.948   5.365 -0.0464  0.0847 -0.0335
    1AU       S  203   5.568   0.557   5.531 -0.4532  0.3672  0.1631
    1AU     LIG  204   5.687   0.360   5.860 -0.0856  0.2478  0.0126
    1AU     LIG  205   5.736   0.091   6.235  0.2865 -0.2312  0.1265
    1AU       S  206   5.852   0.821   5.965  0.2799  0.0644 -0.0128
    1AU     LIG  207   6.066   0.572   5.684  0.0728 -0.4555 -0.2397
    1AU     LIG  208   6.517   0.509   5.776 -0.1900 -0.2400 -0.2377
    1AU    AUSL  209   5.264   0.580   5.060 -0.0262 -0.0590 -0.0109
    1AU    AUSL  210   5.082   0.742   5.723 -0.0750  0.0077  0.1332
    1AU     AUL  211   5.130   0.499   5.409 -0.0159  0.1468  0.0806
    1AU       S  212   5.517   0.395   5.208  0.1735 -0.1665  0.1769
    1AU     LIG  213   5.624  -0.038   5.265 -0.3285  0.1810 -0.3106
    1AU     LIG  214   5.508  -0.431   5.239 -0.2921 -0.1837  0.4566
    1AU       S  215   5.043   0.475   5.854 -0.0032 -0.2433 -0.3115
    1AU     LIG  216   5.196   0.208   6.091 -0.0496  0.0981 -0.0790
    1AU     LIG  217   5.019  -0.184   5.984  0.1653 -0.2764  0.2132
    1AU    AUSL  218   4.403   1.766   5.762  0.0865  0.1668  0.0659
    1AU    AUSL  219   4.053   1.600   5.487 -0.0413 -0.0130 -0.0269
    1AU     AUL  220   4.044   1.863   5.771  0.0293  0.0098  0.0790
    1AU       S  221   3.787   1.529   5.577  0.4237 -0.2685  0.3935
    1AU     LIG  222   3.347   1.713   5.510 -0.1239 -0.0358  0.1152
    1AU     LIG  223   2.875   1.746   5.518 -0.1994 -0.0322 -0.1438
    1AU       S  224   4.349   2.491   5.724  0.3584 -0.1327  0.1138
    1AU     LIG  225   3.989   2.744   5.532 -0.3045  0.0707 -0.2133
    1AU     LIG  226   3.883   2.975   5.156 -0.0010 -0.0359 -0.0596
    1AU    AUSL  227   4.557   2.102   5.525  0.0442 -0.0359 -0.0369
    1AU    AUSL  228   4.724   1.828   6.015  0.1047 -0.0749 -0.0338
    1AU     AUL  229   4.500   2.063   5.957 -0.0051 -0.0694 -0.0005
    1AU       S  230   4.816   2.019   6.320  0.0340 -0.3306  0.0010
    1AU     LIG  231   4.424   2.199   6.527  0.0802  0.1070  0.0247
    1AU     LIG  232   4.257   2.267   6.892  0.1263 -0.0026 -0.0144
    1AU       S  233   4.432   2.448   5.698 -0.0371  0.0956  0.0465
    1AU     LIG  234   4.415   2.990   5.796  0.0064 -0.3088  0.3353
    1AU     LIG  235   4.076   3.231   5.569  0.2330  0.0836  0.0556
    1AU    AUSL  236   5.134   1.984   4.574  0.0335  0.0148  0.0328
    1AU    AUSL  237   4.834   2.283   4.673  0.0421  0.0516 -0.1231
    1AU     AUL  238   5.224   2.304   4.627  0.0674 -0.0250  0.0117
    1AU       S  239   4.808   2.472   4.504  0.5479 -0.0675 -0.2405
    1AU     LIG  240   4.998   2.699   4.313  0.1305 -0.1963 -0.3456
    1AU     LIG  241   5.348   3.080   4.359 -0.1544 -0.2475  0.0552
    1AU       S  242   5.137   2.164   4.171 -0.3602  0.0333 -0.0561
    1AU     LIG  243   5.431   2.474   4.137  0.2887 -0.0163  0.1539
    1AU     LIG  244   5.610   2.706   4.458  0.0820  0.1556 -0.0310
    1AU    AUSL  245   4.735   1.997   4.367  0.0337  0.0478 -0.0474
    1AU    AUSL  246   4.678   1.461   4.192  0.0168  0.0406 -0.0135
    1AU     AUL  247   4.556   1.828   4.091  0.0106 -0.0185  0.0493
    1AU       S  248   5.219   2.074   3.977  0.0316  0.1103 -0.0460
    1AU     LIG  249   5.132   2.474   3.743  0.0797 -0.1390  0.0768
    1AU     LIG  250   5.295   2.894   3.855  0.0040  0.1130 -0.1897
    1AU       S  251   4.357   1.382   3.979 -0.2401  0.2534  0.3904
    1AU     LIG  252   3.936   1.557   3.962  0.0778  0.0301  0.0534
    1AU     LIG  253   3.567   1.599   4.029 -0.1873  0.1008  0.0602
    1AU    AUSL  254   5.061   1.664   4.265 -0.0196  0.0168  0.0375
    1AU    AUSL  255   5.545   1.921   4.633 -0.0828  0.0038 -0.0973
    1AU     AUL  256   5.422   1.809   4.340 -0.0602 -0.0063 -0.1681
    1AU       S  257   5.852   1.925   4.545 -0.0042  0.3143 -0.0798
    1AU     LIG  258   6.026   2.274   4.478 -0.2352  0.0153 -0.1094
    1AU     LIG  259   6.110   2.621   4.709 -0.0522  0.1388 -0.1254
    1AU       S  260   5.044   1.843   4.034 -0.2703 -0.0058 -0.1113
    1AU     LIG  261   4.736   2.197   3.852 -0.2198 -0.1551 -0.1608
    1AU     LIG  262   4.669   2.521   4.027 -0.0268 -0.1466  0.0264
    1AU    AUSL  263   5.373   1.574   5.905  0.0879 -0.0329  0.0179
    1AU    AUSL  264   5.405   1.136   5.687 -0.0372  0.0178  0.1232
    1AU     AUL  265   5.554   1.390   6.025 -0.0634 -0.1724 -0.0376
    1AU       S  266   5.147   1.603   6.528  0.3753 -0.0305 -0.1687
    1AU     LIG  267   5.300   1.979   6.546  0.5408 -0.0081 -0.2391
    1AU     LIG  268   5.616   1.918   6.208 -0.0544 -0.0776  0.0445
    1AU       S  269   5.542   0.975   5.815 -0.4007 -0.4968  0.1685
    1AU     LIG  270   5.388   0.691   6.147  0.0147  0.1700  0.0184
    1AU     LIG  271   5.105   0.839   6.513 -0.1446 -0.0794  0.2917
    1AU    AUSL  272   4.969   1.490   6.036  0.0157 -0.0974  0.0416
    1AU    AUSL  273   5.058   1.805   5.725 -0.0060  0.0163  0.0199
    1AU     AUL  274   5.148   1.838   6.078  0.0671 -0.0286  0.0315
    1AU       S  275   5.029   1.545   6.426 -0.1553  0.3360  0.2888
    1AU     LIG  276   4.795   1.293   6.721 -0.1549 -0.2771  0.0120
    1AU     LIG  277   4.434   1.223   6.918 -0.0215  0.2961 -0.0177
    1AU       S  278   4.942   2.274   6.356  0.1918 -0.0931 -0.2658
    1AU     LIG  279   4.953   2.657   6.458  0.0707  0.1433 -0.3057
    1AU     LIG  280   5.083   2.875   6.787  0.0592  0.0378 -0.3507
    1AU    AUSL  281   5.143   1.115   6.006 -0.0072  0.0114  0.0215
    1AU    AUSL  282   4.582   1.349   5.938 -0.0518 -0.0802 -0.0116
    1AU     AUL  283   4.851   1.174   6.190  0.0485 -0.0088 -0.0526
    1AU       S  284   4.453   1.478   6.271 -0.1266  0.6255  0.2566
    1AU     LIG  285   4.354   1.006   6.453  0.1290  0.1879  0.1237
    1AU     LIG  286   4.630   0.755   6.542 -0.0612  0.5976 -0.3812
    1AU       S  287   5.294   1.414   6.410  0.2566 -0.1244  0.0498
    1AU     LIG  288   5.667   1.539   6.558 -0.0859 -0.1633  0.0496
    1AU     LIG  289   5.811   1.896   6.673 -0.2949  0.1558  0.2511
    1AU    AUSL  290   4.358   1.256   4.436  0.0286  0.0021  0.0006
    1AU    AUSL  291   4.845   1.223   4.496  0.0045  0.0183  0.0978
    1AU     AUL  292   4.665   1.096   4.192  0.0814 -0.0678 -0.0691
    1AU       S  293   4.183   1.099   4.256  0.3834 -0.0343 -0.1279
    1AU     LIG  294   4.060   0.718   4.390 -0.1944 -0.0235 -0.2261
    1AU     LIG  295   3.724   0.701   4.699  0.2666 -0.3520  0.1578
    1AU       S  296   5.000   0.419   4.344  0.3470 -0.0549  0.0181
    1AU     LIG  297   4.880  -0.032   4.220  0.0280 -0.0089  0.2055
    1AU     LIG  298   4.879  -0.463   4.252  0.2642 -0.4845  0.0992
    1AU    AUSL  299   4.586   1.677   4.572  0.0168  0.0697  0.0159
    1AU    AUSL  300   4.239   1.456   4.787  0.0342  0.0074  0.0024
    1AU     AUL  301   4.258   1.603   4.367  0.0031 -0.0183  0.0336
    1AU       S  302   4.174   1.102   3.938 -0.2402  0.2556  0.0814
    1AU     LIG  303   3.753   1.025   3.949  0.0513 -0.0416  0.1749
    1AU     LIG  304   3.507   0.724   4.188  0.3075 -0.1312 -0.1906
    1AU       S  305   3.783   1.579   4.514 -0.2530  0.4418 -0.0510
    1AU     LIG  306   3.549   1.241   4.459  0.0324  0.0493  0.1643
    1AU     LIG  307   3.274   1.005   4.675  0.2408 -0.0518 -0.0094
    1AU    AUSL  308   4.434   0.954   5.787  0.0083 -0.0835  0.0148
    1AU    AUSL  309   4.163   1.406   5.860 -0.0485 -0.0041 -0.0016
    1AU     AUL  310   4.263   1.090   5.951 -0.0527 -0.0363 -0.0354
    1AU       S  311   3.880   1.438   5.918  0.1740  0.0291  0.2522
    1AU     LIG  312   3.920   1.324   6.290  0.0448 -0.6008  0.0858
    1AU     LIG  313   3.941   1.190   6.668  0.5451  0.1043 -0.3055
    1AU       S  314   4.322   1.685   6.222 -0.0641  0.0194  0.1083
    1AU     LIG  315   3.923   1.827   6.210  0.0317  0.0834 -0.2112
    1AU     LIG  316   3.556   1.926   5.977 -0.3047  0.0708 -0.1844
    1AU    AUSL  317   4.862   1.110   5.699  0.1719  0.0632 -0.0029
    1AU    AUSL  318   4.674   0.685   5.587 -0.0448  0.0718 -0.0115
    1AU     AUL  319   4.735   0.821   5.950  0.0215 -0.0960 -0.1898
    1AU       S  320   4.487   1.592   6.472 -0.0715 -0.0230  0.1449
    1AU     LIG  321   4.157   1.756   6.701  0.0535 -0.1124  0.1545
    1AU     LIG  322   3.879   1.550   6.992 -0.0289 -0.2912 -0.0550
    1AU       S  323   4.715   0.399   5.669  0.2666 -0.0378 -0.0977
    1AU     LIG  324   4.349   0.467   5.858  0.0960  0.1687  0.1183
    1AU     LIG  325   4.237   0.520   6.217 -0.0296 -0.0312  0.0273
    2POPC   NC3  326   1.839   5.232   7.053  0.2848  0.0257 -0.0825
    2POPC   PO4  327   1.758   4.790   6.918  0.1849 -0.2688 -0.2877
    2POPC   GL1  328   1.766   4.819   6.533  0.1061  0.1191 -0.0305
    2POPC   GL2  329   1.550   5.165   6.536 -0.1546  0.0891 -0.0961
    2POPC   C1A  330   1.625   4.892   6.075  0.0971 -0.1842 -0.0670
    2POPC   D2A  331   1.355   4.734   5.644  0.1065  0.1766 -0.0566
    2POPC   C3A  332   1.323   4.881   5.273  0.0428  0.2928  0.0370
    2POPC   C4A  333   1.256   5.175   4.991 -0.1221 -0.0862 -0.5977
    2POPC   C1B  334   1.635   5.396   6.251 -0.1387 -0.0457 -0.1365
    2POPC   C2B  335   1.548   5.698   5.748  0.0026  0.2742 -0.0716
    2POPC   C3B  336   1.435   5.843   5.352  0.0505  0.1167  0.0180
    2POPC   C4B  337   1.424   6.068   5.111 -0.2330 -0.1206 -0.1955
    3POPC   NC3  338   2.725  10.560   7.503 -0.3362  0.0955  0.0371
    3POPC   PO4  339   3.114  10.344   7.417  0.2947  0.2090  0.0003
    3POPC   GL1  340   2.876  10.323   6.987 -0.0497 -0.0357  0.0812
    3POPC   GL2  341   3.046  10.039   6.967  0.3685  0.3845 -0.3039
    3POPC   C1A  342   2.809  10.501   6.720 -0.2397  0.2548 -0.0281
    3POPC   D2A  343   2.894  10.936   6.528 -0.1664  0.0921 -0.2290
    3POPC   C3A  344   3.256  11.089   6.511 -0.3207  0.0564 -0.0621
    3POPC   C4A  345   3.539  11.039   6.856 -0.0398 -0.2957 -0.1119
    3POPC   C1B  346   3.283  10.151   6.665 -0.1677  0.0664 -0.1700
    3POPC   C2B  347   3.081  10.345   6.261 -0.1793  0.0772 -0.1268
    3POPC   C3B  348   3.173  10.755   6.115  0.2502 -0.2762  0.3897
    3POPC   C4B  349   3.373  11.065   5.934  0.1683 -0.2553 -0.1146
    4POPC   NC3  350   0.936   8.938   7.320 -0.0048  0.1385 -0.0630
    4POPC   PO4  351   0.908   8.829   6.938 -0.0569 -0.1182 -0.1285
    4POPC   GL1  352   0.881   9.144   6.627  0.0057 -0.3327  0.4076
    4POPC   GL2  353   0.867   8.821   6.413  0.2008 -0.3418 -0.1331
    4POPC   C1A  354   0.753   9.342   6.270 -0.0239 -0.0658  0.3011
    4POPC   D2A  355   0.551   9.657   6.059  0.3415 -0.0266  0.0936
    4POPC   C3A  356   0.075   9.517   6.043 -0.0321  0.0002 -0.0525
    4POPC   C4A  357  -0.238   9.167   6.004  0.0839 -0.3162 -0.2302
    4POPC   C1B  358   1.042   9.007   6.065 -0.1461  0.0395  0.1216
    4POPC   C2B  359   1.077   9.102   5.654  0.1024 -0.0448 -0.2429
    4POPC   C3B  360   0.850   9.056   5.313 -0.3640  0.0889  0.0520
    4POPC   C4B  361   0.631   9.257   5.018  0.0880 -0.0179 -0.1100
    5POPC   NC3  362  10.615   4.780   7.354 -0.3457  0.0485  0.0573
    5POPC   PO4  363  10.170   4.718   7.174  0.4421 -0.0610 -0.2178
    5POPC   GL1  364  10.093   4.789   6.704  0.2293 -0.2083  0.0303
    5POPC   GL2  365   9.821   4.734   6.688 -0.2068 -0.0288  0.2458
    5POPC   C1A  366  10.451   4.906   6.417  0.4512  0.1372 -0.0955
    5POPC   D2A  367  10.755   5.163   6.148 -0.0264 -0.0041  0.1719
    5POPC   C3A  368  10.705   4.917   5.796 -0.0420 -0.1973  0.0394
    5POPC   C4A  369  10.659   5.134   5.358 -0.0768  0.1843  0.0782
    5POPC   C1B  370   9.831   4.653   6.216  0.0485 -0.1621 -0.0904
    5POPC   C2B  371   9.906   4.561   5.810 -0.0513 -0.1252  0.2812
    5POPC   C3B  372   9.824   4.491   5.325  0.0753  0.2815 -0.2262
    5POPC   C4B  373   9.768   4.680   4.912  0.3058  0.0017  0.2723
    6POPC   NC3  374   6.714   5.078   7.264  0.2495 -0.0442  0.1088
    6POPC   PO4  375   6.651   4.807   7.524 -0.0330  0.1474  0.0165
    6POPC   GL1  376   6.568   4.632   7.158  0.3208  0.1590 -0.1890
    6POPC   GL2  377   6.501   4.318   7.113 -0.1011  0.2256  0.0809
    6POPC   C1A  378   6.565   4.691   6.767  0.2302  0.1656 -0.0863
    6POPC   D2A  379   6.451   4.574   6.361 -0.2363  0.1548  0.0905
    6POPC   C3A  380   6.263   4.616   6.013 -0.2114  0.0576 -0.0750
    6POPC   C4A  381   5.895   4.495   5.700  0.1458  0.2784  0.0299
    6POPC   C1B  382   6.350   3.901   7.005 -0.0122 -0.0124  0.2399
    6POPC   C2B  383   6.247   3.455   6.834 -0.0075  0.1431 -0.0476
    6POPC   C3B  384   6.014   3.244   6.505 -0.0584  0.0783 -0.1262
    6POPC   C4B  385   5.589   3.343   6.381  0.0644 -0.4640  0.1115
    7POPC   NC3  386   5.562   4.248   7.584 -0.3569 -0.0784 -0.1088
    7POPC   PO4  387   5.717   4.633   7.350  0.1558  0.4899 -0.0800
    7POPC   GL1  388   5.629   4.329   7.019  0.0546  0.0238  0.2123
    7POPC   GL2  389   5.316   4.241   7.030 -0.1551  0.0605  0.4051
    7POPC   C1A  390   5.722   4.095   6.579 -0.0328  0.0948 -0.1029
    7POPC   D2A  391   5.878   3.757   6.463  0.1310 -0.2961  0.0752
    7POPC   C3A  392   5.880   3.745   6.069 -0.1619 -0.0279 -0.1410
    7POPC   C4A  393   6.201   3.651   5.752  0.2832 -0.0037 -0.1090
    7POPC   C1B  394   5.212   4.286   6.603  0.0334 -0.2755 -0.2829
    7POPC   C2B  395   5.290   4.409   6.199 -0.0588  0.0249 -0.1621
    7POPC   C3B  396   5.391   4.530   5.868 -0.0269 -0.1509  0.3849
    7POPC   C4B  397   5.038   4.321   5.533 -0.0697  0.2569  0.2092
    8POPC   NC3  398   8.641   9.092   7.277 -0.1042  0.0730 -0.1963
    8POPC   PO4  399   8.688   9.449   7.544  0.1003  0.1204  0.0964
    8POPC   GL1  400   8.522   9.584   7.164 -0.0067  0.2751  0.0260
    8POPC   GL2  401   8.509   9.784   7.008 -0.1010  0.1251  0.2619
    8POPC   C1A  402   8.772   9.415   6.675  0.2296 -0.0987 -0.3299
    8POPC   D2A  403   8.860   9.526   6.185 -0.3646 -0.1709  0.0245
    8POPC   C3A  404   8.737   9.994   6.124 -0.3553 -0.1444 -0.0906
    8POPC   C4A  405   8.744  10.424   6.226 -0.1080 -0.1376  0.1334
    8POPC   C1B  406   8.683   9.978   6.644  0.0264  0.1139  0.1016
    8POPC   C2B  407   8.330  10.182   6.368 -0.0035  0.0549  0.4662
    8POPC   C3B  408   8.218  10.212   6.033 -0.3283  0.1748  0.2170
    8POPC   C4B  409   8.084  10.188   5.696  0.1498  0.1196  0.0054
    9POPC   NC3  410   5.563   4.096   8.114  0.2950  0.1709  0.1310
    9POPC   PO4  411   5.518   3.818   7.729  0.0707  0.3805 -0.1933
    9POPC   GL1  412   5.322   3.582   7.461 -0.1602 -0.0825 -0.0019
    9POPC   GL2  413   5.042   3.610   7.558 -0.0423  0.1125  0.1752
    9POPC   C1A  414   5.063   3.526   7.042  0.2076 -0.0557 -0.0237
    9POPC   D2A  415   4.747   3.247   6.883  0.0718  0.1491 -0.2481
    9POPC   C3A  416   4.735   2.882   7.132  0.2674 -0.3402 -0.1142
    9POPC   C4A  417   4.580   2.517   7.359  0.0354  0.1294  0.1174
    9POPC   C1B  418   4.565   3.404   7.433  0.2914  0.1413  0.0456
    9POPC   C2B  419   4.320   3.438   7.001  0.0226 -0.1136 -0.0876
    9POPC   C3B  420   4.340   3.320   6.528  0.2041 -0.0331  0.1953
    9POPC   C4B  421   4.607   3.107   6.244  0.1608  0.3271  0.1371
   10POPC   NC3  422   7.260   2.249   7.774  0.0395  0.0286 -0.1001
   10POPC   PO4  423   7.449   1.881   7.795 -0.1600 -0.1848  0.0602
   10POPC   GL1  424   7.419   1.833   7.324  0.1438 -0.1569 -0.1009
   10POPC   GL2  425   7.388   1.939   7.006  0.3888 -0.0704 -0.0949
   10POPC   C1A  426   7.377   1.464   6.987 -0.3644  0.3869  0.2552
   10POPC   D2A  427   7.390   1.282   6.482 -0.0142  0.0518 -0.0480
   10POPC   C3A  428   7.079   1.422   6.161  0.0424 -0.0555  0.0464
   10POPC   C4A  429   6.700   1.442   5.875  0.3954 -0.1073 -0.2430
   10POPC   C1B  430   7.558   2.166   6.687  0.2802  0.0214  0.1794
   10POPC   C2B  431   7.558   2.241   6.170  0.0548 -0.3494  0.2710
   10POPC   C3B  432   7.280   2.348   5.783 -0.1162 -0.1548 -0.1671
   10POPC   C4B  433   7.073   2.594   5.589  0.0596  0.4190 -0.4554
   11POPC   NC3  434   0.791   4.173   6.852 -0.3407  0.0716 -0.2694
   11POPC   PO4  435   1.143   4.146   7.215  0.1701  0.1917  0.1519
   11POPC   GL1  436   1.282   4.138   6.792 -0.2346 -0.1580  0.0595
   11POPC   GL2  437   1.539   4.220   6.649  0.0213  0.1811 -0.1986
   11POPC   C1A  438   1.225   4.086   6.298 -0.1619  0.1214 -0.2284
   11POPC   D2A  439   1.275   3.775   5.944 -0.3107  0.0097 -0.1245
   11POPC   C3A  440   1.185   3.321   5.929  0.0166 -0.0645  0.3541
   11POPC   C4A  441   1.124   2.876   5.810  0.1038  0.0369 -0.3013
   11POPC   C1B  442   1.569   3.750   6.492 -0.1007  0.3661  0.0785
   11POPC   C2B  443   1.751   3.720   6.100 -0.4184 -0.0392  0.3584
   11POPC   C3B  444   1.720   3.518   5.675 -0.3517  0.1360 -0.0484
   11POPC   C4B  445   1.882   3.476   5.212 -0.1069  0.0497  0.4223
   12POPC   NC3  446   9.656   4.631   7.183  0.1706 -0.0869  0.0069
   12POPC   PO4  447   9.510   5.074   7.222  0.1835 -0.0429  0.0181
   12POPC   GL1  448   9.479   5.067   6.835  0.0274  0.3909  0.1888
   12POPC   GL2  449   9.555   5.369   6.699  0.0956 -0.0667 -0.1284
   12POPC   C1A  450   9.370   4.902   6.494  0.2580 -0.1260 -0.2568
   12POPC   D2A  451   8.896   4.664   6.280 -0.0519  0.0811 -0.0260
   12POPC   C3A  452   8.470   4.849   6.214  0.0063  0.0858  0.1333
   12POPC   C4A  453   8.169   4.849   5.873 -0.0743 -0.0188 -0.0398
   12POPC   C1B  454   9.322   5.398   6.379  0.2635 -0.1854 -0.0168
   12POPC   C2B  455   9.166   5.133   6.102 -0.1979 -0.1115 -0.1670
   12POPC   C3B  456   8.993   4.934   5.783  0.1662  0.4329  0.0942
   12POPC   C4B  457   8.902   4.672   5.436 -0.0579 -0.0486  0.1292
   13POPC   NC3  458   8.268   4.193   7.734 -0.1688 -0.3833 -0.1857
   13POPC   PO4  459   7.857   4.400   7.715  0.0632 -0.0358  0.2287
   13POPC   GL1  460   8.041   4.228   7.239  0.2557  0.2346 -0.0875
   13POPC   GL2  461   7.881   3.850   7.170  0.0209  0.1905  0.0314
   13POPC   C1A  462   7.913   4.192   6.778  0.0344 -0.1999 -0.4084
   13POPC   D2A  463   7.715   3.891   6.512 -0.1408  0.1010 -0.2733
   13POPC   C3A  464   7.540   4.071   6.198  0.0932 -0.1000  0.0085
   13POPC   C4A  465   7.814   4.335   5.876 -0.1835 -0.0997  0.0401
   13POPC   C1B  466   7.965   3.435   6.951 -0.0776  0.0837 -0.3245
   13POPC   C2B  467   7.906   3.401   6.581 -0.1909  0.0329 -0.1007
   13POPC   C3B  468   7.733   3.472   6.144 -0.3438 -0.0213  0.0696
   13POPC   C4B  469   7.698   3.304   5.728 -0.1149  0.0585 -0.1327
   14POPC   NC3  470  10.264   5.189   7.481  0.2568  0.0325 -0.1679
   14POPC   PO4  471  10.486   5.248   7.115 -0.2634  0.0883 -0.3271
   14POPC   GL1  472  10.398   5.293   6.776  0.0332 -0.0344  0.3847
   14POPC   GL2  473  10.058   5.449   6.623 -0.1049  0.1064 -0.2823
   14POPC   C1A  474  10.367   5.468   6.263 -0.1816 -0.0306  0.0311
   14POPC   D2A  475  10.458   5.387   5.817  0.0633  0.0911  0.1039
   14POPC   C3A  476  10.015   5.386   5.598 -0.1083 -0.1480 -0.1444
   14POPC   C4A  477   9.666   5.068   5.822 -0.1726  0.2083 -0.3096
   14POPC   C1B  478   9.963   5.138   6.294  0.1189  0.0617  0.0976
   14POPC   C2B  479  10.124   4.972   5.917 -0.1007 -0.0549 -0.1784
   14POPC   C3B  480  10.174   4.929   5.514 -0.1780  0.1306  0.1924
   14POPC   C4B  481  10.232   4.829   5.094 -0.2296 -0.0237  0.0712
   15POPC   NC3  482   8.284   2.071   7.545 -0.0279  0.1706  0.1505
   15POPC   PO4  483   8.631   2.137   7.401  0.1242  0.1650  0.0491
   15POPC   GL1  484   8.865   1.795   7.111  0.5120  0.0915  0.2116
   15POPC   GL2  485   8.709   1.499   7.029 -0.0819  0.0440 -0.1485
   15POPC   C1A  486   8.879   1.814   6.657  0.1206  0.0026  0.0295
   15POPC   D2A  487   8.626   1.655   6.332 -0.1418  0.0397  0.0092
   15POPC   C3A  488   8.407   1.730   5.999 -0.4411 -0.2964  0.0048
   15POPC   C4A  489   8.568   1.698   5.550  0.2348 -0.1405 -0.0942
   15POPC   C1B  490   8.685   1.236   6.612 -0.0955 -0.0369 -0.3140
   15POPC   C2B  491   8.842   1.131   6.152 -0.1481 -0.1563  0.1933
   15POPC   C3B  492   8.884   1.512   5.855  0.0206  0.1804 -0.0402
   15POPC   C4B  493   9.055   1.813   5.816  0.0172 -0.1336 -0.4348
   16POPC   NC3  494   9.960   2.628   7.183 -0.0752  0.0291  0.1640
   16POPC   PO4  495   9.494   2.445   7.058  0.0727 -0.2613  0.1149
   16POPC   GL1  496   9.467   2.616   6.605  0.2941  0.1540  0.0998
   16POPC   GL2  497   9.759   2.788   6.674 -0.1536 -0.1354 -0.0611
   16POPC   C1A  498   9.395   2.525   6.079 -0.3363  0.2516 -0.2178
   16POPC   D2A  499   9.156   2.320   5.746  0.0750  0.2226  0.1552
   16POPC   C3A  500   9.209   2.732   5.501 -0.0486 -0.1901 -0.1585
   16POPC   C4A  501   9.375   3.201   5.545 -0.2448 -0.1891  0.1794
   16POPC   C1B  502  10.003   2.755   6.338  0.2387  0.0188 -0.3532
   16POPC   C2B  503  10.336   2.893   6.278 -0.2750  0.3143  0.1524
   16POPC   C3B  504  10.240   2.870   5.805  0.3289  0.1634 -0.1627
   16POPC   C4B  505  10.326   2.875   5.449 -0.2042 -0.1063 -0.0018
   17POPC   NC3  506   0.279   0.880   7.046 -0.0108  0.2152 -0.0552
   17POPC   PO4  507   0.114   0.436   7.088 -0.3330  0.0809 -0.0330
   17POPC   GL1  508   0.427   0.313   6.776  0.1310  0.0662  0.1386
   17POPC   GL2  509   0.819   0.250   6.823  0.4250  0.0360 -0.0388
   17POPC   C1A  510   0.368   0.270   6.360  0.2901  0.0507  0.1156
   17POPC   D2A  511   0.223   0.447   5.981  0.1571  0.0370 -0.1810
   17POPC   C3A  512   0.508   0.592   5.902  0.1790 -0.1958 -0.1511
   17POPC   C4A  513   0.986   0.561   5.990  0.1356 -0.2764  0.1739
   17POPC   C1B  514   0.894   0.210   6.369 -0.3530  0.1473 -0.0251
   17POPC   C2B  515   0.718   0.107   5.897 -0.2336  0.0960  0.1189
   17POPC   C3B  516   0.704  -0.254   5.747 -0.2643  0.0398  0.2614
   17POPC   C4B  517   0.837  -0.356   5.321  0.2005 -0.1522  0.3977
   18POPC   NC3  518   0.000   9.248   7.122  0.2089 -0.1671  0.1104
   18POPC   PO4  519  -0.025   8.936   6.889 -0.1324 -0.1213 -0.0759
   18POPC   GL1  520  -0.032   8.844   6.492  0.2992  0.0637  0.1160
   18POPC   GL2  521  -0.212   8.876   6.370 -0.1018 -0.1333 -0.1535
   18POPC   C1A  522   0.211   8.947   6.017  0.0496 -0.4164  0.2709
   18POPC   D2A  523   0.583   9.167   5.800  0.2157 -0.1120  0.1076
   18POPC   C3A  524   0.453   9.502   5.558  0.1876 -0.0961 -0.3085
   18POPC   C4A  525   0.395   9.735   5.163 -0.1662  0.0804 -0.1991
   18POPC   C1B  526  -0.546   9.068   6.351  0.1126  0.1306  0.1528
   18POPC   C2B  527  -0.891   9.040   6.385  0.0471 -0.1184 -0.0615
   18POPC   C3B  528  -1.260   9.079   6.589 -0.0832  0.1676  0.2439
   18POPC   C4B  529  -1.694   9.015   6.376 -0.1122 -0.2306 -0.0275
   19POPC   NC3  530   7.228   9.109   7.132 -0.0730 -0.3178  0.2191
   19POPC   PO4  531   7.403   8.880   7.315  0.0200  0.0391 -0.0777
   19POPC   GL1  532   7.576   8.759   6.907  0.2470 -0.3033 -0.1016
   19POPC   GL2  533   7.673   9.024   6.878  0.0362  0.0553 -0.0067
   19POPC   C1A  534   7.705   8.600   6.565  0.4257  0.0950  0.1223
   19POPC   D2A  535   7.635   8.362   6.268 -0.3748 -0.1685  0.2453
   19POPC   C3A  536   7.771   8.495   5.889 -0.1280 -0.4029  0.0525
   19POPC   C4A  537   8.127   8.401   5.644  0.0071 -0.1846  0.0685
   19POPC   C1B  538   7.783   9.392   6.543 -0.0318  0.0529  0.1005
   19POPC   C2B  539   7.865   9.478   6.091 -0.3097  0.0714  0.1549
   19POPC   C3B  540   8.050   9.557   5.654 -0.0849  0.1223  0.0422
   19POPC   C4B  541   8.166   9.855   5.257 -0.1613 -0.1963 -0.1952
   20POPC   NC3  542   3.550   8.667   7.755  0.1031  0.0013 -0.2209
   20POPC   PO4  543   3.729   8.796   7.305 -0.2114 -0.1505  0.0323
   20POPC   GL1  544   3.762   9.011   6.888 -0.1442  0.1657  0.2203
   20POPC   GL2  545   4.070   9.145   6.822 -0.0296 -0.3069  0.0950
   20POPC   C1A  546   3.573   9.023   6.445 -0.1232  0.2665  0.0320
   20POPC   D2A  547   3.272   8.708   6.190  0.1931 -0.2664 -0.0708
   20POPC   C3A  548   3.306   8.679   5.733 -0.0863 -0.1345  0.0816
   20POPC   C4A  549   3.418   8.645   5.256 -0.0642 -0.0165 -0.0612
   20POPC   C1B  550   4.110   9.036   6.353  0.2599  0.2098 -0.1963
   20POPC   C2B  551   4.196   9.097   5.999  0.1116 -0.0737  0.1606
   20POPC   C3B  552   4.358   9.280   5.743  0.2157 -0.1022  0.1697
   20POPC   C4B  553   4.590   9.585   5.573 -0.2260  0.2621 -0.1767
   21POPC   NC3  554   6.583   2.439   8.035  0.0785 -0.2160  0.4935
   21POPC   PO4  555   6.184   2.342   8.151  0.2248  0.1189 -0.1867
   21POPC   GL1  556   5.962   2.236   7.784 -0.0626  0.0396  0.0324
   21POPC   GL2  557   6.163   2.446   7.649  0.0851 -0.0750  0.3454
   21POPC   C1A  558   5.803   2.253   7.352 -0.0408  0.1292  0.0205
   21POPC   D2A  559   5.602   2.409   6.855 -0.1314  0.1186 -0.1570
   21POPC   C3A  560   5.139   2.243   6.913  0.1170 -0.3139 -0.0770
   21POPC   C4A  561   4.746   2.404   6.855 -0.3786  0.0436  0.0728
   21POPC   C1B  562   6.414   2.534   7.207  0.2277  0.0142 -0.1859
   21POPC   C2B  563   6.760   2.705   6.904  0.0294  0.2812  0.2246
   21POPC   C3B  564   7.197   3.028   6.875  0.1160  0.0563 -0.0584
   21POPC   C4B  565   7.582   3.125   7.071  0.1223  0.1068  0.0133
   22POPC   NC3  566   8.672   3.582   7.654  0.1463 -0.2169 -0.0056
   22POPC   PO4  567   8.380   3.234   7.501 -0.3006  0.0618  0.1833
   22POPC   GL1  568   8.420   3.376   7.095  0.0797  0.2154  0.0616
   22POPC   GL2  569   8.439   3.012   6.963 -0.2550 -0.1259 -0.0638
   22POPC   C1A  570   8.411   3.369   6.615 -0.3932 -0.1846 -0.2049
   22POPC   D2A  571   8.171   3.110   6.210  0.0907 -0.3449  0.0843
   22POPC   C3A  572   7.764   2.975   6.144 -0.2085 -0.0979 -0.0354
   22POPC   C4A  573   7.481   2.770   5.872  0.1757  0.1168  0.1993
   22POPC   C1B  574   8.147   2.826   6.698  0.0087 -0.0205  0.0027
   22POPC   C2B  575   8.037   2.648   6.343 -0.1232 -0.2537  0.1279
   22POPC   C3B  576   8.052   2.671   5.913  0.1854  0.0055  0.0938
   22POPC   C4B  577   8.192   2.601   5.587  0.1125 -0.0328 -0.0184
   23POPC   NC3  578   1.242   3.378   7.317  0.2242 -0.1738  0.1051
   23POPC   PO4  579   0.843   3.305   7.096  0.1321 -0.2680  0.3800
   23POPC   GL1  580   0.808   2.897   6.800  0.2567 -0.0792  0.1550
   23POPC   GL2  581   0.981   2.840   6.566 -0.1079 -0.2483  0.1626
   23POPC   C1A  582   0.464   2.670   6.587 -0.2981 -0.2166 -0.1383
   23POPC   D2A  583   0.356   2.239   6.561  0.0582 -0.1105 -0.0387
   23POPC   C3A  584   0.634   2.157   6.222  0.2336 -0.1134 -0.2530
   23POPC   C4A  585   0.996   1.939   6.056 -0.2802  0.0615 -0.1505
   23POPC   C1B  586   0.705   2.708   6.114  0.1326 -0.4155 -0.0841
   23POPC   C2B  587   0.515   2.442   5.844  0.0612  0.0347 -0.1328
   23POPC   C3B  588   0.429   2.090   5.458  0.0986  0.1020 -0.0763
   23POPC   C4B  589   0.536   1.697   5.261  0.1057 -0.3680 -0.3933
   24POPC   NC3  590   0.369   2.209   7.091 -0.2948 -0.1453 -0.2647
   24POPC   PO4  591   0.126   2.514   7.395  0.0176 -0.0488  0.1411
   24POPC   GL1  592  -0.008   2.522   6.962  0.2419  0.2221  0.0076
   24POPC   GL2  593  -0.141   2.124   6.826 -0.5081 -0.0810 -0.0851
   24POPC   C1A  594  -0.048   2.598   6.499 -0.0173  0.0605 -0.2970
   24POPC   D2A  595   0.042   2.367   6.132  0.0413 -0.0739  0.0827
   24POPC   C3A  596  -0.101   2.468   5.677 -0.0955 -0.1100  0.1092
   24POPC   C4A  597  -0.280   2.234   5.381 -0.3262 -0.0684 -0.1216
   24POPC   C1B  598  -0.151   1.989   6.406  0.0902  0.1004 -0.1365
   24POPC   C2B  599   0.202   1.898   6.226 -0.2061  0.1972 -0.1188
   24POPC   C3B  600   0.537   1.741   5.925 -0.1038 -0.3806  0.1338
   24POPC   C4B  601   0.605   1.438   5.718 -0.0476  0.0012 -0.2214
   25POPC   NC3  602   2.258  10.521   7.820  0.0240 -0.1957  0.1809
   25POPC   PO4  603   2.235  10.865   7.528 -0.2953 -0.0056 -0.1040
   25POPC   GL1  604   2.176  10.721   7.081 -0.2867  0.0676  0.0408
   25POPC   GL2  605   2.513  10.665   7.084 -0.1749  0.1740 -0.1921
   25POPC   C1A  606   2.293  10.723   6.648 -0.1005 -0.1125  0.3010
   25POPC   D2A  607   2.613  10.613   6.239  0.1727 -0.0242 -0.3795
   25POPC   C3A  608   2.507  10.732   5.965 -0.0930 -0.2932 -0.0594
   25POPC   C4A  609   2.468  11.177   5.701  0.0173  0.0487 -0.2845
   25POPC   C1B  610   2.538  11.084   6.877  0.0407 -0.0907  0.3507
   25POPC   C2B  611   2.773  11.401   6.719 -0.0286  0.4215  0.0142
   25POPC   C3B  612   3.059  11.576   6.505  0.1783  0.0547  0.0154
   25POPC   C4B  613   3.247  11.921   6.596  0.0122  0.3609 -0.0429
   26POPC   NC3  614   1.721   4.321   7.141  0.1084 -0.3235  0.0305
   26POPC   PO4  615   1.990   4.045   7.018  0.1785  0.2054  0.2712
   26POPC   GL1  616   2.122   4.212   6.608  0.0120 -0.0273 -0.3485
   26POPC   GL2  617   2.225   4.520   6.650 -0.2498  0.3031 -0.0123
   26POPC   C1A  618   1.833   4.392   6.315  0.1792  0.0646  0.0957
   26POPC   D2A  619   1.533   4.210   5.924 -0.1830 -0.2600  0.0241
   26POPC   C3A  620   1.794   4.021   5.703  0.0358  0.1359  0.1247
   26POPC   C4A  621   2.156   3.747   5.639  0.1852 -0.2279 -0.3159
   26POPC   C1B  622   2.214   4.810   6.333 -0.2087 -0.3455  0.1834
   26POPC   C2B  623   2.256   4.977   5.885 -0.2043 -0.1080  0.1807
   26POPC   C3B  624   2.258   4.859   5.535  0.4780  0.0321  0.1429
   26POPC   C4B  625   2.537   4.568   5.334  0.1218  0.3727  0.1946
   27POPC   NC3  626   6.917   4.232   7.391  0.1495 -0.0909 -0.1784
   27POPC   PO4  627   7.038   4.629   7.279 -0.3432  0.2717  0.1396
   27POPC   GL1  628   6.982   4.398   6.904 -0.1956 -0.1654  0.0399
   27POPC   GL2  629   6.866   4.000   6.977  0.2643 -0.3308 -0.3763
   27POPC   C1A  630   6.717   4.266   6.607 -0.1700  0.1948  0.3479
   27POPC   D2A  631   6.705   4.227   6.095 -0.5319  0.0020  0.4433
   27POPC   C3A  632   7.034   4.283   5.886 -0.2268 -0.0504 -0.0758
   27POPC   C4A  633   7.189   4.515   5.564 -0.1553 -0.0482 -0.0724
   27POPC   C1B  634   6.545   3.746   6.570 -0.3063  0.3596 -0.2138
   27POPC   C2B  635   6.290   3.551   6.274 -0.0271  0.1630  0.1093
   27POPC   C3B  636   6.062   3.242   6.003 -0.2595 -0.2356 -0.2254
   27POPC   C4B  637   6.206   2.904   5.655  0.0924  0.0608  0.0324
   28POPC   NC3  638   2.729   9.574   7.185  0.1928 -0.1520  0.1379
   28POPC   PO4  639   3.080   9.379   7.133  0.0607  0.1140  0.1377
   28POPC   GL1  640   3.071   9.487   6.827  0.2076  0.1449  0.0873
   28POPC   GL2  641   3.388   9.558   6.685 -0.2218  0.1916  0.0659
   28POPC   C1A  642   3.011   9.748   6.477 -0.0753  0.2185  0.3285
   28POPC   D2A  643   3.331   9.916   6.172 -0.0993 -0.1433 -0.0740
   28POPC   C3A  644   3.276  10.180   5.839 -0.0059  0.0983  0.2451
   28POPC   C4A  645   3.308  10.568   5.687 -0.1371 -0.0795 -0.2851
   28POPC   C1B  646   3.209   9.304   6.302 -0.0806  0.1039 -0.0730
   28POPC   C2B  647   3.445   9.099   5.968  0.0510 -0.3710  0.0193
   28POPC   C3B  648   3.731   8.752   5.948 -0.1017 -0.0716  0.0135
   28POPC   C4B  649   3.645   8.411   6.089 -0.0692  0.1599 -0.0327
   29POPC   NC3  650   8.748  10.022   7.476 -0.2361  0.6604 -0.0166
   29POPC   PO4  651   9.190  10.215   7.312 -0.1952 -0.1056  0.2942
   29POPC   GL1  652   9.274  10.084   6.850  0.0706 -0.0433  0.0483
   29POPC   GL2  653   9.179  10.304   6.633 -0.1136  0.0147 -0.4099
   29POPC   C1A  654   9.131   9.844   6.486  0.3090  0.0334 -0.1101
   29POPC   D2A  655   9.406   9.456   6.287 -0.0979 -0.3501  0.1875
   29POPC   C3A  656   9.141   9.198   5.922 -0.2477 -0.0755 -0.3379
   29POPC   C4A  657   8.881   9.005   5.594  0.0996  0.1098 -0.2639
   29POPC   C1B  658   9.227  10.260   6.176  0.3092  0.1260  0.0519
   29POPC   C2B  659   9.454  10.618   5.895  0.0593  0.2376  0.2607
   29POPC   C3B  660   9.358  10.790   5.487  0.0260 -0.1455 -0.3061
   29POPC   C4B  661   9.050  11.187   5.462 -0.3281 -0.6326  0.1286
   30POPC   NC3  662   8.348   6.479   7.457 -0.1957 -0.1950 -0.1542
   30POPC   PO4  663   8.357   6.757   7.329 -0.2471  0.2768 -0.1309
   30POPC   GL1  664   8.366   6.645   6.814 -0.0775  0.0184 -0.1463
   30POPC   GL2  665   8.587   6.544   6.577  0.0259 -0.1937 -0.0478
   30POPC   C1A  666   8.123   6.562   6.470  0.0526  0.0225  0.0397
   30POPC   D2A  667   7.937   6.760   6.139  0.0051 -0.1948 -0.1279
   30POPC   C3A  668   7.724   6.573   5.861  0.1092  0.3606  0.0760
   30POPC   C4A  669   7.609   6.274   5.562  0.1906  0.1498  0.0535
   30POPC   C1B  670   8.605   6.666   6.140  0.0301  0.2873  0.3660
   30POPC   C2B  671   8.304   6.762   5.747  0.0146  0.0255  0.2835
   30POPC   C3B  672   8.256   7.047   5.440  0.1803 -0.2334 -0.0821
   30POPC   C4B  673   7.840   7.154   5.264  0.0642 -0.1347  0.0664
   31POPC   NC3  674   1.082   9.527   6.975  0.0138 -0.0526 -0.2462
   31POPC   PO4  675   0.674   9.360   7.062 -0.1307 -0.3220  0.0694
   31POPC   GL1  676   0.584   9.599   6.653  0.3197 -0.2077 -0.0717
   31POPC   GL2  677   0.513   9.972   6.660  0.1102 -0.1774 -0.0502
   31POPC   C1A  678   0.900   9.814   6.370  0.0639  0.0646 -0.0329
   31POPC   D2A  679   0.966   9.558   5.863  0.0586  0.2404 -0.0718
   31POPC   C3A  680   1.267   9.759   5.656 -0.0154  0.0201 -0.0104
   31POPC   C4A  681   1.665   9.866   5.595 -0.3589  0.2153 -0.2025
   31POPC   C1B  682   0.619  10.170   6.214  0.0221  0.0146  0.0849
   31POPC   C2B  683   0.757  10.017   5.804 -0.0757 -0.2281 -0.2601
   31POPC   C3B  684   0.721   9.950   5.457  0.4384  0.1272  0.0996
   31POPC   C4B  685   0.953   9.553   5.349 -0.0705  0.3540  0.1068
   32POPC   NC3  686   2.226   2.618   7.018  0.1395  0.2071 -0.1665
   32POPC   PO4  687   1.996   2.966   7.329 -0.0594 -0.2087 -0.1475
   32POPC   GL1  688   2.107   3.062   6.861  0.2064 -0.2846 -0.0102
   32POPC   GL2  689   2.258   3.235   6.810 -0.0545 -0.3617  0.2617
   32POPC   C1A  690   2.047   2.962   6.417 -0.0408 -0.0484 -0.3416
   32POPC   D2A  691   1.938   3.176   6.060  0.0681  0.0602  0.0306
   32POPC   C3A  692   2.137   3.187   5.632  0.0708  0.1382  0.1491
   32POPC   C4A  693   2.375   3.278   5.292  0.1246 -0.1632 -0.1409
   32POPC   C1B  694   2.547   3.208   6.481 -0.0147 -0.0272  0.0825
   32POPC   C2B  695   2.971   2.964   6.401 -0.0616  0.1953  0.1837
   32POPC   C3B  696   3.179   2.615   6.428  0.1442  0.2172  0.0519
   32POPC   C4B  697   3.473   2.160   6.370  0.1955 -0.1763  0.0335
   33POPC   NC3  698   2.021   2.000   7.361  0.0925 -0.2327  0.4276
   33POPC   PO4  699   2.349   2.200   7.265 -0.0675 -0.0485  0.4672
   33POPC   GL1  700   2.192   2.167   6.839  0.0141 -0.1396 -0.1117
   33POPC   GL2  701   2.016   2.456   6.602  0.0819  0.2347  0.1550
   33POPC   C1A  702   2.382   2.232   6.367 -0.1409 -0.0793 -0.1424
   33POPC   D2A  703   2.554   2.369   6.043  0.1845  0.0280  0.1730
   33POPC   C3A  704   2.721   2.438   5.634 -0.2482 -0.3178  0.0228
   33POPC   C4A  705   2.624   2.705   5.172  0.0507  0.0731 -0.0433
   33POPC   C1B  706   1.979   2.426   6.115  0.0113 -0.0804  0.0261
   33POPC   C2B  707   1.675   2.507   5.773  0.2692  0.0414  0.2796
   33POPC   C3B  708   1.384   2.685   5.408 -0.1658 -0.0576  0.2596
   33POPC   C4B  709   0.981   2.892   5.303  0.0075 -0.0202  0.1262
   34POPC   NC3  710   3.591   9.411   7.177  0.0621  0.1119 -0.1221
   34POPC   PO4  711   3.794   9.734   7.402  0.1433  0.2999  0.2334
   34POPC   GL1  712   3.947   9.669   6.881  0.3312  0.1787 -0.0267
   34POPC   GL2  713   4.209   9.697   6.681  0.0822  0.0162 -0.0406
   34POPC   C1A  714   3.818   9.508   6.471  0.1712  0.0629  0.0453
   34POPC   D2A  715   3.661   9.490   6.131 -0.1449 -0.0991 -0.1729
   34POPC   C3A  716   3.826   9.296   5.751 -0.0482 -0.0017 -0.1635
   34POPC   C4A  717   3.872   8.959   5.424 -0.1250 -0.0198  0.0472
   34POPC   C1B  718   4.342   9.971   6.307 -0.1602 -0.2600 -0.2848
   34POPC   C2B  719   4.202  10.360   6.159 -0.2815  0.0404  0.1216
   34POPC   C3B  720   4.563  10.767   5.980  0.1071  0.1772  0.1771
   34POPC   C4B  721   4.741  11.173   6.213  0.0267 -0.1941 -0.2005
   35POPC   NC3  722  10.552  10.541   7.081  0.0002 -0.0344  0.0868
   35POPC   PO4  723  10.914  10.691   6.888 -0.1734 -0.0375  0.0517
   35POPC   GL1  724  10.774  10.730   6.570 -0.2960 -0.3316  0.1637
   35POPC   GL2  725  10.373  10.591   6.594 -0.2304  0.1455 -0.0140
   35POPC   C1A  726  10.605  10.830   6.162 -0.0318 -0.0265 -0.1573
   35POPC   D2A  727  10.442  10.663   5.758 -0.1350  0.1663  0.3546
   35POPC   C3A  728  10.651  10.548   5.357  0.1581  0.2761  0.0777
   35POPC   C4A  729  10.917  10.286   5.058  0.0438  0.3949  0.2703
   35POPC   C1B  730  10.488  10.333   6.190 -0.1441  0.1025  0.1245
   35POPC   C2B  731  10.501  10.005   5.893  0.1287 -0.3042  0.2047
   35POPC   C3B  732  10.339   9.665   5.680 -0.5026  0.0992 -0.1218
   35POPC   C4B  733  10.393   9.322   5.415  0.2548 -0.1994  0.0810
   36POPC   NC3  734   0.368   8.626   6.654  0.1420  0.0797 -0.1352
   36POPC   PO4  735   0.575   8.389   6.484  0.1356 -0.2644  0.1874
   36POPC   GL1  736   0.328   8.038   6.401  0.2083 -0.0466  0.0307
   36POPC   GL2  737   0.046   8.261   6.451 -0.0321 -0.1703  0.2238
   36POPC   C1A  738   0.187   7.912   6.098  0.2939 -0.1340 -0.1029
   36POPC   D2A  739   0.097   8.129   5.702  0.1546 -0.1620 -0.1627
   36POPC   C3A  740   0.526   8.373   5.602  0.0053  0.0359 -0.1924
   36POPC   C4A  741   0.763   8.693   5.683 -0.3786  0.4055 -0.1835
   36POPC   C1B  742   0.049   8.434   6.066  0.3150  0.0551 -0.2078
   36POPC   C2B  743   0.064   8.665   5.628 -0.2045  0.0585 -0.1937
   36POPC   C3B  744   0.192   8.515   5.254  0.2298  0.4360  0.3391
   36POPC   C4B  745   0.594   8.596   5.012 -0.1986 -0.0762  0.0890
   37POPC   NC3  746   5.967   9.562   7.554 -0.0592 -0.1600  0.1124
   37POPC   PO4  747   6.293   9.320   7.359  0.0260  0.2860 -0.0078
   37POPC   GL1  748   6.331   9.398   6.939  0.1505 -0.2745  0.0966
   37POPC   GL2  749   6.174   9.140   6.821 -0.1284 -0.0333  0.0777
   37POPC   C1A  750   6.152   9.647   6.763  0.2534 -0.0832 -0.2406
   37POPC   D2A  751   5.793   9.814   6.758 -0.3052  0.1631 -0.1534
   37POPC   C3A  752   5.770  10.159   6.490  0.0313  0.3678 -0.1457
   37POPC   C4A  753   5.685  10.174   6.152 -0.0222 -0.2304 -0.0067
   37POPC   C1B  754   6.042   8.951   6.449  0.0765  0.1615 -0.2891
   37POPC   C2B  755   5.841   8.753   6.185  0.2531  0.4281 -0.1261
   37POPC   C3B  756   5.721   8.638   5.848  0.2172 -0.2151  0.2158
   37POPC   C4B  757   5.741   8.784   5.485 -0.0419  0.1602  0.1835
   38POPC   NC3  758   6.291   5.905   7.249  0.0118 -0.2268  0.1476
   38POPC   PO4  759   6.738   5.694   7.218 -0.2327  0.0857 -0.1698
   38POPC   GL1  760   6.476   5.708   6.835  0.1294 -0.3600  0.0894
   38POPC   GL2  761   6.107   5.823   6.709  0.0359  0.0227  0.0712
   38POPC   C1A  762   6.462   5.638   6.381 -0.1920 -0.2154  0.2219
   38POPC   D2A  763   6.265   5.931   6.111 -0.2651  0.0192 -0.4615
   38POPC   C3A  764   6.296   6.341   6.089  0.0869  0.0720 -0.0128
   38POPC   C4A  765   5.986   6.677   6.221  0.2100  0.3197 -0.1183
   38POPC   C1B  766   5.915   5.625   6.379 -0.0375  0.2583 -0.0015
   38POPC   C2B  767   5.789   5.432   5.919  0.2767  0.2670 -0.1009
   38POPC   C3B  768   5.530   5.098   5.621 -0.4880 -0.0193  0.1902
   38POPC   C4B  769   5.488   4.665   5.410 -0.1321 -0.5313  0.3721
   39POPC   NC3  770   2.248   4.127   7.459 -0.0793 -0.1745  0.0932
   39POPC   PO4  771   2.553   4.096   7.095  0.1051  0.1838 -0.2502
   39POPC   GL1  772   2.634   4.211   6.742 -0.0331  0.2336  0.0131
   39POPC   GL2  773   2.912   4.246   6.557 -0.0272  0.0277 -0.4202
   39POPC   C1A  774   2.472   4.344   6.294 -0.3511  0.3041 -0.0261
   39POPC   D2A  775   2.174   4.211   5.971 -0.1752  0.2927  0.0456
   39POPC   C3A  776   2.361   4.505   5.855  0.1545  0.1460  0.0054
   39POPC   C4A  777   2.774   4.807   5.798 -0.1114  0.2172  0.0259
   39POPC   C1B  778   3.237   4.096   6.296 -0.0117 -0.0271 -0.2884
   39POPC   C2B  779   3.340   3.946   5.855  0.1227  0.1183  0.1276
   39POPC   C3B  780   3.228   3.675   5.618 -0.0537  0.1099 -0.3129
   39POPC   C4B  781   3.171   3.273   5.481  0.0390  0.0201 -0.0433
   40POPC   NC3  782   1.864   8.755   6.784  0.0964  0.0511  0.2379
   40POPC   PO4  783   2.229   8.943   6.613  0.2789 -0.1649  0.1931
   40POPC   GL1  784   2.211   8.884   6.246 -0.3261  0.0884 -0.2207
   40POPC   GL2  785   2.326   9.179   6.177 -0.1537 -0.0183  0.2383
   40POPC   C1A  786   2.390   8.695   5.935 -0.0332  0.2168  0.1446
   40POPC   D2A  787   2.564   8.763   5.629  0.3726  0.5044 -0.2766
   40POPC   C3A  788   2.384   8.589   5.254  0.1474 -0.1767 -0.1778
   40POPC   C4A  789   2.020   8.697   5.090 -0.1193  0.1037  0.2074
   40POPC   C1B  790   2.188   9.084   5.740 -0.3227  0.1000 -0.4302
   40POPC   C2B  791   2.229   9.101   5.349 -0.3772 -0.4081 -0.0529
   40POPC   C3B  792   2.470   8.997   4.917  0.1172 -0.2050 -0.3429
   40POPC   C4B  793   2.488   8.613   4.728  0.1284 -0.0833  0.2857
   41POPC   NC3  794   1.308   0.515   7.323  0.4961 -0.2616  0.2059
   41POPC   PO4  795   1.163   0.122   7.212  0.0387 -0.1753 -0.3266
   41POPC   GL1  796   1.348   0.310   6.862 -0.0067 -0.3245 -0.3571
   41POPC   GL2  797   1.618   0.504   6.837 -0.0292 -0.1502 -0.3159
   41POPC   C1A  798   1.383   0.173   6.508 -0.0575  0.1739 -0.2400
   41POPC   D2A  799   1.376   0.335   6.086 -0.3561  0.4100  0.0028
   41POPC   C3A  800   1.474   0.697   5.910  0.0191 -0.2251 -0.2146
   41POPC   C4A  801   1.460   1.037   5.667  0.0802 -0.0173 -0.1128
   41POPC   C1B  802   1.745   0.563   6.379  0.1983  0.4737  0.2158
   41POPC   C2B  803   2.023   0.613   5.965  0.1245 -0.2746 -0.3475
   41POPC   C3B  804   2.007   0.611   5.602 -0.3161  0.0394  0.1244
   41POPC   C4B  805   1.935   0.284   5.288  0.3121 -0.0949  0.0287
   42POPC   NC3  806   3.661   5.925   7.121  0.1758 -0.0142 -0.0527
   42POPC   PO4  807   3.402   5.672   6.912 -0.1108 -0.1373  0.0943
   42POPC   GL1  808   3.115   5.628   6.610 -0.0757  0.3632  0.1029
   42POPC   GL2  809   3.146   5.262   6.569  0.1588 -0.1926  0.0885
   42POPC   C1A  810   2.783   5.571   6.262 -0.2415 -0.1063 -0.2254
   42POPC   D2A  811   2.529   5.895   5.986  0.1466  0.0951 -0.1477
   42POPC   C3A  812   2.776   6.169   5.660 -0.0806  0.2397  0.0683
   42POPC   C4A  813   2.743   6.175   5.238 -0.0699 -0.1847 -0.0779
   42POPC   C1B  814   3.182   5.293   6.180  0.0013 -0.0397  0.2990
   42POPC   C2B  815   3.339   4.901   5.858  0.1572  0.0223  0.0367
   42POPC   C3B  816   3.238   4.805   5.503  0.0264 -0.1709 -0.0822
   42POPC   C4B  817   3.073   4.574   5.181  0.2609 -0.0629  0.1291
   43POPC   NC3  818   7.723   2.966   7.685 -0.0293 -0.5387  0.0451
   43POPC   PO4  819   7.358   2.680   7.974 -0.2302 -0.1893 -0.1910
   43POPC   GL1  820   7.202   2.703   7.592 -0.1787 -0.0088 -0.1570
   43POPC   GL2  821   7.525   2.560   7.521 -0.0206  0.1531  0.1372
   43POPC   C1A  822   7.042   2.922   7.294  0.2586 -0.0448 -0.1985
   43POPC   D2A  823   6.667   3.179   7.082  0.1073  0.2995  0.3310
   43POPC   C3A  824   6.505   3.106   6.593 -0.0227  0.0886 -0.1808
   43POPC   C4A  825   6.576   3.016   6.103  0.4016 -0.1435  0.2522
   43POPC   C1B  826   7.284   2.554   7.021 -0.2844  0.1808 -0.1300
   43POPC   C2B  827   6.969   2.301   6.716  0.1435  0.1587  0.2108
   43POPC   C3B  828   6.685   2.131   6.595  0.0328 -0.0671 -0.1125
   43POPC   C4B  829   6.615   1.800   6.202  0.1600  0.1934  0.0128
   44POPC   NC3  830   0.205   7.378   7.495 -0.0658  0.3411 -0.1728
   44POPC   PO4  831  -0.011   7.614   7.175 -0.2038  0.3074 -0.1768
   44POPC   GL1  832  -0.160   7.571   6.759  0.1191  0.0813 -0.1992
   44POPC   GL2  833   0.101   7.454   6.572 -0.2388 -0.3196 -0.0978
   44POPC   C1A  834  -0.439   7.255   6.544 -0.0460 -0.1407  0.2026
   44POPC   D2A  835  -0.601   6.826   6.347  0.1738  0.0026  0.0239
   44POPC   C3A  836  -0.795   6.827   5.997  0.0098 -0.1390  0.2835
   44POPC   C4A  837  -0.690   6.742   5.571  0.0445 -0.0387 -0.2579
   44POPC   C1B  838  -0.062   7.416   6.223 -0.0600 -0.2907  0.1437
   44POPC   C2B  839   0.051   7.417   5.719  0.1269 -0.0885 -0.1513
   44POPC   C3B  840  -0.054   7.763   5.364  0.1794  0.0717 -0.0779
   44POPC   C4B  841  -0.172   8.153   5.247  0.0531 -0.2053 -0.1364
   45POPC   NC3  842  10.125   5.747   7.034 -0.1307  0.0412  0.1802
   45POPC   PO4  843   9.684   5.851   6.952 -0.1467 -0.0479  0.1320
   45POPC   GL1  844   9.878   5.960   6.551 -0.0894 -0.1600  0.0766
   45POPC   GL2  845  10.079   6.214   6.569  0.1081  0.2292 -0.1972
   45POPC   C1A  846   9.818   5.711   6.250 -0.3035  0.0008  0.0249
   45POPC   D2A  847   9.653   5.530   5.879  0.0157 -0.4499 -0.0598
   45POPC   C3A  848   9.363   5.724   5.603 -0.3692 -0.1739 -0.0988
   45POPC   C4A  849   9.376   6.011   5.279 -0.1726 -0.0165 -0.1668
   45POPC   C1B  850   9.926   6.250   6.167  0.4908  0.4218 -0.0816
   45POPC   C2B  851   9.686   6.172   5.775 -0.2062  0.0744 -0.3582
   45POPC   C3B  852   9.794   6.373   5.388 -0.3285 -0.0495  0.0737
   45POPC   C4B  853   9.825   6.777   5.151  0.4734  0.1245 -0.0221
   46POPC   NC3  854   8.443   0.051   7.425  0.3385 -0.1721  0.1582
   46POPC   PO4  855   8.617   0.213   6.995 -0.3870  0.0980  0.2077
   46POPC   GL1  856   8.430   0.294   6.586 -0.0770  0.0548 -0.0995
   46POPC   GL2  857   8.098   0.212   6.773 -0.0316  0.2400  0.1859
   46POPC   C1A  858   8.379  -0.055   6.183  0.1054  0.1390  0.0713
   46POPC   D2A  859   8.422  -0.074   5.813  0.1215  0.1694 -0.0267
   46POPC   C3A  860   8.636  -0.379   5.749  0.1548 -0.1712 -0.2327
   46POPC   C4A  861   9.063  -0.468   5.697  0.3310  0.1652 -0.0354
   46POPC   C1B  862   8.017  -0.179   6.527 -0.3492 -0.1055  0.1427
   46POPC   C2B  863   7.869  -0.171   6.101  0.1948  0.2389 -0.0794
   46POPC   C3B  864   7.552  -0.370   5.911  0.0093  0.0394  0.2913
   46POPC   C4B  865   7.231  -0.646   5.948  0.2719  0.1064  0.0014
   47POPC   NC3  866   7.836   1.222   7.456  0.0001 -0.1334 -0.1274
   47POPC   PO4  867   7.984   1.635   7.637 -0.3284  0.0005  0.0591
   47POPC   GL1  868   7.962   1.798   7.243 -0.1377  0.0731 -0.2219
   47POPC   GL2  869   8.271   1.915   7.075 -0.1594 -0.0310 -0.0374
   47POPC   C1A  870   7.790   1.720   6.778  0.1538  0.0841  0.0057
   47POPC   D2A  871   7.527   1.755   6.323 -0.3414 -0.0629  0.0825
   47POPC   C3A  872   7.473   1.550   5.886  0.1368  0.0782  0.3483
   47POPC   C4A  873   7.423   1.440   5.457  0.2248 -0.2105 -0.2186
   47POPC   C1B  874   8.356   1.716   6.754 -0.0207 -0.0754  0.0543
   47POPC   C2B  875   8.161   1.411   6.521 -0.2210 -0.1337  0.1400
   47POPC   C3B  876   8.294   1.235   6.271  0.0405 -0.1840 -0.0413
   47POPC   C4B  877   8.477   1.176   5.833  0.2574  0.3241 -0.0284
   48POPC   NC3  878   9.866   6.621   7.646  0.1602  0.0869 -0.1494
   48POPC   PO4  879   9.585   6.977   7.578  0.0490  0.0419  0.0789
   48POPC   GL1  880   9.474   6.945   7.073 -0.5311 -0.1564 -0.1129
   48POPC   GL2  881   9.232   7.088   7.008 -0.2470  0.1942 -0.4511
   48POPC   C1A  882   9.321   6.829   6.619 -0.2084 -0.0874 -0.0318
   48POPC   D2A  883   9.102   6.541   6.330  0.1687 -0.0047  0.0133
   48POPC   C3A  884   9.032   6.645   5.773 -0.0225 -0.0030 -0.0230
   48POPC   C4A  885   8.909   6.824   5.368 -0.0266  0.0052  0.0305
   48POPC   C1B  886   8.861   6.912   6.757 -0.1588 -0.1334  0.1423
   48POPC   C2B  887   8.825   7.026   6.481 -0.0681  0.1219  0.0254
   48POPC   C3B  888   9.162   7.024   6.133 -0.0641 -0.0434  0.1180
   48POPC   C4B  889   9.577   7.182   6.137  0.0911 -0.1260  0.2934
   49POPC   NC3  890   2.354   6.023   7.067 -0.1097  0.0259 -0.1542
   49POPC   PO4  891   1.972   5.771   7.097 -0.1401 -0.1630 -0.0493
   49POPC   GL1  892   1.999   5.558   6.715  0.0332  0.0617  0.0173
   49POPC   GL2  893   1.738   5.705   6.584 -0.1231  0.1415 -0.2529
   49POPC   C1A  894   2.054   5.381   6.418 -0.1612  0.2047 -0.2261
   49POPC   D2A  895   2.279   5.457   6.078  0.0214  0.4340  0.0895
   49POPC   C3A  896   1.991   5.328   5.692  0.1312  0.0773  0.0737
   49POPC   C4A  897   1.626   5.324   5.338  0.2501  0.1578 -0.0815
   49POPC   C1B  898   1.398   5.817   6.427 -0.0343  0.0739  0.1582
   49POPC   C2B  899   1.182   5.744   6.087 -0.0718  0.1654 -0.2400
   49POPC   C3B  900   0.992   5.861   5.725 -0.0106  0.1250 -0.1640
   49POPC   C4B  901   1.009   5.574   5.378 -0.1152 -0.2528  0.0005
   50POPC   NC3  902   4.824   6.140   7.283 -0.3875 -0.0491  0.0971
   50POPC   PO4  903   4.453   6.221   7.121 -0.2358 -0.1154  0.1220
   50POPC   GL1  904   4.669   6.543   6.924 -0.0262 -0.0157 -0.1281
   50POPC   GL2  905   4.502   6.752   6.681  0.0025 -0.1672 -0.0993
   50POPC   C1A  906   4.865   6.441   6.471 -0.1349 -0.0377  0.1290
   50POPC   D2A  907   5.050   6.506   6.103  0.2362  0.0134  0.0018
   50POPC   C3A  908   4.877   6.349   5.764  0.3980  0.0197  0.1782
   50POPC   C4A  909   4.986   5.852   5.711  0.1946  0.0771 -0.1512
   50POPC   C1B  910   4.488   6.824   6.289  0.2081  0.2206 -0.1802
   50POPC   C2B  911   4.456   6.781   5.862  0.3779  0.0821  0.0266
   50POPC   C3B  912   4.309   6.800   5.422  0.1773  0.1220 -0.3507
   50POPC   C4B  913   4.088   6.799   5.031  0.0112  0.2664 -0.0777
   51POPC   NC3  914   5.865  10.458   7.955  0.0638  0.0675 -0.0982
   51POPC   PO4  915   6.153  10.177   7.670 -0.0883 -0.0527 -0.0594
   51POPC   GL1  916   6.258  10.296   7.310  0.3235 -0.2007 -0.4198
   51POPC   GL2  917   6.599  10.343   7.276  0.0940  0.1029 -0.1371
   51POPC   C1A  918   6.074  10.257   6.872  0.3180  0.0418 -0.2445
   51POPC   D2A  919   6.347  10.142   6.409 -0.0737 -0.1608 -0.0378
   51POPC   C3A  920   6.565  10.279   5.956  0.2830 -0.0951  0.1074
   51POPC   C4A  921   6.758  10.246   5.587  0.4081  0.0639 -0.4272
   51POPC   C1B  922   6.617  10.412   6.815  0.0303  0.0340  0.1436
   51POPC   C2B  923   6.866  10.350   6.386 -0.2638  0.2198 -0.3227
   51POPC   C3B  924   7.030  10.577   5.991  0.0066  0.3359  0.2879
   51POPC   C4B  925   7.211  10.682   5.567  0.0471  0.0056 -0.0876
   52POPC   NC3  926   0.600   4.143   7.303  0.0489  0.1267  0.1265
   52POPC   PO4  927   0.310   4.010   6.892  0.0125 -0.2146  0.1182
   52POPC   GL1  928   0.157   3.806   6.506 -0.2822  0.1119 -0.2331
   52POPC   GL2  929  -0.199   3.659   6.514 -0.2184 -0.0818  0.1066
   52POPC   C1A  930   0.250   3.566   6.113  0.1779 -0.1973 -0.3347
   52POPC   D2A  931   0.326   3.433   5.786 -0.0467  0.1241 -0.0180
   52POPC   C3A  932   0.072   3.648   5.672 -0.0874  0.1268  0.1165
   52POPC   C4A  933  -0.147   4.007   5.551  0.3373 -0.2591 -0.0659
   52POPC   C1B  934  -0.343   3.531   6.128 -0.0445 -0.0269  0.0952
   52POPC   C2B  935  -0.226   3.279   5.790  0.0169  0.2484  0.0323
   52POPC   C3B  936  -0.279   3.442   5.411  0.1042  0.2150  0.4516
   52POPC   C4B  937  -0.423   3.152   5.073 -0.2068  0.0958 -0.0447
   53POPC   NC3  938   2.635   8.576   7.335 -0.2122 -0.0260  0.1272
   53POPC   PO4  939   3.166   8.319   7.438  0.1271 -0.0216 -0.2077
   53POPC   GL1  940   3.085   8.350   6.947 -0.1877  0.1358 -0.2286
   53POPC   GL2  941   3.434   8.355   6.771 -0.4513  0.0337  0.0156
   53POPC   C1A  942   2.679   8.112   6.650 -0.0728 -0.0613 -0.4144
   53POPC   D2A  943   2.663   7.779   6.439  0.1331  0.0011 -0.0369
   53POPC   C3A  944   2.479   7.977   6.060  0.0847  0.0249  0.0006
   53POPC   C4A  945   2.470   8.190   5.608 -0.0219  0.0632 -0.0455
   53POPC   C1B  946   3.151   8.228   6.314 -0.2346  0.0646  0.2876
   53POPC   C2B  947   2.945   7.891   6.058  0.2523 -0.1156 -0.4378
   53POPC   C3B  948   2.867   7.940   5.635  0.3427  0.0705 -0.0716
   53POPC   C4B  949   3.231   8.010   5.266 -0.2094  0.1705  0.1643
   54POPC   NC3  950   6.959   6.582   7.263 -0.2287 -0.1889  0.3869
   54POPC   PO4  951   6.609   6.317   7.201  0.1355 -0.0125  0.1227
   54POPC   GL1  952   6.747   6.208   6.900  0.1673 -0.1795 -0.1512
   54POPC   GL2  953   7.046   6.351   6.773 -0.0165  0.2651 -0.3199
   54POPC   C1A  954   6.626   6.108   6.484  0.2003 -0.0648  0.0036
   54POPC   D2A  955   6.716   5.982   6.039  0.4099  0.3762 -0.0545
   54POPC   C3A  956   7.232   5.735   5.918  0.0343 -0.1464  0.3212
   54POPC   C4A  957   7.640   5.690   5.692  0.0601  0.2476 -0.0816
   54POPC   C1B  958   7.147   6.223   6.369  0.0265  0.1282 -0.0728
   54POPC   C2B  959   7.307   6.221   5.921  0.0547 -0.1960  0.1304
   54POPC   C3B  960   7.243   6.608   5.831 -0.0336  0.2525 -0.4108
   54POPC   C4B  961   7.415   6.963   5.528  0.0114  0.0108 -0.1066
   55POPC   NC3  962   2.460   6.187   7.846 -0.1986  0.0307 -0.2145
   55POPC   PO4  963   2.599   6.326   7.384  0.1847 -0.1675 -0.1611
   55POPC   GL1  964   2.714   6.336   6.874 -0.1140 -0.0707  0.3190
   55POPC   GL2  965   2.370   6.452   6.730  0.0210  0.2668  0.0424
   55POPC   C1A  966   2.816   6.200   6.499 -0.2507 -0.3931  0.1084
   55POPC   D2A  967   3.028   6.124   6.087 -0.0537 -0.4086  0.0723
   55POPC   C3A  968   3.045   5.733   5.890  0.0233  0.0646  0.2160
   55POPC   C4A  969   3.280   5.373   5.702  0.3947 -0.0550 -0.0073
   55POPC   C1B  970   2.378   6.384   6.298 -0.1835 -0.0842 -0.1079
   55POPC   C2B  971   2.319   6.345   5.908  0.0107 -0.3641  0.1739
   55POPC   C3B  972   2.526   6.568   5.476  0.3701  0.1229  0.1128
   55POPC   C4B  973   2.491   6.984   5.381 -0.1949  0.2309 -0.2167
   56POPC   NC3  974   6.200   3.695   8.094 -0.0670  0.1421  0.1259
   56POPC   PO4  975   5.983   3.998   7.812 -0.0485 -0.1150  0.0956
   56POPC   GL1  976   6.050   3.634   7.589  0.0140 -0.2497 -0.0399
   56POPC   GL2  977   5.853   3.730   7.338 -0.1063 -0.0813  0.0532
   56POPC   C1A  978   6.401   3.442   7.345  0.0200  0.0221  0.0200
   56POPC   D2A  979   6.096   3.027   7.068 -0.1406 -0.0284 -0.1260
   56POPC   C3A  980   6.160   2.682   6.796 -0.1568 -0.1485 -0.0500
   56POPC   C4A  981   6.437   2.643   6.428  0.1220  0.0091  0.1401
   56POPC   C1B  982   5.558   3.778   7.069  0.4246  0.1697 -0.0733
   56POPC   C2B  983   5.259   3.824   6.688  0.0336 -0.1433 -0.1749
   56POPC   C3B  984   5.337   3.734   6.227  0.1796  0.0007 -0.2011
   56POPC   C4B  985   5.296   3.401   5.947  0.1367  0.1479  0.0051
   57POPC   NC3  986   3.167   6.632   7.151 -0.2086  0.1675 -0.0947
   57POPC   PO4  987   3.632   6.470   6.981 -0.2868 -0.2682  0.2543
   57POPC   GL1  988   3.727   6.307   6.534  0.0435  0.0291  0.0333
   57POPC   GL2  989   3.407   6.080   6.557 -0.1056  0.0908  0.4127
   57POPC   C1A  990   3.675   6.291   6.005  0.0161  0.0639 -0.0698
   57POPC   D2A  991   3.636   6.187   5.564  0.0655  0.0860 -0.2368
   57POPC   C3A  992   3.300   5.987   5.401 -0.0360 -0.0874 -0.1196
   57POPC   C4A  993   2.968   5.733   5.400 -0.3351  0.0254 -0.1394
   57POPC   C1B  994   3.477   5.903   6.188  0.1349 -0.1633 -0.0177
   57POPC   C2B  995   3.527   5.834   5.846  0.0214 -0.0139  0.1796
   57POPC   C3B  996   3.718   5.534   5.526 -0.2649 -0.0301 -0.1830
   57POPC   C4B  997   3.652   5.059   5.486  0.4184  0.0420  0.3974
   58POPC   NC3  998   0.329  10.041   7.591  0.0615 -0.1827  0.1159
   58POPC   PO4  999   0.381  10.300   7.132 -0.0125 -0.0721  0.3355
   58POPC   GL1 1000   0.594  10.469   6.797 -0.0964 -0.0704 -0.2249
   58POPC   GL2 1001   0.480  10.558   6.469 -0.0665  0.2922 -0.1526
   58POPC   C1A 1002   0.975  10.421   6.448  0.0674  0.0402 -0.2832
   58POPC   D2A 1003   1.138  10.676   6.101 -0.3436 -0.2935 -0.0256
   58POPC   C3A 1004   1.168  10.755   5.666  0.4136  0.0197  0.2934
   58POPC   C4A 1005   1.273  11.185   5.475 -0.2541  0.2686  0.0372
   58POPC   C1B 1006   0.241  10.545   6.093  0.1279  0.1198  0.0654
   58POPC   C2B 1007   0.255  10.751   5.752  0.2114  0.4949  0.0935
   58POPC   C3B 1008   0.474  10.770   5.344 -0.0352 -0.0185  0.0188
   58POPC   C4B 1009   0.489  11.148   5.162 -0.2812  0.1934 -0.0635
   59POPC   NC3 1010  10.088   1.572   7.221  0.2544 -0.0603 -0.1899
   59POPC   PO4 1011   9.701   1.395   7.453  0.1888  0.0260  0.1090
   59POPC   GL1 1012   9.723   1.460   6.914  0.1036 -0.3211  0.0735
   59POPC   GL2 1013   9.958   1.205   6.718  0.0990 -0.4865 -0.2709
   59POPC   C1A 1014   9.611   1.546   6.560 -0.1769 -0.1691 -0.1451
   59POPC   D2A 1015   9.581   1.777   6.228 -0.2823 -0.0135  0.1657
   59POPC   C3A 1016   9.245   2.048   6.281  0.1151  0.0328  0.0240
   59POPC   C4A 1017   9.019   2.383   6.430 -0.4118 -0.0512 -0.2875
   59POPC   C1B 1018   9.946   1.258   6.280 -0.0162  0.3376  0.2915
   59POPC   C2B 1019   9.810   0.944   5.947 -0.0282 -0.1055 -0.2810
   59POPC   C3B 1020   9.696   1.000   5.502 -0.0304 -0.1281  0.0975
   59POPC   C4B 1021   9.834   0.991   5.038  0.2299  0.0146 -0.1310
   60POPC   NC3 1022   5.940   7.660   7.153  0.1577 -0.1679  0.0828
   60POPC   PO4 1023   5.888   8.023   7.121 -0.1334  0.4757 -0.0664
   60POPC   GL1 1024   5.968   7.844   6.663  0.0398  0.2995 -0.2330
   60POPC   GL2 1025   6.079   7.398   6.700  0.0062  0.2707 -0.1365
   60POPC   C1A 1026   6.087   7.713   6.272 -0.2591  0.3684 -0.0801
   60POPC   D2A 1027   6.200   7.601   5.859 -0.0490 -0.1264  0.0181
   60POPC   C3A 1028   6.577   7.675   5.561 -0.1157  0.0823  0.1041
   60POPC   C4A 1029   6.957   7.657   5.241  0.3297 -0.2065  0.1171
   60POPC   C1B 1030   5.725   7.278   6.326  0.1363  0.2242  0.0810
   60POPC   C2B 1031   5.811   7.308   5.901  0.2078 -0.1435 -0.2519
   60POPC   C3B 1032   6.032   6.944   5.813 -0.0868 -0.0146  0.0512
   60POPC   C4B 1033   6.310   6.637   5.583 -0.5329  0.1094  0.0270
   61POPC   NC3 1034   4.711   5.289   7.607 -0.2846  0.0312 -0.4264
   61POPC   PO4 1035   4.927   5.620   7.559 -0.1454  0.0755  0.2235
   61POPC   GL1 1036   4.801   5.504   7.142  0.0864  0.0457 -0.0463
   61POPC   GL2 1037   4.982   5.310   6.944 -0.0161  0.0423  0.2593
   61POPC   C1A 1038   4.633   5.581   6.718 -0.4552 -0.0078 -0.2727
   61POPC   D2A 1039   4.591   6.058   6.635 -0.3440  0.2227  0.2623
   61POPC   C3A 1040   4.319   6.365   6.446  0.2352 -0.1974 -0.1597
   61POPC   C4A 1041   4.108   6.578   6.139 -0.2730  0.1911 -0.0252
   61POPC   C1B 1042   5.064   5.339   6.543 -0.2322 -0.1911  0.0692
   61POPC   C2B 1043   4.760   5.302   6.291 -0.3175 -0.1453  0.0861
   61POPC   C3B 1044   4.562   5.058   5.987  0.1045 -0.1911 -0.0011
   61POPC   C4B 1045   4.337   4.710   6.047 -0.0349 -0.1490 -0.1308
   62POPC   NC3 1046   9.174   2.871   6.966 -0.1105 -0.0306 -0.1131
   62POPC   PO4 1047   9.645   2.922   7.097  0.0799 -0.4261 -0.0753
   62POPC   GL1 1048   9.719   3.289   6.786  0.2901  0.0767 -0.1028
   62POPC   GL2 1049   9.438   3.517   6.701 -0.0168  0.0429 -0.1254
   62POPC   C1A 1050  10.019   3.264   6.294  0.4030  0.1546 -0.3751
   62POPC   D2A 1051   9.991   3.422   5.865 -0.0650  0.0420 -0.1769
   62POPC   C3A 1052  10.231   3.810   5.758  0.1481 -0.1607 -0.2924
   62POPC   C4A 1053  10.090   4.123   5.638 -0.4993  0.2278 -0.1768
   62POPC   C1B 1054   9.323   3.885   6.505  0.1587 -0.0471 -0.1188
   62POPC   C2B 1055   9.217   4.119   6.159  0.0145 -0.0281  0.0492
   62POPC   C3B 1056   8.974   4.334   5.831 -0.0891  0.0112  0.0319
   62POPC   C4B 1057   8.665   4.595   5.826  0.0245  0.1640 -0.2210
   63POPC   NC3 1058   7.369   4.314   7.558 -0.0156  0.1724  0.2930
   63POPC   PO4 1059   7.449   3.908   7.439 -0.2285  0.1254 -0.3026
   63POPC   GL1 1060   7.372   4.088   7.050  0.0870 -0.0091  0.1209
   63POPC   GL2 1061   7.485   4.346   7.008  0.2546  0.0145  0.0085
   63POPC   C1A 1062   7.303   4.126   6.610  0.0918  0.0132  0.1218
   63POPC   D2A 1063   7.045   3.951   6.344  0.1356  0.2372 -0.3028
   63POPC   C3A 1064   7.198   3.699   6.041  0.0438  0.0149  0.0511
   63POPC   C4A 1065   7.128   3.388   5.731  0.0326 -0.1126 -0.2664
   63POPC   C1B 1066   7.575   4.515   6.642  0.3639  0.0856  0.1627
   63POPC   C2B 1067   7.418   4.606   6.292 -0.1699 -0.1471 -0.0875
   63POPC   C3B 1068   7.386   4.772   5.911 -0.0292 -0.2135  0.0149
   63POPC   C4B 1069   7.610   5.160   5.711  0.1604  0.2486 -0.1016
   64POPC   NC3 1070   7.802   2.104   7.601 -0.2765 -0.1107 -0.2857
   64POPC   PO4 1071   8.018   2.543   7.572 -0.0451  0.1232 -0.0992
   64POPC   GL1 1072   8.077   2.335   7.144  0.0389  0.0835  0.1167
   64POPC   GL2 1073   7.721   2.245   7.150 -0.0929 -0.5889 -0.0764
   64POPC   C1A 1074   8.147   2.312   6.709  0.0447 -0.0578 -0.1647
   64POPC   D2A 1075   7.994   2.027   6.391 -0.0461 -0.1760 -0.2334
   64POPC   C3A 1076   7.936   1.617   6.067  0.0139 -0.0141  0.4943
   64POPC   C4A 1077   8.069   1.412   5.740  0.0573  0.0740  0.4956
   64POPC   C1B 1078   7.769   2.634   6.877 -0.0134  0.2573  0.0464
   64POPC   C2B 1079   7.630   2.934   6.613  0.0164 -0.3519 -0.1343
   64POPC   C3B 1080   7.367   2.731   6.388 -0.1436  0.1437 -0.0163
   64POPC   C4B 1081   6.943   2.923   6.490 -0.1594  0.0338  0.0750
   65POPC   NC3 1082   4.358  10.184   7.848 -0.2003 -0.0015  0.0330
   65POPC   PO4 1083   4.618   9.862   7.687 -0.1198 -0.1547 -0.0074
   65POPC   GL1 1084   4.680   9.821   7.218  0.1180  0.1005  0.0485
   65POPC   GL2 1085   4.964   9.597   7.231  0.1713 -0.0650 -0.1269
   65POPC   C1A 1086   4.583  10.063   6.783  0.0586  0.0022 -0.0450
   65POPC   D2A 1087   4.459  10.583   6.645 -0.2897 -0.0920  0.0085
   65POPC   C3A 1088   4.644  10.825   6.985 -0.0129 -0.1152 -0.3957
   65POPC   C4A 1089   4.769  10.805   7.430 -0.1575 -0.1168  0.0370
   65POPC   C1B 1090   4.864   9.605   6.768 -0.1042  0.3105  0.2062
   65POPC   C2B 1091   4.874   9.776   6.405  0.2327 -0.1535 -0.4622
   65POPC   C3B 1092   4.802   9.798   5.958  0.1282  0.1391  0.1398
   65POPC   C4B 1093   4.668  10.125   5.809  0.1181  0.0538 -0.1613
   66POPC   NC3 1094   8.138   9.972   7.303  0.0635  0.1496 -0.3058
   66POPC   PO4 1095   8.306  10.378   7.405  0.4436 -0.0329  0.0047
   66POPC   GL1 1096   8.132  10.429   6.955 -0.2758 -0.3576 -0.0420
   66POPC   GL2 1097   8.157  10.174   6.807 -0.0683 -0.0375 -0.0455
   66POPC   C1A 1098   7.723  10.576   6.896 -0.2029  0.1978 -0.2024
   66POPC   D2A 1099   7.321  10.751   7.050 -0.0112 -0.0060  0.0974
   66POPC   C3A 1100   7.029  10.794   6.760 -0.0853 -0.0428  0.1612
   66POPC   C4A 1101   7.061  10.994   6.360  0.0225 -0.2985  0.0994
   66POPC   C1B 1102   7.868  10.094   6.427  0.2945  0.3021  0.0014
   66POPC   C2B 1103   7.768   9.972   5.981 -0.0815 -0.0401  0.0253
   66POPC   C3B 1104   7.614   9.900   5.562  0.1209  0.0924  0.3191
   66POPC   C4B 1105   7.678   9.833   5.120  0.0051 -0.1342  0.4425
   67POPC   NC3 1106   5.611   6.572   7.110 -0.0131 -0.0952 -0.3022
   67POPC   PO4 1107   5.900   6.227   7.236  0.1741  0.3293 -0.1889
   67POPC   GL1 1108   6.219   6.326   6.811 -0.2308 -0.0664  0.5031
   67POPC   GL2 1109   6.035   6.332   6.620  0.0864 -0.2013 -0.1011
   67POPC   C1A 1110   6.560   6.590   6.604 -0.0786 -0.0888  0.0408
   67POPC   D2A 1111   6.802   6.609   6.361 -0.2365 -0.1759  0.4546
   67POPC   C3A 1112   6.802   6.477   5.878 -0.0064 -0.2012 -0.4410
   67POPC   C4A 1113   6.805   6.769   5.568  0.0117  0.2394 -0.1284
   67POPC   C1B 1114   5.816   6.185   6.256 -0.0456 -0.0715 -0.1680
   67POPC   C2B 1115   5.818   5.922   5.906 -0.1242  0.3550 -0.0016
   67POPC   C3B 1116   5.529   5.891   5.464  0.1983  0.0944 -0.1283
   67POPC   C4B 1117   5.111   6.019   5.276  0.0714 -0.2417  0.2679
   68POPC   NC3 1118   1.027   2.043   7.577 -0.1505  0.2408 -0.0140
   68POPC   PO4 1119   1.106   2.046   7.135  0.1224  0.1313  0.2629
   68POPC   GL1 1120   0.782   1.988   6.737 -0.1837 -0.0074  0.1965
   68POPC   GL2 1121   0.971   2.240   6.612 -0.1027  0.3083  0.0899
   68POPC   C1A 1122   0.609   1.691   6.463  0.0418  0.0186 -0.3984
   68POPC   D2A 1123   0.793   1.430   6.160  0.2635 -0.0637 -0.1513
   68POPC   C3A 1124   0.563   0.958   6.232  0.0966  0.3721 -0.0536
   68POPC   C4A 1125   0.627   0.671   6.495  0.0608  0.1217 -0.0457
   68POPC   C1B 1126   1.070   2.454   6.240  0.2675  0.1466 -0.0657
   68POPC   C2B 1127   1.106   2.325   5.786  0.0446  0.2113 -0.1529
   68POPC   C3B 1128   0.890   2.384   5.487  0.0688 -0.0826  0.2646
   68POPC   C4B 1129   0.954   2.568   4.950  0.1703 -0.0139 -0.2513
   69POPC   NC3 1130   1.396   2.394   7.376  0.3907 -0.0123  0.1333
   69POPC   PO4 1131   1.308   2.475   6.930 -0.1280  0.0258 -0.2519
   69POPC   GL1 1132   1.544   2.264   6.596  0.2175  0.2566  0.2295
   69POPC   GL2 1133   1.545   2.550   6.443  0.3453  0.1956 -0.1150
   69POPC   C1A 1134   1.569   2.074   6.106 -0.3765  0.1273  0.4376
   69POPC   D2A 1135   1.411   1.942   5.638 -0.4149  0.0177  0.0032
   69POPC   C3A 1136   1.256   2.160   5.318  0.2780  0.0075 -0.2255
   69POPC   C4A 1137   1.479   2.404   5.015 -0.1326 -0.0581  0.1929
   69POPC   C1B 1138   1.556   2.880   6.128 -0.1946  0.1680 -0.0109
   69POPC   C2B 1139   1.582   3.049   5.706  0.2536 -0.2107 -0.1114
   69POPC   C3B 1140   1.347   3.244   5.463 -0.0227 -0.0653  0.2234
   69POPC   C4B 1141   0.903   3.354   5.511 -0.0113 -0.0197  0.0469
   70POPC   NC3 1142   3.996   6.873   6.895 -0.1790 -0.3194  0.0533
   70POPC   PO4 1143   4.407   7.031   7.124 -0.0351 -0.2596 -0.1302
   70POPC   GL1 1144   4.277   7.253   6.686  0.0769 -0.0347 -0.2448
   70POPC   GL2 1145   4.616   7.243   6.566 -0.2269  0.0611  0.0162
   70POPC   C1A 1146   4.137   7.157   6.185 -0.1245 -0.0834 -0.1902
   70POPC   D2A 1147   4.236   7.184   5.757 -0.2627 -0.3401 -0.1943
   70POPC   C3A 1148   3.930   7.117   5.445 -0.2222  0.0594 -0.1034
   70POPC   C4A 1149   3.693   7.149   5.045  0.1890 -0.1181  0.1417
   70POPC   C1B 1150   4.876   7.072   6.261 -0.0824  0.0118  0.2820
   70POPC   C2B 1151   5.071   6.985   5.811  0.0200 -0.2681 -0.0212
   70POPC   C3B 1152   5.123   6.720   5.511 -0.0424  0.0780 -0.2630
   70POPC   C4B 1153   5.051   6.523   5.043 -0.0277  0.1035 -0.2651
   71POPC   NC3 1154   3.587  10.732   8.214  0.0401 -0.1445  0.0112
   71POPC   PO4 1155   3.946  10.812   7.943  0.2019  0.3582  0.2253
   71POPC   GL1 1156   4.117  10.917   7.533 -0.0708  0.0998  0.3381
   71POPC   GL2 1157   4.251  10.603   7.547 -0.1181 -0.0732  0.0806
   71POPC   C1A 1158   3.998  11.162   7.120 -0.0537  0.0767  0.2087
   71POPC   D2A 1159   4.106  11.448   6.830 -0.1652 -0.2270 -0.0178
   71POPC   C3A 1160   3.898  11.618   6.325 -0.0629 -0.1731 -0.1924
   71POPC   C4A 1161   3.840  11.600   5.902 -0.4181 -0.1618 -0.1133
   71POPC   C1B 1162   4.309  10.540   7.121 -0.1494  0.0642  0.0639
   71POPC   C2B 1163   4.080  10.302   6.714  0.0003 -0.0813  0.0659
   71POPC   C3B 1164   3.754  10.072   6.562 -0.1054 -0.0727 -0.0396
   71POPC   C4B 1165   3.813  10.059   6.100 -0.2450  0.0190 -0.2522
   72POPC   NC3 1166   7.499   6.120   7.636  0.2293  0.0121  0.0346
   72POPC   PO4 1167   7.463   6.534   7.418 -0.0514  0.2228 -0.0566
   72POPC   GL1 1168   7.363   6.720   6.924 -0.1122 -0.1640 -0.3513
   72POPC   GL2 1169   7.319   7.090   6.835  0.5551  0.2285 -0.1599
   72POPC   C1A 1170   7.277   6.669   6.552 -0.3299 -0.1696  0.2842
   72POPC   D2A 1171   7.603   6.371   6.313 -0.5945  0.0697 -0.0079
   72POPC   C3A 1172   7.998   6.127   6.429  0.0659 -0.1717 -0.4065
   72POPC   C4A 1173   8.408   6.067   6.483 -0.0079 -0.1160  0.1080
   72POPC   C1B 1174   7.340   7.181   6.449  0.1430  0.0705  0.2065
   72POPC   C2B 1175   7.457   7.137   6.095 -0.1828 -0.1439  0.5141
   72POPC   C3B 1176   7.802   7.277   5.782 -0.1592 -0.0262  0.2650
   72POPC   C4B 1177   8.120   7.545   5.631 -0.0599 -0.0144  0.0606
   73POPC   NC3 1178   1.561   1.243   7.514  0.2287 -0.1612  0.2388
   73POPC   PO4 1179   1.142   0.994   7.316  0.1145 -0.1601  0.0068
   73POPC   GL1 1180   1.575   0.956   7.069 -0.0553 -0.3997  0.1655
   73POPC   GL2 1181   1.559   1.293   6.914 -0.1714 -0.0108 -0.2324
   73POPC   C1A 1182   1.865   0.984   6.647 -0.1631  0.3978 -0.0138
   73POPC   D2A 1183   2.196   0.868   6.427  0.2144 -0.0079  0.0010
   73POPC   C3A 1184   2.327   1.031   6.123 -0.0365 -0.1638  0.1587
   73POPC   C4A 1185   2.440   0.938   5.722  0.5127  0.2162  0.1448
   73POPC   C1B 1186   1.729   1.453   6.544 -0.2317 -0.1260  0.0548
   73POPC   C2B 1187   1.795   1.601   6.141  0.0441  0.1975  0.1819
   73POPC   C3B 1188   1.799   1.619   5.691 -0.0174 -0.0194  0.2421
   73POPC   C4B 1189   1.509   1.397   5.327  0.2118  0.0205 -0.0425
   74POPC   NC3 1190   9.696   1.858   7.610 -0.0055 -0.2309 -0.1819
   74POPC   PO4 1191   9.805   2.077   7.250 -0.1789  0.0618  0.1475
   74POPC   GL1 1192   9.849   2.243   6.768 -0.2425 -0.0563 -0.4564
   74POPC   GL2 1193  10.186   2.282   6.595 -0.2196 -0.0329 -0.1055
   74POPC   C1A 1194   9.734   2.261   6.364  0.1372 -0.1285  0.3266
   74POPC   D2A 1195   9.773   2.187   5.985  0.1758  0.0792  0.1570
   74POPC   C3A 1196   9.589   1.969   5.747 -0.0094 -0.1428 -0.0260
   74POPC   C4A 1197   9.472   1.820   5.392 -0.0403  0.0054  0.1747
   74POPC   C1B 1198  10.336   2.381   6.149  0.1132  0.3049 -0.0503
   74POPC   C2B 1199  10.373   2.061   5.819 -0.1568  0.0100  0.1798
   74POPC   C3B 1200  10.752   1.969   5.700  0.0563 -0.1716 -0.1099
   74POPC   C4B 1201  10.912   1.548   5.559 -0.0235  0.3119  0.0876
   75POPC   NC3 1202   9.566   0.712   7.307 -0.0522  0.1080  0.1936
   75POPC   PO4 1203   9.925   0.985   7.156 -0.2564 -0.1136 -0.0663
   75POPC   GL1 1204   9.770   0.719   6.839 -0.2996 -0.0634 -0.1179
   75POPC   GL2 1205   9.955   0.592   6.751  0.1261  0.0387  0.0323
   75POPC   C1A 1206   9.632   0.855   6.456  0.0418  0.0377  0.1779
   75POPC   D2A 1207   9.369   0.728   6.077 -0.3178  0.2969 -0.0865
   75POPC   C3A 1208   9.268   0.352   5.970 -0.0725 -0.1916 -0.1817
   75POPC   C4A 1209   8.953  -0.031   5.841  0.2777 -0.4755  0.2001
   75POPC   C1B 1210  10.172   0.801   6.386 -0.1742 -0.0762 -0.2114
   75POPC   C2B 1211  10.394   1.045   6.084  0.1497  0.0275 -0.1017
   75POPC   C3B 1212  10.696   0.940   5.742  0.1511 -0.0322 -0.0930
   75POPC   C4B 1213  11.108   0.981   5.494  0.2467  0.0896 -0.1380
   76POPC   NC3 1214   6.354   0.085   8.018 -0.0447 -0.2064  0.0343
   76POPC   PO4 1215   6.716   0.325   7.953 -0.2290 -0.0706 -0.1119
   76POPC   GL1 1216   6.781   0.369   7.535 -0.1556 -0.0535 -0.2228
   76POPC   GL2 1217   6.973   0.094   7.470 -0.1801  0.2795 -0.1920
   76POPC   C1A 1218   6.778   0.653   7.144 -0.1983 -0.1843  0.1054
   76POPC   D2A 1219   6.604   0.847   6.735 -0.0625 -0.3111 -0.0033
   76POPC   C3A 1220   6.359   0.670   6.548 -0.0010  0.0677 -0.3138
   76POPC   C4A 1221   6.194   0.498   6.177  0.0467  0.2731  0.3684
   76POPC   C1B 1222   6.778   0.152   7.145  0.0589 -0.1120 -0.0978
   76POPC   C2B 1223   6.604   0.221   6.649  0.0592  0.2170  0.0583
   76POPC   C3B 1224   6.773   0.566   6.295 -0.2494 -0.3034  0.1385
   76POPC   C4B 1225   6.999   0.534   5.867 -0.2274  0.1025  0.1152
   77POPC   NC3 1226   4.136   1.823   8.325  0.3062 -0.1606 -0.1941
   77POPC   PO4 1227   3.882   1.442   8.231 -0.1376 -0.0930 -0.1429
   77POPC   GL1 1228   4.031   1.637   7.798  0.0069  0.2793 -0.3485
   77POPC   GL2 1229   4.346   1.693   7.909  0.0590 -0.0447  0.0511
   77POPC   C1A 1230   3.922   1.799   7.446  0.1817 -0.0333  0.0273
   77POPC   D2A 1231   3.576   1.985   7.188 -0.0346 -0.2521  0.2809
   77POPC   C3A 1232   3.675   1.971   6.773  0.2073  0.4189 -0.5301
   77POPC   C4A 1233   3.553   1.609   6.548 -0.0217 -0.1448  0.2975
   77POPC   C1B 1234   4.315   2.055   7.589  0.0938 -0.1024 -0.2760
   77POPC   C2B 1235   3.978   2.374   7.414 -0.1272  0.0914  0.0803
   77POPC   C3B 1236   3.766   2.443   6.996  0.2066 -0.2039  0.0526
   77POPC   C4B 1237   3.658   2.648   6.697 -0.0779 -0.0970 -0.2012
   78POPC   NC3 1238   4.983   3.361   8.310  0.0720  0.4190  0.0820
   78POPC   PO4 1239   4.636   3.537   8.087  0.2274  0.2089 -0.1355
   78POPC   GL1 1240   4.619   3.141   7.990  0.0762  0.0375 -0.0036
   78POPC   GL2 1241   4.319   3.095   7.780 -0.2415 -0.0143  0.1140
   78POPC   C1A 1242   4.782   2.668   7.801  0.0037  0.0326 -0.2763
   78POPC   D2A 1243   4.700   2.258   7.842 -0.0612  0.1221 -0.2104
   78POPC   C3A 1244   4.946   1.922   7.833 -0.3489  0.1675  0.0274
   78POPC   C4A 1245   5.246   1.863   7.492  0.0372 -0.1415  0.0267
   78POPC   C1B 1246   4.346   2.965   7.390 -0.0970 -0.0065 -0.1914
   78POPC   C2B 1247   4.204   2.766   6.960  0.1389  0.0914 -0.1761
   78POPC   C3B 1248   4.428   2.759   6.609 -0.0112 -0.0004 -0.0678
   78POPC   C4B 1249   4.403   2.610   6.228 -0.1187  0.4118  0.1312
   79POPC   NC3 1250   4.929   6.997   7.073  0.1454 -0.0934  0.1507
   79POPC   PO4 1251   5.162   6.609   7.328  0.1120  0.1272 -0.0692
   79POPC   GL1 1252   5.180   6.460   6.910  0.2004 -0.1457 -0.1196
   79POPC   GL2 1253   5.166   6.805   6.634 -0.1989 -0.2605  0.1176
   79POPC   C1A 1254   5.398   6.401   6.401  0.0994  0.0855 -0.0448
   79POPC   D2A 1255   5.298   6.094   5.987  0.1712 -0.0284 -0.0262
   79POPC   C3A 1256   5.417   6.310   5.715 -0.3105  0.1843  0.0230
   79POPC   C4A 1257   5.480   6.367   5.349  0.1362 -0.0539  0.0670
   79POPC   C1B 1258   5.348   6.989   6.286  0.0156  0.0546  0.1488
   79POPC   C2B 1259   5.521   6.790   5.848 -0.2545  0.0140  0.1308
   79POPC   C3B 1260   5.910   6.388   5.720 -0.1120  0.1576 -0.1705
   79POPC   C4B 1261   6.255   6.084   5.627  0.0354  0.0195  0.0500
   80POPC   NC3 1262  10.614   9.688   7.744  0.0114 -0.0030 -0.1864
   80POPC   PO4 1263  10.542   9.614   7.329 -0.2806  0.1336  0.0195
   80POPC   GL1 1264  10.566   9.600   6.864 -0.1087  0.1604  0.0131
   80POPC   GL2 1265  10.398   9.349   6.713  0.0299  0.0615  0.2881
   80POPC   C1A 1266  10.890   9.583   6.548  0.2003  0.1062 -0.1767
   80POPC   D2A 1267  10.835   9.931   6.343  0.4950  0.0300  0.1122
   80POPC   C3A 1268  10.977  10.040   5.953  0.0520 -0.0847  0.0636
   80POPC   C4A 1269  11.109  10.257   5.566  0.1569  0.1129 -0.1803
   80POPC   C1B 1270  10.415   9.622   6.319 -0.0220 -0.2374 -0.2122
   80POPC   C2B 1271  10.079   9.937   6.165 -0.3911 -0.0406 -0.0546
   80POPC   C3B 1272  10.047  10.246   5.848  0.0659 -0.3778 -0.1205
   80POPC   C4B 1273  10.135  10.290   5.513 -0.0061  0.0983 -0.0193
   81POPC   NC3 1274   2.451   7.274   7.216  0.1619  0.3506  0.1566
   81POPC   PO4 1275   2.819   7.546   7.055  0.0737 -0.4009  0.1512
   81POPC   GL1 1276   3.010   7.383   6.657 -0.0432 -0.1478  0.0957
   81POPC   GL2 1277   2.666   7.295   6.657 -0.2437 -0.0689  0.1795
   81POPC   C1A 1278   3.183   7.551   6.348  0.0638  0.1581 -0.0671
   81POPC   D2A 1279   3.435   7.780   6.166 -0.2845 -0.0976 -0.0458
   81POPC   C3A 1280   3.805   8.141   6.466 -0.2071 -0.1054  0.0650
   81POPC   C4A 1281   3.827   8.560   6.593 -0.0087 -0.0521  0.2980
   81POPC   C1B 1282   2.718   7.218   6.159 -0.1750  0.0491 -0.3127
   81POPC   C2B 1283   2.674   7.364   5.779  0.2788 -0.0252 -0.0944
   81POPC   C3B 1284   2.921   7.431   5.395 -0.1188  0.1207  0.0188
   81POPC   C4B 1285   3.217   7.070   5.185 -0.0944  0.1776  0.1431
   82POPC   NC3 1286   6.957   9.952   7.297 -0.0750  0.1559 -0.3065
   82POPC   PO4 1287   7.322   9.699   7.297  0.0483 -0.0206  0.1980
   82POPC   GL1 1288   7.232   9.667   6.873  0.3503  0.0784  0.1873
   82POPC   GL2 1289   7.337   9.346   6.696  0.1999 -0.1196 -0.0376
   82POPC   C1A 1290   6.928   9.845   6.577 -0.1221  0.2289 -0.1291
   82POPC   D2A 1291   6.882   9.784   6.166  0.4610  0.2919  0.2709
   82POPC   C3A 1292   6.359   9.800   6.042 -0.0112  0.1599 -0.0079
   82POPC   C4A 1293   6.112  10.018   5.874  0.0261  0.2279 -0.0870
   82POPC   C1B 1294   7.085   9.392   6.387 -0.1619  0.0424 -0.3280
   82POPC   C2B 1295   7.063   9.217   6.001 -0.0761  0.3282 -0.0306
   82POPC   C3B 1296   6.689   9.313   5.752  0.2210  0.0182  0.1814
   82POPC   C4B 1297   6.602   9.779   5.593 -0.1115 -0.2874  0.0662
   83POPC   NC3 1298   3.826   6.943   7.391 -0.1042  0.1541 -0.1662
   83POPC   PO4 1299   3.539   6.993   7.093 -0.0561 -0.1285 -0.3444
   83POPC   GL1 1300   3.411   7.002   6.667 -0.1910  0.2197 -0.2899
   83POPC   GL2 1301   3.703   6.863   6.449 -0.2752  0.0033 -0.3285
   83POPC   C1A 1302   3.186   7.078   6.213  0.1084  0.2362  0.1696
   83POPC   D2A 1303   3.166   7.372   5.891  0.0296 -0.1507  0.1057
   83POPC   C3A 1304   3.249   7.726   5.701 -0.0393 -0.2006  0.0136
   83POPC   C4A 1305   3.327   8.132   5.801 -0.1366 -0.1702  0.1927
   83POPC   C1B 1306   3.666   6.852   6.048 -0.2191 -0.1920 -0.2217
   83POPC   C2B 1307   3.838   6.654   5.696  0.0342  0.0499 -0.0058
   83POPC   C3B 1308   4.125   6.331   5.655 -0.1430 -0.0872  0.0076
   83POPC   C4B 1309   4.478   6.208   5.992 -0.3025  0.2386 -0.0408
   84POPC   NC3 1310   7.411  10.046   7.762 -0.1103 -0.0611  0.0036
   84POPC   PO4 1311   7.217  10.373   7.619  0.2415  0.1456 -0.2626
   84POPC   GL1 1312   7.370  10.249   7.215  0.2252 -0.3662 -0.0683
   84POPC   GL2 1313   7.628  10.074   7.105  0.1322  0.1701  0.0246
   84POPC   C1A 1314   7.296  10.217   6.817 -0.1042 -0.1637 -0.1220
   84POPC   D2A 1315   7.385  10.281   6.386  0.1620  0.2917 -0.1245
   84POPC   C3A 1316   7.497  10.672   6.371 -0.0332 -0.1674 -0.0651
   84POPC   C4A 1317   7.600  10.936   6.580 -0.0418 -0.2172  0.3905
   84POPC   C1B 1318   7.655   9.844   6.755  0.3251 -0.0095 -0.2170
   84POPC   C2B 1319   7.440   9.791   6.382 -0.1642 -0.1996 -0.1325
   84POPC   C3B 1320   7.367   9.632   5.941 -0.1551 -0.3351 -0.2014
   84POPC   C4B 1321   7.081   9.682   5.673  0.0461  0.0047 -0.0317
   85POPC   NC3 1322   8.443   5.511   7.408  0.0298  0.0841 -0.1553
   85POPC   PO4 1323   8.689   5.847   7.434  0.2121 -0.1398 -0.0518
   85POPC   GL1 1324   8.785   5.688   6.965  0.0043 -0.3148 -0.1123
   85POPC   GL2 1325   8.482   5.717   6.911  0.3794  0.1505 -0.2744
   85POPC   C1A 1326   8.928   5.383   6.675 -0.0135 -0.0631 -0.0320
   85POPC   D2A 1327   8.768   5.172   6.470  0.2330  0.0525  0.2789
   85POPC   C3A 1328   8.634   5.288   6.061 -0.0439 -0.2886  0.0097
   85POPC   C4A 1329   8.508   5.717   5.998 -0.1513 -0.0199 -0.0449
   85POPC   C1B 1330   8.365   5.509   6.528 -0.0634 -0.0792 -0.2691
   85POPC   C2B 1331   8.145   5.332   6.211  0.1141 -0.1192  0.0880
   85POPC   C3B 1332   8.145   5.361   5.788 -0.1634 -0.0341 -0.1189
   85POPC   C4B 1333   8.383   5.498   5.446  0.2548 -0.1128  0.2251
   86POPC   NC3 1334   2.739   5.172   6.984 -0.3350  0.4498 -0.1243
   86POPC   PO4 1335   2.397   5.485   7.166  0.1504  0.3302  0.1585
   86POPC   GL1 1336   2.511   5.606   6.827  0.1279  0.1789  0.2244
   86POPC   GL2 1337   2.505   5.333   6.623 -0.2256  0.1212  0.1759
   86POPC   C1A 1338   2.437   5.847   6.499 -0.1947 -0.1250 -0.0543
   86POPC   D2A 1339   2.098   5.900   6.231 -0.0595  0.0287 -0.0782
   86POPC   C3A 1340   2.080   5.762   5.815 -0.2497  0.1366  0.0304
   86POPC   C4A 1341   2.490   5.587   5.612  0.1913  0.0818  0.2250
   86POPC   C1B 1342   2.633   5.096   6.240 -0.0115 -0.2566  0.2764
   86POPC   C2B 1343   2.747   5.292   5.871  0.1666 -0.1722  0.1877
   86POPC   C3B 1344   2.792   5.175   5.462 -0.0492  0.0260  0.1078
   86POPC   C4B 1345   2.806   4.993   5.062 -0.0609 -0.2431  0.1975
   87POPC   NC3 1346   0.107   3.218   7.238 -0.0476  0.1203  0.2806
   87POPC   PO4 1347  -0.191   2.997   7.060 -0.3961  0.0911  0.0208
   87POPC   GL1 1348  -0.010   3.057   6.707 -0.2594  0.0752 -0.2178
   87POPC   GL2 1349   0.208   3.264   6.712 -0.0887  0.0514 -0.1143
   87POPC   C1A 1350   0.011   3.118   6.284  0.1137  0.0384  0.3017
   87POPC   D2A 1351   0.204   2.926   5.968 -0.0465 -0.1577 -0.0409
   87POPC   C3A 1352   0.111   2.948   5.572  0.1799  0.0024  0.0855
   87POPC   C4A 1353   0.066   3.197   5.126 -0.1247  0.0685 -0.2930
   87POPC   C1B 1354   0.537   3.172   6.453 -0.1536 -0.3021  0.4758
   87POPC   C2B 1355   0.652   3.202   6.065 -0.1681  0.0893  0.1193
   87POPC   C3B 1356   0.604   2.952   5.638  0.1977 -0.2156 -0.0368
   87POPC   C4B 1357   0.542   3.017   5.200  0.0789 -0.2672 -0.0176
   88POPC   NC3 1358   0.855   7.275   6.712 -0.0981  0.0086 -0.1357
   88POPC   PO4 1359   1.295   7.460   6.735  0.0095  0.0471  0.3559
   88POPC   GL1 1360   1.146   7.395   6.307 -0.0035  0.0085  0.2237
   88POPC   GL2 1361   1.341   7.649   6.039 -0.3008  0.0825  0.0168
   88POPC   C1A 1362   1.033   7.237   6.006  0.1637 -0.0883 -0.0078
   88POPC   D2A 1363   0.906   7.275   5.524  0.1049 -0.0549  0.0210
   88POPC   C3A 1364   1.202   7.223   5.160 -0.2895  0.2394  0.1620
   88POPC   C4A 1365   1.643   7.401   4.885  0.0328 -0.0688  0.0728
   88POPC   C1B 1366   1.499   8.070   5.850 -0.3615  0.3086 -0.3136
   88POPC   C2B 1367   1.441   8.487   5.666  0.1045  0.0203 -0.0087
   88POPC   C3B 1368   1.251   8.591   5.353  0.1599  0.0556 -0.0338
   88POPC   C4B 1369   1.258   8.943   5.067 -0.0702 -0.0941 -0.1720
   89POPC   NC3 1370   5.868   2.842   8.435  0.1636 -0.0730 -0.2560
   89POPC   PO4 1371   6.012   3.201   8.239  0.1558 -0.1178  0.0363
   89POPC   GL1 1372   5.937   3.171   7.784 -0.0263  0.2384  0.0713
   89POPC   GL2 1373   5.684   3.289   7.637  0.0081  0.0303  0.0148
   89POPC   C1A 1374   5.802   2.759   7.492  0.1545  0.0538 -0.2823
   89POPC   D2A 1375   5.419   2.695   7.253 -0.5106  0.1150  0.1327
   89POPC   C3A 1376   5.034   2.453   7.346 -0.0967  0.0255 -0.2422
   89POPC   C4A 1377   4.809   1.983   7.343  0.1150 -0.0946  0.2180
   89POPC   C1B 1378   5.583   3.208   7.202 -0.0118  0.3170 -0.1169
   89POPC   C2B 1379   5.507   3.174   6.825 -0.3656  0.4750 -0.1540
   89POPC   C3B 1380   5.670   2.842   6.631  0.1239 -0.0896  0.1061
   89POPC   C4B 1381   5.731   2.842   6.212 -0.0645 -0.3075  0.0016
   90POPC   NC3 1382   8.132   5.125   7.429 -0.0216 -0.0502 -0.1356
   90POPC   PO4 1383   7.761   5.383   7.412 -0.0067 -0.1449  0.2913
   90POPC   GL1 1384   7.605   5.296   6.990  0.1257 -0.0785  0.1000
   90POPC   GL2 1385   7.500   4.897   6.913  0.2349 -0.2207 -0.0147
   90POPC   C1A 1386   7.379   5.329   6.581  0.2892 -0.1401  0.0331
   90POPC   D2A 1387   7.161   5.081   6.276 -0.4124  0.0911 -0.0366
   90POPC   C3A 1388   7.125   5.213   5.844 -0.0704 -0.0655 -0.0705
   90POPC   C4A 1389   7.091   5.472   5.452 -0.0115  0.2936  0.2261
   90POPC   C1B 1390   7.071   4.845   6.665  0.0179  0.1547 -0.2172
   90POPC   C2B 1391   6.915   4.630   6.304  0.1958 -0.2448  0.1495
   90POPC   C3B 1392   6.882   4.737   5.877  0.1938 -0.3484  0.1713
   90POPC   C4B 1393   6.773   4.985   5.567  0.2350 -0.0570 -0.2843
   91POPC   NC3 1394   7.101   9.318   7.538 -0.0828 -0.1703 -0.3386
   91POPC   PO4 1395   6.814   9.495   7.248 -0.0746  0.2916  0.0602
   91POPC   GL1 1396   6.798   9.432   6.874 -0.0879  0.1305 -0.0985
   91POPC   GL2 1397   6.899   9.056   6.719  0.2858 -0.0991 -0.0416
   91POPC   C1A 1398   6.543   9.451   6.449 -0.2391 -0.0169 -0.0658
   91POPC   D2A 1399   6.324   9.272   6.152 -0.0342 -0.0559  0.2671
   91POPC   C3A 1400   6.274   9.052   5.700 -0.1120  0.3162  0.1614
   91POPC   C4A 1401   6.086   9.146   5.240  0.1230 -0.0028  0.0565
   91POPC   C1B 1402   6.763   8.929   6.293 -0.2229 -0.2891 -0.2073
   91POPC   C2B 1403   6.777   8.766   5.944  0.0723  0.2484 -0.0276
   91POPC   C3B 1404   6.613   8.452   5.677  0.0559 -0.1736  0.0962
   91POPC   C4B 1405   6.512   8.381   5.269  0.1420 -0.1466  0.2060
   92POPC   NC3 1406   4.463   7.923   7.217  0.0013  0.2763 -0.1287
   92POPC   PO4 1407   4.534   8.139   7.478 -0.0196  0.4351  0.0308
   92POPC   GL1 1408   4.656   8.355   7.055  0.0459 -0.0748  0.2230
   92POPC   GL2 1409   5.035   8.574   7.040 -0.0671  0.3038  0.0898
   92POPC   C1A 1410   4.681   8.387   6.595  0.0896 -0.3122  0.0421
   92POPC   D2A 1411   4.836   8.459   6.203 -0.1523 -0.0481 -0.1621
   92POPC   C3A 1412   4.643   8.703   5.920 -0.0951  0.0318 -0.0270
   92POPC   C4A 1413   4.202   8.685   5.709 -0.3716 -0.2959 -0.2369
   92POPC   C1B 1414   5.207   8.493   6.750  0.0889  0.2527  0.1074
   92POPC   C2B 1415   5.549   8.328   6.604  0.3232 -0.0982 -0.0153
   92POPC   C3B 1416   5.865   8.263   6.403  0.2932 -0.1120 -0.4693
   92POPC   C4B 1417   5.980   8.163   5.997 -0.3949 -0.3175 -0.0098
   93POPC   NC3 1418   0.170   7.995   6.886  0.1299  0.0375 -0.0236
   93POPC   PO4 1419   0.526   7.750   6.768 -0.1894  0.0367  0.0580
   93POPC   GL1 1420   0.655   7.652   6.354  0.2972 -0.0397  0.1254
   93POPC   GL2 1421   0.548   7.310   6.285  0.1574  0.0885 -0.0577
   93POPC   C1A 1422   0.558   7.696   5.863 -0.0859  0.2988  0.0002
   93POPC   D2A 1423   0.486   7.634   5.438 -0.2894 -0.1862 -0.0953
   93POPC   C3A 1424   0.385   7.998   5.229 -0.1089 -0.1959  0.0883
   93POPC   C4A 1425   0.237   8.186   4.835  0.0293  0.1099  0.0089
   93POPC   C1B 1426   0.478   7.207   5.900  0.1847  0.0569  0.1809
   93POPC   C2B 1427   0.604   6.841   5.592 -0.2659 -0.1873 -0.1192
   93POPC   C3B 1428   0.672   6.644   5.255  0.0959  0.1547  0.1279
   93POPC   C4B 1429   0.299   6.286   5.072 -0.0976 -0.0086 -0.2547
   94POPC   NC3 1430   8.716   4.544   7.239  0.3063  0.0348  0.0766
   94POPC   PO4 1431   9.170   4.652   7.295  0.0327  0.0044 -0.3632
   94POPC   GL1 1432   9.231   4.608   6.861 -0.0069  0.2611 -0.0054
   94POPC   GL2 1433   9.490   4.256   6.881  0.1039 -0.2039  0.1850
   94POPC   C1A 1434   9.029   4.265   6.615  0.1326 -0.2970 -0.1688
   94POPC   D2A 1435   8.680   4.217   6.325  0.0193 -0.1452 -0.0480
   94POPC   C3A 1436   8.657   3.850   6.191 -0.2718  0.0354  0.1291
   94POPC   C4A 1437   9.000   3.525   6.229 -0.3152 -0.0587 -0.0004
   94POPC   C1B 1438   9.454   4.382   6.472 -0.2691  0.2343 -0.1891
   94POPC   C2B 1439   9.399   4.603   6.000 -0.0523 -0.0651 -0.0470
   94POPC   C3B 1440   9.377   4.454   5.550  0.0908 -0.0785  0.2487
   94POPC   C4B 1441   9.327   4.626   5.136  0.0539  0.0040 -0.0256
   95POPC   NC3 1442   1.935   9.608   7.723  0.2595 -0.0013  0.1491
   95POPC   PO4 1443   2.211   9.728   7.333  0.2532 -0.2491  0.1753
   95POPC   GL1 1444   2.386   9.998   6.907  0.2247  0.0254  0.2154
   95POPC   GL2 1445   2.207  10.264   6.782 -0.0194  0.0614 -0.3010
   95POPC   C1A 1446   2.602  10.077   6.502  0.3349  0.2804 -0.0720
   95POPC   D2A 1447   2.626  10.063   6.098 -0.3196  0.1089  0.0362
   95POPC   C3A 1448   2.779  10.247   5.815 -0.0786 -0.0470 -0.0442
   95POPC   C4A 1449   2.962  10.370   5.400 -0.1141  0.0323 -0.0749
   95POPC   C1B 1450   2.112  10.216   6.397 -0.0332 -0.0180  0.2981
   95POPC   C2B 1451   2.021  10.441   6.046 -0.0375  0.1037  0.3839
   95POPC   C3B 1452   1.616  10.414   5.714 -0.1152  0.1307 -0.1228
   95POPC   C4B 1453   1.201  10.276   5.727 -0.1243  0.0159  0.0151
   96POPC   NC3 1454   3.860   4.966   7.102 -0.1240  0.1550 -0.2308
   96POPC   PO4 1455   4.208   4.734   7.051  0.2018 -0.1089  0.0818
   96POPC   GL1 1456   4.387   4.720   6.580  0.0219  0.1506  0.1023
   96POPC   GL2 1457   4.406   4.974   6.497 -0.4941  0.1833 -0.0132
   96POPC   C1A 1458   4.858   4.699   6.358  0.1033 -0.0640 -0.2504
   96POPC   D2A 1459   4.903   4.661   5.948 -0.1034  0.1830 -0.0380
   96POPC   C3A 1460   5.048   4.996   5.774  0.1473  0.0881  0.1633
   96POPC   C4A 1461   4.867   5.395   5.780 -0.3640  0.0726 -0.2371
   96POPC   C1B 1462   4.264   5.334   6.390  0.3025  0.0149 -0.1674
   96POPC   C2B 1463   4.572   5.740   6.175 -0.0395 -0.0908 -0.1319
   96POPC   C3B 1464   4.963   5.960   6.347 -0.1564 -0.1978  0.1876
   96POPC   C4B 1465   5.432   5.875   6.467 -0.0526 -0.2486  0.1369
   97POPC   NC3 1466   7.171   8.008   7.202  0.1227  0.2566 -0.2778
   97POPC   PO4 1467   6.883   7.600   7.233 -0.1705 -0.1712  0.0110
   97POPC   GL1 1468   6.568   7.511   6.962 -0.1244 -0.0520 -0.1364
   97POPC   GL2 1469   6.438   7.830   6.856 -0.3779  0.0973  0.1105
   97POPC   C1A 1470   6.513   7.540   6.487  0.1879  0.1793  0.0318
   97POPC   D2A 1471   6.631   7.467   6.116  0.0036 -0.1949 -0.0593
   97POPC   C3A 1472   7.057   7.670   5.992  0.0693 -0.1478 -0.1596
   97POPC   C4A 1473   7.490   7.666   5.832 -0.1225  0.0745 -0.4002
   97POPC   C1B 1474   6.416   8.014   6.435 -0.0029 -0.2590 -0.2633
   97POPC   C2B 1475   6.593   8.002   6.019 -0.3348  0.0960 -0.0148
   97POPC   C3B 1476   6.922   7.973   5.617  0.2064 -0.0931  0.2093
   97POPC   C4B 1477   7.370   8.065   5.515  0.0910  0.1088 -0.0388
   98POPC   NC3 1478   5.392   1.455   8.282  0.1707  0.0895 -0.0643
   98POPC   PO4 1479   5.575   1.125   8.020  0.0189  0.2541 -0.0089
   98POPC   GL1 1480   5.664   1.396   7.755 -0.3370 -0.0992  0.2198
   98POPC   GL2 1481   5.813   1.719   7.611  0.1051 -0.1149 -0.1620
   98POPC   C1A 1482   5.500   1.459   7.298  0.2056 -0.0111  0.0908
   98POPC   D2A 1483   5.254   1.231   6.861 -0.2617  0.0532  0.2578
   98POPC   C3A 1484   5.470   0.824   6.843 -0.2301  0.1080  0.0869
   98POPC   C4A 1485   5.729   0.535   6.533 -0.0283 -0.0024  0.0293
   98POPC   C1B 1486   5.510   1.998   7.828 -0.2083 -0.1754 -0.3236
   98POPC   C2B 1487   5.455   2.391   7.641  0.1877  0.1506  0.0247
   98POPC   C3B 1488   5.287   2.843   7.715 -0.2152  0.3417 -0.1473
   98POPC   C4B 1489   5.008   3.128   7.460  0.0465 -0.0034  0.1030
   99POPC   NC3 1490   8.927   6.046   7.902  0.1978  0.0088  0.1603
   99POPC   PO4 1491   9.200   6.110   7.394 -0.1082  0.0593  0.1057
   99POPC   GL1 1492   9.204   6.087   6.947  0.0074 -0.2155 -0.1759
   99POPC   GL2 1493   9.257   5.818   6.682 -0.1911 -0.3101 -0.0014
   99POPC   C1A 1494   8.940   6.201   6.645 -0.2397 -0.5098 -0.1150
   99POPC   D2A 1495   8.743   6.165   6.143 -0.1085  0.0141  0.0262
   99POPC   C3A 1496   8.249   6.155   5.995 -0.2200  0.0848  0.0225
   99POPC   C4A 1497   7.843   6.086   5.997 -0.2939 -0.0339  0.1503
   99POPC   C1B 1498   8.923   5.778   6.361 -0.0811  0.1464 -0.0115
   99POPC   C2B 1499   9.048   5.647   6.011 -0.5041 -0.0767 -0.1873
   99POPC   C3B 1500   8.864   5.446   5.660  0.4050  0.1838  0.2468
   99POPC   C4B 1501   8.567   5.099   5.595 -0.0269  0.0624 -0.0854
  100POPC   NC3 1502   9.470   8.337   7.188  0.0601 -0.1685  0.2637
  100POPC   PO4 1503   9.933   8.225   7.173 -0.0055 -0.1953  0.1790
  100POPC   GL1 1504  10.154   8.272   6.843  0.2155 -0.2694 -0.0772
  100POPC   GL2 1505  10.468   8.042   6.717 -0.0799 -0.0608  0.1759
  100POPC   C1A 1506  10.338   8.392   6.360 -0.2202  0.0290  0.1766
  100POPC   D2A 1507  10.196   8.387   6.032 -0.0719  0.1589 -0.0473
  100POPC   C3A 1508  10.398   8.442   5.604 -0.2213  0.0812  0.1851
  100POPC   C4A 1509  10.161   8.492   5.143 -0.2479 -0.1669 -0.1753
  100POPC   C1B 1510  10.445   7.886   6.292  0.2506  0.1380 -0.2739
  100POPC   C2B 1511  10.385   7.931   5.888  0.1624  0.0913 -0.1397
  100POPC   C3B 1512  10.277   7.519   5.593 -0.0925 -0.0393 -0.1090
  100POPC   C4B 1513  10.352   7.122   5.475  0.0140 -0.2988  0.1967
  101POPC   NC3 1514   1.778   0.342   7.367 -0.1634  0.1522  0.4247
  101POPC   PO4 1515   1.839   0.859   7.473 -0.0953  0.1940 -0.1509
  101POPC   GL1 1516   2.056   0.731   7.061  0.6183 -0.0760  0.2512
  101POPC   GL2 1517   2.372   0.833   6.899 -0.3547 -0.4025  0.1248
  101POPC   C1A 1518   2.132   0.457   6.671  0.2098 -0.1653 -0.0781
  101POPC   D2A 1519   2.327   0.311   6.337  0.0814 -0.2679  0.3851
  101POPC   C3A 1520   2.627   0.508   6.173  0.1181 -0.0972 -0.2286
  101POPC   C4A 1521   2.897   0.535   5.796  0.1623  0.0641 -0.1484
  101POPC   C1B 1522   2.650   1.103   6.644 -0.1489 -0.0215 -0.0936
  101POPC   C2B 1523   2.865   1.220   6.294 -0.1353 -0.1366 -0.0988
  101POPC   C3B 1524   3.041   0.979   5.993 -0.3537  0.0944  0.2361
  101POPC   C4B 1525   3.313   0.834   5.705 -0.0387  0.1688  0.0293
  102POPC   NC3 1526  10.208  10.031   7.223  0.0482 -0.0139  0.1529
  102POPC   PO4 1527  10.375  10.055   6.920  0.0087 -0.2970  0.5238
  102POPC   GL1 1528  10.117  10.118   6.636  0.0125  0.1965  0.6497
  102POPC   GL2 1529   9.767  10.188   6.757 -0.2123 -0.1935  0.0594
  102POPC   C1A 1530   9.886  10.390   6.323  0.0073 -0.1327 -0.0170
  102POPC   D2A 1531   9.912  10.737   6.075  0.2391  0.3977 -0.0202
  102POPC   C3A 1532   9.935  10.851   5.648 -0.0656 -0.0045  0.5031
  102POPC   C4A 1533  10.262  10.922   5.344 -0.0558 -0.1431 -0.1770
  102POPC   C1B 1534   9.629   9.930   6.392 -0.0757 -0.2631  0.4241
  102POPC   C2B 1535   9.388   9.909   5.961  0.1272 -0.1607 -0.2961
  102POPC   C3B 1536   9.463   9.990   5.418  0.3678  0.0370 -0.0758
  102POPC   C4B 1537   9.584  10.041   5.015 -0.2572 -0.2332  0.4263
  103POPC   NC3 1538   7.289   5.574   7.337 -0.1642 -0.0482 -0.2087
  103POPC   PO4 1539   7.659   5.787   7.180 -0.1510 -0.0007  0.2914
  103POPC   GL1 1540   7.348   5.850   6.821 -0.1954 -0.1205 -0.0456
  103POPC   GL2 1541   7.084   5.802   6.847  0.2333  0.2709 -0.0815
  103POPC   C1A 1542   7.480   5.860   6.407 -0.1138  0.1754 -0.0814
  103POPC   D2A 1543   7.582   5.438   6.147 -0.4583 -0.0346 -0.0638
  103POPC   C3A 1544   7.686   5.093   6.267 -0.2835  0.0585 -0.1408
  103POPC   C4A 1545   7.906   4.687   6.203  0.0409 -0.1284 -0.0791
  103POPC   C1B 1546   6.999   5.588   6.517  0.0043 -0.2064  0.0431
  103POPC   C2B 1547   6.888   5.503   6.168 -0.1862 -0.0947  0.2894
  103POPC   C3B 1548   6.734   5.514   5.832  0.0739  0.0240  0.1605
  103POPC   C4B 1549   6.621   5.703   5.462 -0.0057  0.0261  0.1233
  104POPC   NC3 1550   9.210   7.358   7.504 -0.0640  0.2980  0.3246
  104POPC   PO4 1551   9.041   7.558   7.079 -0.2386  0.0387 -0.1201
  104POPC   GL1 1552   9.168   7.459   6.665 -0.0719  0.2480 -0.1635
  104POPC   GL2 1553   9.537   7.409   6.627 -0.2075  0.4374  0.0039
  104POPC   C1A 1554   9.225   7.523   6.224  0.0691  0.1562 -0.1090
  104POPC   D2A 1555   9.399   7.717   5.831  0.0760 -0.2719  0.1412
  104POPC   C3A 1556   9.903   7.792   5.672 -0.0003 -0.1586  0.0314
  104POPC   C4A 1557  10.140   8.023   5.415 -0.0464  0.2475 -0.0529
  104POPC   C1B 1558   9.817   7.485   6.491 -0.2241 -0.3416 -0.0334
  104POPC   C2B 1559   9.800   7.722   6.155  0.3033 -0.1046  0.2560
  104POPC   C3B 1560   9.661   8.148   5.900 -0.1402  0.0191 -0.1071
  104POPC   C4B 1561   9.895   8.518   5.643  0.4816  0.1698 -0.1042
  105POPC   NC3 1562  10.459   6.688   7.276  0.0783 -0.2428  0.1734
  105POPC   PO4 1563  10.828   6.408   7.238 -0.0745 -0.0235  0.1112
  105POPC   GL1 1564  10.856   6.455   6.740  0.0021  0.1454  0.0134
  105POPC   GL2 1565  11.139   6.395   6.516  0.0237  0.0204  0.1341
  105POPC   C1A 1566  10.539   6.312   6.382 -0.0478 -0.0628  0.2323
  105POPC   D2A 1567  10.492   6.474   5.930  0.0759 -0.1464  0.1548
  105POPC   C3A 1568  10.257   6.296   5.610 -0.3237  0.1287  0.1362
  105POPC   C4A 1569  10.302   6.210   5.182  0.3396 -0.1219 -0.0239
  105POPC   C1B 1570  10.951   6.209   6.091 -0.2208  0.1459 -0.1119
  105POPC   C2B 1571  10.803   6.067   5.901 -0.1567 -0.3438 -0.1355
  105POPC   C3B 1572  10.589   5.956   5.538  0.2460 -0.1403  0.1319
  105POPC   C4B 1573  10.473   5.560   5.353  0.1781  0.1954 -0.1079
  106POPC   NC3 1574   4.978   7.962   7.376 -0.1848 -0.1628  0.1846
  106POPC   PO4 1575   5.365   7.799   7.219 -0.0922  0.0320 -0.1748
  106POPC   GL1 1576   5.221   7.961   6.856 -0.3839  0.1651 -0.1602
  106POPC   GL2 1577   4.928   7.974   6.901 -0.0521  0.2516 -0.5232
  106POPC   C1A 1578   5.074   8.054   6.416  0.0090  0.2587 -0.0552
  106POPC   D2A 1579   4.983   7.985   6.029 -0.0541 -0.0081  0.3582
  106POPC   C3A 1580   5.082   8.147   5.522  0.0744  0.0475  0.2773
  106POPC   C4A 1581   4.750   8.035   5.209  0.1366  0.4395 -0.0865
  106POPC   C1B 1582   4.703   7.799   6.657 -0.2309  0.1324  0.4363
  106POPC   C2B 1583   4.638   7.620   6.267 -0.0869  0.0267  0.3295
  106POPC   C3B 1584   4.714   7.395   5.882 -0.1194 -0.3506  0.2330
  106POPC   C4B 1585   4.692   7.489   5.501  0.1095  0.1204 -0.2197
  107POPC   NC3 1586   5.995   0.843   7.914 -0.1750 -0.1058 -0.0341
  107POPC   PO4 1587   6.203   0.564   8.106 -0.1377 -0.0212 -0.1487
  107POPC   GL1 1588   6.220   0.450   7.644  0.0042  0.3166  0.0787
  107POPC   GL2 1589   6.345   0.717   7.612 -0.2400 -0.0019  0.0840
  107POPC   C1A 1590   5.866   0.362   7.381  0.2660  0.0747  0.0331
  107POPC   D2A 1591   5.856   0.248   6.922  0.0104  0.2985  0.2181
  107POPC   C3A 1592   5.769  -0.122   6.796 -0.2586  0.0225  0.0592
  107POPC   C4A 1593   5.410  -0.168   6.465  0.1532 -0.0065 -0.0826
  107POPC   C1B 1594   6.462   1.036   7.411  0.0272  0.2846  0.0034
  107POPC   C2B 1595   6.354   1.083   7.087  0.0949  0.0395 -0.0460
  107POPC   C3B 1596   6.262   1.129   6.621  0.1495  0.0375  0.1366
  107POPC   C4B 1597   5.848   1.133   6.317  0.1004 -0.1875 -0.3759
  108POPC   NC3 1598   2.460   3.205   7.545  0.0766  0.0950 -0.2297
  108POPC   PO4 1599   2.557   2.938   7.123 -0.1757 -0.0637 -0.3959
  108POPC   GL1 1600   2.712   2.719   6.784  0.2642 -0.1044  0.3678
  108POPC   GL2 1601   2.654   2.328   6.814 -0.0246 -0.3248  0.0642
  108POPC   C1A 1602   2.485   2.745   6.428 -0.0193  0.3372 -0.2220
  108POPC   D2A 1603   2.338   2.844   6.006  0.0107  0.3222  0.0870
  108POPC   C3A 1604   2.236   2.583   5.649  0.1752  0.2182  0.2186
  108POPC   C4A 1605   2.235   2.414   5.217 -0.2890  0.0296  0.0694
  108POPC   C1B 1606   2.896   2.187   6.436  0.1802 -0.2081  0.2810
  108POPC   C2B 1607   3.070   2.140   6.035 -0.1731 -0.0235 -0.1274
  108POPC   C3B 1608   3.143   2.179   5.671 -0.4173 -0.0951 -0.2121
  108POPC   C4B 1609   3.211   2.242   5.255  0.1393  0.2249  0.2121
  109POPC   NC3 1610  10.361   1.225   7.013  0.1444 -0.0170  0.3263
  109POPC   PO4 1611  10.701   1.329   6.767  0.2624 -0.1184  0.0220
  109POPC   GL1 1612  10.460   1.538   6.545 -0.0848 -0.0490  0.1417
  109POPC   GL2 1613  10.166   1.691   6.693 -0.2354  0.1225 -0.0352
  109POPC   C1A 1614  10.541   1.635   6.030  0.0193 -0.2171  0.2304
  109POPC   D2A 1615  10.388   1.654   5.482  0.3414 -0.0887 -0.3938
  109POPC   C3A 1616  10.030   1.951   5.381 -0.2257  0.0181 -0.0923
  109POPC   C4A 1617  10.066   2.282   5.043 -0.1145  0.2278  0.1020
  109POPC   C1B 1618  10.121   1.903   6.293 -0.0040  0.0573  0.2103
  109POPC   C2B 1619  10.019   1.702   5.824  0.2122  0.0255 -0.4758
  109POPC   C3B 1620  10.081   1.294   5.701  0.1930 -0.2274  0.0724
  109POPC   C4B 1621  10.208   0.794   5.648 -0.1903  0.1332 -0.1561
  110POPC   NC3 1622   0.446   1.045   7.684 -0.2447 -0.1247  0.0283
  110POPC   PO4 1623   0.673   1.183   7.323  0.3507 -0.0443 -0.0021
  110POPC   GL1 1624   0.929   1.072   6.890  0.2026 -0.0886  0.1780
  110POPC   GL2 1625   0.987   0.742   6.923  0.0711 -0.2296  0.1690
  110POPC   C1A 1626   0.981   1.192   6.513  0.0435 -0.0787  0.1237
  110POPC   D2A 1627   1.060   1.048   6.087 -0.3553  0.1860 -0.1147
  110POPC   C3A 1628   0.795   0.982   5.765  0.0053 -0.0242 -0.0715
  110POPC   C4A 1629   0.782   0.695   5.448 -0.1483 -0.0597  0.2251
  110POPC   C1B 1630   1.166   0.653   6.436  0.1559 -0.2790 -0.1057
  110POPC   C2B 1631   1.481   1.017   6.338  0.1876  0.0684  0.0075
  110POPC   C3B 1632   1.821   1.076   6.175  0.1527 -0.1925 -0.0621
  110POPC   C4B 1633   1.922   1.141   5.850 -0.0840  0.1048  0.0157
  111POPC   NC3 1634   7.787   9.097   7.658  0.1445  0.2110 -0.0485
  111POPC   PO4 1635   7.983   8.918   7.309 -0.0887  0.2781  0.0465
  111POPC   GL1 1636   8.219   9.211   7.028  0.1646  0.0542  0.0220
  111POPC   GL2 1637   8.059   9.514   6.929  0.4467  0.1431  0.2887
  111POPC   C1A 1638   8.307   9.229   6.607  0.0644  0.0916  0.1415
  111POPC   D2A 1639   8.565   9.098   6.235  0.1727 -0.0573 -0.1540
  111POPC   C3A 1640   8.505   9.280   5.854  0.0559  0.2039 -0.0648
  111POPC   C4A 1641   8.279   9.031   5.435  0.2014  0.3783 -0.0220
  111POPC   C1B 1642   8.204   9.696   6.547 -0.0196  0.0127 -0.0226
  111POPC   C2B 1643   8.282   9.724   6.117  0.1251  0.3005  0.1057
  111POPC   C3B 1644   8.503   9.799   5.722  0.0013  0.0841  0.1532
  111POPC   C4B 1645   8.613   9.484   5.406  0.2182  0.2689  0.2498
  112POPC   NC3 1646   5.331   5.561   7.264  0.0019  0.0717 -0.0095
  112POPC   PO4 1647   5.128   5.117   7.365  0.0608  0.2112 -0.3898
  112POPC   GL1 1648   5.318   4.912   6.959  0.1423 -0.1087  0.3292
  112POPC   GL2 1649   5.718   4.958   6.862 -0.0881 -0.2917  0.2677
  112POPC   C1A 1650   5.266   4.856   6.611  0.3090 -0.0535  0.1186
  112POPC   D2A 1651   5.292   4.942   6.214 -0.0787 -0.2917 -0.3756
  112POPC   C3A 1652   5.346   5.268   6.049  0.0695 -0.0021 -0.1270
  112POPC   C4A 1653   5.221   5.631   6.097 -0.0461 -0.2766  0.0754
  112POPC   C1B 1654   5.643   4.549   6.544 -0.3448  0.1252 -0.1146
  112POPC   C2B 1655   5.778   4.241   6.097  0.0903 -0.0343 -0.0613
  112POPC   C3B 1656   5.738   4.028   5.665 -0.1771 -0.2448 -0.0227
  112POPC   C4B 1657   5.351   3.927   5.518  0.0419  0.1929  0.1421
  113POPC   NC3 1658   9.476  10.510   7.061  0.0843  0.0048  0.0581
  113POPC   PO4 1659   9.970  10.553   7.089  0.1797  0.2477 -0.1313
  113POPC   GL1 1660   9.939  10.766   6.707  0.1644 -0.0195 -0.1655
  113POPC   GL2 1661   9.606  10.754   6.573 -0.1200 -0.2778  0.0905
  113POPC   C1A 1662  10.276  11.061   6.474  0.2411  0.1548  0.0773
  113POPC   D2A 1663  10.686  11.218   6.479  0.0303  0.0639 -0.2296
  113POPC   C3A 1664  10.829  11.595   6.357 -0.0581  0.1854  0.2979
  113POPC   C4A 1665  10.932  12.017   6.097  0.0338 -0.1376 -0.0149
  113POPC   C1B 1666   9.121  10.768   6.298 -0.3021  0.0255 -0.1041
  113POPC   C2B 1667   8.859  10.991   6.268 -0.1798  0.2983 -0.0590
  113POPC   C3B 1668   8.659  11.209   6.034  0.2249  0.0183 -0.0385
  113POPC   C4B 1669   8.708  11.529   5.755  0.0101 -0.3409  0.1076
  114POPC   NC3 1670   0.379   7.317   7.012 -0.0290 -0.1061 -0.2405
  114POPC   PO4 1671   0.200   6.963   7.163  0.2080 -0.0177 -0.1433
  114POPC   GL1 1672   0.090   7.012   6.798  0.2301  0.0475  0.4529
  114POPC   GL2 1673   0.421   6.943   6.649  0.0041 -0.0734  0.0475
  114POPC   C1A 1674  -0.038   6.945   6.408  0.3589  0.4102  0.0117
  114POPC   D2A 1675  -0.277   7.020   6.061  0.0018  0.3810 -0.2015
  114POPC   C3A 1676  -0.663   7.342   6.020  0.1671  0.2237 -0.2353
  114POPC   C4A 1677  -0.956   7.312   5.708  0.1849 -0.0893 -0.3149
  114POPC   C1B 1678   0.606   6.743   6.240 -0.2202  0.2651  0.0325
  114POPC   C2B 1679   0.245   6.731   5.991  0.1913 -0.0007  0.0365
  114POPC   C3B 1680  -0.012   6.865   5.642  0.1385  0.2404 -0.0038
  114POPC   C4B 1681   0.206   6.806   5.205  0.0414 -0.1424  0.1735
  115POPC   NC3 1682   7.029   1.751   8.028 -0.0417 -0.0338  0.1668
  115POPC   PO4 1683   6.741   2.047   7.767 -0.1100  0.4345 -0.1339
  115POPC   GL1 1684   6.516   2.043   7.387 -0.1203  0.0180  0.0502
  115POPC   GL2 1685   6.166   1.932   7.363 -0.1536  0.0650  0.2029
  115POPC   C1A 1686   6.263   2.121   6.945  0.0741  0.0205  0.0622
  115POPC   D2A 1687   6.211   2.215   6.516 -0.0888 -0.0446 -0.0491
  115POPC   C3A 1688   5.840   2.419   6.411 -0.2068  0.1883 -0.0601
  115POPC   C4A 1689   5.417   2.419   6.382 -0.2665 -0.1173  0.4016
  115POPC   C1B 1690   5.916   1.616   7.074  0.0583  0.0105 -0.2483
  115POPC   C2B 1691   5.771   1.224   6.943 -0.1174  0.2313  0.1428
  115POPC   C3B 1692   6.004   0.748   6.927 -0.0179  0.2183  0.2181
  115POPC   C4B 1693   6.318   0.444   7.034 -0.1263  0.0192 -0.0381
  116POPC   NC3 1694   8.773   0.530   7.314  0.1595  0.0169 -0.2901
  116POPC   PO4 1695   9.203   0.362   7.272  0.1392  0.1256  0.3833
  116POPC   GL1 1696   9.213   0.505   6.830  0.0581 -0.0733  0.0877
  116POPC   GL2 1697   9.373   0.385   6.499  0.1767 -0.3149 -0.0682
  116POPC   C1A 1698   9.100   0.801   6.543 -0.1353 -0.2977 -0.2337
  116POPC   D2A 1699   9.253   1.187   6.513  0.3969  0.1842  0.0109
  116POPC   C3A 1700   9.437   1.261   6.123 -0.0497 -0.3339  0.1089
  116POPC   C4A 1701   9.514   1.462   5.691  0.2812 -0.1308  0.0134
  116POPC   C1B 1702   9.753   0.441   6.257 -0.2652  0.0729 -0.1561
  116POPC   C2B 1703  10.224   0.427   5.970  0.0141  0.2169  0.0619
  116POPC   C3B 1704  10.580   0.338   5.674  0.0088 -0.0110 -0.1554
  116POPC   C4B 1705  10.855   0.477   5.397 -0.3527  0.0652 -0.0827
  117POPC   NC3 1706   0.712   5.908   7.112  0.0686 -0.0309 -0.2738
  117POPC   PO4 1707   0.333   6.049   6.916 -0.3308  0.3164 -0.1942
  117POPC   GL1 1708   0.025   5.938   6.543 -0.1599 -0.0002 -0.1914
  117POPC   GL2 1709  -0.352   5.811   6.628 -0.1832 -0.0565  0.1161
  117POPC   C1A 1710  -0.003   5.687   6.229 -0.4574 -0.0804  0.0237
  117POPC   D2A 1711   0.249   5.487   5.876 -0.2574  0.1882 -0.0661
  117POPC   C3A 1712   0.823   5.345   5.971 -0.0652  0.4225 -0.2855
  117POPC   C4A 1713   1.286   5.267   5.798  0.0545  0.0386  0.1330
  117POPC   C1B 1714  -0.467   5.932   6.141 -0.0625  0.3472 -0.0155
  117POPC   C2B 1715  -0.679   5.849   5.801 -0.1615  0.0288 -0.4121
  117POPC   C3B 1716  -0.834   5.804   5.414 -0.1602  0.0777 -0.1948
  117POPC   C4B 1717  -1.188   5.575   5.186 -0.0452  0.1656 -0.2754
  118POPC   NC3 1718  10.077   3.122   7.126  0.3583  0.2616  0.0606
  118POPC   PO4 1719  10.123   3.551   7.059  0.1937  0.2638 -0.1764
  118POPC   GL1 1720  10.029   3.701   6.764 -0.2365  0.0434 -0.0462
  118POPC   GL2 1721   9.858   3.922   6.701  0.1127 -0.1572  0.0948
  118POPC   C1A 1722  10.164   3.894   6.274  0.2444 -0.1409  0.1387
  118POPC   D2A 1723   9.871   4.167   6.122  0.2651 -0.3945  0.2241
  118POPC   C3A 1724   9.583   4.117   5.807 -0.0242 -0.2321 -0.0557
  118POPC   C4A 1725   9.257   3.888   5.742 -0.0892  0.0461  0.3184
  118POPC   C1B 1726   9.715   3.701   6.304 -0.2573  0.0726  0.4855
  118POPC   C2B 1727   9.550   3.563   5.981 -0.0784  0.0806  0.0876
  118POPC   C3B 1728   9.743   3.725   5.569  0.1482 -0.0161  0.2912
  118POPC   C4B 1729   9.665   4.050   5.281  0.2061  0.0689  0.3116
  119POPC   NC3 1730   3.675   8.306   7.173 -0.1815  0.2951 -0.0810
  119POPC   PO4 1731   3.679   7.821   6.990 -0.0028  0.4328 -0.1932
  119POPC   GL1 1732   3.650   7.676   6.574 -0.0212 -0.1115  0.3344
  119POPC   GL2 1733   3.817   7.356   6.580  0.1114  0.0889  0.1182
  119POPC   C1A 1734   3.983   7.696   6.260  0.1283  0.0574 -0.0759
  119POPC   D2A 1735   4.250   7.725   5.945 -0.1061  0.1108 -0.0504
  119POPC   C3A 1736   4.044   7.673   5.513 -0.0076  0.2417  0.1140
  119POPC   C4A 1737   3.802   7.951   5.351  0.0545  0.1557  0.0696
  119POPC   C1B 1738   3.623   7.322   6.238  0.4409  0.1986 -0.0648
  119POPC   C2B 1739   3.755   7.380   5.852  0.0097 -0.3391  0.3969
  119POPC   C3B 1740   3.554   7.486   5.400 -0.2045  0.3317  0.0504
  119POPC   C4B 1741   3.380   7.546   4.937 -0.0492  0.1194  0.0448
  120POPC   NC3 1742   3.856   4.424   7.239  0.3492 -0.2023  0.2844
  120POPC   PO4 1743   3.555   4.187   7.100  0.3623  0.2117  0.1033
  120POPC   GL1 1744   3.412   4.167   6.764  0.3689  0.1383  0.3094
  120POPC   GL2 1745   3.325   3.783   6.683 -0.2265 -0.0924 -0.1741
  120POPC   C1A 1746   3.619   4.408   6.361 -0.3657  0.1067  0.0370
  120POPC   D2A 1747   3.516   4.481   5.989 -0.0260 -0.2482 -0.1981
  120POPC   C3A 1748   3.502   4.356   5.498 -0.0092 -0.0054  0.0994
  120POPC   C4A 1749   3.633   3.940   5.311 -0.0231 -0.1088 -0.0171
  120POPC   C1B 1750   3.422   3.656   6.277 -0.2456 -0.3150  0.1218
  120POPC   C2B 1751   3.318   3.228   6.023  0.0544  0.1448 -0.0033
  120POPC   C3B 1752   3.137   2.852   5.838 -0.1215 -0.1284  0.6165
  120POPC   C4B 1753   3.094   2.779   5.441 -0.1183 -0.1891 -0.2486
  121POPC   NC3 1754   7.594   7.007   7.284 -0.0988  0.1118 -0.0339
  121POPC   PO4 1755   7.909   7.125   7.238 -0.0546 -0.1070 -0.3000
  121POPC   GL1 1756   8.231   7.185   6.888 -0.0152  0.3299 -0.2555
  121POPC   GL2 1757   8.564   7.395   6.761  0.3138  0.0054  0.0098
  121POPC   C1A 1758   8.293   7.080   6.415 -0.4145 -0.0328  0.0134
  121POPC   D2A 1759   8.403   7.196   5.965 -0.2465 -0.2438  0.3402
  121POPC   C3A 1760   8.764   7.046   5.841 -0.1910  0.0773  0.0150
  121POPC   C4A 1761   8.898   7.302   5.460 -0.2742  0.0393  0.0666
  121POPC   C1B 1762   8.707   7.513   6.345 -0.0176  0.0730  0.1420
  121POPC   C2B 1763   8.815   7.544   5.907 -0.3701  0.0312 -0.1259
  121POPC   C3B 1764   8.927   7.861   5.715 -0.0110  0.2405 -0.1297
  121POPC   C4B 1765   9.332   8.093   5.504 -0.0970 -0.2252  0.0559
  122POPC   NC3 1766  10.410   4.010   6.973  0.0699  0.0399  0.1542
  122POPC   PO4 1767  10.698   4.389   7.006 -0.2584  0.0435  0.0979
  122POPC   GL1 1768  10.673   4.212   6.537 -0.0992  0.0404 -0.2388
  122POPC   GL2 1769  10.305   4.380   6.509 -0.1936 -0.1688 -0.0268
  122POPC   C1A 1770  10.667   4.035   6.137  0.1285  0.3676  0.3061
  122POPC   D2A 1771  11.091   4.082   5.981  0.0564  0.5241 -0.2333
  122POPC   C3A 1772  11.429   4.381   6.012 -0.0112  0.1078  0.1792
  122POPC   C4A 1773  11.795   4.188   5.745 -0.1513 -0.1693 -0.1749
  122POPC   C1B 1774  10.362   4.487   6.088 -0.1544  0.1761 -0.2452
  122POPC   C2B 1775  10.505   4.464   5.711 -0.1761  0.2314  0.0691
  122POPC   C3B 1776  10.380   4.378   5.205  0.0537  0.1337  0.2022
  122POPC   C4B 1777  10.557   4.165   4.917  0.2437  0.0773 -0.2173
  123POPC   NC3 1778   9.637   9.993   7.922 -0.0096  0.2130 -0.1279
  123POPC   PO4 1779   9.885   9.736   7.560 -0.3596  0.1547 -0.1230
  123POPC   GL1 1780  10.066   9.499   7.117 -0.0080  0.0877  0.1167
  123POPC   GL2 1781  10.019   9.701   6.884 -0.1703 -0.1985 -0.3683
  123POPC   C1A 1782   9.814   9.044   6.948 -0.1228 -0.0481  0.0613
  123POPC   D2A 1783   9.784   8.632   6.694 -0.0501 -0.1059  0.2577
  123POPC   C3A 1784   9.424   8.498   6.542 -0.0348  0.1524  0.1750
  123POPC   C4A 1785   9.268   8.578   6.166 -0.1232 -0.0518  0.0275
  123POPC   C1B 1786   9.812   9.472   6.603  0.0076 -0.0994  0.1137
  123POPC   C2B 1787   9.847   9.452   6.110  0.0538  0.0374 -0.0551
  123POPC   C3B 1788  10.009   9.321   5.805 -0.2023 -0.1911  0.0111
  123POPC   C4B 1789  10.112   8.913   5.858  0.1052  0.1921  0.2032
  124POPC   NC3 1790   2.755   6.961   7.539  0.1440  0.1500  0.0557
  124POPC   PO4 1791   2.601   6.803   7.071  0.0478 -0.3723  0.0370
  124POPC   GL1 1792   2.392   6.929   6.822 -0.0934 -0.1377  0.4300
  124POPC   GL2 1793   2.104   7.079   6.892 -0.3328  0.0518  0.0504
  124POPC   C1A 1794   2.312   6.956   6.359 -0.0488 -0.1786  0.3092
  124POPC   D2A 1795   2.318   6.825   5.859 -0.1090  0.1518 -0.3410
  124POPC   C3A 1796   2.017   6.638   5.584 -0.3665 -0.2694 -0.0812
  124POPC   C4A 1797   1.654   6.715   5.621  0.1688 -0.2050 -0.0521
  124POPC   C1B 1798   2.190   7.350   6.580  0.1000  0.0744  0.0085
  124POPC   C2B 1799   2.199   7.485   6.224 -0.0508  0.0983 -0.2475
  124POPC   C3B 1800   2.015   7.253   5.906  0.0230  0.1728  0.3439
  124POPC   C4B 1801   1.979   7.120   5.425  0.0336 -0.0107 -0.2747
  125POPC   NC3 1802   3.143   2.553   8.077 -0.0057  0.1094  0.1560
  125POPC   PO4 1803   3.288   2.487   7.619  0.1271  0.3161 -0.0408
  125POPC   GL1 1804   3.351   2.527   7.226  0.2610  0.1900  0.0401
  125POPC   GL2 1805   3.288   2.818   7.176 -0.0415 -0.1706  0.2826
  125POPC   C1A 1806   3.254   2.321   6.866  0.1096 -0.0451  0.3376
  125POPC   D2A 1807   3.213   1.905   6.748 -0.2511 -0.1194 -0.4473
  125POPC   C3A 1808   3.316   1.553   7.021 -0.0527  0.0908 -0.2112
  125POPC   C4A 1809   3.466   1.160   7.118 -0.4130  0.1245 -0.1749
  125POPC   C1B 1810   3.231   2.917   6.806  0.0166 -0.1540  0.3445
  125POPC   C2B 1811   3.414   3.176   6.517  0.0147 -0.0436  0.0368
  125POPC   C3B 1812   3.806   3.332   6.239 -0.0606  0.0157 -0.0626
  125POPC   C4B 1813   4.241   3.406   5.991 -0.0689 -0.0342  0.1087
  126POPC   NC3 1814   5.407   8.256   7.342  0.2280  0.2625  0.0023
  126POPC   PO4 1815   5.363   8.715   7.451 -0.0552  0.1465 -0.1389
  126POPC   GL1 1816   5.420   8.887   7.062 -0.1629  0.1978  0.1560
  126POPC   GL2 1817   5.194   9.180   7.015 -0.2646 -0.1344 -0.0240
  126POPC   C1A 1818   5.522   8.869   6.679  0.0508  0.3245  0.1108
  126POPC   D2A 1819   5.369   8.661   6.305 -0.0687  0.0142  0.0515
  126POPC   C3A 1820   5.432   8.265   6.061 -0.3054 -0.0963  0.2218
  126POPC   C4A 1821   5.592   8.257   5.609 -0.2535  0.4080 -0.1073
  126POPC   C1B 1822   5.182   9.232   6.584  0.0995 -0.1681  0.1118
  126POPC   C2B 1823   5.476   9.172   6.251  0.0965 -0.1392 -0.0169
  126POPC   C3B 1824   5.352   8.985   5.906  0.2598 -0.0590 -0.1864
  126POPC   C4B 1825   5.171   8.618   5.775  0.1881  0.2361 -0.2842
  127POPC   NC3 1826   2.758   1.961   7.123 -0.1628 -0.0654 -0.1751
  127POPC   PO4 1827   2.576   1.550   7.291  0.0677  0.0008  0.0479
  127POPC   GL1 1828   2.463   1.623   6.868 -0.0089  0.1434 -0.1029
  127POPC   GL2 1829   2.284   1.408   6.840 -0.3848 -0.3148 -0.1200
  127POPC   C1A 1830   2.554   1.763   6.441  0.1860  0.1289 -0.1640
  127POPC   D2A 1831   2.663   1.853   5.983 -0.1419  0.0680 -0.1944
  127POPC   C3A 1832   2.504   2.061   5.671  0.3044 -0.0462  0.3641
  127POPC   C4A 1833   2.358   1.951   5.223  0.2025  0.2574 -0.2124
  127POPC   C1B 1834   2.185   1.396   6.392  0.0504 -0.1826  0.4643
  127POPC   C2B 1835   2.310   1.571   5.915 -0.1285  0.2598  0.0462
  127POPC   C3B 1836   2.291   1.510   5.497 -0.1805 -0.2232 -0.1112
  127POPC   C4B 1837   2.057   1.204   5.394 -0.1090 -0.2196 -0.1368
  128POPC   NC3 1838   1.966   9.757   6.905 -0.1456 -0.2547  0.0508
  128POPC   PO4 1839   1.467   9.752   6.895 -0.1872  0.1193 -0.0266
  128POPC   GL1 1840   1.713   9.708   6.483  0.3066 -0.1670  0.1737
  128POPC   GL2 1841   2.030   9.427   6.443  0.0953  0.0809 -0.1636
  128POPC   C1A 1842   1.882   9.933   6.080  0.1927  0.0368  0.1570
  128POPC   D2A 1843   2.091  10.135   5.644 -0.0934  0.0340  0.2015
  128POPC   C3A 1844   1.993  10.060   5.274 -0.4507  0.0146 -0.0661
  128POPC   C4A 1845   2.183   9.968   4.907 -0.3279  0.1773  0.0129
  128POPC   C1B 1846   2.278   9.725   6.275 -0.0197  0.1503 -0.1272
  128POPC   C2B 1847   2.357   9.750   5.828  0.0008  0.0258  0.0766
  128POPC   C3B 1848   2.611   9.905   5.488  0.1446 -0.1215 -0.0711
  128POPC   C4B 1849   2.490  10.130   5.219 -0.3968 -0.0876  0.0157
  129POPC   NC3 1850   1.801  10.353   7.038  0.1621  0.1784  0.0707
  129POPC   PO4 1851   1.623  10.716   7.124 -0.0688 -0.4076  0.1079
  129POPC   GL1 1852   1.838  10.865   6.707  0.1817 -0.2199 -0.3591
  129POPC   GL2 1853   1.782  10.604   6.637  0.0285 -0.3068 -0.0807
  129POPC   C1A 1854   1.865  10.920   6.183  0.4949  0.1754  0.1032
  129POPC   D2A 1855   1.736  10.937   5.751  0.0997 -0.0167 -0.1048
  129POPC   C3A 1856   2.121  10.731   5.574  0.1405 -0.0967  0.0179
  129POPC   C4A 1857   2.484  10.602   5.468  0.0285  0.4264 -0.1157
  129POPC   C1B 1858   1.552  10.410   6.203 -0.6140  0.1279  0.0615
  129POPC   C2B 1859   1.376   9.991   6.143 -0.1824  0.3268 -0.1803
  129POPC   C3B 1860   1.548   9.546   6.074 -0.1245  0.0702  0.0232
  129POPC   C4B 1861   1.940   9.491   5.906  0.1175 -0.1511 -0.1986
  130POPC   NC3 1862   4.817   1.100   8.366  0.0243 -0.0289 -0.1935
  130POPC   PO4 1863   4.904   1.561   8.389  0.3019 -0.2329  0.2315
  130POPC   GL1 1864   4.770   1.471   7.959 -0.0857  0.2502  0.3569
  130POPC   GL2 1865   5.098   1.373   7.929  0.2225  0.1372 -0.0439
  130POPC   C1A 1866   4.673   1.547   7.537  0.2800 -0.2752 -0.2055
  130POPC   D2A 1867   4.808   1.478   7.178  0.0349  0.2691  0.3735
  130POPC   C3A 1868   5.139   1.709   7.000 -0.2882  0.2190  0.0857
  130POPC   C4A 1869   5.535   1.925   7.037  0.2061  0.1548 -0.1118
  130POPC   C1B 1870   5.106   1.207   7.487  0.2225 -0.0606 -0.0260
  130POPC   C2B 1871   5.302   0.830   7.328 -0.1909  0.0740 -0.0841
  130POPC   C3B 1872   5.423   0.383   7.088 -0.0194  0.1402 -0.2192
  130POPC   C4B 1873   5.278  -0.049   7.127 -0.1622  0.1918 -0.0336
  131POPC   NC3 1874   1.445   6.055   7.202  0.1434 -0.3457  0.1414
  131POPC   PO4 1875   1.030   6.301   7.104  0.3305 -0.1847 -0.0807
  131POPC   GL1 1876   0.780   6.240   6.751  0.1676  0.2914  0.3507
  131POPC   GL2 1877   0.849   6.340   6.441  0.1508 -0.2838  0.1296
  131POPC   C1A 1878   0.730   5.857   6.424 -0.1168 -0.0067  0.1354
  131POPC   D2A 1879   0.581   5.816   6.078  0.1684 -0.0993 -0.3835
  131POPC   C3A 1880   0.505   5.799   5.587  0.0101  0.0584  0.0338
  131POPC   C4A 1881   0.511   5.790   5.110  0.1801 -0.1762  0.0216
  131POPC   C1B 1882   1.015   6.302   6.103  0.0947 -0.0978  0.0491
  131POPC   C2B 1883   0.745   6.315   5.726 -0.1211  0.0825  0.0644
  131POPC   C3B 1884   0.318   6.352   5.632 -0.0213  0.1863  0.3810
  131POPC   C4B 1885  -0.049   6.393   5.418  0.0437  0.2135 -0.0298
  132POPC   NC3 1886   2.906   3.355   7.299 -0.1803 -0.0051  0.0421
  132POPC   PO4 1887   2.518   3.677   7.460  0.0710 -0.0435 -0.0489
  132POPC   GL1 1888   2.594   3.590   6.972 -0.2403 -0.3732  0.3540
  132POPC   GL2 1889   2.430   3.792   6.667  0.0195 -0.1834 -0.1075
  132POPC   C1A 1890   2.849   3.596   6.532  0.1076 -0.0536  0.0500
  132POPC   D2A 1891   2.936   3.619   6.045 -0.0047 -0.1536 -0.0691
  132POPC   C3A 1892   2.675   3.544   5.569 -0.2567 -0.0330 -0.0531
  132POPC   C4A 1893   2.804   3.645   5.128  0.1483  0.1486  0.0786
  132POPC   C1B 1894   2.517   3.812   6.242  0.0382 -0.4711  0.3809
  132POPC   C2B 1895   2.599   3.997   5.788  0.4618  0.1281  0.1112
  132POPC   C3B 1896   2.604   4.079   5.345  0.0759 -0.0618 -0.1324
  132POPC   C4B 1897   2.629   4.167   5.019  0.2637 -0.4880  0.1587
  133POPC   NC3 1898   3.228   3.974   7.909  0.1865  0.1141  0.3317
  133POPC   PO4 1899   3.316   3.771   7.448 -0.1145  0.1142 -0.1674
  133POPC   GL1 1900   3.720   3.709   7.095 -0.1122 -0.3708  0.1614
  133POPC   GL2 1901   3.875   3.326   7.086  0.1676  0.2334  0.0089
  133POPC   C1A 1902   3.813   3.652   6.652 -0.0089  0.1161 -0.1257
  133POPC   D2A 1903   3.799   3.945   6.274 -0.2263 -0.3179  0.1038
  133POPC   C3A 1904   3.828   3.820   5.902  0.1164 -0.1175 -0.2285
  133POPC   C4A 1905   3.671   3.463   5.663 -0.1065 -0.2455 -0.3023
  133POPC   C1B 1906   3.908   3.125   6.698 -0.1276  0.1325 -0.4367
  133POPC   C2B 1907   4.002   2.888   6.392  0.0707  0.1849 -0.1048
  133POPC   C3B 1908   3.835   2.910   5.983  0.1776  0.1399  0.4262
  133POPC   C4B 1909   3.538   2.961   5.573 -0.2753 -0.0754  0.0222
  134POPC   NC3 1910   2.102   3.481   7.239  0.0777  0.0122 -0.0747
  134POPC   PO4 1911   1.726   3.351   7.144 -0.1380 -0.0171  0.0130
  134POPC   GL1 1912   1.909   3.558   6.818  0.0577  0.0811  0.2564
  134POPC   GL2 1913   1.736   3.287   6.612  0.0651 -0.0410  0.1409
  134POPC   C1A 1914   2.148   3.488   6.404 -0.2193 -0.2317 -0.0096
  134POPC   D2A 1915   2.419   3.393   6.034  0.0043 -0.1083 -0.0218
  134POPC   C3A 1916   2.749   3.136   5.999 -0.1011  0.0466 -0.0787
  134POPC   C4A 1917   2.615   2.962   5.597 -0.4659 -0.2340  0.2718
  134POPC   C1B 1918   1.418   3.282   6.381  0.0242 -0.1427 -0.0073
  134POPC   C2B 1919   1.122   3.561   6.398  0.1683  0.2482  0.2610
  134POPC   C3B 1920   0.774   3.705   6.172 -0.0939 -0.0145 -0.0715
  134POPC   C4B 1921   0.647   3.774   5.769  0.1978 -0.0023 -0.2048
  135POPC   NC3 1922   3.359   7.457   6.968 -0.3528 -0.3315 -0.3649
  135POPC   PO4 1923   2.999   7.114   7.082 -0.1280  0.3413 -0.1350
  135POPC   GL1 1924   2.925   6.801   6.752 -0.0850  0.0170  0.1910
  135POPC   GL2 1925   3.134   6.543   6.658  0.0002  0.0646 -0.1612
  135POPC   C1A 1926   2.786   6.770   6.387  0.0975 -0.0942 -0.0289
  135POPC   D2A 1927   2.774   6.647   5.958  0.1455  0.0785 -0.0605
  135POPC   C3A 1928   2.993   6.950   5.737  0.1632  0.1324  0.4371
  135POPC   C4A 1929   3.430   7.089   5.636 -0.0138  0.2749 -0.2506
  135POPC   C1B 1930   3.265   6.568   6.247 -0.1650  0.0581  0.1640
  135POPC   C2B 1931   3.308   6.560   5.822 -0.1309  0.0462 -0.0053
  135POPC   C3B 1932   3.029   6.553   5.441  0.1257 -0.0435 -0.0379
  135POPC   C4B 1933   2.846   6.659   5.100 -0.0897 -0.0659  0.0305
  136POPC   NC3 1934   0.191   5.108   7.316  0.1502 -0.1817  0.0152
  136POPC   PO4 1935   0.419   5.482   7.278 -0.2417 -0.1004  0.2176
  136POPC   GL1 1936   0.448   5.334   6.923 -0.2668 -0.2848 -0.1132
  136POPC   GL2 1937   0.343   5.575   6.647 -0.0198  0.2897 -0.0114
  136POPC   C1A 1938   0.813   5.404   6.670  0.3636  0.0261 -0.0433
  136POPC   D2A 1939   0.994   5.440   6.427 -0.1126  0.1925 -0.0651
  136POPC   C3A 1940   1.161   5.066   6.248 -0.0721  0.3956  0.0519
  136POPC   C4A 1941   1.198   4.578   6.167  0.4061 -0.0352 -0.2159
  136POPC   C1B 1942   0.466   5.240   6.289 -0.1860 -0.2095 -0.0773
  136POPC   C2B 1943   0.414   5.017   5.900  0.2251  0.0694 -0.2597
  136POPC   C3B 1944   0.621   5.272   5.526  0.2633 -0.0369  0.0067
  136POPC   C4B 1945   0.755   5.285   5.078  0.1841  0.0979 -0.3133
  137POPC   NC3 1946   5.191   4.609   7.355  0.1095 -0.0590 -0.0403
  137POPC   PO4 1947   4.746   4.437   7.404  0.1100  0.2356 -0.1062
  137POPC   GL1 1948   4.679   4.065   7.140 -0.2908 -0.0517  0.1627
  137POPC   GL2 1949   4.545   4.258   6.952 -0.0292 -0.2116  0.2192
  137POPC   C1A 1950   4.697   3.778   6.799 -0.0892 -0.0653  0.0250
  137POPC   D2A 1951   4.800   3.597   6.451 -0.1388  0.1323  0.0362
  137POPC   C3A 1952   4.974   3.312   6.434  0.1417 -0.1062  0.0996
  137POPC   C4A 1953   5.273   2.951   6.274 -0.1926  0.0728 -0.0683
  137POPC   C1B 1954   4.584   4.268   6.510  0.1196  0.1453  0.0393
  137POPC   C2B 1955   4.851   4.204   6.228 -0.1485 -0.0599  0.3212
  137POPC   C3B 1956   5.017   3.909   5.891  0.1990  0.0743  0.1737
  137POPC   C4B 1957   4.821   3.483   5.926  0.1748 -0.1148  0.4192
  138POPC   NC3 1958   6.417   7.243   7.309  0.1680 -0.0492 -0.1483
  138POPC   PO4 1959   5.989   7.150   7.153 -0.0188  0.1195 -0.1773
  138POPC   GL1 1960   6.326   7.009   6.827  0.2068  0.3045 -0.3481
  138POPC   GL2 1961   6.621   6.850   7.035 -0.0007 -0.1404 -0.0663
  138POPC   C1A 1962   6.395   7.092   6.375 -0.0853  0.2030  0.0973
  138POPC   D2A 1963   6.493   6.867   6.003  0.1863 -0.4776 -0.2962
  138POPC   C3A 1964   6.480   7.179   5.646  0.0380  0.4520  0.0286
  138POPC   C4A 1965   6.127   7.324   5.459  0.1708  0.1309  0.1304
  138POPC   C1B 1966   6.792   7.135   6.714  0.2200  0.0665  0.0297
  138POPC   C2B 1967   6.903   7.093   6.280 -0.0503 -0.1447 -0.2933
  138POPC   C3B 1968   6.996   7.225   5.820 -0.3739 -0.0290 -0.3782
  138POPC   C4B 1969   6.952   7.199   5.379  0.0621 -0.1884  0.0065
  139POPC   NC3 1970   8.115   0.422   8.042 -0.1263 -0.1448  0.0139
  139POPC   PO4 1971   7.979   0.382   7.668  0.0248  0.1550 -0.2973
  139POPC   GL1 1972   7.719   0.523   7.348  0.2538 -0.3113  0.2257
  139POPC   GL2 1973   7.498   0.336   7.331 -0.0634  0.2049 -0.1248
  139POPC   C1A 1974   7.737   0.591   6.871  0.1999 -0.0255 -0.0584
  139POPC   D2A 1975   8.012   0.640   6.561  0.0897  0.2152  0.0910
  139POPC   C3A 1976   8.034   0.328   6.258  0.3826 -0.1811  0.1172
  139POPC   C4A 1977   8.050   0.302   5.831  0.1572 -0.0766 -0.3083
  139POPC   C1B 1978   7.281   0.460   7.023 -0.0720 -0.1652 -0.0003
  139POPC   C2B 1979   6.991   0.555   6.746 -0.2474  0.0305  0.2778
  139POPC   C3B 1980   6.979   0.955   6.474 -0.2701  0.0251  0.0473
  139POPC   C4B 1981   6.878   0.965   6.036 -0.1004  0.1138  0.1246
  140POPC   NC3 1982   8.828   3.072   7.246  0.2372  0.2164  0.2670
  140POPC   PO4 1983   9.008   2.658   7.349 -0.1194 -0.0235 -0.3312
  140POPC   GL1 1984   8.763   2.579   7.000  0.1352  0.3878  0.1560
  140POPC   GL2 1985   8.606   2.270   6.910 -0.3730 -0.1080  0.1012
  140POPC   C1A 1986   8.586   2.649   6.544  0.0474  0.2136  0.1461
  140POPC   D2A 1987   8.521   2.571   6.125 -0.1931 -0.0276 -0.3102
  140POPC   C3A 1988   8.947   2.730   5.973 -0.1750 -0.4326 -0.0294
  140POPC   C4A 1989   9.189   2.976   6.042 -0.0115 -0.0812 -0.0749
  140POPC   C1B 1990   8.553   2.164   6.499 -0.3956  0.2305  0.3965
  140POPC   C2B 1991   8.717   2.143   6.065 -0.0246 -0.0279  0.1243
  140POPC   C3B 1992   8.552   2.259   5.732  0.2200  0.1154  0.3234
  140POPC   C4B 1993   8.740   2.539   5.470 -0.1556 -0.3148  0.4219
  141POPC   NC3 1994   8.005   8.406   7.147 -0.0113  0.0349  0.0988
  141POPC   PO4 1995   7.591   8.344   7.263  0.5439 -0.0290  0.0824
  141POPC   GL1 1996   7.297   8.345   6.873 -0.3100 -0.1255 -0.0193
  141POPC   GL2 1997   7.131   8.584   6.625 -0.0459  0.1809 -0.1221
  141POPC   C1A 1998   7.230   8.200   6.369 -0.0087 -0.0918  0.1723
  141POPC   D2A 1999   7.110   8.312   6.021 -0.0954  0.2280 -0.0356
  141POPC   C3A 2000   7.313   8.531   5.738  0.2376 -0.0350 -0.1488
  141POPC   C4A 2001   7.433   8.941   5.615 -0.2596  0.1711  0.0857
  141POPC   C1B 2002   7.335   8.913   6.509 -0.2438  0.5191 -0.2543
  141POPC   C2B 2003   7.542   9.092   6.181  0.2278  0.2626  0.1339
  141POPC   C3B 2004   7.951   9.093   5.807 -0.1065  0.2334 -0.0244
  141POPC   C4B 2005   8.342   8.808   5.886  0.1268 -0.0001 -0.1489
  142POPC   NC3 2006   4.115   4.195   7.764 -0.3388 -0.0011  0.1778
  142POPC   PO4 2007   4.289   4.205   7.345 -0.0477 -0.3427  0.0149
  142POPC   GL1 2008   4.116   4.028   6.963 -0.1068 -0.0353 -0.0648
  142POPC   GL2 2009   3.968   4.195   6.797  0.0806  0.1221  0.2534
  142POPC   C1A 2010   4.247   3.846   6.523 -0.0824 -0.0691 -0.3643
  142POPC   D2A 2011   4.517   3.799   6.140 -0.1666 -0.2082  0.1994
  142POPC   C3A 2012   4.481   3.754   5.683  0.1161 -0.1790  0.0078
  142POPC   C4A 2013   4.902   3.832   5.350  0.2428  0.1333 -0.3199
  142POPC   C1B 2014   4.072   4.316   6.296 -0.1885 -0.4297  0.1114
  142POPC   C2B 2015   4.307   4.206   5.992  0.0842  0.2073  0.2435
  142POPC   C3B 2016   4.542   4.322   5.595 -0.2682  0.2886 -0.0998
  142POPC   C4B 2017   4.771   4.509   5.193 -0.0198  0.0078 -0.1641
  143POPC   NC3 2018   1.346   6.690   7.084 -0.0014 -0.2090 -0.0015
  143POPC   PO4 2019   0.991   6.771   6.730 -0.2015 -0.0160  0.0694
  143POPC   GL1 2020   1.226   6.687   6.353  0.0627  0.1328 -0.1921
  143POPC   GL2 2021   1.488   6.858   6.381 -0.1195 -0.1591 -0.1970
  143POPC   C1A 2022   1.149   6.755   5.883  0.3352  0.2373  0.3035
  143POPC   D2A 2023   1.150   6.760   5.460 -0.0709 -0.2845 -0.0430
  143POPC   C3A 2024   1.127   6.461   5.108 -0.1723  0.1447 -0.0504
  143POPC   C4A 2025   0.897   6.124   5.161  0.1846  0.2589  0.0523
  143POPC   C1B 2026   1.541   6.997   6.073 -0.0429  0.0394 -0.1224
  143POPC   C2B 2027   1.542   7.244   5.624 -0.0717 -0.0001  0.0521
  143POPC   C3B 2028   1.411   7.631   5.509  0.0136 -0.1047 -0.0748
  143POPC   C4B 2029   1.453   8.106   5.331  0.0733  0.2248  0.0365
  144POPC   NC3 2030   4.260   9.560   7.247 -0.0431  0.2008 -0.1214
  144POPC   PO4 2031   4.544   9.365   7.443  0.2923 -0.2390 -0.0448
  144POPC   GL1 2032   4.644   9.210   7.082  0.2972 -0.1087  0.1301
  144POPC   GL2 2033   4.600   8.893   7.003  0.2291  0.4444  0.3096
  144POPC   C1A 2034   4.548   9.250   6.583  0.0708 -0.1309 -0.1880
  144POPC   D2A 2035   4.499   9.475   6.171  0.0585 -0.2199 -0.0904
  144POPC   C3A 2036   4.116   9.644   5.985 -0.1590 -0.1422 -0.0876
  144POPC   C4A 2037   4.213   9.980   5.778 -0.1714  0.3763 -0.3320
  144POPC   C1B 2038   4.882   8.865   6.639  0.0328  0.2277 -0.1433
  144POPC   C2B 2039   4.837   9.073   6.218  0.0456  0.2325 -0.0785
  144POPC   C3B 2040   4.817   9.158   5.756 -0.1903 -0.1833  0.2586
  144POPC   C4B 2041   4.732   8.961   5.367 -0.0217  0.0288 -0.1088
  145POPC   NC3 2042   5.111   9.941   7.599 -0.0020  0.1010 -0.2173
  145POPC   PO4 2043   5.503   9.642   7.726 -0.2296  0.0590 -0.2726
  145POPC   GL1 2044   5.514   9.662   7.311 -0.0088 -0.3732 -0.0581
  145POPC   GL2 2045   5.726   9.332   7.144 -0.0224 -0.0602  0.0319
  145POPC   C1A 2046   5.355   9.630   6.914  0.3408 -0.2158 -0.2028
  145POPC   D2A 2047   5.409   9.648   6.505 -0.1910  0.2853  0.0955
  145POPC   C3A 2048   5.318   9.804   6.204  0.0705 -0.1878 -0.0185
  145POPC   C4A 2049   5.201  10.138   6.054 -0.1275 -0.2236 -0.0165
  145POPC   C1B 2050   5.680   9.374   6.735 -0.0592  0.2667 -0.2508
  145POPC   C2B 2051   5.918   9.565   6.330  0.1741  0.2509  0.1038
  145POPC   C3B 2052   5.684   9.681   5.893  0.1171 -0.2152 -0.0556
  145POPC   C4B 2053   5.204   9.552   5.763  0.5013  0.2793 -0.0119
  146POPC   NC3 2054   6.704  10.182   7.796 -0.0492 -0.2123  0.3047
  146POPC   PO4 2055   6.724  10.564   7.851 -0.0214 -0.0454 -0.1793
  146POPC   GL1 2056   6.435  10.764   7.514 -0.3042  0.2747 -0.1274
  146POPC   GL2 2057   6.130  10.719   7.546  0.2973 -0.1563 -0.1202
  146POPC   C1A 2058   6.304  10.690   7.034 -0.0119  0.0391  0.0531
  146POPC   D2A 2059   6.233  10.705   6.540 -0.1343 -0.2349 -0.2219
  146POPC   C3A 2060   6.612  10.861   6.179  0.0308  0.0395  0.1957
  146POPC   C4A 2061   6.649  10.796   5.719  0.3452 -0.1219 -0.0815
  146POPC   C1B 2062   5.789  10.466   7.233 -0.1106  0.2005 -0.1533
  146POPC   C2B 2063   5.514  10.154   6.956  0.0321  0.1568  0.3843
  146POPC   C3B 2064   5.200  10.147   6.624 -0.1642  0.0612  0.1810
  146POPC   C4B 2065   4.776  10.272   6.372 -0.0023  0.0994 -0.3027
  147POPC   NC3 2066   8.329   7.700   7.686 -0.1480 -0.0143 -0.1226
  147POPC   PO4 2067   8.409   8.109   7.348  0.0714  0.1063  0.0573
  147POPC   GL1 2068   8.516   7.998   6.884  0.0177  0.0345 -0.0213
  147POPC   GL2 2069   8.752   7.868   6.727  0.0386  0.2370 -0.1780
  147POPC   C1A 2070   8.522   8.230   6.442  0.1286 -0.3609  0.0227
  147POPC   D2A 2071   8.224   8.264   6.208  0.2312  0.1454  0.0226
  147POPC   C3A 2072   8.062   8.636   6.239  0.0598  0.1670  0.0605
  147POPC   C4A 2073   8.018   8.956   6.324 -0.2759  0.0311  0.1841
  147POPC   C1B 2074   8.983   8.159   6.686  0.1345 -0.2811 -0.2267
  147POPC   C2B 2075   8.885   8.545   6.454 -0.1972  0.1436  0.0624
  147POPC   C3B 2076   8.831   8.730   5.994  0.1472  0.1764  0.0599
  147POPC   C4B 2077   9.132   8.553   5.665 -0.2608 -0.1796  0.1156
  148POPC   NC3 2078   2.102   1.465   7.587  0.0588  0.2789 -0.1372
  148POPC   PO4 2079   1.953   1.502   7.196  0.3665 -0.2239 -0.1087
  148POPC   GL1 2080   1.834   1.738   6.931  0.1125 -0.2951 -0.2406
  148POPC   GL2 2081   1.496   1.826   6.847  0.2061  0.0790  0.0471
  148POPC   C1A 2082   1.930   1.948   6.503  0.1821  0.1160 -0.1405
  148POPC   D2A 2083   2.111   1.933   6.130  0.3630  0.0332 -0.3705
  148POPC   C3A 2084   1.987   2.072   5.766  0.0762 -0.0769 -0.2074
  148POPC   C4A 2085   1.809   2.233   5.357  0.0192 -0.0686  0.0407
  148POPC   C1B 2086   1.396   1.739   6.403 -0.2047  0.1097  0.1435
  148POPC   C2B 2087   1.331   1.478   6.103 -0.2448 -0.2511  0.2530
  148POPC   C3B 2088   1.108   1.524   5.632 -0.0795  0.0763  0.3233
  148POPC   C4B 2089   0.919   1.883   5.511  0.0642 -0.3269  0.0354
  149POPC   NC3 2090   6.378   8.634   7.226 -0.0532 -0.1614 -0.0470
  149POPC   PO4 2091   6.874   8.614   7.088  0.4925 -0.0245  0.3747
  149POPC   GL1 2092   6.756   8.266   6.766 -0.2421 -0.0995  0.0726
  149POPC   GL2 2093   6.889   7.995   6.804  0.1570  0.0670  0.3189
  149POPC   C1A 2094   6.720   8.405   6.359 -0.0006 -0.0665  0.1603
  149POPC   D2A 2095   6.344   8.659   6.108 -0.2902 -0.2838 -0.1303
  149POPC   C3A 2096   6.139   8.470   5.646 -0.3148  0.2684  0.2078
  149POPC   C4A 2097   6.048   8.140   5.352 -0.3110  0.0783  0.1595
  149POPC   C1B 2098   6.941   7.859   6.463 -0.1455  0.0406 -0.0727
  149POPC   C2B 2099   7.420   7.643   6.323 -0.0764 -0.1988 -0.0734
  149POPC   C3B 2100   7.797   7.424   6.280 -0.2294 -0.2188 -0.4892
  149POPC   C4B 2101   7.801   7.023   6.536  0.0523 -0.2979 -0.1362
  150POPC   NC3 2102   7.468   3.461   7.729  0.1042  0.0136 -0.0269
  150POPC   PO4 2103   7.018   3.796   7.665  0.1363 -0.1974  0.0767
  150POPC   GL1 2104   6.905   3.597   7.289 -0.1456 -0.2464 -0.0452
  150POPC   GL2 2105   7.165   3.372   7.244  0.1658 -0.1914  0.2627
  150POPC   C1A 2106   6.891   3.434   6.725  0.1650  0.2691  0.1523
  150POPC   D2A 2107   6.848   3.403   6.314  0.0158 -0.2311 -0.1915
  150POPC   C3A 2108   6.667   3.754   5.993 -0.1769  0.1955  0.0913
  150POPC   C4A 2109   6.666   3.770   5.571 -0.1401 -0.3198 -0.1568
  150POPC   C1B 2110   7.335   3.619   6.861 -0.1105  0.0603  0.2381
  150POPC   C2B 2111   7.384   3.462   6.495 -0.2418  0.0354 -0.0944
  150POPC   C3B 2112   7.321   3.169   6.176 -0.1039  0.1543 -0.2232
  150POPC   C4B 2113   7.063   2.970   5.982 -0.1126  0.3796  0.0807
  151POPC   NC3 2114   9.605   3.426   7.262  0.1472 -0.2127 -0.1054
  151POPC   PO4 2115   9.206   3.317   7.100  0.0561 -0.0549 -0.2122
  151POPC   GL1 2116   8.893   3.200   6.720 -0.4454  0.4487  0.0923
  151POPC   GL2 2117   9.166   3.136   6.517  0.1315 -0.1542 -0.0405
  151POPC   C1A 2118   8.709   3.109   6.227 -0.2388  0.3344  0.1735
  151POPC   D2A 2119   8.524   2.967   5.803  0.3099  0.1586 -0.5724
  151POPC   C3A 2120   8.513   3.181   5.417  0.1112  0.1374  0.0104
  151POPC   C4A 2121   8.887   3.023   5.215 -0.2805 -0.0527  0.0134
  151POPC   C1B 2122   9.544   3.080   6.343  0.3293  0.0259  0.0545
  151POPC   C2B 2123   9.726   2.960   5.962  0.1575 -0.0285 -0.0535
  151POPC   C3B 2124   9.698   2.698   5.686  0.5952  0.2179 -0.0844
  151POPC   C4B 2125  10.037   2.432   5.555 -0.0958  0.3478 -0.2348
  152POPC   NC3 2126   1.696   7.174   7.678  0.0936  0.1255  0.0127
  152POPC   PO4 2127   1.748   6.933   7.312 -0.0187 -0.1908  0.2839
  152POPC   GL1 2128   1.843   6.591   6.887  0.2016 -0.0381  0.0226
  152POPC   GL2 2129   1.827   6.242   6.950  0.0106  0.1928  0.1887
  152POPC   C1A 2130   1.931   6.673   6.503  0.0702  0.1017 -0.1915
  152POPC   D2A 2131   1.960   6.643   6.123 -0.1078  0.1445  0.0613
  152POPC   C3A 2132   1.888   6.242   5.946  0.3301 -0.0748  0.0805
  152POPC   C4A 2133   1.781   6.114   5.585 -0.1487  0.0131 -0.1276
  152POPC   C1B 2134   1.823   6.205   6.564  0.1556  0.1816  0.3151
  152POPC   C2B 2135   1.512   6.268   6.253  0.3638 -0.1529 -0.2808
  152POPC   C3B 2136   1.394   6.288   5.863 -0.1844  0.1750 -0.3338
  152POPC   C4B 2137   1.245   6.267   5.518 -0.2746  0.1240 -0.2165
  153POPC   NC3 2138   9.103   1.360   7.403 -0.2909 -0.1377  0.0727
  153POPC   PO4 2139   8.618   1.078   7.439  0.1480  0.0582  0.1457
  153POPC   GL1 2140   8.509   0.951   7.098 -0.1566 -0.1624 -0.2727
  153POPC   GL2 2141   8.703   0.729   6.840  0.2804 -0.2996  0.0568
  153POPC   C1A 2142   8.222   0.939   6.878  0.0621 -0.1984 -0.1028
  153POPC   D2A 2143   7.848   1.143   6.779 -0.0781 -0.0547  0.2037
  153POPC   C3A 2144   7.829   1.051   6.389  0.2907 -0.0124  0.2719
  153POPC   C4A 2145   7.424   0.995   6.111 -0.0054 -0.0249  0.1980
  153POPC   C1B 2146   8.499   0.769   6.437 -0.2024  0.2415  0.1078
  153POPC   C2B 2147   8.259   0.711   6.048 -0.0273  0.2398 -0.4094
  153POPC   C3B 2148   7.831   0.769   5.845 -0.1197 -0.3921  0.0354
  153POPC   C4B 2149   7.668   1.121   5.729 -0.1959 -0.1987  0.2184
  154POPC   NC3 2150   9.094   3.875   7.574  0.0377  0.0483  0.0427
  154POPC   PO4 2151   8.669   4.059   7.404  0.2611  0.1098 -0.4410
  154POPC   GL1 2152   8.391   3.973   6.995  0.2302  0.2277  0.0350
  154POPC   GL2 2153   8.559   4.256   6.844 -0.4372 -0.0149  0.1759
  154POPC   C1A 2154   8.260   3.886   6.610 -0.0433 -0.2349 -0.2877
  154POPC   D2A 2155   8.175   3.746   6.194 -0.3364  0.2263  0.0252
  154POPC   C3A 2156   8.467   3.436   5.927  0.3256  0.0842 -0.0584
  154POPC   C4A 2157   8.883   3.412   5.738 -0.2603 -0.0076  0.1522
  154POPC   C1B 2158   8.270   4.495   6.542  0.1703  0.2558 -0.2867
  154POPC   C2B 2159   8.232   4.297   6.115 -0.2249 -0.1382  0.1824
  154POPC   C3B 2160   8.356   4.187   5.666  0.0800  0.1881  0.0343
  154POPC   C4B 2161   8.394   4.549   5.308  0.0576 -0.1726  0.1046
  155POPC   NC3 2162   3.028   4.318   7.045 -0.0125  0.2143  0.1689
  155POPC   PO4 2163   3.162   4.742   7.007  0.3935  0.1009  0.1128
  155POPC   GL1 2164   3.151   4.706   6.547  0.3663  0.0707  0.1046
  155POPC   GL2 2165   3.489   4.900   6.330  0.2842 -0.0698 -0.1658
  155POPC   C1A 2166   3.034   4.548   6.153  0.1254  0.0965 -0.1609
  155POPC   D2A 2167   2.952   4.343   5.817  0.1949 -0.1357 -0.1320
  155POPC   C3A 2168   3.067   4.093   5.443 -0.0211  0.0670  0.0254
  155POPC   C4A 2169   3.114   4.045   5.053 -0.2465 -0.0411  0.0366
  155POPC   C1B 2170   3.859   4.775   6.084  0.1404 -0.2080  0.1665
  155POPC   C2B 2171   3.950   4.541   5.763 -0.1421 -0.1130  0.2718
  155POPC   C3B 2172   4.007   4.211   5.503  0.4006  0.0896  0.0551
  155POPC   C4B 2173   4.050   3.732   5.422  0.1014 -0.2305  0.0779
  156POPC   NC3 2174   1.378   7.951   6.499  0.1709  0.1541  0.0055
  156POPC   PO4 2175   1.607   8.356   6.714 -0.2096  0.2197 -0.1290
  156POPC   GL1 2176   1.903   8.369   6.420 -0.2343 -0.2028  0.0124
  156POPC   GL2 2177   2.236   8.441   6.519  0.1849  0.0506  0.3501
  156POPC   C1A 2178   1.942   8.083   6.007  0.1328 -0.1203 -0.1088
  156POPC   D2A 2179   1.940   7.767   5.778  0.1312  0.2465  0.0836
  156POPC   C3A 2180   1.931   7.735   5.324  0.2311  0.0893 -0.1300
  156POPC   C4A 2181   1.779   7.874   5.012 -0.3421  0.0731 -0.0226
  156POPC   C1B 2182   2.635   8.458   6.320  0.0806 -0.1571  0.1529
  156POPC   C2B 2183   2.864   8.421   5.928 -0.2091  0.2781 -0.1145
  156POPC   C3B 2184   2.959   8.405   5.501  0.2152  0.0529 -0.1054
  156POPC   C4B 2185   2.868   8.770   5.240  0.1285 -0.2208  0.1074
  157POPC   NC3 2186   1.015   4.958   7.477  0.1058 -0.0705  0.4017
  157POPC   PO4 2187   0.669   5.041   7.275  0.1149  0.3155 -0.1323
  157POPC   GL1 2188   0.534   4.847   6.757 -0.0806  0.0717  0.1222
  157POPC   GL2 2189   0.297   4.554   6.616  0.1291 -0.0911  0.0948
  157POPC   C1A 2190   0.731   4.770   6.354 -0.0475 -0.1745  0.0125
  157POPC   D2A 2191   0.857   4.866   5.853 -0.1270 -0.0953 -0.0245
  157POPC   C3A 2192   0.761   4.660   5.615  0.2750  0.2740 -0.0593
  157POPC   C4A 2193   0.602   4.346   5.440 -0.1244 -0.2849 -0.3047
  157POPC   C1B 2194   0.195   4.581   6.241 -0.2822  0.1131  0.1405
  157POPC   C2B 2195   0.238   4.488   5.756  0.1835 -0.3998 -0.0994
  157POPC   C3B 2196   0.269   4.795   5.395 -0.2293 -0.4042 -0.1640
  157POPC   C4B 2197   0.605   4.810   5.157  0.2236 -0.0879  0.0789
  158POPC   NC3 2198   7.162   0.043   7.937 -0.2515 -0.0651 -0.2006
  158POPC   PO4 2199   7.260   0.469   7.748 -0.1427  0.1233 -0.3483
  158POPC   GL1 2200   7.131   0.796   7.505 -0.1554 -0.2346 -0.3397
  158POPC   GL2 2201   7.409   0.915   7.260  0.0263  0.0685 -0.0681
  158POPC   C1A 2202   6.943   1.172   7.181 -0.0454 -0.1697  0.0726
  158POPC   D2A 2203   6.961   1.332   6.791 -0.1619 -0.4646 -0.0390
  158POPC   C3A 2204   6.628   1.263   6.358 -0.2245 -0.0321 -0.0378
  158POPC   C4A 2205   6.389   0.951   6.129  0.1197  0.0426  0.0100
  158POPC   C1B 2206   7.352   0.938   6.871 -0.0699 -0.2824 -0.0373
  158POPC   C2B 2207   7.437   0.641   6.486 -0.2219 -0.2135  0.0408
  158POPC   C3B 2208   7.506   0.499   6.173  0.2746 -0.4400  0.1725
  158POPC   C4B 2209   7.515   0.173   5.915 -0.3070 -0.3030 -0.0406
  159POPC   NC3 2210   9.816   7.830   7.475  0.1262  0.1692  0.0653
  159POPC   PO4 2211   9.351   7.836   7.382 -0.3411 -0.0319  0.2461
  159POPC   GL1 2212   9.474   7.779   7.031 -0.2028 -0.0472 -0.3094
  159POPC   GL2 2213   9.779   7.739   6.985  0.0017 -0.1072  0.1256
  159POPC   C1A 2214   9.389   7.924   6.584 -0.0500  0.4301 -0.1611
  159POPC   D2A 2215   9.328   8.030   6.212 -0.1139 -0.1144  0.3328
  159POPC   C3A 2216   8.913   8.122   6.144  0.1230  0.1410 -0.0081
  159POPC   C4A 2217   8.574   8.272   5.880  0.0517  0.1240  0.2168
  159POPC   C1B 2218   9.882   7.977   6.614  0.2280  0.0102  0.0483
  159POPC   C2B 2219   9.861   8.215   6.335  0.2717  0.2941  0.1521
  159POPC   C3B 2220   9.771   8.632   6.145 -0.0493 -0.0386  0.0969
  159POPC   C4B 2221   9.619   8.919   5.944  0.2861 -0.1253 -0.0285
  160POPC   NC3 2222   6.236   1.833   7.923 -0.1337 -0.3378 -0.0239
  160POPC   PO4 2223   6.530   1.625   7.952 -0.2478  0.3668  0.1207
  160POPC   GL1 2224   6.612   1.533   7.447 -0.2993 -0.0329  0.1237
  160POPC   GL2 2225   6.929   1.674   7.402  0.1277 -0.1285 -0.3224
  160POPC   C1A 2226   6.470   1.575   6.963 -0.0068  0.0377  0.0433
  160POPC   D2A 2227   6.318   1.734   6.559 -0.1906  0.0210  0.2151
  160POPC   C3A 2228   6.082   1.527   6.291 -0.0596 -0.3188 -0.1654
  160POPC   C4A 2229   6.198   1.425   5.864 -0.2841  0.4209  0.1697
  160POPC   C1B 2230   6.921   1.837   7.000  0.1559  0.0061 -0.2696
  160POPC   C2B 2231   7.122   1.787   6.584 -0.0536 -0.0550 -0.2198
  160POPC   C3B 2232   7.098   2.106   6.279  0.0049 -0.1479 -0.1192
  160POPC   C4B 2233   6.958   2.528   6.124 -0.1421  0.0380 -0.0823
  161POPC   NC3 2234   2.708   0.805   7.830  0.4177  0.1461 -0.0134
  161POPC   PO4 2235   3.018   0.552   7.722  0.3066  0.0684  0.5086
  161POPC   GL1 2236   3.176   0.791   7.358  0.0839 -0.1133  0.2493
  161POPC   GL2 2237   3.115   0.616   7.049  0.0579 -0.1656  0.1689
  161POPC   C1A 2238   2.955   1.149   7.041  0.0273 -0.2075 -0.1606
  161POPC   D2A 2239   2.945   1.508   6.709 -0.1961 -0.0610 -0.0400
  161POPC   C3A 2240   3.098   1.680   6.290 -0.1470 -0.3569  0.1176
  161POPC   C4A 2241   3.158   1.587   5.966 -0.0639  0.0000  0.0410
  161POPC   C1B 2242   2.982   0.218   6.986  0.3087  0.0109 -0.0886
  161POPC   C2B 2243   3.261  -0.123   6.716 -0.0403 -0.1235 -0.2146
  161POPC   C3B 2244   3.592  -0.160   6.427 -0.1458  0.1870  0.0779
  161POPC   C4B 2245   3.692  -0.160   5.989  0.0750  0.2946 -0.1299
  162POPC   NC3 2246   1.366   8.897   6.728  0.2007 -0.0735 -0.2966
  162POPC   PO4 2247   1.658   9.214   6.783 -0.3107 -0.0075  0.0224
  162POPC   GL1 2248   1.616   9.091   6.286 -0.0923  0.1848 -0.0642
  162POPC   GL2 2249   1.593   8.702   6.293 -0.1652  0.0895  0.0187
  162POPC   C1A 2250   1.569   9.072   5.857 -0.0798  0.2590 -0.2748
  162POPC   D2A 2251   1.478   9.354   5.618 -0.1275 -0.0205 -0.0359
  162POPC   C3A 2252   1.841   9.465   5.324 -0.0766 -0.0447  0.2293
  162POPC   C4A 2253   2.279   9.559   5.226  0.1687  0.0938  0.0872
  162POPC   C1B 2254   1.870   8.634   5.984  0.0970 -0.0224 -0.1148
  162POPC   C2B 2255   1.990   8.583   5.581  0.0381 -0.2016  0.4198
  162POPC   C3B 2256   1.959   8.261   5.342  0.2048  0.0012 -0.0680
  162POPC   C4B 2257   2.203   8.206   4.954 -0.1902 -0.1281 -0.0152
  163POPC   NC3 2258   5.619   5.485   7.743 -0.1186 -0.2336  0.0181
  163POPC   PO4 2259   5.841   5.640   7.313  0.0284  0.0646 -0.0237
  163POPC   GL1 2260   5.857   5.472   6.959 -0.2306  0.2505  0.3682
  163POPC   GL2 2261   5.527   5.468   6.807  0.2813  0.0942  0.0795
  163POPC   C1A 2262   6.121   5.278   6.729 -0.0467 -0.2026  0.3515
  163POPC   D2A 2263   6.591   5.164   6.770  0.1519  0.2344 -0.0129
  163POPC   C3A 2264   6.633   5.083   6.375 -0.0180 -0.1712 -0.1794
  163POPC   C4A 2265   6.517   5.083   5.980  0.0641 -0.0242 -0.0064
  163POPC   C1B 2266   5.699   5.210   6.441  0.4812 -0.1650 -0.2072
  163POPC   C2B 2267   6.154   5.239   6.203  0.1186 -0.0034 -0.0839
  163POPC   C3B 2268   6.272   5.533   5.895 -0.2486  0.0378 -0.4057
  163POPC   C4B 2269   6.075   5.577   5.490  0.5036  0.4094  0.3813
  164POPC   NC3 2270   4.555   8.906   7.750 -0.0442  0.0127  0.0629
  164POPC   PO4 2271   4.450   8.634   7.393  0.1469 -0.0717  0.0987
  164POPC   GL1 2272   4.176   8.603   7.107  0.0632  0.1733  0.0621
  164POPC   GL2 2273   4.102   8.200   6.996 -0.2061 -0.0225 -0.0924
  164POPC   C1A 2274   4.278   8.660   6.636  0.1127 -0.0487  0.0096
  164POPC   D2A 2275   4.188   8.535   6.225 -0.0691  0.1859 -0.0896
  164POPC   C3A 2276   4.103   8.263   5.954 -0.1449  0.1277 -0.2374
  164POPC   C4A 2277   3.799   7.912   5.838  0.0491  0.1000  0.2848
  164POPC   C1B 2278   4.275   8.112   6.597 -0.2055  0.0452 -0.1204
  164POPC   C2B 2279   4.483   8.098   6.219  0.0077  0.1090 -0.1284
  164POPC   C3B 2280   4.576   8.175   5.779 -0.0830  0.3570 -0.0241
  164POPC   C4B 2281   4.720   8.492   5.468  0.0252 -0.1854 -0.3988
  165POPC   NC3 2282   3.890   0.404   8.268  0.2314  0.2409  0.0371
  165POPC   PO4 2283   3.464   0.462   8.051 -0.0874  0.0752 -0.2669
  165POPC   GL1 2284   3.559   0.252   7.644 -0.2441 -0.1634  0.1951
  165POPC   GL2 2285   3.560   0.410   7.388 -0.1585 -0.0621 -0.2590
  165POPC   C1A 2286   3.710  -0.054   7.309  0.0464 -0.1738  0.1052
  165POPC   D2A 2287   3.703  -0.221   6.935  0.0288 -0.0626  0.2813
  165POPC   C3A 2288   3.964   0.029   6.712 -0.1589  0.1374  0.1232
  165POPC   C4A 2289   4.129   0.031   6.322  0.2179  0.0182  0.1091
  165POPC   C1B 2290   3.656   0.715   7.121  0.3766 -0.0175  0.3730
  165POPC   C2B 2291   3.563   0.756   6.680  0.2209 -0.1683 -0.2715
  165POPC   C3B 2292   3.745   0.373   6.358  0.1233  0.0872 -0.0795
  165POPC   C4B 2293   3.826   0.351   5.988 -0.3249  0.2340  0.1580
  166POPC   NC3 2294   3.646   5.321   7.623 -0.3132  0.2025 -0.1019
  166POPC   PO4 2295   3.795   5.463   7.225 -0.0553  0.0374 -0.1475
  166POPC   GL1 2296   3.878   5.569   6.765 -0.1231  0.0344  0.2531
  166POPC   GL2 2297   3.678   5.420   6.501  0.2293 -0.1696 -0.3036
  166POPC   C1A 2298   4.044   5.821   6.426  0.0610 -0.2645  0.0923
  166POPC   D2A 2299   4.042   5.835   5.958 -0.0756 -0.0533  0.1669
  166POPC   C3A 2300   4.415   5.616   5.690 -0.1417 -0.1793  0.0185
  166POPC   C4A 2301   4.547   5.798   5.425 -0.0645 -0.0290  0.1066
  166POPC   C1B 2302   3.639   5.344   6.017 -0.3163 -0.1991  0.3123
  166POPC   C2B 2303   4.043   5.231   5.915  0.0009 -0.0431 -0.1955
  166POPC   C3B 2304   4.205   4.958   5.568  0.0835  0.0656  0.1471
  166POPC   C4B 2305   4.589   4.821   5.556 -0.1488 -0.0571  0.3751
  167POPC   NC3 2306   8.568   7.666   7.208 -0.0108 -0.1321 -0.0945
  167POPC   PO4 2307   8.191   7.534   7.215 -0.2162  0.1255 -0.2735
  167POPC   GL1 2308   8.157   7.683   6.739  0.1484 -0.1431  0.4156
  167POPC   GL2 2309   7.906   7.796   6.593  0.2607  0.1251  0.2116
  167POPC   C1A 2310   8.326   7.803   6.380 -0.0022  0.3228 -0.0827
  167POPC   D2A 2311   8.399   7.733   5.936 -0.1837  0.0717 -0.1989
  167POPC   C3A 2312   8.460   7.901   5.566  0.0743  0.0877 -0.0406
  167POPC   C4A 2313   8.493   8.099   5.189 -0.0514  0.0888 -0.0108
  167POPC   C1B 2314   7.888   7.921   6.136  0.0710 -0.1592  0.1984
  167POPC   C2B 2315   7.909   7.979   5.700 -0.1474  0.2977 -0.1219
  167POPC   C3B 2316   7.786   7.840   5.398 -0.2212  0.0385 -0.1276
  167POPC   C4B 2317   7.416   7.468   5.366 -0.1044 -0.2462  0.1839
  168POPC   NC3 2318   9.618   6.381   7.203  0.1233  0.3057 -0.2238
  168POPC   PO4 2319  10.021   6.541   6.998  0.2900 -0.1053 -0.1182
  168POPC   GL1 2320   9.641   6.499   6.718 -0.0099  0.1550 -0.3667
  168POPC   GL2 2321   9.540   6.333   6.637  0.4715  0.2308 -0.0465
  168POPC   C1A 2322   9.590   6.581   6.249  0.0044  0.4487 -0.2055
  168POPC   D2A 2323   9.545   6.743   5.790 -0.1381 -0.1464  0.0201
  168POPC   C3A 2324   9.327   7.236   5.696  0.0407  0.3658 -0.1320
  168POPC   C4A 2325   9.328   7.557   5.331 -0.1506  0.2363  0.4850
  168POPC   C1B 2326   9.460   6.046   6.207  0.2465 -0.2412 -0.3256
  168POPC   C2B 2327   9.202   6.219   5.911  0.1134 -0.0064  0.1615
  168POPC   C3B 2328   8.905   6.019   5.721  0.0054 -0.0285 -0.1553
  168POPC   C4B 2329   8.554   5.945   5.487  0.0699  0.2997  0.2052
  169POPC   NC3 2330   2.988   8.962   6.897  0.1607 -0.2040  0.0073
  169POPC   PO4 2331   2.668   9.177   6.923 -0.1268  0.1269 -0.0903
  169POPC   GL1 2332   2.699   9.183   6.495 -0.0422  0.0599  0.5729
  169POPC   GL2 2333   2.849   8.907   6.411  0.3394 -0.1914 -0.3066
  169POPC   C1A 2334   2.741   9.483   6.180  0.2029  0.2472  0.0920
  169POPC   D2A 2335   2.971   9.759   5.823  0.1266  0.0122 -0.2671
  169POPC   C3A 2336   3.366   9.661   5.744  0.1465  0.1524 -0.0702
  169POPC   C4A 2337   3.693   9.908   5.614 -0.1669  0.0683  0.0458
  169POPC   C1B 2338   2.784   8.950   6.054 -0.2029  0.1445  0.1614
  169POPC   C2B 2339   3.012   9.070   5.624 -0.2061  0.1369 -0.1331
  169POPC   C3B 2340   3.410   9.114   5.401 -0.1935 -0.4996  0.1708
  169POPC   C4B 2341   3.736   9.328   5.171 -0.1261 -0.2285  0.1532
  170POPC   NC3 2342   6.200   4.560   7.549  0.1815 -0.0130 -0.0040
  170POPC   PO4 2343   6.085   5.071   7.545 -0.2252 -0.0864 -0.1234
  170POPC   GL1 2344   6.202   4.905   7.078  0.2902  0.0872 -0.1272
  170POPC   GL2 2345   6.071   4.580   6.938  0.2461 -0.1531  0.0272
  170POPC   C1A 2346   6.080   4.815   6.547  0.0669  0.0289  0.1397
  170POPC   D2A 2347   5.805   4.785   6.119  0.2028 -0.3607 -0.0789
  170POPC   C3A 2348   6.023   4.985   5.792 -0.3031 -0.0445 -0.2206
  170POPC   C4A 2349   6.322   4.821   5.527  0.0148  0.3580 -0.2246
  170POPC   C1B 2350   6.164   4.264   6.701 -0.3344  0.2071  0.0566
  170POPC   C2B 2351   6.191   4.116   6.359 -0.1296 -0.0565  0.0704
  170POPC   C3B 2352   6.218   4.146   5.908 -0.0128  0.1230  0.0653
  170POPC   C4B 2353   6.207   4.035   5.470  0.0415 -0.0391  0.0607
  171POPC   NC3 2354   5.235   7.053   7.670  0.1163  0.0480  0.1666
  171POPC   PO4 2355   5.185   7.379   7.293  0.1397  0.0506  0.1609
  171POPC   GL1 2356   5.291   7.457   6.852  0.2434  0.2305 -0.1520
  171POPC   GL2 2357   5.601   7.571   6.787 -0.0974 -0.2889  0.0775
  171POPC   C1A 2358   5.079   7.475   6.516  0.1920  0.1094 -0.0384
  171POPC   D2A 2359   5.193   7.557   6.140 -0.2592  0.2369 -0.1611
  171POPC   C3A 2360   5.232   7.499   5.740 -0.0768  0.3182 -0.0959
  171POPC   C4A 2361   5.230   7.725   5.308  0.2549 -0.1232 -0.0536
  171POPC   C1B 2362   5.557   7.811   6.323  0.2501  0.3187  0.1799
  171POPC   C2B 2363   5.633   7.818   5.944 -0.3136  0.2370 -0.0810
  171POPC   C3B 2364   5.661   7.732   5.502  0.1914  0.1914  0.0828
  171POPC   C4B 2365   6.042   7.678   5.146 -0.0815 -0.1713 -0.2073
  172POPC   NC3 2366   4.126   1.095   7.894  0.1024 -0.0802  0.0254
  172POPC   PO4 2367   4.582   0.927   7.968 -0.1627 -0.0773 -0.0028
  172POPC   GL1 2368   4.515   0.776   7.617 -0.0831  0.3841 -0.0225
  172POPC   GL2 2369   4.344   0.539   7.540 -0.4149 -0.0056 -0.0224
  172POPC   C1A 2370   4.698   0.982   7.297  0.0815  0.0577  0.2589
  172POPC   D2A 2371   4.932   0.855   6.942 -0.1735  0.0126  0.0236
  172POPC   C3A 2372   5.037   0.369   6.800  0.0276  0.1194 -0.1190
  172POPC   C4A 2373   5.330   0.274   6.597  0.2046 -0.3437  0.1487
  172POPC   C1B 2374   4.099   0.929   7.293  0.1279 -0.0090  0.0465
  172POPC   C2B 2375   4.230   1.377   7.395 -0.0610 -0.0999  0.0900
  172POPC   C3B 2376   4.369   1.719   7.132 -0.0771 -0.0027  0.2073
  172POPC   C4B 2377   4.730   1.858   6.818 -0.0678 -0.0311  0.1239
  173POPC   NC3 2378   5.626   0.205   8.511 -0.2021 -0.1947  0.2588
  173POPC   PO4 2379   5.489  -0.177   8.308 -0.0538  0.0394 -0.1873
  173POPC   GL1 2380   5.423  -0.018   7.874 -0.1212 -0.2893 -0.2773
  173POPC   GL2 2381   5.603   0.129   7.692  0.0601 -0.3747  0.0003
  173POPC   C1A 2382   5.251  -0.255   7.577 -0.0782 -0.0728 -0.0090
  173POPC   D2A 2383   5.096  -0.532   7.190  0.0355  0.1118 -0.3480
  173POPC   C3A 2384   4.923  -0.342   6.881  0.1739 -0.4324  0.0565
  173POPC   C4A 2385   4.931  -0.031   6.504  0.0994  0.1419 -0.1439
  173POPC   C1B 2386   5.244   0.336   7.543  0.3202 -0.1984 -0.1220
  173POPC   C2B 2387   4.883   0.474   7.309 -0.3598  0.0094 -0.0034
  173POPC   C3B 2388   4.534   0.551   7.046  0.0649  0.1268 -0.0187
  173POPC   C4B 2389   4.441   0.314   6.636  0.4268  0.1817  0.2591
  174POPC   NC3 2390   1.917   2.923   3.255  0.3694 -0.0579 -0.0950
  174POPC   PO4 2391   2.184   2.708   3.530 -0.2844  0.1384 -0.2079
  174POPC   GL1 2392   1.906   2.787   3.827  0.2441  0.0598 -0.0228
  174POPC   GL2 2393   1.984   3.194   3.958 -0.3344  0.3612 -0.2566
  174POPC   C1A 2394   1.556   2.853   4.131  0.1013 -0.1242 -0.0749
  174POPC   D2A 2395   1.462   3.028   4.471  0.1427 -0.2251 -0.1281
  174POPC   C3A 2396   1.803   3.174   4.793 -0.0682 -0.1806 -0.1805
  174POPC   C4A 2397   2.267   3.018   4.896 -0.1447  0.1970  0.1722
  174POPC   C1B 2398   1.835   3.291   4.316  0.0149 -0.2342  0.2740
  174POPC   C2B 2399   1.548   3.551   4.600  0.4437 -0.0073  0.2182
  174POPC   C3B 2400   1.382   3.506   5.018 -0.4591 -0.0884 -0.0992
  174POPC   C4B 2401   1.400   3.762   5.425  0.4333  0.0162  0.0206
  175POPC   NC3 2402   5.423   3.905   2.898  0.0696  0.2022 -0.1048
  175POPC   PO4 2403   5.893   3.850   3.003 -0.0883 -0.0176  0.1372
  175POPC   GL1 2404   5.741   3.702   3.466  0.2282 -0.1579 -0.2362
  175POPC   GL2 2405   5.503   3.887   3.384  0.2203  0.0504  0.1572
  175POPC   C1A 2406   5.428   3.611   3.773 -0.3886 -0.0753 -0.3065
  175POPC   D2A 2407   5.194   3.429   4.014  0.3011 -0.0205  0.1712
  175POPC   C3A 2408   4.932   3.734   4.310 -0.0938  0.0163  0.0817
  175POPC   C4A 2409   4.548   3.953   4.531 -0.0185 -0.1675 -0.2421
  175POPC   C1B 2410   5.386   4.112   3.621  0.3286 -0.3643  0.1469
  175POPC   C2B 2411   5.271   4.015   4.085  0.1728 -0.2254  0.1246
  175POPC   C3B 2412   5.121   4.244   4.547 -0.0963 -0.0291 -0.1209
  175POPC   C4B 2413   4.931   4.540   4.728  0.0519  0.2313  0.1468
  176POPC   NC3 2414   1.282   6.078   3.070 -0.2022 -0.1435  0.1232
  176POPC   PO4 2415   1.611   5.955   3.346  0.0530 -0.0117 -0.1582
  176POPC   GL1 2416   1.379   5.966   3.680 -0.1202 -0.0299 -0.0245
  176POPC   GL2 2417   1.082   5.912   3.470  0.3472 -0.2004  0.1353
  176POPC   C1A 2418   1.324   5.935   4.100 -0.0258  0.3544 -0.0730
  176POPC   D2A 2419   1.465   5.830   4.516 -0.1828 -0.0059  0.0339
  176POPC   C3A 2420   1.811   5.804   4.450  0.0920  0.0669  0.1595
  176POPC   C4A 2421   2.186   5.895   4.357  0.0990  0.1138 -0.2950
  176POPC   C1B 2422   1.030   5.604   3.838 -0.0294 -0.0041  0.0839
  176POPC   C2B 2423   0.610   5.416   4.034 -0.1728 -0.2069  0.3995
  176POPC   C3B 2424   0.169   5.378   4.152 -0.1214 -0.2008  0.1943
  176POPC   C4B 2425  -0.151   5.082   4.419 -0.1188 -0.3289 -0.0266
  177POPC   NC3 2426   0.171   1.053   3.294  0.2073  0.1643 -0.3810
  177POPC   PO4 2427  -0.195   1.188   3.199 -0.0216  0.3488 -0.0568
  177POPC   GL1 2428  -0.208   1.175   3.708  0.1082  0.0027  0.1636
  177POPC   GL2 2429  -0.169   0.777   3.679  0.1328 -0.0283  0.1399
  177POPC   C1A 2430  -0.166   1.207   4.153 -0.2573 -0.0530  0.1206
  177POPC   D2A 2431  -0.312   1.445   4.492  0.2453  0.0309  0.2316
  177POPC   C3A 2432   0.045   1.471   4.756  0.1087 -0.2697  0.1819
  177POPC   C4A 2433   0.105   1.143   5.096  0.0785 -0.0713  0.0181
  177POPC   C1B 2434  -0.128   0.726   4.049 -0.2186  0.4359 -0.4354
  177POPC   C2B 2435  -0.114   0.830   4.516 -0.0717  0.0090 -0.2329
  177POPC   C3B 2436  -0.146   0.750   4.961 -0.0582  0.2368  0.2154
  177POPC   C4B 2437  -0.386   0.667   5.241 -0.0834  0.1274 -0.1645
  178POPC   NC3 2438   7.903   3.201   3.415  0.0398  0.3881 -0.2116
  178POPC   PO4 2439   8.310   3.116   3.636  0.4674  0.1553  0.0211
  178POPC   GL1 2440   8.237   3.217   4.028  0.3130  0.0066 -0.1237
  178POPC   GL2 2441   8.588   3.431   4.117  0.0726  0.0912 -0.0717
  178POPC   C1A 2442   7.837   3.359   4.406  0.0851  0.0705  0.1734
  178POPC   D2A 2443   7.695   3.128   4.806  0.1714 -0.0566 -0.0537
  178POPC   C3A 2444   7.846   3.129   5.291 -0.0615  0.2467  0.2069
  178POPC   C4A 2445   8.116   3.149   5.704  0.0141  0.1584  0.2971
  178POPC   C1B 2446   8.885   3.393   4.463  0.1827 -0.0640 -0.3419
  178POPC   C2B 2447   9.089   3.767   4.688 -0.0997 -0.1061 -0.0839
  178POPC   C3B 2448   9.252   3.933   4.953  0.2683  0.0834  0.1164
  178POPC   C4B 2449   9.405   4.245   4.786  0.0775 -0.1516  0.0430
  179POPC   NC3 2450   6.723   7.337   3.031  0.0528  0.1435 -0.0068
  179POPC   PO4 2451   7.011   7.134   3.321 -0.2765 -0.0224 -0.2210
  179POPC   GL1 2452   7.266   7.264   3.673  0.5101  0.1232  0.1004
  179POPC   GL2 2453   7.351   6.912   3.822  0.0089  0.1275 -0.1865
  179POPC   C1A 2454   7.006   7.179   4.070  0.1037 -0.4470 -0.0326
  179POPC   D2A 2455   6.726   6.845   4.275  0.1920  0.0301 -0.2598
  179POPC   C3A 2456   6.593   6.950   4.725 -0.2749  0.2736 -0.3530
  179POPC   C4A 2457   6.470   6.981   5.144  0.1111  0.0590  0.1659
  179POPC   C1B 2458   7.456   7.000   4.246 -0.2900 -0.2629 -0.0050
  179POPC   C2B 2459   7.569   7.112   4.675  0.1804 -0.0644 -0.2133
  179POPC   C3B 2460   7.424   6.993   4.996 -0.1896 -0.1150  0.2938
  179POPC   C4B 2461   6.994   6.837   4.993  0.1832  0.1364 -0.1642
  180POPC   NC3 2462  10.224   2.524   2.874 -0.0934  0.0329  0.1310
  180POPC   PO4 2463  10.017   2.381   3.242  0.2207 -0.0316 -0.3976
  180POPC   GL1 2464  10.022   2.129   3.554  0.1814  0.0115  0.2740
  180POPC   GL2 2465  10.258   2.214   3.785  0.0272  0.1679 -0.0536
  180POPC   C1A 2466   9.731   1.957   3.863  0.1306  0.0132 -0.2704
  180POPC   D2A 2467   9.607   1.877   4.315  0.2015  0.2461 -0.3567
  180POPC   C3A 2468   9.543   1.421   4.249 -0.0646  0.0251  0.1648
  180POPC   C4A 2469   9.441   1.405   3.842  0.1417 -0.1084 -0.0932
  180POPC   C1B 2470  10.057   2.020   4.201 -0.1905 -0.1736 -0.0462
  180POPC   C2B 2471  10.206   1.825   4.596  0.0039  0.3794 -0.1442
  180POPC   C3B 2472  10.226   1.656   5.044  0.1886 -0.0544  0.2449
  180POPC   C4B 2473   9.960   1.455   5.189  0.0893 -0.0277  0.1424
  181POPC   NC3 2474   5.965   5.146   3.225  0.4064 -0.1995  0.0143
  181POPC   PO4 2475   5.741   5.540   3.448  0.0110 -0.1056 -0.0450
  181POPC   GL1 2476   5.715   5.733   3.809  0.2503 -0.0524 -0.2827
  181POPC   GL2 2477   5.967   5.427   3.961  0.1580 -0.2154  0.1875
  181POPC   C1A 2478   5.412   5.620   4.179  0.0032 -0.4635  0.0093
  181POPC   D2A 2479   5.456   5.623   4.622  0.2603  0.2294 -0.4495
  181POPC   C3A 2480   5.122   5.546   4.967 -0.1301  0.2219  0.0197
  181POPC   C4A 2481   5.148   5.513   5.363  0.0145  0.0358  0.0480
  181POPC   C1B 2482   5.886   5.655   4.372 -0.2656 -0.3721 -0.0785
  181POPC   C2B 2483   5.919   5.675   4.721 -0.2759  0.0575 -0.2541
  181POPC   C3B 2484   5.983   5.397   5.024  0.0549  0.0940 -0.0681
  181POPC   C4B 2485   5.980   5.105   5.302  0.0384 -0.0043 -0.0486
  182POPC   NC3 2486   6.994   3.171   3.419  0.0872 -0.1543 -0.1843
  182POPC   PO4 2487   7.143   2.896   3.674 -0.0840  0.0529  0.0242
  182POPC   GL1 2488   7.150   3.090   4.008 -0.1903  0.0290  0.0393
  182POPC   GL2 2489   6.951   3.397   4.022 -0.5139  0.2738 -0.0449
  182POPC   C1A 2490   7.460   3.005   4.406  0.0471 -0.1711  0.2230
  182POPC   D2A 2491   7.514   2.656   4.608 -0.3836 -0.1468 -0.1335
  182POPC   C3A 2492   7.460   2.353   5.059  0.3179  0.0753 -0.2935
  182POPC   C4A 2493   6.998   2.205   5.240  0.1047  0.2248  0.2532
  182POPC   C1B 2494   6.923   3.384   4.446  0.1874  0.0704  0.0461
  182POPC   C2B 2495   6.696   3.554   4.715  0.1037 -0.1686  0.0456
  182POPC   C3B 2496   6.450   3.749   5.125  0.0494  0.1377  0.1661
  182POPC   C4B 2497   6.294   3.423   5.318 -0.0811 -0.0079 -0.0573
  183POPC   NC3 2498   3.958   6.456   3.066 -0.2195  0.0723  0.0535
  183POPC   PO4 2499   4.149   6.007   3.173  0.4338 -0.0705  0.1801
  183POPC   GL1 2500   4.116   6.211   3.585 -0.0087  0.1611 -0.1700
  183POPC   GL2 2501   4.388   6.128   3.687  0.2370  0.0456 -0.0991
  183POPC   C1A 2502   4.242   6.560   3.918 -0.2295  0.0127  0.1779
  183POPC   D2A 2503   4.239   6.683   4.375  0.2592 -0.1464  0.0760
  183POPC   C3A 2504   4.185   6.396   4.780 -0.0253  0.0419  0.0772
  183POPC   C4A 2505   3.965   6.292   5.187 -0.3821  0.0817 -0.0397
  183POPC   C1B 2506   4.128   6.042   4.102 -0.0914  0.2164 -0.3445
  183POPC   C2B 2507   3.906   6.147   4.466 -0.1500 -0.0225  0.1602
  183POPC   C3B 2508   3.554   6.099   4.801  0.2164  0.1029 -0.1048
  183POPC   C4B 2509   3.541   5.807   5.052 -0.1096  0.0357 -0.1658
  184POPC   NC3 2510   9.967   9.041   3.430 -0.1008  0.0916  0.1129
  184POPC   PO4 2511   9.930   9.340   3.803 -0.0184 -0.4575  0.0364
  184POPC   GL1 2512  10.318   9.634   4.090  0.1443  0.0363  0.2361
  184POPC   GL2 2513  10.678   9.708   4.029 -0.1417 -0.0042  0.5089
  184POPC   C1A 2514  10.458   9.700   4.602  0.1902  0.0619 -0.3838
  184POPC   D2A 2515  10.354   9.558   4.948  0.0830  0.2954 -0.2802
  184POPC   C3A 2516  10.658   9.823   5.183  0.0133 -0.2418 -0.0062
  184POPC   C4A 2517  10.850   9.782   5.589 -0.1810  0.0550  0.1769
  184POPC   C1B 2518  10.818   9.417   4.368 -0.3195  0.1274  0.1214
  184POPC   C2B 2519  10.808   9.411   4.791 -0.1480  0.0960  0.2847
  184POPC   C3B 2520  10.851   9.323   5.205  0.3152 -0.1461  0.0438
  184POPC   C4B 2521  10.797   9.223   5.600 -0.1902 -0.0966 -0.2395
  185POPC   NC3 2522   0.471   1.874   3.407 -0.2699  0.2095 -0.1571
  185POPC   PO4 2523   0.248   2.198   3.262 -0.0290 -0.1600  0.2333
  185POPC   GL1 2524   0.419   2.378   3.664  0.0248 -0.2823 -0.1279
  185POPC   GL2 2525   0.541   2.598   3.720  0.4014  0.0256  0.2194
  185POPC   C1A 2526   0.255   2.142   4.067  0.1142  0.0799 -0.0648
  185POPC   D2A 2527   0.498   2.009   4.451 -0.0440  0.0631  0.0228
  185POPC   C3A 2528   0.634   1.702   4.756 -0.1774 -0.0811  0.3549
  185POPC   C4A 2529   0.676   1.273   4.601  0.1653 -0.0058 -0.1120
  185POPC   C1B 2530   0.668   2.431   4.062  0.4587  0.1298 -0.0976
  185POPC   C2B 2531   0.669   2.557   4.484  0.1734 -0.0760  0.3339
  185POPC   C3B 2532   0.446   2.783   4.734  0.0135  0.2401  0.0726
  185POPC   C4B 2533  -0.017   3.002   4.648 -0.0888 -0.0970  0.0082
  186POPC   NC3 2534   6.481   2.320   3.597  0.0782  0.1416 -0.0918
  186POPC   PO4 2535   6.771   2.580   3.431  0.3237 -0.1720 -0.0921
  186POPC   GL1 2536   6.764   2.623   3.934 -0.0101  0.2269 -0.0247
  186POPC   GL2 2537   6.458   2.527   4.146 -0.0387  0.0986  0.0900
  186POPC   C1A 2538   6.878   2.785   4.242  0.2037  0.0344 -0.0009
  186POPC   D2A 2539   6.996   2.858   4.627  0.0773 -0.1230  0.2718
  186POPC   C3A 2540   7.237   3.205   4.869  0.3006  0.3415  0.0626
  186POPC   C4A 2541   7.361   3.162   5.284  0.0680 -0.1033  0.2103
  186POPC   C1B 2542   6.536   2.426   4.542  0.0521  0.0469  0.1339
  186POPC   C2B 2543   6.598   2.407   4.947  0.0700  0.2087  0.1114
  186POPC   C3B 2544   6.628   2.487   5.331 -0.0548 -0.0870 -0.3122
  186POPC   C4B 2545   6.579   2.635   5.695 -0.0717  0.0384  0.2358
  187POPC   NC3 2546   0.342   4.659   2.903  0.0580 -0.2028 -0.1376
  187POPC   PO4 2547   0.460   5.088   3.154 -0.1000  0.2812 -0.2546
  187POPC   GL1 2548   0.317   5.121   3.590 -0.0404  0.0906  0.1732
  187POPC   GL2 2549   0.544   4.966   3.822  0.1847 -0.0771 -0.3041
  187POPC   C1A 2550   0.026   4.880   3.909  0.0016  0.1122 -0.0591
  187POPC   D2A 2551  -0.256   4.652   4.193 -0.1441  0.0277 -0.2131
  187POPC   C3A 2552   0.044   4.535   4.473  0.2812 -0.1289 -0.1263
  187POPC   C4A 2553   0.098   4.210   4.554 -0.1423 -0.1488 -0.0822
  187POPC   C1B 2554   0.379   4.912   4.268  0.3155  0.1306  0.1010
  187POPC   C2B 2555   0.487   5.017   4.683 -0.3017 -0.0210  0.0005
  187POPC   C3B 2556   0.268   5.217   4.974 -0.0070 -0.0413 -0.0659
  187POPC   C4B 2557   0.247   5.418   5.277 -0.1079 -0.0622 -0.0128
  188POPC   NC3 2558   3.307   5.631   3.325  0.0038  0.1328  0.0803
  188POPC   PO4 2559   3.523   5.270   3.113  0.0404  0.1833 -0.3049
  188POPC   GL1 2560   3.354   5.198   3.564  0.3739 -0.0002  0.4202
  188POPC   GL2 2561   3.518   5.432   3.737  0.1447 -0.3278  0.1672
  188POPC   C1A 2562   3.343   5.060   3.996 -0.2878 -0.4668  0.1787
  188POPC   D2A 2563   3.463   5.068   4.407  0.1775  0.1531 -0.3426
  188POPC   C3A 2564   3.271   5.278   4.734 -0.0158  0.2116  0.0142
  188POPC   C4A 2565   3.307   5.395   5.205  0.2293 -0.1896 -0.0024
  188POPC   C1B 2566   3.502   5.480   4.179  0.0269  0.3014 -0.1142
  188POPC   C2B 2567   3.575   5.620   4.612 -0.0252  0.0261  0.1248
  188POPC   C3B 2568   3.753   5.380   4.962  0.0115 -0.1282 -0.0438
  188POPC   C4B 2569   4.137   5.362   5.227 -0.3925  0.0494 -0.0246
  189POPC   NC3 2570   7.380   4.607   3.441  0.1548  0.0356 -0.2516
  189POPC   PO4 2571   6.956   4.567   3.380 -0.0838 -0.0688  0.3109
  189POPC   GL1 2572   7.048   4.680   3.929  0.0581  0.0279 -0.1190
  189POPC   GL2 2573   7.069   5.077   3.956 -0.1224  0.3342  0.1280
  189POPC   C1A 2574   7.321   4.685   4.157 -0.0414  0.0479  0.0433
  189POPC   D2A 2575   7.632   4.753   4.490 -0.1489  0.3296 -0.2997
  189POPC   C3A 2576   7.811   5.035   4.773  0.0146  0.0847  0.0422
  189POPC   C4A 2577   7.727   5.008   5.170  0.2028  0.0890 -0.0341
  189POPC   C1B 2578   6.975   5.038   4.321 -0.0492  0.0796 -0.0460
  189POPC   C2B 2579   6.786   5.331   4.584  0.0136 -0.1511  0.5665
  189POPC   C3B 2580   6.745   5.392   5.048  0.3606 -0.0564  0.4262
  189POPC   C4B 2581   6.505   5.207   5.254  0.0080  0.0515 -0.0828
  190POPC   NC3 2582   0.615  10.007   3.311 -0.1060  0.0766 -0.0773
  190POPC   PO4 2583   0.329   9.554   3.440  0.2068  0.0618  0.1381
  190POPC   GL1 2584   0.630   9.570   3.762 -0.3006 -0.1270  0.0130
  190POPC   GL2 2585   0.366   9.502   3.939 -0.3484  0.1555 -0.1137
  190POPC   C1A 2586   0.827   9.540   4.193 -0.0226  0.1971 -0.3625
  190POPC   D2A 2587   0.989   9.450   4.635  0.0465  0.1673 -0.0270
  190POPC   C3A 2588   0.900   8.959   4.697 -0.1196 -0.0184  0.3161
  190POPC   C4A 2589   1.077   8.556   4.873 -0.4209 -0.1879  0.2911
  190POPC   C1B 2590   0.367   9.819   4.191  0.1324 -0.0153 -0.0587
  190POPC   C2B 2591   0.566  10.042   4.486 -0.1363  0.4613 -0.1721
  190POPC   C3B 2592   0.573  10.373   4.704  0.3173 -0.0507  0.1198
  190POPC   C4B 2593   0.464  10.728   4.822 -0.0802 -0.0238 -0.1805
  191POPC   NC3 2594   4.215  10.522   2.817  0.2142 -0.0894 -0.0195
  191POPC   PO4 2595   4.246  10.570   3.223  0.0624  0.2500  0.0898
  191POPC   GL1 2596   4.169  10.448   3.642 -0.0736  0.0512  0.0579
  191POPC   GL2 2597   3.888  10.584   3.547 -0.0378  0.3515 -0.0655
  191POPC   C1A 2598   3.991  10.665   4.021 -0.3023  0.0653  0.0472
  191POPC   D2A 2599   3.931  10.920   4.328  0.3254 -0.0210  0.0935
  191POPC   C3A 2600   3.964  11.008   4.714  0.2469 -0.3378  0.1991
  191POPC   C4A 2601   3.616  11.134   5.049 -0.2779  0.0104 -0.2221
  191POPC   C1B 2602   3.512  10.487   3.815  0.0131 -0.0259 -0.0982
  191POPC   C2B 2603   3.479  10.475   4.233 -0.0338  0.0304 -0.1170
  191POPC   C3B 2604   3.307  10.312   4.558  0.0819 -0.1468  0.1254
  191POPC   C4B 2605   3.193  10.247   4.972 -0.1098  0.0939  0.0737
  192POPC   NC3 2606   6.661   9.098   3.302 -0.2612 -0.1069  0.0939
  192POPC   PO4 2607   6.949   8.698   3.364  0.0488  0.0347  0.1168
  192POPC   GL1 2608   7.124   8.666   3.740  0.0640 -0.1827  0.1752
  192POPC   GL2 2609   7.246   8.950   4.016  0.3328 -0.1144 -0.2200
  192POPC   C1A 2610   6.894   8.557   4.024  0.0391  0.0627 -0.1439
  192POPC   D2A 2611   6.578   8.755   4.238 -0.2958 -0.1537  0.1485
  192POPC   C3A 2612   6.701   9.190   4.437  0.0997  0.2294 -0.0811
  192POPC   C4A 2613   6.907   9.374   4.853  0.2338 -0.2314  0.2234
  192POPC   C1B 2614   7.260   8.722   4.341 -0.1577  0.1386  0.0971
  192POPC   C2B 2615   6.911   8.680   4.667 -0.0874 -0.0540  0.1369
  192POPC   C3B 2616   6.879   8.724   5.106 -0.4131  0.0750  0.1484
  192POPC   C4B 2617   6.663   8.903   5.419  0.2575  0.0153 -0.1365
  193POPC   NC3 2618   4.822   7.007   3.204  0.0355 -0.0119 -0.0072
  193POPC   PO4 2619   5.142   7.372   3.063  0.0063 -0.1974  0.3122
  193POPC   GL1 2620   5.029   7.443   3.549 -0.2144  0.2555 -0.0070
  193POPC   GL2 2621   4.968   7.094   3.718 -0.3583 -0.0203 -0.1146
  193POPC   C1A 2622   5.193   7.483   3.924  0.0234  0.0348 -0.0085
  193POPC   D2A 2623   5.414   7.379   4.358  0.1785 -0.1565 -0.2981
  193POPC   C3A 2624   5.274   7.577   4.742  0.1969  0.1742  0.0592
  193POPC   C4A 2625   4.829   7.566   5.041 -0.1751  0.2915  0.4091
  193POPC   C1B 2626   4.699   6.778   4.065  0.0570  0.0187 -0.0568
  193POPC   C2B 2627   4.726   6.734   4.480  0.1675 -0.0730  0.1167
  193POPC   C3B 2628   4.585   6.756   4.990 -0.0268 -0.5127  0.2062
  193POPC   C4B 2629   4.796   6.985   5.258  0.3832  0.0920 -0.0827
  194POPC   NC3 2630   7.437   7.397   3.117  0.2157  0.0659 -0.0198
  194POPC   PO4 2631   7.135   7.744   3.065  0.0647 -0.2550 -0.1737
  194POPC   GL1 2632   6.919   7.763   3.502  0.2682 -0.1467 -0.0996
  194POPC   GL2 2633   6.816   7.521   3.711 -0.1045  0.2511  0.2560
  194POPC   C1A 2634   6.953   8.018   3.783  0.0632  0.0308 -0.1559
  194POPC   D2A 2635   6.961   7.798   4.217 -0.4327 -0.0200 -0.1377
  194POPC   C3A 2636   6.712   7.893   4.525  0.3352  0.2530  0.0457
  194POPC   C4A 2637   6.635   8.276   4.720 -0.2054  0.0923  0.1199
  194POPC   C1B 2638   6.534   7.754   3.939  0.0919  0.3903  0.0093
  194POPC   C2B 2639   6.319   7.716   4.248  0.2408  0.1043 -0.0322
  194POPC   C3B 2640   6.300   7.735   4.735  0.0233  0.3298  0.2364
  194POPC   C4B 2641   6.488   7.943   5.119 -0.0413 -0.1803  0.1994
  195POPC   NC3 2642   9.591   2.172   3.247 -0.0208 -0.0871  0.0484
  195POPC   PO4 2643   9.255   1.985   3.277 -0.0412 -0.3171 -0.0182
  195POPC   GL1 2644   9.273   2.034   3.613 -0.3325  0.0861  0.0883
  195POPC   GL2 2645   9.028   1.772   3.661  0.0017  0.0398  0.2470
  195POPC   C1A 2646   9.227   2.071   4.052 -0.2465  0.0771 -0.0113
  195POPC   D2A 2647   8.855   2.274   4.314 -0.0593 -0.1342 -0.1637
  195POPC   C3A 2648   8.627   1.903   4.561 -0.1412 -0.2514  0.0576
  195POPC   C4A 2649   8.150   1.732   4.840 -0.0057 -0.0962  0.2430
  195POPC   C1B 2650   9.072   1.593   4.057  0.0406 -0.1254 -0.1894
  195POPC   C2B 2651   9.111   1.807   4.446  0.1857  0.1544  0.2019
  195POPC   C3B 2652   9.086   1.594   4.861 -0.0831  0.0521  0.0692
  195POPC   C4B 2653   9.035   1.561   5.307  0.1991 -0.0780  0.4176
  196POPC   NC3 2654   0.011   7.103   3.208  0.0516 -0.2700 -0.0843
  196POPC   PO4 2655  -0.366   7.237   3.386 -0.0913  0.1854  0.1504
  196POPC   GL1 2656  -0.127   7.469   3.629 -0.0220  0.2538 -0.1834
  196POPC   GL2 2657  -0.369   7.517   3.840  0.3648  0.0883  0.3913
  196POPC   C1A 2658   0.076   7.368   4.004 -0.1476 -0.1533  0.0825
  196POPC   D2A 2659  -0.085   7.413   4.415  0.1101 -0.2578  0.1172
  196POPC   C3A 2660   0.114   7.545   4.784 -0.0568 -0.0291 -0.0145
  196POPC   C4A 2661   0.436   7.707   4.850 -0.0343  0.1621 -0.0524
  196POPC   C1B 2662  -0.547   7.355   4.239  0.2019 -0.1146 -0.1228
  196POPC   C2B 2663  -0.506   7.364   4.679 -0.0995  0.0210 -0.2162
  196POPC   C3B 2664  -0.273   7.393   5.047  0.0835 -0.2867 -0.2913
  196POPC   C4B 2665   0.033   7.254   5.265  0.1898  0.3833 -0.1469
  197POPC   NC3 2666   2.771   8.771   3.307  0.1743 -0.0749 -0.1459
  197POPC   PO4 2667   3.226   8.874   3.133  0.0218  0.0565  0.2615
  197POPC   GL1 2668   3.102   9.061   3.556  0.4620 -0.2235  0.0657
  197POPC   GL2 2669   2.833   9.122   3.899  0.1677 -0.0339  0.0811
  197POPC   C1A 2670   3.366   9.122   3.932 -0.0957 -0.1391 -0.0825
  197POPC   D2A 2671   3.728   9.371   4.038  0.3261  0.0019 -0.1479
  197POPC   C3A 2672   3.780   9.676   4.257  0.0427  0.2043  0.0266
  197POPC   C4A 2673   3.911   9.960   4.593 -0.1414 -0.0053  0.2949
  197POPC   C1B 2674   2.667   9.272   4.306 -0.1721  0.0565  0.0352
  197POPC   C2B 2675   2.801   9.382   4.649 -0.0278  0.2515  0.2472
  197POPC   C3B 2676   2.826   9.363   5.163  0.0078 -0.0079  0.0407
  197POPC   C4B 2677   2.599   9.382   5.606 -0.3093 -0.2779 -0.0622
  198POPC   NC3 2678   3.369   2.464   3.108 -0.1801  0.0358  0.0418
  198POPC   PO4 2679   3.759   2.461   3.189  0.2892  0.0940 -0.0939
  198POPC   GL1 2680   3.693   2.682   3.620  0.0447 -0.1134  0.1967
  198POPC   GL2 2681   3.421   2.698   3.725 -0.0468  0.2086  0.2789
  198POPC   C1A 2682   3.725   3.064   3.911  0.0859  0.4382  0.0382
  198POPC   D2A 2683   3.675   3.366   4.259  0.2920  0.0654  0.0157
  198POPC   C3A 2684   3.694   3.330   4.693  0.2350 -0.2857 -0.0922
  198POPC   C4A 2685   3.824   3.451   5.115 -0.1744  0.1822 -0.0929
  198POPC   C1B 2686   3.399   2.267   4.007 -0.3049 -0.1270  0.0971
  198POPC   C2B 2687   3.312   1.982   4.398  0.1420 -0.0391  0.2246
  198POPC   C3B 2688   3.159   1.891   4.784  0.0524 -0.0748 -0.1100
  198POPC   C4B 2689   2.830   1.716   5.023 -0.0354  0.1419  0.0999
  199POPC   NC3 2690   1.279   7.885   3.168  0.1202 -0.1392 -0.1407
  199POPC   PO4 2691   1.310   8.276   3.186 -0.1355  0.1484  0.0247
  199POPC   GL1 2692   1.089   8.189   3.569 -0.1093  0.1787  0.1337
  199POPC   GL2 2693   0.796   8.491   3.671 -0.0499  0.3761  0.2889
  199POPC   C1A 2694   1.087   8.188   4.005 -0.2070 -0.0878 -0.0286
  199POPC   D2A 2695   1.248   7.890   4.349 -0.0162  0.5163  0.4310
  199POPC   C3A 2696   1.686   7.863   4.544 -0.1532 -0.0094 -0.0145
  199POPC   C4A 2697   2.057   7.891   4.532 -0.0788 -0.4608 -0.5735
  199POPC   C1B 2698   0.790   8.629   4.065 -0.1162  0.1271  0.1819
  199POPC   C2B 2699   1.102   8.713   4.339  0.0855  0.1493  0.3632
  199POPC   C3B 2700   1.328   8.359   4.445 -0.2469 -0.0083 -0.0020
  199POPC   C4B 2701   1.232   8.076   4.829  0.2708  0.1232 -0.3098
  200POPC   NC3 2702   5.424   7.787   3.340  0.1666  0.2784 -0.0493
  200POPC   PO4 2703   5.135   8.169   3.157  0.0213  0.1114  0.2057
  200POPC   GL1 2704   4.995   8.015   3.608 -0.1943 -0.1563  0.2090
  200POPC   GL2 2705   4.714   7.859   3.611 -0.3230  0.1319  0.0401
  200POPC   C1A 2706   4.903   7.901   4.051 -0.1287  0.1434 -0.0082
  200POPC   D2A 2707   4.624   7.718   4.413  0.2945  0.2438 -0.3035
  200POPC   C3A 2708   4.161   7.619   4.586 -0.1955 -0.1546  0.1107
  200POPC   C4A 2709   3.848   7.566   5.000 -0.2897 -0.2049  0.2953
  200POPC   C1B 2710   4.419   8.070   3.915 -0.0210  0.0863  0.1277
  200POPC   C2B 2711   4.250   8.081   4.368  0.0219  0.2006 -0.0101
  200POPC   C3B 2712   4.408   8.074   4.771 -0.1439  0.0004  0.2504
  200POPC   C4B 2713   4.259   7.838   5.071 -0.1007  0.2550 -0.0990
  201POPC   NC3 2714   1.327   4.886   3.539 -0.0202  0.1931 -0.0867
  201POPC   PO4 2715   1.448   4.423   3.553  0.0584 -0.3199  0.0035
  201POPC   GL1 2716   1.378   4.560   4.051  0.0440  0.3118  0.5317
  201POPC   GL2 2717   1.692   4.408   4.321 -0.0160 -0.6191 -0.1269
  201POPC   C1A 2718   1.029   4.436   4.360 -0.0898 -0.0522 -0.1513
  201POPC   D2A 2719   0.989   4.253   4.735  0.0373 -0.1788  0.0638
  201POPC   C3A 2720   1.129   4.380   5.099 -0.2568 -0.0272  0.0441
  201POPC   C4A 2721   1.421   4.309   5.442 -0.0329 -0.1708  0.2113
  201POPC   C1B 2722   1.938   4.411   4.640  0.2465  0.0959 -0.1054
  201POPC   C2B 2723   2.097   4.406   5.020 -0.2374  0.1920  0.2195
  201POPC   C3B 2724   2.124   4.368   5.482  0.0448 -0.1301  0.1623
  201POPC   C4B 2725   1.864   4.551   5.795  0.0652  0.4471  0.1211
  202POPC   NC3 2726   5.354   8.629   2.985  0.1921 -0.0909  0.1791
  202POPC   PO4 2727   5.665   8.365   3.175  0.0866 -0.1075  0.0513
  202POPC   GL1 2728   5.505   8.294   3.597  0.3856  0.0199  0.1452
  202POPC   GL2 2729   5.261   8.432   3.578 -0.4805  0.0136 -0.1342
  202POPC   C1A 2730   5.352   8.133   3.982 -0.2618  0.0210 -0.0072
  202POPC   D2A 2731   5.364   8.035   4.364  0.0105 -0.1814 -0.1852
  202POPC   C3A 2732   5.616   8.306   4.659  0.0770  0.1491  0.2092
  202POPC   C4A 2733   5.702   8.411   5.080  0.1581  0.0641 -0.7446
  202POPC   C1B 2734   5.277   8.664   4.014 -0.1385  0.1769  0.2788
  202POPC   C2B 2735   5.206   8.542   4.444  0.1646  0.0449 -0.2309
  202POPC   C3B 2736   5.279   8.604   4.864  0.4491  0.0030  0.0438
  202POPC   C4B 2737   5.266   8.676   5.294  0.2598 -0.0231  0.0135
  203POPC   NC3 2738   5.817   0.082   3.771  0.3511 -0.1656 -0.0388
  203POPC   PO4 2739   6.107  -0.014   3.920  0.1587  0.2622 -0.1261
  203POPC   GL1 2740   6.114  -0.338   4.309  0.2187 -0.2843  0.0578
  203POPC   GL2 2741   5.745  -0.456   4.326  0.0123 -0.1095  0.2358
  203POPC   C1A 2742   6.105  -0.461   4.683  0.2051  0.0006  0.3677
  203POPC   D2A 2743   6.000  -0.287   5.103  0.1569  0.0393 -0.0707
  203POPC   C3A 2744   5.958  -0.346   5.608 -0.0617 -0.0082 -0.0436
  203POPC   C4A 2745   6.042  -0.310   6.111  0.0458 -0.0139 -0.0459
  203POPC   C1B 2746   5.554  -0.386   4.722 -0.0313 -0.1943 -0.0937
  203POPC   C2B 2747   5.148  -0.540   4.955  0.0844  0.1050  0.1024
  203POPC   C3B 2748   5.024  -0.973   4.984  0.1172  0.0375  0.1392
  203POPC   C4B 2749   4.937  -1.328   5.292 -0.0368 -0.0801 -0.2105
  204POPC   NC3 2750   9.563   3.551   3.469 -0.1054  0.3935 -0.0511
  204POPC   PO4 2751   9.202   3.813   3.441 -0.1163  0.5257 -0.2631
  204POPC   GL1 2752   9.236   3.997   3.809  0.0842  0.0200  0.0538
  204POPC   GL2 2753   9.042   3.713   4.079 -0.5066 -0.1543  0.2415
  204POPC   C1A 2754   9.263   4.077   4.344  0.1204  0.0675  0.1581
  204POPC   D2A 2755   8.951   4.225   4.605  0.2141  0.2024 -0.2439
  204POPC   C3A 2756   8.951   4.525   4.759 -0.1908  0.0984  0.2861
  204POPC   C4A 2757   9.215   4.911   4.703 -0.0706 -0.0052  0.0743
  204POPC   C1B 2758   8.656   3.852   4.367 -0.0313 -0.0373 -0.2964
  204POPC   C2B 2759   8.551   3.740   4.869 -0.3652 -0.1210  0.0981
  204POPC   C3B 2760   8.632   3.701   5.316  0.0401 -0.0732 -0.3829
  204POPC   C4B 2761   8.772   3.896   5.738 -0.0478 -0.0163  0.0894
  205POPC   NC3 2762   3.463   9.357   3.154 -0.1092  0.0824 -0.2177
  205POPC   PO4 2763   3.442   9.770   2.985 -0.1413  0.2471 -0.1571
  205POPC   GL1 2764   3.175   9.947   3.353 -0.1831  0.3478  0.0621
  205POPC   GL2 2765   3.304   9.686   3.510 -0.1344  0.0200  0.0360
  205POPC   C1A 2766   3.220  10.069   3.783  0.2491 -0.1500 -0.0824
  205POPC   D2A 2767   3.357   9.965   4.175  0.1925  0.0441 -0.0464
  205POPC   C3A 2768   3.406   9.867   4.608 -0.0450  0.1379 -0.1663
  205POPC   C4A 2769   3.736   9.906   5.065  0.2215 -0.1824 -0.0287
  205POPC   C1B 2770   3.192   9.569   3.912  0.0151 -0.1115 -0.1725
  205POPC   C2B 2771   3.185   9.547   4.269 -0.0553 -0.0677 -0.1270
  205POPC   C3B 2772   3.239   9.483   4.814 -0.2519 -0.3491 -0.1819
  205POPC   C4B 2773   3.224   9.660   5.232  0.0595  0.0377  0.0365
  206POPC   NC3 2774   1.810   8.014   3.457 -0.0414 -0.0022 -0.1573
  206POPC   PO4 2775   1.663   7.619   3.077  0.2599 -0.1925 -0.1850
  206POPC   GL1 2776   1.598   7.538   3.565 -0.1016 -0.0387 -0.1130
  206POPC   GL2 2777   1.319   7.739   3.608  0.0292  0.0923 -0.1992
  206POPC   C1A 2778   1.739   7.335   4.044 -0.4586 -0.3551 -0.0657
  206POPC   D2A 2779   1.568   7.433   4.375  0.1545 -0.0145 -0.0412
  206POPC   C3A 2780   1.300   7.045   4.622  0.0011  0.1660 -0.0903
  206POPC   C4A 2781   1.030   6.651   4.690 -0.3492  0.1625  0.1535
  206POPC   C1B 2782   1.203   7.561   3.957  0.0563 -0.3127  0.2029
  206POPC   C2B 2783   1.058   7.355   4.352  0.1463  0.0083  0.3401
  206POPC   C3B 2784   0.834   7.281   4.731  0.0908  0.0611 -0.0704
  206POPC   C4B 2785   0.854   6.988   4.928 -0.0187 -0.0550  0.2126
  207POPC   NC3 2786   1.440  10.108   2.779 -0.0225  0.1758  0.0750
  207POPC   PO4 2787   1.472  10.367   3.165  0.0405  0.1158 -0.4005
  207POPC   GL1 2788   1.485  10.434   3.505  0.1639  0.1254  0.0073
  207POPC   GL2 2789   1.576  10.725   3.583  0.0019  0.0816  0.0123
  207POPC   C1A 2790   1.431  10.141   3.874  0.0575  0.0421 -0.5363
  207POPC   D2A 2791   1.575  10.321   4.172 -0.1697  0.1352 -0.1264
  207POPC   C3A 2792   2.078  10.423   4.124  0.1137  0.3557  0.0228
  207POPC   C4A 2793   2.334  10.136   3.800  0.0297  0.0657  0.2077
  207POPC   C1B 2794   1.775  10.813   3.944  0.2194  0.4443  0.1285
  207POPC   C2B 2795   1.884  10.824   4.381 -0.0408 -0.2900  0.1837
  207POPC   C3B 2796   2.197  10.861   4.743 -0.1668 -0.0467 -0.0247
  207POPC   C4B 2797   2.371  11.080   5.037  0.2320  0.0294 -0.1467
  208POPC   NC3 2798   7.234   5.930   3.183  0.1079 -0.0682 -0.2318
  208POPC   PO4 2799   6.828   5.931   3.543  0.0540  0.0743  0.0793
  208POPC   GL1 2800   6.480   6.022   3.792 -0.1825 -0.1549 -0.3445
  208POPC   GL2 2801   6.404   5.707   4.024 -0.1224 -0.2986 -0.3785
  208POPC   C1A 2802   6.496   6.168   4.320 -0.1576 -0.1392  0.0486
  208POPC   D2A 2803   6.742   6.448   4.699 -0.4106 -0.2903  0.0012
  208POPC   C3A 2804   6.709   6.476   5.165  0.1541 -0.1543  0.1088
  208POPC   C4A 2805   6.683   6.247   5.473 -0.1506  0.0513  0.2386
  208POPC   C1B 2806   6.505   5.680   4.431 -0.0589 -0.2873  0.0568
  208POPC   C2B 2807   6.707   5.826   4.810  0.2055  0.4033 -0.0571
  208POPC   C3B 2808   6.957   6.050   5.095 -0.0723  0.1507 -0.3769
  208POPC   C4B 2809   7.180   5.973   5.475 -0.0948 -0.2438  0.0211
  209POPC   NC3 2810   3.019   9.529   2.951  0.1523  0.0211 -0.0055
  209POPC   PO4 2811   2.770   9.251   3.267  0.1187 -0.0661  0.1144
  209POPC   GL1 2812   2.501   9.336   3.616 -0.1242  0.0488 -0.3784
  209POPC   GL2 2813   2.354   9.078   3.771 -0.1079  0.0308 -0.2544
  209POPC   C1A 2814   2.273   9.652   3.887  0.1793 -0.0536 -0.0534
  209POPC   D2A 2815   1.920   9.909   4.101  0.1298  0.0112  0.0613
  209POPC   C3A 2816   1.832   9.949   4.513 -0.1992 -0.1556  0.3028
  209POPC   C4A 2817   1.780   9.630   4.843  0.0541 -0.0702  0.1036
  209POPC   C1B 2818   2.170   9.192   4.169  0.0545 -0.1273  0.0943
  209POPC   C2B 2819   1.933   9.014   4.590  0.5136 -0.1947  0.0691
  209POPC   C3B 2820   1.763   9.122   4.933  0.0282 -0.2013 -0.1672
  209POPC   C4B 2821   1.690   8.981   5.399 -0.0929 -0.0039 -0.1127
  210POPC   NC3 2822   1.559   0.169   3.073 -0.0032 -0.1673  0.1913
  210POPC   PO4 2823   1.579   0.426   3.381  0.0654  0.0696 -0.0999
  210POPC   GL1 2824   1.808   0.544   3.691  0.0384 -0.2007 -0.0284
  210POPC   GL2 2825   2.020   0.556   3.915  0.0145 -0.2312  0.0816
  210POPC   C1A 2826   1.571   0.400   4.123  0.1446 -0.2441  0.0188
  210POPC   D2A 2827   1.529   0.330   4.587 -0.2611  0.0966 -0.1479
  210POPC   C3A 2828   1.477   0.163   5.059 -0.0516 -0.4265 -0.0793
  210POPC   C4A 2829   1.267  -0.225   5.173  0.1383 -0.2101 -0.3851
  210POPC   C1B 2830   2.114   0.570   4.353 -0.0779  0.0560  0.2424
  210POPC   C2B 2831   2.450   0.709   4.669 -0.0675 -0.0686 -0.1311
  210POPC   C3B 2832   2.756   0.882   4.842 -0.2520  0.1209  0.1747
  210POPC   C4B 2833   2.666   1.232   5.104 -0.3354 -0.0458 -0.1810
  211POPC   NC3 2834   4.745   4.699   3.355  0.0143 -0.1582  0.0107
  211POPC   PO4 2835   4.500   4.617   3.658 -0.2647 -0.0186  0.1702
  211POPC   GL1 2836   4.219   4.899   3.809 -0.2212 -0.2236 -0.1053
  211POPC   GL2 2837   4.406   5.200   3.966  0.0560 -0.1633  0.1539
  211POPC   C1A 2838   3.822   5.067   4.059 -0.1412 -0.2286 -0.1872
  211POPC   D2A 2839   3.973   5.264   4.450  0.1620 -0.3889  0.1416
  211POPC   C3A 2840   3.928   4.911   4.722 -0.1021  0.0441 -0.4140
  211POPC   C4A 2841   3.855   4.586   5.023  0.3760 -0.1994 -0.0190
  211POPC   C1B 2842   4.219   4.844   4.280  0.1412  0.0858  0.0727
  211POPC   C2B 2843   4.345   4.662   4.654 -0.1192  0.0015  0.0699
  211POPC   C3B 2844   4.450   4.363   4.829 -0.4468  0.2398 -0.1552
  211POPC   C4B 2845   4.396   4.039   5.214 -0.0108  0.1675  0.1223
  212POPC   NC3 2846  10.226   8.560   3.280  0.0097  0.0751  0.0080
  212POPC   PO4 2847  10.651   8.468   3.541  0.1194  0.0161  0.0890
  212POPC   GL1 2848  10.590   8.497   3.912 -0.3870  0.1460  0.0568
  212POPC   GL2 2849  10.686   8.227   4.127  0.1516  0.0107  0.1775
  212POPC   C1A 2850  10.442   8.583   4.307 -0.0441  0.3068 -0.1002
  212POPC   D2A 2851  10.242   8.598   4.624 -0.0452 -0.0752  0.1860
  212POPC   C3A 2852  10.576   8.573   4.882  0.1964  0.2474  0.2792
  212POPC   C4A 2853  10.540   8.874   5.314 -0.2575  0.0891  0.1505
  212POPC   C1B 2854  10.454   8.081   4.605  0.3006 -0.2771  0.0583
  212POPC   C2B 2855  10.439   7.907   4.832  0.1658  0.0351 -0.0332
  212POPC   C3B 2856  10.132   7.724   4.978 -0.0269  0.0225 -0.0594
  212POPC   C4B 2857   9.774   7.793   5.172 -0.0992 -0.1340  0.1368
  213POPC   NC3 2858   9.486   6.305   3.283  0.0998  0.0942 -0.3166
  213POPC   PO4 2859   9.236   6.040   3.559  0.1530 -0.1187  0.0452
  213POPC   GL1 2860   9.435   5.697   3.823  0.3642 -0.3540 -0.1688
  213POPC   GL2 2861   9.176   5.448   3.924  0.3662 -0.2020 -0.0495
  213POPC   C1A 2862   9.827   5.724   3.972  0.0238  0.1212 -0.0701
  213POPC   D2A 2863  10.138   5.404   4.184 -0.1576 -0.2072  0.4464
  213POPC   C3A 2864  10.265   5.294   4.638 -0.0658  0.1722 -0.0385
  213POPC   C4A 2865  10.605   5.365   4.911 -0.1644 -0.1860 -0.1633
  213POPC   C1B 2866   9.016   5.465   4.347  0.1592 -0.0007  0.2236
  213POPC   C2B 2867   8.687   5.347   4.655  0.2879  0.2296  0.1632
  213POPC   C3B 2868   8.702   5.645   4.944  0.1999  0.1946  0.2623
  213POPC   C4B 2869   9.037   5.704   5.204 -0.0984 -0.0870 -0.0472
  214POPC   NC3 2870   8.228   2.141   3.740  0.4115  0.4702 -0.1986
  214POPC   PO4 2871   8.499   2.457   3.936  0.4307 -0.0480 -0.2122
  214POPC   GL1 2872   8.352   2.290   4.305  0.0185 -0.3132  0.2390
  214POPC   GL2 2873   8.255   1.940   4.273 -0.0506  0.1161 -0.1522
  214POPC   C1A 2874   8.207   2.373   4.770  0.2274 -0.2136  0.1906
  214POPC   D2A 2875   8.379   2.387   5.190  0.1994 -0.2010  0.1521
  214POPC   C3A 2876   8.194   2.051   5.529  0.1448  0.1374 -0.2578
  214POPC   C4A 2877   8.155   2.192   5.978 -0.1318  0.1204 -0.0221
  214POPC   C1B 2878   7.876   1.670   4.451  0.2483  0.1450  0.0739
  214POPC   C2B 2879   7.638   1.434   4.723  0.2105 -0.0284  0.5145
  214POPC   C3B 2880   7.660   1.265   5.097 -0.0149 -0.1536 -0.1463
  214POPC   C4B 2881   7.916   1.662   5.346  0.2828  0.3219  0.0866
  215POPC   NC3 2882   2.947   4.365   2.693  0.0044  0.2109 -0.2903
  215POPC   PO4 2883   3.307   4.202   2.788 -0.2122  0.0425 -0.4039
  215POPC   GL1 2884   3.445   4.260   3.239 -0.1930  0.2370  0.0412
  215POPC   GL2 2885   3.310   4.096   3.405 -0.0418 -0.1725  0.0965
  215POPC   C1A 2886   3.675   4.192   3.695  0.2081 -0.2303 -0.0901
  215POPC   D2A 2887   3.961   4.517   4.008  0.1711  0.1378 -0.1957
  215POPC   C3A 2888   3.652   4.601   4.285 -0.3061 -0.0482 -0.1893
  215POPC   C4A 2889   3.561   4.368   4.602 -0.0330  0.0945 -0.0612
  215POPC   C1B 2890   2.884   4.211   3.709 -0.1917 -0.5322  0.1284
  215POPC   C2B 2891   2.676   4.021   4.007 -0.0872 -0.0328  0.1532
  215POPC   C3B 2892   2.716   3.919   4.399 -0.3233  0.1705 -0.0379
  215POPC   C4B 2893   2.397   3.984   4.619  0.1368 -0.1397 -0.1666
  216POPC   NC3 2894   3.644   1.026   3.090  0.0247  0.3370 -0.0626
  216POPC   PO4 2895   3.719   1.389   3.167 -0.0520  0.0531 -0.2792
  216POPC   GL1 2896   3.449   1.268   3.621  0.4883  0.0879 -0.2430
  216POPC   GL2 2897   3.185   1.384   3.687  0.0537  0.0559  0.2632
  216POPC   C1A 2898   3.199   1.132   4.041  0.1475 -0.0345  0.0827
  216POPC   D2A 2899   2.789   1.038   4.358 -0.0270  0.0389  0.3069
  216POPC   C3A 2900   2.511   1.420   4.503  0.0475 -0.0564  0.2646
  216POPC   C4A 2901   2.267   1.644   4.764  0.2038  0.0367  0.1372
  216POPC   C1B 2902   3.162   1.835   3.856  0.1375  0.2343  0.1140
  216POPC   C2B 2903   2.865   2.063   4.033 -0.2490 -0.0033 -0.2452
  216POPC   C3B 2904   2.982   2.397   4.176 -0.0435 -0.4131  0.2108
  216POPC   C4B 2905   3.225   2.418   4.582 -0.1582  0.3787  0.0032
  217POPC   NC3 2906   0.971   0.899   2.939 -0.1510 -0.4430 -0.1094
  217POPC   PO4 2907   1.041   0.640   3.213  0.2067 -0.2414 -0.0496
  217POPC   GL1 2908   1.099   0.522   3.600 -0.2054  0.1892  0.0386
  217POPC   GL2 2909   1.261   0.339   3.762  0.3143 -0.1538 -0.0887
  217POPC   C1A 2910   1.341   0.822   3.917  0.2136 -0.1949  0.2957
  217POPC   D2A 2911   1.705   0.871   4.108  0.0549  0.3453  0.0672
  217POPC   C3A 2912   1.692   0.839   4.553 -0.1100  0.3369 -0.4727
  217POPC   C4A 2913   1.878   0.608   4.852  0.3068 -0.0900  0.0632
  217POPC   C1B 2914   1.046   0.358   4.186 -0.1304 -0.0760 -0.0466
  217POPC   C2B 2915   0.676   0.548   4.509 -0.0897  0.0714  0.4691
  217POPC   C3B 2916   0.676   0.823   4.845 -0.0585  0.1275  0.0368
  217POPC   C4B 2917   0.678   1.217   5.115  0.1126  0.0328  0.1354
  218POPC   NC3 2918  10.484   2.465   3.353 -0.1134  0.2122 -0.0366
  218POPC   PO4 2919  10.814   2.721   3.466  0.0519  0.1695  0.1675
  218POPC   GL1 2920  10.845   2.866   3.846 -0.0698 -0.0456  0.3047
  218POPC   GL2 2921  10.831   2.567   3.989 -0.0897 -0.0495  0.2202
  218POPC   C1A 2922  11.119   2.917   4.269 -0.2850 -0.2646  0.0811
  218POPC   D2A 2923  11.528   3.084   4.416  0.4107 -0.1073 -0.2131
  218POPC   C3A 2924  11.772   3.014   4.734 -0.0923 -0.0776 -0.1746
  218POPC   C4A 2925  12.069   3.053   4.947  0.1048 -0.3109  0.1305
  218POPC   C1B 2926  10.911   2.471   4.465  0.0272 -0.0539 -0.1850
  218POPC   C2B 2927  11.139   2.285   4.867 -0.0580 -0.2823  0.1697
  218POPC   C3B 2928  10.881   2.119   5.101 -0.1362  0.2324 -0.3184
  218POPC   C4B 2929  10.729   1.735   5.131 -0.0343  0.1432  0.1412
  219POPC   NC3 2930   1.763   4.297   3.120  0.0187 -0.0017  0.1465
  219POPC   PO4 2931   2.186   4.444   3.248 -0.0979  0.3277 -0.2111
  219POPC   GL1 2932   2.363   4.502   3.721 -0.0421  0.0279  0.0312
  219POPC   GL2 2933   2.339   4.871   3.896 -0.0051  0.4332 -0.1609
  219POPC   C1A 2934   2.667   4.561   4.022  0.0863 -0.2161  0.0493
  219POPC   D2A 2935   2.771   4.416   4.475 -0.2644  0.1766 -0.0883
  219POPC   C3A 2936   2.528   4.645   4.836 -0.1227  0.0419 -0.0782
  219POPC   C4A 2937   2.246   4.956   4.902  0.1546  0.0347  0.1114
  219POPC   C1B 2938   2.423   4.843   4.369 -0.2345  0.1108 -0.2964
  219POPC   C2B 2939   2.757   5.086   4.594  0.0115  0.0428 -0.0357
  219POPC   C3B 2940   2.849   5.441   4.866 -0.1019  0.0128  0.2345
  219POPC   C4B 2941   3.080   5.837   4.858 -0.1396  0.0442 -0.1072
  220POPC   NC3 2942   1.696   1.939   3.434 -0.2295 -0.1413 -0.1284
  220POPC   PO4 2943   2.091   2.082   3.395  0.0919 -0.1149  0.0808
  220POPC   GL1 2944   1.995   2.101   3.823  0.1077 -0.1071 -0.2130
  220POPC   GL2 2945   2.177   2.267   3.956 -0.0063 -0.0023 -0.3526
  220POPC   C1A 2946   1.536   1.978   4.123 -0.3644  0.0012  0.0972
  220POPC   D2A 2947   1.504   2.073   4.572  0.1702  0.1593  0.1142
  220POPC   C3A 2948   1.475   1.807   4.958  0.0109  0.0271  0.0827
  220POPC   C4A 2949   1.034   1.582   5.090  0.0873  0.1399  0.1681
  220POPC   C1B 2950   2.481   2.421   4.177  0.2449  0.1303  0.0366
  220POPC   C2B 2951   2.314   2.486   4.640 -0.0988 -0.1293 -0.4283
  220POPC   C3B 2952   1.945   2.599   4.888 -0.1174  0.1322  0.2831
  220POPC   C4B 2953   1.892   2.764   5.282 -0.2809 -0.1152  0.0616
  221POPC   NC3 2954   6.749   8.084   3.098 -0.1670  0.1750  0.3081
  221POPC   PO4 2955   6.387   7.770   2.985  0.0824  0.2291 -0.0347
  221POPC   GL1 2956   6.452   7.680   3.342 -0.0012 -0.0459 -0.2583
  221POPC   GL2 2957   6.408   7.989   3.500 -0.0801  0.0631  0.0962
  221POPC   C1A 2958   6.130   7.560   3.748 -0.0395  0.0384 -0.2005
  221POPC   D2A 2959   5.795   7.648   4.093  0.3953 -0.4108  0.1410
  221POPC   C3A 2960   5.789   7.799   4.483  0.0693  0.0546 -0.1629
  221POPC   C4A 2961   5.614   7.883   4.973  0.3517 -0.1463  0.0165
  221POPC   C1B 2962   6.138   8.043   3.888 -0.0218 -0.1727  0.0073
  221POPC   C2B 2963   5.762   8.449   4.049  0.3885 -0.0445 -0.1324
  221POPC   C3B 2964   5.616   8.872   4.270  0.0245  0.1367 -0.1130
  221POPC   C4B 2965   5.323   9.050   4.497 -0.0448 -0.4023 -0.2512
  222POPC   NC3 2966   2.264   3.819   2.697  0.0693  0.0173  0.0471
  222POPC   PO4 2967   2.577   3.556   2.946 -0.0934  0.0601  0.1286
  222POPC   GL1 2968   2.582   3.620   3.337  0.1301  0.0116 -0.0446
  222POPC   GL2 2969   2.872   3.672   3.446  0.0268  0.1084 -0.1418
  222POPC   C1A 2970   2.473   3.652   3.707  0.0349 -0.0218 -0.2244
  222POPC   D2A 2971   2.336   3.627   4.108  0.2517 -0.1093  0.3143
  222POPC   C3A 2972   2.057   3.674   4.412  0.0702 -0.2321 -0.1006
  222POPC   C4A 2973   1.889   3.892   4.717 -0.3116  0.0101  0.0339
  222POPC   C1B 2974   3.099   3.681   3.929 -0.0873  0.0326 -0.2697
  222POPC   C2B 2975   3.196   3.499   4.357 -0.0938 -0.2605  0.2536
  222POPC   C3B 2976   3.169   3.553   4.799 -0.0808  0.2788  0.1106
  222POPC   C4B 2977   3.360   3.575   5.115 -0.1079  0.0385  0.2138
  223POPC   NC3 2978   0.786   6.404   2.455  0.2769  0.1577 -0.2605
  223POPC   PO4 2979   0.833   6.297   2.878 -0.1547 -0.2100  0.1096
  223POPC   GL1 2980   0.718   6.498   3.225 -0.1064 -0.0476 -0.0721
  223POPC   GL2 2981   1.022   6.416   3.418  0.1474 -0.3516  0.0715
  223POPC   C1A 2982   0.518   6.462   3.621  0.3024 -0.3622  0.1217
  223POPC   D2A 2983   0.551   6.396   4.098 -0.0843 -0.4471  0.1514
  223POPC   C3A 2984   0.234   6.544   4.362 -0.0045 -0.0456  0.1835
  223POPC   C4A 2985  -0.015   6.502   4.762 -0.0316 -0.0586 -0.1212
  223POPC   C1B 2986   1.066   6.335   3.848  0.2402  0.1953  0.0146
  223POPC   C2B 2987   1.098   6.330   4.305 -0.3690 -0.2337 -0.2712
  223POPC   C3B 2988   0.977   6.081   4.628 -0.1959 -0.3022  0.0389
  223POPC   C4B 2989   1.076   5.705   4.867  0.3119 -0.0855 -0.1427
  224POPC   NC3 2990   6.610   6.392   3.423  0.2336  0.1937  0.1276
  224POPC   PO4 2991   7.181   6.428   3.371  0.0052 -0.0231 -0.1181
  224POPC   GL1 2992   7.314   6.343   3.867 -0.2586 -0.1133  0.2868
  224POPC   GL2 2993   7.418   6.104   3.735  0.0064 -0.2489  0.0417
  224POPC   C1A 2994   7.244   6.562   4.179  0.1342 -0.2383  0.0360
  224POPC   D2A 2995   7.210   6.683   4.554 -0.0809  0.0197  0.0477
  224POPC   C3A 2996   7.057   7.156   4.590  0.0388  0.0280  0.0713
  224POPC   C4A 2997   7.268   7.440   4.929  0.1658 -0.0242  0.0961
  224POPC   C1B 2998   7.518   6.015   4.231  0.0872  0.1106 -0.2420
  224POPC   C2B 2999   7.838   6.173   4.605  0.1129 -0.1645  0.0479
  224POPC   C3B 3000   7.937   6.309   5.067  0.1622  0.2201  0.0737
  224POPC   C4B 3001   8.268   6.381   5.189 -0.1913 -0.1453  0.0019
  225POPC   NC3 3002   6.533   4.369   3.252 -0.1273 -0.3034  0.1132
  225POPC   PO4 3003   6.512   4.296   3.615  0.1387  0.0416  0.0802
  225POPC   GL1 3004   6.578   4.282   4.006  0.2514  0.2658  0.1589
  225POPC   GL2 3005   6.654   3.952   4.062  0.0570  0.0700  0.2645
  225POPC   C1A 3006   6.893   4.344   4.304 -0.0282  0.0950  0.2183
  225POPC   D2A 3007   7.137   4.407   4.676 -0.0562  0.1358 -0.0651
  225POPC   C3A 3008   7.450   4.643   5.032  0.0882 -0.0296 -0.4446
  225POPC   C4A 3009   7.275   4.978   5.372 -0.1197 -0.2406  0.1115
  225POPC   C1B 3010   6.563   3.679   4.243  0.0764 -0.1687 -0.2147
  225POPC   C2B 3011   6.219   3.553   4.430 -0.0509  0.1200  0.3023
  225POPC   C3B 3012   5.993   3.709   4.745  0.3680  0.0889  0.1857
  225POPC   C4B 3013   5.910   3.677   5.251  0.0103  0.1709  0.1853
  226POPC   NC3 3014   7.097   1.760   3.579 -0.0087 -0.2041 -0.0084
  226POPC   PO4 3015   7.006   1.718   3.960 -0.0147  0.0679 -0.1426
  226POPC   GL1 3016   6.795   1.902   4.278 -0.1122 -0.1881  0.0501
  226POPC   GL2 3017   6.956   2.184   4.321  0.1755 -0.1193 -0.2210
  226POPC   C1A 3018   6.833   1.983   4.764  0.0357 -0.1824  0.3691
  226POPC   D2A 3019   6.879   1.580   5.111  0.0794  0.1881 -0.1712
  226POPC   C3A 3020   6.883   1.741   5.478  0.0290 -0.0122  0.0114
  226POPC   C4A 3021   7.079   1.807   5.802 -0.0600 -0.0089  0.0167
  226POPC   C1B 3022   7.114   2.396   4.734 -0.2113  0.1810  0.0940
  226POPC   C2B 3023   7.081   2.683   5.082 -0.1513  0.3870  0.1753
  226POPC   C3B 3024   6.894   2.974   5.414  0.0123 -0.2966  0.1582
  226POPC   C4B 3025   6.645   3.288   5.691  0.1207  0.5363 -0.0631
  227POPC   NC3 3026   3.852   8.502   3.375  0.1333 -0.0917 -0.0113
  227POPC   PO4 3027   4.322   8.587   3.368 -0.4394  0.1560  0.0087
  227POPC   GL1 3028   4.291   8.585   3.780 -0.0351 -0.1633  0.1586
  227POPC   GL2 3029   3.991   8.377   3.868 -0.1541 -0.0188  0.0108
  227POPC   C1A 3030   4.384   8.552   4.203  0.1442 -0.1556 -0.1520
  227POPC   D2A 3031   4.165   8.548   4.644 -0.0954 -0.1380 -0.2145
  227POPC   C3A 3032   4.271   8.532   5.105  0.1252 -0.0358 -0.1406
  227POPC   C4A 3033   4.252   8.222   5.344 -0.0929 -0.0609 -0.4222
  227POPC   C1B 3034   3.791   8.290   4.277  0.0217  0.2242  0.1004
  227POPC   C2B 3035   3.856   8.104   4.707  0.0887  0.1270 -0.0204
  227POPC   C3B 3036   3.794   8.370   5.103  0.0144 -0.2470  0.0178
  227POPC   C4B 3037   3.737   8.416   5.599  0.2306  0.1002  0.0718
  228POPC   NC3 3038   7.028   3.708   3.682  0.1874  0.0762 -0.0320
  228POPC   PO4 3039   7.472   3.821   3.752  0.1291  0.1197  0.1488
  228POPC   GL1 3040   7.258   3.939   4.151  0.0270 -0.1329  0.0827
  228POPC   GL2 3041   7.494   4.196   4.301 -0.3164 -0.1636 -0.0242
  228POPC   C1A 3042   7.001   3.876   4.434 -0.2135 -0.2075 -0.0864
  228POPC   D2A 3043   6.787   4.050   4.750  0.1658  0.1165  0.2680
  228POPC   C3A 3044   6.434   4.037   4.548  0.1415 -0.1622 -0.1456
  228POPC   C4A 3045   6.077   4.125   4.343 -0.0413 -0.3330 -0.0496
  228POPC   C1B 3046   7.567   4.204   4.716 -0.1268  0.1070  0.1231
  228POPC   C2B 3047   7.260   4.083   5.073 -0.0285 -0.1997 -0.0409
  228POPC   C3B 3048   6.868   4.194   5.263  0.1222 -0.1391 -0.2939
  228POPC   C4B 3049   6.632   4.397   5.563  0.0455  0.0190 -0.1305
  229POPC   NC3 3050   9.788   3.157   3.230 -0.2938  0.2256 -0.0181
  229POPC   PO4 3051  10.047   3.307   3.452  0.2147 -0.0855 -0.1363
  229POPC   GL1 3052   9.895   3.284   3.856  0.1495  0.0451  0.1524
  229POPC   GL2 3053   9.665   3.103   3.782 -0.0612  0.1335  0.1101
  229POPC   C1A 3054   9.837   3.417   4.348 -0.1847  0.2286 -0.3021
  229POPC   D2A 3055   9.948   3.278   4.749  0.0471 -0.1454  0.0545
  229POPC   C3A 3056   9.943   3.416   5.261 -0.2853 -0.2800  0.4181
  229POPC   C4A 3057   9.883   3.104   5.517 -0.3742 -0.0137  0.2198
  229POPC   C1B 3058   9.539   3.055   4.241  0.0193 -0.0670  0.0523
  229POPC   C2B 3059   9.541   2.822   4.614  0.1387  0.0706  0.0369
  229POPC   C3B 3060   9.407   2.571   5.016  0.3382  0.3895 -0.1943
  229POPC   C4B 3061   9.543   2.301   5.344  0.0849 -0.2319 -0.1436
  230POPC   NC3 3062   1.097   1.943   2.888  0.0208  0.1286 -0.1632
  230POPC   PO4 3063   1.003   1.731   3.319 -0.2528 -0.3150  0.1966
  230POPC   GL1 3064   0.763   1.602   3.726 -0.2934  0.2614 -0.1572
  230POPC   GL2 3065   0.543   1.815   3.942 -0.1190 -0.0075  0.3708
  230POPC   C1A 3066   0.959   1.580   4.167  0.0623 -0.2229  0.4004
  230POPC   D2A 3067   1.185   1.551   4.599 -0.0151 -0.0052  0.0198
  230POPC   C3A 3068   1.047   1.136   4.838 -0.3577 -0.1667  0.4161
  230POPC   C4A 3069   1.113   1.090   5.286 -0.2429 -0.0200  0.3347
  230POPC   C1B 3070   0.290   1.579   4.337 -0.1879 -0.3418  0.1698
  230POPC   C2B 3071   0.012   1.937   4.534 -0.3045  0.0315 -0.2213
  230POPC   C3B 3072  -0.301   2.225   4.728 -0.4231  0.1696  0.1140
  230POPC   C4B 3073  -0.641   2.352   4.531 -0.2584  0.1879 -0.0709
  231POPC   NC3 3074   0.018   5.457   3.279  0.2124  0.1239 -0.0453
  231POPC   PO4 3075  -0.405   5.810   3.271 -0.0502  0.0521  0.1119
  231POPC   GL1 3076  -0.053   6.000   3.484 -0.2679 -0.1647  0.0686
  231POPC   GL2 3077   0.182   5.926   3.358  0.0009  0.0577 -0.0902
  231POPC   C1A 3078   0.110   6.155   3.913  0.2152 -0.0648  0.1926
  231POPC   D2A 3079   0.284   5.875   4.195  0.3848 -0.0866  0.0363
  231POPC   C3A 3080   0.370   6.083   4.502 -0.0964 -0.1116  0.1170
  231POPC   C4A 3081   0.599   6.409   4.672 -0.1165  0.1488 -0.2502
  231POPC   C1B 3082   0.500   5.898   3.755  0.2129 -0.1083  0.3018
  231POPC   C2B 3083   0.778   5.893   4.135  0.0969  0.1381 -0.1328
  231POPC   C3B 3084   0.990   5.610   4.375 -0.0629 -0.0204  0.0545
  231POPC   C4B 3085   1.064   5.330   4.574  0.2709  0.1635 -0.1149
  232POPC   NC3 3086   6.276   1.406   3.526  0.1968  0.3003 -0.0308
  232POPC   PO4 3087   6.433   0.983   3.561 -0.1458 -0.0724  0.1011
  232POPC   GL1 3088   6.636   0.878   3.903  0.2270 -0.2630 -0.2037
  232POPC   GL2 3089   6.926   0.931   3.919 -0.0061 -0.4208 -0.0523
  232POPC   C1A 3090   6.574   0.793   4.345 -0.2225 -0.0525 -0.0292
  232POPC   D2A 3091   6.723   0.911   4.729 -0.1019 -0.2398 -0.2951
  232POPC   C3A 3092   6.867   0.678   5.086 -0.0131 -0.2889 -0.1476
  232POPC   C4A 3093   6.967   0.364   5.393 -0.0655  0.4737  0.1827
  232POPC   C1B 3094   6.928   1.123   4.282  0.3533 -0.0969 -0.1250
  232POPC   C2B 3095   7.193   1.183   4.695  0.0041 -0.1824  0.3252
  232POPC   C3B 3096   7.088   1.126   5.233 -0.0484  0.2318  0.0347
  232POPC   C4B 3097   7.195   0.806   5.454  0.1433  0.1128  0.1495
  233POPC   NC3 3098   2.014   5.667   3.412  0.0028  0.0677  0.2815
  233POPC   PO4 3099   1.850   5.312   3.303  0.0266  0.1969 -0.1879
  233POPC   GL1 3100   1.828   5.132   3.648  0.0846 -0.3041  0.1128
  233POPC   GL2 3101   2.059   5.302   3.794 -0.0782  0.2515  0.1127
  233POPC   C1A 3102   1.756   4.963   4.080 -0.1116 -0.0587 -0.0596
  233POPC   D2A 3103   1.957   4.901   4.483 -0.1744  0.0739 -0.0481
  233POPC   C3A 3104   1.764   4.843   4.792 -0.1484 -0.0769  0.1844
  233POPC   C4A 3105   1.818   4.898   5.210  0.2096  0.2659 -0.0211
  233POPC   C1B 3106   2.034   5.433   4.247 -0.0277 -0.2344 -0.0966
  233POPC   C2B 3107   1.556   5.259   4.507  0.0297 -0.2837 -0.1470
  233POPC   C3B 3108   1.366   4.887   4.467 -0.1972 -0.1533  0.0269
  233POPC   C4B 3109   1.432   4.473   4.739 -0.0847  0.1267  0.0963
  234POPC   NC3 3110   5.540   6.734   2.963  0.5243 -0.0507  0.0090
  234POPC   PO4 3111   5.268   6.963   3.350  0.1485 -0.2718  0.0645
  234POPC   GL1 3112   5.227   6.657   3.710  0.0870  0.0380 -0.1151
  234POPC   GL2 3113   5.446   6.811   3.936  0.3646 -0.2369 -0.1047
  234POPC   C1A 3114   5.142   6.448   4.134  0.4513 -0.2971 -0.1724
  234POPC   D2A 3115   4.955   6.296   4.550  0.1376  0.2617 -0.0955
  234POPC   C3A 3116   5.131   6.086   4.764  0.0235  0.0788  0.3496
  234POPC   C4A 3117   5.581   5.974   4.981 -0.1123 -0.1230 -0.0289
  234POPC   C1B 3118   5.188   6.973   4.154  0.0423 -0.1182 -0.1566
  234POPC   C2B 3119   5.219   6.967   4.566  0.1484  0.0259 -0.3795
  234POPC   C3B 3120   5.188   7.070   4.941  0.1604 -0.1344 -0.0113
  234POPC   C4B 3121   5.386   7.148   5.369  0.2386 -0.1343 -0.2325
  235POPC   NC3 3122   5.069   6.522   3.265  0.2134 -0.1617  0.0174
  235POPC   PO4 3123   4.867   6.376   3.418 -0.2331  0.1179  0.1803
  235POPC   GL1 3124   4.768   6.343   3.792 -0.1273 -0.1855 -0.0133
  235POPC   GL2 3125   4.902   5.978   3.767 -0.1087  0.1467  0.0683
  235POPC   C1A 3126   4.573   6.325   4.218  0.0859  0.3938 -0.1095
  235POPC   D2A 3127   4.515   6.076   4.574 -0.0647 -0.2133  0.2038
  235POPC   C3A 3128   4.649   6.149   4.987  0.0875 -0.4088 -0.0219
  235POPC   C4A 3129   4.629   6.410   5.346 -0.0761  0.1218 -0.2711
  235POPC   C1B 3130   4.958   5.921   4.168 -0.3080  0.1392  0.0975
  235POPC   C2B 3131   4.972   5.738   4.500  0.0510  0.2923  0.1244
  235POPC   C3B 3132   4.671   5.637   4.908  0.1473  0.2221  0.0095
  235POPC   C4B 3133   4.682   5.331   5.324  0.0162  0.0463  0.4925
  236POPC   NC3 3134   4.079   7.336   2.867 -0.0292  0.0354 -0.2108
  236POPC   PO4 3135   4.567   7.351   2.904  0.1176  0.0237  0.0653
  236POPC   GL1 3136   4.446   7.528   3.359 -0.0247  0.2911 -0.1062
  236POPC   GL2 3137   4.528   7.298   3.583  0.2436 -0.1323  0.0363
  236POPC   C1A 3138   4.206   7.612   3.735  0.2635 -0.3182 -0.0141
  236POPC   D2A 3139   3.967   7.898   3.898  0.1607  0.1167  0.0852
  236POPC   C3A 3140   3.798   7.764   4.299 -0.2624 -0.3984 -0.1751
  236POPC   C4A 3141   3.520   7.504   4.478 -0.2563 -0.0228 -0.2898
  236POPC   C1B 3142   4.643   7.462   3.966  0.1109 -0.1690  0.2859
  236POPC   C2B 3143   4.831   7.251   4.333 -0.0479 -0.0127  0.0782
  236POPC   C3B 3144   4.493   7.166   4.760  0.2963 -0.2308 -0.3627
  236POPC   C4B 3145   4.257   7.310   5.101 -0.1129 -0.3265  0.2287
  237POPC   NC3 3146  10.416   6.287   3.237  0.1095 -0.1302  0.0009
  237POPC   PO4 3147  10.012   6.381   3.338 -0.1217  0.2757 -0.1575
  237POPC   GL1 3148  10.183   6.222   3.721 -0.4268  0.2306 -0.0626
  237POPC   GL2 3149  10.247   5.803   3.760 -0.2617  0.0802 -0.2437
  237POPC   C1A 3150  10.194   6.114   4.189  0.1578  0.0019 -0.4041
  237POPC   D2A 3151  10.068   5.786   4.478  0.0929  0.0521  0.0661
  237POPC   C3A 3152  10.207   5.715   4.871 -0.2392  0.1914 -0.1870
  237POPC   C4A 3153  10.020   5.321   5.049 -0.0854  0.3304 -0.1487
  237POPC   C1B 3154  10.567   5.780   4.029  0.2353 -0.1389  0.1034
  237POPC   C2B 3155  10.610   5.744   4.437  0.1523  0.0297 -0.1063
  237POPC   C3B 3156  10.916   5.590   4.652 -0.0880 -0.0167 -0.0052
  237POPC   C4B 3157  11.367   5.612   4.637  0.1694  0.0036 -0.1309
  238POPC   NC3 3158   9.483   5.372   2.975  0.2556 -0.0246  0.0016
  238POPC   PO4 3159   9.839   5.083   3.119  0.1659  0.0052 -0.2235
  238POPC   GL1 3160   9.940   5.137   3.624  0.1370 -0.0535  0.0182
  238POPC   GL2 3161  10.199   4.978   3.836  0.1658 -0.0509  0.2854
  238POPC   C1A 3162   9.675   5.243   3.929 -0.0941 -0.1007 -0.1029
  238POPC   D2A 3163   9.462   5.505   4.292 -0.0645 -0.2460  0.0476
  238POPC   C3A 3164   9.666   5.629   4.710 -0.0601  0.2419  0.2683
  238POPC   C4A 3165   9.825   6.019   4.969 -0.1340 -0.3404 -0.1995
  238POPC   C1B 3166   9.911   4.871   4.102 -0.0968  0.0880 -0.1018
  238POPC   C2B 3167   9.437   4.553   4.340 -0.0745 -0.0914  0.2452
  238POPC   C3B 3168   8.973   4.607   4.256 -0.1887  0.1036 -0.1619
  238POPC   C4B 3169   8.837   4.999   4.205  0.0169 -0.1557 -0.0901
  239POPC   NC3 3170   5.613   9.273   3.478 -0.1292  0.0953  0.4736
  239POPC   PO4 3171   5.166   8.968   3.341  0.1017  0.0520 -0.0173
  239POPC   GL1 3172   4.778   8.795   3.482  0.5944 -0.1203 -0.1653
  239POPC   GL2 3173   4.750   8.415   3.631  0.0229  0.3399  0.1636
  239POPC   C1A 3174   4.695   8.899   3.813  0.1100 -0.1570 -0.0126
  239POPC   D2A 3175   4.886   8.853   4.225 -0.4060 -0.0492  0.0487
  239POPC   C3A 3176   4.732   8.788   4.559 -0.2724  0.1258  0.1936
  239POPC   C4A 3177   4.769   8.549   4.942 -0.0754 -0.2302  0.0139
  239POPC   C1B 3178   4.821   8.427   4.018 -0.1062 -0.0077 -0.0561
  239POPC   C2B 3179   4.771   8.220   4.436 -0.0120  0.0028  0.1666
  239POPC   C3B 3180   5.032   8.041   4.698  0.0898 -0.1165 -0.2206
  239POPC   C4B 3181   5.185   8.136   5.037  0.1922 -0.1601  0.3873
  240POPC   NC3 3182   9.014   0.186   2.992 -0.1306  0.0418  0.3513
  240POPC   PO4 3183   9.335   0.415   3.220  0.3502 -0.0086  0.2321
  240POPC   GL1 3184   9.396   0.427   3.579 -0.2781 -0.1485  0.1757
  240POPC   GL2 3185   9.530   0.735   3.617 -0.1080  0.0429 -0.2306
  240POPC   C1A 3186   9.252   0.284   3.937 -0.2201  0.1181  0.1022
  240POPC   D2A 3187   9.317   0.323   4.420 -0.3397 -0.0733 -0.0992
  240POPC   C3A 3188   9.302   0.140   4.808  0.0536 -0.2025  0.2153
  240POPC   C4A 3189   9.675   0.126   5.092  0.0783 -0.0270 -0.1910
  240POPC   C1B 3190   9.627   0.924   4.053 -0.1284  0.2140 -0.0485
  240POPC   C2B 3191   9.620   0.778   4.343  0.2344 -0.1439 -0.1616
  240POPC   C3B 3192   9.656   0.553   4.766 -0.1565 -0.0427  0.2159
  240POPC   C4B 3193   9.389   0.590   5.115  0.0620 -0.1526  0.0620
  241POPC   NC3 3194   7.974   5.273   3.532 -0.2264  0.0213 -0.1000
  241POPC   PO4 3195   7.880   4.749   3.549 -0.0994  0.2300  0.0310
  241POPC   GL1 3196   7.817   4.889   3.896 -0.2541  0.2745  0.0089
  241POPC   GL2 3197   8.100   4.845   4.125  0.0011 -0.2581  0.3318
  241POPC   C1A 3198   7.670   5.217   4.218 -0.1732 -0.0993 -0.2436
  241POPC   D2A 3199   7.374   5.197   4.648  0.0761 -0.3616  0.0223
  241POPC   C3A 3200   7.049   4.940   4.894 -0.1783  0.1662 -0.2381
  241POPC   C4A 3201   6.872   4.688   5.161  0.1909 -0.3456 -0.2424
  241POPC   C1B 3202   8.404   4.934   4.481  0.0251  0.0297 -0.3081
  241POPC   C2B 3203   8.759   4.955   4.880  0.1142 -0.0550 -0.1327
  241POPC   C3B 3204   8.799   5.192   5.177  0.1349  0.3507  0.2951
  241POPC   C4B 3205   9.217   5.239   5.376  0.1057 -0.2897 -0.1943
  242POPC   NC3 3206   1.912   8.979   3.479 -0.2693 -0.5039  0.3019
  242POPC   PO4 3207   2.261   8.676   3.310  0.1204  0.2107  0.1082
  242POPC   GL1 3208   2.423   8.526   3.625 -0.1809 -0.0884 -0.0508
  242POPC   GL2 3209   2.114   8.389   3.786 -0.1459  0.0031  0.4082
  242POPC   C1A 3210   2.552   8.251   3.927  0.1931 -0.1613  0.0029
  242POPC   D2A 3211   2.845   8.150   4.177 -0.1166 -0.4237 -0.1564
  242POPC   C3A 3212   2.797   8.211   4.634  0.0987  0.3723 -0.1713
  242POPC   C4A 3213   2.766   8.229   5.080 -0.3543  0.1825  0.1720
  242POPC   C1B 3214   2.004   8.699   4.000  0.1191  0.4067 -0.1576
  242POPC   C2B 3215   1.591   8.789   4.265  0.4097  0.0714  0.0557
  242POPC   C3B 3216   1.465   8.762   4.685  0.5562 -0.0289 -0.1635
  242POPC   C4B 3217   1.595   8.442   5.033  0.0511 -0.3093  0.6316
  243POPC   NC3 3218   0.847   6.994   3.287 -0.0334 -0.1540 -0.0819
  243POPC   PO4 3219   1.281   6.885   3.390  0.2009  0.0323 -0.2499
  243POPC   GL1 3220   1.159   7.016   3.779  0.5095  0.3292  0.2617
  243POPC   GL2 3221   0.925   6.779   3.814  0.1174 -0.1566  0.1363
  243POPC   C1A 3222   1.394   7.010   4.071  0.1257 -0.0605 -0.0838
  243POPC   D2A 3223   1.465   6.631   4.326  0.0835  0.0265 -0.1799
  243POPC   C3A 3224   1.536   6.478   4.776  0.0117  0.0434 -0.3871
  243POPC   C4A 3225   1.755   6.468   5.200 -0.4262  0.1846  0.1296
  243POPC   C1B 3226   0.883   6.889   4.216  0.1630 -0.0731  0.1656
  243POPC   C2B 3227   0.601   6.851   4.451 -0.2223  0.3676  0.2536
  243POPC   C3B 3228   0.391   6.980   4.771 -0.1202 -0.0997 -0.2307
  243POPC   C4B 3229   0.550   7.241   5.154  0.0540 -0.1392 -0.0979
  244POPC   NC3 3230   2.168   8.010   3.138  0.2647 -0.1317  0.1044
  244POPC   PO4 3231   2.546   7.826   3.038  0.1501  0.0227 -0.0144
  244POPC   GL1 3232   2.769   7.637   3.483  0.0325  0.1028 -0.0694
  244POPC   GL2 3233   3.020   7.894   3.679 -0.2659 -0.3909  0.0362
  244POPC   C1A 3234   2.634   7.739   3.924  0.0024 -0.2305 -0.0449
  244POPC   D2A 3235   2.463   7.993   4.373  0.1421 -0.3395  0.0211
  244POPC   C3A 3236   2.271   8.387   4.306  0.0047 -0.1705 -0.2276
  244POPC   C4A 3237   2.369   8.822   4.299 -0.1537  0.0015 -0.1736
  244POPC   C1B 3238   3.404   8.058   3.979  0.2944  0.1495 -0.3334
  244POPC   C2B 3239   3.359   8.098   4.423  0.4169  0.1327 -0.1848
  244POPC   C3B 3240   3.397   7.992   4.746 -0.2026  0.4234 -0.0972
  244POPC   C4B 3241   3.253   8.365   4.893  0.1212  0.2742 -0.0933
  245POPC   NC3 3242   7.868   3.466   3.801 -0.3343 -0.0079  0.0029
  245POPC   PO4 3243   7.450   3.351   3.646 -0.1663 -0.1879  0.0668
  245POPC   GL1 3244   7.443   3.488   4.100  0.0355  0.2320  0.1258
  245POPC   GL2 3245   7.726   3.809   4.185 -0.1346 -0.0056 -0.1687
  245POPC   C1A 3246   7.399   3.553   4.545  0.1265  0.0704  0.1628
  245POPC   D2A 3247   7.103   3.614   5.038 -0.1921 -0.1670 -0.0630
  245POPC   C3A 3248   6.799   3.439   5.225 -0.0707 -0.3093  0.1807
  245POPC   C4A 3249   6.658   2.911   4.958 -0.2060 -0.3674 -0.2739
  245POPC   C1B 3250   7.864   3.784   4.634 -0.0225  0.0694 -0.0779
  245POPC   C2B 3251   7.734   3.659   5.016  0.0198 -0.0613 -0.0410
  245POPC   C3B 3252   7.484   3.675   5.312  0.1136 -0.1249 -0.0530
  245POPC   C4B 3253   7.174   3.870   5.510  0.3173  0.2714 -0.3673
  246POPC   NC3 3254  10.233   0.462   3.453 -0.0981  0.2457 -0.3486
  246POPC   PO4 3255  10.132   0.855   3.453  0.1316 -0.0655  0.0077
  246POPC   GL1 3256  10.031   0.608   3.877  0.1718  0.1062 -0.2642
  246POPC   GL2 3257  10.280   0.398   3.974  0.2087 -0.2286  0.0654
  246POPC   C1A 3258   9.810   0.397   4.064 -0.3483  0.4082  0.1376
  246POPC   D2A 3259   9.939   0.037   4.185 -0.0535 -0.1788  0.2245
  246POPC   C3A 3260  10.155   0.003   4.566 -0.2121  0.0629 -0.0194
  246POPC   C4A 3261  10.425  -0.103   4.923  0.0201 -0.1361  0.0276
  246POPC   C1B 3262  10.177   0.493   4.439  0.0496 -0.3052  0.4221
  246POPC   C2B 3263  10.226   0.404   4.838 -0.0524  0.0470 -0.0688
  246POPC   C3B 3264   9.920   0.560   5.222 -0.1099 -0.0436 -0.1351
  246POPC   C4B 3265   9.593   0.424   5.562  0.1010 -0.1397  0.4532
  247POPC   NC3 3266   2.753   6.526   3.423 -0.1674  0.4856  0.2370
  247POPC   PO4 3267   2.720   6.193   3.381 -0.1030 -0.3043 -0.0420
  247POPC   GL1 3268   2.705   6.105   3.836 -0.2255  0.0572  0.0126
  247POPC   GL2 3269   2.726   5.842   3.968 -0.1858  0.3079 -0.0061
  247POPC   C1A 3270   2.455   6.307   4.256  0.0276  0.2867 -0.1234
  247POPC   D2A 3271   2.507   6.429   4.695  0.3089 -0.1334 -0.1149
  247POPC   C3A 3272   2.273   6.353   5.089  0.3151  0.1924  0.3163
  247POPC   C4A 3273   2.238   6.065   5.508  0.0127 -0.3098  0.1575
  247POPC   C1B 3274   2.735   5.915   4.391  0.3480 -0.1420  0.1916
  247POPC   C2B 3275   2.585   5.883   4.764  0.0650  0.1194  0.1925
  247POPC   C3B 3276   2.410   5.650   5.080 -0.1084  0.0284  0.3081
  247POPC   C4B 3277   2.276   5.281   5.297 -0.1634 -0.1163 -0.0244
  248POPC   NC3 3278   2.252   4.905   3.388  0.4749 -0.0698  0.2526
  248POPC   PO4 3279   2.442   5.271   3.280  0.3024 -0.2945 -0.3446
  248POPC   GL1 3280   2.534   5.360   3.615 -0.0479 -0.2917 -0.0125
  248POPC   GL2 3281   2.861   5.384   3.724 -0.2979 -0.2571  0.1040
  248POPC   C1A 3282   2.485   5.278   4.132  0.2168 -0.1308 -0.0789
  248POPC   D2A 3283   2.390   5.421   4.633  0.0046 -0.2160 -0.5464
  248POPC   C3A 3284   2.011   5.485   4.813 -0.2158 -0.1648  0.0929
  248POPC   C4A 3285   1.563   5.550   4.901  0.1677  0.1488  0.2481
  248POPC   C1B 3286   2.873   5.028   3.902  0.1579 -0.1061  0.0295
  248POPC   C2B 3287   3.012   4.798   4.262 -0.4116  0.0099  0.0693
  248POPC   C3B 3288   3.185   4.738   4.643 -0.1426  0.2146 -0.0616
  248POPC   C4B 3289   3.436   4.925   4.950  0.1068 -0.1327 -0.4542
  249POPC   NC3 3290   7.677   9.671   3.436  0.0108  0.3066 -0.1664
  249POPC   PO4 3291   7.726   9.890   3.715  0.1923 -0.0518 -0.0047
  249POPC   GL1 3292   7.830   9.635   4.077 -0.0451 -0.1668 -0.3048
  249POPC   GL2 3293   8.084   9.830   4.232 -0.2442  0.1221  0.0002
  249POPC   C1A 3294   7.604   9.510   4.423 -0.3686 -0.0494 -0.3011
  249POPC   D2A 3295   7.390   9.624   4.771 -0.0053  0.0505 -0.0561
  249POPC   C3A 3296   7.229   9.586   5.193  0.0298 -0.0668 -0.1771
  249POPC   C4A 3297   7.063   9.263   5.424 -0.1576  0.0564  0.0462
  249POPC   C1B 3298   8.214  10.193   4.558  0.1358  0.2749 -0.0141
  249POPC   C2B 3299   7.904  10.302   4.911 -0.1357 -0.3511  0.1766
  249POPC   C3B 3300   7.718  10.281   5.315  0.1235 -0.1720  0.3268
  249POPC   C4B 3301   7.723  10.685   5.483 -0.0576 -0.1305  0.0697
  250POPC   NC3 3302   1.957   0.756   3.297  0.2224  0.5473  0.0976
  250POPC   PO4 3303   2.313   0.766   3.471  0.0555  0.2458 -0.1063
  250POPC   GL1 3304   2.426   0.818   3.853  0.0880 -0.1553 -0.0676
  250POPC   GL2 3305   2.608   0.583   3.904  0.1079 -0.1078  0.3960
  250POPC   C1A 3306   2.303   1.051   4.238  0.0512  0.2922  0.0072
  250POPC   D2A 3307   2.048   1.249   4.400  0.3997  0.1911  0.1065
  250POPC   C3A 3308   2.130   1.106   4.840 -0.0651 -0.2200  0.3704
  250POPC   C4A 3309   2.303   0.792   5.207 -0.0068  0.0528 -0.1184
  250POPC   C1B 3310   2.897   0.629   4.083  0.0344  0.2570 -0.1226
  250POPC   C2B 3311   3.038   0.548   4.495  0.0970  0.1123 -0.2064
  250POPC   C3B 3312   3.215   0.563   4.899 -0.0311  0.1000  0.0648
  250POPC   C4B 3313   3.266   0.468   5.329 -0.1663 -0.1350 -0.1749
  251POPC   NC3 3314   4.815   7.748   3.055 -0.0307  0.2186  0.2821
  251POPC   PO4 3315   4.316   7.859   2.973 -0.2421 -0.2318 -0.3425
  251POPC   GL1 3316   3.891   7.670   3.171 -0.0033 -0.0677  0.0925
  251POPC   GL2 3317   3.923   7.451   3.327  0.1547  0.2564  0.0237
  251POPC   C1A 3318   3.633   7.867   3.546  0.1962  0.0178 -0.0066
  251POPC   D2A 3319   3.504   7.614   3.968 -0.3735  0.0554 -0.3401
  251POPC   C3A 3320   3.810   7.274   4.165 -0.2634 -0.2887  0.1553
  251POPC   C4A 3321   4.029   7.136   4.600 -0.0269  0.0935 -0.4004
  251POPC   C1B 3322   3.707   7.374   3.652 -0.3635 -0.0984  0.3588
  251POPC   C2B 3323   3.492   7.046   3.910  0.1885  0.1947 -0.0207
  251POPC   C3B 3324   3.144   7.051   4.244  0.0974  0.2096 -0.3754
  251POPC   C4B 3325   2.751   6.942   4.516 -0.2327 -0.1429  0.1929
  252POPC   NC3 3326   5.909   6.000   3.441  0.0705 -0.0663  0.0875
  252POPC   PO4 3327   5.519   6.301   3.311 -0.1836  0.1396  0.1707
  252POPC   GL1 3328   5.602   6.221   3.758 -0.1107  0.2833 -0.0781
  252POPC   GL2 3329   5.370   6.145   3.895  0.0352 -0.0096  0.1104
  252POPC   C1A 3330   5.887   6.135   4.107  0.2004 -0.1123 -0.1095
  252POPC   D2A 3331   5.942   6.327   4.496  0.1541 -0.2234 -0.0836
  252POPC   C3A 3332   6.207   6.079   4.714  0.2104 -0.0181  0.1134
  252POPC   C4A 3333   6.338   5.963   5.166 -0.2483  0.0917  0.1251
  252POPC   C1B 3334   5.495   6.176   4.394 -0.1767 -0.0335  0.0752
  252POPC   C2B 3335   5.468   6.430   4.752 -0.3734 -0.4712 -0.1496
  252POPC   C3B 3336   5.502   6.736   5.033 -0.0311  0.1788  0.1360
  252POPC   C4B 3337   5.799   6.760   5.297 -0.2586  0.1952 -0.2608
  253POPC   NC3 3338   3.808   4.010   2.520 -0.1814 -0.0444  0.1314
  253POPC   PO4 3339   3.925   3.676   2.788 -0.2786 -0.1528  0.1597
  253POPC   GL1 3340   3.939   3.468   3.199 -0.1617 -0.0212  0.0374
  253POPC   GL2 3341   4.017   3.123   3.225 -0.1885  0.3144  0.2290
  253POPC   C1A 3342   4.013   3.624   3.587  0.2828  0.1486  0.0405
  253POPC   D2A 3343   3.670   3.725   3.904  0.0770 -0.0637  0.0751
  253POPC   C3A 3344   3.601   3.959   4.257 -0.0636  0.1324 -0.1232
  253POPC   C4A 3345   3.599   3.854   4.759 -0.2756 -0.1976  0.2581
  253POPC   C1B 3346   4.222   3.135   3.629  0.1520 -0.2771  0.0918
  253POPC   C2B 3347   4.438   2.963   3.991  0.0329 -0.1099 -0.1646
  253POPC   C3B 3348   4.532   2.873   4.450 -0.0692 -0.1223  0.1984
  253POPC   C4B 3349   4.313   3.021   4.822 -0.1086  0.0299  0.0003
  254POPC   NC3 3350   9.948   7.316   3.119 -0.1686  0.2075 -0.1046
  254POPC   PO4 3351   9.580   7.331   3.290 -0.0940 -0.3578  0.1112
  254POPC   GL1 3352   9.530   7.307   3.615  0.0871  0.0629 -0.0910
  254POPC   GL2 3353   9.221   7.209   3.604  0.0373  0.2091 -0.0192
  254POPC   C1A 3354   9.663   7.131   4.037  0.0406 -0.2169 -0.0137
  254POPC   D2A 3355   9.566   7.419   4.394 -0.0541 -0.0129 -0.2515
  254POPC   C3A 3356   9.681   7.297   4.759  0.0598 -0.0259 -0.1707
  254POPC   C4A 3357   9.776   7.262   5.167  0.0564 -0.0370  0.1931
  254POPC   C1B 3358   9.193   7.225   3.992 -0.2361 -0.0030 -0.3251
  254POPC   C2B 3359   9.266   6.948   4.412 -0.1905 -0.4981 -0.1573
  254POPC   C3B 3360   9.490   6.831   4.710  0.1518  0.1155 -0.0169
  254POPC   C4B 3361   9.490   6.397   4.901  0.4005 -0.0825 -0.0420
  255POPC   NC3 3362   3.016   8.036   3.236  0.0409  0.1126  0.1450
  255POPC   PO4 3363   3.351   8.347   3.207  0.1629  0.2257 -0.1720
  255POPC   GL1 3364   3.321   8.476   3.593  0.0890 -0.1121  0.1425
  255POPC   GL2 3365   2.983   8.433   3.648  0.2578 -0.1571 -0.3531
  255POPC   C1A 3366   3.444   8.657   3.985  0.0724 -0.0601 -0.0725
  255POPC   D2A 3367   3.313   8.651   4.409 -0.0347 -0.2428 -0.0015
  255POPC   C3A 3368   3.632   8.611   4.714  0.1828 -0.0999  0.0715
  255POPC   C4A 3369   3.928   8.913   4.888 -0.2665  0.0564  0.0528
  255POPC   C1B 3370   2.929   8.633   4.006 -0.0239 -0.2180  0.1694
  255POPC   C2B 3371   2.837   8.807   4.378  0.2667  0.2684 -0.1705
  255POPC   C3B 3372   3.049   8.863   4.792  0.2083 -0.0280  0.0870
  255POPC   C4B 3373   3.400   9.029   4.930  0.0663 -0.0225 -0.0977
  256POPC   NC3 3374   1.359   9.135   2.950  0.2001  0.0040 -0.0585
  256POPC   PO4 3375   1.706   9.336   3.191 -0.0071  0.1313 -0.0123
  256POPC   GL1 3376   1.472   9.411   3.511 -0.0594 -0.2135 -0.0795
  256POPC   GL2 3377   1.450   9.649   3.698 -0.0014 -0.3530  0.0399
  256POPC   C1A 3378   1.427   9.135   3.870  0.1912  0.0245 -0.2139
  256POPC   D2A 3379   1.222   9.162   4.263 -0.0521  0.2935  0.1879
  256POPC   C3A 3380   1.469   9.264   4.492 -0.0291  0.1020 -0.0172
  256POPC   C4A 3381   1.876   9.482   4.367  0.2087  0.1804 -0.1631
  256POPC   C1B 3382   1.419   9.635   4.099 -0.0361 -0.4379  0.0612
  256POPC   C2B 3383   1.365   9.762   4.449  0.0371  0.1842  0.0803
  256POPC   C3B 3384   1.320   9.771   4.798  0.0227  0.1820  0.1560
  256POPC   C4B 3385   1.394   9.441   5.091 -0.0892 -0.2667 -0.1167
  257POPC   NC3 3386   3.187   7.586   2.516 -0.2483  0.0670 -0.0725
  257POPC   PO4 3387   3.582   7.413   2.796  0.0202  0.2265 -0.1491
  257POPC   GL1 3388   3.396   7.298   3.242  0.3587 -0.0833 -0.1508
  257POPC   GL2 3389   3.229   7.514   3.369 -0.2877 -0.1833 -0.1407
  257POPC   C1A 3390   3.479   6.956   3.411 -0.1535  0.0249  0.0252
  257POPC   D2A 3391   3.882   6.771   3.503  0.0263 -0.1505 -0.2622
  257POPC   C3A 3392   4.080   7.075   3.779 -0.1390 -0.2499 -0.1285
  257POPC   C4A 3393   4.334   7.145   4.191  0.0980 -0.2632  0.0741
  257POPC   C1B 3394   3.162   7.352   3.813  0.1300 -0.0828  0.1042
  257POPC   C2B 3395   3.097   7.677   4.203 -0.0193  0.1552  0.2129
  257POPC   C3B 3396   3.018   7.741   4.614 -0.0247 -0.2329 -0.0114
  257POPC   C4B 3397   2.936   7.761   4.994  0.0666  0.1952  0.0598
  258POPC   NC3 3398   2.285   1.668   3.205 -0.1494 -0.5300 -0.1501
  258POPC   PO4 3399   2.000   1.542   3.520 -0.1092  0.0760  0.2526
  258POPC   GL1 3400   1.815   1.551   3.836  0.0163  0.0341  0.0072
  258POPC   GL2 3401   1.986   1.684   4.108 -0.2520 -0.1265 -0.2050
  258POPC   C1A 3402   1.559   1.379   4.141  0.2787  0.2364 -0.2837
  258POPC   D2A 3403   1.231   1.090   4.334 -0.1874 -0.0653 -0.2450
  258POPC   C3A 3404   1.192   0.693   4.594  0.1214 -0.0697  0.3372
  258POPC   C4A 3405   1.148   0.567   5.032  0.0873 -0.0682 -0.0959
  258POPC   C1B 3406   1.781   1.667   4.523  0.2532 -0.0221  0.0286
  258POPC   C2B 3407   1.638   1.328   4.787  0.2184  0.1853  0.1904
  258POPC   C3B 3408   1.540   1.019   5.054 -0.2880  0.0700  0.0307
  258POPC   C4B 3409   1.605   0.698   5.247  0.1083 -0.0404  0.1678
  259POPC   NC3 3410   7.209   2.417   3.595  0.1823 -0.2935 -0.0147
  259POPC   PO4 3411   7.705   2.281   3.628 -0.0551  0.1150 -0.2859
  259POPC   GL1 3412   7.880   2.365   4.123  0.0518 -0.0353  0.0240
  259POPC   GL2 3413   7.819   2.136   4.283  0.2165 -0.0471  0.3448
  259POPC   C1A 3414   7.976   2.700   4.427 -0.1813  0.2619  0.0887
  259POPC   D2A 3415   8.247   3.026   4.590  0.0493 -0.1509 -0.0167
  259POPC   C3A 3416   8.115   3.362   4.923 -0.1038  0.1676  0.0137
  259POPC   C4A 3417   8.078   3.569   5.348 -0.2507 -0.0934 -0.0700
  259POPC   C1B 3418   7.804   2.098   4.727  0.1626  0.1399 -0.2229
  259POPC   C2B 3419   7.908   2.149   5.132  0.0834 -0.0318 -0.0942
  259POPC   C3B 3420   7.731   2.413   5.517 -0.0091  0.0594 -0.0048
  259POPC   C4B 3421   7.552   2.742   5.379 -0.2361  0.0078 -0.2363
  260POPC   NC3 3422   6.801  10.398   3.472  0.0528 -0.0956  0.0886
  260POPC   PO4 3423   6.722  10.019   3.720  0.0063  0.1797  0.0063
  260POPC   GL1 3424   6.751   9.914   4.096  0.4632 -0.0244  0.0925
  260POPC   GL2 3425   6.896   9.613   4.071  0.1833 -0.0805 -0.0016
  260POPC   C1A 3426   6.577   9.690   4.447  0.1674  0.2920  0.2745
  260POPC   D2A 3427   6.441   9.476   4.832  0.0446 -0.1186 -0.0857
  260POPC   C3A 3428   6.504   9.461   5.230 -0.1132 -0.0416 -0.1348
  260POPC   C4A 3429   6.171   9.591   5.537  0.0018 -0.2873 -0.0138
  260POPC   C1B 3430   7.143   9.378   4.347  0.1067  0.0703  0.0177
  260POPC   C2B 3431   7.239   9.089   4.683  0.0954  0.0419 -0.1731
  260POPC   C3B 3432   7.418   9.037   5.072  0.1326  0.1050  0.3611
  260POPC   C4B 3433   7.842   8.873   5.231  0.4761 -0.2956 -0.0977
  261POPC   NC3 3434   2.281   6.219   3.084 -0.1240  0.2458  0.0450
  261POPC   PO4 3435   2.160   6.166   3.499  0.1189 -0.3630  0.2206
  261POPC   GL1 3436   1.925   6.254   3.823  0.1328  0.1474  0.3224
  261POPC   GL2 3437   1.812   5.897   3.899  0.4190 -0.0419  0.2520
  261POPC   C1A 3438   1.761   6.254   4.271 -0.2340 -0.0101 -0.1585
  261POPC   D2A 3439   1.977   6.346   4.631 -0.2134  0.1075  0.0657
  261POPC   C3A 3440   1.882   6.035   4.984  0.0194  0.0143 -0.0778
  261POPC   C4A 3441   1.912   5.717   5.250 -0.3739  0.0806 -0.1493
  261POPC   C1B 3442   1.598   5.493   3.903 -0.1989  0.1480 -0.1705
  261POPC   C2B 3443   1.209   5.234   4.099  0.2813  0.1736 -0.1368
  261POPC   C3B 3444   0.902   4.913   4.268 -0.2087 -0.2954 -0.0511
  261POPC   C4B 3445   0.944   4.755   4.734  0.0113 -0.1937 -0.0646
  262POPC   NC3 3446   4.619   5.938   3.327 -0.4381  0.2422  0.1041
  262POPC   PO4 3447   4.823   5.601   3.357 -0.0480  0.1343  0.1433
  262POPC   GL1 3448   4.754   5.522   3.833 -0.0914  0.0619  0.1664
  262POPC   GL2 3449   4.538   5.704   4.112  0.1745  0.1378  0.1231
  262POPC   C1A 3450   4.958   5.370   4.138  0.0158 -0.4608 -0.2625
  262POPC   D2A 3451   5.159   5.231   4.503  0.1094  0.0541 -0.1869
  262POPC   C3A 3452   5.625   5.167   4.380  0.1172  0.0045 -0.1704
  262POPC   C4A 3453   5.881   4.955   4.705  0.1189  0.2381 -0.0752
  262POPC   C1B 3454   4.567   5.450   4.467 -0.0364  0.0328  0.2243
  262POPC   C2B 3455   4.343   5.218   4.711 -0.1773  0.0909  0.3617
  262POPC   C3B 3456   4.291   4.892   5.089  0.0616 -0.1361  0.0274
  262POPC   C4B 3457   4.276   4.553   5.250 -0.0022  0.1980 -0.0002
  263POPC   NC3 3458   0.645   3.745   2.928  0.3034 -0.1665  0.3393
  263POPC   PO4 3459   0.693   4.012   3.368 -0.3424 -0.1374  0.1014
  263POPC   GL1 3460   0.624   3.812   3.820 -0.1904  0.0760 -0.0912
  263POPC   GL2 3461   0.944   3.854   3.860  0.0687  0.1508  0.2165
  263POPC   C1A 3462   0.426   3.804   4.280  0.0609 -0.2044  0.1423
  263POPC   D2A 3463   0.529   4.003   4.652  0.2238 -0.2562 -0.1744
  263POPC   C3A 3464   0.479   3.844   4.985  0.0714 -0.1884  0.1997
  263POPC   C4A 3465   0.480   3.510   5.294  0.0400  0.3447  0.0711
  263POPC   C1B 3466   1.319   4.039   4.082  0.1185 -0.0521  0.1350
  263POPC   C2B 3467   1.304   4.005   4.468 -0.1034  0.2664 -0.0833
  263POPC   C3B 3468   1.462   3.999   4.922  0.0873  0.2035  0.2952
  263POPC   C4B 3469   1.775   4.004   5.226  0.2195 -0.0198  0.1083
  264POPC   NC3 3470   7.547   0.062   3.327 -0.2107 -0.0600  0.2886
  264POPC   PO4 3471   7.698   0.449   3.447  0.1257 -0.1398  0.1605
  264POPC   GL1 3472   7.879   0.242   3.791  0.2395 -0.2010 -0.3888
  264POPC   GL2 3473   8.137   0.016   3.747 -0.1620 -0.2016  0.3549
  264POPC   C1A 3474   7.959   0.148   4.209 -0.0489  0.0587 -0.0280
  264POPC   D2A 3475   7.892  -0.085   4.548 -0.1916  0.0804 -0.1947
  264POPC   C3A 3476   7.933   0.041   5.028  0.0845  0.0834  0.3233
  264POPC   C4A 3477   8.012   0.377   5.294 -0.1698 -0.2003 -0.2352
  264POPC   C1B 3478   8.383  -0.030   4.136 -0.0117 -0.0937 -0.1043
  264POPC   C2B 3479   8.425  -0.108   4.505 -0.0280 -0.2008 -0.1392
  264POPC   C3B 3480   8.402  -0.183   4.874  0.2314  0.3105  0.1751
  264POPC   C4B 3481   8.270  -0.352   5.312 -0.1052  0.2516  0.0395
  265POPC   NC3 3482   4.003   1.862   3.214  0.0299 -0.3017  0.1679
  265POPC   PO4 3483   3.945   2.205   2.864 -0.2437  0.0934  0.1917
  265POPC   GL1 3484   4.216   2.374   3.288  0.0037  0.0483 -0.2054
  265POPC   GL2 3485   4.030   2.322   3.572  0.0938 -0.0263  0.4379
  265POPC   C1A 3486   4.420   2.614   3.576 -0.1435 -0.2591 -0.0066
  265POPC   D2A 3487   4.808   2.878   3.668  0.1121  0.1497  0.0940
  265POPC   C3A 3488   4.848   3.338   3.667  0.0160  0.0315 -0.3029
  265POPC   C4A 3489   4.841   3.763   3.848  0.2116  0.1871  0.3306
  265POPC   C1B 3490   4.041   2.568   3.931  0.1900  0.2158 -0.0326
  265POPC   C2B 3491   4.026   2.879   4.301 -0.0891 -0.0195  0.2322
  265POPC   C3B 3492   4.169   3.314   4.355 -0.2931  0.3115 -0.1329
  265POPC   C4B 3493   4.421   3.449   4.618 -0.0825  0.0419  0.0017
  266POPC   NC3 3494   3.604   0.719   2.677 -0.1405 -0.0857 -0.0292
  266POPC   PO4 3495   3.741   0.436   2.966  0.1142 -0.0700  0.0137
  266POPC   GL1 3496   3.575   0.270   3.382 -0.3472  0.1963 -0.1210
  266POPC   GL2 3497   3.402  -0.051   3.351 -0.2417  0.0338  0.0729
  266POPC   C1A 3498   3.624   0.282   3.931  0.0432  0.0425  0.0776
  266POPC   D2A 3499   3.453   0.263   4.430 -0.0646  0.2363  0.3397
  266POPC   C3A 3500   3.353   0.007   4.771 -0.0879  0.0406 -0.2374
  266POPC   C4A 3501   3.366  -0.044   5.154 -0.1564  0.0958 -0.0074
  266POPC   C1B 3502   3.056  -0.057   3.808 -0.0722  0.0350  0.2094
  266POPC   C2B 3503   3.075   0.142   4.167  0.0098 -0.1488  0.4038
  266POPC   C3B 3504   2.969  -0.117   4.473  0.3628 -0.1533  0.0284
  266POPC   C4B 3505   2.661  -0.273   4.846  0.4098  0.2261  0.1064
  267POPC   NC3 3506   7.584   6.659   2.637  0.0471  0.2387  0.0747
  267POPC   PO4 3507   7.425   6.819   3.099 -0.0447  0.3209 -0.0989
  267POPC   GL1 3508   7.612   6.991   3.433  0.1766  0.0660 -0.2716
  267POPC   GL2 3509   7.901   6.928   3.497 -0.1940  0.0140  0.0492
  267POPC   C1A 3510   7.713   7.334   3.710 -0.0827  0.0591  0.0425
  267POPC   D2A 3511   7.810   7.518   4.125  0.2753  0.0492 -0.0226
  267POPC   C3A 3512   7.925   7.989   4.324  0.0321 -0.0676 -0.0691
  267POPC   C4A 3513   8.110   8.388   4.271  0.2642 -0.0955  0.2819
  267POPC   C1B 3514   7.898   6.928   3.952  0.0550  0.1453 -0.0003
  267POPC   C2B 3515   8.017   7.120   4.355 -0.0996 -0.2692 -0.0376
  267POPC   C3B 3516   8.459   7.142   4.509  0.0573 -0.1655  0.0552
  267POPC   C4B 3517   8.817   7.299   4.391  0.0426  0.1578 -0.0796
  268POPC   NC3 3518   6.565   4.772   3.647  0.0141 -0.1747 -0.0478
  268POPC   PO4 3519   6.164   5.057   3.700 -0.0741  0.1778 -0.1765
  268POPC   GL1 3520   6.186   4.883   4.097  0.1293  0.1011  0.2598
  268POPC   GL2 3521   6.234   4.602   4.026 -0.0036  0.1402  0.0700
  268POPC   C1A 3522   6.271   5.110   4.425 -0.0062  0.6121 -0.0673
  268POPC   D2A 3523   6.364   5.155   4.793  0.0435 -0.0441  0.0149
  268POPC   C3A 3524   6.299   4.778   4.998  0.1847 -0.0851  0.3399
  268POPC   C4A 3525   6.027   4.563   5.195  0.2902  0.0259 -0.0161
  268POPC   C1B 3526   6.501   4.660   4.434 -0.4066  0.2693 -0.0928
  268POPC   C2B 3527   6.638   4.530   4.757 -0.0070  0.2534  0.1869
  268POPC   C3B 3528   6.390   4.220   5.024 -0.1043  0.0400 -0.0722
  268POPC   C4B 3529   6.046   4.221   4.850 -0.1387  0.0718  0.0462
  269POPC   NC3 3530  10.433  10.546   2.901  0.2370 -0.2051 -0.0024
  269POPC   PO4 3531  10.257  10.270   3.197  0.5487 -0.1289  0.2464
  269POPC   GL1 3532  10.232  10.255   3.651  0.2828  0.2442  0.0524
  269POPC   GL2 3533  10.430  10.098   3.851  0.0263 -0.1139 -0.1104
  269POPC   C1A 3534   9.930  10.323   3.994 -0.0479  0.2251 -0.2636
  269POPC   D2A 3535   9.529  10.027   4.113 -0.1248 -0.2880 -0.1400
  269POPC   C3A 3536   9.450   9.962   4.444 -0.0459  0.4079 -0.3506
  269POPC   C4A 3537   9.388   9.594   4.656  0.0508  0.0127  0.1223
  269POPC   C1B 3538  10.221  10.028   4.316 -0.2237 -0.2530  0.2595
  269POPC   C2B 3539  10.032   9.942   4.769 -0.1687  0.1347  0.3120
  269POPC   C3B 3540  10.037   9.815   5.233  0.2792 -0.1020  0.1405
  269POPC   C4B 3541   9.840   9.822   5.671  0.5566  0.1337 -0.0735
  270POPC   NC3 3542   5.961   6.939   2.967  0.0380  0.3118  0.0483
  270POPC   PO4 3543   6.365   6.966   2.838  0.3370  0.0068  0.0473
  270POPC   GL1 3544   6.374   6.938   3.300 -0.0838 -0.1193 -0.2060
  270POPC   GL2 3545   6.511   7.215   3.445  0.1179 -0.1735 -0.0504
  270POPC   C1A 3546   6.058   7.075   3.634 -0.1874  0.0420 -0.0718
  270POPC   D2A 3547   5.865   7.149   4.091  0.3982 -0.2294  0.3048
  270POPC   C3A 3548   6.014   7.352   4.458 -0.0621  0.1115 -0.0421
  270POPC   C4A 3549   6.153   7.304   4.842  0.0252 -0.1336 -0.1020
  270POPC   C1B 3550   6.510   7.181   3.895  0.1710 -0.1753 -0.1377
  270POPC   C2B 3551   6.604   7.345   4.365 -0.0194  0.0490 -0.3069
  270POPC   C3B 3552   6.744   7.469   4.794 -0.2216 -0.3700 -0.1070
  270POPC   C4B 3553   6.539   7.453   5.153  0.1719 -0.2243 -0.0212
  271POPC   NC3 3554   7.633   6.494   3.509 -0.0908 -0.1406 -0.3037
  271POPC   PO4 3555   8.052   6.476   3.413 -0.0658  0.0068  0.3694
  271POPC   GL1 3556   8.160   6.416   3.765  0.1890 -0.4092 -0.0006
  271POPC   GL2 3557   7.914   6.243   3.894 -0.5419  0.2632 -0.1378
  271POPC   C1A 3558   8.238   6.639   4.221  0.0124  0.0630 -0.1257
  271POPC   D2A 3559   8.214   6.617   4.699 -0.1430  0.2209 -0.2684
  271POPC   C3A 3560   8.463   6.779   4.980 -0.1324  0.3964 -0.2297
  271POPC   C4A 3561   8.790   7.121   4.929  0.0096  0.0073  0.0903
  271POPC   C1B 3562   7.711   6.463   4.230 -0.0664 -0.1475 -0.0757
  271POPC   C2B 3563   7.696   6.639   4.586 -0.0231 -0.0535 -0.2186
  271POPC   C3B 3564   7.876   6.760   4.984 -0.2962 -0.1518 -0.0549
  271POPC   C4B 3565   7.865   6.709   5.425 -0.0240 -0.1319 -0.1256
  272POPC   NC3 3566   5.749   8.811   3.367 -0.0481 -0.0656 -0.0782
  272POPC   PO4 3567   6.181   8.786   3.182 -0.5220 -0.1585 -0.0649
  272POPC   GL1 3568   6.424   8.730   3.558 -0.1606  0.1098 -0.0285
  272POPC   GL2 3569   6.592   8.405   3.681 -0.3259 -0.0877 -0.2168
  272POPC   C1A 3570   6.160   8.702   3.928 -0.2494  0.0600  0.0469
  272POPC   D2A 3571   6.074   8.587   4.402  0.1345 -0.0121  0.0509
  272POPC   C3A 3572   6.416   8.751   4.681 -0.2579  0.1169  0.1057
  272POPC   C4A 3573   6.552   9.039   4.922 -0.0215  0.1892  0.0082
  272POPC   C1B 3574   6.523   8.282   4.142  0.2125  0.2473 -0.1500
  272POPC   C2B 3575   6.160   8.139   4.488  0.0519 -0.0406  0.2832
  272POPC   C3B 3576   6.119   8.258   4.925  0.0264 -0.2197  0.2261
  272POPC   C4B 3577   6.130   8.676   5.167 -0.0751  0.0595 -0.0002
  273POPC   NC3 3578   9.885   9.872   3.236  0.0778 -0.0786 -0.1691
  273POPC   PO4 3579   9.481   9.803   3.584 -0.3571  0.1222  0.1427
  273POPC   GL1 3580   9.485   9.499   3.958 -0.0556 -0.0664  0.1487
  273POPC   GL2 3581   9.082   9.527   3.849 -0.2903  0.2361  0.1674
  273POPC   C1A 3582   9.563   9.191   4.294  0.2050  0.0097  0.1609
  273POPC   D2A 3583   9.313   9.053   4.531  0.1899  0.2603 -0.1101
  273POPC   C3A 3584   9.388   9.010   4.987 -0.2736  0.4338 -0.2523
  273POPC   C4A 3585   9.323   9.105   5.408 -0.2279  0.0368  0.0200
  273POPC   C1B 3586   8.958   9.408   4.368 -0.0070 -0.1090 -0.3093
  273POPC   C2B 3587   8.951   9.326   4.862  0.2864 -0.1960 -0.1105
  273POPC   C3B 3588   8.910   8.973   5.051  0.3466 -0.1337 -0.3482
  273POPC   C4B 3589   9.083   8.546   5.069 -0.0881 -0.0213  0.0910
  274POPC   NC3 3590   4.462   9.080   2.992  0.1071  0.1662 -0.3279
  274POPC   PO4 3591   4.851   9.266   3.161 -0.1569  0.3127 -0.4373
  274POPC   GL1 3592   4.714   9.356   3.602  0.3018  0.0691  0.1756
  274POPC   GL2 3593   4.398   9.516   3.633 -0.2631  0.1948 -0.0725
  274POPC   C1A 3594   4.728   9.330   4.029 -0.1674  0.0600 -0.0376
  274POPC   D2A 3595   4.898   9.349   4.362  0.0604 -0.2297  0.3219
  274POPC   C3A 3596   4.662   9.529   4.708  0.0072  0.3092  0.1265
  274POPC   C4A 3597   4.518   9.668   5.100  0.0015  0.1651 -0.2021
  274POPC   C1B 3598   4.253   9.628   4.008 -0.1641 -0.0166 -0.0955
  274POPC   C2B 3599   4.268   9.612   4.440 -0.1795  0.0580  0.0557
  274POPC   C3B 3600   4.092   9.527   4.890 -0.1284 -0.2656  0.1655
  274POPC   C4B 3601   4.136   9.666   5.413  0.0857 -0.0626  0.2818
  275POPC   NC3 3602   8.614   7.770   3.374  0.0782  0.0358  0.0144
  275POPC   PO4 3603   8.470   7.410   3.273  0.3709 -0.2038  0.3288
  275POPC   GL1 3604   8.305   7.225   3.616 -0.2024 -0.0557 -0.2804
  275POPC   GL2 3605   8.375   6.878   3.720  0.1221  0.0984  0.2995
  275POPC   C1A 3606   8.320   7.394   4.086 -0.2766  0.3049  0.3979
  275POPC   D2A 3607   8.170   7.553   4.500 -0.0746 -0.2095  0.0070
  275POPC   C3A 3608   8.243   7.328   4.958 -0.2515  0.3534 -0.0042
  275POPC   C4A 3609   8.496   7.465   5.318 -0.0600  0.1209  0.0838
  275POPC   C1B 3610   8.702   6.903   4.060  0.1185 -0.0745  0.1845
  275POPC   C2B 3611   8.715   6.740   4.571  0.2354 -0.0705  0.2796
  275POPC   C3B 3612   9.065   6.686   4.874  0.1435  0.0649  0.0398
  275POPC   C4B 3613   9.337   6.994   5.152  0.6457 -0.2187  0.1210
  276POPC   NC3 3614   3.165   7.095   2.831  0.0984  0.3245 -0.1316
  276POPC   PO4 3615   2.742   6.952   2.868 -0.0328  0.2871  0.0339
  276POPC   GL1 3616   2.948   7.007   3.365  0.1707 -0.0656 -0.0411
  276POPC   GL2 3617   2.772   7.142   3.572 -0.1137  0.4976  0.3996
  276POPC   C1A 3618   3.086   6.839   3.796  0.0998  0.1403 -0.0668
  276POPC   D2A 3619   3.352   6.566   4.050 -0.1043 -0.1019  0.2933
  276POPC   C3A 3620   3.440   6.376   4.389 -0.0100 -0.0712  0.0907
  276POPC   C4A 3621   3.693   6.589   4.680 -0.1270  0.1417 -0.1097
  276POPC   C1B 3622   2.657   7.250   3.996  0.0191 -0.0712  0.0479
  276POPC   C2B 3623   2.628   7.420   4.446 -0.1884 -0.2966 -0.2463
  276POPC   C3B 3624   2.456   7.706   4.723 -0.1239  0.0120 -0.2546
  276POPC   C4B 3625   2.409   7.808   5.160  0.2028  0.1016  0.0944
  277POPC   NC3 3626   6.947   0.834   3.440 -0.1620 -0.0936  0.2064
  277POPC   PO4 3627   6.759   0.386   3.534  0.2321  0.0834  0.0562
  277POPC   GL1 3628   6.797   0.405   3.911  0.0542  0.0299  0.1774
  277POPC   GL2 3629   6.639   0.323   4.070 -0.1006 -0.2326 -0.1457
  277POPC   C1A 3630   7.067   0.629   4.288 -0.1686  0.0524 -0.1516
  277POPC   D2A 3631   7.142   0.524   4.654 -0.1012 -0.1725  0.0911
  277POPC   C3A 3632   6.968   0.225   4.792 -0.1200  0.0364  0.0601
  277POPC   C4A 3633   6.873  -0.219   4.570 -0.0791 -0.1543  0.1058
  277POPC   C1B 3634   7.032   0.162   4.270  0.1936 -0.4873 -0.0157
  277POPC   C2B 3635   7.358  -0.044   4.490 -0.2101  0.1361 -0.0262
  277POPC   C3B 3636   7.459  -0.289   4.795 -0.1677  0.3103 -0.1158
  277POPC   C4B 3637   7.358  -0.613   4.928 -0.0128  0.0770 -0.0882
  278POPC   NC3 3638   1.198   3.549   3.545 -0.2004 -0.2925  0.0294
  278POPC   PO4 3639   1.544   3.267   3.209  0.4185 -0.1296 -0.0436
  278POPC   GL1 3640   1.583   3.203   3.629 -0.1140 -0.1700 -0.0962
  278POPC   GL2 3641   1.317   3.181   3.854  0.1260  0.1360 -0.0291
  278POPC   C1A 3642   1.612   3.512   3.959  0.1950  0.1728 -0.0360
  278POPC   D2A 3643   1.777   3.855   4.091  0.0855  0.1431 -0.0195
  278POPC   C3A 3644   2.109   4.104   4.059 -0.1299  0.1111  0.1244
  278POPC   C4A 3645   2.305   4.314   4.318 -0.0648 -0.0498  0.1492
  278POPC   C1B 3646   1.201   3.382   4.251  0.0205  0.1547 -0.0924
  278POPC   C2B 3647   0.976   3.487   4.538  0.1535 -0.2089  0.0580
  278POPC   C3B 3648   0.987   3.809   4.879  0.2603 -0.2546 -0.1627
  278POPC   C4B 3649   0.935   3.923   5.273 -0.1257  0.2046 -0.1730
  279POPC   NC3 3650   1.701   9.831   3.201 -0.1078  0.1678  0.1457
  279POPC   PO4 3651   1.223   9.904   3.332  0.3895 -0.1699  0.2856
  279POPC   GL1 3652   1.019   9.927   3.673  0.1851 -0.2958 -0.0506
  279POPC   GL2 3653   0.706  10.170   3.760 -0.0776  0.1736  0.2283
  279POPC   C1A 3654   0.934  10.027   4.131  0.0177  0.0851 -0.0433
  279POPC   D2A 3655   1.075  10.267   4.324  0.0697 -0.0427 -0.2123
  279POPC   C3A 3656   1.066  10.236   4.751 -0.1038 -0.2936  0.0877
  279POPC   C4A 3657   1.211  10.011   5.211  0.2412 -0.0146  0.2343
  279POPC   C1B 3658   0.605  10.419   4.113 -0.0603 -0.2945  0.2150
  279POPC   C2B 3659   0.770  10.738   4.434 -0.2829 -0.1032  0.2122
  279POPC   C3B 3660   1.031  10.871   4.712  0.2858  0.2471 -0.1712
  279POPC   C4B 3661   0.880  10.880   5.217  0.2501 -0.0087  0.1095
  280POPC   NC3 3662   8.239   9.724   3.647 -0.0671 -0.1086  0.1676
  280POPC   PO4 3663   8.115   9.221   3.429 -0.0553 -0.0387 -0.2725
  280POPC   GL1 3664   8.111   8.991   3.765  0.1281  0.0606 -0.0125
  280POPC   GL2 3665   8.163   9.317   3.933 -0.0162 -0.0018 -0.4662
  280POPC   C1A 3666   8.296   8.806   4.229  0.1837  0.2262  0.2592
  280POPC   D2A 3667   8.178   8.845   4.654 -0.1429  0.0105  0.0178
  280POPC   C3A 3668   8.347   8.656   5.091  0.2072  0.1599  0.1174
  280POPC   C4A 3669   8.701   8.551   5.437 -0.0993 -0.1431  0.1354
  280POPC   C1B 3670   8.147   9.284   4.476 -0.4901  0.2195 -0.0350
  280POPC   C2B 3671   7.787   9.199   4.801 -0.3653 -0.4485  0.0321
  280POPC   C3B 3672   7.770   9.363   5.213 -0.0440 -0.0813  0.1466
  280POPC   C4B 3673   7.590   9.393   5.585 -0.2543 -0.2050  0.1906
  281POPC   NC3 3674   1.939   7.238   3.247 -0.1118 -0.0189  0.2025
  281POPC   PO4 3675   2.160   7.634   3.403  0.1229  0.3166 -0.2482
  281POPC   GL1 3676   2.201   7.446   3.756  0.2581 -0.0330 -0.1421
  281POPC   GL2 3677   2.316   7.107   3.703 -0.0960 -0.0949 -0.2402
  281POPC   C1A 3678   2.132   7.509   4.272  0.1095 -0.2055 -0.1498
  281POPC   D2A 3679   2.116   7.303   4.639  0.1627  0.2864 -0.1060
  281POPC   C3A 3680   2.163   7.384   5.036 -0.1273 -0.2250 -0.3295
  281POPC   C4A 3681   2.316   7.465   5.485 -0.0849  0.0185 -0.0840
  281POPC   C1B 3682   2.249   7.028   4.152 -0.0073 -0.0818 -0.2434
  281POPC   C2B 3683   2.276   6.830   4.520  0.1666  0.1579 -0.1332
  281POPC   C3B 3684   2.385   6.912   4.924 -0.0267 -0.0479  0.1161
  281POPC   C4B 3685   2.699   7.237   4.956 -0.1185 -0.0134  0.1192
  282POPC   NC3 3686   0.433   2.634   3.123  0.3427  0.3500 -0.1420
  282POPC   PO4 3687   0.588   2.949   3.357  0.0400 -0.1251  0.2889
  282POPC   GL1 3688   0.824   3.027   3.743  0.3159  0.1273  0.3170
  282POPC   GL2 3689   0.819   3.349   3.933 -0.4869 -0.0714 -0.1622
  282POPC   C1A 3690   1.048   2.788   4.103  0.1710 -0.0015  0.2507
  282POPC   D2A 3691   1.250   2.529   4.460  0.0561  0.1561 -0.1365
  282POPC   C3A 3692   1.563   2.600   4.584  0.0134 -0.0314 -0.0360
  282POPC   C4A 3693   1.951   2.814   4.444 -0.2663  0.0289  0.0932
  282POPC   C1B 3694   0.418   3.345   4.089 -0.2121  0.1771 -0.1263
  282POPC   C2B 3695   0.291   3.387   4.506 -0.1017  0.1455 -0.0048
  282POPC   C3B 3696   0.480   3.352   4.795  0.0641  0.0043  0.4534
  282POPC   C4B 3697   0.868   3.371   5.012 -0.0145 -0.0657 -0.1875
  283POPC   NC3 3698   0.849   8.536   3.194 -0.3032  0.0570  0.0803
  283POPC   PO4 3699   0.430   8.531   3.388 -0.0304 -0.2634 -0.0935
  283POPC   GL1 3700   0.293   8.686   3.766  0.0535 -0.1120  0.3018
  283POPC   GL2 3701   0.123   9.015   3.953 -0.1463  0.1870 -0.3198
  283POPC   C1A 3702   0.252   8.577   4.214 -0.1393  0.0363  0.0545
  283POPC   D2A 3703   0.468   8.720   4.560  0.0338  0.1529 -0.2764
  283POPC   C3A 3704   0.259   8.936   4.894 -0.0313 -0.1412 -0.1133
  283POPC   C4A 3705   0.355   8.956   5.385 -0.1425 -0.1893  0.0942
  283POPC   C1B 3706  -0.010   8.881   4.459  0.1530 -0.0119 -0.1285
  283POPC   C2B 3707  -0.239   9.037   4.701 -0.1440  0.0237 -0.0183
  283POPC   C3B 3708  -0.633   9.008   5.023 -0.0629 -0.0227 -0.1743
  283POPC   C4B 3709  -0.826   9.039   5.390 -0.2457 -0.2382  0.0870
  284POPC   NC3 3710   8.511   8.974   3.367  0.1061  0.3423  0.2007
  284POPC   PO4 3711   8.478   8.596   3.354  0.1387  0.0738 -0.2840
  284POPC   GL1 3712   8.594   8.296   3.699 -0.1751 -0.1640 -0.3524
  284POPC   GL2 3713   8.493   7.992   3.812  0.2654  0.1042 -0.2222
  284POPC   C1A 3714   8.546   8.423   4.094 -0.1220  0.5471  0.0512
  284POPC   D2A 3715   8.638   8.328   4.469 -0.3162  0.1632  0.1429
  284POPC   C3A 3716   8.777   8.036   4.712 -0.2759 -0.3095  0.1945
  284POPC   C4A 3717   8.621   7.568   4.751  0.0186  0.0317  0.0357
  284POPC   C1B 3718   8.436   7.922   4.151  0.0117 -0.0606  0.1188
  284POPC   C2B 3719   8.294   8.034   4.612  0.0230  0.2099 -0.0599
  284POPC   C3B 3720   8.042   7.919   4.909 -0.1510  0.1880 -0.0183
  284POPC   C4B 3721   7.769   7.515   4.861 -0.1990  0.1825 -0.0498
  285POPC   NC3 3722   0.546   9.021   3.454  0.0370  0.0638 -0.1476
  285POPC   PO4 3723   0.883   9.039   3.070 -0.3329 -0.0455 -0.2628
  285POPC   GL1 3724   0.987   8.976   3.495  0.0022 -0.0680 -0.4029
  285POPC   GL2 3725   0.919   9.161   3.860  0.2851  0.1804  0.0009
  285POPC   C1A 3726   1.283   8.665   3.801  0.1542  0.0475 -0.2681
  285POPC   D2A 3727   1.602   8.312   3.819  0.0916 -0.2847 -0.3632
  285POPC   C3A 3728   1.781   8.280   4.262  0.1706  0.2395 -0.0425
  285POPC   C4A 3729   1.945   8.496   4.633 -0.1763 -0.2138 -0.0242
  285POPC   C1B 3730   0.536   9.059   4.182  0.2903 -0.1412  0.2852
  285POPC   C2B 3731   0.489   9.259   4.530  0.4820 -0.0205 -0.2081
  285POPC   C3B 3732   0.521   9.613   4.689  0.5087  0.0902  0.0562
  285POPC   C4B 3733   0.789   9.865   4.941 -0.2585 -0.5335 -0.0136
  286POPC   NC3 3734   2.961   3.329   2.733 -0.3605 -0.4787 -0.0017
  286POPC   PO4 3735   2.917   3.190   3.152 -0.2134 -0.0584 -0.1376
  286POPC   GL1 3736   2.863   3.198   3.519 -0.4251  0.1445 -0.0771
  286POPC   GL2 3737   3.105   3.238   3.632 -0.1350 -0.3921 -0.1784
  286POPC   C1A 3738   2.644   3.255   3.906  0.2278  0.1100 -0.2720
  286POPC   D2A 3739   2.708   3.389   4.261 -0.2354  0.3956  0.0216
  286POPC   C3A 3740   2.802   3.274   4.635 -0.1458 -0.3313  0.1483
  286POPC   C4A 3741   2.819   3.153   5.024 -0.1009 -0.1039 -0.1507
  286POPC   C1B 3742   3.230   3.102   4.060  0.1595 -0.0555  0.0785
  286POPC   C2B 3743   3.210   2.944   4.540  0.0628 -0.2668 -0.0278
  286POPC   C3B 3744   3.582   2.823   4.748 -0.1218 -0.1776  0.2342
  286POPC   C4B 3745   3.975   2.608   4.857  0.1335  0.0014 -0.0307
  287POPC   NC3 3746   9.864   4.110   2.923 -0.0508  0.1298 -0.2831
  287POPC   PO4 3747   9.879   3.913   3.333  0.0462  0.1644 -0.2023
  287POPC   GL1 3748   9.840   3.839   3.871 -0.1109 -0.0306  0.0891
  287POPC   GL2 3749   9.517   3.573   3.967 -0.0886 -0.2175 -0.1327
  287POPC   C1A 3750  10.201   3.767   4.207 -0.1769 -0.2861 -0.2820
  287POPC   D2A 3751  10.280   4.137   4.515  0.1043 -0.1293  0.0086
  287POPC   C3A 3752  10.015   4.214   4.906 -0.0284  0.1993  0.0855
  287POPC   C4A 3753  10.216   3.850   5.232  0.0604 -0.0535  0.2779
  287POPC   C1B 3754   9.395   3.564   4.342 -0.1621  0.1637  0.1085
  287POPC   C2B 3755   9.440   3.325   4.699 -0.1100 -0.0509  0.0281
  287POPC   C3B 3756   9.561   3.086   5.082 -0.0724  0.3288 -0.0007
  287POPC   C4B 3757   9.827   2.760   5.148 -0.0047  0.0542 -0.0943
  288POPC   NC3 3758  10.525   3.114   3.563  0.0722  0.1552  0.3699
  288POPC   PO4 3759  10.190   2.843   3.329 -0.0419  0.2804  0.1892
  288POPC   GL1 3760  10.066   2.800   3.779 -0.3416  0.1053  0.1749
  288POPC   GL2 3761  10.241   2.974   3.928  0.1520 -0.2615  0.0180
  288POPC   C1A 3762   9.960   2.490   4.079 -0.3945  0.2006 -0.0869
  288POPC   D2A 3763   9.638   2.433   4.391  0.0829 -0.0432 -0.2340
  288POPC   C3A 3764   9.355   2.263   4.564 -0.1360  0.0571 -0.0869
  288POPC   C4A 3765   9.259   2.072   4.962  0.2954 -0.3889  0.0676
  288POPC   C1B 3766  10.012   2.861   4.385  0.0025 -0.0528  0.0701
  288POPC   C2B 3767  10.229   2.760   4.799  0.3207 -0.1559 -0.1439
  288POPC   C3B 3768  10.702   2.715   5.079 -0.0400  0.0088 -0.1028
  288POPC   C4B 3769  11.091   2.600   5.272  0.0363 -0.0450  0.0235
  289POPC   NC3 3770   3.542   5.724   2.770  0.0175  0.0422 -0.2890
  289POPC   PO4 3771   3.602   6.124   2.836 -0.5521  0.1925 -0.1134
  289POPC   GL1 3772   3.666   6.165   3.283  0.1885  0.2614 -0.2972
  289POPC   GL2 3773   3.524   6.468   3.441 -0.1633 -0.0221  0.1973
  289POPC   C1A 3774   3.732   5.895   3.720 -0.0848 -0.0498 -0.2553
  289POPC   D2A 3775   3.606   5.989   4.101 -0.2720 -0.0974 -0.0994
  289POPC   C3A 3776   3.183   5.827   4.295 -0.0452  0.1132 -0.1226
  289POPC   C4A 3777   2.987   5.355   4.289  0.1635  0.1054 -0.0985
  289POPC   C1B 3778   3.777   6.435   3.849 -0.0540  0.0464  0.0550
  289POPC   C2B 3779   3.811   6.763   4.112 -0.0921 -0.1143  0.1536
  289POPC   C3B 3780   3.573   7.004   4.535  0.3046 -0.1961  0.0452
  289POPC   C4B 3781   3.234   6.818   4.694  0.1042  0.0188  0.1917
  290POPC   NC3 3782   6.679   5.476   3.707 -0.0716 -0.2174  0.0708
  290POPC   PO4 3783   7.170   5.524   3.494  0.1608  0.0166  0.0231
  290POPC   GL1 3784   7.135   5.605   3.933  0.1811  0.2974  0.1847
  290POPC   GL2 3785   6.924   5.840   4.071  0.1128  0.1029 -0.0142
  290POPC   C1A 3786   7.274   5.527   4.343 -0.1392  0.2132  0.1062
  290POPC   D2A 3787   7.156   5.627   4.798 -0.2960 -0.3293  0.2816
  290POPC   C3A 3788   7.475   5.433   5.105 -0.1066  0.5856  0.2181
  290POPC   C4A 3789   7.894   5.409   5.327 -0.2367 -0.0117  0.1103
  290POPC   C1B 3790   6.974   5.991   4.448  0.1916  0.3600 -0.0867
  290POPC   C2B 3791   7.291   6.215   4.734 -0.0287  0.2033  0.3924
  290POPC   C3B 3792   7.455   6.433   5.049 -0.1487  0.0308  0.0057
  290POPC   C4B 3793   7.201   6.490   5.347  0.0768 -0.2098  0.1230
  291POPC   NC3 3794   9.111   6.660   3.523 -0.1339 -0.0975  0.4052
  291POPC   PO4 3795   9.432   6.839   3.322  0.3466  0.1564 -0.0246
  291POPC   GL1 3796   9.705   6.570   3.692  0.0774 -0.3578  0.1361
  291POPC   GL2 3797   9.472   6.370   3.995  0.2441  0.2907 -0.0658
  291POPC   C1A 3798  10.040   6.785   3.986  0.0380 -0.2961 -0.1736
  291POPC   D2A 3799  10.471   7.018   3.990  0.2354  0.0057 -0.3180
  291POPC   C3A 3800  10.694   6.897   4.289  0.1534  0.0402  0.2058
  291POPC   C4A 3801  10.687   6.985   4.689  0.0491  0.0525  0.1630
  291POPC   C1B 3802   9.674   6.652   4.275  0.1252  0.5426  0.0925
  291POPC   C2B 3803   9.989   6.952   4.504 -0.3306 -0.0185 -0.2538
  291POPC   C3B 3804  10.259   6.905   4.860 -0.1050  0.4237  0.0023
  291POPC   C4B 3805  10.487   6.745   5.177 -0.1683  0.0214  0.0014
  292POPC   NC3 3806   2.749   0.629   3.323  0.1383  0.1252  0.1165
  292POPC   PO4 3807   2.490   0.289   3.533 -0.2922  0.0742 -0.0928
  292POPC   GL1 3808   2.554   0.095   3.924  0.2310 -0.0337  0.3170
  292POPC   GL2 3809   2.232   0.105   4.055 -0.1665 -0.1098  0.0656
  292POPC   C1A 3810   2.550  -0.228   4.185 -0.1016  0.0666  0.1439
  292POPC   D2A 3811   2.416  -0.553   4.500  0.2173 -0.3992 -0.1676
  292POPC   C3A 3812   1.989  -0.367   4.628  0.0731  0.2360 -0.2668
  292POPC   C4A 3813   1.829  -0.109   4.983 -0.3253 -0.1420 -0.1870
  292POPC   C1B 3814   2.557   0.291   4.349  0.0528  0.0307  0.0867
  292POPC   C2B 3815   2.769   0.247   4.773  0.0449 -0.0244 -0.1429
  292POPC   C3B 3816   2.926   0.117   5.212  0.2115  0.0282 -0.2754
  292POPC   C4B 3817   2.885   0.092   5.651  0.0561 -0.2772 -0.4521
  293POPC   NC3 3818   0.041   0.726   2.853 -0.2489  0.1066  0.1131
  293POPC   PO4 3819   0.008   0.616   3.215  0.1247  0.1476  0.0043
  293POPC   GL1 3820  -0.074   0.246   3.480  0.3593  0.0729 -0.2602
  293POPC   GL2 3821  -0.172   0.013   3.341 -0.0379 -0.1576 -0.0765
  293POPC   C1A 3822  -0.019   0.219   3.981 -0.0839  0.0713  0.2784
  293POPC   D2A 3823  -0.191   0.239   4.314  0.2143  0.2042 -0.1773
  293POPC   C3A 3824   0.101   0.351   4.696 -0.0368  0.0248  0.3410
  293POPC   C4A 3825   0.016   0.174   4.981  0.1321 -0.1378 -0.1096
  293POPC   C1B 3826  -0.064  -0.248   3.738  0.0499 -0.0881 -0.0001
  293POPC   C2B 3827   0.147  -0.395   4.046  0.1756 -0.0165 -0.0977
  293POPC   C3B 3828  -0.001  -0.645   4.238  0.4096 -0.2406 -0.0617
  293POPC   C4B 3829   0.076  -0.886   4.672  0.0961 -0.1040  0.0406
  294POPC   NC3 3830   8.895   0.498   3.463 -0.1026 -0.2944  0.0628
  294POPC   PO4 3831   8.626   0.877   3.625 -0.1926 -0.3857 -0.1974
  294POPC   GL1 3832   8.748   0.701   3.960  0.1728 -0.0541 -0.0197
  294POPC   GL2 3833   8.689   0.322   3.876  0.0693  0.0684 -0.0109
  294POPC   C1A 3834   8.914   0.909   4.326  0.0231 -0.1549 -0.1990
  294POPC   D2A 3835   9.178   0.747   4.673 -0.0292  0.1972  0.1321
  294POPC   C3A 3836   9.413   1.122   4.752 -0.0280 -0.0867 -0.1827
  294POPC   C4A 3837   9.459   1.372   5.156 -0.2598 -0.1479  0.1647
  294POPC   C1B 3838   8.886  -0.003   4.088 -0.0048  0.4146 -0.0975
  294POPC   C2B 3839   8.890  -0.021   4.516 -0.1841 -0.2027 -0.2314
  294POPC   C3B 3840   8.898  -0.011   4.983 -0.0462  0.1186  0.0381
  294POPC   C4B 3841   8.814  -0.169   5.370  0.0349  0.0916  0.0568
  295POPC   NC3 3842  10.232   4.803   3.286 -0.0164 -0.4238 -0.0995
  295POPC   PO4 3843  10.235   4.380   3.339  0.0502 -0.0890  0.1420
  295POPC   GL1 3844  10.103   4.196   3.703  0.4874 -0.4061  0.3982
  295POPC   GL2 3845  10.341   4.008   3.755 -0.0699  0.2044  0.1241
  295POPC   C1A 3846  10.087   4.317   4.096 -0.0834 -0.0912 -0.0885
  295POPC   D2A 3847  10.020   4.561   4.476 -0.1202 -0.1775  0.0822
  295POPC   C3A 3848  10.360   4.687   4.664 -0.2519 -0.1943 -0.3551
  295POPC   C4A 3849  10.822   4.727   4.899  0.1730 -0.1248 -0.1957
  295POPC   C1B 3850  10.610   4.100   4.148 -0.0748  0.1722  0.1077
  295POPC   C2B 3851  10.734   3.766   4.454  0.2452 -0.0706 -0.3074
  295POPC   C3B 3852  10.791   3.618   4.823 -0.4021 -0.0550 -0.0320
  295POPC   C4B 3853  10.821   3.739   5.177 -0.1025 -0.1327  0.0270
  296POPC   NC3 3854   5.454   5.107   3.364 -0.0603 -0.1084 -0.0751
  296POPC   PO4 3855   5.681   4.777   3.231  0.3134  0.1098  0.0502
  296POPC   GL1 3856   5.680   4.818   3.650  0.1861  0.0650 -0.0854
  296POPC   GL2 3857   5.642   5.127   3.868  0.1870  0.0526  0.0078
  296POPC   C1A 3858   5.609   4.565   3.964  0.1647  0.3221  0.1304
  296POPC   D2A 3859   5.831   4.562   4.343  0.0500  0.1937  0.0309
  296POPC   C3A 3860   5.587   4.500   4.790  0.1181 -0.0750 -0.0448
  296POPC   C4A 3861   5.279   4.388   5.049 -0.0378 -0.0309 -0.0776
  296POPC   C1B 3862   5.341   4.974   4.032  0.0525 -0.0797 -0.2985
  296POPC   C2B 3863   5.372   4.723   4.428  0.0576  0.2831  0.1007
  296POPC   C3B 3864   5.319   4.893   4.811  0.1711  0.1443  0.1588
  296POPC   C4B 3865   5.549   5.127   5.102 -0.0425  0.1249 -0.1122
  297POPC   NC3 3866   0.933   2.609   3.429  0.2321  0.1883  0.0987
  297POPC   PO4 3867   1.240   2.189   3.277 -0.2146  0.0602 -0.0430
  297POPC   GL1 3868   1.355   2.307   3.612 -0.1760 -0.2030 -0.0814
  297POPC   GL2 3869   1.620   2.395   3.727  0.1091  0.0504 -0.0627
  297POPC   C1A 3870   1.168   2.309   4.016  0.0411  0.3557 -0.0389
  297POPC   D2A 3871   0.995   2.096   4.361 -0.2075  0.0192  0.2534
  297POPC   C3A 3872   1.041   2.154   4.750 -0.0014  0.0014 -0.4401
  297POPC   C4A 3873   0.823   2.099   5.059  0.0312 -0.2096  0.0650
  297POPC   C1B 3874   1.748   2.414   4.175 -0.0152  0.0973  0.0277
  297POPC   C2B 3875   1.976   2.181   4.441  0.2145  0.0175 -0.2796
  297POPC   C3B 3876   2.007   2.036   4.885 -0.0462  0.1554  0.1147
  297POPC   C4B 3877   1.956   1.658   5.150 -0.0266  0.2031 -0.0437
  298POPC   NC3 3878   2.497   2.363   3.491 -0.3093  0.2096  0.2355
  298POPC   PO4 3879   2.740   1.984   3.304  0.3502  0.2875 -0.1075
  298POPC   GL1 3880   2.747   1.692   3.576 -0.0037  0.3267  0.2223
  298POPC   GL2 3881   2.375   1.788   3.745 -0.1967  0.1866  0.2286
  298POPC   C1A 3882   2.796   1.493   3.986  0.0889 -0.1671 -0.4464
  298POPC   D2A 3883   3.090   1.537   4.336 -0.0393  0.3346 -0.1408
  298POPC   C3A 3884   3.016   1.386   4.634 -0.2957 -0.1658 -0.3241
  298POPC   C4A 3885   3.306   1.452   5.016 -0.4761 -0.2932  0.0838
  298POPC   C1B 3886   2.445   1.885   4.219  0.0612 -0.2865  0.3848
  298POPC   C2B 3887   2.744   1.954   4.513  0.3564 -0.0044 -0.0665
  298POPC   C3B 3888   2.712   2.224   4.776 -0.0440 -0.0951 -0.0088
  298POPC   C4B 3889   2.752   2.205   5.089  0.0386  0.0664 -0.3281
  299POPC   NC3 3890   8.283   4.805   3.131 -0.0130  0.1203 -0.0091
  299POPC   PO4 3891   8.361   4.880   3.586  0.0353  0.3231 -0.2207
  299POPC   GL1 3892   8.417   5.266   4.056 -0.0525 -0.1391  0.3474
  299POPC   GL2 3893   8.694   5.543   3.932  0.0183 -0.1081  0.2170
  299POPC   C1A 3894   8.123   5.360   4.406 -0.1650 -0.2558  0.1643
  299POPC   D2A 3895   8.122   5.387   4.862  0.0386 -0.0927  0.2105
  299POPC   C3A 3896   8.288   5.054   5.065 -0.0770  0.1127  0.2317
  299POPC   C4A 3897   8.138   4.999   5.390 -0.2358 -0.0139 -0.0141
  299POPC   C1B 3898   8.590   5.740   4.366 -0.2171 -0.0856 -0.3779
  299POPC   C2B 3899   8.315   5.771   4.663  0.2413  0.1656  0.1643
  299POPC   C3B 3900   8.226   5.842   5.026  0.0555 -0.2017  0.2761
  299POPC   C4B 3901   7.999   5.916   5.401  0.3072  0.0075  0.1026
  300POPC   NC3 3902   3.561  10.461   2.565  0.0931  0.0929 -0.0794
  300POPC   PO4 3903   3.812  10.237   2.774 -0.0052  0.1533 -0.0581
  300POPC   GL1 3904   3.946  10.157   3.203 -0.3376  0.3305 -0.0558
  300POPC   GL2 3905   3.703  10.073   3.441  0.0018 -0.0662 -0.1980
  300POPC   C1A 3906   4.295   9.982   3.526  0.2449 -0.0765  0.1266
  300POPC   D2A 3907   4.746   9.832   3.775 -0.2099 -0.0444  0.3208
  300POPC   C3A 3908   4.667   9.803   4.207  0.0025 -0.0591  0.2352
  300POPC   C4A 3909   5.049   9.787   4.475  0.0905  0.0652  0.0822
  300POPC   C1B 3910   3.737   9.886   3.846 -0.1256 -0.0728 -0.3485
  300POPC   C2B 3911   3.890  10.187   4.116 -0.1044 -0.0418  0.0427
  300POPC   C3B 3912   3.974  10.422   4.502 -0.1315 -0.1565  0.3309
  300POPC   C4B 3913   3.749  10.384   4.828  0.0101  0.2054 -0.3499
  301POPC   NC3 3914   0.667   8.096   3.329 -0.1557  0.0897 -0.1030
  301POPC   PO4 3915   0.821   7.750   3.297 -0.1494  0.3129 -0.0457
  301POPC   GL1 3916   0.749   7.927   3.774  0.1034 -0.0622 -0.1613
  301POPC   GL2 3917   0.788   7.787   4.193 -0.2399  0.2079 -0.0882
  301POPC   C1A 3918   0.562   8.191   4.156  0.1404  0.0220 -0.1426
  301POPC   D2A 3919   0.860   8.312   4.492  0.3271 -0.0774 -0.0717
  301POPC   C3A 3920   0.696   8.125   4.839  0.3872 -0.0920 -0.2905
  301POPC   C4A 3921   0.892   8.266   5.247 -0.0930  0.2840  0.0125
  301POPC   C1B 3922   0.888   7.755   4.657  0.2461  0.1051 -0.1067
  301POPC   C2B 3923   0.876   7.681   5.103 -0.0776  0.3202 -0.3096
  301POPC   C3B 3924   0.965   7.868   5.582  0.0633 -0.3315  0.1301
  301POPC   C4B 3925   0.987   8.192   5.741  0.0699 -0.0856 -0.1403
  302POPC   NC3 3926   4.642   0.119   3.289  0.0305  0.2373  0.3242
  302POPC   PO4 3927   4.976  -0.216   3.567 -0.2468 -0.0317  0.0670
  302POPC   GL1 3928   4.638  -0.255   3.852 -0.1461  0.0996  0.3202
  302POPC   GL2 3929   4.466   0.067   3.793  0.0573  0.0126  0.0864
  302POPC   C1A 3930   4.373  -0.482   4.171 -0.4768  0.0504 -0.0924
  302POPC   D2A 3931   4.541  -0.636   4.616  0.4422 -0.1057 -0.0192
  302POPC   C3A 3932   4.249  -0.763   4.937 -0.1619 -0.0130 -0.0296
  302POPC   C4A 3933   4.161  -0.607   5.301  0.2618 -0.1398  0.0813
  302POPC   C1B 3934   4.424   0.281   4.152 -0.0216 -0.0069 -0.1027
  302POPC   C2B 3935   4.473   0.025   4.544  0.1646 -0.2682 -0.2346
  302POPC   C3B 3936   4.334  -0.278   4.900 -0.0044 -0.0556 -0.1024
  302POPC   C4B 3937   4.696  -0.577   5.145 -0.0100  0.1817 -0.0871
  303POPC   NC3 3938   0.396  10.068   2.539 -0.1098 -0.2422  0.0810
  303POPC   PO4 3939   0.498  10.322   2.989 -0.0565  0.0662  0.2002
  303POPC   GL1 3940   0.483  10.503   3.402 -0.0411 -0.1539  0.0633
  303POPC   GL2 3941   0.908  10.578   3.553  0.3206  0.1998  0.0969
  303POPC   C1A 3942   0.418  10.697   3.739 -0.1607  0.0178  0.4067
  303POPC   D2A 3943   0.582  10.940   4.027 -0.3089 -0.2829  0.0769
  303POPC   C3A 3944   0.739  11.418   3.914 -0.1583 -0.1387  0.0651
  303POPC   C4A 3945   0.809  11.802   4.075  0.0539  0.0457 -0.1720
  303POPC   C1B 3946   1.154  10.629   3.884  0.2297  0.1551  0.2760
  303POPC   C2B 3947   1.328  10.749   4.277 -0.0314 -0.5580  0.1379
  303POPC   C3B 3948   1.472  10.570   4.612  0.1469 -0.2837  0.1049
  303POPC   C4B 3949   1.536  10.223   4.909  0.0478  0.2427 -0.1389
  304POPC   NC3 3950   9.773   0.565   3.187 -0.2256  0.1983  0.0102
  304POPC   PO4 3951  10.092   0.221   3.043 -0.1529  0.2743  0.0705
  304POPC   GL1 3952  10.118  -0.043   3.414 -0.0750  0.1534 -0.0750
  304POPC   GL2 3953   9.908   0.120   3.625 -0.0234  0.1676  0.0036
  304POPC   C1A 3954  10.276  -0.096   3.842  0.1237 -0.3326  0.1755
  304POPC   D2A 3955  10.500  -0.265   4.221  0.2452 -0.2717  0.0229
  304POPC   C3A 3956  10.392  -0.475   4.654 -0.1472  0.3699 -0.0460
  304POPC   C4A 3957  10.363  -0.542   5.066  0.2461  0.3195  0.0328
  304POPC   C1B 3958   9.596  -0.056   3.812  0.3445  0.0212 -0.0992
  304POPC   C2B 3959   9.446  -0.088   4.215  0.0486  0.2353  0.0731
  304POPC   C3B 3960   9.684  -0.237   4.602 -0.0591 -0.3843 -0.0170
  304POPC   C4B 3961   9.936  -0.297   4.894  0.0460 -0.3362 -0.1088
  305POPC   NC3 3962   8.353   6.916   3.238  0.2771 -0.2010 -0.2072
  305POPC   PO4 3963   8.597   6.510   3.430  0.3497 -0.4078 -0.1637
  305POPC   GL1 3964   8.650   6.423   3.827  0.1085 -0.2459  0.1865
  305POPC   GL2 3965   8.813   6.086   3.845  0.0191  0.0680 -0.0447
  305POPC   C1A 3966   8.926   6.458   4.207 -0.0072  0.0603  0.0600
  305POPC   D2A 3967   9.083   6.275   4.598 -0.3139  0.0064 -0.4708
  305POPC   C3A 3968   9.087   5.874   4.700  0.0039  0.3353  0.2123
  305POPC   C4A 3969   9.137   5.403   4.785  0.0751 -0.0125 -0.0435
  305POPC   C1B 3970   9.096   5.961   4.180 -0.0598  0.3936 -0.1887
  305POPC   C2B 3971   9.474   6.010   4.437  0.1651 -0.1030 -0.0614
  305POPC   C3B 3972   9.786   6.212   4.519  0.0577 -0.3271  0.2138
  305POPC   C4B 3973   9.964   6.507   4.756 -0.4408  0.0513 -0.1176
  306POPC   NC3 3974   0.929   1.231   3.427 -0.0709 -0.3568  0.3896
  306POPC   PO4 3975   0.529   1.353   3.253 -0.2254  0.0696 -0.1239
  306POPC   GL1 3976   0.337   1.383   3.665  0.0741 -0.1638  0.0427
  306POPC   GL2 3977   0.284   1.085   3.830 -0.1328 -0.4305 -0.0633
  306POPC   C1A 3978   0.038   1.617   3.897  0.2006  0.3426 -0.0042
  306POPC   D2A 3979  -0.286   1.865   4.150 -0.2389 -0.2295 -0.0202
  306POPC   C3A 3980  -0.266   2.257   4.183 -0.1833 -0.3545 -0.0428
  306POPC   C4A 3981  -0.291   2.745   4.352 -0.0218 -0.1384 -0.0360
  306POPC   C1B 3982   0.350   0.919   4.258 -0.4150  0.1777  0.0082
  306POPC   C2B 3983   0.262   0.483   4.251  0.0132 -0.0746 -0.1844
  306POPC   C3B 3984   0.255  -0.008   4.375 -0.1540 -0.0859  0.0024
  306POPC   C4B 3985   0.072  -0.305   4.608 -0.2385  0.0513  0.0564
  307POPC   NC3 3986   8.410   6.040   3.521  0.3791 -0.3330  0.1501
  307POPC   PO4 3987   8.296   5.617   3.574 -0.3494  0.0000  0.2434
  307POPC   GL1 3988   8.277   5.805   3.984 -0.1603  0.2796  0.1132
  307POPC   GL2 3989   8.364   6.079   4.066 -0.0820  0.1096  0.4029
  307POPC   C1A 3990   8.005   5.837   4.272  0.0112  0.0334 -0.3097
  307POPC   D2A 3991   7.714   5.618   4.564 -0.5535 -0.1601 -0.1944
  307POPC   C3A 3992   7.770   5.791   4.911  0.0509  0.1467 -0.1567
  307POPC   C4A 3993   7.577   5.931   5.167 -0.1004 -0.1702 -0.0065
  307POPC   C1B 3994   8.541   6.223   4.487 -0.4303 -0.3354  0.2334
  307POPC   C2B 3995   8.605   6.150   4.966 -0.2705  0.0895 -0.1056
  307POPC   C3B 3996   8.954   6.252   5.273 -0.1303 -0.0939 -0.0000
  307POPC   C4B 3997   9.304   6.524   5.367 -0.3776  0.1348  0.0079
  308POPC   NC3 3998  10.584   7.980   3.640  0.0179  0.0294  0.0785
  308POPC   PO4 3999  10.166   8.185   3.612  0.1038  0.1673  0.1317
  308POPC   GL1 4000  10.185   8.189   3.986  0.0055  0.2277  0.0526
  308POPC   GL2 4001  10.248   7.910   4.061  0.2051  0.1498 -0.0862
  308POPC   C1A 4002  10.070   8.267   4.349 -0.0229 -0.3958  0.1008
  308POPC   D2A 4003   9.976   8.192   4.811  0.1193  0.1625  0.0845
  308POPC   C3A 4004   9.715   8.334   5.190 -0.1349 -0.5236  0.0333
  308POPC   C4A 4005   9.550   8.668   5.340  0.2579  0.0844 -0.0380
  308POPC   C1B 4006   9.956   7.746   4.463  0.0293  0.0667 -0.4545
  308POPC   C2B 4007   9.656   7.824   4.679  0.3082  0.0286 -0.1734
  308POPC   C3B 4008   9.374   8.068   4.893  0.1238  0.0101 -0.3188
  308POPC   C4B 4009   8.967   7.887   5.184  0.1994  0.1520  0.1826
  309POPC   NC3 4010   0.347   6.296   2.903 -0.0731 -0.0406 -0.1526
  309POPC   PO4 4011   0.088   6.409   3.110  0.0876 -0.1299  0.0552
  309POPC   GL1 4012  -0.013   6.609   3.457  0.1461  0.1529 -0.0710
  309POPC   GL2 4013  -0.302   6.677   3.617  0.1266  0.1418  0.1079
  309POPC   C1A 4014   0.124   6.790   3.890 -0.5265  0.0070 -0.3731
  309POPC   D2A 4015   0.495   7.030   3.991 -0.0265  0.1421 -0.0940
  309POPC   C3A 4016   0.516   7.395   4.314  0.2484  0.0094  0.2251
  309POPC   C4A 4017   0.280   7.879   4.375  0.0376  0.2524 -0.2091
  309POPC   C1B 4018  -0.312   6.536   4.070  0.3003  0.2124  0.0793
  309POPC   C2B 4019  -0.383   6.595   4.468 -0.1885  0.0901 -0.0102
  309POPC   C3B 4020  -0.337   6.151   4.684 -0.1391  0.1779 -0.1510
  309POPC   C4B 4021  -0.071   5.959   4.974 -0.0935 -0.1607 -0.0587
  310POPC   NC3 4022   9.476   4.271   3.465 -0.0977 -0.1415  0.0276
  310POPC   PO4 4023   9.031   4.242   3.362  0.1583 -0.2666 -0.1793
  310POPC   GL1 4024   9.262   4.524   3.850  0.1021 -0.2532 -0.4504
  310POPC   GL2 4025   9.623   4.336   3.973  0.0268  0.0164  0.0041
  310POPC   C1A 4026   9.345   5.005   4.184 -0.0040 -0.2319 -0.1039
  310POPC   D2A 4027   9.697   5.096   4.518  0.1687  0.0733  0.0148
  310POPC   C3A 4028   9.545   5.141   4.940  0.1517  0.3765 -0.3615
  310POPC   C4A 4029   9.676   4.963   5.340 -0.1139  0.1553 -0.2249
  310POPC   C1B 4030   9.746   4.109   4.397 -0.0249 -0.0658  0.0816
  310POPC   C2B 4031   9.694   3.759   4.746  0.2124 -0.3400 -0.1717
  310POPC   C3B 4032   9.499   3.593   5.131  0.2759  0.2086 -0.0806
  310POPC   C4B 4033   9.001   3.474   5.105 -0.0691  0.5927  0.0204
  311POPC   NC3 4034   3.987   9.720   2.851  0.0382  0.0077 -0.1650
  311POPC   PO4 4035   3.967   9.212   3.071 -0.3181  0.4385  0.1995
  311POPC   GL1 4036   4.081   9.029   3.455 -0.0827 -0.2916  0.2508
  311POPC   GL2 4037   4.321   9.062   3.489  0.2638  0.2562  0.0281
  311POPC   C1A 4038   3.857   8.899   3.842  0.0407 -0.1665  0.0760
  311POPC   D2A 4039   3.941   8.761   4.218 -0.2311 -0.0645 -0.1718
  311POPC   C3A 4040   3.660   9.050   4.433 -0.0777 -0.1315  0.2922
  311POPC   C4A 4041   3.705   9.366   4.646  0.1598  0.2371 -0.1243
  311POPC   C1B 4042   4.231   9.114   3.983  0.1784 -0.3812  0.2326
  311POPC   C2B 4043   4.268   9.099   4.433  0.1707 -0.1750  0.0970
  311POPC   C3B 4044   4.452   9.063   4.857  0.0817 -0.1455  0.0060
  311POPC   C4B 4045   4.247   9.165   5.290 -0.1504 -0.2074 -0.0215
  312POPC   NC3 4046   3.375  10.321   3.034  0.0648 -0.0059  0.0044
  312POPC   PO4 4047   2.950  10.441   2.915  0.1076  0.0124  0.1465
  312POPC   GL1 4048   2.971  10.443   3.350  0.1118 -0.2040  0.1534
  312POPC   GL2 4049   2.690  10.181   3.298 -0.0849 -0.0110  0.0792
  312POPC   C1A 4050   2.770  10.371   3.735  0.1891 -0.3819 -0.3397
  312POPC   D2A 4051   2.962  10.288   4.102 -0.3796 -0.1095  0.1409
  312POPC   C3A 4052   2.888  10.009   4.469  0.0070 -0.0824  0.0473
  312POPC   C4A 4053   2.844   9.834   4.943  0.0877 -0.1635  0.0342
  312POPC   C1B 4054   2.729   9.814   3.625  0.0726 -0.3012 -0.1689
  312POPC   C2B 4055   2.738   9.864   4.019  0.1616  0.0794  0.0396
  312POPC   C3B 4056   2.429   9.721   4.442 -0.0976 -0.1141  0.0629
  312POPC   C4B 4057   2.278   9.463   4.732  0.4643 -0.2140 -0.4439
  313POPC   NC3 4058   2.468   7.307   3.206 -0.0752  0.0716  0.0419
  313POPC   PO4 4059   2.348   6.846   3.314  0.0919 -0.3548 -0.0596
  313POPC   GL1 4060   2.281   6.599   3.780  0.0630 -0.1338 -0.2558
  313POPC   GL2 4061   2.528   6.672   3.905  0.1994  0.0205 -0.1859
  313POPC   C1A 4062   1.891   6.682   4.092 -0.1140  0.0360 -0.2049
  313POPC   D2A 4063   1.788   6.972   4.372  0.3746 -0.2375 -0.4691
  313POPC   C3A 4064   1.777   6.857   4.776  0.1216 -0.0434  0.1303
  313POPC   C4A 4065   1.597   6.887   5.179 -0.0874 -0.4980  0.0461
  313POPC   C1B 4066   2.915   6.555   4.235 -0.1032 -0.0774  0.0948
  313POPC   C2B 4067   3.030   6.372   4.687 -0.0421  0.1477  0.2282
  313POPC   C3B 4068   3.343   6.467   5.088 -0.2976 -0.0088 -0.1892
  313POPC   C4B 4069   3.653   6.749   5.249  0.0623 -0.1278 -0.0272
  314POPC   NC3 4070   6.283   3.933   3.334  0.2710  0.2187  0.1255
  314POPC   PO4 4071   6.591   3.556   3.574 -0.0415 -0.0261 -0.2309
  314POPC   GL1 4072   6.210   3.644   3.889  0.2826  0.1161  0.1189
  314POPC   GL2 4073   6.118   4.047   3.832  0.0048  0.1331  0.0348
  314POPC   C1A 4074   5.858   3.440   3.992  0.2025 -0.2270  0.0108
  314POPC   D2A 4075   5.622   3.544   4.359 -0.0137 -0.3094  0.0749
  314POPC   C3A 4076   5.337   3.561   4.654  0.1730  0.2493  0.1064
  314POPC   C4A 4077   4.907   3.688   4.826 -0.0710 -0.0821 -0.0970
  314POPC   C1B 4078   5.728   4.056   4.004  0.3787  0.0499 -0.0955
  314POPC   C2B 4079   5.611   4.042   4.486  0.3499  0.0126 -0.1955
  314POPC   C3B 4080   5.541   3.935   4.907 -0.0022 -0.0844 -0.0166
  314POPC   C4B 4081   5.698   4.105   5.209 -0.0771  0.3305  0.2226
  315POPC   NC3 4082  10.708   4.107   3.373  0.1498 -0.0882  0.1039
  315POPC   PO4 4083  10.853   3.766   3.079  0.0621 -0.0555  0.0463
  315POPC   GL1 4084  10.988   3.755   3.584 -0.0335 -0.2332  0.2093
  315POPC   GL2 4085  11.087   4.148   3.693 -0.2522  0.0074  0.0884
  315POPC   C1A 4086  10.830   3.617   4.003  0.2847 -0.1072  0.2222
  315POPC   D2A 4087  10.686   3.260   4.200 -0.3369  0.1860  0.3047
  315POPC   C3A 4088  10.383   3.333   4.462 -0.0915  0.1973 -0.2491
  315POPC   C4A 4089  10.226   3.660   4.751 -0.2149  0.0039 -0.1750
  315POPC   C1B 4090  11.128   4.324   4.095  0.0364 -0.1192 -0.0613
  315POPC   C2B 4091  11.317   4.482   4.505  0.1555 -0.0110 -0.3104
  315POPC   C3B 4092  11.269   4.469   4.813 -0.4140 -0.0535 -0.0589
  315POPC   C4B 4093  11.007   4.305   5.183  0.0188  0.0869 -0.2641
  316POPC   NC3 4094   8.309  10.454   3.390  0.0846 -0.1884  0.2276
  316POPC   PO4 4095   8.111  10.072   3.317  0.2517 -0.0979 -0.0076
  316POPC   GL1 4096   8.234  10.197   3.795  0.0755  0.2649 -0.0849
  316POPC   GL2 4097   8.478   9.994   3.948 -0.1731  0.1274 -0.0163
  316POPC   C1A 4098   8.025  10.376   4.021 -0.4560 -0.0878 -0.0676
  316POPC   D2A 4099   7.620  10.372   4.191 -0.2007 -0.0841  0.0865
  316POPC   C3A 4100   7.705  10.033   4.495 -0.0256 -0.3242  0.1778
  316POPC   C4A 4101   8.018   9.770   4.753  0.0658 -0.0539 -0.2288
  316POPC   C1B 4102   8.569  10.266   4.194 -0.1991  0.2277  0.4185
  316POPC   C2B 4103   8.706  10.284   4.638 -0.2252 -0.0250 -0.0590
  316POPC   C3B 4104   8.835  10.231   5.027 -0.4723  0.1970  0.0301
  316POPC   C4B 4105   8.835  10.023   5.368 -0.2600  0.1548  0.0494
  317POPC   NC3 4106   7.557   0.876   3.135 -0.0112  0.0567 -0.2740
  317POPC   PO4 4107   7.425   0.882   3.469  0.2496  0.1390 -0.0826
  317POPC   GL1 4108   7.415   0.809   3.938  0.0216 -0.2266  0.2101
  317POPC   GL2 4109   7.662   0.686   3.974 -0.1813 -0.2631  0.2850
  317POPC   C1A 4110   7.454   0.867   4.395  0.0807 -0.0663  0.2513
  317POPC   D2A 4111   7.709   0.936   4.740 -0.2036  0.0952 -0.0987
  317POPC   C3A 4112   7.520   0.720   5.071 -0.0435 -0.1746  0.0390
  317POPC   C4A 4113   7.500   0.428   5.449  0.4635 -0.0651 -0.2460
  317POPC   C1B 4114   7.972   0.659   4.354  0.1815 -0.0686  0.1427
  317POPC   C2B 4115   8.120   0.397   4.711  0.1575  0.2882  0.0866
  317POPC   C3B 4116   8.471   0.361   5.005  0.1965  0.3569  0.2705
  317POPC   C4B 4117   8.489   0.328   5.467  0.1553 -0.2585 -0.1120
  318POPC   NC3 4118   9.266   8.597   2.969 -0.1104 -0.2600  0.2201
  318POPC   PO4 4119   8.998   8.757   3.238 -0.0032 -0.0272  0.1786
  318POPC   GL1 4120   8.906   8.698   3.652  0.0618 -0.0853  0.1165
  318POPC   GL2 4121   8.684   8.836   3.811 -0.1255  0.0389 -0.3803
  318POPC   C1A 4122   9.111   8.376   4.002 -0.3591  0.1289 -0.0471
  318POPC   D2A 4123   8.989   8.010   4.120 -0.0882  0.2860 -0.0520
  318POPC   C3A 4124   9.151   7.775   4.487 -0.2937 -0.1899  0.3821
  318POPC   C4A 4125   9.132   7.473   4.751  0.0278  0.1872 -0.3322
  318POPC   C1B 4126   8.652   9.159   4.082  0.3621 -0.4098  0.0145
  318POPC   C2B 4127   8.557   9.524   4.154 -0.1864 -0.2677 -0.0255
  318POPC   C3B 4128   8.536   9.619   4.507 -0.1751  0.3407  0.0478
  318POPC   C4B 4129   8.503   9.857   4.900 -0.2144  0.1216 -0.0480
  319POPC   NC3 4130  10.139   1.386   3.286 -0.0689 -0.1004 -0.0020
  319POPC   PO4 4131  10.268   1.695   3.542 -0.2736 -0.2213  0.0562
  319POPC   GL1 4132  10.011   1.427   3.797 -0.0254  0.6885  0.2723
  319POPC   GL2 4133  10.083   1.152   3.814  0.0267 -0.0909  0.0708
  319POPC   C1A 4134  10.090   1.508   4.177 -0.2935  0.2014 -0.0395
  319POPC   D2A 4135   9.965   1.398   4.604  0.1455 -0.0145 -0.1364
  319POPC   C3A 4136   9.710   1.610   4.734  0.2059 -0.0818 -0.1827
  319POPC   C4A 4137   9.789   1.935   4.889 -0.1874 -0.1182  0.2058
  319POPC   C1B 4138  10.116   0.970   4.264  0.0710 -0.0336  0.1913
  319POPC   C2B 4139  10.194   0.950   4.641 -0.2620  0.3996 -0.0910
  319POPC   C3B 4140  10.295   1.195   4.908  0.2764 -0.5363  0.1549
  319POPC   C4B 4141  10.413   1.168   5.314 -0.1576  0.1073  0.2569
  320POPC   NC3 4142   9.029   9.742   3.402  0.1495  0.3244 -0.1639
  320POPC   PO4 4143   8.654  10.111   3.460  0.0096  0.0327 -0.0075
  320POPC   GL1 4144   8.902  10.108   3.801  0.0380  0.2597 -0.0563
  320POPC   GL2 4145   9.081  10.352   3.948  0.0750  0.0422  0.0955
  320POPC   C1A 4146   8.973   9.843   4.180 -0.0058 -0.2092  0.0418
  320POPC   D2A 4147   8.954   9.863   4.710 -0.0488 -0.3007  0.0489
  320POPC   C3A 4148   9.155   9.769   5.067  0.3120  0.1213  0.0196
  320POPC   C4A 4149   9.088   9.610   5.495 -0.2878 -0.1355 -0.0500
  320POPC   C1B 4150   9.082  10.320   4.350 -0.0280  0.1100  0.0761
  320POPC   C2B 4151   9.246  10.375   4.702  0.3095  0.2863  0.3106
  320POPC   C3B 4152   9.359  10.482   5.121  0.1075 -0.1565  0.1356
  320POPC   C4B 4153   9.652  10.442   5.456  0.0572  0.0407 -0.1313
  321POPC   NC3 4154   9.544   9.302   3.457  0.3467  0.1932 -0.0342
  321POPC   PO4 4155   9.513   8.931   3.255 -0.0179  0.0918 -0.2667
  321POPC   GL1 4156   9.360   8.883   3.701  0.3013  0.1722  0.0985
  321POPC   GL2 4157   9.624   8.866   3.822  0.3908  0.2453 -0.1731
  321POPC   C1A 4158   9.157   9.017   4.010  0.0371 -0.0506  0.1513
  321POPC   D2A 4159   8.862   8.753   4.315  0.0485 -0.3139 -0.1721
  321POPC   C3A 4160   8.665   8.989   4.627 -0.1588  0.0498  0.1639
  321POPC   C4A 4161   8.456   9.328   4.915  0.3237 -0.1737  0.0539
  321POPC   C1B 4162   9.477   8.656   4.187  0.1624  0.1004  0.1374
  321POPC   C2B 4163   9.585   8.258   4.403 -0.1009 -0.3528  0.3618
  321POPC   C3B 4164   9.615   7.917   4.197  0.0645  0.0409 -0.2773
  321POPC   C4B 4165   9.357   7.680   3.914  0.5070 -0.2452 -0.0913
  322POPC   NC3 4166   7.516  10.082   3.121  0.1142  0.0354  0.0063
  322POPC   PO4 4167   7.280  10.407   3.308  0.0892  0.1170  0.0196
  322POPC   GL1 4168   7.268  10.590   3.695  0.0668 -0.1734 -0.1928
  322POPC   GL2 4169   6.964  10.756   3.820 -0.1802  0.0866 -0.0943
  322POPC   C1A 4170   7.457  10.852   4.004 -0.1423 -0.3563  0.1646
  322POPC   D2A 4171   7.532  11.155   4.320 -0.2586 -0.0399  0.2023
  322POPC   C3A 4172   7.633  11.081   4.720  0.2600 -0.0624  0.1186
  322POPC   C4A 4173   7.431  10.868   5.047  0.2691 -0.1159  0.2039
  322POPC   C1B 4174   7.085  10.404   4.146 -0.0508  0.0475 -0.0624
  322POPC   C2B 4175   7.149  10.056   4.444 -0.0813 -0.1020 -0.0209
  322POPC   C3B 4176   6.964   9.914   4.805  0.2280  0.2443 -0.0799
  322POPC   C4B 4177   6.796   9.893   5.177  0.3063 -0.0200  0.0888
  323POPC   NC3 4178   5.350   0.573   3.887  0.0925  0.2686 -0.0804
  323POPC   PO4 4179   5.787   0.599   4.010 -0.1047  0.3009  0.1251
  323POPC   GL1 4180   5.559   0.395   4.343  0.0053  0.1594  0.0664
  323POPC   GL2 4181   5.640   0.049   4.281  0.2292 -0.2247  0.2420
  323POPC   C1A 4182   5.408   0.104   4.776  0.1443 -0.0100  0.0206
  323POPC   D2A 4183   5.116   0.067   5.172  0.0516 -0.0284  0.0489
  323POPC   C3A 4184   5.035  -0.301   5.405  0.1387 -0.0347 -0.1852
  323POPC   C4A 4185   4.975  -0.806   5.499  0.0424 -0.0008 -0.0319
  323POPC   C1B 4186   5.847  -0.011   4.604 -0.2685  0.1082 -0.1140
  323POPC   C2B 4187   6.070   0.149   4.909  0.1698  0.0670 -0.1064
  323POPC   C3B 4188   6.053   0.132   5.460 -0.4041  0.1722  0.3608
  323POPC   C4B 4189   6.164   0.111   5.815 -0.4411  0.0462  0.1291
  324POPC   NC3 4190   4.450   3.826   3.022  0.3273  0.1042 -0.0441
  324POPC   PO4 4191   4.534   4.267   3.207  0.1652  0.2832  0.2785
  324POPC   GL1 4192   4.342   4.147   3.544 -0.0773  0.1273  0.1758
  324POPC   GL2 4193   4.417   3.834   3.520 -0.0059  0.1305  0.2493
  324POPC   C1A 4194   4.200   4.002   3.972 -0.0942  0.0639 -0.1215
  324POPC   D2A 4195   4.039   3.754   4.415 -0.3278  0.0120  0.3120
  324POPC   C3A 4196   4.113   3.828   4.854  0.0276  0.1419  0.2255
  324POPC   C4A 4197   4.478   3.567   5.108 -0.3120  0.2335  0.0088
  324POPC   C1B 4198   4.395   3.512   3.891 -0.0405  0.1293 -0.0708
  324POPC   C2B 4199   4.718   3.325   4.188  0.4604 -0.1647  0.1014
  324POPC   C3B 4200   4.925   3.208   4.585  0.4206  0.1070  0.0082
  324POPC   C4B 4201   4.884   3.235   5.037  0.1653 -0.0133  0.1275
  325POPC   NC3 4202   6.416   6.404   2.838 -0.1845 -0.2501 -0.1043
  325POPC   PO4 4203   6.178   6.458   3.222 -0.1692 -0.0242  0.1229
  325POPC   GL1 4204   6.139   6.429   3.623  0.0858 -0.0660 -0.1444
  325POPC   GL2 4205   6.382   6.691   3.730 -0.0310 -0.1292 -0.1763
  325POPC   C1A 4206   5.898   6.597   3.937  0.0615  0.2724 -0.1489
  325POPC   D2A 4207   5.624   6.705   4.383  0.0413 -0.0525 -0.1835
  325POPC   C3A 4208   5.679   7.076   4.627 -0.0779 -0.0741  0.0765
  325POPC   C4A 4209   5.673   7.394   5.022 -0.4043  0.2454 -0.1868
  325POPC   C1B 4210   6.290   6.757   4.193  0.0273  0.1861 -0.1015
  325POPC   C2B 4211   6.134   6.852   4.506 -0.0487  0.0019 -0.1608
  325POPC   C3B 4212   6.179   6.617   4.904 -0.0871 -0.1999 -0.0611
  325POPC   C4B 4213   6.085   6.388   5.219 -0.1683  0.2285 -0.0137
  326POPC   NC3 4214   5.105   4.977   2.764 -0.0921  0.3454 -0.0618
  326POPC   PO4 4215   5.204   4.709   3.098  0.1023  0.1714  0.0390
  326POPC   GL1 4216   5.220   4.704   3.596  0.3796  0.2077 -0.1139
  326POPC   GL2 4217   4.925   4.955   3.713 -0.1646 -0.1143  0.0264
  326POPC   C1A 4218   5.091   4.503   4.089  0.2263  0.1781 -0.0366
  326POPC   D2A 4219   4.744   4.237   4.049 -0.0867 -0.0221 -0.0216
  326POPC   C3A 4220   4.433   4.319   4.286 -0.0539  0.1218  0.0249
  326POPC   C4A 4221   4.072   4.284   4.521 -0.1517 -0.0542 -0.1078
  326POPC   C1B 4222   4.816   4.925   4.182 -0.1145  0.0341  0.0811
  326POPC   C2B 4223   4.688   4.962   4.497  0.2969  0.3079 -0.2820
  326POPC   C3B 4224   4.783   4.948   4.947  0.0626  0.0818 -0.0884
  326POPC   C4B 4225   5.042   5.015   5.257  0.0767 -0.2158 -0.1285
  327POPC   NC3 4226   8.877   2.838   3.075 -0.1549 -0.3263  0.2532
  327POPC   PO4 4227   9.321   2.987   2.974  0.1692 -0.0955  0.2237
  327POPC   GL1 4228   9.312   3.073   3.434  0.0126 -0.0090  0.0164
  327POPC   GL2 4229   9.145   3.314   3.681  0.2852  0.4439 -0.0182
  327POPC   C1A 4230   9.218   2.822   3.751 -0.2688  0.2827 -0.1379
  327POPC   D2A 4231   9.180   2.553   4.030 -0.4107 -0.0374  0.3256
  327POPC   C3A 4232   9.071   2.712   4.447 -0.2255  0.0539 -0.0007
  327POPC   C4A 4233   9.048   3.027   4.741 -0.1648  0.0947 -0.0290
  327POPC   C1B 4234   8.951   3.075   4.032  0.0427 -0.0435  0.0954
  327POPC   C2B 4235   8.672   2.959   4.323  0.2978 -0.5876  0.2661
  327POPC   C3B 4236   8.617   2.643   4.643 -0.2091  0.4324 -0.2650
  327POPC   C4B 4237   8.891   2.430   4.847  0.2046 -0.1791 -0.1588
  328POPC   NC3 4238   5.917  10.298   3.868  0.0503 -0.2544  0.0677
  328POPC   PO4 4239   6.306  10.320   3.646 -0.0730  0.0029  0.2291
  328POPC   GL1 4240   6.431  10.350   4.001  0.2818 -0.2059  0.1843
  328POPC   GL2 4241   6.551  10.632   4.119  0.1913  0.1242 -0.2334
  328POPC   C1A 4242   6.545  10.178   4.424  0.0185 -0.0094 -0.0072
  328POPC   D2A 4243   6.557  10.237   4.929  0.0154 -0.2066 -0.1944
  328POPC   C3A 4244   6.259   9.994   5.130 -0.0246  0.3668 -0.0125
  328POPC   C4A 4245   5.887  10.022   5.355 -0.0414  0.1015 -0.0264
  328POPC   C1B 4246   6.399  10.802   4.584 -0.2355  0.0324  0.2099
  328POPC   C2B 4247   6.553  10.743   5.033  0.0149 -0.1015 -0.0808
  328POPC   C3B 4248   6.975  10.528   5.162  0.2057  0.2230  0.0629
  328POPC   C4B 4249   7.210  10.210   5.426 -0.1984 -0.2050  0.1700
  329POPC   NC3 4250   2.584   2.824   3.317  0.0757  0.1895 -0.1609
  329POPC   PO4 4251   3.027   2.750   3.425 -0.2681 -0.1680 -0.0711
  329POPC   GL1 4252   2.863   2.721   3.790  0.0359  0.2858 -0.1175
  329POPC   GL2 4253   2.558   2.785   3.833 -0.2676  0.0934  0.2583
  329POPC   C1A 4254   2.794   2.832   4.264 -0.1642  0.2512 -0.3490
  329POPC   D2A 4255   2.766   2.738   4.729  0.3473  0.0271  0.1018
  329POPC   C3A 4256   3.077   2.677   4.958 -0.2860 -0.0470  0.1176
  329POPC   C4A 4257   3.386   3.036   5.115  0.0253  0.1973  0.2019
  329POPC   C1B 4258   2.332   2.975   4.179 -0.2197 -0.0505  0.0172
  329POPC   C2B 4259   2.308   3.232   4.447  0.0046 -0.1259 -0.1557
  329POPC   C3B 4260   2.286   3.493   4.851 -0.2991  0.1031 -0.3888
  329POPC   C4B 4261   2.301   3.762   5.146  0.3104  0.1002  0.0380
  330POPC   NC3 4262   5.866   2.938   3.212 -0.1135  0.2550  0.0111
  330POPC   PO4 4263   6.147   2.812   3.514  0.3693 -0.3133  0.3150
  330POPC   GL1 4264   6.065   2.961   3.859  0.0766 -0.2440  0.1985
  330POPC   GL2 4265   5.734   2.957   4.052  0.3355 -0.3996  0.2064
  330POPC   C1A 4266   6.324   3.103   4.140  0.1264 -0.1199  0.1110
  330POPC   D2A 4267   6.519   3.070   4.525  0.0046 -0.0261  0.0768
  330POPC   C3A 4268   6.231   3.226   4.886 -0.0781  0.1298  0.1871
  330POPC   C4A 4269   5.882   3.068   5.300 -0.0812  0.0903  0.0396
  330POPC   C1B 4270   5.923   3.109   4.433  0.1374 -0.2305  0.3421
  330POPC   C2B 4271   5.731   3.239   4.756 -0.2664 -0.0758 -0.2383
  330POPC   C3B 4272   5.540   3.390   5.112  0.0318  0.2244 -0.0262
  330POPC   C4B 4273   5.189   3.494   5.445 -0.0569 -0.2484 -0.1425
  331POPC   NC3 4274   6.264   9.903   3.861  0.3009 -0.4029 -0.0737
  331POPC   PO4 4275   6.461   9.553   3.808  0.5220 -0.0327 -0.0676
  331POPC   GL1 4276   6.179   9.241   4.101 -0.0010  0.3377 -0.2095
  331POPC   GL2 4277   5.842   9.109   3.862  0.0065  0.0187  0.0494
  331POPC   C1A 4278   6.140   9.185   4.478 -0.2171  0.0673  0.0015
  331POPC   D2A 4279   5.880   8.850   4.775  0.0800 -0.0567  0.0718
  331POPC   C3A 4280   5.520   8.995   5.040 -0.2144 -0.2547 -0.0370
  331POPC   C4A 4281   5.284   9.160   5.393  0.0043  0.2367  0.0473
  331POPC   C1B 4282   5.748   9.408   4.189  0.1497  0.0759  0.2472
  331POPC   C2B 4283   5.652   9.396   4.730  0.0757  0.1624  0.1520
  331POPC   C3B 4284   5.207   9.385   4.844 -0.2110  0.1044  0.1964
  331POPC   C4B 4285   5.063   9.046   4.974 -0.2160 -0.0957  0.0720
  332POPC   NC3 4286   8.089   0.858   3.617 -0.1661 -0.0993 -0.0563
  332POPC   PO4 4287   8.376   0.459   3.501  0.0273 -0.4168  0.1220
  332POPC   GL1 4288   8.271   0.537   3.951  0.3449 -0.1808 -0.3656
  332POPC   GL2 4289   8.298   0.932   4.061  0.0299  0.1453 -0.1825
  332POPC   C1A 4290   8.435   0.428   4.301  0.0788 -0.2461  0.3339
  332POPC   D2A 4291   8.787   0.503   4.458 -0.0907  0.0993  0.0169
  332POPC   C3A 4292   8.893   0.534   4.948  0.0065 -0.0449  0.4730
  332POPC   C4A 4293   8.688   0.721   5.253 -0.0922 -0.0544  0.1103
  332POPC   C1B 4294   8.441   0.970   4.415 -0.0278  0.0339  0.0261
  332POPC   C2B 4295   8.519   0.913   4.804 -0.1127  0.3232  0.0415
  332POPC   C3B 4296   8.156   0.778   5.092  0.0397  0.3006  0.0261
  332POPC   C4B 4297   8.232   0.741   5.514  0.1525  0.3160 -0.1557
  333POPC   NC3 4298   8.677   1.362   3.446 -0.0223  0.2662 -0.2981
  333POPC   PO4 4299   8.234   1.301   3.630  0.1360  0.1602 -0.0633
  333POPC   GL1 4300   8.507   1.495   3.926  0.1102 -0.0217 -0.1737
  333POPC   GL2 4301   8.706   1.241   4.052 -0.1723 -0.0173 -0.0968
  333POPC   C1A 4302   8.388   1.468   4.441  0.2720 -0.3954 -0.2063
  333POPC   D2A 4303   8.595   1.544   4.911 -0.1285  0.4118  0.0460
  333POPC   C3A 4304   8.743   1.890   5.088  0.2367 -0.2848 -0.0314
  333POPC   C4A 4305   8.929   2.079   5.403 -0.2328  0.0380  0.0488
  333POPC   C1B 4306   8.821   1.362   4.507  0.0872  0.0759  0.1656
  333POPC   C2B 4307   8.936   1.133   4.961 -0.0358 -0.1594  0.1165
  333POPC   C3B 4308   9.143   0.958   5.342  0.1650  0.0391  0.3744
  333POPC   C4B 4309   9.158   1.056   5.738  0.0756 -0.2967 -0.2103
  334POPC   NC3 4310   7.835   4.218   3.447  0.1008 -0.1509 -0.2348
  334POPC   PO4 4311   8.019   3.950   3.736 -0.0459 -0.0035 -0.4896
  334POPC   GL1 4312   8.230   3.771   4.083 -0.1795 -0.1317  0.1459
  334POPC   GL2 4313   8.151   4.014   4.268 -0.1168  0.3196  0.1733
  334POPC   C1A 4314   8.338   3.502   4.494  0.0391  0.0073 -0.0442
  334POPC   D2A 4315   8.595   3.269   4.812  0.0285  0.2152  0.0512
  334POPC   C3A 4316   8.319   2.913   5.078 -0.1609  0.0753  0.0192
  334POPC   C4A 4317   7.970   2.656   5.146 -0.3334 -0.0148 -0.1859
  334POPC   C1B 4318   8.238   4.105   4.728 -0.1101 -0.2860 -0.0337
  334POPC   C2B 4319   8.220   4.036   5.128  0.2201  0.1744 -0.0337
  334POPC   C3B 4320   7.839   4.037   5.459  0.0138  0.1295  0.3946
  334POPC   C4B 4321   7.823   3.843   5.804 -0.0345 -0.3479 -0.0305
  335POPC   NC3 4322  10.696   9.342   3.640 -0.1006  0.0063  0.2095
  335POPC   PO4 4323  10.460   8.979   3.626  0.2888 -0.0186  0.0497
  335POPC   GL1 4324  10.336   9.042   3.937  0.0414  0.0005 -0.1779
  335POPC   GL2 4325  10.451   9.183   4.209  0.1732 -0.3104 -0.2032
  335POPC   C1A 4326  10.033   8.896   4.291  0.3002 -0.1956 -0.2580
  335POPC   D2A 4327   9.776   8.951   4.658  0.2366 -0.4105  0.0234
  335POPC   C3A 4328   9.492   8.545   4.771 -0.2235  0.1865  0.2247
  335POPC   C4A 4329   9.125   8.414   4.536 -0.2397 -0.0966 -0.1641
  335POPC   C1B 4330  10.151   9.350   4.490  0.1516  0.1729 -0.2259
  335POPC   C2B 4331   9.853   9.408   4.837  0.4020  0.0599 -0.0243
  335POPC   C3B 4332   9.591   9.514   5.231  0.0612  0.0962  0.0211
  335POPC   C4B 4333   9.537   9.399   5.710 -0.2180 -0.3817 -0.0504
  336POPC   NC3 4334   7.700   8.299   3.275  0.0783  0.1708 -0.0953
  336POPC   PO4 4335   7.417   8.699   3.340 -0.1399 -0.2955 -0.0370
  336POPC   GL1 4336   7.612   8.782   3.658 -0.2859  0.0692 -0.2450
  336POPC   GL2 4337   7.658   9.185   3.749 -0.0816 -0.2115 -0.0191
  336POPC   C1A 4338   7.646   8.606   4.064  0.1993 -0.0705  0.1918
  336POPC   D2A 4339   7.530   8.306   4.442 -0.1957  0.0343 -0.0722
  336POPC   C3A 4340   7.353   8.517   4.840 -0.0544  0.2291  0.0801
  336POPC   C4A 4341   7.384   8.494   5.265 -0.2853 -0.0659 -0.0701
  336POPC   C1B 4342   7.690   9.058   4.195 -0.2204 -0.2207 -0.1830
  336POPC   C2B 4343   7.706   8.808   4.505  0.1467  0.3151 -0.1371
  336POPC   C3B 4344   7.891   8.436   4.833 -0.0152  0.1828  0.2867
  336POPC   C4B 4345   7.880   8.285   5.260 -0.0939  0.1009  0.2904
  337POPC   NC3 4346   5.162  10.093   3.524  0.0019  0.1142  0.1682
  337POPC   PO4 4347   5.597   9.921   3.666  0.0547  0.3591 -0.2983
  337POPC   GL1 4348   5.730   9.904   4.093 -0.1120  0.1714 -0.1342
  337POPC   GL2 4349   6.064   9.811   4.306  0.3137  0.0742  0.2210
  337POPC   C1A 4350   5.559   9.853   4.409  0.1917 -0.1254 -0.1058
  337POPC   D2A 4351   5.531   9.858   4.863 -0.1291  0.1250  0.1583
  337POPC   C3A 4352   5.412   9.734   5.305 -0.2277 -0.1451  0.0176
  337POPC   C4A 4353   5.435  10.021   5.672  0.1691 -0.0645 -0.1808
  337POPC   C1B 4354   6.061   9.703   4.746  0.1463  0.0239 -0.0524
  337POPC   C2B 4355   5.827   9.535   5.176  0.1473  0.0066 -0.1050
  337POPC   C3B 4356   5.738   9.271   5.550 -0.2650 -0.2123 -0.4995
  337POPC   C4B 4357   5.838   9.154   5.923  0.0159  0.2899  0.0051
  338POPC   NC3 4358   7.908   1.795   3.477  0.1557  0.0514  0.1346
  338POPC   PO4 4359   7.580   1.717   3.713  0.0154  0.1404  0.2872
  338POPC   GL1 4360   7.470   1.601   4.080 -0.1253  0.0152  0.2360
  338POPC   GL2 4361   7.469   1.335   4.214 -0.3851  0.0236  0.0956
  338POPC   C1A 4362   7.403   1.879   4.456 -0.0107 -0.1863  0.0746
  338POPC   D2A 4363   7.510   1.790   5.024 -0.1044  0.0314 -0.4656
  338POPC   C3A 4364   7.480   1.976   5.437  0.1630 -0.2682  0.0309
  338POPC   C4A 4365   7.720   1.944   5.766 -0.2382 -0.3828  0.1062
  338POPC   C1B 4366   7.918   1.192   4.297 -0.1360  0.0580  0.0017
  338POPC   C2B 4367   8.142   1.174   4.793  0.3073  0.0814  0.2739
  338POPC   C3B 4368   8.359   1.254   5.264 -0.0487 -0.0557 -0.0066
  338POPC   C4B 4369   8.757   1.260   5.481  0.0381 -0.0413  0.0412
  339POPC   NC3 4370   3.755   4.867   3.011 -0.2080  0.3558  0.1409
  339POPC   PO4 4371   4.062   5.161   3.073 -0.2129 -0.0041 -0.2343
  339POPC   GL1 4372   3.821   5.071   3.439 -0.0658 -0.4675 -0.1944
  339POPC   GL2 4373   3.995   5.255   3.618  0.0201  0.0636  0.0482
  339POPC   C1A 4374   3.636   4.737   3.686  0.0471  0.0258 -0.0228
  339POPC   D2A 4375   3.215   4.560   3.845 -0.1700  0.1938  0.0049
  339POPC   C3A 4376   3.212   4.309   4.252  0.1348 -0.0568  0.2839
  339POPC   C4A 4377   3.177   4.017   4.574 -0.2157  0.0499  0.1785
  339POPC   C1B 4378   4.022   5.544   3.985 -0.4091  0.1007  0.0763
  339POPC   C2B 4379   4.140   5.700   4.550  0.1798 -0.2175  0.0061
  339POPC   C3B 4380   4.207   5.819   4.988  0.0228  0.1236  0.1336
  339POPC   C4B 4381   4.045   5.823   5.382  0.3623  0.2754  0.4969
  340POPC   NC3 4382   7.781   7.607   2.701 -0.2025  0.1022 -0.0173
  340POPC   PO4 4383   7.773   7.825   3.148 -0.0162  0.0862  0.0307
  340POPC   GL1 4384   7.408   7.772   3.456 -0.0360  0.0801 -0.1771
  340POPC   GL2 4385   7.438   8.055   3.633  0.0396  0.1707  0.1164
  340POPC   C1A 4386   7.361   7.677   3.934 -0.2642  0.2328 -0.0833
  340POPC   D2A 4387   7.376   7.526   4.409  0.2662  0.0496  0.1764
  340POPC   C3A 4388   7.492   7.836   4.572 -0.0063  0.0254 -0.1745
  340POPC   C4A 4389   7.580   8.076   4.966  0.1225  0.2859 -0.0288
  340POPC   C1B 4390   7.312   8.269   4.013  0.1127 -0.1538  0.0549
  340POPC   C2B 4391   7.057   8.251   4.418  0.3864 -0.0305  0.2759
  340POPC   C3B 4392   7.075   8.024   4.819 -0.4078  0.0719 -0.2344
  340POPC   C4B 4393   7.001   8.216   5.179  0.1380  0.1088  0.2044
  341POPC   NC3 4394   8.557   4.063   3.652  0.0534  0.0903  0.1934
  341POPC   PO4 4395   8.281   4.386   3.468  0.2755 -0.1462 -0.0616
  341POPC   GL1 4396   8.245   4.420   3.873  0.0237  0.2278 -0.4178
  341POPC   GL2 4397   7.946   4.352   3.985 -0.2381  0.1082 -0.2773
  341POPC   C1A 4398   8.499   4.418   4.333  0.0406  0.0653 -0.0379
  341POPC   D2A 4399   8.454   4.538   4.795 -0.2169 -0.3684  0.1249
  341POPC   C3A 4400   8.712   4.204   5.094  0.2173  0.0120  0.3301
  341POPC   C4A 4401   9.012   4.168   5.369 -0.0681 -0.0339 -0.0718
  341POPC   C1B 4402   8.009   4.462   4.466 -0.1058 -0.3104  0.2391
  341POPC   C2B 4403   7.954   4.541   4.812 -0.1988 -0.0484  0.2350
  341POPC   C3B 4404   7.902   4.536   5.206  0.0042  0.1633 -0.2888
  341POPC   C4B 4405   7.793   4.733   5.585  0.0612  0.0676  0.0417
  342W        W 4406   9.744   9.725   9.596 -0.0899 -0.0323  0.2235
  343W        W 4407   0.762   4.604   9.743  0.1610 -0.0462 -0.1593
  344W        W 4408   3.606   3.532   2.375  0.1734  0.2649  0.0960
  345W        W 4409   2.827   7.986   9.927 -0.1346  0.0544 -0.1556
  346W        W 4410   7.991  10.361   8.291 -0.0300  0.1759 -0.0446
  347W        W 4411   6.701   4.634  10.083  0.4270 -0.0991 -0.2130
  348W        W 4412   4.272   0.356   8.594 -0.0782 -0.2146 -0.1396
  349W        W 4413   4.164   8.624   2.346  0.1226  0.0935 -0.0552
  350W        W 4414  10.180   7.703   2.940 -0.0777 -0.4992  0.0154
  351W        W 4415   4.391   7.335   1.713  0.1453 -0.5269 -0.0416
  352W        W 4416   3.157   8.023   8.650  0.4819  0.2130  0.0927
  353W        W 4417   0.283   7.882   1.091  0.0426 -0.1031  0.3685
  354W        W 4418   4.950   9.353  10.203  0.2974 -0.0851  0.1650
  355W        W 4419   6.715   7.509  10.998  0.0625 -0.2032  0.3021
  356W        W 4420   2.187   9.303   7.020  0.3608  0.1365  0.1745
  357W        W 4421   0.822   7.907   0.845  0.1863  0.1247 -0.0785
  358W        W 4422   9.258   4.373   1.299 -0.0625 -0.0374 -0.0934
  359W        W 4423   8.520   5.350   1.397  0.1292 -0.3173 -0.2445
  360W        W 4424   0.909   2.991   1.204  0.0656 -0.0096 -0.3522
  361W        W 4425   0.056  10.681   1.309  0.2680 -0.1594 -0.2635
  362W        W 4426   8.989   2.397   1.573 -0.1735  0.0599 -0.0846
  363W        W 4427   0.857   4.724  10.823 -0.0449 -0.1664 -0.1249
  364W        W 4428   7.066   4.219   7.921  0.2735  0.0859  0.1226
  365W        W 4429   8.919   6.151  10.671  0.0866  0.2176  0.3678
  366W        W 4430   7.943   3.484   1.158 -0.0196  0.3496 -0.0834
  367W        W 4431   6.882   8.897   7.574  0.0241 -0.0409 -0.0818
  368W        W 4432   4.303   7.936   7.861  0.1255  0.0682  0.0997
  369W        W 4433   3.319   1.266   0.810  0.0737 -0.0876  0.3648
  370W        W 4434   0.434   5.630   3.032 -0.1237 -0.0155 -0.1927
  371W        W 4435   9.974  10.062   2.113  0.0721  0.0423  0.0831
  372W        W 4436   9.368   6.424   1.278  0.0303 -0.2891  0.0278
  373W        W 4437   6.420   4.068   7.477  0.3316 -0.0683  0.1401
  374W        W 4438   4.371   0.235   2.819  0.2384  0.0551  0.1695
  375W        W 4439   5.680   0.654   8.231 -0.1062 -0.0364 -0.2730
  376W        W 4440   1.862   8.243   0.104  0.0033 -0.1512 -0.0661
  377W        W 4441  10.264   5.626  10.065 -0.0699 -0.1604  0.0447
  378W        W 4442   3.076   6.274   2.062  0.1938  0.1346 -0.0707
  379W        W 4443   0.827   4.830   2.913 -0.3634  0.4497  0.2563
  380W        W 4444   0.965   4.389  10.483  0.3288  0.1054 -0.2214
  381W        W 4445   3.555   2.011   9.578 -0.2893  0.0062  0.1096
  382W        W 4446   7.099   1.108   2.965 -0.1305  0.0884 -0.1677
  383W        W 4447   9.395   1.780   2.093 -0.0979 -0.0572 -0.1343
  384W        W 4448   4.613   8.286   9.676 -0.0758  0.0696  0.0580
  385W        W 4449   8.727   5.828   1.230  0.2135  0.0298 -0.1745
  386W        W 4450   1.908   7.089   9.355  0.0115  0.0430  0.1088
  387W        W 4451   5.643   0.385  11.213 -0.1561  0.3786  0.0724
  388W        W 4452   9.327   8.267  10.063  0.1579  0.0972  0.2143
  389W        W 4453   8.447   7.882   8.833 -0.3797  0.0900 -0.2233
  390W        W 4454   6.879   2.799  10.197 -0.2499 -0.1405 -0.3244
  391W        W 4455   4.491   1.903   9.270 -0.0954  0.2959  0.1315
  392W        W 4456   1.437   0.962  11.226  0.0172  0.0600 -0.0357
  393W        W 4457   6.506   3.594   9.877  0.1736 -0.2381 -0.1068
  394W        W 4458   3.534   5.404   1.739 -0.0294 -0.0988  0.1133
  395W        W 4459   0.491   2.693   1.277 -0.0404 -0.1010 -0.2466
  396W        W 4460   6.210   8.160   7.541 -0.4316 -0.0629 -0.1091
  397W        W 4461   8.235   1.011   0.138  0.0956 -0.1103  0.1240
  398W        W 4462   3.475   4.858   9.202 -0.1641  0.0711 -0.0272
  399W        W 4463   3.985   3.162   1.150  0.4317 -0.1588  0.1484
  400W        W 4464   0.679   6.667   0.867 -0.0839  0.0846 -0.0646
  401W        W 4465   7.348   1.312   1.428 -0.1884 -0.1532 -0.1367
  402W        W 4466   5.710   4.279  10.819 -0.2151 -0.2731  0.0583
  403W        W 4467   3.009   1.754   8.515  0.2295  0.3828  0.0365
  404W        W 4468   9.810   8.339   1.092 -0.1020  0.0030 -0.0371
  405W        W 4469   4.599   2.923  10.263  0.1116 -0.2020  0.2676
  406W        W 4470   4.783   9.499   1.159  0.0476  0.0702 -0.0403
  407W        W 4471   8.135   5.456  11.056 -0.0311 -0.1086 -0.4445
  408W        W 4472   1.283   3.569   7.990 -0.2402 -0.0842  0.3047
  409W        W 4473   1.388   2.743   9.777  0.0193 -0.0023  0.2530
  410W        W 4474   1.020   7.484   1.719  0.2361  0.2594 -0.1298
  411W        W 4475  10.308   6.873   1.400 -0.0952 -0.3457 -0.1694
  412W        W 4476   4.688   7.811  10.912 -0.2616  0.0588  0.3238
  413W        W 4477   9.929   6.938   3.416 -0.1154  0.1167  0.1922
  414W        W 4478  10.491   8.815   8.770  0.0577 -0.1165  0.0998
  415W        W 4479   5.111   4.205   1.245  0.2984 -0.1351 -0.3307
  416W        W 4480   8.934   8.873   1.209 -0.2755  0.2497 -0.2667
  417W        W 4481   9.203   6.270   9.324 -0.1367  0.1710 -0.2289
  418W        W 4482   4.202   2.320   2.364  0.1685  0.1195 -0.0920
  419W        W 4483   9.812  10.437   2.378  0.4290  0.2789 -0.0271
  420W        W 4484   0.620   4.202   8.968  0.1191  0.3300 -0.0875
  421W        W 4485   4.519   4.187   1.128 -0.1613  0.0005  0.0541
  422W        W 4486  10.339   8.170   1.809  0.0358 -0.0968  0.0426
  423W        W 4487  10.056   4.757   0.982  0.0873 -0.1102  0.1131
  424W        W 4488   9.870   4.890  10.391 -0.4422  0.0091 -0.0862
  425W        W 4489   6.902   1.042  10.125  0.2243 -0.0870  0.1363
  426W        W 4490   1.794   7.280   2.727 -0.0512 -0.1714 -0.1384
  427W        W 4491   2.731   4.928  10.746  0.3582  0.2442 -0.3122
  428W        W 4492   2.447   2.659   7.527  0.1510 -0.2989  0.1092
  429W        W 4493   7.352   7.150   8.730 -0.0500  0.0496  0.0488
  430W        W 4494   6.326   4.018  10.901  0.1261 -0.0696 -0.2078
  431W        W 4495   2.970   0.866   0.954  0.2166 -0.0542  0.2629
  432W        W 4496   6.228   3.516   8.637  0.0185  0.2897 -0.0736
  433W        W 4497   6.306   3.216   2.093 -0.0883  0.0425  0.1955
  434W        W 4498   8.115   8.787   6.826  0.0453 -0.3641 -0.0996
  435W        W 4499  10.332   1.638   1.863 -0.2419  0.3916  0.3033
  436W        W 4500   1.771   3.065   2.787  0.2897 -0.0300 -0.0718
  437W        W 4501   7.621   1.931  10.457 -0.1066 -0.0310 -0.0225
  438W        W 4502   9.053   5.215   3.087  0.0771  0.0656 -0.2184
  439W        W 4503   9.830   7.749   8.289 -0.1286  0.2062 -0.3978
  440W        W 4504   3.540   3.905   1.035 -0.2068  0.1582  0.0490
  441W        W 4505   8.429   1.950   2.915 -0.3800  0.0690 -0.1218
  442W        W 4506   0.120  10.735   7.404  0.0240 -0.0263 -0.0190
  443W        W 4507   9.620   5.349   8.313  0.0517  0.0920  0.2707
  444W        W 4508   0.355   5.217   1.724  0.1377  0.0861  0.3407
  445W        W 4509   8.754   9.047   1.638 -0.1785 -0.0264 -0.2761
  446W        W 4510   6.872   5.937   1.509 -0.0817 -0.2520 -0.3256
  447W        W 4511   4.555   9.219   9.942  0.0261  0.1890 -0.0075
  448W        W 4512   6.167   1.890  10.932 -0.1264  0.0933 -0.2644
  449W        W 4513   8.549   6.615   1.404  0.1459  0.1727 -0.1207
  450W        W 4514   0.180  10.379   1.717  0.0015  0.1831  0.1495
  451W        W 4515   2.645   6.693   8.527  0.3225 -0.0854  0.0842
  452W        W 4516   4.702   1.729  10.129 -0.0395  0.2492  0.1344
  453W        W 4517   8.300   1.490   3.134  0.1266 -0.2616 -0.3552
  454W        W 4518  10.055   4.866  10.962  0.0097  0.2174 -0.2799
  455W        W 4519   5.885   7.175   2.269  0.0482 -0.3266  0.0157
  456W        W 4520   8.357   1.945   2.098  0.1997 -0.4152  0.1563
  457W        W 4521  10.318   2.805  10.762  0.2584 -0.3113 -0.0473
  458W        W 4522   1.101   6.181   9.137  0.0729  0.1961 -0.2024
  459W        W 4523   4.118   1.693   0.152 -0.0970 -0.0731  0.0784
  460W        W 4524   0.772   3.397   7.989  0.2685  0.1322 -0.1077
  461W        W 4525   7.503   6.861   1.365 -0.2178  0.3331 -0.2335
  462W        W 4526   5.732   4.749  10.968  0.0114  0.0991 -0.3187
  463W        W 4527   0.099   4.838   2.059  0.0508  0.1573 -0.0181
  464W        W 4528   5.556   9.301   8.914 -0.0494  0.1506 -0.1602
  465W        W 4529   5.294   6.450   7.818  0.2168  0.0500 -0.1168
  466W        W 4530   9.415   2.856  11.072  0.0702  0.1848 -0.0129
  467W        W 4531   1.418   1.204   9.220 -0.1170 -0.1210 -0.0184
  468W        W 4532   8.279   5.738   3.102  0.3374 -0.1402 -0.1122
  469W        W 4533  10.328   3.366   3.028  0.2570 -0.0371  0.0780
  470W        W 4534   6.543   6.123   2.037 -0.1666  0.2245 -0.0605
  471W        W 4535   6.621   1.616   0.719 -0.0233  0.0495 -0.0190
  472W        W 4536   1.547   8.586   1.731  0.0824 -0.2461  0.0184
  473W        W 4537   1.356   3.803   1.301 -0.5187 -0.1104  0.1085
  474W        W 4538   3.735   3.504   7.610  0.1072  0.1552  0.1630
  475W        W 4539   8.385   4.772   9.875 -0.2353  0.0110 -0.0276
  476W        W 4540   9.571   1.666   1.385  0.1355 -0.0268 -0.4045
  477W        W 4541   3.394   6.001   8.822 -0.2630  0.0015  0.1739
  478W        W 4542   7.074   2.686  10.766 -0.1827 -0.2903 -0.0115
  479W        W 4543   5.108  10.725   8.656  0.2919 -0.3840  0.2153
  480W        W 4544   5.528   3.867  10.669  0.1445  0.0109  0.2130
  481W        W 4545   8.067   9.458   2.252  0.0494 -0.2672  0.0152
  482W        W 4546   5.754   2.532   8.821 -0.0602 -0.0062 -0.0669
  483W        W 4547   8.373   5.510   8.344 -0.0446  0.4820  0.1073
  484W        W 4548   1.047   4.066   1.856 -0.1638 -0.0901 -0.1393
  485W        W 4549   4.321   5.878   9.817  0.2677  0.0307  0.3634
  486W        W 4550   0.098   4.357   8.273  0.0101  0.1058  0.0788
  487W        W 4551   2.513  10.473   8.731 -0.0093 -0.0000 -0.0149
  488W        W 4552   1.261   3.127   2.136 -0.0839 -0.1758  0.3110
  489W        W 4553   2.245   1.394   0.066  0.5459 -0.3061  0.0151
  490W        W 4554   2.468   8.759   9.188  0.0755  0.1049 -0.2065
  491W        W 4555   6.345   5.379   7.151  0.2627  0.1665 -0.0651
  492W        W 4556   3.634   6.554   8.715  0.0449 -0.3165  0.1238
  493W        W 4557   2.664   8.035   9.455  0.1418 -0.0612 -0.0741
  494W        W 4558   5.799   1.739   8.219  0.1550  0.0741  0.0029
  495W        W 4559   5.571   1.795   8.662  0.2237  0.3287 -0.0330
  496W        W 4560   2.512   1.583   8.479  0.0189 -0.2686 -0.0414
  497W        W 4561   6.064   4.272   0.398 -0.2934  0.2091 -0.1104
  498W        W 4562   0.820   2.783   9.684 -0.0634 -0.0095  0.0604
  499W        W 4563   9.837   3.109   1.123  0.2366 -0.2525 -0.2459
  500W        W 4564   3.311   8.175   1.637  0.1819 -0.1637 -0.1668
  501W        W 4565   2.531   7.041   9.554  0.0807 -0.0210  0.1188
  502W        W 4566   0.049   3.905   0.668  0.0641  0.0996 -0.2401
  503W        W 4567   1.478   2.816   8.365 -0.2580  0.0973 -0.0961
  504W        W 4568   3.623   6.432   7.441 -0.1984  0.2846  0.0285
  505W        W 4569   6.734   4.640   0.886  0.2662 -0.1270 -0.3125
  506W        W 4570   3.849   4.405   0.012  0.1830  0.0084 -0.1116
  507W        W 4571   3.336   1.300   9.890 -0.2128 -0.0137 -0.0020
  508W        W 4572   9.176   1.879   1.142  0.0673  0.2314 -0.0933
  509W        W 4573   8.806   7.639   2.894  0.0745 -0.4107 -0.0876
  510W        W 4574   6.520   3.736   8.989  0.1349  0.1501  0.1145
  511W        W 4575   1.284   5.976  11.089  0.0451 -0.2505  0.0989
  512W        W 4576   4.194   3.476   9.442  0.2372  0.0178 -0.1877
  513W        W 4577   7.623   7.907   9.346  0.1516  0.0598 -0.0590
  514W        W 4578   2.946   4.733   1.427  0.0217 -0.1612  0.0522
  515W        W 4579   1.327   8.517   8.272 -0.1065 -0.2328  0.0365
  516W        W 4580   2.005   9.912  10.969 -0.0703  0.2146 -0.0132
  517W        W 4581   7.950   7.714   8.948 -0.0606 -0.0793 -0.0362
  518W        W 4582   5.354   9.464   2.412 -0.3963 -0.3187  0.0149
  519W        W 4583   5.889   7.634   0.450  0.2224 -0.0774  0.0002
  520W        W 4584   7.948   2.885   8.689  0.1113 -0.0571 -0.1269
  521W        W 4585   3.436   4.355  10.936  0.1021  0.2108 -0.0008
  522W        W 4586   8.020   0.436   8.693 -0.2781 -0.3455  0.2071
  523W        W 4587   5.684   4.284   1.647 -0.0117  0.1134  0.4127
  524W        W 4588  10.502   5.386   1.645 -0.2532 -0.0712  0.1520
  525W        W 4589   2.607  10.643   1.402 -0.0480 -0.0462  0.1262
  526W        W 4590  10.286   1.945   7.479  0.0940  0.0479 -0.0781
  527W        W 4591   2.792   6.697  10.273  0.2996  0.0204  0.0365
  528W        W 4592   2.254   0.732   9.120 -0.1353  0.1778  0.3576
  529W        W 4593   9.157   0.151  10.787  0.3285  0.2097 -0.0573
  530W        W 4594   2.300   1.209   3.255 -0.1427  0.1477  0.3781
  531W        W 4595   2.845   6.799   9.146  0.1184 -0.3083 -0.0490
  532W        W 4596   9.185   3.457   8.553  0.1592 -0.0994  0.0164
  533W        W 4597   2.117   5.797   0.829 -0.0187 -0.1379  0.3470
  534W        W 4598   5.218   0.126  11.163 -0.4281 -0.0206  0.0100
  535W        W 4599   2.553   3.585   8.181 -0.0919  0.0764 -0.4596
  536W        W 4600   2.314   2.052   8.893 -0.2378 -0.1058  0.0627
  537W        W 4601   4.035   3.340   1.667 -0.0944  0.0696 -0.0085
  538W        W 4602   3.069   5.625  10.590 -0.4142  0.1551  0.2218
  539W        W 4603   9.313  10.609   7.665  0.0311 -0.1294  0.2175
  540W        W 4604   4.621   8.238  10.219 -0.0262  0.2560 -0.0977
  541W        W 4605   4.466   4.965   7.915 -0.1878 -0.2065 -0.2598
  542W        W 4606   8.100   9.697   1.814  0.1435  0.1725 -0.2285
  543W        W 4607   7.070   7.526   6.777 -0.3309  0.0024 -0.0004
  544W        W 4608   8.892   1.016   3.170 -0.0433 -0.0372  0.2254
  545W        W 4609   5.277   3.112   8.594  0.1749 -0.1530 -0.1535
  546W        W 4610   7.247   9.536   3.139 -0.2596  0.2001 -0.2035
  547W        W 4611  10.403   1.037   2.651  0.2613  0.2038 -0.1064
  548W        W 4612   2.878   0.583   0.025 -0.3563  0.2740  0.1156
  549W        W 4613   9.426   0.726   0.650 -0.2391  0.0140 -0.1171
  550W        W 4614   2.144   8.829   2.499  0.0134 -0.3759 -0.1190
  551W        W 4615   4.964   1.532   0.645  0.2493 -0.1903  0.1253
  552W        W 4616   8.582   6.913   7.826  0.2061  0.0440  0.0079
  553W        W 4617   0.551   0.209   7.641  0.3910  0.2458  0.0426
  554W        W 4618   4.338   9.443  10.282  0.2611  0.0142 -0.1726
  555W        W 4619   9.318   4.753   3.352  0.0626  0.0497 -0.2421
  556W        W 4620  10.580  10.089   2.781  0.1575  0.0640 -0.1618
  557W        W 4621   1.927   9.104   2.164  0.0074 -0.2245 -0.1943
  558W        W 4622   2.321   0.311   1.225  0.2443  0.0632 -0.0994
  559W        W 4623   7.079   8.273  10.980 -0.1254  0.0016  0.1267
  560W        W 4624   2.844   0.584  10.376  0.0309  0.0689 -0.2029
  561W        W 4625  10.665   9.628  11.288 -0.0169  0.0594  0.1658
  562W        W 4626   1.568   8.147   8.434 -0.0161  0.1105 -0.3084
  563W        W 4627   3.187   4.017   0.649 -0.0460 -0.1259 -0.2277
  564W        W 4628   8.499   6.033  10.054 -0.0995  0.0258 -0.1883
  565W        W 4629   9.320   1.172   9.775 -0.1889 -0.1835 -0.0024
  566W        W 4630   7.042   2.232   7.348 -0.0796  0.3312 -0.0671
  567W        W 4631   0.490  10.736   8.095 -0.0429  0.0471  0.1195
  568W        W 4632   5.356   7.263  11.001 -0.0944  0.2068 -0.1053
  569W        W 4633   3.338   2.605   1.080  0.1656 -0.2884 -0.0022
  570W        W 4634   1.904   9.588  10.501  0.0586 -0.0640  0.0238
  571W        W 4635   2.992   7.370   0.141 -0.0228 -0.1274 -0.3582
  572W        W 4636   4.847   9.228   8.193  0.0397  0.1918 -0.2489
  573W        W 4637   0.100   1.270   1.694  0.0232 -0.2599  0.1216
  574W        W 4638   0.130   8.284   9.903  0.0517  0.2368 -0.1461
  575W        W 4639   1.825   1.617   9.247 -0.3908 -0.0642 -0.0036
  576W        W 4640   3.776   9.867   9.552 -0.0327 -0.4365 -0.1090
  577W        W 4641   1.651   7.568   7.974 -0.4003  0.0343 -0.0592
  578W        W 4642   0.412   9.365   2.969  0.0466  0.1788  0.0411
  579W        W 4643   5.021   5.765   2.243  0.0684  0.2636 -0.0697
  580W        W 4644   5.996   3.572   1.219  0.1647  0.2214  0.1176
  581W        W 4645   9.012   6.733   1.684 -0.1921  0.1746  0.0586
  582W        W 4646   2.458   9.215   8.428 -0.1349 -0.2312  0.2124
  583W        W 4647   3.868   7.692   7.877 -0.2021 -0.1302 -0.1780
  584W        W 4648   9.951   3.493  11.234  0.2136  0.0034 -0.2262
  585W        W 4649   7.243   8.664  11.207 -0.0769 -0.1074 -0.0705
  586W        W 4650   6.658  10.176  10.963  0.0583  0.0258  0.1983
  587W        W 4651   7.484   5.121   0.581  0.0946 -0.3059  0.0855
  588W        W 4652   5.817   6.196   2.368 -0.4072  0.0012 -0.0582
  589W        W 4653   9.718   3.039   9.995  0.0501 -0.2085 -0.0612
  590W        W 4654   7.011   3.417   1.536 -0.0911 -0.0134  0.0670
  591W        W 4655   4.483   3.687   0.810 -0.2920 -0.0099 -0.1003
  592W        W 4656   0.167   7.615  10.548 -0.1443 -0.0737  0.1205
  593W        W 4657   5.853   8.499   9.791 -0.2950 -0.1512  0.0783
  594W        W 4658   7.784   1.875   8.160  0.3974  0.1904  0.1997
  595W        W 4659   9.732   2.240   2.268 -0.0171 -0.0784 -0.1118
  596W        W 4660   0.392   9.572  10.718  0.3149  0.0922  0.3119
  597W        W 4661   8.364  10.756   0.877 -0.3195 -0.0725  0.1695
  598W        W 4662   9.553   9.699   0.681  0.1144 -0.1593 -0.0300
  599W        W 4663   5.194   0.387   1.712 -0.0969  0.0543 -0.4342
  600W        W 4664   4.428   1.863  10.675 -0.0596  0.0439  0.0297
  601W        W 4665   5.384   5.422   1.700 -0.0625 -0.2350 -0.1421
  602W        W 4666   3.577   9.831  10.075  0.0620 -0.4598  0.0043
  603W        W 4667   8.346   2.358   2.375  0.2853 -0.0803  0.0053
  604W        W 4668   9.644   1.821  10.670  0.0141  0.1882 -0.0609
  605W        W 4669   0.495   2.056   7.658 -0.3232 -0.1394 -0.0574
  606W        W 4670   4.314   5.270   6.917  0.2413  0.0867  0.3789
  607W        W 4671   2.768   2.218   0.574 -0.0025 -0.1466  0.0170
  608W        W 4672   0.860   6.201   0.964  0.0350 -0.3353  0.0034
  609W        W 4673   2.635   5.460  10.918 -0.0531 -0.5808 -0.2646
  610W        W 4674   9.805   4.900   8.892  0.1462 -0.1069 -0.1996
  611W        W 4675   9.404   4.182  10.860 -0.2693 -0.0745  0.0497
  612W        W 4676   6.845   3.098  10.633 -0.2325 -0.1263 -0.3169
  613W        W 4677   3.674   5.308   0.861 -0.3179  0.1160  0.1175
  614W        W 4678  10.065   0.499   9.619 -0.1137 -0.2425 -0.1983
  615W        W 4679   9.032   1.051   8.084  0.1661 -0.3779  0.0782
  616W        W 4680   3.544   6.230   9.337 -0.4016  0.0428 -0.0438
  617W        W 4681   5.565   4.314   3.073  0.2289 -0.0240 -0.2994
  618W        W 4682   0.843   7.889   8.691  0.0155  0.2102 -0.0022
  619W        W 4683   0.980   7.334   8.691 -0.0668  0.2739 -0.2619
  620W        W 4684   9.862   7.628   3.905 -0.0737 -0.0903  0.4786
  621W        W 4685   9.828   6.111   1.051  0.1039  0.1711  0.2326
  622W        W 4686   8.926   0.183   7.718  0.1990 -0.0886 -0.3549
  623W        W 4687   6.448   6.916   8.448  0.0475 -0.3810 -0.1744
  624W        W 4688   2.103   7.704   0.890 -0.2302  0.4019  0.1176
  625W        W 4689   0.043   1.297   8.162  0.0208 -0.1758 -0.2219
  626W        W 4690   1.256   9.800   0.339 -0.0344  0.0533 -0.3160
  627W        W 4691   0.790   5.029   1.905 -0.1512 -0.0009 -0.0441
  628W        W 4692   5.364   7.520   2.182 -0.0915 -0.1895 -0.3347
  629W        W 4693   5.033   7.122   0.746 -0.1782  0.1414  0.3051
  630W        W 4694   6.810   3.885   1.587  0.2220  0.0103  0.3464
  631W        W 4695   2.763   5.902   1.954 -0.0551  0.1531 -0.0973
  632W        W 4696   7.575   2.452  10.019  0.1744  0.1200 -0.1666
  633W        W 4697   6.252   6.277   7.586 -0.2316 -0.0186  0.1515
  634W        W 4698   4.544   2.542   2.079  0.1789  0.1708  0.2845
  635W        W 4699   5.299   4.587  10.151  0.1549  0.1828 -0.1100
  636W        W 4700   9.110   9.193   7.436 -0.0940  0.0914  0.0091
  637W        W 4701  10.033   4.588   9.865 -0.0725 -0.2188  0.0352
  638W        W 4702   3.144   2.115   9.306  0.1170 -0.1936 -0.0844
  639W        W 4703   2.945   0.412   8.194  0.0997 -0.2260 -0.2185
  640W        W 4704   8.152   7.647   8.484  0.1350  0.1308  0.0517
  641W        W 4705   8.487  10.035   8.895 -0.2019 -0.3339 -0.3578
  642W        W 4706   8.877  10.763   8.345 -0.0239  0.1922  0.2191
  643W        W 4707   6.326   9.845   8.131 -0.0115  0.2321 -0.2674
  644W        W 4708   8.354   3.434   3.151  0.1653 -0.0915  0.0836
  645W        W 4709   9.988   3.448   7.571  0.1095  0.2013  0.1278
  646W        W 4710   4.425   4.690  10.592 -0.3052 -0.0727 -0.1654
  647W        W 4711   3.940   5.826   9.385 -0.1768 -0.7323  0.1554
  648W        W 4712   4.729   2.811   0.203 -0.1818 -0.1989  0.0741
  649W        W 4713   4.443   4.278   8.966 -0.0382  0.4681 -0.0387
  650W        W 4714   3.662   0.745   0.302 -0.2088 -0.1206 -0.1575
  651W        W 4715   6.164   1.955   8.486 -0.0312  0.2937 -0.1061
  652W        W 4716   9.371  10.746   8.576  0.0116 -0.0130 -0.3429
  653W        W 4717   6.804   0.005   8.370 -0.2887 -0.1427  0.1958
  654W        W 4718   9.707   1.991   0.964  0.3270 -0.1316  0.1119
  655W        W 4719   0.079   9.606   2.575 -0.0476 -0.3005 -0.1646
  656W        W 4720   0.080   1.727  10.996 -0.0255  0.0546  0.0324
  657W        W 4721   2.316   8.200   9.048  0.5992 -0.0421  0.0334
  658W        W 4722   5.049   3.660   0.830  0.1275 -0.3527 -0.0662
  659W        W 4723   3.874   9.251   0.382  0.3542  0.0923  0.3883
  660W        W 4724   8.718   0.724   1.185 -0.0443 -0.2406 -0.0913
  661W        W 4725   7.189   9.931   2.716 -0.2147 -0.0155  0.0135
  662W        W 4726   7.107   8.607   0.386  0.0690 -0.0291  0.0587
  663W        W 4727   7.542  10.233   2.420  0.0230  0.0513  0.2338
  664W        W 4728   9.883   8.607  10.799 -0.0404  0.1653 -0.1043
  665W        W 4729   3.317   5.525  10.154 -0.1000 -0.0085  0.1565
  666W        W 4730   5.779   8.734   9.311 -0.3411  0.0758  0.5009
  667W        W 4731   5.037   7.444  10.576  0.3488  0.1026  0.0088
  668W        W 4732   5.710   7.533   8.459 -0.3389 -0.0429 -0.2741
  669W        W 4733   4.296   5.751   7.072 -0.2371 -0.1793  0.1486
  670W        W 4734   4.061   8.273   7.499 -0.1773 -0.2683 -0.1331
  671W        W 4735   7.031   4.299   9.839 -0.0355  0.0865 -0.1284
  672W        W 4736   2.257   7.895   2.061 -0.0402 -0.2049  0.0835
  673W        W 4737   9.566   2.729   1.970  0.1100  0.0438  0.2022
  674W        W 4738   6.962   5.179   0.846  0.1881  0.1290 -0.0638
  675W        W 4739   8.700   4.254   8.771  0.0715  0.0152  0.0822
  676W        W 4740   0.609   9.591   1.280 -0.0428 -0.1449 -0.1600
  677W        W 4741   3.960  10.028   1.651 -0.0717  0.0283 -0.1088
  678W        W 4742   4.519   5.699   0.205 -0.0633  0.1809  0.2386
  679W        W 4743   6.130   5.322   1.080 -0.0943 -0.4084 -0.2442
  680W        W 4744   1.050   6.869   0.036 -0.1752  0.3981  0.3579
  681W        W 4745   8.361   0.654   8.377  0.0622 -0.3786  0.1590
  682W        W 4746  10.321   9.280   0.199 -0.2107  0.3126  0.3727
  683W        W 4747   1.504   5.613   9.175  0.0246  0.1545 -0.1386
  684W        W 4748   2.486   4.502  10.527 -0.0118 -0.0192 -0.1988
  685W        W 4749   0.963   1.370   9.403 -0.0195 -0.1799 -0.1523
  686W        W 4750   5.386   5.266   8.298  0.3057  0.1326 -0.3410
  687W        W 4751   5.942   3.794   0.469  0.4215  0.2986  0.1368
  688W        W 4752   1.917   2.379   9.091 -0.0273  0.2148 -0.2173
  689W        W 4753   4.951   8.918   2.271  0.2785 -0.1273  0.2220
  690W        W 4754   9.076   8.730  10.124 -0.3031  0.1887  0.1782
  691W        W 4755   3.551   9.119  10.758  0.0961  0.0875 -0.3771
  692W        W 4756   4.063   7.838   1.071  0.1195 -0.0605  0.2561
  693W        W 4757   6.121   3.089  10.518  0.2193 -0.0147 -0.0095
  694W        W 4758   0.708   7.013   1.689 -0.4420  0.1419  0.2079
  695W        W 4759   8.454   9.239  10.494 -0.0782  0.0321  0.0789
  696W        W 4760   7.835   6.056   8.579  0.0282 -0.2691 -0.0841
  697W        W 4761   5.518   8.765  10.640 -0.2357  0.1074  0.1437
  698W        W 4762   5.957   4.334   8.920 -0.0659  0.2029  0.3772
  699W        W 4763   9.402   8.659   1.042  0.1197 -0.1928  0.3075
  700W        W 4764  10.738   8.379   8.844 -0.0081 -0.1366  0.2913
  701W        W 4765   7.773   5.055  10.879  0.1055 -0.0591  0.0988
  702W        W 4766   9.917   6.710  11.191  0.0064 -0.2341  0.0993
  703W        W 4767   1.932   0.297   8.341 -0.0463  0.0492 -0.0688
  704W        W 4768  10.749   3.844   9.529  0.0296  0.2316  0.0967
  705W        W 4769   0.475   5.112   8.548 -0.3163 -0.0371  0.2404
  706W        W 4770   4.224   6.936   1.459  0.2336  0.0719 -0.0909
  707W        W 4771   0.209   4.736   1.489  0.0919 -0.1884  0.0652
  708W        W 4772   7.510   8.660   9.064  0.0994  0.0034  0.1495
  709W        W 4773   2.144   8.392   9.524  0.1389 -0.0251  0.0110
  710W        W 4774   8.319   4.761   0.445  0.1472  0.4007 -0.4023
  711W        W 4775   8.908   8.522   1.631  0.2338 -0.2507 -0.1986
  712W        W 4776   6.932   0.372  10.970 -0.1446  0.0154  0.0657
  713W        W 4777   7.647   1.409   7.948  0.0467  0.2437  0.0217
  714W        W 4778   8.483  10.474   8.644  0.2894  0.0192  0.0788
  715W        W 4779   5.131   8.856  10.384  0.0528  0.2630  0.1890
  716W        W 4780   2.342   1.467  10.399 -0.1649 -0.0629 -0.0555
  717W        W 4781   5.337   9.826   8.841 -0.0164  0.2535 -0.1822
  718W        W 4782   0.146   6.667   0.196 -0.0250  0.1599  0.0420
  719W        W 4783   5.468   0.503   0.797  0.1491 -0.0784 -0.2000
  720W        W 4784   4.637   8.285   2.675  0.2069 -0.3386 -0.0090
  721W        W 4785   0.489   5.196  10.099 -0.0606  0.0932  0.2820
  722W        W 4786   8.084   5.160   1.227  0.2847  0.1746  0.1541
  723W        W 4787   8.183   6.946  10.100  0.0677  0.5799 -0.3394
  724W        W 4788   1.088   3.245   9.729  0.1788 -0.1260  0.1251
  725W        W 4789   8.015  10.697  10.054 -0.0408  0.3699  0.2472
  726W        W 4790   8.563   1.628   7.551 -0.6301 -0.1308 -0.1351
  727W        W 4791   4.989   1.904   9.479 -0.2402  0.1047 -0.0339
  728W        W 4792   7.857   9.959   8.600  0.0625 -0.0247 -0.1849
  729W        W 4793   7.238   5.370   1.315 -0.1053 -0.1064  0.1678
  730W        W 4794   1.818   1.444   8.408 -0.1411 -0.1265 -0.1595
  731W        W 4795   3.988   2.575   8.475  0.0488 -0.0891  0.0983
  732W        W 4796   7.507   3.168   8.704  0.3390  0.0461  0.2776
  733W        W 4797   3.906   9.588   3.380  0.2967 -0.4216  0.0886
  734W        W 4798   3.465   2.285  10.125 -0.0546 -0.4228 -0.0757
  735W        W 4799   5.559   0.741   1.993 -0.0614 -0.2106 -0.0489
  736W        W 4800   6.084   4.306   3.020  0.2323 -0.2040 -0.0335
  737W        W 4801  10.379   0.085   8.746 -0.0092 -0.2280  0.1222
  738W        W 4802  10.726   5.908   2.907  0.1972 -0.1150 -0.1029
  739W        W 4803   0.304   2.995   1.663  0.2159  0.0974  0.0276
  740W        W 4804   4.894   0.504   2.564  0.0376  0.1604 -0.1985
  741W        W 4805   5.665   5.980   6.901 -0.2667 -0.0206  0.1784
  742W        W 4806   7.322   4.386   1.275 -0.1136  0.1470 -0.3542
  743W        W 4807   1.262   4.941   1.547 -0.2177  0.0662  0.1166
  744W        W 4808   0.665   0.607   7.868  0.1069 -0.1406  0.1718
  745W        W 4809   9.397   4.803   9.268  0.0955  0.0956 -0.0466
  746W        W 4810   6.143  10.283  10.247 -0.1243  0.2236 -0.1639
  747W        W 4811   9.260   5.081  10.152  0.1786  0.0196 -0.4310
  748W        W 4812   7.390  10.540   2.839 -0.2223  0.2346  0.0201
  749W        W 4813   0.047   6.112   1.304 -0.2147 -0.0492  0.2991
  750W        W 4814   2.777   3.533   0.078  0.1880  0.0552 -0.0486
  751W        W 4815   7.319   4.261   8.925  0.2684  0.2079  0.0336
  752W        W 4816   5.424   6.940   2.285  0.2634 -0.0744  0.1683
  753W        W 4817   2.137   7.599   2.816 -0.1462  0.0409 -0.0831
  754W        W 4818   6.767   7.450   8.551 -0.1174  0.0233  0.0038
  755W        W 4819   8.961  10.328  11.181 -0.0639  0.1124  0.1042
  756W        W 4820   1.189   2.283   9.548 -0.1462 -0.0595 -0.1160
  757W        W 4821  10.568   6.526   1.138  0.1306  0.1870  0.2567
  758W        W 4822   7.901   1.146   9.644 -0.3227 -0.0503 -0.1444
  759W        W 4823   7.858   6.979   9.550  0.0201 -0.0925 -0.2846
  760W        W 4824   8.824   6.561   9.151  0.0179  0.0350  0.1120
  761W        W 4825  10.311   7.031  11.140 -0.1962  0.1720 -0.1683
  762W        W 4826   6.704   6.907  10.975 -0.0909 -0.1808 -0.0121
  763W        W 4827   4.036   5.708   2.757  0.0247  0.0091 -0.2720
  764W        W 4828   4.710   5.827   8.165 -0.0596 -0.1402  0.0066
  765W        W 4829   8.197   1.327   1.988 -0.1125 -0.0851  0.0595
  766W        W 4830   7.058   0.729   0.171 -0.0277 -0.1606 -0.1369
  767W        W 4831   3.257   4.868  10.617  0.0143 -0.4642 -0.0795
  768W        W 4832   9.993   4.292   6.975 -0.1358 -0.0774 -0.0087
  769W        W 4833   2.337   1.107   7.375 -0.0862  0.4206 -0.2521
  770W        W 4834   6.197   3.613   9.487 -0.0459  0.1259  0.3800
  771W        W 4835   9.224  10.094   0.282  0.1341  0.0047 -0.0325
  772W        W 4836   8.823   3.582   0.105  0.0698 -0.1893 -0.0617
  773W        W 4837   4.144   8.058   3.479  0.3901  0.0906 -0.1215
  774W        W 4838   0.769   3.346   9.376  0.0466  0.0704 -0.4222
  775W        W 4839   2.109   5.590   8.938 -0.2482  0.0483  0.0572
  776W        W 4840   9.246   9.621   9.575 -0.4723  0.2182 -0.1140
  777W        W 4841   3.417  10.555  11.294 -0.3140 -0.0139 -0.1469
  778W        W 4842   4.866   2.607   0.639 -0.1885  0.0278 -0.0183
  779W        W 4843   7.652   7.017   1.931 -0.3687 -0.1621 -0.2250
  780W        W 4844   6.264   6.530   1.891 -0.1048  0.0456  0.3379
  781W        W 4845   2.992   6.503   7.662  0.1147  0.2196  0.1202
  782W        W 4846   8.931   4.323  11.072  0.4351 -0.0433  0.1657
  783W        W 4847  10.400   5.052   1.180  0.3249 -0.2250 -0.0935
  784W        W 4848   9.892   1.839   9.832 -0.2171 -0.3409  0.2931
  785W        W 4849   3.126   3.011   1.462 -0.4780  0.5360  0.0160
  786W        W 4850   5.274   9.544   2.962 -0.0027 -0.1924 -0.0309
  787W        W 4851   3.671   0.959   8.215  0.0190 -0.1348  0.0606
  788W        W 4852  10.442   6.100   0.284 -0.0053  0.1061  0.2363
  789W        W 4853   2.037   5.764   2.456  0.0399  0.3583  0.1533
  790W        W 4854   9.858   7.407  10.412 -0.2306  0.0526 -0.1439
  791W        W 4855   4.615   1.757   2.283 -0.1877 -0.4206  0.0900
  792W        W 4856   5.270   2.734   8.916 -0.1545  0.0794  0.1522
  793W        W 4857   7.793   9.256   1.866  0.1923 -0.1497  0.2225
  794W        W 4858   5.883  10.055   0.723 -0.0420 -0.0260  0.2015
  795W        W 4859   0.034   4.047   7.333 -0.0435  0.0978 -0.1010
  796W        W 4860   3.095   2.620  10.007  0.0008  0.1201 -0.0965
  797W        W 4861   7.185   7.461   7.697 -0.2077  0.0204  0.0693
  798W        W 4862   9.625   8.317   2.800  0.0310  0.0328  0.1018
  799W        W 4863   1.338   1.546   8.499  0.3606  0.1748 -0.1370
  800W        W 4864   0.665   4.925   1.280 -0.3722  0.0569 -0.1700
  801W        W 4865   5.833   5.302   8.590 -0.0884  0.0809 -0.0604
  802W        W 4866   0.511   2.713  10.567 -0.1438 -0.0331  0.0712
  803W        W 4867   9.425   7.632   0.515  0.0175  0.0104 -0.1587
  804W        W 4868   5.090   5.967  10.205 -0.0936 -0.0642 -0.2377
  805W        W 4869   6.607   8.447   1.148  0.1066  0.2145  0.0118
  806W        W 4870   4.184   7.576   2.456  0.1875  0.0024 -0.2387
  807W        W 4871   8.704   5.412   9.306 -0.1328  0.1922  0.2199
  808W        W 4872   9.765   2.725   2.921  0.1179 -0.0563 -0.2107
  809W        W 4873   3.700   8.860   2.138 -0.0388  0.0085  0.0034
  810W        W 4874   7.628   2.947   0.028 -0.2359  0.4260  0.0147
  811W        W 4875   2.273   4.106   0.525  0.0762  0.2607  0.2866
  812W        W 4876   9.992   7.930   9.686  0.2588 -0.0125  0.1696
  813W        W 4877   0.107   8.972   8.970 -0.1217 -0.0229  0.0810
  814W        W 4878   7.444   5.303   7.805  0.1851  0.0605  0.1254
  815W        W 4879   9.103   7.496   8.134  0.0359  0.0108 -0.0211
  816W        W 4880   8.372   3.147   9.292 -0.0991  0.4850  0.0805
  817W        W 4881  10.563  10.175   9.660 -0.3362  0.1881 -0.0255
  818W        W 4882   9.543   2.557   9.586 -0.1051 -0.0164  0.0410
  819W        W 4883  10.109   8.586   9.486 -0.2676  0.0075 -0.0139
  820W        W 4884   7.070   9.107   9.892  0.0726 -0.0466  0.2014
  821W        W 4885   7.831   1.216   0.759  0.5714 -0.1502  0.0383
  822W        W 4886   0.485  10.403   9.730 -0.2607 -0.4408 -0.0983
  823W        W 4887   7.616   0.210   8.002 -0.4761  0.1568 -0.0262
  824W        W 4888   7.930   3.375   7.455  0.1687 -0.0963  0.2222
  825W        W 4889   0.029  10.607   9.746  0.3466 -0.1147  0.0329
  826W        W 4890   6.371   5.956   7.969 -0.3420 -0.0086 -0.1706
  827W        W 4891   1.039   7.348   7.674 -0.3097  0.1767 -0.1043
  828W        W 4892   9.323   4.874   0.947 -0.0327  0.1013 -0.1970
  829W        W 4893   1.440   4.406   2.229  0.0750 -0.0005 -0.0128
  830W        W 4894   6.611   5.203   1.234 -0.5053 -0.0023 -0.0038
  831W        W 4895   2.454   6.909   0.536  0.1511 -0.2125  0.4429
  832W        W 4896   6.332   3.326   0.341  0.1351  0.0226  0.0030
  833W        W 4897   1.460   1.394  10.214  0.1581 -0.0689  0.3103
  834W        W 4898   0.820   3.037  10.137  0.1567  0.1037 -0.3297
  835W        W 4899   2.490   2.650   2.203  0.0568  0.0187  0.0361
  836W        W 4900   7.922   3.193   9.047 -0.2643 -0.2152  0.0591
  837W        W 4901   6.365   8.815   8.554  0.0971 -0.0190 -0.3644
  838W        W 4902   6.937   4.182   1.944 -0.0041  0.1606  0.0944
  839W        W 4903   2.201   0.946   2.309 -0.1684  0.0594  0.2803
  840W        W 4904   6.175   4.022   1.624 -0.0756 -0.0564  0.0745
  841W        W 4905   4.939   1.592   1.878 -0.2258 -0.0366  0.1257
  842W        W 4906   9.460  10.675   0.399  0.0721  0.1775 -0.1635
  843W        W 4907   1.667   6.459   1.567 -0.2232  0.0917 -0.0604
  844W        W 4908   6.343   8.943   7.676 -0.0209  0.1116  0.1344
  845W        W 4909   7.273   7.201   0.292 -0.0276  0.3171  0.0786
  846W        W 4910   3.267   6.235   2.504 -0.2179 -0.2215 -0.0144
  847W        W 4911   1.900   8.178   1.791 -0.0931 -0.0528 -0.0277
  848W        W 4912  10.686   3.942  10.229 -0.1002  0.0783 -0.0852
  849W        W 4913   2.945   2.683  11.044  0.0738  0.2437  0.2165
  850W        W 4914   4.888   7.656   1.721 -0.4212  0.1583 -0.2246
  851W        W 4915   6.632   8.484   0.574  0.0691 -0.0702 -0.0495
  852W        W 4916   1.872   6.948   8.771  0.1608 -0.4729  0.1597
  853W        W 4917   4.890   8.119   0.689 -0.0553 -0.0299 -0.0079
  854W        W 4918   4.656   1.498   1.442 -0.4148 -0.0520  0.0742
  855W        W 4919   5.980   7.356   1.014 -0.0568  0.1618  0.1460
  856W        W 4920   1.097   1.214   8.783 -0.1335  0.2071  0.0700
  857W        W 4921   8.085   8.675   0.623 -0.2911 -0.5748 -0.0229
  858W        W 4922   8.516   8.171   1.885 -0.1261 -0.0498  0.1392
  859W        W 4923   8.287   4.005   8.968 -0.3151 -0.0057 -0.0036
  860W        W 4924   2.551   0.453   9.517  0.1675 -0.0421  0.0616
  861W        W 4925   9.379  10.510  10.304 -0.1282  0.1923  0.0712
  862W        W 4926   0.380  10.763   9.368 -0.1152 -0.0071 -0.2263
  863W        W 4927  10.720   3.805   0.167 -0.4428 -0.0583 -0.1004
  864W        W 4928   4.882   0.298   3.883  0.2417 -0.0539  0.0902
  865W        W 4929   6.347   0.869  10.791  0.0772  0.2780 -0.1672
  866W        W 4930   2.881   7.252   1.668  0.0146 -0.0583 -0.3171
  867W        W 4931  10.753   2.062   2.322  0.1328 -0.0700 -0.1179
  868W        W 4932   8.038   9.042  10.875 -0.2245  0.0257 -0.2189
  869W        W 4933   6.248   7.965   1.968 -0.1677  0.0156  0.2398
  870W        W 4934   5.582   7.397  10.494  0.1710  0.2805 -0.1869
  871W        W 4935   0.942   8.420   8.754 -0.3752  0.2583  0.1747
  872W        W 4936   3.635   1.713   3.547  0.0253 -0.1122 -0.3915
  873W        W 4937   8.847   8.949   2.108 -0.0655 -0.0215  0.0629
  874W        W 4938   6.387   5.985   0.607 -0.1630 -0.1185 -0.2352
  875W        W 4939   3.093   0.982   2.777  0.1569 -0.0625 -0.2766
  876W        W 4940   1.632   8.989   2.529 -0.1592 -0.1330  0.0654
  877W        W 4941   5.702   6.228   1.807 -0.0270  0.0221 -0.2078
  878W        W 4942   3.365   7.318   1.477 -0.2238  0.3939  0.2008
  879W        W 4943   1.335   4.946   2.976  0.0056 -0.1192  0.0745
  880W        W 4944   9.957   7.023   0.309 -0.0571  0.2306 -0.0325
  881W        W 4945   1.998   8.928   9.263 -0.2073 -0.0769 -0.2440
  882W        W 4946   3.530   0.266   2.575  0.0574  0.1804  0.0125
  883W        W 4947   3.570   6.923   8.311  0.2574  0.0170 -0.0384
  884W        W 4948   3.851   3.030   0.597 -0.0829  0.3450  0.1245
  885W        W 4949   4.206   0.687   2.981  0.1883 -0.1943 -0.4438
  886W        W 4950   5.077   7.535   7.837 -0.1902 -0.1413  0.2988
  887W        W 4951   2.997   7.668   1.450 -0.0727  0.2204 -0.1657
  888W        W 4952   9.321   2.434   8.379 -0.0020  0.0692 -0.3730
  889W        W 4953   3.025  10.204   0.466  0.2342 -0.2850 -0.2461
  890W        W 4954   5.420   3.057  11.011  0.0015 -0.2636  0.0884
  891W        W 4955   4.067   9.717   9.997  0.1933  0.0817  0.1620
  892W        W 4956   4.346   2.509   9.468  0.0193  0.1562 -0.1339
  893W        W 4957   0.208   3.588  10.379 -0.1036 -0.0272 -0.0746
  894W        W 4958   2.323   7.899   9.850  0.1008 -0.3497 -0.0608
  895W        W 4959   6.223   0.371  10.960  0.1064 -0.1443  0.0046
  896W        W 4960   8.530   5.658  10.400 -0.1276  0.2207 -0.0815
  897W        W 4961   1.297   1.764   0.918 -0.0588 -0.1479 -0.2924
  898W        W 4962   0.963   8.850   8.482  0.1292 -0.1285  0.0843
  899W        W 4963  10.316   2.310   7.144  0.0091 -0.1434  0.1203
  900W        W 4964   6.807   5.704   3.095  0.0020  0.2202  0.4325
  901W        W 4965   0.398   3.264   8.950 -0.2828 -0.1264  0.0428
  902W        W 4966   2.262   3.246   8.001  0.1678 -0.2326  0.2111
  903W        W 4967   5.837   1.578  10.698 -0.0155 -0.4267  0.0396
  904W        W 4968   3.300   2.513   9.562  0.1301 -0.0241  0.0046
  905W        W 4969   7.055   1.753   2.319 -0.0811  0.0388 -0.0522
  906W        W 4970   6.822   0.714   2.987 -0.0813  0.1738 -0.0770
  907W        W 4971   9.023   9.210   3.460 -0.4752  0.0708 -0.0378
  908W        W 4972   2.971   6.776   1.894 -0.2468 -0.0877  0.0044
  909W        W 4973   4.260   7.902   9.245  0.3715  0.0585 -0.0398
  910W        W 4974  10.171  10.746  10.958 -0.0021  0.0499  0.1274
  911W        W 4975  10.463   7.540  10.957  0.0732  0.1666  0.0381
  912W        W 4976   1.552   3.934   1.882  0.1241  0.2595  0.0733
  913W        W 4977   1.196   4.771   9.501 -0.0185  0.0893 -0.0343
  914W        W 4978   7.312   4.719   0.874 -0.2810  0.1108  0.1201
  915W        W 4979   9.941   2.724   2.416  0.0019 -0.0651  0.1552
  916W        W 4980   3.863  10.221   2.163 -0.1797 -0.1852  0.0305
  917W        W 4981   4.746   5.410  10.343  0.2223 -0.0109 -0.2717
  918W        W 4982   0.095   8.667  10.636 -0.2420 -0.2159 -0.0116
  919W        W 4983   5.644   8.063  10.964  0.1484  0.0443  0.0277
  920W        W 4984   0.745   0.085   9.036  0.0701 -0.2498  0.1398
  921W        W 4985   0.423   4.462  10.533  0.0732  0.1535  0.0562
  922W        W 4986   0.140   4.369   9.113  0.0673 -0.0275  0.0075
  923W        W 4987   3.519   6.730   1.163  0.3005 -0.0042  0.3565
  924W        W 4988   5.355   3.420   2.669 -0.1296 -0.3040  0.2310
  925W        W 4989   9.248   6.644   2.135 -0.2540  0.3226  0.0372
  926W        W 4990   6.164  10.537   2.542 -0.0288  0.1520  0.0411
  927W        W 4991   9.419   0.238   1.532  0.1145 -0.1521  0.4437
  928W        W 4992   6.243   2.862   0.524  0.0556 -0.2101 -0.1536
  929W        W 4993   7.661   6.242   6.822 -0.2873 -0.1285 -0.3017
  930W        W 4994   3.650   1.432  11.105  0.0858  0.2037 -0.0957
  931W        W 4995   1.708   9.543   1.658 -0.1329 -0.1088  0.1785
  932W        W 4996   6.077   3.096   1.140  0.0118 -0.2379 -0.0044
  933W        W 4997   2.707   5.441   9.005  0.1680 -0.1231 -0.3118
  934W        W 4998   6.331   0.726   8.914  0.0836 -0.1069  0.2731
  935W        W 4999   6.816   9.028   8.466 -0.0753  0.0638 -0.2420
  936W        W 5000   4.430   4.387   8.459  0.2605  0.1199 -0.1009
  937W        W 5001   7.224   5.021   0.172 -0.1357 -0.1556 -0.0206
  938W        W 5002   8.855   1.689   0.273 -0.0108  0.2459 -0.0569
  939W        W 5003   5.723   3.585   8.129  0.2409  0.4973  0.1024
  940W        W 5004   8.557   4.871   1.331  0.0289 -0.0005 -0.1350
  941W        W 5005   4.953   1.294  10.153 -0.2511  0.2117  0.0740
  942W        W 5006   7.446   2.139   0.250  0.1142  0.2612  0.1597
  943W        W 5007   2.836   2.784   1.874 -0.0871  0.0074  0.3097
  944W        W 5008   0.310   7.500   9.394 -0.0040  0.3444 -0.3926
  945W        W 5009   9.813   9.792   1.670  0.1294 -0.0564 -0.0202
  946W        W 5010   6.249   0.021  10.177 -0.4286 -0.2903 -0.2514
  947W        W 5011   7.360   6.296   0.705 -0.1191 -0.1970 -0.1970
  948W        W 5012   0.767   2.347   8.556  0.0925 -0.0740 -0.0015
  949W        W 5013   6.185   2.553   0.908 -0.0123  0.1757  0.0893
  950W        W 5014   1.132   3.639   2.086 -0.2741  0.1903  0.3010
  951W        W 5015   9.070   1.234   1.992  0.3472 -0.2190  0.1490
  952W        W 5016   3.631   3.489   1.350 -0.2205  0.0077  0.1836
  953W        W 5017   6.368   8.437  10.969 -0.0653 -0.0045 -0.3309
  954W        W 5018   2.375   2.742   1.655  0.1465  0.3911  0.0125
  955W        W 5019   7.771   1.354   1.716  0.0466 -0.2843 -0.0577
  956W        W 5020   6.715   9.658   2.557  0.0702 -0.0250 -0.0038
  957W        W 5021   8.434   1.284  10.748 -0.1338 -0.0745 -0.1027
  958W        W 5022   0.793   5.390   8.158 -0.1270 -0.1088 -0.4519
  959W        W 5023   0.228   9.320   1.644 -0.0217 -0.2195  0.1129
  960W        W 5024   4.349   4.306   0.235 -0.0166 -0.0507  0.0569
  961W        W 5025   4.412   8.806   1.124 -0.0574  0.0351 -0.1596
  962W        W 5026   5.989   0.735   0.800 -0.1837  0.2473  0.3112
  963W        W 5027   2.422   4.065   8.432  0.1360 -0.0130  0.3043
  964W        W 5028   1.989   6.142  10.773 -0.1848 -0.1559  0.3261
  965W        W 5029   8.013   0.903   1.794 -0.3371 -0.2250  0.2320
  966W        W 5030   5.599   0.932   0.543  0.2295  0.1486 -0.1600
  967W        W 5031   8.960   6.654   0.376 -0.1367  0.2459  0.1893
  968W        W 5032   5.471   7.781   1.212  0.0246  0.0946 -0.1305
  969W        W 5033   5.965   4.761   0.450 -0.3677 -0.2916 -0.0901
  970W        W 5034   5.892  10.098   1.687  0.2312 -0.0473  0.2905
  971W        W 5035   2.862   1.281  10.259 -0.0595  0.1022 -0.2776
  972W        W 5036   5.050  10.511   1.343  0.1097 -0.1957  0.1147
  973W        W 5037   7.190   2.998   0.177 -0.0503 -0.1737  0.2177
  974W        W 5038   4.090   1.311   8.747  0.1412 -0.3515  0.4513
  975W        W 5039   6.292   7.895   0.595  0.0114  0.3202  0.0387
  976W        W 5040   5.240   0.927  10.443 -0.1304  0.4360  0.2683
  977W        W 5041   1.622   8.394  11.022 -0.1935 -0.0881  0.0607
  978W        W 5042   9.652   2.601  10.725  0.0789 -0.0016 -0.0688
  979W        W 5043   6.213   1.723   9.933  0.1572 -0.2028 -0.0633
  980W        W 5044   0.003   9.187  10.664 -0.1102  0.3419 -0.0654
  981W        W 5045   6.951   9.973  10.109 -0.0952 -0.2495  0.1883
  982W        W 5046   3.927   4.384   9.224 -0.2103  0.3229 -0.1483
  983W        W 5047   9.762   4.960   0.630  0.0429  0.0069 -0.2262
  984W        W 5048   2.886  10.547   8.477  0.0070 -0.2807  0.1196
  985W        W 5049   1.509   6.193  10.632  0.2722 -0.3486  0.1078
  986W        W 5050   1.480   3.868   2.375  0.2103 -0.0495  0.1824
  987W        W 5051   2.667  10.046   7.351  0.3365 -0.1103  0.1539
  988W        W 5052   9.880   9.038  10.528  0.5799 -0.0976 -0.1306
  989W        W 5053   2.466   0.292   1.707  0.0182  0.2486 -0.3921
  990W        W 5054  10.221   5.104   0.676  0.1436 -0.1312  0.0179
  991W        W 5055   8.194   8.170   0.046  0.2537 -0.0467  0.2349
  992W        W 5056   1.877   3.180   2.082 -0.1588 -0.4179  0.1252
  993W        W 5057   1.724   6.223  11.265 -0.0414 -0.0344  0.2169
  994W        W 5058   5.297  10.331   9.477  0.1260  0.1195  0.2017
  995W        W 5059   5.041   2.588   2.834  0.1165 -0.2148  0.5076
  996W        W 5060   2.475   5.900   8.762  0.0476  0.2374 -0.1316
  997W        W 5061   5.075   3.256   0.062 -0.0337 -0.0622 -0.2063
  998W        W 5062   1.057   8.558  10.753  0.0731  0.2161 -0.1438
  999W        W 5063   0.356   4.159   3.012  0.0277 -0.1946  0.0831
 1000W        W 5064   6.484  10.124   8.656 -0.1669  0.0855 -0.0043
 1001W        W 5065   4.688   7.511   0.897 -0.0681 -0.0442 -0.2684
 1002W        W 5066   7.259   8.609   8.186  0.3030  0.2024 -0.2428
 1003W        W 5067   1.470   5.217   7.463 -0.0906  0.2550  0.1726
 1004W        W 5068   8.193   9.731  10.314 -0.0186 -0.0775 -0.0549
 1005W        W 5069   1.136   0.712   8.135 -0.0840  0.0342 -0.1329
 1006W        W 5070  10.048   8.426   0.494 -0.2248 -0.0109  0.0543
 1007W        W 5071   6.484   6.019   1.094 -0.2142 -0.0731  0.0011
 1008W        W 5072   3.505   4.006   1.542 -0.2106 -0.1094 -0.3748
 1009W        W 5073   9.665   5.664   1.031 -0.1438 -0.0794  0.3090
 1010W        W 5074  10.558   0.233   9.640  0.0321  0.2164  0.0397
 1011W        W 5075   8.698  10.606  10.747  0.0490  0.0528  0.1062
 1012W        W 5076   9.135   7.866   0.904  0.2406  0.1749 -0.1837
 1013W        W 5077   5.131   1.611   1.091  0.0254  0.1499  0.0950
 1014W        W 5078   6.387   1.566   2.956  0.2008 -0.0935 -0.0096
 1015W        W 5079  10.717   5.785  10.368  0.1954  0.1058 -0.1899
 1016W        W 5080   0.177   8.795   7.762  0.1385  0.1237  0.1837
 1017W        W 5081   8.443   0.565   0.088 -0.0847  0.0730 -0.1904
 1018W        W 5082   4.674   2.413   1.561 -0.0927 -0.2118 -0.1693
 1019W        W 5083   6.467   7.059  10.599  0.0186 -0.1721  0.0005
 1020W        W 5084   8.640   8.155   7.852 -0.1984 -0.1968  0.1119
 1021W        W 5085   9.303   6.106   1.871 -0.1757  0.0554  0.2202
 1022W        W 5086   4.310  10.652   8.832  0.2299 -0.2261  0.2595
 1023W        W 5087   5.514   7.076   8.623 -0.2721  0.4846 -0.2227
 1024W        W 5088   3.865   0.479   8.857  0.1312 -0.0340 -0.5039
 1025W        W 5089   1.120   2.881   7.206  0.0388  0.2475 -0.7968
 1026W        W 5090   0.768   0.122  10.617  0.2235 -0.0460  0.2419
 1027W        W 5091   0.207   3.538   1.737 -0.1397  0.1875 -0.0408
 1028W        W 5092   2.916   0.780   9.357  0.1464  0.2558 -0.2057
 1029W        W 5093   8.602   5.603   0.757  0.3375 -0.0169 -0.0052
 1030W        W 5094   1.084   9.768   9.936 -0.3733 -0.0745 -0.1673
 1031W        W 5095   9.510   3.324  11.045  0.3452  0.0465  0.3104
 1032W        W 5096   6.980   4.256  10.328 -0.1929 -0.0410 -0.0480
 1033W        W 5097   0.014   6.251   9.471 -0.0115 -0.0264 -0.0562
 1034W        W 5098   2.712   7.884   8.935 -0.1778  0.2665 -0.1646
 1035W        W 5099   6.306   6.335   8.352  0.1272 -0.0305 -0.0841
 1036W        W 5100   3.913   4.288   1.678 -0.1078  0.1539  0.0767
 1037W        W 5101   7.362   4.236   2.736  0.1177 -0.1462  0.2719
 1038W        W 5102   7.308   4.009   9.359 -0.2427 -0.0060 -0.0374
 1039W        W 5103   3.562   6.164   1.008 -0.3312  0.2285  0.1942
 1040W        W 5104   0.286   8.600   1.003  0.2153 -0.0624 -0.0266
 1041W        W 5105   7.461   5.545   8.277 -0.3687 -0.0286  0.1060
 1042W        W 5106   7.561  10.455   8.070  0.2785  0.1704 -0.2364
 1043W        W 5107   7.572   0.114   1.800 -0.2361 -0.3452  0.2266
 1044W        W 5108   4.944   0.993   3.294  0.3728  0.3616  0.1180
 1045W        W 5109   7.242   8.590  10.654 -0.0643  0.0040 -0.0756
 1046W        W 5110   8.629   2.448   7.789 -0.0321  0.3452 -0.3135
 1047W        W 5111   2.779   8.170   1.593  0.1700  0.0012  0.0702
 1048W        W 5112   3.349   0.020   1.868 -0.0072 -0.0509 -0.1292
 1049W        W 5113   0.690   5.483   3.432 -0.2728 -0.2754 -0.0504
 1050W        W 5114   5.449   4.883   7.728 -0.1886  0.2486  0.2943
 1051W        W 5115   3.255   0.456   9.003  0.2709 -0.0546 -0.2737
 1052W        W 5116   7.127   0.414   8.283  0.1085  0.0268 -0.0248
 1053W        W 5117   2.334   3.317   0.200 -0.0246  0.2650 -0.0861
 1054W        W 5118   7.741   6.823   8.748  0.1351 -0.3820 -0.0252
 1055W        W 5119   8.660   1.959   3.996 -0.1127 -0.0864 -0.1616
 1056W        W 5120   8.683   1.476   1.824  0.0927 -0.2002  0.0081
 1057W        W 5121   7.409   7.379   1.726 -0.0242  0.1656 -0.3030
 1058W        W 5122   2.379   2.651  11.049  0.0119 -0.0922 -0.0552
 1059W        W 5123   0.665   0.501   2.900 -0.4336  0.1186 -0.0340
 1060W        W 5124   2.236   9.520   2.011  0.1700 -0.1084  0.1281
 1061W        W 5125  10.319   9.018   7.246  0.3637  0.0059 -0.1364
 1062W        W 5126   7.161   9.515  10.627 -0.3899 -0.3488 -0.5385
 1063W        W 5127   3.478   9.059   2.621  0.1898  0.1320  0.0127
 1064W        W 5128   1.576   1.450   0.702  0.6544  0.1172 -0.0010
 1065W        W 5129   7.490   6.953   8.300  0.1226 -0.2900  0.3002
 1066W        W 5130   5.436   1.430   0.568  0.0072 -0.1659  0.0824
 1067W        W 5131   3.094  10.444  10.307 -0.1987 -0.2918 -0.0346
 1068W        W 5132   3.751   6.548  10.684  0.0723 -0.2337 -0.3691
 1069W        W 5133   7.144   0.432   2.221 -0.0687  0.0355 -0.0047
 1070W        W 5134   0.825   4.504   1.574  0.1210  0.1720  0.1075
 1071W        W 5135   4.706   5.376   2.342  0.0479  0.0155  0.2735
 1072W        W 5136   4.832   3.307   0.512  0.2930 -0.0026 -0.1914
 1073W        W 5137   1.156   1.584   1.565 -0.0488 -0.2160  0.0621
 1074W        W 5138   1.246  10.678   0.792 -0.1226 -0.0192 -0.2949
 1075W        W 5139   0.408   5.721   7.796  0.2486  0.0956 -0.1594
 1076W        W 5140   1.531   6.821   0.100 -0.2440 -0.3000  0.1954
 1077W        W 5141  10.320   6.480   7.733  0.1798 -0.0386 -0.0900
 1078W        W 5142   8.322   7.135   8.511  0.3499 -0.1594 -0.0927
 1079W        W 5143   3.427   4.378   9.246  0.2094  0.0299  0.1182
 1080W        W 5144   5.116   0.376   3.443  0.1405  0.0501 -0.2898
 1081W        W 5145  10.765   5.731   0.117 -0.0187 -0.0612 -0.0330
 1082W        W 5146   1.800  10.416   1.894 -0.0658  0.0996  0.2242
 1083W        W 5147   4.862   4.621   6.874 -0.4573  0.1087  0.0293
 1084W        W 5148   0.477   2.634   8.931  0.1011 -0.0302  0.1141
 1085W        W 5149   7.567  10.331  11.097 -0.3889  0.1319  0.1482
 1086W        W 5150   0.286  10.273   8.479 -0.2469  0.0087  0.2526
 1087W        W 5151   5.746   6.180   8.130  0.0628 -0.0655  0.0997
 1088W        W 5152   2.545   5.053   2.179 -0.3939  0.1137  0.0708
 1089W        W 5153   4.886   0.770   3.786  0.0468  0.1602 -0.1120
 1090W        W 5154   2.801   1.726   9.955 -0.0051  0.0219 -0.0240
 1091W        W 5155   0.928   9.429   7.560 -0.1950 -0.0414 -0.1797
 1092W        W 5156   4.488   2.394   0.363  0.1756  0.1163  0.0278
 1093W        W 5157   6.083   5.513   8.065  0.0654 -0.1144 -0.3210
 1094W        W 5158   4.688   3.358   3.079 -0.1822  0.1272  0.1433
 1095W        W 5159   7.313   5.602   2.311 -0.1716 -0.0812 -0.0991
 1096W        W 5160   0.210   5.925   9.044  0.0084 -0.0247 -0.2058
 1097W        W 5161   9.702   9.364   8.911  0.0013 -0.0039  0.2664
 1098W        W 5162   0.555   9.885   9.840 -0.2516 -0.0024 -0.0572
 1099W        W 5163   1.383   8.186   8.871 -0.2331 -0.2067  0.1103
 1100W        W 5164   6.045   2.670   2.775  0.1552  0.1388  0.0109
 1101W        W 5165   9.632   3.537   1.385  0.0319  0.2375  0.2271
 1102W        W 5166   5.779   1.792  10.181  0.0493  0.0362  0.1211
 1103W        W 5167   3.360   2.118   2.105 -0.0337  0.4363 -0.1311
 1104W        W 5168   8.007   0.945   8.114 -0.0330 -0.1606  0.0655
 1105W        W 5169   2.709   0.710  10.856 -0.0686 -0.2574 -0.1831
 1106W        W 5170   5.575  10.643   8.835 -0.1994  0.1184 -0.0248
 1107W        W 5171   7.240   0.242   0.479 -0.3071 -0.0916  0.1816
 1108W        W 5172   6.793   6.953   8.005  0.2573 -0.0236 -0.1615
 1109W        W 5173   1.445   1.124   2.120  0.0449 -0.0811 -0.0419
 1110W        W 5174   5.708   3.418  10.414  0.1592 -0.3154 -0.5693
 1111W        W 5175   2.978   9.855   8.984  0.1561 -0.0989 -0.1674
 1112W        W 5176   5.974   1.887   8.964  0.0334  0.0245 -0.0822
 1113W        W 5177  10.277   9.869  10.935 -0.1105 -0.0038  0.2521
 1114W        W 5178  10.349   8.140   9.351  0.0207  0.1164 -0.0223
 1115W        W 5179   3.814   8.180  10.941  0.0707  0.0878  0.0208
 1116W        W 5180   8.785   6.368   1.980  0.0872  0.1121  0.3313
 1117W        W 5181   0.091   8.225   1.507  0.1425  0.1877  0.0962
 1118W        W 5182   4.367   1.388  10.990  0.0223 -0.3579 -0.1092
 1119W        W 5183   2.430   5.819   7.509  0.2326 -0.3661  0.0191
 1120W        W 5184   2.056   3.945  10.983 -0.1153  0.1862 -0.3385
 1121W        W 5185   3.008   3.122  10.006 -0.0077 -0.1560 -0.0757
 1122W        W 5186   9.189  10.082   7.776  0.2696  0.1343 -0.0119
 1123W        W 5187   3.212   2.152   1.165 -0.0118  0.1052  0.0042
 1124W        W 5188   1.400   0.838   7.721 -0.2297  0.1605  0.0433
 1125W        W 5189   7.193   9.054   9.277 -0.1029  0.0239  0.1354
 1126W        W 5190   0.463   8.310   2.935 -0.1593 -0.1304  0.0347
 1127W        W 5191   0.749   1.804  10.761  0.0089 -0.0153 -0.1035
 1128W        W 5192   5.352   9.297   8.035  0.2334  0.0387 -0.1106
 1129W        W 5193   6.124   9.758  10.338  0.0510  0.0874  0.1104
 1130W        W 5194   4.170   6.869   2.749  0.0261 -0.2768  0.1418
 1131W        W 5195   5.142   3.766   9.262  0.2274 -0.0803 -0.1511
 1132W        W 5196   9.551   7.083  11.128  0.0366  0.3192 -0.3729
 1133W        W 5197   2.000  10.224   1.442 -0.2526  0.0361  0.1181
 1134W        W 5198   2.386   7.804   7.391 -0.1774  0.3057  0.1393
 1135W        W 5199   7.474   3.416   9.902  0.1670 -0.0484  0.0406
 1136W        W 5200   0.490   2.467   7.962 -0.2594 -0.1247  0.0889
 1137W        W 5201   4.817   4.748   1.298 -0.0617 -0.0322  0.4358
 1138W        W 5202   6.826   6.366   3.879 -0.2769  0.0530  0.1396
 1139W        W 5203   4.865   2.782   8.617 -0.0115 -0.0423 -0.0046
 1140W        W 5204   9.134   1.843   1.667 -0.1159 -0.0957  0.3461
 1141W        W 5205   9.499   3.413   9.697 -0.1004  0.0047 -0.1252
 1142W        W 5206   9.549   9.498  10.514  0.1339  0.1394 -0.0655
 1143W        W 5207   8.730   1.983   7.900 -0.1272 -0.1149 -0.2819
 1144W        W 5208   4.195   6.287   9.361 -0.1706  0.0633 -0.1599
 1145W        W 5209   9.461   6.917   8.862  0.0305 -0.1146  0.1033
 1146W        W 5210   1.674   3.467   9.052 -0.1053  0.1228  0.1623
 1147W        W 5211   8.347   5.701   1.734  0.2353  0.1249 -0.0530
 1148W        W 5212   7.853   6.496  11.193 -0.0532  0.0195  0.1757
 1149W        W 5213   1.353   4.672   7.266 -0.2637  0.1676 -0.0528
 1150W        W 5214  10.395   6.653  10.195  0.0611  0.1647  0.3001
 1151W        W 5215   6.382  10.253   0.051 -0.1525  0.0466 -0.0900
 1152W        W 5216   9.459   1.016   8.364 -0.2010 -0.0397 -0.1618
 1153W        W 5217   7.976   0.040   9.475  0.0535  0.1160  0.2194
 1154W        W 5218   2.456  10.074   2.619  0.1189 -0.2908 -0.3581
 1155W        W 5219   6.476   2.640   1.701  0.2670  0.1577  0.0778
 1156W        W 5220  10.180   8.402   2.767  0.4670 -0.0008 -0.1101
 1157W        W 5221   4.284   1.075   1.526  0.0023  0.2733  0.1669
 1158W        W 5222   6.206   7.292  10.108 -0.0446 -0.1391 -0.3094
 1159W        W 5223   5.261   8.128   1.571 -0.0139 -0.0928  0.0121
 1160W        W 5224  10.246   5.554  10.594  0.2912 -0.0649 -0.0843
 1161W        W 5225   1.835   0.075   7.891 -0.1083 -0.1044  0.0990
 1162W        W 5226   0.796   7.380   2.904  0.1417 -0.1716 -0.1586
 1163W        W 5227   8.217   6.143   6.940 -0.1448 -0.0723 -0.0408
 1164W        W 5228   4.025   7.780   7.370  0.1706 -0.1206  0.1052
 1165W        W 5229   5.178  10.342  11.145  0.0926  0.1413 -0.1242
 1166W        W 5230   5.528  10.396   3.619 -0.0113 -0.1389 -0.0786
 1167W        W 5231   9.170   8.909   9.290  0.0032  0.0354 -0.2121
 1168W        W 5232   5.241  10.089   0.518 -0.0586 -0.1791 -0.1910
 1169W        W 5233   5.509   9.137  10.251  0.1360 -0.3823 -0.0016
 1170W        W 5234   0.282   8.787   0.094 -0.0020 -0.2076 -0.4059
 1171W        W 5235   6.215   8.337   9.298 -0.4260  0.2699  0.1965
 1172W        W 5236   7.320   9.043   1.730  0.0301 -0.2548  0.3310
 1173W        W 5237   8.395   5.892   8.777  0.2160 -0.1038  0.0923
 1174W        W 5238   9.580   3.813  11.213  0.1956 -0.0924 -0.0666
 1175W        W 5239   1.418   4.280   7.611 -0.0980 -0.1030  0.2048
 1176W        W 5240   7.189   8.595   2.848  0.0067  0.1620 -0.3299
 1177W        W 5241   8.771   8.354   9.973  0.3033  0.0693  0.2259
 1178W        W 5242   2.047   5.597  10.095 -0.3265  0.0375 -0.1072
 1179W        W 5243   7.812   7.509   7.569 -0.2248  0.3523  0.2387
 1180W        W 5244   0.585   8.431  10.892 -0.3337  0.1479  0.2941
 1181W        W 5245   7.397   1.878   1.760  0.0215 -0.0425 -0.0662
 1182W        W 5246   2.446  10.517   3.009  0.3058 -0.2548 -0.2205
 1183W        W 5247   4.366   1.901   3.637 -0.0388  0.3248  0.1291
 1184W        W 5248   8.025   9.575   1.315 -0.0744 -0.0338  0.0672
 1185W        W 5249   6.778   2.161   1.664  0.0245  0.1520  0.0259
 1186W        W 5250   5.137   6.769  10.898  0.2314  0.0664  0.0545
 1187W        W 5251   9.710   0.136  10.197  0.1619 -0.0127 -0.0007
 1188W        W 5252   6.765   2.603   7.547  0.4305  0.1425 -0.1957
 1189W        W 5253   1.621   6.993   1.456 -0.1447  0.1009  0.0890
 1190W        W 5254   5.274   2.329   3.196  0.0646 -0.1142 -0.0714
 1191W        W 5255   0.150   3.461   0.480  0.1860  0.0187  0.0576
 1192W        W 5256   5.125   8.133   9.579  0.3979 -0.0887 -0.0754
 1193W        W 5257  10.591   5.222   8.616 -0.1937 -0.1432  0.2496
 1194W        W 5258   7.225   9.572   0.003  0.1861 -0.1878 -0.1376
 1195W        W 5259   3.196   5.329   2.740  0.2169 -0.0171 -0.0491
 1196W        W 5260   3.793   5.262  10.105  0.2861 -0.3712  0.1799
 1197W        W 5261   8.197   3.854   8.523 -0.0048 -0.1023 -0.0063
 1198W        W 5262   8.695   4.239   2.474 -0.1021 -0.3374 -0.1338
 1199W        W 5263   1.456   6.851   9.305 -0.1799 -0.0148  0.0000
 1200W        W 5264   7.639   0.310   9.704 -0.2356  0.0305  0.0258
 1201W        W 5265   0.548  10.124   9.326 -0.2720  0.0573 -0.0835
 1202W        W 5266   2.385   2.424   9.281  0.1446  0.0568 -0.0001
 1203W        W 5267   3.884   8.764   0.505  0.0093  0.2741 -0.1501
 1204W        W 5268   9.516   3.170   8.362  0.3508  0.1432 -0.0812
 1205W        W 5269   9.967   5.179   7.059  0.1246 -0.0496  0.2811
 1206W        W 5270   1.382   8.784   9.915 -0.1623 -0.1489  0.1434
 1207W        W 5271   4.893   4.758   7.737 -0.1326 -0.0546  0.0152
 1208W        W 5272   5.094   5.226   2.083  0.0828  0.1143  0.2722
 1209W        W 5273   7.627   6.937  10.289 -0.0118 -0.0091 -0.3856
 1210W        W 5274   8.554   5.280  10.835  0.0859 -0.1306 -0.1225
 1211W        W 5275   4.839   9.875   8.764 -0.0521 -0.3253  0.2125
 1212W        W 5276  10.673   0.065   2.382 -0.0297  0.3845  0.0864
 1213W        W 5277   9.761   2.146   9.383  0.1302  0.1457  0.1181
 1214W        W 5278   9.024   8.135   0.500  0.1090  0.1770 -0.2430
 1215W        W 5279   3.271   8.153   9.678  0.1660 -0.0998 -0.1164
 1216W        W 5280   0.316   7.127  10.246 -0.0182  0.0198 -0.3552
 1217W        W 5281   1.890   4.381   7.705 -0.0064 -0.0297  0.5404
 1218W        W 5282   4.373   4.446  11.057 -0.1656  0.0154 -0.2520
 1219W        W 5283   3.658  10.393   1.748 -0.0208  0.0050 -0.0741
 1220W        W 5284   0.733   8.503   9.582  0.0193 -0.2708  0.1342
 1221W        W 5285   3.776   2.866   1.555  0.1124  0.0454  0.3880
 1222W        W 5286   4.771   0.974  10.723  0.2609  0.3632 -0.2663
 1223W        W 5287   2.453   1.825   1.872  0.2177 -0.1275  0.0282
 1224W        W 5288  10.077   5.685   1.407  0.2705 -0.0920 -0.0046
 1225W        W 5289   9.280   0.474   9.541  0.0808  0.0941 -0.1256
 1226W        W 5290   5.303   0.698   3.078  0.3146 -0.1662 -0.4042
 1227W        W 5291   9.291   6.156   9.854 -0.0789 -0.0681 -0.1389
 1228W        W 5292   8.676   5.143   8.391  0.1742  0.2237  0.4067
 1229W        W 5293   5.281   1.924   0.627  0.0591 -0.2671 -0.0097
 1230W        W 5294   4.437   7.456   9.184  0.1595  0.0716 -0.1527
 1231W        W 5295   7.748   0.038   8.995 -0.0841  0.1243 -0.0060
 1232W        W 5296   6.301   8.836   0.946 -0.0764  0.0240  0.0192
 1233W        W 5297   3.981   6.450   7.756  0.1083  0.0575  0.1453
 1234W        W 5298   7.727   1.188   9.124  0.1833  0.1321  0.1864
 1235W        W 5299   2.745   0.219  10.946  0.1398 -0.0361  0.0938
 1236W        W 5300   5.682   3.460   9.858 -0.2819 -0.2269  0.0212
 1237W        W 5301   0.795   9.901   2.860 -0.0782 -0.1362 -0.0571
 1238W        W 5302   7.325   3.708   8.723 -0.1194  0.0243 -0.0106
 1239W        W 5303   0.904   7.812  10.099  0.1384  0.1446  0.0814
 1240W        W 5304   1.945   4.278   8.386 -0.2596  0.3702  0.1980
 1241W        W 5305   3.182   0.803   0.454  0.1973 -0.0501  0.1012
 1242W        W 5306   9.243   7.477  11.114 -0.0851 -0.1079  0.2683
 1243W        W 5307   2.673   4.641   7.071  0.0743 -0.0353  0.0261
 1244W        W 5308  10.338   5.097  10.169 -0.0895 -0.2173  0.1232
 1245W        W 5309   9.652   6.314   0.121 -0.2417  0.2063 -0.0506
 1246W        W 5310   2.661   2.603   8.586 -0.0256  0.0982 -0.2965
 1247W        W 5311   7.813   4.322   1.432  0.0668 -0.0451 -0.1975
 1248W        W 5312   6.000   3.495   9.065  0.0262  0.0621  0.0778
 1249W        W 5313   2.581   1.351   7.763 -0.5145  0.3981 -0.0314
 1250W        W 5314   4.809   1.314   2.283  0.3462  0.1364  0.3043
 1251W        W 5315   8.473   8.636   1.405 -0.0631  0.0661  0.0843
 1252W        W 5316   1.602   2.138   1.170  0.1745  0.0643 -0.0465
 1253W        W 5317   8.631  10.292   1.588  0.2937  0.1201  0.0807
 1254W        W 5318  10.103  10.291  10.644  0.2944  0.1532 -0.0788
 1255W        W 5319   9.710   1.176   3.440 -0.1989 -0.1203 -0.1610
 1256W        W 5320   8.723   2.084   1.136  0.2744 -0.3323  0.1198
 1257W        W 5321   6.834   8.542   2.500 -0.1415  0.2921 -0.0827
 1258W        W 5322   3.385   8.855   8.539 -0.3679  0.0978 -0.0183
 1259W        W 5323   6.827   0.952   2.535 -0.0609  0.4394  0.0415
 1260W        W 5324   3.069   8.064   1.218  0.0640  0.3509  0.3191
 1261W        W 5325   6.717   1.249  10.700  0.2566 -0.1018 -0.1742
 1262W        W 5326   9.180   5.368   9.681 -0.1199 -0.2729  0.2121
 1263W        W 5327   3.123   1.276   2.297  0.2468  0.1201 -0.0420
 1264W        W 5328   9.265   7.934   9.098  0.1093 -0.0388  0.1061
 1265W        W 5329   6.421   5.420  10.179  0.0425 -0.1664 -0.0410
 1266W        W 5330   7.993   3.200   2.911 -0.1922 -0.2832 -0.0320
 1267W        W 5331   0.473   8.903   8.160 -0.1303 -0.4332  0.1667
 1268W        W 5332   7.685   0.935  10.475 -0.0915 -0.0596 -0.0457
 1269W        W 5333   6.608   1.842   3.645  0.0315 -0.0366 -0.0707
 1270W        W 5334   9.218   3.313  10.357 -0.3147  0.1721 -0.1249
 1271W        W 5335   5.243   3.427  10.743 -0.2612 -0.2221  0.2471
 1272W        W 5336   8.013   1.647   3.961  0.2964  0.0845  0.2212
 1273W        W 5337   0.611   3.204  10.566  0.2296 -0.0225  0.0190
 1274W        W 5338   6.358   2.891  11.254 -0.1464 -0.4870  0.1736
 1275W        W 5339  10.301  10.113   0.126  0.1150 -0.2641 -0.1489
 1276W        W 5340   3.386   4.905   1.112 -0.2283 -0.0091  0.1932
 1277W        W 5341   7.653   5.344   1.074  0.1803 -0.3452 -0.2463
 1278W        W 5342   7.138   6.599   8.211 -0.2291 -0.2219 -0.0133
 1279W        W 5343   3.025   1.322   1.743  0.1070  0.0862 -0.2998
 1280W        W 5344   5.593   5.161   2.870  0.1603  0.1460 -0.0598
 1281W        W 5345   9.816   7.519   0.095  0.1653  0.0121  0.1656
 1282W        W 5346   0.624   7.702   0.015  0.0380 -0.2598  0.0681
 1283W        W 5347   6.468   1.042   8.099  0.0511 -0.3109  0.2119
 1284W        W 5348   0.405   1.653   1.414 -0.2016 -0.0699 -0.0181
 1285W        W 5349   9.893   1.261   1.531 -0.3065  0.0248  0.0384
 1286W        W 5350   4.540   9.029   2.063 -0.0256 -0.2476 -0.2039
 1287W        W 5351   3.115   7.089  10.368  0.0752 -0.1536 -0.0445
 1288W        W 5352   8.071   5.435   7.056  0.1800 -0.1188 -0.2181
 1289W        W 5353   0.053   6.828  10.997  0.2106  0.0213  0.3005
 1290W        W 5354  10.674   5.301   2.372  0.0623  0.1639  0.0318
 1291W        W 5355   8.707   9.734  10.407  0.1095 -0.1278  0.2006
 1292W        W 5356   9.059  10.510   9.880 -0.1404 -0.0540  0.0470
 1293W        W 5357  10.074   5.297   7.938 -0.1829 -0.0656 -0.2824
 1294W        W 5358   4.612   3.151   2.084 -0.1058  0.0156  0.0636
 1295W        W 5359   9.017   9.800   1.403 -0.0810  0.0886 -0.1955
 1296W        W 5360   6.116   9.387   9.753 -0.2568 -0.1192 -0.1424
 1297W        W 5361   4.240   9.526   0.616  0.1442  0.0887  0.1030
 1298W        W 5362   5.013   8.026  10.495 -0.0687  0.1230 -0.5112
 1299W        W 5363   1.704   4.400  10.087 -0.0462  0.2463 -0.2895
 1300W        W 5364   7.567   6.307   3.027 -0.0681 -0.0895  0.1450
 1301W        W 5365   7.518   1.671   0.410  0.3555  0.1157  0.2319
 1302W        W 5366   1.010   9.187   0.539 -0.0390 -0.0906  0.3339
 1303W        W 5367   4.781   0.366   9.408 -0.2716  0.2426  0.1282
 1304W        W 5368   6.462   2.072   0.024 -0.2862 -0.1576 -0.2503
 1305W        W 5369   5.713   2.232   0.698 -0.0748  0.2233 -0.1779
 1306W        W 5370   8.510   9.046  10.947  0.0910  0.2261 -0.5843
 1307W        W 5371   7.099   7.753   9.419 -0.0632 -0.0035  0.2714
 1308W        W 5372   9.957   3.897   7.764 -0.0262 -0.0042 -0.4997
 1309W        W 5373  10.116   4.642   0.446 -0.0130  0.3296 -0.2110
 1310W        W 5374   8.205   4.881   8.975  0.0653 -0.1525 -0.1258
 1311W        W 5375   9.373   5.728  10.531 -0.0016  0.0780  0.1098
 1312W        W 5376   3.659   9.849   8.254  0.0522  0.3931  0.2921
 1313W        W 5377   1.062   4.677   2.040  0.1421  0.1641 -0.2168
 1314W        W 5378   5.110   3.751   0.282 -0.0006 -0.0388 -0.0422
 1315W        W 5379   2.263   8.821   7.096  0.1175  0.2467 -0.0013
 1316W        W 5380   6.597   5.994   8.663 -0.1526 -0.0261  0.2408
 1317W        W 5381   6.032   8.402   3.542 -0.0088 -0.0261  0.0867
 1318W        W 5382   8.410   8.754   9.817 -0.1791  0.2522 -0.3229
 1319W        W 5383   7.938  10.146  10.054 -0.1512  0.2659 -0.5023
 1320W        W 5384   4.649  10.312   7.365 -0.0254  0.2092  0.1127
 1321W        W 5385   1.284   0.074  10.771  0.0365 -0.2765 -0.1599
 1322W        W 5386   1.974   0.872   8.348  0.1187 -0.3671  0.2689
 1323W        W 5387   3.653   0.484   2.061 -0.2487 -0.0204 -0.0324
 1324W        W 5388   9.582   9.793   0.125  0.2669  0.1276 -0.0507
 1325W        W 5389   3.503   1.225   1.917 -0.0601 -0.2058  0.1124
 1326W        W 5390   9.045   5.063   1.939  0.1087  0.1652 -0.2344
 1327W        W 5391   1.580   3.783   8.435  0.0798  0.0427  0.2018
 1328W        W 5392   2.861   6.814  10.772  0.1353  0.1576  0.0344
 1329W        W 5393   8.923   4.097  10.534  0.0539 -0.1860 -0.1666
 1330W        W 5394   3.831   0.934  11.096  0.0631  0.2369  0.2186
 1331W        W 5395   4.214   3.325   2.782 -0.0433  0.1311 -0.1021
 1332W        W 5396   0.629   6.963   9.039  0.0637 -0.0834 -0.0614
 1333W        W 5397   0.760   1.337   1.584 -0.1879 -0.1856  0.0145
 1334W        W 5398   6.072   6.314  10.016  0.3150  0.0093  0.2798
 1335W        W 5399   7.973   9.773  11.159 -0.3082 -0.1914  0.2775
 1336W        W 5400   5.388   2.934   2.484  0.0039 -0.2793 -0.1010
 1337W        W 5401  10.680   0.876   2.014 -0.2323  0.0296 -0.1721
 1338W        W 5402   4.174   3.326   2.206 -0.2079 -0.0778 -0.2080
 1339W        W 5403   7.557   4.089   2.336 -0.2060  0.1838  0.0076
 1340W        W 5404   3.957   1.275  10.136 -0.3145  0.0929 -0.1565
 1341W        W 5405   7.273   5.088  10.056 -0.0622  0.0381  0.1807
 1342W        W 5406   7.905  10.693   2.618 -0.1470  0.1583  0.0584
 1343W        W 5407   8.150   4.551   9.497  0.2332 -0.1077  0.1640
 1344W        W 5408   5.747   0.260  10.236  0.1578  0.4899  0.0062
 1345W        W 5409  10.706   1.020   1.302  0.1773 -0.0424 -0.1742
 1346W        W 5410   2.580   7.148   0.049 -0.0168  0.2064 -0.1469
 1347W        W 5411   0.977   1.344  10.776  0.2325  0.1565 -0.0612
 1348W        W 5412   0.011   8.049   2.783 -0.2208 -0.0927 -0.2205
 1349W        W 5413   2.254   4.944   7.897 -0.0722  0.0657  0.3850
 1350W        W 5414   0.383   8.742   9.963  0.4196  0.1605  0.0196
 1351W        W 5415  10.067   7.034   0.946 -0.0282  0.2142  0.0073
 1352W        W 5416   0.774   6.085  10.809  0.3589 -0.0286 -0.3849
 1353W        W 5417   8.268   7.889   9.313 -0.2288  0.1722  0.1376
 1354W        W 5418   6.909  10.410   2.949 -0.2938 -0.1425 -0.3173
 1355W        W 5419   3.753   5.776   1.315 -0.0314 -0.1114 -0.1895
 1356W        W 5420   3.327   4.388   0.344  0.1518  0.1771  0.1524
 1357W        W 5421   1.755  10.153  10.612 -0.0465 -0.2084 -0.2726
 1358W        W 5422   0.570   3.747   0.369 -0.0792  0.2184 -0.1651
 1359W        W 5423   4.930   7.937   1.141  0.0020  0.0409  0.2018
 1360W        W 5424   4.897   6.729   2.322  0.1183  0.1966 -0.1298
 1361W        W 5425   5.020   7.461   9.538  0.0151  0.1827  0.0567
 1362W        W 5426   6.939   6.946   8.535  0.0001  0.1222 -0.4051
 1363W        W 5427   0.083  10.256   9.291  0.0134  0.3822 -0.1957
 1364W        W 5428   5.418   5.841   0.330 -0.0198 -0.0805  0.3080
 1365W        W 5429   0.506   3.485   0.834  0.1018  0.1112 -0.0663
 1366W        W 5430   6.748   3.070   1.844 -0.0635  0.2017 -0.0845
 1367W        W 5431   0.019   6.139   2.486  0.2651 -0.2089 -0.1763
 1368W        W 5432   9.448   4.653  10.601 -0.0624  0.2313 -0.1606
 1369W        W 5433   8.812   9.144   0.752 -0.2439 -0.1902 -0.0287
 1370W        W 5434   2.803   9.503   9.296 -0.0988 -0.0313 -0.2869
 1371W        W 5435   6.808   2.386  10.399 -0.0098 -0.0428 -0.3200
 1372W        W 5436   8.421   3.003   8.781 -0.4721 -0.1157  0.0397
 1373W        W 5437   9.350   2.969   7.492 -0.1054  0.0809  0.1922
 1374W        W 5438   1.994   7.888   8.204  0.2811  0.1217  0.0879
 1375W        W 5439   3.718   9.162   1.470 -0.1037  0.3689  0.0069
 1376W        W 5440   0.564   4.451   1.027 -0.3133  0.1902 -0.3386
 1377W        W 5441   4.067   0.228   3.235  0.1152 -0.0710 -0.1588
 1378W        W 5442   6.310   1.284   2.336 -0.2929 -0.1534 -0.2209
 1379W        W 5443   4.731   1.571   3.695  0.0024  0.0290  0.2343
 1380W        W 5444   0.227  10.613   0.154 -0.0630 -0.0222 -0.3977
 1381W        W 5445   1.247  10.392   0.277  0.1303 -0.0411  0.1578
 1382W        W 5446   8.771   9.689   9.756  0.0265  0.1352  0.3436
 1383W        W 5447   3.736   8.688   0.011  0.1538 -0.1238  0.2050
 1384W        W 5448  10.504   4.699   0.750 -0.0865  0.0343  0.0850
 1385W        W 5449   9.652   0.246   7.523  0.2043  0.1782  0.0065
 1386W        W 5450   9.821   0.800   0.176  0.1058  0.0369 -0.3148
 1387W        W 5451   2.391   7.725   6.858 -0.2364  0.1884  0.1285
 1388W        W 5452   9.563  10.259   9.770 -0.0472  0.0110 -0.0541
 1389W        W 5453  10.263   0.210   7.884 -0.1454  0.0763  0.0420
 1390W        W 5454   1.422   0.114   7.609 -0.1328  0.2366 -0.1361
 1391W        W 5455   0.579   5.393   1.306 -0.1570  0.0709 -0.1690
 1392W        W 5456   8.199   5.892   1.210 -0.0362 -0.1611  0.1118
 1393W        W 5457   6.613   2.825   0.941  0.0232 -0.2298 -0.0111
 1394W        W 5458   7.383   0.346   0.953 -0.2889 -0.0552  0.3361
 1395W        W 5459   5.673   9.914   1.258  0.0694 -0.1194  0.2481
 1396W        W 5460  10.555   0.329   7.459  0.3904 -0.1062 -0.0481
 1397W        W 5461   2.744   5.217   0.447 -0.3900  0.0395 -0.0002
 1398W        W 5462   0.527  10.751  11.060 -0.2201  0.0688 -0.1225
 1399W        W 5463   2.012   2.129   1.580 -0.1242  0.2852  0.1681
 1400W        W 5464   3.433   4.513   1.866  0.0156 -0.0819  0.0894
 1401W        W 5465   8.068   4.761   1.501 -0.1036 -0.2750  0.3863
 1402W        W 5466  10.216  10.093   7.743 -0.0916 -0.0298  0.0983
 1403W        W 5467   6.825   1.995   0.395  0.2203  0.0366  0.0648
 1404W        W 5468   8.412   5.796   0.132  0.0847  0.3325 -0.4642
 1405W        W 5469   9.893   0.991   2.982 -0.2922  0.2468 -0.0625
 1406W        W 5470   8.814   7.034   3.403 -0.2514  0.2203  0.2453
 1407W        W 5471   9.348  10.338   9.009  0.2882  0.0265 -0.3925
 1408W        W 5472   8.362   5.237   7.879 -0.3167 -0.3414  0.1513
 1409W        W 5473   9.152   7.069   7.919  0.1591 -0.0006 -0.2017
 1410W        W 5474   9.171   7.249   3.008 -0.1739 -0.2506 -0.0633
 1411W        W 5475   5.505   8.057   0.646  0.3021 -0.0586 -0.1930
 1412W        W 5476   5.684   5.214  10.742 -0.1429 -0.0786 -0.0788
 1413W        W 5477   1.775   3.941   7.467  0.0441  0.0320  0.1919
 1414W        W 5478   5.866   0.346   1.977  0.3054  0.0699  0.0352
 1415W        W 5479   2.995   8.575   1.882 -0.2453  0.1142  0.0271
 1416W        W 5480   9.560   5.280  10.493 -0.3403  0.0295 -0.1629
 1417W        W 5481   6.131   5.553   3.046 -0.0900 -0.2492  0.2682
 1418W        W 5482  10.122   7.028  10.031 -0.1862  0.3852 -0.1011
 1419W        W 5483   0.678   5.717  10.522  0.0336  0.0642 -0.0043
 1420W        W 5484   9.864   6.976   6.728  0.0259  0.1842  0.2583
 1421W        W 5485   7.515   4.590   0.429 -0.0368  0.1045 -0.1591
 1422W        W 5486   9.972   2.164  10.645 -0.2937  0.2009  0.2326
 1423W        W 5487   6.764   7.996   0.332 -0.3814 -0.2489 -0.3957
 1424W        W 5488   3.962   2.742   2.398 -0.0362  0.0242  0.1412
 1425W        W 5489   9.498   7.292   2.644 -0.1416  0.0458 -0.0276
 1426W        W 5490   3.462   7.076   9.909  0.0871  0.3524 -0.1947
 1427W        W 5491   4.590   6.676  11.233  0.4282  0.0162 -0.0454
 1428W        W 5492   6.781   5.595   9.498  0.4923  0.2128  0.2850
 1429W        W 5493   9.101   1.044   3.641 -0.2575  0.0217  0.0918
 1430W        W 5494   1.514   4.573   0.810  0.2319  0.1655 -0.1158
 1431W        W 5495   7.843   3.884  10.645  0.2118  0.0185 -0.0098
 1432W        W 5496   2.659   6.464   1.316  0.0616 -0.0631  0.3811
 1433W        W 5497   8.130   1.024   2.761 -0.0963 -0.1780 -0.1393
 1434W        W 5498   2.708   6.872   1.048 -0.0815 -0.4596 -0.0145
 1435W        W 5499   3.612   9.254   8.703  0.4746 -0.3549 -0.1860
 1436W        W 5500   6.280   8.651   2.567 -0.1357 -0.1433 -0.2206
 1437W        W 5501   3.510  10.534   7.721  0.1032  0.0512  0.0907
 1438W        W 5502  10.406   6.182   8.447 -0.2470  0.0286  0.1483
 1439W        W 5503   6.668   4.015  10.015 -0.1715  0.0772  0.1739
 1440W        W 5504   1.074   6.694   0.531  0.2234 -0.2935 -0.2171
 1441W        W 5505   2.728   2.305  10.124  0.0280  0.3190  0.0928
 1442W        W 5506   0.699  10.578   8.551  0.0421  0.1049  0.1406
 1443W        W 5507   5.880   6.254   2.838 -0.2427 -0.2141 -0.0008
 1444W        W 5508   5.952   9.086   2.554 -0.3435 -0.0228 -0.0203
 1445W        W 5509   6.587  10.133   1.113  0.2307  0.2265 -0.1775
 1446W        W 5510  10.238   3.154   9.207  0.2589  0.3325  0.0322
 1447W        W 5511  10.253   4.596   8.896  0.3560 -0.0418 -0.4131
 1448W        W 5512   3.987   6.235   8.844 -0.6410  0.1236 -0.0215
 1449W        W 5513   3.423   8.363  10.614 -0.0190 -0.0098 -0.2744
 1450W        W 5514   0.730   3.536  10.160  0.2227 -0.0036  0.0148
 1451W        W 5515  10.004   5.937   8.698 -0.1998  0.0245  0.0122
 1452W        W 5516   8.581   9.723   1.661  0.0857  0.1459  0.0807
 1453W        W 5517  10.025   5.107   0.129  0.1446 -0.0859  0.1406
 1454W        W 5518   5.303   7.851   9.193  0.2641 -0.3458 -0.0362
 1455W        W 5519   4.754   0.058  10.332 -0.0039  0.2655  0.0004
 1456W        W 5520   0.197   7.395   1.150 -0.0606 -0.1457 -0.3845
 1457W        W 5521   5.518   7.371   3.582  0.0630  0.3018 -0.0137
 1458W        W 5522   5.104  10.199   8.446 -0.2544  0.0592  0.0355
 1459W        W 5523   5.902  10.558   3.355 -0.1191 -0.2358 -0.0288
 1460W        W 5524  10.546   3.305  10.438  0.0396  0.2816  0.1616
 1461W        W 5525   8.057   6.218   0.209  0.0612 -0.2130 -0.0710
 1462W        W 5526   6.647   3.955   9.481  0.0280  0.2373  0.1423
 1463W        W 5527   4.916   2.061   2.855  0.3264 -0.0919 -0.1832
 1464W        W 5528   5.110   7.970   2.047 -0.3443  0.0131 -0.4233
 1465W        W 5529   3.784   3.328   9.192  0.1941  0.1362 -0.0004
 1466W        W 5530   2.405   7.360   1.440 -0.0622 -0.0378 -0.0237
 1467W        W 5531   4.931   6.399   9.015 -0.0481  0.2545 -0.1151
 1468W        W 5532   8.558   0.893   7.926 -0.1870 -0.0334 -0.1646
 1469W        W 5533   1.894   1.686   1.058  0.0658 -0.2891  0.1872
 1470W        W 5534   5.177   7.339  10.073 -0.0446  0.0246 -0.0336
 1471W        W 5535   5.074   0.203   2.958 -0.1452 -0.2080 -0.1078
 1472W        W 5536   4.862   1.958   1.456  0.1617 -0.4654 -0.2986
 1473W        W 5537   7.666   5.978   0.495  0.1786  0.0970  0.1102
 1474W        W 5538   4.559   1.038   8.791 -0.1211 -0.0736 -0.3481
 1475W        W 5539   7.372  10.713   9.495  0.0687  0.0065 -0.2514
 1476W        W 5540   4.804   7.177  10.953 -0.0638  0.3054 -0.0350
 1477W        W 5541   2.602   5.197   2.774  0.2062  0.0902 -0.2033
 1478W        W 5542   8.596   4.030   0.871  0.0382 -0.2054 -0.2812
 1479W        W 5543   7.640   4.197   8.544 -0.2361 -0.5014  0.0275
 1480W        W 5544   9.073   3.540   0.676  0.0172  0.1391  0.3337
 1481W        W 5545  10.238   9.791   8.644  0.3409  0.1012 -0.0965
 1482W        W 5546   4.750   7.120   7.504 -0.0580 -0.0848  0.0608
 1483W        W 5547   2.117   3.002  10.289  0.3440  0.1903  0.2111
 1484W        W 5548   7.109   9.858   2.217  0.0869  0.0942  0.5503
 1485W        W 5549  10.683   5.271   0.825 -0.0264 -0.0062 -0.2385
 1486W        W 5550   8.901   2.625   9.978  0.2525 -0.1368 -0.4072
 1487W        W 5551   6.960   7.710   8.078 -0.0884 -0.1882 -0.0709
 1488W        W 5552   8.452   4.515  11.296  0.1319  0.0016  0.3132
 1489W        W 5553   2.398  10.388   1.786 -0.0177 -0.3096 -0.1578
 1490W        W 5554   2.282   6.068   0.077  0.3423  0.2610  0.0996
 1491W        W 5555   0.176   4.325  10.156  0.0618  0.0232  0.2765
 1492W        W 5556   6.223  10.097  10.731  0.1434 -0.3125 -0.3256
 1493W        W 5557   3.354   2.651   1.921  0.0978 -0.2911 -0.0803
 1494W        W 5558   1.788   7.613   9.385 -0.0065 -0.0346  0.3488
 1495W        W 5559   0.732   8.891  11.168 -0.0657  0.2206  0.0760
 1496W        W 5560   7.183   9.889   1.223  0.1597  0.0511  0.3244
 1497W        W 5561  10.740   4.302  11.169  0.3639 -0.4952  0.0161
 1498W        W 5562   7.155   5.789   7.876 -0.1789  0.1633 -0.3214
 1499W        W 5563   8.562  10.515   9.917  0.0782 -0.0136  0.1366
 1500W        W 5564   3.926   8.205   2.976 -0.2701  0.5060 -0.3608
 1501W        W 5565   0.694   1.783   9.606  0.1570 -0.4139 -0.2627
 1502W        W 5566   6.198   4.070   9.755 -0.1592 -0.2082 -0.1849
 1503W        W 5567   1.534   2.927   7.442  0.1816  0.3524  0.0945
 1504W        W 5568   6.700   3.119   2.378 -0.1538  0.0512  0.4107
 1505W        W 5569   2.764   6.145   0.130 -0.1326 -0.0425 -0.0444
 1506W        W 5570   8.037   6.192  10.229 -0.0924  0.2009  0.2088
 1507W        W 5571  10.615   0.722   9.544 -0.1494  0.0907 -0.2162
 1508W        W 5572   9.443   7.847   7.860  0.0775 -0.1630  0.4079
 1509W        W 5573   7.069   1.956   8.648 -0.0514 -0.0038  0.0246
 1510W        W 5574   9.045   8.711   0.668 -0.3740 -0.0818  0.1399
 1511W        W 5575   8.144   8.488   3.719 -0.0941 -0.1323  0.0482
 1512W        W 5576   6.002   9.836   8.516  0.1955 -0.1306  0.0853
 1513W        W 5577   8.596   8.989   8.324  0.0408  0.1703 -0.0518
 1514W        W 5578   2.892   6.440   8.170 -0.2670 -0.1365  0.1485
 1515W        W 5579   3.448   9.590   0.197 -0.2816  0.0317 -0.0312
 1516W        W 5580   8.634   1.297   9.040  0.4486 -0.0936  0.0729
 1517W        W 5581   0.285   9.689   9.375 -0.2493  0.3392 -0.0349
 1518W        W 5582   9.039   9.496  10.701 -0.0842 -0.2211 -0.0327
 1519W        W 5583   5.515   8.639  11.126  0.0914  0.2773  0.0941
 1520W        W 5584   0.791   0.624   7.389 -0.1093 -0.1732  0.0914
 1521W        W 5585   4.309   1.904   2.716 -0.0914 -0.2208  0.2834
 1522W        W 5586   9.669   6.262   0.597  0.2570 -0.2934 -0.1065
 1523W        W 5587   2.475   8.304  10.797 -0.2874  0.1946  0.3734
 1524W        W 5588   9.995   2.699   9.776 -0.0737  0.0485 -0.3037
 1525W        W 5589   9.874   8.767   2.967 -0.1607  0.0374  0.2797
 1526W        W 5590   4.757   9.883   8.250  0.3216  0.1092 -0.1796
 1527W        W 5591   4.110   0.028   1.379 -0.2230 -0.3381  0.0100
 1528W        W 5592   4.387   5.806   0.684 -0.4883 -0.1632  0.2147
 1529W        W 5593   4.283   6.358  10.806  0.2323  0.0447 -0.1042
 1530W        W 5594   5.588   9.674  10.581  0.2130 -0.0942 -0.3167
 1531W        W 5595   0.630   2.629   2.440 -0.0295 -0.2076 -0.1998
 1532W        W 5596   7.618   1.753   2.494 -0.4031  0.0892 -0.0752
 1533W        W 5597   7.050   8.646   9.679 -0.1120  0.2483 -0.1355
 1534W        W 5598   1.656   7.405   6.387  0.3759 -0.0068 -0.1492
 1535W        W 5599   7.751  10.420   9.297 -0.0324 -0.0388  0.3256
 1536W        W 5600   1.251   9.819   8.500 -0.1625  0.1495  0.2467
 1537W        W 5601   7.700   5.130   8.917  0.2296 -0.2256  0.0460
 1538W        W 5602   1.447   2.298  10.014  0.1048  0.2790  0.1186
 1539W        W 5603   4.715   1.508   2.755  0.0159 -0.0203 -0.1391
 1540W        W 5604   2.402   2.235   8.225  0.0030 -0.1649  0.0914
 1541W        W 5605   8.500   4.084   9.403 -0.3426 -0.3228 -0.1882
 1542W        W 5606  10.360   8.993  10.594  0.1465  0.0617  0.2532
 1543W        W 5607   9.954   0.909   8.990  0.1985  0.0168  0.1755
 1544W        W 5608   0.248   7.071   9.679 -0.1931  0.1384  0.2964
 1545W        W 5609   8.220   3.557  11.263 -0.3328 -0.0606 -0.0017
 1546W        W 5610   6.856   4.369   1.437  0.0381  0.1980 -0.0163
 1547W        W 5611   2.884   5.955   9.650 -0.1660 -0.1311 -0.0524
 1548W        W 5612   4.267   8.500   1.895 -0.2615  0.0302  0.0407
 1549W        W 5613   0.273   3.265   3.117  0.2685  0.0372  0.0873
 1550W        W 5614   7.409   3.108   8.170 -0.2045 -0.0283 -0.6311
 1551W        W 5615   9.358   5.273   2.307 -0.0579  0.1272 -0.0285
 1552W        W 5616   6.723   9.004   1.743 -0.0289 -0.1393  0.0917
 1553W        W 5617   1.113   4.548   2.618  0.1533 -0.2481  0.1086
 1554W        W 5618  10.440   3.997   1.102 -0.0397 -0.0912 -0.1791
 1555W        W 5619   3.583   4.644   6.813 -0.4053  0.3208 -0.1081
 1556W        W 5620   2.188   3.934   9.355  0.0340  0.1322  0.0931
 1557W        W 5621   9.788   6.000   9.913 -0.1461  0.2359 -0.0743
 1558W        W 5622   9.065   4.875   1.391 -0.1315 -0.3297 -0.1536
 1559W        W 5623   3.057   3.471  10.873 -0.0558 -0.2802 -0.0550
 1560W        W 5624   8.251   4.532   1.909  0.0212  0.1039 -0.3119
 1561W        W 5625   6.237   9.295  11.089 -0.1288  0.1994  0.0550
 1562W        W 5626   5.085   8.923   7.861 -0.2954  0.0100  0.2052
 1563W        W 5627   9.723   8.540   8.521 -0.1926 -0.0935  0.0945
 1564W        W 5628  10.659   9.628   8.416  0.0299  0.3127 -0.0903
 1565W        W 5629   7.033   7.052   9.522 -0.0048  0.0878 -0.2450
 1566W        W 5630   6.380   2.259  10.564 -0.1414  0.1259 -0.2780
 1567W        W 5631  10.428   7.416   8.810  0.1366 -0.1596  0.0052
 1568W        W 5632   2.367   5.953   1.601  0.2137  0.0106 -0.2639
 1569W        W 5633   7.205   8.158   8.526  0.2598 -0.0595 -0.1585
 1570W        W 5634   4.734   4.082   0.550 -0.2442  0.3108 -0.1153
 1571W        W 5635   9.947   2.530   0.305  0.2071  0.0803  0.0777
 1572W        W 5636   5.878   5.569   1.503 -0.0701 -0.0800  0.1396
 1573W        W 5637   5.463   9.770   0.860 -0.1409  0.0217 -0.2485
 1574W        W 5638   5.413   2.596   8.424 -0.0004 -0.0210  0.0603
 1575W        W 5639   3.921   4.503   3.403 -0.2166  0.1302 -0.0940
 1576W        W 5640   1.321   8.233   2.024 -0.4438 -0.2486  0.0847
 1577W        W 5641   1.351   5.832   8.744 -0.1153 -0.3118 -0.0435
 1578W        W 5642   0.381   8.936   0.655  0.1641 -0.2861 -0.2063
 1579W        W 5643   1.943   0.426   1.517 -0.3356 -0.4124  0.2655
 1580W        W 5644   0.414   2.315   2.757 -0.2469  0.1096  0.2031
 1581W        W 5645   8.459   7.496   0.308 -0.0383  0.1459  0.0993
 1582W        W 5646   1.241   6.897   7.590 -0.3286  0.1882  0.1785
 1583W        W 5647   7.706   7.935  10.600  0.2742  0.3399  0.0528
 1584W        W 5648   6.462   3.923   2.062 -0.1951  0.3697  0.1826
 1585W        W 5649  10.649   8.161   0.788 -0.2625  0.0563 -0.0386
 1586W        W 5650   0.168   4.404   2.323  0.0143  0.0317 -0.0147
 1587W        W 5651   1.628   3.463   7.622 -0.0263  0.1020 -0.1104
 1588W        W 5652  10.104   1.173   7.622 -0.0800  0.2397  0.0231
 1589W        W 5653   2.570   1.393  10.852  0.1050 -0.0781  0.1321
 1590W        W 5654   4.281   8.711  10.970  0.1501 -0.1969  0.0209
 1591W        W 5655   5.301   5.840   3.483  0.3075  0.2736 -0.0494
 1592W        W 5656   1.769   1.339  11.052  0.4699 -0.0236  0.0150
 1593W        W 5657   3.000   0.250   9.431 -0.0492 -0.3480 -0.4860
 1594W        W 5658   3.379   6.541   0.610  0.0182 -0.3269  0.0018
 1595W        W 5659   3.143   9.278   8.901  0.0544 -0.1204  0.0779
 1596W        W 5660   8.927   1.498   1.409 -0.0475  0.0366  0.2257
 1597W        W 5661  10.436   3.418   0.166  0.1975 -0.0053  0.2998
 1598W        W 5662   2.153  10.740   2.721 -0.1722  0.0656  0.0954
 1599W        W 5663   2.553   9.191   8.946  0.1951 -0.2145 -0.2827
 1600W        W 5664   9.855   0.763   7.748 -0.1064  0.0760  0.0141
 1601W        W 5665   0.738   5.408   2.674  0.0180 -0.2873  0.1079
 1602W        W 5666   6.123   0.268   3.339 -0.0399  0.0562 -0.0367
 1603W        W 5667   6.333   4.126   8.738 -0.0073  0.3087  0.1603
 1604W        W 5668   5.734   4.368   0.765 -0.0790 -0.0803  0.0562
 1605W        W 5669   3.425   3.187   8.708  0.0315  0.0288  0.0261
 1606W        W 5670   3.226   0.582   3.229 -0.2793 -0.2620  0.0227
 1607W        W 5671   3.973   6.554   1.802 -0.0025 -0.1601 -0.0789
 1608W        W 5672   4.682  10.514   2.956 -0.0665 -0.0291  0.1664
 1609W        W 5673   7.973   9.322   2.744  0.0930  0.0964  0.0626
 1610W        W 5674   3.630   8.946   3.404  0.1011 -0.1544  0.1946
 1611W        W 5675   9.698   0.479   9.240  0.2011 -0.1595 -0.0006
 1612W        W 5676   8.669   0.758   9.383 -0.0903 -0.0572  0.0274
 1613W        W 5677   5.727   9.954   8.075 -0.0852  0.1788  0.1283
 1614W        W 5678   4.604   7.126   2.475 -0.1159 -0.1623  0.0277
 1615W        W 5679   4.544   7.272   0.094  0.1107  0.2434  0.1879
 1616W        W 5680   5.558   9.529   9.683 -0.1416  0.1860 -0.1697
 1617W        W 5681   7.664   0.573   2.018  0.0879  0.1129 -0.0778
 1618W        W 5682   9.227   2.335   2.377  0.1470  0.2792  0.0220
 1619W        W 5683   5.899   9.110   0.768 -0.2931  0.3113  0.1799
 1620W        W 5684   7.522   3.362   1.515  0.0950  0.1140  0.0115
 1621W        W 5685   7.170   2.393   9.578  0.0307  0.0572 -0.0234
 1622W        W 5686   4.790   2.401   3.259  0.2996 -0.0525 -0.2489
 1623W        W 5687   3.849   9.285   7.658 -0.0804 -0.1661 -0.0550
 1624W        W 5688   5.317  10.203   1.012  0.1731 -0.0468  0.1879
 1625W        W 5689   5.150   2.947   0.890 -0.0432  0.0424  0.1421
 1626W        W 5690   2.176   4.556   7.197 -0.2814  0.0775  0.1922
 1627W        W 5691   1.919   3.550   2.441  0.0532  0.0775  0.0166
 1628W        W 5692   6.348   0.700   3.175 -0.1142 -0.2574  0.2584
 1629W        W 5693   2.860   3.893   1.956 -0.0312 -0.3386 -0.0077
 1630W        W 5694   3.587   5.083   8.742 -0.1281  0.0913  0.0684
 1631W        W 5695   3.453   5.727   7.574 -0.0353  0.0762  0.3241
 1632W        W 5696   0.715   2.386   9.378 -0.0798 -0.3904 -0.1385
 1633W        W 5697   8.933   5.388  10.290  0.1853  0.0289  0.2495
 1634W        W 5698   8.109   2.623  10.935  0.2783  0.2086  0.0950
 1635W        W 5699   2.525   8.685   8.627 -0.0800 -0.0405  0.0529
 1636W        W 5700   4.848   2.023   8.700  0.2917 -0.1934 -0.3996
 1637W        W 5701   4.158   0.592   0.132  0.1751 -0.0308 -0.2060
 1638W        W 5702   6.175  10.485   0.804 -0.2286 -0.1774  0.1302
 1639W        W 5703   1.113   9.895  11.171 -0.3225 -0.2229 -0.3373
 1640W        W 5704   7.119   1.526  10.883  0.1210  0.2007  0.0238
 1641W        W 5705   0.790   5.246  10.589 -0.4666  0.0127  0.4222
 1642W        W 5706   5.006   0.005   9.156  0.3259 -0.1310 -0.0079
 1643W        W 5707   5.554   5.496   9.508  0.0872  0.0254 -0.1032
 1644W        W 5708   1.409   5.488   1.207 -0.1435 -0.0369 -0.1708
 1645W        W 5709   9.557   8.143   0.665  0.0994 -0.2052 -0.0812
 1646W        W 5710   0.864   3.715   7.379  0.0439 -0.2287 -0.0762
 1647W        W 5711   0.921   4.048   0.048 -0.0243 -0.2182 -0.0994
 1648W        W 5712   1.433   2.045   7.834 -0.0492  0.1494  0.0218
 1649W        W 5713   8.918   6.427   2.477 -0.0786  0.1339 -0.3830
 1650W        W 5714   9.169   1.055   2.463  0.1605  0.2321  0.0069
 1651W        W 5715  10.412   6.591   0.031 -0.0868 -0.5090 -0.1332
 1652W        W 5716   3.223   2.300   0.693 -0.2705  0.0452 -0.0074
 1653W        W 5717   8.203   4.942  11.117 -0.1035 -0.2514  0.0360
 1654W        W 5718  10.674   0.289   0.307  0.2753  0.0576 -0.0070
 1655W        W 5719   1.709   4.519   9.152  0.2611 -0.1179  0.2250
 1656W        W 5720   2.927  10.509   0.903  0.1301  0.1291  0.0199
 1657W        W 5721  10.633   5.360   9.115  0.2561 -0.0877 -0.0583
 1658W        W 5722   5.627   0.399   3.448  0.0521  0.0362  0.2093
 1659W        W 5723   8.511   1.316   0.525  0.0069 -0.0121  0.0808
 1660W        W 5724   1.072   4.554   1.117 -0.0394 -0.0409 -0.4284
 1661W        W 5725  10.576   6.564   1.682 -0.0307  0.0260  0.4742
 1662W        W 5726   9.910  10.740   0.147 -0.0678  0.0891 -0.1443
 1663W        W 5727   7.758   0.020  11.181  0.2451  0.3560  0.2442
 1664W        W 5728   2.093   6.947   1.762  0.2879 -0.0499 -0.0912
 1665W        W 5729   1.212   8.909   0.135 -0.1393  0.2940  0.0198
 1666W        W 5730   3.002   4.367  10.678  0.1108 -0.1773  0.1117
 1667W        W 5731   5.961   9.502   8.090 -0.2390 -0.0125  0.0193
 1668W        W 5732   1.328   9.289   8.527  0.0147 -0.1007  0.1320
 1669W        W 5733   4.726   6.670   8.578 -0.2451  0.2241 -0.4984
 1670W        W 5734   1.989   4.794   8.266 -0.0232  0.3059 -0.2898
 1671W        W 5735   6.352   1.522   9.082  0.2617 -0.0446  0.2257
 1672W        W 5736   0.657   0.579  10.392 -0.0677  0.2441  0.0664
 1673W        W 5737   1.093   3.550   3.042  0.3847  0.0064  0.3597
 1674W        W 5738   2.909   2.962   7.622  0.0929  0.1251  0.0075
 1675W        W 5739   4.240   5.424   9.234  0.2329 -0.1687  0.0117
 1676W        W 5740   3.394   2.299   2.639 -0.0802 -0.3792 -0.0432
 1677W        W 5741   6.815   9.363  10.309  0.1997 -0.1715 -0.3880
 1678W        W 5742   1.253  10.615   9.033 -0.0597  0.2011 -0.1414
 1679W        W 5743   6.626   1.523   0.231 -0.0700 -0.0699  0.0140
 1680W        W 5744   7.292   8.116  10.418 -0.0641 -0.0477 -0.1296
 1681W        W 5745   5.014   4.269   8.382  0.0297  0.1531  0.4203
 1682W        W 5746   2.044   9.718   1.291 -0.1022  0.0163  0.1895
 1683W        W 5747  10.482   9.313   1.452 -0.3393 -0.0582  0.0204
 1684W        W 5748   0.506   7.879   7.238 -0.2054 -0.1006 -0.0267
 1685W        W 5749   0.267   0.019  10.635  0.1739 -0.5171 -0.0432
 1686W        W 5750   4.752   7.486   7.055 -0.0862  0.1597 -0.2199
 1687W        W 5751   6.900   1.296   8.252 -0.0514 -0.1905 -0.2012
 1688W        W 5752   4.155   3.604  11.133 -0.2965 -0.0728 -0.1406
 1689W        W 5753   0.898   6.381   9.853  0.1149 -0.1692  0.0909
 1690W        W 5754   1.318   7.288   8.101 -0.1315 -0.2546 -0.3515
 1691W        W 5755   5.741   8.130   8.606  0.2527  0.0462  0.2114
 1692W        W 5756   0.404   7.882  10.147 -0.1606 -0.1343 -0.3488
 1693W        W 5757   0.837  10.677   2.149 -0.0846 -0.3264  0.1249
 1694W        W 5758   5.955   5.870   7.737  0.0256 -0.0231 -0.0598
 1695W        W 5759   1.352   7.929  10.312 -0.0374  0.0344  0.1678
 1696W        W 5760   9.618   7.358   7.231  0.0749 -0.1130 -0.0768
 1697W        W 5761   7.470   4.236  10.781 -0.1294 -0.0190  0.0336
 1698W        W 5762   5.276  10.746   0.879  0.0175 -0.2196  0.0476
 1699W        W 5763   7.559   8.825   0.365  0.0428  0.2067 -0.1432
 1700W        W 5764   2.820   1.582   2.571  0.0261 -0.0786  0.2034
 1701W        W 5765   1.914   2.608   1.475  0.1218  0.0667 -0.2612
 1702W        W 5766  10.694   9.180   7.642 -0.3157 -0.0323 -0.0781
 1703W        W 5767   9.203   3.027   9.859 -0.2923  0.0914 -0.1363
 1704W        W 5768   3.709   0.393   1.117  0.1216  0.3196  0.1912
 1705W        W 5769   8.907   0.487   0.726 -0.1781 -0.0915  0.2677
 1706W        W 5770   8.176   0.952   2.282  0.0596 -0.1133  0.0384
 1707W        W 5771   0.889   6.821   7.278 -0.0675  0.1583 -0.1276
 1708W        W 5772   4.516   7.714   1.345  0.2555 -0.2761 -0.1642
 1709W        W 5773  10.088   9.877  10.409  0.1849  0.1420 -0.3373
 1710W        W 5774   4.114   5.833  10.737 -0.1169 -0.0590 -0.1881
 1711W        W 5775   2.801   7.201   8.784  0.0440 -0.1958 -0.2548
 1712W        W 5776   9.580   3.178   1.755  0.3009  0.1954  0.0093
 1713W        W 5777   2.597   8.212   8.474 -0.1494  0.1571  0.0101
 1714W        W 5778   9.451   4.380   9.548 -0.0912  0.2003  0.0672
 1715W        W 5779   6.359   5.484   2.343 -0.2272 -0.2129  0.1319
 1716W        W 5780   0.424   7.280   0.277 -0.2213 -0.2154 -0.0584
 1717W        W 5781   9.220  10.333   2.331  0.3922 -0.1989 -0.0414
 1718W        W 5782   6.192   9.001   8.137  0.0084 -0.2402 -0.1712
 1719W        W 5783   4.759   2.589  10.529  0.0936  0.0646  0.1681
 1720W        W 5784  10.241   9.515   9.626  0.0202  0.1132 -0.0364
 1721W        W 5785   2.853   5.222  10.379 -0.3369  0.0912 -0.1230
 1722W        W 5786  10.637   0.579  10.068 -0.2704  0.0343  0.2415
 1723W        W 5787   1.553   1.090   8.170 -0.2983  0.0038  0.4075
 1724W        W 5788   9.650   9.071   8.290  0.2938  0.0779 -0.0652
 1725W        W 5789   2.783   3.278  10.457  0.3899 -0.1769  0.0750
 1726W        W 5790   7.856   9.625   9.268 -0.3492 -0.0629 -0.0338
 1727W        W 5791   1.608   2.757   0.526 -0.1043 -0.1659 -0.2763
 1728W        W 5792   3.079   7.726   0.861  0.0038  0.2605 -0.0423
 1729W        W 5793   4.580   6.764   3.594  0.3821 -0.2767  0.0912
 1730W        W 5794   1.242   9.405   6.400  0.2609 -0.1484  0.1525
 1731W        W 5795   8.835   2.962  10.752  0.2530  0.0998  0.1766
 1732W        W 5796   4.512   7.096   0.592  0.1632 -0.2122  0.0896
 1733W        W 5797   0.153  10.446   2.238  0.2256  0.0900 -0.2527
 1734W        W 5798  10.654   9.641   1.851 -0.0271  0.0794  0.0437
 1735W        W 5799   5.799   7.681   2.363 -0.2500 -0.2192 -0.1943
 1736W        W 5800   6.046   1.731   2.558 -0.1887  0.0431  0.0753
 1737W        W 5801   5.036   1.956   3.514 -0.4618  0.2929  0.0268
 1738W        W 5802   7.590   8.313  10.827 -0.4589 -0.0020  0.2309
 1739W        W 5803   6.061   7.431   7.711  0.3689  0.1470  0.0704
 1740W        W 5804   6.234   8.946   9.481  0.2098  0.1847 -0.1167
 1741W        W 5805   7.238  10.247   9.318  0.1075  0.2229 -0.1806
 1742W        W 5806   1.283   8.803   8.840  0.0257  0.2484  0.2573
 1743W        W 5807  10.269   6.164   9.731  0.0235 -0.0462 -0.1044
 1744W        W 5808   7.685   4.860   9.793  0.5304 -0.0996  0.0752
 1745W        W 5809   6.213   9.075   2.001  0.2191 -0.0489  0.1486
 1746W        W 5810   0.365   3.977   9.915 -0.1956  0.0249  0.3702
 1747W        W 5811   1.311   1.230   3.021  0.2057 -0.0013  0.0270
 1748W        W 5812   6.784   7.708   2.682 -0.4038  0.1776 -0.1322
 1749W        W 5813   8.977   5.072   7.092 -0.2208 -0.0584 -0.1082
 1750W        W 5814   2.935   4.320   9.337 -0.2206 -0.1427  0.1547
 1751W        W 5815   0.050   9.176   8.465 -0.0544  0.1500 -0.4343
 1752W        W 5816   1.114   3.402   1.576  0.0357 -0.1026 -0.2280
 1753W        W 5817   9.496  10.067   1.267  0.0707  0.0703 -0.0152
 1754W        W 5818   6.830   0.734  10.595  0.0191  0.1555  0.1663
 1755W        W 5819   4.853  10.349   0.733 -0.4827  0.0794 -0.0280
 1756W        W 5820   8.898   1.637   9.457 -0.0740  0.2242  0.2133
 1757W        W 5821   2.323   1.348   9.226 -0.1644  0.1146 -0.0261
 1758W        W 5822   2.624   9.050   7.980  0.3140 -0.2058 -0.1890
 1759W        W 5823   8.774   4.515   1.598 -0.0457  0.1178 -0.1285
 1760W        W 5824   2.425   7.293   2.081  0.0666  0.0117  0.1403
 1761W        W 5825   6.706   3.713  11.125 -0.1122  0.1649  0.0530
 1762W        W 5826   1.550   8.305  10.047 -0.0866 -0.2256 -0.1026
 1763W        W 5827   2.150   6.166   9.227  0.0104  0.1467 -0.0346
 1764W        W 5828   4.468   4.152   9.969 -0.0859 -0.2423 -0.1481
 1765W        W 5829   7.743   2.122   9.711  0.1399  0.4201  0.1292
 1766W        W 5830   9.372  10.591   2.853 -0.0438  0.1166 -0.0549
 1767W        W 5831   6.091  10.217   1.224 -0.0257  0.1764  0.0527
 1768W        W 5832   6.701   3.478   3.004  0.1687 -0.1002  0.1867
 1769W        W 5833   4.386   1.738   8.715 -0.1158  0.0384  0.0843
 1770W        W 5834   2.118   0.172   0.674  0.3436 -0.0573 -0.0578
 1771W        W 5835   2.443   1.515   0.953 -0.1073  0.1028 -0.1678
 1772W        W 5836  10.064   3.748   9.564  0.0099  0.0302 -0.1156
 1773W        W 5837   4.601   5.656   9.455  0.1645  0.2302 -0.0838
 1774W        W 5838   8.142   2.287   1.773  0.3159  0.1285  0.0819
 1775W        W 5839   6.459   9.407   7.864 -0.0633 -0.1595  0.0796
 1776W        W 5840   1.132   4.578   0.470 -0.0689 -0.0054 -0.0102
 1777W        W 5841  10.692   2.567  10.410  0.0449  0.0719 -0.0974
 1778W        W 5842   3.706   4.011   9.450 -0.2271  0.2028 -0.0810
 1779W        W 5843   8.594  10.339   0.736 -0.0601 -0.1994  0.2152
 1780W        W 5844   4.411   8.160   8.835  0.0907  0.1213  0.0950
 1781W        W 5845   6.998   3.298   8.571 -0.3579 -0.0444  0.2318
 1782W        W 5846   7.576   6.412   0.262 -0.0577 -0.0221 -0.0715
 1783W        W 5847   5.873   0.130   0.414  0.0979 -0.2693  0.2614
 1784W        W 5848   1.939   7.908   7.171  0.0560 -0.0480  0.1226
 1785W        W 5849   1.350   5.254  10.802 -0.2195 -0.3323 -0.2123
 1786W        W 5850   2.914   7.466   8.083  0.0620  0.0714  0.2854
 1787W        W 5851  10.197   8.899  11.096  0.0559 -0.0577 -0.2162
 1788W        W 5852   3.054   6.233   1.562  0.1353  0.0519 -0.0998
 1789W        W 5853   1.821  10.538   7.509 -0.0322 -0.0422 -0.2427
 1790W        W 5854   6.534   0.855   9.773 -0.1810  0.2801 -0.1514
 1791W        W 5855   1.206   9.792   7.351  0.2396 -0.1905 -0.0716
 1792W        W 5856   9.647   2.722   3.407 -0.1981 -0.0490  0.0939
 1793W        W 5857   2.148   1.323   1.884  0.0814  0.1725 -0.0396
 1794W        W 5858   1.720   4.845   9.560 -0.0538  0.1108 -0.2601
 1795W        W 5859   6.929   1.515   8.759 -0.0019 -0.1331 -0.3569
 1796W        W 5860   6.768   2.339   8.793 -0.1655  0.2157 -0.2018
 1797W        W 5861   8.633   6.875   9.857  0.0371  0.0051  0.0090
 1798W        W 5862   2.922   1.690   7.692 -0.0648 -0.1476  0.0763
 1799W        W 5863   8.936  10.758   1.627 -0.2129 -0.0790  0.0965
 1800W        W 5864   8.751   4.482   9.656  0.2174  0.0140 -0.0861
 1801W        W 5865   6.986   3.918   1.088  0.1477 -0.0009  0.1720
 1802W        W 5866   6.737   5.914  10.896 -0.1061 -0.2793  0.2456
 1803W        W 5867   9.854   5.922  10.895  0.1403  0.1776 -0.0218
 1804W        W 5868   6.675   0.468   2.494  0.1400 -0.3715  0.0247
 1805W        W 5869   0.075   7.012   1.473 -0.1474 -0.0928 -0.2784
 1806W        W 5870   3.991   3.059   9.628  0.1882  0.3059 -0.0213
 1807W        W 5871   1.907   1.089   9.093  0.1158 -0.1759 -0.1202
 1808W        W 5872   0.477   8.802   2.925  0.0846 -0.0736 -0.0073
 1809W        W 5873   0.064   5.201   1.308  0.2461 -0.1574 -0.1448
 1810W        W 5874   4.689   7.641   8.170 -0.0862  0.3022 -0.0666
 1811W        W 5875   5.132   7.650   0.687 -0.1066  0.0480 -0.2098
 1812W        W 5876   9.697   3.606   2.972  0.2838  0.0974  0.2939
 1813W        W 5877   7.923   8.211   9.161 -0.1765  0.1887 -0.1732
 1814W        W 5878   2.962   9.891   7.728 -0.1085  0.0972  0.5852
 1815W        W 5879   1.350   4.084  10.327 -0.0840 -0.1964 -0.3212
 1816W        W 5880   1.102   8.018   1.671 -0.1972 -0.1031  0.0811
 1817W        W 5881   2.804   0.334   0.508 -0.0965 -0.1213 -0.3371
 1818W        W 5882   4.131   2.949  10.169  0.1059 -0.0170 -0.1822
 1819W        W 5883   3.085   4.260   1.152 -0.0402  0.0097 -0.1788
 1820W        W 5884   9.755   9.776   8.406  0.3966 -0.0208  0.0585
 1821W        W 5885   0.780   3.745   9.675  0.1424 -0.0919  0.0576
 1822W        W 5886   3.773   6.975   3.027 -0.0839  0.4598 -0.0953
 1823W        W 5887   6.248  10.567   9.192 -0.1619  0.0991 -0.2834
 1824W        W 5888   3.621   4.477  10.336  0.0705 -0.1878 -0.1228
 1825W        W 5889   3.124   0.083   7.392 -0.0443 -0.0913 -0.3916
 1826W        W 5890   3.449  10.089   0.260  0.1019  0.2363  0.0790
 1827W        W 5891   1.238   5.743   7.534 -0.1620  0.2977 -0.2244
 1828W        W 5892   1.393  10.110   9.255 -0.3444 -0.1368 -0.2159
 1829W        W 5893   6.796   0.266   0.818 -0.0943  0.0251 -0.2079
 1830W        W 5894   3.247   6.140   7.420 -0.0115 -0.1126  0.0541
 1831W        W 5895   2.125   9.185   9.998  0.1675 -0.2622 -0.0857
 1832W        W 5896   2.884   7.243   2.236  0.1011  0.2639  0.0871
 1833W        W 5897   8.633   0.177  11.170 -0.0334  0.0460  0.0737
 1834W        W 5898   3.344   3.333   7.001 -0.5202 -0.0196  0.1610
 1835W        W 5899  10.542  10.605   1.960  0.1750 -0.0322  0.0055
 1836W        W 5900   0.464   2.957  11.095 -0.1976 -0.1581  0.0909
 1837W        W 5901   8.457   3.965  10.387  0.0763  0.2179 -0.2054
 1838W        W 5902   4.385   4.059   9.431  0.2428  0.0042 -0.1584
 1839W        W 5903   5.250   4.412   7.917  0.1954  0.4635 -0.3071
 1840W        W 5904   4.706  10.279   0.223  0.0465 -0.3367  0.2397
 1841W        W 5905   4.308   2.790   1.341  0.0177 -0.1380  0.2470
 1842W        W 5906   0.194   1.773   6.757  0.1658 -0.1642  0.1990
 1843W        W 5907   1.321   8.445   0.440  0.0283 -0.0572 -0.2766
 1844W        W 5908   9.121   2.527   1.110  0.0224 -0.3765  0.0638
 1845W        W 5909   7.748  10.086   1.766 -0.5624  0.2743 -0.0980
 1846W        W 5910   1.732   8.593   9.040  0.2246 -0.1834  0.0665
 1847W        W 5911   8.551   0.823  10.943  0.1066  0.0581 -0.0540
 1848W        W 5912   1.877   7.114  11.057 -0.2731  0.0242 -0.1336
 1849W        W 5913   0.246   9.631   0.463  0.1315 -0.3023  0.0086
 1850W        W 5914   8.901   2.662   0.523 -0.1007  0.0309 -0.0612
 1851W        W 5915   8.730   2.108   0.013 -0.0729  0.1533  0.0365
 1852W        W 5916   1.377   1.667   1.987  0.0784 -0.2473 -0.1310
 1853W        W 5917   7.081  10.239   0.916  0.1970 -0.3014  0.0925
 1854W        W 5918   8.921   2.376  10.433 -0.1458  0.0396  0.1632
 1855W        W 5919   2.137   8.874   8.214  0.1901  0.3275  0.1238
 1856W        W 5920   0.841   7.553   1.203  0.2019  0.1347  0.3188
 1857W        W 5921   7.169   6.600   2.268 -0.0994 -0.2573 -0.1896
 1858W        W 5922   8.776   7.544   3.786 -0.4934 -0.1324 -0.1321
 1859W        W 5923  10.414   8.080   3.147 -0.0680 -0.3283  0.0341
 1860W        W 5924   9.901   1.484   0.329 -0.2056  0.1867 -0.3535
 1861W        W 5925   3.510   1.126  10.753 -0.0514 -0.0654 -0.1401
 1862W        W 5926   9.438   1.753   9.513  0.2618  0.0304  0.1067
 1863W        W 5927   8.294   7.190   9.627  0.1595 -0.0397  0.2234
 1864W        W 5928   6.986   3.540  10.732 -0.2228  0.0689  0.0225
 1865W        W 5929  10.142   6.368   8.878 -0.0717 -0.3321 -0.3005
 1866W        W 5930   0.288   5.717   1.006  0.0645  0.0082  0.0404
 1867W        W 5931   7.473   4.742   7.733 -0.1141 -0.0862 -0.2341
 1868W        W 5932   3.126   6.111   6.940  0.0671 -0.0703  0.1573
 1869W        W 5933   3.248   1.464   2.956  0.0611  0.0185 -0.0985
 1870W        W 5934   7.809   1.404  10.085 -0.0308  0.1882  0.1785
 1871W        W 5935   5.391  10.773   3.294 -0.0907 -0.0997 -0.1243
 1872W        W 5936   6.674   7.137  10.155 -0.2988  0.1130 -0.0224
 1873W        W 5937   3.063   6.519   1.004 -0.1238  0.2733 -0.3527
 1874W        W 5938   4.972   4.390   9.798  0.0462 -0.4585 -0.0215
 1875W        W 5939   1.478   0.318  10.392 -0.2578  0.0884 -0.1843
 1876W        W 5940   9.895   4.412   7.591 -0.1569 -0.1250  0.0717
 1877W        W 5941   5.244   0.396   8.113  0.2689 -0.0213  0.0383
 1878W        W 5942   5.146   3.543   8.837  0.1277 -0.1971 -0.1558
 1879W        W 5943   5.188   1.307   8.741 -0.1960 -0.1343  0.2208
 1880W        W 5944   7.315   0.847   9.080 -0.0465 -0.0963 -0.0653
 1881W        W 5945   5.894   2.373   3.259  0.0784 -0.1989 -0.2435
 1882W        W 5946   2.751   0.129   3.153  0.1553 -0.1038 -0.0225
 1883W        W 5947   9.529  10.230   1.946  0.0950  0.0231  0.3081
 1884W        W 5948   1.133   2.595  11.080  0.0024 -0.1469 -0.0394
 1885W        W 5949   7.665   0.358   2.847 -0.0860 -0.2103 -0.2803
 1886W        W 5950   8.194   2.215   9.389  0.0931  0.0555  0.0378
 1887W        W 5951   1.261   4.212   8.455  0.2250  0.3096 -0.0915
 1888W        W 5952   1.072  10.027   6.772  0.1950  0.0248  0.0618
 1889W        W 5953   6.350   9.124   8.947  0.2424  0.1324  0.4420
 1890W        W 5954   0.820   6.151   7.537  0.2363  0.1049 -0.1841
 1891W        W 5955   4.375   3.872   2.293  0.0200  0.1610 -0.0225
 1892W        W 5956   3.132   8.658   0.246 -0.2360 -0.0436 -0.1927
 1893W        W 5957   9.183   9.214   2.972  0.0442 -0.2063 -0.1756
 1894W        W 5958   4.689   0.250   8.835 -0.0703 -0.1484 -0.0528
 1895W        W 5959   4.164   6.128   2.099 -0.0789  0.1511 -0.1345
 1896W        W 5960   9.475   4.217   2.025  0.2118 -0.3302 -0.1762
 1897W        W 5961   7.087   6.062   7.263 -0.2097 -0.0525 -0.0698
 1898W        W 5962   9.339   1.249   1.447 -0.2442 -0.2312 -0.1063
 1899W        W 5963   5.790   4.766   9.161  0.1004  0.0189  0.0975
 1900W        W 5964   4.033   1.736  10.986  0.0368  0.0272  0.1061
 1901W        W 5965   9.421   9.083  10.303  0.2504 -0.1640 -0.2069
 1902W        W 5966   3.454   3.743   2.873  0.4772 -0.0885 -0.0362
 1903W        W 5967   6.548   7.045   9.697  0.0237  0.0595 -0.0846
 1904W        W 5968   7.670   8.929  11.148  0.2477  0.2206  0.3516
 1905W        W 5969   2.022   7.904   3.948  0.2183 -0.0388 -0.1065
 1906W        W 5970   7.272   5.053  10.896 -0.0038 -0.0121  0.3632
 1907W        W 5971   8.427   0.975   3.213 -0.2106  0.0147 -0.2317
 1908W        W 5972   8.599   0.801   2.605 -0.1545 -0.0193 -0.2821
 1909W        W 5973   8.602   2.478   0.888 -0.0559  0.1602  0.0203
 1910W        W 5974   2.748   5.042  11.277  0.1110 -0.0251 -0.0478
 1911W        W 5975   2.464   3.035   8.383 -0.0100 -0.1629 -0.3252
 1912W        W 5976   3.808   1.190   0.503 -0.0835 -0.0963 -0.1595
 1913W        W 5977   4.855   6.057   0.720 -0.3822  0.1789  0.0259
 1914W        W 5978   1.538   4.989   1.110 -0.2185 -0.1260 -0.0019
 1915W        W 5979   8.994   1.157   9.350  0.2299 -0.1268 -0.0442
 1916W        W 5980   8.608   8.778  10.289 -0.2413 -0.1915  0.0907
 1917W        W 5981   1.273  10.092   0.723  0.0558  0.1458  0.0354
 1918W        W 5982   0.046   8.306   0.303  0.0683  0.0405 -0.0342
 1919W        W 5983   3.003   9.430   7.933 -0.0393  0.1644  0.2247
 1920W        W 5984   9.001   5.891   9.537 -0.0148  0.1247  0.2236
 1921W        W 5985   2.181   1.009   7.891 -0.0190  0.1941  0.3342
 1922W        W 5986   2.468   2.703   2.711  0.2197 -0.0426 -0.0556
 1923W        W 5987   5.244   5.509   3.064 -0.2692 -0.2317 -0.1568
 1924W        W 5988   0.019   6.363   7.850  0.3685 -0.3502 -0.4533
 1925W        W 5989   1.198  10.620   2.814  0.0520  0.1615 -0.0630
 1926W        W 5990   3.747  10.775   2.124  0.2843  0.1288  0.0059
 1927W        W 5991   0.198   3.413   9.434 -0.1078 -0.1631 -0.1329
 1928W        W 5992   2.607   0.211   7.863 -0.0365  0.1994  0.0908
 1929W        W 5993   4.075   6.053   8.009 -0.0891  0.0167  0.0193
 1930W        W 5994   1.250   5.223   2.063  0.3249  0.1431  0.0651
 1931W        W 5995   1.724   9.945   7.342 -0.1636 -0.1184  0.1407
 1932W        W 5996   2.185   5.246   2.454 -0.1619 -0.2051 -0.1626
 1933W        W 5997   2.764   5.914   8.247 -0.0848  0.0738  0.3237
 1934W        W 5998   4.424   2.198  10.305 -0.1599 -0.1265 -0.0891
 1935W        W 5999   5.573   4.971   0.190  0.2075 -0.1114  0.0504
 1936W        W 6000   6.772   6.224  10.276 -0.1535 -0.1489 -0.3155
 1937W        W 6001   3.371   1.075   1.229  0.1452  0.2485  0.3203
 1938W        W 6002   2.363   1.242   9.967  0.0997 -0.1455 -0.1532
 1939W        W 6003   7.883   2.986   1.293  0.0947 -0.2558  0.3103
 1940W        W 6004   4.233   5.654   2.087 -0.3938 -0.2320 -0.2154
 1941W        W 6005   6.348   9.307   2.438  0.4197 -0.0354  0.3206
 1942W        W 6006   0.019   2.469   9.901  0.0040 -0.1102 -0.0987
 1943W        W 6007   4.582   9.207  11.012 -0.0681  0.3858  0.2242
 1944W        W 6008   8.936  10.741   0.803  0.0633 -0.0238  0.0597
 1945W        W 6009   2.555   0.557   2.149  0.0323 -0.0659  0.0413
 1946W        W 6010   7.073   5.242   8.221  0.1962 -0.2699 -0.2010
 1947W        W 6011  10.130   3.872   8.241 -0.1607 -0.2719 -0.0670
 1948W        W 6012   9.014   8.989   2.587  0.3136  0.2467 -0.0651
 1949W        W 6013   6.056   3.339   3.516 -0.1972  0.1679  0.0927
 1950W        W 6014   1.085   5.823   2.488 -0.0835 -0.0541 -0.3230
 1951W        W 6015   6.076   2.076   1.190  0.1603 -0.1222  0.1510
 1952W        W 6016   9.108   1.590   2.413  0.1052 -0.1972 -0.1641
 1953W        W 6017   9.492   6.631   7.997 -0.1203  0.2763 -0.0847
 1954W        W 6018   8.893  10.479   1.196 -0.0004 -0.0430 -0.4745
 1955W        W 6019   8.905   7.838   1.666 -0.1080 -0.0388 -0.1869
 1956W        W 6020   0.478   3.998  10.413  0.0907  0.1994  0.0441
 1957W        W 6021   0.729   6.945   9.859  0.2108 -0.1626 -0.1751
 1958W        W 6022  10.387   9.338   8.893  0.3414 -0.3367  0.1521
 1959W        W 6023   0.882   7.552   8.262  0.0002  0.2701 -0.1942
 1960W        W 6024   4.500   1.091   3.559  0.0549  0.0117  0.2333
 1961W        W 6025   7.604   2.782   9.047  0.1322  0.0325  0.3629
 1962W        W 6026   0.646   7.607  10.841 -0.0942  0.2649  0.0938
 1963W        W 6027   0.715   7.691   7.731 -0.1325 -0.1647  0.0691
 1964W        W 6028   8.117   8.860  10.408 -0.0162  0.2886  0.2057
 1965W        W 6029   7.366   1.677   9.016 -0.1634  0.0050  0.0701
 1966W        W 6030   9.878   9.438   0.407  0.1093  0.1639  0.0315
 1967W        W 6031   5.064  10.570   1.853 -0.4729 -0.1056  0.1229
 1968W        W 6032   2.731   8.741  11.098 -0.0182  0.0740 -0.0839
 1969W        W 6033   7.888  10.462   3.098 -0.2944 -0.0127 -0.0274
 1970W        W 6034   4.429   8.788   9.675 -0.0364 -0.0611  0.2701
 1971W        W 6035   2.206  10.583   1.074 -0.1565 -0.1476 -0.1329
 1972W        W 6036   2.307   0.209   8.825 -0.2114 -0.2313  0.1645
 1973W        W 6037   5.770  10.153  10.695 -0.0212 -0.2507  0.0799
 1974W        W 6038   4.077   3.886  10.146  0.1150  0.0283 -0.3030
 1975W        W 6039   9.255   6.478   2.835 -0.2442 -0.0287  0.0096
 1976W        W 6040   9.780   2.898   0.692 -0.2404  0.0736 -0.1155
 1977W        W 6041   7.249   4.447   2.227 -0.0652  0.0604 -0.0180
 1978W        W 6042   5.601   5.134   7.327  0.0470  0.1040  0.3617
 1979W        W 6043   4.928   3.301   9.979 -0.0412 -0.1186 -0.0393
 1980W        W 6044   0.424   8.998  10.812 -0.0502  0.1715  0.1516
 1981W        W 6045   1.902  10.657   9.699  0.0242 -0.4398 -0.3150
 1982W        W 6046   1.548   0.126   1.707 -0.0308 -0.1543  0.2688
 1983W        W 6047   2.032  10.644   8.751 -0.0887  0.1529  0.3270
 1984W        W 6048   0.871   4.997   3.463 -0.0941 -0.0079 -0.5303
 1985W        W 6049   1.569  10.161   6.651  0.1968  0.2815  0.3150
 1986W        W 6050   3.859   4.667   1.074 -0.3752  0.0985  0.1607
 1987W        W 6051   2.830   5.112   1.102  0.0170  0.2367 -0.2339
 1988W        W 6052   1.635   3.125   9.425  0.0830 -0.1199 -0.1631
 1989W        W 6053  10.309   8.892   2.578  0.2550  0.0874  0.1601
 1990W        W 6054   9.761   0.255   7.997 -0.0424 -0.1100 -0.2649
 1991W        W 6055   5.602   7.239   3.118  0.0660 -0.0981 -0.0988
 1992W        W 6056   7.058   6.381  10.725 -0.1386  0.3849 -0.2149
 1993W        W 6057   4.572   4.756   8.895 -0.2107  0.0136 -0.1611
 1994W        W 6058   0.946   5.457   7.150  0.0138 -0.0206 -0.2085
 1995W        W 6059   1.763   8.995   0.902 -0.0777  0.2512  0.2732
 1996W        W 6060   1.490   4.942   0.231  0.1644 -0.1998 -0.0312
 1997W        W 6061   3.367   8.501   2.170  0.0042  0.1864 -0.2199
 1998W        W 6062   7.447   3.676  10.860  0.1810  0.1132 -0.0938
 1999W        W 6063   4.490  10.143   1.898 -0.0628 -0.2391  0.1100
 2000W        W 6064   5.794   9.475   1.603  0.1802 -0.0377  0.0723
 2001W        W 6065   0.029   2.605   0.423 -0.2293 -0.0041 -0.0738
 2002W        W 6066   8.472   2.627   9.501 -0.1421 -0.0520  0.1294
 2003W        W 6067   3.782   8.805  10.341  0.0195 -0.0206 -0.1415
 2004W        W 6068   6.640   1.132   8.740  0.3416 -0.3383  0.2747
 2005W        W 6069   9.456   8.515   1.523  0.3813 -0.1237 -0.1861
 2006W        W 6070   9.778  10.290   3.536  0.1365 -0.1544 -0.1445
 2007W        W 6071   8.430   3.551   1.050 -0.1398  0.0319 -0.1391
 2008W        W 6072   4.419   6.437   3.190  0.3344  0.0641  0.0103
 2009W        W 6073   4.646   0.063   8.378 -0.1121  0.2657 -0.0065
 2010W        W 6074   0.297   0.958   9.859  0.0217 -0.3794  0.1360
 2011W        W 6075   5.773   4.161  10.291 -0.0368  0.0128 -0.0866
 2012W        W 6076   3.238   4.812  11.126  0.2469  0.2569 -0.1015
 2013W        W 6077  10.537   0.561   2.469 -0.0426 -0.0697 -0.0350
 2014W        W 6078  10.086   2.640   9.302 -0.2414  0.1843 -0.0267
 2015W        W 6079   9.523   7.205   8.269 -0.1420  0.1084 -0.1059
 2016W        W 6080   3.516   1.923   2.977  0.2043  0.2481 -0.0599
 2017W        W 6081   6.394   3.302   0.801  0.2534  0.1500 -0.6103
 2018W        W 6082   1.224   2.095   1.800  0.0256 -0.2919 -0.1318
 2019W        W 6083   8.550  10.367   0.233 -0.3577  0.3198 -0.1726
 2020W        W 6084   9.415   8.951   8.726  0.2107  0.1842 -0.0485
 2021W        W 6085   6.378   7.670   1.075 -0.0205  0.0839  0.1582
 2022W        W 6086   5.327   6.436   2.307  0.1789  0.0202 -0.5118
 2023W        W 6087   9.211   2.020   8.071  0.0240  0.1462 -0.0565
 2024W        W 6088  10.317   5.120   2.058 -0.2303  0.3516  0.1077
 2025W        W 6089   9.665   7.785   2.929 -0.0023 -0.1495  0.1235
 2026W        W 6090   2.642   4.330   8.885  0.0236  0.0625  0.1389
 2027W        W 6091   9.615   3.934   1.118 -0.0047  0.3687 -0.0697
 2028W        W 6092   5.838   5.922  10.792  0.1747 -0.4101 -0.1006
 2029W        W 6093   6.384   9.790  11.145 -0.2345  0.0060  0.4214
 2030W        W 6094   2.471   6.537  10.778 -0.1157 -0.3063 -0.4578
 2031W        W 6095   9.594   0.565  10.422 -0.0279 -0.0202  0.2045
 2032W        W 6096   3.834   6.469   8.267 -0.0530 -0.2966 -0.2755
 2033W        W 6097   6.010   2.048   0.316 -0.2819 -0.0760  0.1076
 2034W        W 6098   0.964   1.068   9.799  0.2470  0.0757 -0.1032
 2035W        W 6099   0.679   0.471   1.938  0.2860 -0.0223 -0.1619
 2036W        W 6100   5.077   6.442   0.092  0.2127  0.1575  0.2192
 2037W        W 6101   1.503   9.747  10.820 -0.1225  0.1249  0.0576
 2038W        W 6102   2.986   8.532   2.877 -0.2293 -0.4125 -0.1548
 2039W        W 6103  10.131   0.055   9.939  0.0941 -0.4463 -0.1974
 2040W        W 6104   3.848   8.147   9.565  0.0740 -0.1529  0.2017
 2041W        W 6105   4.512   3.962  11.030  0.1241  0.0498  0.1870
 2042W        W 6106   9.213   7.601   9.486  0.0045 -0.2199 -0.3284
 2043W        W 6107   4.316   4.102  10.559  0.3002 -0.0378 -0.1652
 2044W        W 6108   2.590   9.283  10.471 -0.0921 -0.0586 -0.0206
 2045W        W 6109   2.978   3.164   1.007 -0.0178  0.0433 -0.0921
 2046W        W 6110   7.491   2.671   1.403  0.1616 -0.2304 -0.2052
 2047W        W 6111   6.047   5.918   8.480 -0.0994  0.0783 -0.3659
 2048W        W 6112   5.259   9.061   9.860 -0.0550 -0.1371  0.1147
 2049W        W 6113   6.565   7.520   2.037 -0.1253 -0.1030  0.2735
 2050W        W 6114   5.285   4.287  10.580 -0.1001 -0.0322  0.0729
 2051W        W 6115   9.644   3.751   8.925 -0.1665 -0.4156 -0.2221
 2052W        W 6116   7.537   7.345  10.771 -0.0664 -0.1090 -0.2327
 2053W        W 6117   8.611   0.088   0.429  0.4064  0.2456 -0.1062
 2054W        W 6118   4.925   7.489   9.078  0.1840  0.2212  0.1086
 2055W        W 6119   3.446   6.579   7.966  0.1116  0.0531  0.1519
 2056W        W 6120   5.281   6.412   8.662  0.0045  0.1228 -0.1324
 2057W        W 6121   0.785   7.694   2.491 -0.1535  0.0060  0.0117
 2058W        W 6122   1.737   6.545   9.025 -0.1581  0.0488  0.1375
 2059W        W 6123  10.485   3.275   8.290  0.0548 -0.1201 -0.1115
 2060W        W 6124   5.631   3.931   8.964 -0.1349 -0.0563  0.1245
 2061W        W 6125   1.600   5.126   8.368 -0.2249  0.2550  0.1764
 2062W        W 6126   2.584   7.151  10.043 -0.0855 -0.0980 -0.1788
 2063W        W 6127   7.832   8.098   3.877 -0.0330  0.2617  0.0373
 2064W        W 6128   5.185   4.852   8.160 -0.1111  0.3012  0.0793
 2065W        W 6129   7.552   4.667  10.591 -0.0009 -0.0466  0.2144
 2066W        W 6130   7.118   2.157  10.048  0.2371  0.2249 -0.0052
 2067W        W 6131   9.954   7.980   7.897  0.0359  0.4568  0.0930
 2068W        W 6132   9.248   6.452   8.866 -0.0361  0.1232 -0.3932
 2069W        W 6133  10.250   8.829   6.776  0.2290  0.2426  0.0999
 2070W        W 6134   4.678   3.841   1.488  0.0704 -0.1958 -0.1704
 2071W        W 6135   6.942  10.291   1.932 -0.2766  0.0495  0.0598
 2072W        W 6136   3.093   3.907  11.127  0.2131  0.0328 -0.1110
 2073W        W 6137  10.485   3.404   9.564  0.0311  0.0748  0.0542
 2074W        W 6138   6.805   1.355   3.610  0.0703 -0.1548 -0.2151
 2075W        W 6139   8.346   6.266   1.656 -0.1424 -0.1618 -0.0707
 2076W        W 6140   2.378   3.696   2.168  0.3055 -0.1194  0.1076
 2077W        W 6141  10.021  10.167   9.721  0.0343 -0.1803 -0.0752
 2078W        W 6142   1.923   5.611   1.986  0.0649  0.0733 -0.0831
 2079W        W 6143   6.058   5.825  10.149  0.2506  0.2402 -0.0642
 2080W        W 6144   6.927   7.982   8.962  0.0064 -0.0111 -0.1213
 2081W        W 6145   8.206   9.323   7.490  0.0549  0.3720  0.3538
 2082W        W 6146   2.979  10.491   1.773  0.1085 -0.2365  0.1405
 2083W        W 6147   4.456   3.585   1.873 -0.2860 -0.0036  0.3140
 2084W        W 6148   8.718   5.468   2.019 -0.1187  0.0026 -0.0465
 2085W        W 6149   3.041   7.594  10.548 -0.1984 -0.0258  0.0199
 2086W        W 6150   6.202   9.781   2.395  0.1982 -0.2610 -0.0646
 2087W        W 6151   2.093   9.142  10.551 -0.0220 -0.2882 -0.0190
 2088W        W 6152   8.488   4.306  10.757  0.2906 -0.2130  0.0146
 2089W        W 6153   4.122   4.565   8.079 -0.0293 -0.1288  0.1553
 2090W        W 6154   1.154   1.665   2.508  0.0018 -0.1917  0.0382
 2091W        W 6155   2.494   3.184   2.010 -0.1285  0.0985 -0.0861
 2092W        W 6156   8.450   1.788  10.967  0.0707 -0.1496  0.2110
 2093W        W 6157  10.603   0.279   2.880  0.2870  0.0068  0.0346
 2094W        W 6158   5.283   6.772   1.872 -0.1055 -0.1138  0.1228
 2095W        W 6159   4.860   3.451   9.505 -0.0555 -0.1475  0.0733
 2096W        W 6160   9.897   0.090   9.468  0.2591  0.3513  0.0294
 2097W        W 6161   4.152   0.019   2.398  0.0554  0.1669 -0.0281
 2098W        W 6162   4.322   0.891  11.031  0.4836 -0.1261 -0.2978
 2099W        W 6163   8.857   3.311   9.023 -0.0671 -0.0109 -0.0650
 2100W        W 6164   2.179  10.118  10.311 -0.0707  0.0310 -0.0305
 2101W        W 6165   3.174   1.727   3.333  0.0704 -0.2630  0.0253
 2102W        W 6166  10.686   2.124   3.723  0.0380  0.1849 -0.0051
 2103W        W 6167   0.835  10.038   7.626 -0.0789 -0.2507  0.1540
 2104W        W 6168   1.008   1.558   6.794 -0.0848 -0.1659  0.0036
 2105W        W 6169   6.571   6.641   1.087  0.1786  0.1263  0.2295
 2106W        W 6170   0.824   4.113  10.092  0.1877  0.1197 -0.0608
 2107W        W 6171   4.395   3.708   9.822  0.0179 -0.1880 -0.0406
 2108W        W 6172   5.977   8.462  11.286  0.2116  0.1414 -0.2455
 2109W        W 6173   7.222   4.820   2.806  0.1793  0.1144 -0.0718
 2110W        W 6174   8.501   0.903   1.815  0.3010 -0.1670 -0.0422
 2111W        W 6175   6.905   2.936   8.091  0.2031 -0.0394  0.1248
 2112W        W 6176   8.901   7.801   0.043 -0.0380 -0.1619 -0.2801
 2113W        W 6177   8.782   5.790   8.401 -0.0935 -0.0953 -0.1942
 2114W        W 6178   8.607   6.344   9.647 -0.1993  0.2108  0.1365
 2115W        W 6179   3.778   1.621   2.694  0.1225 -0.2191  0.1337
 2116W        W 6180   6.125   8.415   1.747  0.1056  0.0270 -0.2172
 2117W        W 6181   0.601   7.073   7.570 -0.1727 -0.2916  0.2565
 2118W        W 6182  10.130   0.257   1.027 -0.2855  0.0599 -0.0849
 2119W        W 6183   3.574   3.905   8.388  0.0863  0.1457 -0.0056
 2120W        W 6184   0.419   9.846   1.731 -0.1229  0.0580 -0.0338
 2121W        W 6185   8.262   3.677   1.520  0.4313 -0.0227  0.0017
 2122W        W 6186   8.055   7.675   3.638 -0.2175  0.1689  0.3025
 2123W        W 6187  10.403   8.776   7.774  0.0022 -0.0438 -0.3890
 2124W        W 6188   8.493   0.469   7.683  0.1971 -0.4196 -0.0085
 2125W        W 6189   2.796   5.740   1.458  0.0078 -0.2027 -0.0392
 2126W        W 6190   0.434   3.711  11.216  0.1090 -0.0427  0.0215
 2127W        W 6191   2.117   6.513   2.075 -0.2566 -0.0794  0.0258
 2128W        W 6192   9.526   2.444   0.811  0.4691 -0.3174 -0.4119
 2129W        W 6193   4.656  10.354   9.979  0.0990 -0.0471  0.0508
 2130W        W 6194   0.403  10.367   8.946 -0.2178 -0.0729 -0.3942
 2131W        W 6195   1.980   3.459   2.956  0.0228 -0.1754 -0.1978
 2132W        W 6196   4.089   6.099   7.412 -0.3213  0.1192 -0.1038
 2133W        W 6197   2.273   7.982  10.497  0.0821  0.0903 -0.1443
 2134W        W 6198  10.732   6.889   2.771 -0.0809 -0.0735  0.1502
 2135W        W 6199   2.930   9.039   1.384  0.0172  0.1635 -0.2336
 2136W        W 6200  10.526   7.183   7.087  0.0643 -0.0811  0.0284
 2137W        W 6201   9.157   8.922   8.329  0.0719  0.1651 -0.1048
 2138W        W 6202   1.972   9.959   1.918 -0.1304  0.0336  0.2299
 2139W        W 6203   8.451   5.375   8.849  0.2976  0.0526  0.0687
 2140W        W 6204   0.678   0.322   3.509  0.1001  0.1580 -0.0160
 2141W        W 6205   5.402   6.804   0.443 -0.2037 -0.0981  0.5239
 2142W        W 6206   8.169   7.915  10.311  0.0855  0.1456 -0.4655
 2143W        W 6207   0.139   0.983   2.432  0.0273  0.3077 -0.0147
 2144W        W 6208   7.486   3.920   9.810 -0.2825 -0.0487 -0.0634
 2145W        W 6209   8.882   5.066   2.430  0.1360  0.2386  0.0997
 2146W        W 6210   3.353   7.177   1.981 -0.1093 -0.0727  0.1247
 2147W        W 6211   6.962   1.650   1.203 -0.0101 -0.1160  0.1162
 2148W        W 6212   5.767   1.297   3.521  0.1990 -0.0287 -0.2043
 2149W        W 6213   3.970   1.310  10.686  0.0885 -0.2378 -0.1340
 2150W        W 6214   6.707   2.385   9.351 -0.2207  0.1214 -0.2002
 2151W        W 6215   8.011   6.587  10.502 -0.0616 -0.1709  0.0870
 2152W        W 6216   7.038   9.950   8.797 -0.0899 -0.2688 -0.1350
 2153W        W 6217   2.606   4.574   0.444  0.0188 -0.0353  0.1821
 2154W        W 6218   6.835   1.239   7.780 -0.1456 -0.0244 -0.1195
 2155W        W 6219   0.321   7.566   2.355  0.3373 -0.0866  0.1475
 2156W        W 6220   2.170   9.758   0.513 -0.2418  0.3953 -0.1686
 2157W        W 6221   4.003   5.777   0.094  0.0129  0.2067 -0.1636
 2158W        W 6222   6.501   0.687   0.967 -0.1447  0.0835  0.2004
 2159W        W 6223  10.104   6.229  11.217  0.1015  0.0903 -0.2106
 2160W        W 6224  10.369   6.804   3.118 -0.2153 -0.0344 -0.1282
 2161W        W 6225   0.760  10.729   1.229  0.0122  0.3224 -0.1902
 2162W        W 6226  10.359   2.862  10.069 -0.2926  0.0274 -0.1682
 2163W        W 6227   3.316   2.971   7.869  0.0662 -0.1851 -0.1530
 2164W        W 6228   6.554   1.267   1.347  0.3099  0.0882  0.0302
 2165W        W 6229   3.092   5.159   9.286 -0.2154  0.3113  0.0880
 2166W        W 6230   2.321   4.816   1.288 -0.0644 -0.0628  0.0564
 2167W        W 6231   4.257  10.272   1.295 -0.2608 -0.4951  0.1617
 2168W        W 6232   8.803   1.696   0.777 -0.2092 -0.0194  0.2058
 2169W        W 6233  10.007   9.439  10.221 -0.0606 -0.3116  0.0149
 2170W        W 6234   7.185   4.190   0.763  0.0370 -0.0999 -0.0896
 2171W        W 6235   6.718   6.001   7.651  0.1141  0.5860  0.1932
 2172W        W 6236   0.613   7.996   9.548 -0.1435  0.3064 -0.2964
 2173W        W 6237   8.276   0.627   1.438 -0.0203  0.2578 -0.3176
 2174W        W 6238   9.469   5.120   1.752  0.0246 -0.0707 -0.1074
 2175W        W 6239  10.414   8.092   1.206 -0.0098  0.1345 -0.2789
 2176W        W 6240   7.946   4.446  10.365 -0.1437 -0.1741  0.0569
 2177W        W 6241   9.416   8.541   0.388 -0.1349 -0.0129 -0.1016
 2178W        W 6242   8.852   9.418   8.320 -0.1442 -0.0683  0.2632
 2179W        W 6243   8.426   8.738   9.266 -0.3156  0.3667 -0.0876
 2180W        W 6244   7.174   3.017   1.272  0.0039 -0.1600  0.0007
 2181W        W 6245   3.408   1.392   8.135 -0.0434  0.0108  0.3099
 2182W        W 6246   0.005   1.708   0.484 -0.0324 -0.1596 -0.2385
 2183W        W 6247   7.709   4.573   1.932  0.1363 -0.3875  0.1933
 2184W        W 6248  10.089   3.020   0.262  0.0217 -0.0752 -0.2215
 2185W        W 6249   1.564  10.121   8.286  0.0231  0.1620 -0.2333
 2186W        W 6250   3.953   0.075   9.774  0.1270 -0.0523  0.4008
 2187W        W 6251   5.110   8.297  11.000  0.2246  0.1196 -0.3168
 2188W        W 6252   7.305  10.619   0.131  0.0316 -0.0683  0.0029
 2189W        W 6253   1.431   0.626   0.295 -0.0651  0.0232 -0.3146
 2190W        W 6254   4.305   8.655  10.459 -0.1351 -0.0515  0.1742
 2191W        W 6255   2.184   8.482   2.798 -0.0228  0.2543  0.0970
 2192W        W 6256   2.189   4.893   2.874  0.2207 -0.3383  0.1639
 2193W        W 6257   2.946   9.970   1.045 -0.0890  0.2292  0.1836
 2194W        W 6258   5.243   4.670   1.730  0.2435  0.1317  0.1202
 2195W        W 6259   8.714   7.582   9.314 -0.1595 -0.0863 -0.2071
 2196W        W 6260   9.931   0.284   8.864  0.1202  0.2519  0.2172
 2197W        W 6261   2.412   0.939   9.553  0.0536  0.2760  0.1265
 2198W        W 6262   8.501   4.699   8.609  0.2680 -0.3755  0.1448
 2199W        W 6263   3.541   0.760   0.788 -0.0758  0.3573 -0.1861
 2200W        W 6264   5.682   1.800   0.940 -0.2000 -0.0192 -0.1305
 2201W        W 6265   4.001   1.296   1.941 -0.0725  0.2661 -0.0383
 2202W        W 6266   3.131   6.607   3.103  0.2083 -0.1380  0.0214
 2203W        W 6267   1.865   9.257   8.421  0.1417 -0.1230 -0.1392
 2204W        W 6268   8.446   8.587  11.242 -0.1831  0.5549  0.2239
 2205W        W 6269   4.553   7.695   8.792 -0.5454  0.1665 -0.2962
 2206W        W 6270   7.189   8.147   8.043  0.2435  0.2493  0.1587
 2207W        W 6271   0.999   6.931  10.840  0.0642  0.0176 -0.0396
 2208W        W 6272   5.616  10.533   0.632 -0.2122  0.2761  0.1248
 2209W        W 6273   1.260   0.536   1.539 -0.1423  0.0749 -0.1663
 2210W        W 6274   9.169   3.086   2.081 -0.4160  0.0689 -0.0698
 2211W        W 6275   2.864   7.869   7.581  0.2859  0.0922  0.3270
 2212W        W 6276   4.628   7.000   1.132 -0.2053  0.0824  0.1856
 2213W        W 6277  10.036   6.641   9.642 -0.1279 -0.1303  0.0922
 2214W        W 6278  10.746   4.992   2.905 -0.0967 -0.2193 -0.0734
 2215W        W 6279   6.025  10.415   0.357  0.1855  0.2970  0.1994
 2216W        W 6280   5.341   5.215  10.304 -0.1396  0.1434  0.2431
 2217W        W 6281  10.258   5.321   3.269 -0.1237 -0.1660 -0.0361
 2218W        W 6282   5.181   9.351   0.910 -0.4530  0.0580 -0.3358
 2219W        W 6283   3.955   4.052   3.139 -0.1689  0.3299 -0.1418
 2220W        W 6284   3.870   3.328   0.126 -0.1831 -0.1828 -0.2457
 2221W        W 6285   5.634  10.064  10.223 -0.1376  0.1216  0.0528
 2222W        W 6286   7.182   6.853   7.706  0.2398 -0.1755 -0.0599
 2223W        W 6287   7.345   6.789  10.656  0.1650  0.2187 -0.1503
 2224W        W 6288   8.638   0.535  10.224  0.0515 -0.0248 -0.1362
 2225W        W 6289   2.465   8.051   3.558 -0.1550  0.0589 -0.0282
 2226W        W 6290   1.016   0.876  11.012  0.3024  0.1069  0.1649
 2227W        W 6291  10.637   1.323   9.824  0.1724  0.1020 -0.1050
 2228W        W 6292   1.146   0.898   1.235 -0.0370  0.0836  0.0107
 2229W        W 6293   2.443   6.557   2.765  0.2890 -0.1930 -0.0383
 2230W        W 6294   6.521   5.193   4.031  0.0435  0.0767 -0.1559
 2231W        W 6295   2.064   3.131   1.616 -0.1823  0.1213  0.0135
 2232W        W 6296   4.832   0.830   2.160 -0.2385 -0.0717 -0.2176
 2233W        W 6297   1.221   6.846   9.823  0.2117 -0.0381  0.1493
 2234W        W 6298   6.221   4.738   3.287 -0.1857 -0.0177 -0.1374
 2235W        W 6299   5.618   2.521  11.004  0.1138  0.0056 -0.0948
 2236W        W 6300   3.439   1.220   0.237  0.1209 -0.2128 -0.0418
 2237W        W 6301   5.933   9.567   3.704  0.3417 -0.0889  0.3508
 2238W        W 6302   1.922   6.568   7.759  0.0773  0.3184  0.0204
 2239W        W 6303   1.467   9.286   0.529  0.1585  0.1221  0.0037
 2240W        W 6304   4.998   2.853   8.149  0.3123  0.0217  0.2497
 2241W        W 6305   4.067   8.744   7.692 -0.4731  0.0082 -0.2010
 2242W        W 6306   9.048   1.013  10.908 -0.1680  0.0217 -0.1109
 2243W        W 6307   0.868   9.481   3.322  0.0425 -0.1854 -0.1729
 2244W        W 6308   1.201   6.452  10.941  0.1678 -0.0093  0.1245
 2245W        W 6309   0.039   4.772   8.606 -0.0327 -0.0178  0.1602
 2246W        W 6310   4.316   0.971   2.205  0.0979 -0.1281  0.3908
 2247W        W 6311   8.531   7.269   2.388 -0.0155  0.1880 -0.1264
 2248W        W 6312   9.751   1.229   1.058  0.0293  0.0249  0.0279
 2249W        W 6313   7.596   9.614   1.615  0.0126 -0.0530  0.0343
 2250W        W 6314   3.298   0.212  10.989  0.3125 -0.3603  0.1456
 2251W        W 6315   8.510   1.821   9.165 -0.1482 -0.1896 -0.2849
 2252W        W 6316   6.577   6.440   7.930  0.0374  0.0775 -0.0474
 2253W        W 6317   5.688   5.516   0.960  0.1053  0.0336  0.0030
 2254W        W 6318   8.090   8.371   2.997 -0.3118 -0.1954 -0.4520
 2255W        W 6319   8.349   2.429   3.383 -0.0748  0.1463  0.1191
 2256W        W 6320   4.863   8.537   8.759  0.2526 -0.3078 -0.0881
 2257W        W 6321   4.248   0.070  10.683 -0.0242 -0.1599 -0.2618
 2258W        W 6322   2.016   5.162   1.461 -0.0470  0.0352  0.2263
 2259W        W 6323   5.476   5.951   0.812 -0.2588  0.0829 -0.1419
 2260W        W 6324   0.037   7.454   0.623 -0.2089 -0.0237 -0.0534
 2261W        W 6325   8.999  10.333   8.596 -0.1608  0.2570  0.1501
 2262W        W 6326   4.964   9.577   1.752  0.3182  0.1511  0.3520
 2263W        W 6327   2.866   4.655   8.511  0.0043  0.2015 -0.0157
 2264W        W 6328   1.799   3.206   0.753  0.2232  0.0998 -0.1067
 2265W        W 6329   2.107   7.954  11.015 -0.1065 -0.1780  0.0141
 2266W        W 6330   2.436   3.667  10.228 -0.2442  0.0396  0.1587
 2267W        W 6331   0.996   2.552  10.170  0.0701  0.1497 -0.0105
 2268W        W 6332   0.994   8.108   9.249  0.4506  0.2221 -0.1629
 2269W        W 6333   2.506  10.132   1.241 -0.0963  0.0144 -0.1653
 2270W        W 6334   0.919   1.095   7.784 -0.1486 -0.2604  0.1465
 2271W        W 6335   4.411   6.491   1.416  0.0860  0.1494  0.0597
 2272W        W 6336   0.229  10.383  10.926  0.2175  0.2693  0.2749
 2273W        W 6337   1.894   7.923  10.172  0.3095  0.1160 -0.1213
 2274W        W 6338   1.773   9.338   9.414 -0.1714 -0.4914  0.1094
 2275W        W 6339   2.109   9.372   0.868 -0.2489 -0.2605 -0.2791
 2276W        W 6340   3.666   9.659   1.592  0.2677 -0.0462  0.2139
 2277W        W 6341   5.848   1.990   9.673 -0.0207  0.1939 -0.2015
 2278W        W 6342   3.074  10.107  10.746  0.0657  0.1172  0.0374
 2279W        W 6343   4.411   2.179   0.822  0.0302 -0.1563  0.0081
 2280W        W 6344   3.689   3.453   8.287 -0.2237 -0.0754  0.0521
 2281W        W 6345   8.399   5.800   7.825 -0.0617 -0.0925 -0.4496
 2282W        W 6346   1.924   0.213   0.217 -0.0551  0.0183 -0.0013
 2283W        W 6347   2.087  10.740   1.541 -0.0892  0.0290 -0.0673
 2284W        W 6348   1.109   8.555   1.238 -0.0040  0.0503  0.1347
 2285W        W 6349   3.341   7.923   0.412  0.3993  0.0093 -0.0045
 2286W        W 6350   8.030   8.025   2.657 -0.2347 -0.3018  0.3051
 2287W        W 6351  10.750   0.390   1.310 -0.0900 -0.0670  0.1271
 2288W        W 6352  10.733   8.427   6.924 -0.1271  0.0737 -0.1424
 2289W        W 6353   5.076   8.438   2.565  0.2803 -0.0046  0.2344
 2290W        W 6354   5.560   7.695  11.295 -0.1263  0.1321 -0.0365
 2291W        W 6355  10.407   3.574   1.831 -0.0569 -0.2347 -0.3043
 2292W        W 6356   5.411   2.143   1.071  0.1678 -0.3946 -0.2253
 2293W        W 6357   3.844   2.136   8.652 -0.0083  0.0595  0.2958
 2294W        W 6358   9.937   4.397  10.443 -0.0201  0.0836  0.0761
 2295W        W 6359   4.185   9.591  10.952  0.1829  0.1810 -0.0890
 2296W        W 6360   5.871   6.661   2.530  0.1349  0.0471  0.1534
 2297W        W 6361   7.761   2.250  10.794  0.0398 -0.6231 -0.0819
 2298W        W 6362   5.893   5.058  10.274 -0.2223 -0.1865 -0.0599
 2299W        W 6363   3.071   6.145   0.568 -0.1927  0.3395  0.1839
 2300W        W 6364   9.798   4.049   9.942  0.1938 -0.1922  0.0058
 2301W        W 6365   3.075   0.916   8.241  0.1583 -0.2346  0.3067
 2302W        W 6366   4.173   9.196   8.782 -0.3229  0.4242  0.2662
 2303W        W 6367   7.881   1.649   2.906  0.4183  0.1053  0.0327
 2304W        W 6368   1.547   9.290  10.531 -0.1883 -0.0899  0.1481
 2305W        W 6369   1.098  10.340   1.274 -0.1996  0.1140 -0.1223
 2306W        W 6370   3.617   6.109   0.469  0.0222  0.3093 -0.2682
 2307W        W 6371   0.668   5.990   8.888  0.1640  0.0078  0.0226
 2308W        W 6372   0.308   6.756   8.017 -0.0793  0.1496 -0.0446
 2309W        W 6373   1.158   6.756   1.032  0.0331 -0.2640  0.3384
 2310W        W 6374   7.503   5.110   3.117  0.3281  0.3747 -0.1034
 2311W        W 6375   6.879   2.682   2.558  0.0112 -0.1607  0.2900
 2312W        W 6376   2.081   4.578   0.488  0.0202 -0.0900 -0.0083
 2313W        W 6377   8.802   8.973   7.830  0.3703  0.2956  0.2145
 2314W        W 6378   9.618   6.157   9.041 -0.0890  0.0561  0.0813
 2315W        W 6379   0.574   2.039   8.251  0.1397  0.3478  0.0230
 2316W        W 6380   3.628   1.867  10.132 -0.2869  0.3441  0.1102
 2317W        W 6381   0.736  10.620   0.312  0.0220 -0.0276  0.2214
 2318W        W 6382   2.918   3.524   7.781  0.2624 -0.0491 -0.1535
 2319W        W 6383   1.642   3.622   0.446  0.0688 -0.2151 -0.1943
 2320W        W 6384   0.306   6.702   8.734  0.3485 -0.1454  0.0726
 2321W        W 6385   4.020   5.333   1.743  0.2157  0.2763 -0.3067
 2322W        W 6386   1.129   4.978  10.405  0.1467 -0.2653 -0.1266
 2323W        W 6387   5.249   1.741  10.027 -0.0282 -0.0075 -0.2051
 2324W        W 6388   1.588   4.856   1.906  0.2605  0.2053  0.3127
 2325W        W 6389   7.072   0.487   9.728  0.1465  0.0668  0.0983
 2326W        W 6390   2.634  10.035   0.235  0.0303 -0.0733  0.0576
 2327W        W 6391   2.168   9.774   9.613 -0.0186 -0.0729 -0.1094
 2328W        W 6392   1.193   0.446  11.208 -0.0437 -0.2440 -0.1046
 2329W        W 6393   0.143   1.450   8.956 -0.0009 -0.1339 -0.0546
 2330W        W 6394   7.615   7.404   0.575  0.0832 -0.0283 -0.1909
 2331W        W 6395   3.511   2.149  10.742 -0.2066 -0.1343 -0.1532
 2332W        W 6396   6.245   9.745   0.899  0.0079 -0.1024 -0.0855
 2333W        W 6397  10.463   2.361  10.937  0.0415 -0.3144 -0.3257
 2334W        W 6398   8.542   9.986  10.044  0.1693 -0.1620  0.1174
 2335W        W 6399   3.263   8.478   8.863 -0.0285  0.0647 -0.2581
 2336W        W 6400   6.916   1.714   1.790 -0.1063  0.0744 -0.0160
 2337W        W 6401   9.170   2.842   1.632  0.1809 -0.2384  0.0710
 2338W        W 6402   9.585   0.217   2.856  0.2414 -0.2686  0.1426
 2339W        W 6403   7.010   5.211   2.435  0.1040 -0.0727  0.1120
 2340W        W 6404   8.834   2.907   7.711 -0.0579 -0.4063  0.1314
 2341W        W 6405   5.361   1.911  10.613 -0.2269  0.1832 -0.0301
 2342W        W 6406   5.296   0.388   8.846 -0.1335  0.2682  0.1526
 2343W        W 6407   3.063   2.961   9.484 -0.0088  0.0269 -0.0262
 2344W        W 6408  10.624   4.838   9.172  0.1961  0.3049 -0.3603
 2345W        W 6409   5.810   9.609   3.140  0.1217 -0.2720  0.0273
 2346W        W 6410   4.892   4.583   0.812  0.2236  0.0045 -0.1250
 2347W        W 6411   7.762   8.431   0.133 -0.2271 -0.1105 -0.1588
 2348W        W 6412  10.503   9.198   8.086 -0.3926 -0.0234  0.2498
 2349W        W 6413   8.189   7.796   1.236  0.1479 -0.2558  0.5289
 2350W        W 6414   1.745   1.502   7.939 -0.0915 -0.0246  0.0110
 2351W        W 6415   1.734   6.675   9.748 -0.0876 -0.1366 -0.2671
 2352W        W 6416   9.985   9.823   3.792 -0.1208  0.4799  0.0898
 2353W        W 6417   2.135   3.064  11.090 -0.0509 -0.3015 -0.1241
 2354W        W 6418   5.813   8.058   1.458 -0.1119 -0.1932  0.3225
 2355W        W 6419   2.014   9.311   2.689 -0.2651  0.0591  0.0295
 2356W        W 6420   9.379   3.807   7.106  0.0615 -0.4637 -0.2590
 2357W        W 6421   2.076   3.773   8.305  0.0599  0.1048  0.0167
 2358W        W 6422   5.908   0.972   7.392  0.2003 -0.2939 -0.2546
 2359W        W 6423   5.945   8.634   2.223 -0.3740 -0.2508 -0.1217
 2360W        W 6424   9.734   6.855  10.615  0.2542  0.1511 -0.0218
 2361W        W 6425   9.205  10.432  10.731  0.0385  0.1741 -0.1562
 2362W        W 6426   3.879   4.715   7.618 -0.0451  0.0602 -0.0421
 2363W        W 6427   9.069  10.116   2.867 -0.1753 -0.0509 -0.0959
 2364W        W 6428   4.174   0.875   8.428 -0.1682  0.0726 -0.2213
 2365W        W 6429   9.980   4.706   1.809  0.1640  0.2258 -0.0664
 2366W        W 6430   3.192   6.081   3.205 -0.4280 -0.2100 -0.1112
 2367W        W 6431   2.653   2.847   1.251 -0.0486  0.1713 -0.0753
 2368W        W 6432   9.751   4.753   1.357 -0.1544  0.1696 -0.0594
 2369W        W 6433   2.271   1.093   0.552 -0.2729 -0.2216 -0.1209
 2370W        W 6434   0.396   2.057   0.439  0.1421  0.0160 -0.1927
 2371W        W 6435   6.775   5.050  10.903  0.1008 -0.0686  0.0779
 2372W        W 6436   6.762   6.741   2.546  0.0343  0.0019  0.2342
 2373W        W 6437   4.213   7.970  11.094 -0.0250  0.1693  0.0921
 2374W        W 6438   4.925   8.692   9.723  0.1137 -0.1123  0.1380
 2375W        W 6439   4.591   8.796   2.569 -0.1493  0.2795 -0.3009
 2376W        W 6440   4.363   0.414  10.303 -0.0521  0.1987  0.0382
 2377W        W 6441   7.955   6.571   9.895  0.2421  0.2986 -0.3535
 2378W        W 6442   9.427   8.908   9.754  0.0672 -0.1438 -0.3524
 2379W        W 6443   5.260   3.715   9.760  0.1957  0.0529 -0.0850
 2380W        W 6444   6.747  10.306   9.070 -0.1328 -0.0956  0.2069
 2381W        W 6445   4.745   4.703   8.308  0.0020  0.2402  0.0027
 2382W        W 6446   8.715   4.582   2.116 -0.1310 -0.0656  0.3596
 2383W        W 6447   3.235   9.027   8.084  0.2701 -0.2189  0.4741
 2384W        W 6448   5.049   3.935   7.914  0.0193  0.0148  0.0342
 2385W        W 6449   8.355   1.836   0.353 -0.0694 -0.0985  0.0433
 2386W        W 6450   4.318   0.350   7.993 -0.0834 -0.0640 -0.0340
 2387W        W 6451   9.956   2.185   1.336 -0.2453  0.0997 -0.1105
 2388W        W 6452   3.867  10.278   7.475 -0.2902 -0.0796  0.0351
 2389W        W 6453   0.852  10.148   0.393  0.1727  0.3350  0.1611
 2390W        W 6454   8.090   4.095   2.413 -0.0736  0.2573  0.1016
 2391W        W 6455   8.381   3.883   2.815 -0.1284  0.1010  0.1274
 2392W        W 6456   6.282   5.451   1.872 -0.0178  0.3888  0.3428
 2393W        W 6457   3.561   0.738   3.577 -0.0221  0.2267 -0.0451
 2394W        W 6458   5.794   0.157  10.725 -0.2684  0.1444  0.1291
 2395W        W 6459   2.134   6.525  11.188  0.3400 -0.3024 -0.0985
 2396W        W 6460   3.562   6.257   1.526  0.1823  0.2507  0.3312
 2397W        W 6461  10.004   0.503   2.649 -0.1047  0.6395  0.3689
 2398W        W 6462   0.094   8.928   3.320 -0.1334  0.1539 -0.0815
 2399W        W 6463   8.567   9.396   3.682 -0.0085  0.1057  0.0458
 2400W        W 6464   3.955   6.197   9.838  0.2679  0.1236  0.1593
 2401W        W 6465   3.382   9.604   9.230  0.0160  0.1710 -0.1951
 2402W        W 6466   8.991   9.660   0.920 -0.0762  0.2569  0.3615
 2403W        W 6467   4.224   1.423   2.427  0.2923  0.1054 -0.0307
 2404W        W 6468   2.089  10.518   0.079 -0.0262  0.0919 -0.3183
 2405W        W 6469   4.933   2.337   8.303  0.2227 -0.3116 -0.1827
 2406W        W 6470   0.357   2.812   7.022  0.0751 -0.0133 -0.1230
 2407W        W 6471   8.483   3.003   2.706  0.4809  0.1829  0.3330
 2408W        W 6472   6.914   8.403  10.143 -0.3641  0.6261 -0.1634
 2409W        W 6473   8.535   7.179   7.291  0.0429 -0.2514  0.0042
 2410W        W 6474   1.510   0.909   0.876  0.1420 -0.0724 -0.1401
 2411W        W 6475   5.772   2.577   0.243  0.1074  0.3239 -0.2561
 2412W        W 6476   4.619   1.956   8.253  0.0460 -0.0639  0.2548
 2413W        W 6477   9.556   0.700   2.748 -0.1157  0.0826 -0.0859
 2414W        W 6478   9.867   8.477   2.379  0.1826 -0.0911 -0.0431
 2415W        W 6479   8.433   3.437  10.266  0.3470  0.0462  0.0757
 2416W        W 6480   3.192   2.049   7.403  0.2448  0.1612  0.0688
 2417W        W 6481   5.556   4.086   1.192  0.2074 -0.2830  0.0908
 2418W        W 6482   8.614   1.242   2.276 -0.0754  0.1761  0.3272
 2419W        W 6483   1.639   8.873   0.446 -0.2676  0.2185  0.2391
 2420W        W 6484   3.601   4.075   9.952  0.0704  0.4485 -0.0049
 2421W        W 6485   9.542   0.633  10.945 -0.0253 -0.2906 -0.0994
 2422W        W 6486   4.755   5.235   9.114 -0.0027 -0.1138  0.2260
 2423W        W 6487   3.105   0.044   7.961  0.1276 -0.0249  0.1759
 2424W        W 6488   9.605   4.588   3.018  0.2336  0.0016  0.0761
 2425W        W 6489   5.504   8.268   1.102  0.4639  0.1869 -0.1217
 2426W        W 6490   9.695   5.888   7.431 -0.1063  0.0226 -0.0171
 2427W        W 6491   1.551   5.501   9.899 -0.1099  0.0738 -0.0080
 2428W        W 6492   9.811   5.734   0.037  0.3270  0.0179  0.1225
 2429W        W 6493   5.625   6.610  10.766  0.1585  0.2698  0.1386
 2430W        W 6494   7.771   7.291   9.924 -0.0924  0.0262  0.0342
 2431W        W 6495   6.553   7.894   9.413 -0.0590  0.0252 -0.0143
 2432W        W 6496   7.690   7.509   8.570  0.0444 -0.0342 -0.1044
 2433W        W 6497   7.088   3.758  10.231 -0.2646 -0.0629 -0.2595
 2434W        W 6498   3.573   9.355   2.019 -0.0939 -0.0165 -0.1616
 2435W        W 6499   4.071   8.405   0.758  0.2020  0.0414 -0.0662
 2436W        W 6500   0.361   6.066   7.411  0.0051  0.0328  0.1604
 2437W        W 6501   9.152   3.488   1.698 -0.2820 -0.3774  0.1040
 2438W        W 6502   4.647   5.398   1.842 -0.0013  0.1914  0.0067
 2439W        W 6503   7.579   1.467  10.665 -0.0678  0.2097 -0.0963
 2440W        W 6504  10.530   3.726  10.663  0.0681  0.0494  0.1080
 2441W        W 6505  10.432   2.788   8.495 -0.2923  0.1627  0.0832
 2442W        W 6506   6.420   3.187   3.275 -0.1811 -0.1608  0.0229
 2443W        W 6507  10.068   5.634   9.127 -0.1314  0.1279  0.2430
 2444W        W 6508   7.289   3.153  10.937 -0.1030  0.0168  0.5753
 2445W        W 6509  10.450   4.493  10.094 -0.3987  0.0359 -0.3300
 2446W        W 6510   8.603   3.854  10.969  0.1014 -0.3051 -0.2288
 2447W        W 6511  10.068   3.347   1.529  0.1038  0.0444  0.2171
 2448W        W 6512   9.793   4.464  10.913 -0.2738  0.1738  0.1678
 2449W        W 6513   4.020   3.853   0.243  0.1229  0.1989  0.1949
 2450W        W 6514   2.366   0.473  10.485  0.3521  0.2842 -0.1038
 2451W        W 6515   2.719   0.235   8.595 -0.2849 -0.1359  0.1463
 2452W        W 6516   5.772   1.035  10.676  0.0883 -0.0674 -0.0854
 2453W        W 6517   8.155   1.454   9.168  0.1462 -0.1673  0.4126
 2454W        W 6518   9.187   8.263   7.651  0.0066  0.0437  0.0730
 2455W        W 6519   9.488   2.218   1.382  0.0177  0.3603  0.0777
 2456W        W 6520   9.374   7.477   9.982 -0.0438  0.1300 -0.0395
 2457W        W 6521   4.889   3.758   3.360 -0.2004 -0.0839  0.1644
 2458W        W 6522  10.083   3.665   1.018  0.1285  0.0697  0.1076
 2459W        W 6523   9.242   3.084   9.267  0.1553 -0.1264  0.0067
 2460W        W 6524   4.321   4.544   0.851  0.2014 -0.2060  0.1868
 2461W        W 6525   2.172   5.585  10.861 -0.1443 -0.0741  0.1253
 2462W        W 6526   0.070   0.843  10.943 -0.0954 -0.0233 -0.0728
 2463W        W 6527   9.764   6.279   2.081 -0.0020  0.1171  0.1799
 2464W        W 6528   1.825   8.588   1.303 -0.1079  0.1598 -0.1761
 2465W        W 6529   1.115   6.865   8.869  0.0897 -0.1797  0.0053
 2466W        W 6530   4.661   0.615   8.393 -0.3499  0.1778  0.2004
 2467W        W 6531   9.693   4.452   2.516 -0.1995 -0.0248  0.0573
 2468W        W 6532   2.718   1.408   3.150  0.0112 -0.2423 -0.0246
 2469W        W 6533   3.325   6.965   7.577  0.1797  0.2396 -0.1926
 2470W        W 6534   5.665   3.515   8.704 -0.1856  0.2479 -0.2782
 2471W        W 6535   1.539   9.759   9.573  0.1378 -0.0508 -0.0340
 2472W        W 6536   2.767   2.169   7.651  0.2347  0.0346  0.0144
 2473W        W 6537   5.391   2.193   9.668  0.0507 -0.0471  0.0344
 2474W        W 6538   9.187  10.434   8.138 -0.0857  0.0067  0.0717
 2475W        W 6539   3.288   5.819   1.538  0.0075 -0.1975  0.1506
 2476W        W 6540   0.561   4.520   2.024  0.2328 -0.0079  0.1271
 2477W        W 6541  10.585   8.350  10.292  0.1516  0.1011 -0.0343
 2478W        W 6542   1.944   0.694   8.760 -0.2269 -0.0256 -0.4122
 2479W        W 6543   5.988   2.364   2.351 -0.1210 -0.1214  0.0265
 2480W        W 6544   0.415   2.753  10.021 -0.1388 -0.0503 -0.1148
 2481W        W 6545   0.594   5.405   0.112  0.0015  0.1269 -0.0225
 2482W        W 6546   4.503  10.692   2.054  0.2713 -0.2352  0.2186
 2483W        W 6547   3.669   1.644   8.733 -0.0803 -0.0367 -0.0572
 2484W        W 6548   8.232   7.215  11.205  0.3062 -0.1948  0.3179
 2485W        W 6549   0.817   2.100   3.624 -0.0744  0.1784 -0.2696
 2486W        W 6550   4.388   0.425   2.294  0.2662  0.1715  0.1369
 2487W        W 6551   3.048   4.286   1.670 -0.0732  0.1232  0.2135
 2488W        W 6552   8.759   3.222   3.377  0.1413  0.0649  0.3675
 2489W        W 6553   1.928  10.514   3.112  0.0718 -0.4155  0.1512
 2490W        W 6554   4.068   3.804   1.479  0.0523 -0.2429  0.2024
 2491W        W 6555   1.191   9.598   0.797  0.0506 -0.0625  0.0287
 2492W        W 6556   2.633   8.353   2.532  0.0676 -0.0335 -0.4479
 2493W        W 6557   1.304   5.327   8.763 -0.1839  0.3629  0.1764
 2494W        W 6558   8.771   4.919  10.227 -0.2124  0.1981 -0.0944
 2495W        W 6559   8.941   8.563   9.026 -0.3221 -0.1182  0.2573
 2496W        W 6560   1.053   2.614   7.631  0.3416 -0.2988 -0.0916
 2497W        W 6561   6.163   7.784   8.427  0.0435  0.2548 -0.2733
 2498W        W 6562   4.941   9.018   1.170 -0.1559  0.0448 -0.0502
 2499W        W 6563   8.802   5.886   1.746  0.0600 -0.3683 -0.1257
 2500W        W 6564   4.444   9.419   7.970 -0.0073 -0.0348 -0.1274
 2501W        W 6565   5.375   4.407   9.069 -0.0779 -0.0668  0.3624
 2502W        W 6566   1.529   7.109   0.976  0.4144  0.0908  0.0165
 2503W        W 6567   7.258   6.613   8.773 -0.1822 -0.3027  0.0667
 2504W        W 6568   7.459   8.539  10.204 -0.0984 -0.0801 -0.0401
 2505W        W 6569   9.140   4.077   8.306 -0.2016  0.5694 -0.0237
 2506W        W 6570   8.898   0.440   0.249 -0.1927 -0.0328 -0.0675
 2507W        W 6571   9.528   7.421   8.807  0.1085 -0.2063 -0.0464
 2508W        W 6572  10.446   5.933   1.622 -0.0079 -0.1581  0.0518
 2509W        W 6573   3.294   0.367   0.197 -0.0984  0.2190 -0.0879
 2510W        W 6574   8.061   6.702   1.306  0.1224 -0.2565 -0.0538
 2511W        W 6575   0.319   0.494   9.147  0.0229 -0.0555 -0.1507
 2512W        W 6576   2.957   6.166   9.156 -0.2604  0.0050 -0.1456
 2513W        W 6577   9.700   6.068   3.654 -0.1886 -0.4090  0.1124
 2514W        W 6578   0.404   9.617   8.479  0.1373 -0.1818  0.1887
 2515W        W 6579   1.264   3.835   9.791  0.1463  0.1100  0.1261
 2516W        W 6580   4.732   4.977  10.877  0.2578 -0.2799 -0.2727
 2517W        W 6581   9.881   1.694  11.107  0.0075 -0.0100  0.1373
 2518W        W 6582   2.112   1.614   1.493 -0.0144 -0.0923 -0.0895
 2519W        W 6583   5.061   5.784   6.753 -0.3818 -0.2558 -0.0014
 2520W        W 6584  10.535   3.535   1.351  0.0921 -0.1288  0.0515
 2521W        W 6585  10.378   8.234   9.816  0.2062  0.1815 -0.1174
 2522W        W 6586   3.591  10.103   7.073 -0.0846  0.0067 -0.4431
 2523W        W 6587   6.306   7.786   7.895  0.0459 -0.1571  0.1073
 2524W        W 6588   0.365   5.703   0.433 -0.1003  0.3230 -0.1510
 2525W        W 6589   7.778   5.853   2.947  0.1380  0.4010  0.0275
 2526W        W 6590   9.059   7.614   3.342 -0.2940  0.1003 -0.0567
 2527W        W 6591   8.862   1.694   8.860 -0.2195  0.0374 -0.1348
 2528W        W 6592   1.301   7.614   2.699  0.0477 -0.1466 -0.2350
 2529W        W 6593   4.875   0.139  10.816 -0.0964 -0.2051 -0.0763
 2530W        W 6594   1.729   6.227   2.344 -0.3368 -0.0916 -0.0783
 2531W        W 6595   0.524   7.461   1.529  0.0590 -0.2461  0.2146
 2532W        W 6596   8.262   6.840   0.885 -0.0385  0.2129 -0.0589
 2533W        W 6597   2.000   8.382   8.538 -0.1695 -0.2638 -0.4891
 2534W        W 6598   9.500   1.587  10.257 -0.0688 -0.0183 -0.2405
 2535W        W 6599   1.190   9.675   1.332 -0.1586  0.0218  0.1953
 2536W        W 6600   7.656   2.177   0.912 -0.2096  0.2437  0.1483
 2537W        W 6601   8.925   8.128   8.730  0.1440  0.2384 -0.1519
 2538W        W 6602   1.757   9.489   7.221  0.1547 -0.0137 -0.0987
 2539W        W 6603   1.898  10.154   7.819  0.3707 -0.2021 -0.1137
 2540W        W 6604   7.080   0.178   2.741  0.2770  0.0525 -0.0413
 2541W        W 6605   3.232   7.253   8.485 -0.0801 -0.3280 -0.1581
 2542W        W 6606   8.009   8.952   2.234  0.1379 -0.2804  0.0412
 2543W        W 6607   8.555   2.576  10.852  0.1619 -0.2071 -0.0904
 2544W        W 6608   8.201  10.002   1.456 -0.1473  0.3143  0.0252
 2545W        W 6609   2.089   0.952   2.836 -0.3105 -0.1201 -0.2012
 2546W        W 6610   2.143   3.428   1.134 -0.0947  0.2257  0.1581
 2547W        W 6611   4.172  10.629   8.365 -0.0329 -0.2913 -0.3647
 2548W        W 6612   1.801   8.576   7.638 -0.1754  0.1636 -0.1467
 2549W        W 6613   5.129   5.945   9.656 -0.0784 -0.2291  0.2118
 2550W        W 6614   9.771   0.381   0.609 -0.2448  0.3092  0.0131
 2551W        W 6615   6.121   6.612   1.344  0.0695  0.0123 -0.0869
 2552W        W 6616   0.946   5.761   2.988 -0.0646  0.1745  0.5604
 2553W        W 6617   0.811   5.142   9.442 -0.0127 -0.0423 -0.2493
 2554W        W 6618   9.934   1.981   8.905  0.0629  0.0060 -0.0851
 2555W        W 6619   2.987   3.855   7.086 -0.3852 -0.3324  0.2763
 2556W        W 6620   9.146   4.383   9.171  0.6222  0.0601  0.0328
 2557W        W 6621   2.090   4.288   1.370  0.0878  0.0615 -0.0872
 2558W        W 6622   0.726   3.206   2.964 -0.1688  0.3352  0.0161
 2559W        W 6623   8.638  10.028   8.423  0.2860  0.2159  0.2622
 2560W        W 6624   1.567   8.086   7.932 -0.0195 -0.1443  0.0475
 2561W        W 6625   4.220   7.313   1.119 -0.0276 -0.0601 -0.3399
 2562W        W 6626   0.256   2.355   0.860 -0.0459  0.0092 -0.1161
 2563W        W 6627   7.904   5.964   3.428  0.0339 -0.1417 -0.0367
 2564W        W 6628   8.384  10.703   1.820 -0.0285 -0.0434  0.4505
 2565W        W 6629   4.319   4.887   9.339 -0.0549 -0.1331 -0.1071
 2566W        W 6630   7.623   5.528   3.321  0.1150 -0.0315 -0.2029
 2567W        W 6631   4.145   2.812   1.844 -0.2971 -0.0099  0.0335
 2568W        W 6632   0.983  10.285   3.134 -0.0012 -0.3286 -0.2751
 2569W        W 6633   0.084   9.570   1.154 -0.0942 -0.0360  0.0045
 2570W        W 6634   6.163   7.447   9.187 -0.2667  0.0363 -0.0065
 2571W        W 6635  10.654   7.884  10.115  0.1991 -0.3004 -0.1565
 2572W        W 6636   6.521   4.656   2.097 -0.0008  0.1044 -0.0338
 2573W        W 6637   4.444   8.508   8.405 -0.0596 -0.0015 -0.1033
 2574W        W 6638   8.841   3.602   7.172  0.0814  0.2347  0.1168
 2575W        W 6639  10.346   2.239  10.109  0.1064  0.0165 -0.0725
 2576W        W 6640   4.270   1.320   1.081 -0.0452 -0.0359 -0.0852
 2577W        W 6641   9.559   3.467   0.810 -0.0405 -0.1859  0.1234
 2578W        W 6642   7.675   3.025   3.999 -0.1084 -0.1757 -0.0189
 2579W        W 6643  10.286   6.018  10.776 -0.0218  0.4691  0.1551
 2580W        W 6644   5.457   5.942   7.806  0.0390 -0.3204  0.0493
 2581W        W 6645   4.120   9.411   1.636 -0.0871  0.1729 -0.4685
 2582W        W 6646   8.002   0.686   3.136 -0.0513 -0.1456  0.3005
 2583W        W 6647   2.856  10.349   7.945  0.0677  0.5034 -0.0008
 2584W        W 6648   0.071   2.768   1.014  0.1275  0.0507  0.3742
 2585W        W 6649   9.279   4.948   2.700 -0.1111 -0.0410 -0.1656
 2586W        W 6650   2.405   7.515   8.214  0.1830 -0.1341 -0.0365
 2587W        W 6651   3.730  10.315   8.487 -0.0482  0.1798 -0.1375
 2588W        W 6652   7.178   3.315   9.471  0.1437  0.0185  0.1776
 2589W        W 6653   3.587   1.695   0.327  0.0719  0.1079  0.0348
 2590W        W 6654   4.936   3.058   2.746 -0.0532 -0.1248  0.0412
 2591W        W 6655   1.251   1.775   9.424 -0.0163  0.0538 -0.1057
 2592W        W 6656   1.062   3.563   2.558  0.0875 -0.1819  0.2597
 2593W        W 6657   9.682   4.709   0.023 -0.1367  0.1408 -0.2405
 2594W        W 6658  10.738   1.596  10.315 -0.0368 -0.0513  0.1262
 2595W        W 6659   9.670   4.919   9.749  0.1330 -0.0555  0.0562
 2596W        W 6660   0.254   9.322  11.172  0.0829  0.2762 -0.2631
 2597W        W 6661   8.017   5.847   8.217 -0.0561  0.0611  0.0578
 2598W        W 6662   4.615   1.707   1.007 -0.0887 -0.3868 -0.1301
 2599W        W 6663   4.038   4.628   8.797 -0.1259  0.0478  0.2671
 2600W        W 6664   4.995   5.159   1.527 -0.2752  0.1699  0.1784
 2601W        W 6665   5.985  10.174   2.875 -0.1239 -0.0988 -0.1051
 2602W        W 6666   3.985   7.029   0.587  0.1394 -0.0583 -0.2663
 2603W        W 6667  10.767   7.860   9.559  0.0114 -0.3191 -0.3097
 2604W        W 6668   7.798   2.701   1.828 -0.1233  0.0457  0.0838
 2605W        W 6669   8.416   3.036   9.818  0.0475  0.0937 -0.2624
 2606W        W 6670   8.776   7.349   7.756  0.2620  0.1074  0.1571
 2607W        W 6671   4.082   4.825   9.848  0.1377  0.0910 -0.3298
 2608W        W 6672   3.943   0.091   9.261  0.1017  0.0003 -0.0177
 2609W        W 6673   5.169   5.338  10.750  0.1873  0.2161 -0.1171
 2610W        W 6674   3.929   8.680   9.566 -0.0271  0.0311  0.4347
 2611W        W 6675   0.981   9.220   1.154  0.0341 -0.0626 -0.0407
 2612W        W 6676   6.075   1.158   3.140 -0.0386 -0.0426  0.1987
 2613W        W 6677   3.149  10.706   2.487  0.2102 -0.1200  0.1923
 2614W        W 6678   7.240   7.633   8.597  0.4906 -0.3018 -0.1578
 2615W        W 6679   4.178   4.985  10.874  0.0374 -0.0384 -0.1365
 2616W        W 6680   5.165   6.986   9.725 -0.0934  0.0887 -0.0086
 2617W        W 6681   0.329   1.379   9.429 -0.3705  0.0259 -0.0672
 2618W        W 6682   7.538   8.021   8.848  0.0454 -0.0042  0.0667
 2619W        W 6683   0.807   9.034  10.526  0.1964  0.1497  0.1138
 2620W        W 6684   9.330   8.936   1.787 -0.0541 -0.0274 -0.0252
 2621W        W 6685   7.827  10.267   7.551  0.1684  0.2000  0.0187
 2622W        W 6686   0.012   9.944   2.212 -0.0125 -0.3399 -0.0150
 2623W        W 6687   8.062   6.511   8.415 -0.1602 -0.0043 -0.1189
 2624W        W 6688   6.831   6.840   1.428 -0.2956 -0.0379  0.1018
 2625W        W 6689   3.905   7.563  11.032  0.0952  0.5550  0.0325
 2626W        W 6690   1.303  10.343  10.922 -0.0971  0.2278  0.0021
 2627W        W 6691   5.545  10.560   0.100 -0.0211  0.1092 -0.1877
 2628W        W 6692   5.930   7.865   3.481  0.2716 -0.0514  0.0364
 2629W        W 6693   9.364   9.500  11.068  0.0376 -0.1520  0.2615
 2630W        W 6694   0.125   3.062   0.151 -0.1619  0.0385 -0.4063
 2631W        W 6695   5.067   6.983   2.688 -0.1667 -0.0354  0.0540
 2632W        W 6696  10.415   8.704   0.294 -0.2306  0.0700  0.1680
 2633W        W 6697   9.491   1.670   0.091  0.1085  0.0109 -0.0892
 2634W        W 6698   6.495   1.472   9.669  0.0109 -0.0893 -0.3425
 2635W        W 6699  10.334   3.257   6.702  0.1692 -0.1649  0.0546
 2636W        W 6700   7.369   9.065   8.291 -0.0673 -0.1267 -0.1101
 2637W        W 6701   5.246   0.934   9.926 -0.0543  0.1874 -0.1085
 2638W        W 6702   4.956  10.072   9.703  0.0419 -0.2536  0.0674
 2639W        W 6703   3.898   1.963   1.742 -0.0416  0.0647 -0.0845
 2640W        W 6704   2.096   8.970   8.781  0.0916 -0.2715  0.1901
 2641W        W 6705   7.071   6.054   2.122 -0.0237  0.1878 -0.0065
 2642W        W 6706   0.445   9.094   2.471 -0.1076 -0.1503 -0.0677
 2643W        W 6707   3.423   9.892   2.015  0.3308 -0.0632 -0.0884
 2644W        W 6708  10.023   3.358   0.649 -0.0624 -0.1549 -0.2062
 2645W        W 6709   3.119   8.087   9.166  0.1194 -0.0606 -0.1336
 2646W        W 6710   6.900   2.178   3.830  0.1080 -0.4058  0.3018
 2647W        W 6711   1.906   3.589   3.500  0.0207 -0.0293  0.0184
 2648W        W 6712   9.169   6.622   9.748  0.1089 -0.2100 -0.3938
 2649W        W 6713   0.001   8.133   8.359 -0.3412  0.0421 -0.0128
 2650W        W 6714   4.652   6.144   2.887 -0.2711 -0.3206  0.0540
 2651W        W 6715   4.207   1.564   9.610  0.2491  0.0215  0.2247
 2652W        W 6716   8.529  10.595   9.231  0.0121  0.3089 -0.4344
 2653W        W 6717   5.206   2.370  10.611 -0.3098 -0.1497  0.1644
 2654W        W 6718   4.387   6.922  10.008  0.0188  0.0353  0.1264
 2655W        W 6719   2.981   0.818   1.964 -0.1159  0.1103 -0.1163
 2656W        W 6720   8.213   7.653   2.939  0.0424  0.1468  0.1207
 2657W        W 6721   2.629   6.391   1.829 -0.0942 -0.2905  0.2375
 2658W        W 6722   8.788   3.377   1.367 -0.0836 -0.2732  0.1428
 2659W        W 6723  10.497   1.411   8.543 -0.0317 -0.2402  0.2779
 2660W        W 6724   6.368   3.080   2.721 -0.2073  0.0778  0.0868
 2661W        W 6725   9.147   2.915   8.567  0.0052 -0.0351 -0.0527
 2662W        W 6726   1.406   6.274   1.184 -0.0684  0.1883  0.1577
 2663W        W 6727   6.748   8.978   0.446 -0.1907 -0.2841  0.0453
 2664W        W 6728   0.675   3.686   2.206 -0.1998 -0.1683  0.0260
 2665W        W 6729   9.741   0.769   9.953  0.1143  0.3316 -0.0843
 2666W        W 6730   4.624  10.259   3.416 -0.2039 -0.2209 -0.1137
 2667W        W 6731  10.015   4.258   2.109  0.0464  0.1570 -0.0917
 2668W        W 6732   3.419   8.512   9.338  0.1499 -0.3492 -0.1848
 2669W        W 6733   5.829   9.141   7.815 -0.0239  0.1605  0.0187
 2670W        W 6734   3.094   9.844   8.209  0.3847  0.1615 -0.0169
 2671W        W 6735   8.222   7.167   2.801  0.0619 -0.1536 -0.1411
 2672W        W 6736   4.932   0.704   0.877  0.1585 -0.1000 -0.3343
 2673W        W 6737   8.272   3.663   2.045  0.3621  0.1886  0.1416
 2674W        W 6738   9.286   2.345   2.860 -0.1484 -0.1838  0.0773
 2675W        W 6739   5.483   5.646  11.045 -0.0062 -0.1408  0.3346
 2676W        W 6740  10.153   3.894  10.312  0.0384  0.2307 -0.0296
 2677W        W 6741   8.556   5.809  10.901 -0.1360  0.0788 -0.3413
 2678W        W 6742   5.410   2.725   9.804  0.1676 -0.0825 -0.0437
 2679W        W 6743   7.032   9.391   1.506  0.0163  0.0854 -0.0582
 2680W        W 6744   6.205   5.462   8.870 -0.3096 -0.0095 -0.0528
 2681W        W 6745   9.275   5.899   8.700  0.2581 -0.1714 -0.1814
 2682W        W 6746   9.399   6.307  10.836  0.2710 -0.2137 -0.1014
 2683W        W 6747   7.123   8.947   2.491  0.0868 -0.4953  0.1264
 2684W        W 6748   9.596   7.042  10.183 -0.2209 -0.1297  0.3492
 2685W        W 6749   3.255   1.649   1.233  0.3603 -0.3109 -0.1845
 2686W        W 6750   9.354   9.967  10.921  0.1235 -0.2638  0.3670
 2687W        W 6751   0.451   7.847   8.282 -0.2866 -0.2660 -0.2075
 2688W        W 6752   3.699   4.095   8.869 -0.3616  0.0127  0.2053
 2689W        W 6753   6.697   7.405   9.391  0.2059  0.0912 -0.3177
 2690W        W 6754   5.115   6.815   8.276 -0.0354 -0.2880 -0.1444
 2691W        W 6755   1.797   2.381   7.046  0.2230  0.1324 -0.0521
 2692W        W 6756   8.321  10.429   1.255  0.3201 -0.2139 -0.0171
 2693W        W 6757   4.865   4.917  10.437 -0.0152 -0.0481  0.1262
 2694W        W 6758   8.925   6.891   7.431 -0.3929  0.4708 -0.2142
 2695W        W 6759   0.947   1.918  10.287 -0.0427  0.3667  0.2483
 2696W        W 6760   5.256   3.594  10.254  0.2736  0.1939  0.0784
 2697W        W 6761   6.014   2.869   2.300  0.0675  0.2661 -0.0089
 2698W        W 6762   6.870   0.129   9.391  0.1499  0.2329 -0.2230
 2699W        W 6763   1.081   2.724   8.603  0.2238  0.0538 -0.1351
 2700W        W 6764   0.919   6.956  10.303 -0.3120  0.2751 -0.1550
 2701W        W 6765   3.704   0.410  11.184 -0.1725 -0.3146  0.1510
 2702W        W 6766   8.233   8.055   3.336  0.5395 -0.0793 -0.0548
 2703W        W 6767  10.499   0.297  10.600  0.0491  0.0789 -0.1141
 2704W        W 6768   3.945   6.433   1.222  0.2139 -0.0107  0.3081
 2705W        W 6769   9.062   7.044  10.930 -0.1891 -0.1322  0.2130
 2706W        W 6770   8.961   4.597  10.601 -0.1571  0.2724  0.2350
 2707W        W 6771   7.619   2.543   9.534 -0.2871  0.0409 -0.0279
 2708W        W 6772   9.737   7.208   1.277 -0.1369  0.1971  0.1405
 2709W        W 6773   6.003   2.574   1.905  0.3321 -0.5175 -0.5003
 2710W        W 6774   0.981   2.793  10.632  0.3256 -0.0005 -0.1175
 2711W        W 6775   4.840   4.166   0.058 -0.0577  0.1052 -0.0897
 2712W        W 6776   4.105   2.909   9.166  0.1743  0.0995  0.0933
 2713W        W 6777   3.213   0.148   8.538 -0.1322  0.2346  0.1220
 2714W        W 6778   3.023   1.046  10.680  0.0952 -0.1878 -0.0902
 2715W        W 6779  10.051   8.637   3.781 -0.1879 -0.2811  0.0222
 2716W        W 6780   2.777   1.353   9.413  0.1458  0.0413  0.0144
 2717W        W 6781   9.264   4.109   2.534 -0.2037 -0.0594  0.1323
 2718W        W 6782   3.824   0.884   1.362 -0.1742  0.1151  0.0283
 2719W        W 6783   3.670   8.707   2.954  0.0878  0.1955  0.3287
 2720W        W 6784   2.710   1.794  10.484 -0.0893  0.1347 -0.4031
 2721W        W 6785   4.238   7.628   0.165 -0.0669  0.1661 -0.1858
 2722W        W 6786   9.259   7.702  10.406  0.2264  0.0732 -0.1185
 2723W        W 6787   5.863   3.914   8.495  0.1583 -0.3656  0.1210
 2724W        W 6788   5.425   5.313   0.588  0.2153 -0.1207 -0.0627
 2725W        W 6789   9.867  10.575   2.858 -0.3360  0.0731 -0.3829
 2726W        W 6790   7.954   0.518   0.011  0.1191 -0.1877  0.1718
 2727W        W 6791   6.919   9.594   9.627 -0.0090 -0.0355  0.0606
 2728W        W 6792   2.397   5.486   0.046  0.1669 -0.0645 -0.2053
 2729W        W 6793   6.285   7.939  10.637 -0.2258  0.1176  0.2603
 2730W        W 6794   9.112   2.474   7.792  0.1607 -0.2272 -0.1771
 2731W        W 6795   7.515   2.665   0.910  0.1925 -0.1155 -0.2799
 2732W        W 6796   8.343   5.372   9.644 -0.0855 -0.4400  0.3695
 2733W        W 6797   2.995   8.381   0.775 -0.3778  0.0985  0.1854
 2734W        W 6798   3.349  10.387   2.111  0.3274  0.0680 -0.0223
 2735W        W 6799   6.997   0.946   9.653 -0.0644  0.0245 -0.2110
 2736W        W 6800   0.603   4.607   8.382 -0.0988  0.0432  0.2406
 2737W        W 6801   8.820   6.395   7.570 -0.1884 -0.0893 -0.1728
 2738W        W 6802   7.836   7.595   1.497  0.1680  0.0600 -0.1575
 2739W        W 6803   1.634   9.202   8.973 -0.2458  0.2190  0.3154
 2740W        W 6804   4.125   6.123  10.336  0.1674  0.1219  0.2043
 2741W        W 6805  10.398  10.163   1.918  0.3659 -0.0350  0.0506
 2742W        W 6806   6.980   7.462   9.810  0.2603 -0.0612  0.0260
 2743W        W 6807   1.397   0.936   3.435  0.4422  0.0454  0.0855
 2744W        W 6808   5.681   2.184   8.377  0.0885  0.1007  0.0244
 2745W        W 6809   6.165   6.637   7.150 -0.2325  0.1102 -0.0589
 2746W        W 6810   8.416   9.889  11.291 -0.0242  0.0454  0.0513
 2747W        W 6811   7.703   5.817   0.035 -0.5145  0.1593  0.2402
 2748W        W 6812   8.094   4.430   8.777 -0.1451  0.2795 -0.0239
 2749W        W 6813   9.365   8.661  10.571  0.5031  0.1341  0.2323
 2750W        W 6814   2.394   3.499   9.568 -0.0881  0.1388 -0.3383
 2751W        W 6815   8.462   8.082   8.368  0.0982 -0.1967 -0.1100
 2752W        W 6816   4.892   8.450   7.530  0.1248 -0.1082 -0.4295
 2753W        W 6817   0.512   7.492   0.738 -0.0773 -0.0075  0.1608
 2754W        W 6818   4.820   8.045   7.963 -0.1316 -0.2262 -0.1757
 2755W        W 6819   3.915   2.288   9.937 -0.1504 -0.0996  0.1761
 2756W        W 6820   0.225   3.425   8.016  0.0331  0.2513 -0.0475
 2757W        W 6821   6.121   4.466   2.353  0.0651  0.2942  0.1100
 2758W        W 6822   7.345   2.139   8.264 -0.1292 -0.2077  0.3601
 2759W        W 6823   7.265   7.806  10.819  0.0536  0.1179  0.1166
 2760W        W 6824   9.398   8.837   7.028  0.1814  0.2354  0.0444
 2761W        W 6825   8.407   5.098   2.314 -0.2718  0.1868 -0.1869
 2762W        W 6826  10.458   2.654   9.597  0.1497 -0.2144  0.1146
 2763W        W 6827   2.766   9.017   9.476 -0.0967 -0.3976 -0.0850
 2764W        W 6828   2.668   3.864   9.788 -0.0583 -0.0762 -0.0591
 2765W        W 6829   5.012   7.193   2.159 -0.1282 -0.1328  0.1109
 2766W        W 6830   6.603  10.472  10.547 -0.0348  0.0314  0.0007
 2767W        W 6831   3.174  10.306   1.308 -0.0155 -0.1571 -0.0929
 2768W        W 6832   6.286  10.026   9.153  0.3418  0.1215  0.1703
 2769W        W 6833   4.951   6.420  10.359 -0.1626 -0.2607  0.2865
 2770W        W 6834   7.476   1.568   0.898  0.0132 -0.2416  0.2771
 2771W        W 6835   4.539   1.987   9.737 -0.0700 -0.1977 -0.2221
 2772W        W 6836   9.400   9.406   8.531 -0.0419 -0.2290 -0.0631
 2773W        W 6837   1.569   7.655   7.446 -0.0602  0.2605 -0.2345
 2774W        W 6838   6.043   8.436   8.845 -0.2324 -0.0379 -0.1237
 2775W        W 6839   1.323   3.320   8.426 -0.1953  0.2395  0.1887
 2776W        W 6840   3.404   7.739   8.371  0.0647 -0.1153  0.1384
 2777W        W 6841   7.337   4.609  10.155  0.1088 -0.0995 -0.2657
 2778W        W 6842   2.774   9.522   8.682 -0.2200  0.4953 -0.2311
 2779W        W 6843   8.485   1.556   1.083  0.1546  0.2025  0.2480
 2780W        W 6844   1.293   5.647   0.689 -0.0415  0.0487  0.0208
 2781W        W 6845  10.313   5.526   0.439  0.0825  0.1728 -0.1030
 2782W        W 6846   5.533   7.269   1.343 -0.1288 -0.0191 -0.0747
 2783W        W 6847   8.902   6.278   1.421  0.0900  0.3093 -0.1816
 2784W        W 6848   2.010   9.219   0.316 -0.0655 -0.2129 -0.0327
 2785W        W 6849   2.865   5.296   8.251  0.2602 -0.1104  0.0686
 2786W        W 6850   0.233   3.293   3.663 -0.2091 -0.0970 -0.0030
 2787W        W 6851   1.103   8.556   9.242 -0.0711  0.0526  0.1118
 2788W        W 6852   2.515   2.056  10.916 -0.0163  0.0911  0.1563
 2789W        W 6853   5.383   8.594   9.629 -0.2716 -0.0066  0.0519
 2790W        W 6854   7.400   0.743  10.097 -0.1486  0.0513 -0.1631
 2791W        W 6855   7.443   7.445  10.259 -0.1652 -0.1473  0.0257
 2792W        W 6856   6.868   3.622   2.063 -0.1100 -0.1524 -0.0137
 2793W        W 6857   9.278   6.168   0.870  0.1092  0.1754 -0.2818
 2794W        W 6858   7.207   1.090  10.563  0.2142  0.2306  0.1523
 2795W        W 6859  10.586   1.798   8.891  0.1804  0.0449  0.4202
 2796W        W 6860   5.813   9.532   2.660  0.0147 -0.2884 -0.0268
 2797W        W 6861   8.794   3.094   9.572 -0.2286 -0.0491  0.0612
 2798W        W 6862   0.933   4.987   8.403 -0.1757 -0.3490 -0.1317
 2799W        W 6863   5.051   6.435   2.738  0.0792 -0.1808 -0.0104
 2800W        W 6864   6.679   3.620   2.480  0.3068 -0.4028 -0.1903
 2801W        W 6865   6.126  10.541   9.677 -0.3025 -0.1321 -0.0531
 2802W        W 6866   5.969   6.838   7.581 -0.0085  0.1301 -0.0641
 2803W        W 6867   5.579  10.508  10.356  0.0414 -0.1771 -0.1450
 2804W        W 6868   3.026   5.184   8.692 -0.0832  0.0077  0.2616
 2805W        W 6869   9.350   2.291   1.915 -0.1924  0.2706 -0.1791
 2806W        W 6870   0.728   0.907   0.940 -0.0131  0.0886 -0.4280
 2807W        W 6871   4.011   1.058   2.703  0.0487  0.2697  0.0533
 2808W        W 6872   6.502   2.338   1.237 -0.0944  0.2369 -0.0585
 2809W        W 6873   8.337   5.325   0.388 -0.0248 -0.4638 -0.1887
 2810W        W 6874   0.224   4.750   9.879 -0.3513 -0.1799  0.0177
 2811W        W 6875   1.754   7.802   8.870 -0.4090 -0.1194  0.0258
 2812W        W 6876   6.217   7.307   8.676  0.0672 -0.2950  0.2235
 2813W        W 6877   0.300   9.487   7.453  0.1993 -0.0995  0.2679
 2814W        W 6878   9.862   9.812   1.071  0.0413  0.0409  0.2354
 2815W        W 6879   2.772   9.490   1.465 -0.1876 -0.3348 -0.0021
 2816W        W 6880   6.536   7.958  11.136 -0.1792 -0.3122  0.0315
 2817W        W 6881   9.892   9.061   9.905  0.0340  0.1452  0.2143
 2818W        W 6882   3.483   7.426  10.229 -0.0939 -0.1486  0.0493
 2819W        W 6883   1.948   7.880   1.425  0.1348  0.4378  0.0318
 2820W        W 6884   9.461   1.955   8.531  0.1541  0.3252 -0.1750
 2821W        W 6885   2.383   1.340   2.788 -0.1133  0.1583  0.1571
 2822W        W 6886   3.952   2.329   0.003 -0.0908  0.1851 -0.2183
 2823W        W 6887   9.457   0.004   9.761  0.0341 -0.0641 -0.0121
 2824W        W 6888   8.267   4.594   1.030  0.4298 -0.0177  0.0396
 2825W        W 6889   4.471   5.113   1.464  0.0433 -0.1418  0.0252
 2826W        W 6890   8.827   1.493   7.941  0.1081  0.0550  0.1669
 2827W        W 6891   4.730  10.049  10.870 -0.0859 -0.2589  0.0822
 2828W        W 6892   2.264   4.066  10.516  0.1259  0.0214 -0.1864
 2829W        W 6893   4.838   4.466  10.813 -0.0965 -0.2280  0.3960
 2830W        W 6894   6.944   8.162   1.371 -0.1295 -0.0357  0.2724
 2831W        W 6895   9.110   0.598  10.556  0.2788 -0.2214  0.1713
 2832W        W 6896   9.318   9.105   0.880  0.1763  0.1338 -0.0972
 2833W        W 6897   4.882   0.190   1.218 -0.4495  0.1940  0.1271
 2834W        W 6898   4.767   0.429   7.915 -0.2868 -0.1539 -0.0390
 2835W        W 6899   9.025   4.140   1.812 -0.2386  0.2230 -0.2240
 2836W        W 6900   5.232   0.527   1.195  0.2016  0.0944  0.0697
 2837W        W 6901   1.243   3.414   9.297  0.0142  0.0354  0.2001
 2838W        W 6902   5.763   4.283   9.411  0.4560  0.2295 -0.1640
 2839W        W 6903   3.303   3.813   9.243 -0.3087 -0.0504 -0.0811
 2840W        W 6904   4.457   1.438   1.869 -0.1957  0.0360 -0.0088
 2841W        W 6905   4.172   2.703   2.914 -0.3471 -0.5281 -0.0492
 2842W        W 6906   0.095   7.654   0.192  0.0609 -0.4681  0.0550
 2843W        W 6907   4.844   4.313   9.246 -0.4452  0.0229  0.0958
 2844W        W 6908   6.182   1.355   7.681  0.2826 -0.1019  0.0649
 2845W        W 6909   1.826   8.916   9.730 -0.0153 -0.0434 -0.0074
 2846W        W 6910   9.731   7.797   0.940  0.1890 -0.0091  0.4142
 2847W        W 6911   3.908   9.940  10.851 -0.2737 -0.0650 -0.0157
 2848W        W 6912   0.842   5.086   8.927 -0.0261  0.1252 -0.1680
 2849W        W 6913   9.878   1.249  10.007  0.1881  0.0188  0.0633
 2850W        W 6914   9.069   5.482   2.650 -0.0037 -0.4834 -0.2031
 2851W        W 6915   5.899   9.273   9.291 -0.0452 -0.1290 -0.0751
 2852W        W 6916   3.721   1.843   1.273 -0.0657  0.2092 -0.0657
 2853W        W 6917   7.131   3.285   2.737  0.3393 -0.2466  0.0136
 2854W        W 6918   7.992   1.911   9.018 -0.0207  0.1583  0.1880
 2855W        W 6919   7.246   0.495   3.131  0.2709  0.2461  0.2139
 2856W        W 6920   6.702   3.274   0.037  0.0119 -0.4273 -0.2212
 2857W        W 6921   9.919   4.345   8.110 -0.1194 -0.1639  0.2983
 2858W        W 6922  10.420   6.165   6.980 -0.0164  0.2476  0.0193
 2859W        W 6923   0.230   9.975   3.674 -0.0918  0.1349  0.0405
 2860W        W 6924   5.285   3.417   7.951  0.0879 -0.0408 -0.0947
 2861W        W 6925   3.015   1.148   7.644 -0.3050 -0.2928 -0.0759
 2862W        W 6926   8.994   2.947   2.555  0.2226  0.1472  0.0192
 2863W        W 6927   1.293   2.627   2.025 -0.1290  0.0282  0.4914
 2864W        W 6928   7.807   3.670   2.266 -0.0248 -0.1519  0.2794
 2865W        W 6929   0.875   9.957   0.981  0.0169  0.3598 -0.1148
 2866W        W 6930   3.439   0.891   7.756 -0.1896  0.1258  0.2301
 2867W        W 6931   1.453   7.978   7.050  0.1599  0.0168  0.3918
 2868W        W 6932   5.877   1.751   1.584  0.3791 -0.1826 -0.0671
 2869W        W 6933   3.127   3.180   1.979  0.0626  0.0801  0.1540
 2870W        W 6934   1.700  10.065   0.431 -0.2943  0.1286 -0.1440
 2871W        W 6935   1.974   0.856   9.879  0.2151 -0.3543 -0.1709
 2872W        W 6936   1.294   6.280   2.613 -0.0978 -0.1028  0.0683
 2873W        W 6937   3.278   6.574  10.633 -0.0057  0.0140 -0.0696
 2874W        W 6938  10.080   8.200   8.547  0.1653 -0.1241  0.1811
 2875W        W 6939   2.400   0.556   0.771 -0.2228  0.0937  0.2216
 2876W        W 6940   2.396   1.394   2.309 -0.0998  0.2646 -0.1404
 2877W        W 6941   7.450   0.448  11.268  0.3502 -0.0475  0.2301
 2878W        W 6942   7.651   8.790   2.882  0.1109 -0.1204 -0.1434
 2879W        W 6943   3.947  10.127   0.921  0.1360 -0.1842  0.3385
 2880W        W 6944   7.321   8.961   7.810  0.0979 -0.1001 -0.4163
 2881W        W 6945   8.571   9.566  10.906 -0.0043 -0.1260 -0.1922
 2882W        W 6946   5.842   8.674   2.782 -0.1680 -0.0158  0.2509
 2883W        W 6947   7.636   8.848  10.547 -0.0413 -0.1213 -0.2522
 2884W        W 6948   2.846   0.507   2.668 -0.3617  0.1251 -0.0100
 2885W        W 6949   6.628   5.159   2.097  0.2217 -0.2239 -0.2625
 2886W        W 6950  10.675   1.074   7.703 -0.0146 -0.0086 -0.2504
 2887W        W 6951   7.992   0.639   9.606  0.1147 -0.0006 -0.0274
 2888W        W 6952   3.303   9.930   0.749  0.0569  0.1722 -0.0070
 2889W        W 6953   8.373   9.077   0.463 -0.1604 -0.0497  0.0485
 2890W        W 6954   7.522   8.210   2.820 -0.2212 -0.2652 -0.1202
 2891W        W 6955   9.909   0.762   0.982  0.3225 -0.0735 -0.0487
 2892W        W 6956  10.718   4.802  10.905 -0.2488  0.3247  0.1200
 2893W        W 6957   6.353   8.685   9.926 -0.3699 -0.2264 -0.2653
 2894W        W 6958   5.286   5.831   8.603 -0.2196 -0.1128  0.0104
 2895W        W 6959   1.168   7.664   2.154  0.0520  0.0162 -0.2723
 2896W        W 6960   8.619   0.542   3.032 -0.0697  0.4223  0.0918
 2897W        W 6961   7.233   5.052   7.321  0.1185 -0.1284 -0.1218
 2898W        W 6962   7.663   9.229   3.184 -0.0690  0.3750 -0.2528
 2899W        W 6963   1.054   8.422   6.653  0.0283  0.1704  0.1589
 2900W        W 6964   7.922   4.100   8.104  0.0078  0.1102  0.0570
 2901W        W 6965   2.949   7.253   9.326 -0.2490  0.1488  0.2181
 2902W        W 6966   8.883   9.605   2.776 -0.0261 -0.1923 -0.2137
 2903W        W 6967   2.792   2.464   3.025  0.1000  0.3247  0.0300
 2904W        W 6968   1.977   2.475   7.555 -0.1975 -0.0396  0.0030
 2905W        W 6969   8.635   6.109   2.736 -0.1063  0.2595 -0.0362
 2906W        W 6970   1.420   8.634   7.164  0.0232  0.0073  0.1923
 2907W        W 6971   6.816   6.839   3.728  0.0800  0.0328 -0.0459
 2908W        W 6972   6.590   0.650  11.215  0.1530  0.3139  0.2578
 2909W        W 6973   1.415   7.264   2.365 -0.1357 -0.2457  0.2148
 2910W        W 6974   6.020   6.296  10.523 -0.2428  0.1968 -0.1951
 2911W        W 6975   4.615   7.053   8.895  0.0259  0.0761 -0.1332
 2912W        W 6976   1.718   8.497   2.682 -0.1761  0.1643  0.1651
 2913W        W 6977   4.618   9.168   1.537  0.0783 -0.0256 -0.0946
 2914W        W 6978   7.178   5.994   0.227 -0.0139 -0.2592 -0.0239
 2915W        W 6979   5.771   7.595  10.027 -0.2726 -0.1454  0.0914
 2916W        W 6980   2.433   2.940   9.005 -0.0196  0.2562  0.0290
 2917W        W 6981   1.707   4.034   9.260 -0.0829 -0.2302 -0.3658
 2918W        W 6982   0.618  10.169   8.083 -0.0010  0.0317 -0.1378
 2919W        W 6983   9.809   8.174   9.281 -0.5166 -0.1558  0.1987
 2920W        W 6984   0.802   0.792   1.577  0.3062  0.0200  0.2909
 2921W        W 6985   9.091   4.040   0.942 -0.0153  0.4123 -0.0036
 2922W        W 6986   4.076   5.017   0.767  0.1062 -0.0724  0.2800
 2923W        W 6987   0.591   6.620  10.192  0.0847  0.0693  0.2239
 2924W        W 6988   4.316   7.131  10.948 -0.0568  0.0189 -0.0784
 2925W        W 6989   0.770   9.989   8.542  0.1385  0.0959  0.2041
 2926W        W 6990   1.179   9.836   2.429 -0.1536 -0.0625  0.2874
 2927W        W 6991   8.270   2.780   1.770  0.1300  0.0786 -0.2476
 2928W        W 6992   2.398   9.690  10.689  0.2984 -0.1459 -0.2142
 2929W        W 6993   4.278   9.313   1.130 -0.1390 -0.5130 -0.0652
 2930W        W 6994   7.233   2.939   9.828 -0.2996  0.3872 -0.1823
 2931W        W 6995  10.596   7.685   0.983  0.1093 -0.1893 -0.2003
 2932W        W 6996   3.050   8.707   9.810 -0.0881 -0.0769 -0.1921
 2933W        W 6997   3.848   5.697   0.616 -0.0280 -0.2906 -0.0653
 2934W        W 6998   3.634   1.946  11.213 -0.0731  0.1603 -0.3541
 2935W        W 6999   4.220   9.042   0.712 -0.0188 -0.0241 -0.0371
 2936W        W 7000  10.099   9.123   1.754  0.0360 -0.0070  0.2630
 2937W        W 7001   5.191   9.512   3.466  0.1379  0.1229 -0.1496
 2938W        W 7002   2.069   7.379   8.984  0.3669 -0.1085 -0.1055
 2939W        W 7003   7.418   5.096   3.647 -0.1707  0.1226  0.1547
 2940W        W 7004   0.514   3.770   7.727 -0.2475 -0.1062 -0.1732
 2941W        W 7005   4.571   6.928   2.022 -0.1032 -0.4240  0.0158
 2942W        W 7006   7.814   1.943  11.282  0.2777 -0.0325  0.0475
 2943W        W 7007   4.341   3.947   8.134 -0.0416 -0.3546 -0.1770
 2944W        W 7008  10.686   3.504   9.045  0.1564  0.3298  0.1121
 2945W        W 7009   1.769   3.193   0.234  0.0542 -0.0290  0.3019
 2946W        W 7010   4.300   4.954   8.402 -0.3092 -0.3035  0.0193
 2947W        W 7011   3.434   6.135   9.840 -0.1587 -0.1133 -0.0843
 2948W        W 7012   7.207   4.083   8.411  0.0283 -0.0584 -0.1609
 2949W        W 7013   9.901   1.831   3.065  0.0602  0.2105  0.0562
 2950W        W 7014   4.039   5.058   8.984  0.1080  0.0164 -0.0207
 2951W        W 7015   6.587  10.011   2.174 -0.3550 -0.4362  0.0991
 2952W        W 7016   9.527   9.987   2.636 -0.2366 -0.1497 -0.1061
 2953W        W 7017  10.033   8.138  10.943  0.1539  0.0845 -0.1223
 2954W        W 7018   7.130   4.302   0.292 -0.5115  0.0459  0.3309
 2955W        W 7019   0.765   1.577   7.636 -0.0048 -0.2239  0.0099
 2956W        W 7020   6.114  10.660   1.954 -0.0368  0.2869 -0.2730
 2957W        W 7021   8.715   3.769   3.203  0.0360  0.3151 -0.0530
 2958W        W 7022   1.039   5.597   9.079 -0.2360 -0.3619  0.1171
 2959W        W 7023   8.841   4.058   1.351  0.1318 -0.0992 -0.0029
 2960W        W 7024   6.842   0.062   9.979  0.2141  0.0726  0.0828
 2961W        W 7025   9.593  10.672   3.284  0.0673 -0.2467  0.1726
 2962W        W 7026   7.945   2.347  10.325  0.0879 -0.2316 -0.0283
 2963W        W 7027   1.744   4.211  10.636 -0.0043  0.1291 -0.0780
 2964W        W 7028   6.790   2.404   0.136  0.0752  0.0593 -0.1475
 2965W        W 7029  10.425   1.152   1.691 -0.0326  0.1843 -0.2483
 2966W        W 7030   9.684   1.680   3.518 -0.0871 -0.0003  0.0222
 2967W        W 7031   4.747   2.941   1.667  0.0460  0.2652  0.1618
 2968W        W 7032   8.705  10.316   8.038 -0.2088  0.1974 -0.1339
 2969W        W 7033   1.424   7.285  11.201  0.2196  0.0376 -0.0206
 2970W        W 7034   0.982   5.555  11.045  0.0217 -0.1154 -0.0189
 2971W        W 7035   8.131   0.433  10.129 -0.2506 -0.1773  0.2750
 2972W        W 7036   3.509   0.322   9.518  0.0801  0.2133 -0.0056
 2973W        W 7037   6.637   3.508   7.740 -0.1156  0.0259 -0.2680
 2974W        W 7038   9.853   8.786   0.822  0.1027  0.2990  0.0431
 2975W        W 7039   8.078   6.113   9.720 -0.0290  0.0799 -0.1050
 2976W        W 7040   6.981   1.963  10.686 -0.4171  0.2664 -0.1617
 2977W        W 7041   9.822  10.685   1.444 -0.1514  0.0135  0.2330
 2978W        W 7042   2.047   0.132   9.260 -0.0917 -0.0400 -0.3567
 2979W        W 7043   0.419   9.192  10.217 -0.0765 -0.0049 -0.1616
 2980W        W 7044   6.254   0.395   1.701 -0.1927 -0.1407 -0.0686
 2981W        W 7045   5.446   2.154   1.925 -0.0826  0.0493 -0.0044
 2982W        W 7046   3.786   2.643  10.887  0.0343 -0.1472  0.1514
 2983W        W 7047   7.427   1.936  11.009  0.2415 -0.1164  0.0827
 2984W        W 7048   2.795   7.682   8.512  0.1024  0.2652  0.0845
 2985W        W 7049   4.224   6.767   8.679 -0.2747 -0.1867  0.1700
 2986W        W 7050   3.321   9.177   7.603 -0.1691 -0.1250  0.0863
 2987W        W 7051  10.044   2.641  10.403  0.0014  0.1627 -0.0042
 2988W        W 7052   2.044   3.037   9.773 -0.0274 -0.2034  0.2814
 2989W        W 7053   2.237   6.739   8.270  0.2108  0.0217  0.0017
 2990W        W 7054   6.016   9.861   7.174 -0.1625  0.0495 -0.0659
 2991W        W 7055   0.309   2.030   8.726  0.1092  0.1628  0.2245
 2992W        W 7056   7.998   4.919   2.704 -0.1555 -0.4067 -0.0284
 2993W        W 7057   9.953   9.031   2.261  0.0108  0.3130  0.0830
 2994W        W 7058   4.838   4.832   9.384 -0.1158 -0.0821  0.2653
 2995W        W 7059   1.168   4.034   0.901  0.0766 -0.1372 -0.1223
 2996W        W 7060   6.775   6.746   3.092 -0.1156 -0.1104  0.0348
 2997W        W 7061   3.354   9.827   8.654  0.1281  0.2174 -0.1862
 2998W        W 7062   5.785   9.504  10.119  0.0168  0.2776 -0.0776
 2999W        W 7063   4.643   9.651  11.188  0.0126 -0.1568  0.2480
 3000W        W 7064   5.719   9.101   8.311  0.1080 -0.1764  0.0201
 3001W        W 7065   9.882   2.891   7.556 -0.0192 -0.0486  0.0102
 3002W        W 7066   0.032   1.108  10.262 -0.1137 -0.0366 -0.2612
 3003W        W 7067   2.844   3.871  10.586  0.0983  0.2306 -0.2530
 3004W        W 7068   0.066   9.957   1.431  0.2297  0.0199  0.0884
 3005W        W 7069   7.944   8.831   1.739 -0.0471  0.2458 -0.0926
 3006W        W 7070   9.253   8.376   8.497 -0.0161 -0.1124  0.0624
 3007W        W 7071   6.666   0.357   1.954  0.0240  0.1124  0.2604
 3008W        W 7072   4.043   3.658   0.979 -0.1654 -0.0331 -0.1202
 3009W        W 7073   6.242   5.680   3.557 -0.0586 -0.2430  0.2385
 3010W        W 7074   7.598   6.528   1.764  0.1388 -0.1852 -0.1558
 3011W        W 7075   6.285   6.843   2.303  0.0939 -0.1650 -0.1842
 3012W        W 7076  10.407   6.711   6.761 -0.1505 -0.0210 -0.0420
 3013W        W 7077   4.730   9.038   9.324 -0.1971  0.2209 -0.0945
 3014W        W 7078   8.419   2.854   0.581 -0.0667  0.0122  0.0020
 3015W        W 7079   2.141   6.203   2.635  0.2410  0.1065 -0.0369
 3016W        W 7080  10.215   1.832   9.344 -0.0902  0.0587 -0.1848
 3017W        W 7081   8.047   0.319   1.814  0.0856 -0.1168 -0.2808
 3018W        W 7082   4.633   8.329  11.087 -0.0561 -0.4281  0.0358
 3019W        W 7083   9.658   0.250   7.024 -0.1871 -0.2302  0.0265
 3020W        W 7084   3.969   9.709   8.692  0.2366  0.2986 -0.0754
 3021W        W 7085   4.146   2.993   8.219 -0.0961  0.5189  0.1313
 3022W        W 7086   7.498   3.217   3.120 -0.0746  0.2540 -0.0295
 3023W        W 7087   1.360   7.646   1.399 -0.2295 -0.1933  0.1680
 3024W        W 7088  10.250   5.060   2.727 -0.1779 -0.2286  0.0947
 3025W        W 7089   3.855   7.147   7.847  0.1766  0.0628  0.0617
 3026W        W 7090   1.664   5.476   0.481  0.0877  0.2152  0.0523
 3027W        W 7091   1.853   4.651   3.749 -0.0136 -0.0331  0.1890
 3028W        W 7092   5.071   5.867  10.744  0.0206  0.0208 -0.3173
 3029W        W 7093   7.369   2.125   2.260 -0.1279 -0.1600 -0.3999
 3030W        W 7094   9.433   9.657   3.129 -0.1948  0.1935  0.2200
 3031W        W 7095   0.735   9.694  10.350  0.0873  0.1757 -0.3385
 3032W        W 7096   2.562   0.061   0.883  0.1953 -0.2725  0.2598
 3033W        W 7097   8.653   7.954   0.821 -0.0450 -0.1789  0.0974
 3034W        W 7098   7.307   1.600   8.382  0.1552  0.0389  0.0227
 3035W        W 7099   3.763   5.315   0.315 -0.1705  0.1268 -0.0251
 3036W        W 7100   1.917   5.890   2.919  0.1951 -0.3433 -0.2771
 3037W        W 7101   6.848   8.938  11.247  0.2547 -0.1660  0.0113
 3038W        W 7102   5.722   3.499  10.955  0.4767  0.1881  0.1470
 3039W        W 7103   6.689   2.272  10.942  0.3405  0.2117 -0.1155
 3040W        W 7104   3.016   9.593   1.893  0.0149  0.1055  0.0257
 3041W        W 7105   8.613  10.033   1.143  0.0241  0.0109  0.1566
 3042W        W 7106   5.450   1.740   9.563  0.3771  0.0030 -0.1154
 3043W        W 7107   7.255   7.706   0.455 -0.0660  0.1354  0.1169
 3044W        W 7108   5.318   5.422   2.471 -0.1343  0.2608  0.0353
 3045W        W 7109   4.293   0.944  10.534 -0.3239 -0.0672 -0.1354
 3046W        W 7110   0.327   4.251   1.392  0.0340  0.0762 -0.0714
 3047W        W 7111   4.057   0.688   0.731 -0.0776  0.3390 -0.0215
 3048W        W 7112  10.288   3.412  10.033  0.0942 -0.1206 -0.0477
 3049W        W 7113   5.762   6.773   3.408  0.4157 -0.0453  0.3448
 3050W        W 7114   6.988  10.272   2.428 -0.0710  0.0695 -0.2102
 3051W        W 7115   1.843   8.030   9.695 -0.0176 -0.4061 -0.0424
 3052W        W 7116   7.008   6.116   0.993  0.1634  0.2366 -0.2984
 3053W        W 7117   3.155   9.704   9.696 -0.3643  0.2078  0.4270
 3054W        W 7118   5.133   9.844   1.329  0.2165 -0.0432 -0.0590
 3055W        W 7119   9.218   0.135   2.496 -0.1348  0.0266 -0.1631
 3056W        W 7120   2.169   7.471  10.207  0.3273 -0.3394 -0.2601
 3057W        W 7121   9.236   6.704  10.495  0.0626 -0.2322  0.0107
 3058W        W 7122   1.699  10.593   0.460 -0.2744 -0.6284 -0.1302
 3059W        W 7123   7.235   5.979  10.989  0.3127 -0.0953  0.1162
 3060W        W 7124   2.248   6.487   0.396  0.0101 -0.1318  0.0299
 3061W        W 7125   4.620   2.828   3.014  0.1072  0.3189  0.2232
 3062W        W 7126   0.539   9.206   9.237  0.0325  0.0650 -0.0905
 3063W        W 7127   1.452   5.890   0.227 -0.0790 -0.0191  0.0898
 3064W        W 7128   1.223   9.660   2.926 -0.1008 -0.1762 -0.0723
 3065W        W 7129   0.495   4.221   9.446 -0.3628 -0.1525 -0.3370
 3066W        W 7130   0.600   9.084   7.676 -0.1388  0.1240  0.2141
 3067W        W 7131   9.464   1.223   0.451  0.0934 -0.1333 -0.0838
 3068W        W 7132   9.071  10.767   3.495  0.1510 -0.2170  0.5029
 3069W        W 7133   6.882   2.193   2.389 -0.3261  0.0899 -0.3012
 3070W        W 7134   6.647   2.445   0.629  0.1938  0.3449 -0.1111
 3071W        W 7135   1.764   5.141   2.721  0.2183 -0.0191 -0.0452
 3072W        W 7136   8.108   8.141   0.539 -0.0631 -0.0420  0.1549
 3073W        W 7137  10.572   5.103   0.341  0.1519  0.1388  0.0428
 3074W        W 7138   7.222   8.113   9.892 -0.0674  0.3071  0.5202
 3075W        W 7139   1.055   5.067  11.150 -0.3115  0.4011 -0.1647
 3076W        W 7140   6.758   2.373   2.909  0.4519  0.0040  0.1533
 3077W        W 7141   0.044   6.779   9.246  0.5106  0.0542  0.1124
 3078W        W 7142   8.212   2.644   8.997 -0.3456 -0.0050  0.1903
 3079W        W 7143   3.160   9.802   1.449 -0.0660 -0.2276  0.0353
 3080W        W 7144   6.052   2.603   1.395 -0.3173  0.0544  0.2485
 3081W        W 7145   0.571   1.277   2.377  0.1641 -0.0127  0.0193
 3082W        W 7146   0.497   1.311   6.828  0.0272 -0.1522  0.0206
 3083W        W 7147   5.313   4.792  10.683  0.1403  0.1699  0.1659
 3084W        W 7148   8.466   5.876   9.471  0.0892 -0.0078 -0.2686
 3085W        W 7149   1.112  10.500   7.657  0.0300 -0.1248 -0.1361
 3086W        W 7150   7.026   7.689  10.246  0.0120 -0.1108 -0.2464
 3087W        W 7151   9.145  10.133   9.481 -0.3773 -0.1162 -0.0478
 3088W        W 7152  10.385   4.357   7.409  0.2083 -0.0328 -0.1820
 3089W        W 7153   4.070   8.391   1.324 -0.0375  0.2223 -0.1111
 3090W        W 7154   2.109   5.845   8.403  0.0877 -0.2108  0.3014
 3091W        W 7155   5.280   0.778   8.522 -0.1095  0.1530  0.5944
 3092W        W 7156   4.942   0.725   8.938 -0.1295  0.0206 -0.2434
 3093W        W 7157   7.461   3.362   0.370  0.0529 -0.2121 -0.2581
 3094W        W 7158  10.736   0.543   8.781  0.0537  0.0588 -0.3584
 3095W        W 7159   4.107   5.472   0.992 -0.1489 -0.3284 -0.0570
 3096W        W 7160   7.260   0.588  10.670 -0.0259 -0.1307 -0.0487
 3097W        W 7161  10.494   2.841  11.257 -0.1036 -0.1160 -0.0889
 3098W        W 7162   5.303   1.125   1.006 -0.1000 -0.0496  0.1426
 3099W        W 7163   7.946   6.741   2.975  0.0237 -0.0418  0.1403
 3100W        W 7164   4.936   9.392   2.170  0.2860  0.2354  0.2090
 3101W        W 7165  10.552   5.674   8.465  0.1386 -0.1697 -0.1921
 3102W        W 7166   5.795   6.758   2.000 -0.1686  0.2186 -0.1662
 3103W        W 7167  10.115   8.265  10.363  0.1264 -0.1034 -0.1999
 3104W        W 7168   7.583   5.293  11.262  0.0617  0.1401  0.0781
 3105W        W 7169   8.882  10.022  10.804  0.0730  0.2553 -0.0286
 3106W        W 7170   6.425   6.448   9.149  0.1578  0.1317  0.2851
 3107W        W 7171   4.213  10.654  10.162  0.0355  0.0547  0.3004
 3108W        W 7172   7.164   6.159   8.594  0.1112 -0.2449  0.1946
 3109W        W 7173   7.589   9.960  10.387 -0.0198  0.4870  0.0407
 3110W        W 7174   7.551   1.036  10.933  0.5022 -0.2890 -0.1352
 3111W        W 7175   7.635   4.206  11.282  0.0182  0.0273 -0.0142
 3112W        W 7176   4.628   8.777  10.138 -0.5076  0.0536  0.2229
 3113W        W 7177   2.299  10.189   9.371 -0.1160 -0.1394 -0.3323
 3114W        W 7178   9.108   6.568   7.057  0.2380 -0.4541  0.0788
 3115W        W 7179   0.428   6.855   2.065 -0.0304  0.0986  0.4750
 3116W        W 7180  10.010   7.524   0.601 -0.1622  0.1382  0.0299
 3117W        W 7181   0.942   6.673   9.342  0.1191  0.0028 -0.1842
 3118W        W 7182   6.271   7.002   7.875 -0.4161 -0.0255 -0.0756
 3119W        W 7183   1.339   5.117   0.659  0.3228 -0.0838  0.2965
 3120W        W 7184   6.478  10.699   8.770 -0.0344  0.0898 -0.1167
 3121W        W 7185   0.395   9.149   6.618 -0.1567  0.0743  0.1282
 3122W        W 7186   9.699  10.291   7.448 -0.1090  0.0110  0.0776
 3123W        W 7187   5.577   8.139   9.908  0.0598  0.0322  0.0490
 3124W        W 7188   3.960   9.058   2.561 -0.2762  0.1753 -0.3543
 3125W        W 7189   7.542   6.318   1.190 -0.0797 -0.0127  0.0830
 3126W        W 7190   3.781   6.128  11.081  0.0317  0.0021 -0.0439
 3127W        W 7191   6.697   2.030   8.304 -0.2656 -0.2136  0.0225
 3128W        W 7192   0.011   8.971   2.763 -0.0275 -0.1082  0.0461
 3129W        W 7193   4.124   2.404   9.041 -0.0623 -0.0646  0.1203
 3130W        W 7194   1.750   3.836  10.281 -0.0077  0.0889  0.1557
 3131W        W 7195   4.553   0.235   1.586 -0.0752  0.1654  0.0335
 3132W        W 7196  10.492   3.818   8.663 -0.2481  0.1201  0.3445
 3133W        W 7197   8.067   5.466  10.538  0.0189  0.2864 -0.0943
 3134W        W 7198   4.824   0.955   9.679 -0.3839  0.2862 -0.1236
 3135W        W 7199   6.779   8.096  10.595  0.0254  0.2967 -0.1681
 3136W        W 7200   6.892   1.100   9.154 -0.3048 -0.0836 -0.0785
 3137W        W 7201   8.918   8.821   0.063  0.0004 -0.1634 -0.3079
 3138W        W 7202   5.608   8.692   0.291  0.1152 -0.4347  0.2984
 3139W        W 7203   8.612   9.452   1.219 -0.0451  0.0812  0.0571
 3140W        W 7204   4.574   7.063   9.564 -0.1531  0.0307 -0.0280
 3141W        W 7205   4.534   3.765   0.249  0.2008 -0.3139  0.1877
 3142W        W 7206   3.046   2.580   0.245 -0.0083 -0.0277  0.0418
 3143W        W 7207   6.867   3.799   0.251 -0.0093  0.2061 -0.3400
 3144W        W 7208   2.453   0.991  10.475 -0.1821 -0.0896  0.2282
 3145W        W 7209   8.407   8.368   8.954  0.3129 -0.2412 -0.1220
 3146W        W 7210   8.716   5.573   9.866  0.2084 -0.3018  0.4319
 3147W        W 7211   4.957   9.808   0.845 -0.1729  0.0178  0.0901
 3148W        W 7212   0.776   0.470   9.403 -0.0152 -0.2390 -0.1612
 3149W        W 7213   1.470   9.058   2.078  0.2306  0.0770  0.2165
 3150W        W 7214   1.619   7.291   1.841 -0.3145  0.0693 -0.0690
 3151W        W 7215   2.614   7.555   9.656 -0.2614  0.2216 -0.1507
 3152W        W 7216   8.782   3.854   9.038 -0.2307  0.0844  0.0410
 3153W        W 7217   1.532   0.673  10.822 -0.1414 -0.0259 -0.0599
 3154W        W 7218   1.779   4.363   1.890  0.1129 -0.1409 -0.1510
 3155W        W 7219   9.780  10.559   8.701 -0.1532 -0.0980 -0.3300
 3156W        W 7220   4.276   8.814   0.192  0.1304  0.2695 -0.1241
 3157W        W 7221   1.641   4.555   2.632 -0.0781 -0.2708 -0.3344
 3158W        W 7222   4.094   4.370  10.231  0.2159 -0.0302 -0.1520
 3159W        W 7223   0.694   8.287  10.004 -0.1317 -0.2528  0.2609
 3160W        W 7224   9.901   3.992  10.854 -0.1421 -0.0646  0.3278
 3161W        W 7225   6.039   6.571   8.003  0.1885  0.2152  0.1114
 3162W        W 7226   7.037   2.583   1.026  0.2274 -0.0356  0.0267
 3163W        W 7227   9.019   3.999   9.470 -0.1518  0.0757  0.1272
 3164W        W 7228   2.456   8.109   0.610 -0.0415 -0.1910 -0.1000
 3165W        W 7229   5.604   3.767   2.436 -0.2171  0.1085 -0.2922
 3166W        W 7230   6.623   0.607   0.462  0.0035  0.3820 -0.4418
 3167W        W 7231   8.808   9.736   7.947 -0.0835  0.0243 -0.0328
 3168W        W 7232   4.577   5.171   9.649 -0.4588 -0.0812 -0.1666
 3169W        W 7233   8.902  10.755   8.855  0.2759 -0.0421  0.0135
 3170W        W 7234   0.369   7.928   8.794  0.0397  0.1411 -0.0360
 3171W        W 7235   8.854  10.037   2.038 -0.3028  0.0056  0.0562
 3172W        W 7236   9.404   4.254   7.383 -0.0133  0.1848 -0.0591
 3173W        W 7237   1.079   5.381   1.630  0.1320 -0.0460  0.0519
 3174W        W 7238   0.081   8.386  11.056  0.1664 -0.0889  0.0522
 3175W        W 7239   8.288   1.050   0.987  0.0345  0.1600 -0.3051
 3176W        W 7240   2.909  10.072   2.103 -0.2522 -0.1597 -0.0056
 3177W        W 7241   2.660   0.875   0.373 -0.2976  0.0811 -0.1917
 3178W        W 7242   1.615   1.804   1.562 -0.1812 -0.0532  0.1333
 3179W        W 7243   6.799   5.696  10.268 -0.2022  0.1545 -0.1637
 3180W        W 7244   5.612   6.322   0.181 -0.1159  0.3214  0.1766
 3181W        W 7245   4.444   9.591   3.140 -0.0848 -0.0709  0.1704
 3182W        W 7246   6.444  10.675   0.416 -0.0952 -0.1098 -0.3186
 3183W        W 7247   0.006   0.247   1.786  0.2551 -0.0313 -0.0487
 3184W        W 7248   6.529   8.299   8.897  0.0663 -0.0593  0.0921
 3185W        W 7249   6.344   5.145   0.341  0.0746  0.0969  0.2009
 3186W        W 7250   8.758   2.311   3.122  0.2344  0.3161 -0.2195
 3187W        W 7251  10.486  10.549   0.977  0.0503  0.0948 -0.0214
 3188W        W 7252   7.985   8.137   9.662  0.0725 -0.1928 -0.0907
 3189W        W 7253  10.461   2.760   8.979 -0.0636  0.0005 -0.0598
 3190W        W 7254   7.040   3.542   8.087  0.0359 -0.2559  0.2596
 3191W        W 7255   7.147   5.236   9.213  0.0782 -0.0101 -0.2432
 3192W        W 7256  10.669   2.215   7.777 -0.0505  0.0352 -0.1430
 3193W        W 7257   8.161   7.540   2.435  0.2384  0.2469 -0.0477
 3194W        W 7258   5.588   2.601   9.327  0.3118  0.1097 -0.1237
 3195W        W 7259   6.597   0.522  10.184  0.2249  0.0710 -0.1838
 3196W        W 7260   0.550  10.276   2.064 -0.0459 -0.0975 -0.1177
 3197W        W 7261   5.043   9.027   2.770 -0.0854 -0.0933  0.0284
 3198W        W 7262   0.256   7.901  11.016 -0.0321  0.1181 -0.0243
 3199W        W 7263   5.219   5.427   9.018  0.4899 -0.0141  0.3348
 3200W        W 7264   4.021   5.341  10.609 -0.2047  0.2951 -0.0232
 3201W        W 7265   8.726   7.319  11.221 -0.0613  0.3637 -0.4229
 3202W        W 7266   4.782   9.915   9.293 -0.2520 -0.1272  0.0614
 3203W        W 7267   8.866   4.494   1.004  0.1600  0.3454 -0.0425
 3204W        W 7268   3.517   0.018   9.073  0.1147  0.2893  0.0302
 3205W        W 7269   8.533   8.023   0.339 -0.1661 -0.1947 -0.1556
 3206W        W 7270   7.112  10.058  10.643  0.1822 -0.2822  0.3897
 3207W        W 7271   5.037   3.331   2.316 -0.0861 -0.3265 -0.1176
 3208W        W 7272   6.596   1.503  10.187  0.2566  0.2193  0.2323
 3209W        W 7273   4.122   4.114   0.727 -0.0281 -0.2580  0.1509
 3210W        W 7274   0.159   6.715  10.452  0.0138  0.1983  0.0180
 3211W        W 7275   1.064   5.512  10.195  0.2309  0.0160  0.0307
 3212W        W 7276   0.374   2.316  10.285 -0.0267  0.1393  0.1938
 3213W        W 7277   8.925   7.183   1.529 -0.2487 -0.0581  0.1912
 3214W        W 7278   5.559  10.722   9.781  0.0424 -0.2990  0.2330
 3215W        W 7279   9.307   6.559   7.551  0.0896 -0.1248 -0.0693
 3216W        W 7280   9.559   2.493   7.543 -0.2006 -0.1926  0.2603
 3217W        W 7281   0.317   0.173   0.525  0.0951  0.0346 -0.1082
 3218W        W 7282  10.186   2.221   9.645 -0.1526 -0.1065 -0.1240
 3219W        W 7283   1.301  10.500   1.814  0.1715 -0.0887 -0.1523
 3220W        W 7284   9.118   4.578   2.386 -0.0800  0.2158  0.0936
 3221W        W 7285   6.941   5.060   3.456  0.2299 -0.0427 -0.2117
 3222W        W 7286   8.810   1.240   9.936 -0.0940  0.0104 -0.2814
 3223W        W 7287   0.723   4.143  10.905 -0.1418  0.2240  0.0967
 3224W        W 7288   1.105  10.506  10.387 -0.0267 -0.3882 -0.0142
 3225W        W 7289   7.208   8.956   0.693  0.0860 -0.1248 -0.0324
 3226W        W 7290   7.149   7.265   8.170 -0.2520  0.2289  0.2568
 3227W        W 7291   2.264   4.298   0.075 -0.1598 -0.2549 -0.0830
 3228W        W 7292   6.370   7.147   1.236  0.0862 -0.2407 -0.2579
 3229W        W 7293   2.424   2.872  10.605  0.1272  0.0249 -0.1722
 3230W        W 7294   7.311   3.841   1.445  0.0447  0.0970 -0.0421
 3231W        W 7295   1.797   1.665   0.156  0.1301 -0.0951  0.0712
 3232W        W 7296   6.090   0.469   9.977 -0.0556 -0.2228  0.2163
 3233W        W 7297   1.175   4.535  11.291 -0.1715  0.0229  0.3205
 3234W        W 7298  10.652  10.136   7.393  0.1583 -0.2075  0.3896
 3235W        W 7299   7.795   9.667   7.548 -0.2394  0.2228 -0.0573
 3236W        W 7300   5.128   9.465   9.125 -0.1762  0.5324  0.1194
 3237W        W 7301   0.755   3.296   1.897  0.5644 -0.2725 -0.3245
 3238W        W 7302   4.240   6.879   7.662  0.0561 -0.3315  0.0664
 3239W        W 7303   6.678   8.016   0.866  0.1239 -0.1155 -0.1944
 3240W        W 7304   9.601   3.899   9.425  0.0559 -0.2152 -0.0829
 3241W        W 7305  10.464   7.252   8.314 -0.3054 -0.0529 -0.3567
 3242W        W 7306   3.774   2.053   2.424 -0.0331  0.0700 -0.2171
 3243W        W 7307   5.795   2.100  10.593 -0.1493 -0.4665  0.1471
 3244W        W 7308   5.694   4.507   9.863 -0.1102 -0.1782  0.0734
 3245W        W 7309   4.463   6.243   8.944  0.0480  0.1213 -0.0423
 3246W        W 7310   6.238   9.775   1.898  0.1982  0.1640 -0.2687
 3247W        W 7311   7.673   6.963   0.099 -0.0665  0.1708  0.0637
 3248W        W 7312   1.362   3.074   8.875 -0.1701 -0.0096  0.0695
 3249W        W 7313   9.169   6.193   0.338 -0.0551 -0.1530  0.0670
 3250W        W 7314   1.685   5.597   8.545 -0.1808  0.1077  0.6603
 3251W        W 7315   9.654   5.266   9.412 -0.1721 -0.0518  0.0234
 3252W        W 7316   1.224   3.327  10.622 -0.0215 -0.2142 -0.2134
 3253W        W 7317   1.980   4.641   1.014 -0.2387  0.1704  0.0135
 3254W        W 7318   1.188   6.671   2.915  0.0793  0.0955 -0.2136
 3255W        W 7319   4.512   7.130   8.447 -0.0602 -0.0985  0.0649
 3256W        W 7320   9.407   6.153   7.821  0.0475  0.0173 -0.0326
 3257W        W 7321  10.083   4.058   8.702 -0.0550 -0.1856  0.1002
 3258W        W 7322   5.277   4.094  10.088 -0.1483 -0.0695 -0.3358
 3259W        W 7323   6.601   6.424   1.556  0.3087  0.3466 -0.2558
 3260W        W 7324   3.822  10.095  10.420 -0.0956 -0.2218 -0.0821
 3261W        W 7325   2.654   1.839   8.079 -0.0591  0.1068 -0.2079
 3262W        W 7326   0.282   6.633   2.519  0.0120  0.0468  0.1798
 3263W        W 7327   1.529   0.699   9.021 -0.2846 -0.1092  0.2646
 3264W        W 7328   3.010   2.256   3.575  0.3428  0.4219  0.4413
 3265W        W 7329   2.328   6.849  10.381  0.3294 -0.1294 -0.3324
 3266W        W 7330   3.461   1.639   7.642 -0.0008  0.0058  0.1780
 3267W        W 7331   3.711   7.441   0.280  0.0048 -0.0974 -0.0131
 3268W        W 7332   2.973   6.616   2.584 -0.2371  0.0791  0.0108
 3269W        W 7333   9.374   4.037   3.003  0.0202  0.2029  0.1022
 3270W        W 7334   1.773   2.227   2.397  0.1054  0.1346  0.0021
 3271W        W 7335   3.706   1.369   1.525 -0.1960 -0.1582  0.1614
 3272W        W 7336   8.321   3.200   1.458  0.2335 -0.1696  0.2502
 3273W        W 7337   5.458   9.628   0.328  0.1386 -0.3173 -0.0740
 3274W        W 7338  10.417   9.938   0.988 -0.2862 -0.0935  0.1006
 3275W        W 7339   5.766   8.603   0.778  0.2820 -0.1952 -0.1593
 3276W        W 7340   4.997   9.885   2.192  0.4256  0.2085  0.3678
 3277W        W 7341   7.142  10.065  11.164 -0.1224 -0.1833  0.0169
 3278W        W 7342   2.283   5.749   3.831 -0.1759 -0.0735 -0.0281
 3279W        W 7343   2.679   2.466  10.724 -0.4347 -0.2277  0.0347
 3280W        W 7344   1.222   2.214  10.543 -0.1503 -0.1153  0.0532
 3281W        W 7345   8.187   8.145  10.816 -0.3850  0.0585  0.0721
 3282W        W 7346   6.023   1.314   8.190 -0.1010  0.0213 -0.2239
 3283W        W 7347   0.707   4.550   0.099  0.4638  0.2348 -0.0162
 3284W        W 7348   3.732   5.738  10.396  0.0928 -0.1071  0.0841
 3285W        W 7349   8.002   6.458   2.548 -0.0939  0.1919  0.2941
 3286W        W 7350   3.679   3.208  10.092 -0.2221 -0.1653  0.0388
 3287W        W 7351   7.040   3.751   9.719 -0.0236 -0.0054  0.1118
 3288W        W 7352   7.774   9.792   0.322 -0.2552  0.4958 -0.0166
 3289W        W 7353   1.057   0.882   9.163 -0.1181  0.2816  0.4444
 3290W        W 7354   6.605   8.575   9.483  0.0158  0.0273 -0.0780
 3291W        W 7355   0.117   4.722   0.100 -0.1545  0.2276 -0.0850
 3292W        W 7356   1.116   9.206   9.046  0.1203  0.2483 -0.1312
 3293W        W 7357   1.874  10.467   9.178  0.1709 -0.3019  0.1851
 3294W        W 7358   0.109   1.215  11.243  0.0533  0.0973 -0.0778
 3295W        W 7359   3.455   5.140   6.920 -0.0586 -0.1845 -0.1338
 3296W        W 7360   2.508   4.098   3.486  0.1019 -0.0037 -0.0115
 3297W        W 7361   1.809   6.128   1.889  0.1229 -0.1825  0.1082
 3298W        W 7362   9.089   0.038   0.072  0.3192 -0.0633  0.1292
 3299W        W 7363   0.695   6.316   0.429 -0.4517 -0.1651 -0.0117
 3300W        W 7364   1.541   0.827  10.314 -0.0166 -0.2463 -0.0049
 3301W        W 7365   6.174   3.214   9.750  0.0124 -0.0318  0.0222
 3302W        W 7366   1.366   9.700   9.012 -0.0443  0.3424  0.0830
 3303W        W 7367   3.795  10.495   0.462 -0.2350  0.4808  0.0673
 3304W        W 7368   3.581   6.355   2.012 -0.0432  0.3254 -0.0211
 3305W        W 7369   6.697   5.099   9.364  0.0189 -0.1406 -0.2871
 3306W        W 7370   1.837   0.705   9.423  0.2354 -0.1987 -0.1164
 3307W        W 7371   8.997   1.202   0.517 -0.0632 -0.0080 -0.1611
 3308W        W 7372   7.449   6.122   9.058 -0.0511  0.0645 -0.1386
 3309W        W 7373   7.399   4.463   9.563 -0.3464  0.0476 -0.0715
 3310W        W 7374   9.935   3.450   8.075 -0.1323 -0.1076 -0.1591
 3311W        W 7375   1.777   9.671   0.155  0.1055 -0.1576 -0.0023
 3312W        W 7376   7.984   4.862   7.863 -0.0164 -0.5039 -0.4943
 3313W        W 7377   3.008   8.923   0.732  0.0844  0.2378  0.3769
 3314W        W 7378   8.397   4.777   8.083  0.0511  0.1474  0.1493
 3315W        W 7379   3.482   4.474   1.373  0.3169 -0.0210  0.3801
 3316W        W 7380   1.099   1.262   0.906 -0.0308  0.1126 -0.1816
 3317W        W 7381   2.431  10.278   8.198  0.1457 -0.3604 -0.0780
 3318W        W 7382   0.408   8.960   1.946 -0.2711  0.2214 -0.1501
 3319W        W 7383   2.455   7.879   7.889  0.0897 -0.2515  0.2835
 3320W        W 7384   0.274   0.566   3.665 -0.2377 -0.1168  0.0730
 3321W        W 7385   0.202   3.226   1.144  0.1091  0.2508  0.0599
 3322W        W 7386   1.499   4.790  11.069  0.0682  0.2229  0.1073
 3323W        W 7387   3.577   1.661   9.230 -0.0968  0.1922  0.1352
 3324W        W 7388   0.262   1.281  10.696 -0.1345  0.1458  0.0126
 3325W        W 7389   3.125   5.401   1.320 -0.1080 -0.0570  0.1193
 3326W        W 7390   1.683  10.079   2.322 -0.0810 -0.2022 -0.0889
 3327W        W 7391  10.757   5.710   7.012  0.1740  0.1752  0.1584
 3328W        W 7392   4.241   3.387   8.975 -0.1828  0.1005  0.2911
 3329W        W 7393   3.427   0.623   8.547 -0.0980  0.1627 -0.2667
 3330W        W 7394   5.086   7.929   2.629  0.1801 -0.0524  0.2026
 3331W        W 7395   2.981   1.995   2.818  0.4211 -0.3684 -0.2486
 3332W        W 7396   6.342   0.936   2.749 -0.0376 -0.1701  0.1977
 3333W        W 7397   3.493   5.319  10.592  0.0475  0.1488 -0.0857
 3334W        W 7398   3.870   6.560   2.434  0.3139 -0.2259 -0.0260
 3335W        W 7399   7.789   0.561   9.172  0.0880 -0.3266  0.0303
 3336W        W 7400   0.563   8.301   9.104 -0.0555 -0.0169 -0.1164
 3337W        W 7401   4.213   8.128   2.559  0.0772 -0.0557  0.0000
 3338W        W 7402   3.502   7.683   1.188 -0.0523  0.1078 -0.0527
 3339W        W 7403   1.269   8.848  10.414 -0.0533 -0.0433 -0.1563
 3340W        W 7404   5.868   0.812   3.568 -0.1226 -0.1601 -0.0522
 3341W        W 7405   8.815   0.468   8.152 -0.1477 -0.2671  0.0764
 3342W        W 7406   2.455   2.003   2.853 -0.0704 -0.0334  0.1876
 3343W        W 7407   6.466  10.765   3.564 -0.1712 -0.1033 -0.0837
 3344W        W 7408   3.767   3.043   2.023 -0.1108 -0.1695 -0.0173
 3345W        W 7409   9.602   7.219   9.293 -0.0530 -0.0325  0.0839
 3346W        W 7410   4.056   5.634   7.579  0.0997  0.0074 -0.2577
 3347W        W 7411   9.144   1.609   9.908  0.0759  0.2344 -0.0947
 3348W        W 7412   5.682   7.074   7.946 -0.2140  0.2232 -0.0907
 3349W        W 7413   3.674   5.612  10.912 -0.2861  0.0599 -0.0167
 3350W        W 7414   8.009   8.726   1.209 -0.2077  0.0422 -0.0278
 3351W        W 7415   7.305   5.856   1.329  0.2743 -0.0247 -0.0427
 3352W        W 7416   9.803   3.236   2.598  0.2132  0.1595  0.0820
 3353W        W 7417   0.037   8.907   2.238  0.0776 -0.3809  0.0223
 3354W        W 7418   5.611  10.153   8.523 -0.0886  0.2446 -0.0006
 3355W        W 7419   5.106   9.374  11.128  0.1761  0.1608  0.0016
 3356W        W 7420   9.487   0.782   8.861 -0.2379  0.0027  0.3736
 3357W        W 7421   8.961   2.003   2.817 -0.0111  0.2034 -0.1772
 3358W        W 7422   5.077   8.437   0.199 -0.3110  0.1270 -0.0403
 3359W        W 7423   4.731  10.429   9.439 -0.4552  0.0082 -0.0550
 3360W        W 7424   2.093   7.433  10.783 -0.1261 -0.1649  0.0608
 3361W        W 7425   9.766   6.532  10.037  0.0135  0.0293 -0.0467
 3362W        W 7426   5.241   8.613   1.419  0.3246 -0.0860  0.1334
 3363W        W 7427   3.929   4.170   1.159  0.0091 -0.1463  0.0160
 3364W        W 7428   3.110   7.701   9.473 -0.1069 -0.0738 -0.2200
 3365W        W 7429  10.101   6.039   0.623 -0.0187  0.1000 -0.0198
 3366W        W 7430   7.684   4.609   2.511  0.0242  0.3510  0.0025
 3367W        W 7431   0.873   2.332   2.042  0.0449 -0.0235  0.1177
 3368W        W 7432   0.975   1.426  10.113  0.2457  0.2340 -0.0805
 3369W        W 7433   9.591   3.217   7.876  0.2101  0.1817  0.0225
 3370W        W 7434   6.408   2.745  10.771 -0.1519  0.2686  0.0870
 3371W        W 7435   0.035   1.375   0.940 -0.1176  0.1628 -0.1736
 3372W        W 7436   9.480   6.681   0.365 -0.1556 -0.0288 -0.1488
 3373W        W 7437   2.934   5.679   8.650 -0.1086 -0.2757  0.0263
 3374W        W 7438   1.118   8.887   1.825  0.1012 -0.1508 -0.2736
 3375W        W 7439   9.815   5.651   3.420 -0.0295  0.0771 -0.2642
 3376W        W 7440   7.149   9.072   3.074 -0.0405 -0.0376 -0.0466
 3377W        W 7441   9.183   5.667   0.048 -0.2275  0.4934 -0.1413
 3378W        W 7442   3.109   4.833   0.349 -0.3062  0.2233 -0.3902
 3379W        W 7443   6.198   6.367   0.945 -0.0440 -0.0731  0.1306
 3380W        W 7444   2.947   4.416  11.244 -0.2050  0.0408  0.4267
 3381W        W 7445  10.369   8.594   1.503 -0.0541 -0.1685  0.1198
 3382W        W 7446   6.465   9.395   1.642 -0.3044  0.0397 -0.0918
 3383W        W 7447   1.328   3.390   0.916 -0.1473  0.0701  0.0534
 3384W        W 7448   2.595   9.739   3.191  0.2315  0.1416  0.0219
 3385W        W 7449   5.142   6.039   3.029 -0.0176  0.2744 -0.1744
 3386W        W 7450  10.066   6.523   2.387  0.1059  0.0518 -0.1073
 3387W        W 7451   3.278   4.674   2.904  0.0468 -0.2917  0.0883
 3388W        W 7452   3.729   3.542   0.593 -0.2320  0.2603 -0.0681
 3389W        W 7453   0.412   2.139   2.158  0.0014 -0.0947  0.1748
 3390W        W 7454  10.433  10.644   0.165 -0.2143  0.2270  0.1388
 3391W        W 7455   5.325   1.116  10.886  0.0424  0.2426  0.2571
 3392W        W 7456   1.063   9.455  10.701 -0.0371 -0.3881  0.3027
 3393W        W 7457   7.795  10.404   3.624 -0.1322  0.0579  0.0162
 3394W        W 7458   1.472   5.586   2.979 -0.0454 -0.1343  0.0805
 3395W        W 7459   5.276   3.486   3.155  0.1215  0.1847  0.1083
 3396W        W 7460   1.169   8.198   9.753 -0.2912 -0.0107 -0.1789
 3397W        W 7461   5.235   5.516   1.210 -0.1147 -0.2298 -0.1771
 3398W        W 7462   1.545   3.899   3.679 -0.0817 -0.1231  0.0638
 3399W        W 7463   9.954   7.182   8.929 -0.1608  0.1962 -0.0018
 3400W        W 7464   1.611   1.761   2.465 -0.1478 -0.0982  0.1853
 3401W        W 7465   2.387   5.261  10.535 -0.0508 -0.1638  0.0164
 3402W        W 7466   2.053   7.054   9.909  0.0832  0.2284  0.1170
 3403W        W 7467   5.105   7.914   0.270 -0.0037  0.4079  0.0836
 3404W        W 7468   1.839   0.112   1.134  0.1260  0.1555 -0.0159
 3405W        W 7469   8.329   9.712   2.697  0.0127  0.1991 -0.1503
 3406W        W 7470   2.202  10.239   7.290  0.1033  0.0256  0.3513
 3407W        W 7471   6.934   4.413   2.955  0.0405  0.2940 -0.1719
 3408W        W 7472   4.577   5.695   8.973  0.0636  0.0521  0.2605
 3409W        W 7473   1.831   8.147   9.215 -0.4939 -0.2240  0.0337
 3410W        W 7474   6.220   0.416   2.739 -0.1727  0.0049 -0.0258
 3411W        W 7475   0.798   6.378  11.233 -0.4898  0.2250  0.2729
 3412W        W 7476   5.141   9.145   3.818  0.0777  0.2157 -0.0233
 3413W        W 7477   3.159   0.970   9.017  0.0173 -0.1912 -0.4763
 3414W        W 7478   4.073   1.821   0.931  0.0275 -0.1657 -0.3191
 3415W        W 7479   7.026   4.733   0.476  0.1096  0.2479 -0.1153
 3416W        W 7480   4.081   7.802   8.713 -0.0683  0.2678 -0.2782
 3417W        W 7481   9.454  10.389  11.202  0.0922  0.0586  0.1138
 3418W        W 7482   1.120   2.034  11.004  0.5703 -0.1372 -0.0890
 3419W        W 7483  10.737   7.603   3.093  0.2631 -0.1805  0.0126
 3420W        W 7484   5.956   9.768   0.060 -0.0279 -0.0619  0.0668
 3421W        W 7485   7.749   4.146   2.986 -0.0267  0.2147 -0.3443
 3422W        W 7486   5.186   1.853   8.969 -0.0665 -0.2464 -0.2264
 3423W        W 7487   3.492   4.648   2.447 -0.0534  0.1105  0.0392
 3424W        W 7488   7.196   3.133   2.250 -0.0744  0.1480  0.0175
 3425W        W 7489   0.313   7.318   2.812  0.1516 -0.3265  0.1396
 3426W        W 7490   8.639   2.842   8.277  0.0840  0.1625  0.2009
 3427W        W 7491   6.950  10.649   0.552 -0.0602  0.0237  0.0622
 3428W        W 7492   0.667   0.634   9.857  0.1120  0.1741  0.2226
 3429W        W 7493  10.470   6.539  10.785  0.3369  0.2352  0.2579
 3430W        W 7494   5.293   6.347   1.443  0.1072  0.0693 -0.0135
 3431W        W 7495   4.803  10.328   2.298  0.0246 -0.3349  0.3530
 3432W        W 7496   6.406   9.554  10.701 -0.0063 -0.0895  0.4238
 3433W        W 7497   0.093   9.568  10.319  0.1051  0.0366 -0.1804
 3434W        W 7498   5.958   1.227   2.665  0.0902 -0.3428 -0.2336
 3435W        W 7499   3.691   2.171   9.142  0.1337  0.1312  0.0339
 3436W        W 7500   0.184   3.067  10.327  0.2142 -0.4645  0.2161
 3437W        W 7501   4.065   3.083  11.027  0.1650  0.4094 -0.2987
 3438W        W 7502   9.835   6.014   3.004 -0.0673  0.1519  0.1645
 3439W        W 7503   9.963  10.567   7.733 -0.2809 -0.0186 -0.0185
 3440W        W 7504   2.326   5.451   1.705 -0.2673  0.2370  0.0613
 3441W        W 7505   2.371   3.132   2.988  0.1416  0.0315 -0.0921
 3442W        W 7506   9.173   4.755   9.798 -0.2466 -0.0813 -0.1392
 3443W        W 7507   4.369  10.500   0.678  0.0015 -0.0062 -0.0421
 3444W        W 7508   4.670   6.237   0.245  0.1395 -0.0269  0.0291
 3445W        W 7509   0.810   8.673   2.096 -0.2604  0.3391 -0.0474
 3446W        W 7510   9.265   5.599   9.165 -0.0049 -0.0119  0.3850
 3447W        W 7511   4.159   9.139  10.659  0.0134 -0.0194  0.4444
 3448W        W 7512   5.612   2.596   1.162  0.2023 -0.3627  0.2637
 3449W        W 7513   3.590   3.677  10.308 -0.1550 -0.0476  0.0370
 3450W        W 7514   1.282   6.220   8.121  0.0669 -0.1238  0.2886
 3451W        W 7515   4.559   5.967   1.164  0.3541 -0.1761  0.0867
 3452W        W 7516   8.325  10.634   2.893  0.0038  0.2817  0.1810
 3453W        W 7517   4.658   6.155  10.014  0.0527  0.0932 -0.2592
 3454W        W 7518   2.218   2.406   1.202 -0.1083  0.1910 -0.0125
 3455W        W 7519   4.526   3.136   8.498 -0.0134 -0.1537  0.0245
 3456W        W 7520   8.268  10.009   0.468  0.1571  0.4644  0.0685
 3457W        W 7521   5.506   7.274   2.629 -0.0383  0.2183 -0.2226
 3458W        W 7522   4.264  10.524   0.179  0.1845 -0.1828 -0.0594
 3459W        W 7523   0.037   7.667   8.525 -0.2038  0.3293  0.1413
 3460W        W 7524   3.614   0.741   9.254  0.0817 -0.1619  0.1555
 3461W        W 7525   1.952   5.675   1.363  0.2044  0.1650  0.0779
 3462W        W 7526   0.418   8.322   0.598 -0.1733  0.0266 -0.1053
 3463W        W 7527  10.058   9.711   0.024 -0.1263 -0.0789 -0.2450
 3464W        W 7528   0.382   4.699   7.618 -0.1682  0.1232 -0.2486
 3465W        W 7529   4.933   2.202   0.918 -0.2835 -0.2118 -0.0566
 3466W        W 7530   4.151   0.548   1.405 -0.0450  0.0841  0.0328
 3467W        W 7531  10.126   9.327   8.439 -0.0302 -0.1194  0.0156
 3468W        W 7532   2.589   1.105   1.868 -0.0451  0.1546  0.1917
 3469W        W 7533   9.662   8.298   3.882  0.2878  0.3758  0.2760
 3470W        W 7534   1.270   5.293   2.606 -0.3233  0.4803 -0.1855
 3471W        W 7535   7.008   4.847   9.680  0.0683 -0.0158  0.1051
 3472W        W 7536   4.686   9.065  10.545 -0.1021  0.1519  0.1375
 3473W        W 7537   5.351  10.242   7.943 -0.2294 -0.0384 -0.0051
 3474W        W 7538   1.159   5.945   9.631  0.1029 -0.4216 -0.0054
 3475W        W 7539   0.645   0.972  10.712 -0.3979 -0.1399  0.2297
 3476W        W 7540   5.101   2.678  10.167 -0.0164 -0.1173 -0.1266
 3477W        W 7541   0.887   8.130   0.370  0.0253 -0.1240 -0.2512
 3478W        W 7542   1.874   2.880   8.814 -0.0472  0.0642  0.0998
 3479W        W 7543   8.496   8.687   1.882  0.1170 -0.1582 -0.2293
 3480W        W 7544   2.941   8.605  10.584 -0.2009  0.3290  0.1194
 3481W        W 7545   9.222   2.629   8.998 -0.1981 -0.0754  0.0003
 3482W        W 7546   1.568   8.430   0.911  0.0182  0.0134 -0.0968
 3483W        W 7547   6.798   1.976   9.631  0.0579 -0.0096 -0.5775
 3484W        W 7548   0.950   4.029   7.783  0.2094  0.1657  0.0684
 3485W        W 7549  10.678   8.848  11.069  0.1690  0.2262 -0.2523
 3486W        W 7550   4.609   3.775   9.092 -0.0593 -0.3666 -0.2252
 3487W        W 7551   7.936   4.944   0.793  0.0050 -0.0375 -0.1945
 3488W        W 7552  10.418   4.603   2.111 -0.0241  0.1637  0.0012
 3489W        W 7553   1.378   6.416   1.956  0.0133  0.1409  0.0034
 3490W        W 7554   3.075   8.563   1.225 -0.0493 -0.1602 -0.1188
 3491W        W 7555   1.232   9.346   2.375 -0.2085 -0.2366  0.1085
 3492W        W 7556   4.672   0.850  10.119 -0.1132  0.0483 -0.0693
 3493W        W 7557   5.564   2.666   3.508 -0.1938  0.1594 -0.0882
 3494W        W 7558   3.360   3.270   7.470  0.0168 -0.0323  0.2380
 3495W        W 7559   3.391   6.855   9.475  0.3783 -0.0228  0.1812
 3496W        W 7560  10.182   2.135   7.971  0.1752  0.2716  0.1713
 3497W        W 7561   2.882   3.186   6.856  0.3197 -0.1687 -0.0387
 3498W        W 7562   5.591  10.540  10.922  0.0543  0.0244  0.1933
 3499W        W 7563   9.221   6.264   8.364  0.1379  0.1312 -0.0004
 3500W        W 7564   3.357   8.262  11.253 -0.2873  0.1780  0.2112
 3501W        W 7565   4.307   1.012   9.628 -0.1637 -0.1747 -0.1944
 3502W        W 7566   8.081   1.963   2.550 -0.1257 -0.1206 -0.3126
 3503W        W 7567   1.481   4.326   9.604 -0.0032 -0.0670 -0.1795
 3504W        W 7568  10.333   0.688   3.007 -0.0444  0.1770 -0.0904
 3505W        W 7569   0.793   2.467   7.097 -0.4496 -0.2122  0.3600
 3506W        W 7570   5.625   1.490   9.131  0.1672  0.0112  0.0154
 3507W        W 7571   2.097   1.906   8.432 -0.1120  0.1697 -0.2922
 3508W        W 7572   5.826   7.074   0.532 -0.1824  0.1469 -0.1387
 3509W        W 7573   6.162   6.965   9.416  0.0897  0.2788  0.2158
 3510W        W 7574  10.318   6.893   9.076 -0.2012  0.0406 -0.2072
 3511W        W 7575   2.872   5.661   2.956 -0.0697 -0.1898 -0.1587
 3512W        W 7576   9.274  10.716   2.029 -0.2011 -0.0016  0.0218
 3513W        W 7577   8.286   2.497   2.845  0.1066  0.1099  0.1814
 3514W        W 7578   0.134   3.764   1.202 -0.0673 -0.2415  0.2558
 3515W        W 7579   3.065   9.634   0.476  0.1369 -0.2166  0.0502
 3516W        W 7580   0.957   1.252   0.108 -0.2007  0.0603  0.0643
 3517W        W 7581   6.130   7.959   8.994 -0.0078 -0.0304  0.1505
 3518W        W 7582   6.832  10.450   0.131  0.2481 -0.0584 -0.0082
 3519W        W 7583   7.553   8.582   1.413  0.1350  0.1601  0.1259
 3520W        W 7584   2.266   1.085   8.720  0.1132 -0.3633  0.1808
 3521W        W 7585   5.554   3.275   1.602  0.2190 -0.0253  0.1031
 3522W        W 7586   7.440   4.095   1.839  0.0610 -0.2434 -0.1076
 3523W        W 7587   7.033  10.459  10.300 -0.0898 -0.0855  0.1361
 3524W        W 7588   1.478   9.471   7.627  0.3552 -0.0556  0.0735
 3525W        W 7589   8.028   2.918   7.228  0.0435 -0.0918  0.1642
 3526W        W 7590   5.450   9.094   0.572  0.0525  0.2618 -0.0750
 3527W        W 7591   7.259   5.132   8.700 -0.0681  0.0426 -0.1231
 3528W        W 7592   0.908   2.873   9.155 -0.1961 -0.2992 -0.1291
 3529W        W 7593   7.945   5.944   9.168  0.1192  0.2955  0.1550
 3530W        W 7594  10.306   7.738   1.611 -0.1909  0.1335  0.0517
 3531W        W 7595   2.443   6.652   7.798  0.0907 -0.1081 -0.1247
 3532W        W 7596   9.427  10.609   1.021 -0.1466 -0.2932  0.0253
 3533W        W 7597   1.315   2.185   2.291  0.0069  0.1888  0.2594
 3534W        W 7598   1.563   0.622   2.022  0.0038  0.0500  0.1866
 3535W        W 7599   1.597   5.305   1.681 -0.0281 -0.2491  0.1485
 3536W        W 7600  10.327   4.693  10.601 -0.1385  0.0407 -0.1597
 3537W        W 7601   6.121   4.535  10.106 -0.0109 -0.0548 -0.1622
 3538W        W 7602   7.827   3.623   8.778  0.0403 -0.3458 -0.1393
 3539W        W 7603   0.397   0.951   2.003  0.1552 -0.0523 -0.2417
 3540W        W 7604   7.155   3.020   0.743  0.1103  0.0746 -0.1290
 3541W        W 7605   0.844   1.401   2.863 -0.1319  0.1828  0.1291
 3542W        W 7606   4.521   5.008   0.966  0.2035  0.0770 -0.2311
 3543W        W 7607   7.206   6.000  10.395 -0.0977  0.0431 -0.0285
 3544W        W 7608   5.426   0.928   2.502 -0.0898  0.0011 -0.1287
 3545W        W 7609   6.078   7.403   3.283 -0.1030  0.3383  0.0415
 3546W        W 7610  10.101   9.915   0.607 -0.0207 -0.1513 -0.1001
 3547W        W 7611   6.160   4.584   9.522  0.1056 -0.2584 -0.3220
 3548W        W 7612   7.583  10.724   7.581  0.1227 -0.0342 -0.2307
 3549W        W 7613   1.640   6.488   0.482  0.1107  0.0429 -0.2195
 3550W        W 7614  10.153   0.431   0.148  0.2205 -0.1860  0.0387
 3551W        W 7615   5.962   3.549   1.958  0.0236  0.0228 -0.1585
 3552W        W 7616   0.804   7.459   7.261 -0.3094  0.1181  0.0692
 3553W        W 7617   3.955   4.849  10.355  0.0780  0.3472  0.0065
 3554W        W 7618   7.648   9.423  10.489  0.0526  0.0816  0.1482
 3555W        W 7619   1.949   4.383   9.605 -0.1874  0.1005 -0.0232
 3556W        W 7620   5.280   6.594   0.916 -0.1860  0.0149  0.0576
 3557W        W 7621   1.836  10.102   3.628  0.2534 -0.0745  0.2667
 3558W        W 7622  10.723   5.542   7.476 -0.0990  0.0680 -0.3324
 3559W        W 7623   6.145   4.217   8.237  0.1683 -0.1419 -0.1752
 3560W        W 7624   3.692   8.951   8.159 -0.1423  0.1797  0.0510
 3561W        W 7625   9.504   5.526  11.010 -0.0043  0.1352  0.0325
 3562W        W 7626   4.396   0.597   3.449 -0.0293 -0.1048 -0.1012
 3563W        W 7627  10.421   1.777   0.888 -0.2278 -0.1810  0.0827
 3564W        W 7628   7.585   5.187   2.581 -0.2194  0.1372 -0.1081
 3565W        W 7629   0.343   1.717   2.402  0.2466  0.3019 -0.0513
 3566W        W 7630   1.742   6.613   8.441 -0.1876  0.1636  0.0166
 3567W        W 7631  10.046  10.190   8.197  0.1227  0.0445  0.2923
 3568W        W 7632   7.350   8.189   0.165  0.2186 -0.0816 -0.1022
 3569W        W 7633   4.149   1.067   0.164  0.2844 -0.2915  0.0050
 3570W        W 7634   2.061   8.196   1.052 -0.0336 -0.0615  0.2421
 3571W        W 7635   7.432   9.364   0.513 -0.1596  0.0061 -0.2278
 3572W        W 7636   5.739   8.503   7.096  0.0363 -0.1291  0.2738
 3573W        W 7637   7.739   7.413   6.789  0.2211  0.1611 -0.1408
 3574W        W 7638  10.406   8.399   8.223  0.0575  0.3611 -0.0658
 3575W        W 7639   3.729   5.695   9.877  0.3515 -0.0174  0.0755
 3576W        W 7640   5.626   6.923   9.526 -0.1248  0.1663 -0.1054
 3577W        W 7641   5.950   1.468   3.993  0.0415  0.1527 -0.0127
 3578W        W 7642   2.819   0.084   2.104  0.0531  0.1619  0.2463
 3579W        W 7643   7.655   8.244   7.946  0.1130 -0.1378  0.2406
 3580W        W 7644   0.325   7.723   3.602 -0.1313  0.1658 -0.0151
 3581W        W 7645   7.938   3.930  10.148 -0.1098  0.5367  0.1612
 3582W        W 7646   5.018   1.490  10.658 -0.0769  0.0276 -0.1355
 3583W        W 7647   0.928   0.736   0.238  0.1800  0.1121 -0.1207
 3584W        W 7648   1.665   6.791   1.943 -0.3147  0.0275  0.2978
 3585W        W 7649   5.746   2.235   1.514  0.0884 -0.1089  0.1167
 3586W        W 7650   9.464   2.085   9.881  0.2810 -0.1711 -0.1779
 3587W        W 7651   4.604   9.728   9.968  0.1210 -0.0272  0.1246
 3588W        W 7652   7.333   7.782   1.457 -0.2687 -0.0446 -0.3056
 3589W        W 7653  10.502   5.462   2.827  0.0460 -0.1100 -0.0605
 3590W        W 7654   3.910   0.645   7.797 -0.0871 -0.0099  0.2473
 3591W        W 7655   0.230   8.180  10.505 -0.2017  0.0806  0.1134
 3592W        W 7656   9.094   7.237   9.069  0.2079 -0.1432 -0.0376
 3593W        W 7657   3.070   4.899   2.038  0.3018  0.0522 -0.0762
 3594W        W 7658   5.111   2.922  10.621  0.1499 -0.1996 -0.2849
 3595W        W 7659   1.882   5.989   0.425 -0.0443 -0.0226  0.2482
 3596W        W 7660   1.695   1.846  11.021  0.1561  0.0892 -0.1474
 3597W        W 7661   8.110  10.048   9.226 -0.1095  0.1173  0.1423
 3598W        W 7662   6.128   0.935   8.497  0.2209  0.1539  0.1254
 3599W        W 7663   9.186   3.598   9.175 -0.1505  0.0608  0.1357
 3600W        W 7664   2.660   8.682   1.016  0.2408  0.2110 -0.2501
 3601W        W 7665   7.886   4.921   0.234  0.2748  0.1355 -0.0091
 3602W        W 7666   3.873   9.968   9.088  0.0008  0.2366  0.0951
 3603W        W 7667   2.356   5.349   1.188  0.4531  0.5618 -0.2274
 3604W        W 7668  10.232   2.005  11.191  0.1593  0.1127  0.1951
 3605W        W 7669   2.245   8.993  11.009 -0.0466  0.1528  0.2303
 3606W        W 7670   0.891   7.531   0.436 -0.2373 -0.1485  0.0742
 3607W        W 7671   6.080   4.951   8.773 -0.2738  0.1441 -0.1045
 3608W        W 7672   7.325   1.870   9.530  0.2530 -0.4017  0.0312
 3609W        W 7673   0.768  10.169  10.157 -0.1669 -0.0802 -0.4354
 3610W        W 7674   1.803   7.399   1.259  0.2014  0.0635  0.0040
 3611W        W 7675   3.697   6.599   9.763  0.0283 -0.0760 -0.2659
 3612W        W 7676   1.802   8.828   0.004 -0.1643  0.2222  0.2184
 3613W        W 7677   3.188   5.704   9.110 -0.0294  0.1156  0.0959
 3614W        W 7678   9.290   7.789   8.540 -0.1407 -0.1599  0.2408
 3615W        W 7679   6.907   6.248   8.995  0.1568 -0.0503 -0.0536
 3616W        W 7680   1.439   2.804  10.714  0.0336  0.1075  0.0720
 3617W        W 7681  10.113   1.655   1.283 -0.0317  0.0401 -0.0583
 3618W        W 7682   3.218   8.748   7.296 -0.2096 -0.1950  0.1394
 3619W        W 7683   8.549   9.659   3.192 -0.1690  0.3491 -0.0730
 3620W        W 7684   8.179   1.487   2.520 -0.0201 -0.0549 -0.2998
 3621W        W 7685   7.402  10.295   1.354 -0.1555 -0.1073 -0.4117
 3622W        W 7686   0.866   8.467   1.649  0.1127 -0.0165 -0.0731
 3623W        W 7687   0.359   8.398   8.059 -0.1960  0.0005  0.1763
 3624W        W 7688   8.787   3.088  10.256  0.2437 -0.0466  0.2774
 3625W        W 7689   1.028  10.546   9.879 -0.0153  0.0844 -0.1238
 3626W        W 7690   0.412   1.627   0.227  0.1048  0.1467 -0.3570
 3627W        W 7691   0.417   0.447   1.054  0.0322 -0.3444  0.0155
 3628W        W 7692   2.595   0.917   2.968 -0.0115  0.0660 -0.2285
 3629W        W 7693   4.187   6.786   0.992  0.0287  0.2654  0.1891
 3630W        W 7694   6.811   9.350   8.908 -0.2987 -0.0443  0.1093
 3631W        W 7695  10.529  10.071   8.306 -0.0459  0.0403 -0.0793
 3632W        W 7696   4.433   5.251   8.755  0.1311 -0.1309  0.2105
 3633W        W 7697   1.619   7.110   6.843  0.2771  0.2499  0.2023
 3634W        W 7698   6.955   9.753   7.749  0.0224  0.0250 -0.2085
 3635W        W 7699   5.137   5.901   9.144  0.1879 -0.2004 -0.0984
 3636W        W 7700   8.185   3.273   0.783 -0.0883  0.2199  0.0661
 3637W        W 7701   2.267   7.236   0.951 -0.0030 -0.1949  0.1053
 3638W        W 7702   7.513   4.089  10.311  0.2203 -0.0271  0.2071
 3639W        W 7703   5.862   4.550   7.881 -0.0609  0.4854  0.1234
 3640W        W 7704   0.092   1.900   2.831  0.2278 -0.0479 -0.2875
 3641W        W 7705   9.372   6.130   2.421  0.0617 -0.2709 -0.2228
 3642W        W 7706   2.124   6.931   0.164 -0.1039  0.1033  0.0084
 3643W        W 7707   0.550  10.243   1.258  0.0268  0.0109  0.0478
 3644W        W 7708   3.993   0.967   3.477 -0.2412 -0.3317 -0.0179
 3645W        W 7709   0.889   8.922   2.589  0.1482  0.1993  0.1477
 3646W        W 7710   5.381   4.629   9.520 -0.0125 -0.3030  0.3177
 3647W        W 7711   1.880   4.783   2.298 -0.1054 -0.1580 -0.1007
 3648W        W 7712   6.439   1.102   9.331  0.1523  0.0021  0.2967
 3649W        W 7713   0.963   1.371   2.071 -0.0855 -0.0646 -0.1720
 3650W        W 7714   6.716   6.499   8.632  0.2142 -0.0926 -0.2725
 3651W        W 7715   1.929   7.171   2.204  0.0350 -0.1713 -0.1911
 3652W        W 7716   0.453   2.443   1.759  0.0320 -0.0086 -0.1758
 3653W        W 7717  10.708   7.136   0.105 -0.2348  0.0413  0.2114
 3654W        W 7718   7.506   7.711   9.838  0.0776 -0.2321 -0.0095
 3655W        W 7719   0.438   2.931   9.398 -0.1284  0.0225 -0.1159
 3656W        W 7720   5.271   0.028   3.837 -0.1188 -0.0637 -0.1029
 3657W        W 7721  10.535   1.735   8.038 -0.3267 -0.0419  0.0664
 3658W        W 7722   6.170   0.923   1.258 -0.0832  0.4595 -0.3679
 3659W        W 7723   5.840   4.041  11.228 -0.1854 -0.1405  0.1198
 3660W        W 7724   8.077   2.024   1.201 -0.0036  0.0415  0.0013
 3661W        W 7725   9.113   3.438   3.106  0.0380  0.1325 -0.0489
 3662W        W 7726   2.484   3.149   0.845 -0.2744  0.2612  0.1100
 3663W        W 7727  10.250   2.027   2.714  0.0980  0.1877 -0.0113
 3664W        W 7728   3.174   1.593  11.241 -0.1026  0.0521 -0.0393
 3665W        W 7729  10.122  10.617   9.082  0.1161 -0.1087 -0.2134
 3666W        W 7730   4.441  10.770   9.319 -0.0394 -0.1932 -0.2480
 3667W        W 7731   7.151   7.053  10.106 -0.2173  0.2352  0.2560
 3668W        W 7732   3.343   7.831   7.813 -0.2532  0.0847  0.0668
 3669W        W 7733   5.642   1.353   9.900  0.1143  0.4305 -0.2055
 3670W        W 7734   8.817   0.859   8.515 -0.0733  0.0694  0.3282
 3671W        W 7735   5.671   1.146   1.718  0.1418 -0.3058  0.2761
 3672W        W 7736   9.063   6.899   2.610  0.0119 -0.0845  0.0553
 3673W        W 7737  10.613   8.637   9.719 -0.1018 -0.0900  0.0223
 3674W        W 7738  10.237   0.916   9.898  0.1530  0.1460 -0.1377
 3675W        W 7739   1.132   8.046   1.160 -0.4104 -0.2431 -0.1053
 3676W        W 7740   5.901   3.011   0.200 -0.3155 -0.0803 -0.2638
 3677W        W 7741   7.009   6.464   9.922  0.0048  0.2748  0.0721
 3678W        W 7742   2.990   9.083   2.754  0.2487  0.0090  0.2258
 3679W        W 7743   3.578   2.744   9.919 -0.3016 -0.1876  0.1908
 3680W        W 7744   9.957   8.516   8.060  0.1624 -0.1205  0.3014
 3681W        W 7745   6.617   4.445   9.616  0.0512  0.0271 -0.0629
 3682W        W 7746   0.517   5.476  10.916  0.0110 -0.0636  0.0345
 3683W        W 7747   3.515   7.631   9.765  0.0030 -0.1484  0.1733
 3684W        W 7748   7.883   5.770   6.756  0.1531  0.1103  0.2792
 3685W        W 7749   4.628   9.446   8.932 -0.1387 -0.0928 -0.2169
 3686W        W 7750   8.306   4.256   9.860 -0.0100  0.1185  0.2957
 3687W        W 7751   0.205   2.659   2.090 -0.0040  0.1412 -0.3011
 3688W        W 7752   2.314   2.431   0.323 -0.0248 -0.2169  0.0086
 3689W        W 7753   4.136   6.726   9.600 -0.0136  0.0703  0.3080
 3690W        W 7754   9.864   1.706   2.290 -0.0307  0.0237  0.2033
 3691W        W 7755   0.220   0.409   9.652 -0.1009  0.0232 -0.0524
 3692W        W 7756   2.889   9.006   8.499  0.0576 -0.0371 -0.2930
 3693W        W 7757   1.551   8.181   1.418 -0.1863 -0.0443  0.0041
 3694W        W 7758   7.003   3.929   2.802 -0.3673  0.3799  0.2287
 3695W        W 7759   7.732   4.648   3.069 -0.1344 -0.2992 -0.2307
 3696W        W 7760   3.992   5.397   8.457 -0.0099  0.0013 -0.0018
 3697W        W 7761   0.991   4.120   2.345 -0.0306  0.0089 -0.1913
 3698W        W 7762   2.652   0.051   2.644  0.0493  0.3250  0.1315
 3699W        W 7763   5.839   8.158   8.058 -0.1733 -0.2623 -0.0418
 3700W        W 7764   2.779   3.943   0.958  0.4292  0.3343 -0.1015
 3701W        W 7765   8.940   7.814   7.679 -0.0042 -0.1636 -0.0062
 3702W        W 7766   7.156   7.764   0.952 -0.0752  0.2455 -0.1827
 3703W        W 7767   9.111   7.430   1.927 -0.3254  0.1320  0.2865
 3704W        W 7768   1.631   2.808   2.333  0.0667 -0.1270  0.0452
 3705W        W 7769   9.243   3.154   1.211 -0.0528  0.0089 -0.4403
 3706W        W 7770  10.664   4.538   3.088 -0.0046  0.3676 -0.0968
 3707W        W 7771   3.985   2.540   0.525  0.0117  0.1815 -0.1062
 3708W        W 7772   2.478   2.669   0.798  0.0271 -0.0673  0.1150
 3709W        W 7773   0.905   5.035   2.402 -0.0634 -0.0493 -0.0013
 3710W        W 7774   1.971   2.184   9.989  0.2291  0.1075  0.1359
 3711W        W 7775   6.312   0.239   2.244  0.1940  0.1556  0.0514
 3712W        W 7776   3.132   8.384  10.198  0.3213  0.2716  0.1114
 3713W        W 7777   4.506   6.647   9.210  0.4322 -0.2000  0.1977
 3714W        W 7778   3.750   7.768  10.557  0.0998  0.0351 -0.1503
 3715W        W 7779   4.828   3.314  10.497 -0.1326  0.0449 -0.1384
 3716W        W 7780   7.019   4.799   7.904 -0.0998 -0.0488 -0.4848
 3717W        W 7781   9.690   6.935   2.904 -0.4631  0.2680 -0.1785
 3718W        W 7782   7.943   4.943  10.229 -0.1210 -0.3001 -0.1346
 3719W        W 7783   1.900   3.813   1.450 -0.1519 -0.0809 -0.0752
 3720W        W 7784   9.135   2.429  10.897 -0.1545 -0.4681  0.1876
 3721W        W 7785   5.897   6.983   9.004  0.0096  0.1963 -0.2668
 3722W        W 7786   2.498   4.368   0.964 -0.2019  0.2218 -0.0640
 3723W        W 7787   7.228   7.177  11.110  0.1458  0.1336 -0.2329
 3724W        W 7788   2.886   2.517   9.167 -0.1258 -0.1095 -0.3194
 3725W        W 7789   0.170   2.385   8.362  0.0030  0.1579  0.3460
 3726W        W 7790   7.383   7.475   7.161 -0.2277 -0.1819 -0.0035
 3727W        W 7791   2.368   6.924   9.008  0.0721 -0.1409  0.1376
 3728W        W 7792   2.049   6.297   9.868  0.2627 -0.0808  0.2561
 3729W        W 7793   2.373   8.762  10.193 -0.1718 -0.4221  0.0853
 3730W        W 7794   6.798   4.032  10.691  0.3510 -0.3581 -0.0456
 3731W        W 7795   8.055   1.858  10.259 -0.0915  0.0922  0.1259
 3732W        W 7796   5.782   3.019   9.480 -0.0316 -0.1187 -0.2495
 3733W        W 7797   9.334   0.239   0.728  0.2777  0.0946 -0.2356
 3734W        W 7798   8.739   3.449  10.641 -0.2077  0.1495 -0.1102
 3735W        W 7799   0.019   2.920  10.806 -0.1955  0.2630 -0.1913
 3736W        W 7800   1.505   2.841  11.294 -0.4796 -0.1692 -0.1954
 3737W        W 7801   8.811   2.240   9.127 -0.1363 -0.1037  0.1286
 3738W        W 7802   2.019   5.026  10.046 -0.0589 -0.1004  0.2340
 3739W        W 7803   8.910   9.033   8.738 -0.3664 -0.0661 -0.2669
 3740W        W 7804   3.490   3.197   9.604 -0.0634  0.0074 -0.1886
 3741W        W 7805   5.430   7.772   9.655  0.0951  0.3923  0.0104
 3742W        W 7806   6.193   2.154   1.642  0.0045 -0.1673  0.0419
 3743W        W 7807   7.648   9.724   2.757 -0.0740 -0.2421  0.3203
 3744W        W 7808  10.399   7.293   2.847 -0.1296 -0.0827  0.0045
 3745W        W 7809   2.114   5.094   8.692  0.0851  0.2127 -0.0816
 3746W        W 7810   0.865  10.576   9.386  0.0561  0.1858 -0.1297
 3747W        W 7811   0.495   5.825   8.290 -0.1269 -0.1413 -0.1065
 3748W        W 7812   5.408   7.627   1.687 -0.0544  0.1128 -0.3022
 3749W        W 7813   3.831   2.537   9.417 -0.1107 -0.3467 -0.2945
 3750W        W 7814   5.649   7.340   7.507  0.0945  0.0007 -0.1067
 3751W        W 7815   8.773   8.582   8.559 -0.0773 -0.3238 -0.0644
 3752W        W 7816  10.452   7.972   8.856  0.2962  0.1233  0.2640
 3753W        W 7817   3.634   8.329   0.363  0.0400 -0.0845 -0.1279
 3754W        W 7818   9.540   2.711   8.019  0.0010 -0.1164  0.0962
 3755W        W 7819   1.611   8.481   9.526 -0.2662 -0.1566 -0.0957
 3756W        W 7820   5.690   6.933   1.021  0.0960 -0.2874  0.0167
 3757W        W 7821   0.416   6.326   2.152  0.2255  0.2612  0.0960
 3758W        W 7822   5.830   3.345   0.725 -0.3341 -0.2908 -0.1223
 3759W        W 7823   2.917   7.986   8.099  0.0552  0.0934  0.1255
 3760W        W 7824   1.200   1.845   3.826  0.0515  0.1428  0.2383
 3761W        W 7825   6.603   8.588   2.975 -0.1355 -0.1460 -0.0142
 3762W        W 7826   8.824   4.870   0.694  0.1447 -0.3627 -0.6809
 3763W        W 7827   6.510   3.184   1.371  0.1625 -0.3633 -0.2845
 3764W        W 7828   9.875  10.321  10.164 -0.1188 -0.2455  0.3801
 3765W        W 7829  10.332   1.326  10.373 -0.1479  0.1787  0.0660
 3766W        W 7830  10.115   4.943   8.510 -0.0735  0.2064 -0.0047
 3767W        W 7831  10.176   0.805   2.218  0.0859 -0.1939  0.3272
 3768W        W 7832   0.121   9.476   8.907 -0.1607  0.0587  0.0584
 3769W        W 7833   5.488   3.249   1.061  0.3486  0.4136 -0.0713
 3770W        W 7834   8.605   8.580   7.615 -0.1347 -0.0855  0.2676
 3771W        W 7835   4.383   9.381   2.482  0.3862 -0.2182 -0.0943
 3772W        W 7836   5.068   2.576   1.941  0.2346 -0.0608  0.0839
 3773W        W 7837   8.448   8.834   2.359 -0.0358 -0.0033 -0.0111
 3774W        W 7838   9.835  10.086   8.879  0.2371 -0.1608 -0.0620
 3775W        W 7839   3.452   7.965   2.250 -0.1290  0.1104  0.3120
 3776W        W 7840   7.587   2.149   9.168  0.0903  0.0366 -0.1019
 3777W        W 7841   8.339   5.238  10.167  0.0463  0.1135  0.0957
 3778W        W 7842   2.551  10.530  11.185  0.0088 -0.0583 -0.1978
 3779W        W 7843   3.907   7.252  10.573 -0.1343  0.1510 -0.2302
 3780W        W 7844   1.323   3.712   8.842  0.2721  0.2665 -0.1178
 3781W        W 7845   0.454   3.018   7.882 -0.1657  0.2033 -0.0501
 3782W        W 7846   0.694   0.500   8.826 -0.1246 -0.1282  0.1914
 3783W        W 7847   9.497   0.423   0.196 -0.1563 -0.0078 -0.0969
 3784W        W 7848   1.392   5.712   1.985 -0.2746  0.0905 -0.1526
 3785W        W 7849   6.457   2.173   2.085  0.3948 -0.0863 -0.2560
 3786W        W 7850  10.515   3.003   1.455  0.0138 -0.2779  0.3971
 3787W        W 7851   8.756   0.995  10.437  0.0081 -0.3875  0.0868
 3788W        W 7852   4.308  10.294   2.360 -0.1155  0.1452 -0.0644
 3789W        W 7853   4.549   1.420  10.503  0.1031 -0.1996  0.2530
 3790W        W 7854   8.733   3.438   2.830  0.0230 -0.0027  0.0470
 3791W        W 7855  10.373   2.277   9.092  0.1854  0.1506  0.0035
 3792W        W 7856   7.271   0.715   2.681 -0.0964 -0.1938 -0.1555
 3793W        W 7857   8.194   9.723   9.808 -0.1327  0.0251  0.2372
 3794W        W 7858   5.792   5.457   9.950 -0.2631  0.1409 -0.2726
 3795W        W 7859   1.011   7.883   6.930 -0.0209  0.0630  0.0447
 3796W        W 7860   5.460   7.055   7.084 -0.1001  0.1140 -0.1507
 3797W        W 7861   2.097   2.886   0.495  0.0306  0.2677 -0.1522
 3798W        W 7862   2.564   2.795  10.128 -0.1770 -0.0897  0.0859
 3799W        W 7863   5.998   5.616   9.293 -0.0170  0.1586  0.3705
 3800W        W 7864   0.382  10.667   0.916  0.2583  0.2523 -0.0508
 3801W        W 7865   6.999   0.023   3.266 -0.0207 -0.2571  0.0833
 3802W        W 7866   0.365   8.612   1.474 -0.0680 -0.3092 -0.0366
 3803W        W 7867   5.694   1.698   0.175  0.1061  0.1629 -0.1699
 3804W        W 7868   8.368   0.030   2.378 -0.0357 -0.1127  0.2225
 3805W        W 7869   5.476   0.206   9.321 -0.0754  0.2426  0.2146
 3806W        W 7870  10.580  10.087  10.560 -0.3032  0.2778 -0.1517
 3807W        W 7871   6.104   4.612  10.710  0.1509 -0.1234 -0.1762
 3808W        W 7872   7.707   1.118   2.260 -0.0198 -0.0318  0.1889
 3809W        W 7873   7.838   5.700   9.589 -0.0966  0.3899 -0.0335
 3810W        W 7874   5.142   5.653   8.141 -0.3109 -0.0380  0.1527
 3811W        W 7875   5.402   0.186   0.366 -0.1062 -0.4665  0.0727
 3812W        W 7876   2.526   4.201   2.913  0.1706 -0.0802 -0.1837
 3813W        W 7877   0.667   3.768   8.753  0.1943 -0.0216 -0.0974
 3814W        W 7878   1.154   1.271   3.885 -0.0402  0.3802  0.4181
 3815W        W 7879   7.605   7.481   1.083  0.0375 -0.2414  0.0306
 3816W        W 7880   7.800  10.721  10.630 -0.2051  0.0672  0.0819
 3817W        W 7881   0.285   0.285  10.137  0.3384 -0.2869  0.1500
 3818W        W 7882   0.888   3.184   0.682 -0.0356  0.2234  0.0290
 3819W        W 7883   6.798   2.085   0.898 -0.0173  0.0502  0.1036
 3820W        W 7884   0.510   4.006   0.846 -0.2153  0.0730  0.3001
 3821W        W 7885   9.175  10.259   1.599  0.1014 -0.4523 -0.2920
 3822W        W 7886   5.664   5.991   9.232  0.2875  0.0087 -0.0658
 3823W        W 7887   6.627  10.513   9.535  0.0307 -0.1907  0.1380
 3824W        W 7888   3.260   6.520  10.077 -0.4284 -0.1014  0.0452
 3825W        W 7889   4.553   3.067   9.281  0.1588  0.0164 -0.3002
 3826W        W 7890   6.564   0.756   1.592  0.2822 -0.2136  0.1282
 3827W        W 7891   9.602   3.054  10.609 -0.1665 -0.0576  0.2163
 3828W        W 7892   9.266   4.702  11.079 -0.0721  0.0646  0.0542
 3829W        W 7893   6.019   2.786   9.133  0.0829  0.0429  0.1728
 3830W        W 7894   6.486  10.145   2.678 -0.1311  0.0967 -0.2615
 3831W        W 7895   7.079   6.705   0.998 -0.1171 -0.1456  0.1668
 3832W        W 7896   8.017   5.996  10.753 -0.2155  0.0305  0.3326
 3833W        W 7897   4.359   0.177  11.155 -0.2538  0.0473  0.1101
 3834W        W 7898  10.410   1.789   9.837  0.1180 -0.0382 -0.0773
 3835W        W 7899   2.419   1.948   1.265  0.0716  0.0725  0.2316
 3836W        W 7900   5.222   8.970   0.137 -0.1702  0.2926 -0.1030
 3837W        W 7901   9.430   5.797   3.207  0.1593  0.1589 -0.0616
 3838W        W 7902   7.391   3.568   1.957  0.1126 -0.1809 -0.0825
 3839W        W 7903   7.195   9.150   3.536  0.4947  0.2977  0.1116
 3840W        W 7904   8.931   5.339   0.467  0.1155 -0.0129 -0.1069
 3841W        W 7905   4.365   0.314   1.054  0.0082 -0.1459  0.2007
 3842W        W 7906   2.907   2.202   1.942  0.1024  0.3073 -0.0967
 3843W        W 7907   7.900  10.566   1.631  0.0070 -0.3180  0.0324
 3844W        W 7908   3.508   5.299   8.200 -0.0063  0.1740  0.1008
 3845W        W 7909   3.791   5.628   8.056  0.0973  0.1824  0.2293
 3846W        W 7910   6.336   7.711   2.410  0.5011 -0.2120  0.2154
 3847W        W 7911   3.788   2.788   0.124 -0.0299 -0.0394  0.4118
 3848W        W 7912   0.751   0.783   2.451  0.0839 -0.1038  0.0046
 3849W        W 7913   9.436   9.341   7.058 -0.0293  0.2242  0.1518
 3850W        W 7914   5.602   8.752   8.025  0.0068  0.1682 -0.0652
 3851W        W 7915   1.743   0.054   2.130  0.0890  0.0555  0.0682
 3852W        W 7916  10.366   9.044   3.085 -0.1675 -0.3098  0.0243
 3853W        W 7917   4.650   7.626   7.539  0.0814  0.1728 -0.1622
 3854W        W 7918   3.388  10.145   9.654  0.1243 -0.2860  0.2299
 3855W        W 7919   0.870   4.471   7.569 -0.1060 -0.1545  0.0227
 3856W        W 7920   7.636   7.831   1.896 -0.3184 -0.0135 -0.1210
 3857W        W 7921   2.903   8.734   2.375 -0.3977 -0.0916 -0.1740
 3858W        W 7922   5.651   9.874   2.232 -0.1497  0.0664 -0.0478
 3859W        W 7923   9.835   8.350   9.862  0.3084  0.2420  0.1890
 3860W        W 7924   9.662   3.725   1.890 -0.1494  0.0807 -0.0175
 3861W        W 7925   2.955   1.246   8.608  0.1176 -0.1798 -0.0795
 3862W        W 7926   1.774  10.315  10.041 -0.1804  0.1486 -0.0371
 3863W        W 7927   0.482   1.871  10.048  0.0069 -0.1619 -0.2451
 3864W        W 7928   1.600   0.268   0.680 -0.3972  0.0582  0.1986
 3865W        W 7929   8.062   6.013   7.491  0.0719 -0.1025 -0.0330
 3866W        W 7930  10.774   3.066   7.768 -0.0257 -0.0723 -0.0252
 3867W        W 7931  10.448   6.467   2.745 -0.0401  0.0842  0.0150
 3868W        W 7932   9.213  10.221   3.371 -0.4330  0.1774 -0.2701
 3869W        W 7933   6.748   5.606   8.036  0.1200  0.1994  0.0665
 3870W        W 7934   2.626   6.257   2.381 -0.0811  0.3184 -0.6154
 3871W        W 7935   9.623   5.071  10.947  0.0254 -0.4664 -0.0336
 3872W        W 7936   4.781   4.878   2.364 -0.1385  0.2808 -0.1320
 3873W        W 7937  10.371   1.684  10.834  0.1185 -0.2790 -0.1284
 3874W        W 7938   6.978   4.380   9.292  0.3010 -0.2947  0.0158
 3875W        W 7939   3.499   2.348   8.344 -0.1831  0.1584 -0.1850
 3876W        W 7940   1.063   7.937   7.456 -0.0268  0.2815 -0.1034
 3877W        W 7941   4.738  10.128   1.209  0.0190 -0.3195 -0.0802
 3878W        W 7942   7.502   9.830  10.889  0.0789 -0.3233  0.0317
 3879W        W 7943   1.275   4.471   3.064  0.4030  0.2844 -0.1842
 3880W        W 7944   9.223   8.236   1.862 -0.2050  0.2946 -0.2264
 3881W        W 7945   8.841   6.896   8.794 -0.0756 -0.1719  0.0174
 3882W        W 7946   4.340   5.106  10.276 -0.0238 -0.2877  0.2287
 3883W        W 7947   1.428   8.901   9.357  0.0872  0.0714  0.1775
 3884W        W 7948   1.327   4.699   8.402 -0.3365 -0.0857  0.1925
 3885W        W 7949   7.271   9.105  10.886 -0.1325 -0.0592 -0.1214
 3886W        W 7950   3.838   2.695   1.013 -0.0481 -0.1543 -0.0044
 3887W        W 7951  10.154   5.610   0.902 -0.0741  0.0594  0.0950
 3888W        W 7952   6.924   3.397   1.028  0.0553  0.0447  0.5602
 3889W        W 7953   4.548   1.444   0.209  0.1241  0.3640 -0.1588
 3890W        W 7954   7.717   9.174   1.383  0.3164  0.4087  0.3171
 3891W        W 7955   7.523   4.707  11.133 -0.3790  0.1821  0.1667
 3892W        W 7956   3.399   5.688   0.387 -0.2219 -0.0000  0.0828
 3893W        W 7957   7.926   5.319   8.092 -0.1234 -0.2269 -0.1062
 3894W        W 7958  10.210   3.042   7.872  0.0109  0.1542 -0.0673
 3895W        W 7959   6.605   3.963   8.044  0.0005 -0.0806 -0.0746
 3896W        W 7960   5.163   6.425   9.450  0.1061  0.0512 -0.1394
 3897W        W 7961   6.471  10.711  11.140 -0.0557  0.1697 -0.1292
 3898W        W 7962   0.266   7.302  11.056 -0.2102 -0.0420  0.0417
 3899W        W 7963   6.427   2.640   8.497  0.1826  0.3139 -0.0319
 3900W        W 7964   1.604   9.876   1.132 -0.1140 -0.1163 -0.3542
 3901W        W 7965   9.707   8.288   7.635  0.1740  0.2200 -0.0113
 3902W        W 7966   6.580   0.197  10.568  0.1506  0.0599  0.1116
 3903W        W 7967   5.825   9.031  11.034 -0.2936 -0.3276  0.0306
 3904W        W 7968   4.254   5.631  10.246 -0.0501 -0.0565 -0.3124
 3905W        W 7969   1.431   8.914   1.299  0.1510  0.2106  0.0291
 3906W        W 7970   5.482   6.684   9.023  0.0236  0.1028  0.1179
 3907W        W 7971   1.774   2.423   3.276  0.2615  0.0589  0.0124
 3908W        W 7972   0.152   7.054   8.423 -0.0059  0.1590  0.0835
 3909W        W 7973   3.279   7.877  10.104 -0.0707  0.1521 -0.0536
 3910W        W 7974   0.341   2.942   2.708 -0.3831 -0.0615  0.1327
 3911W        W 7975   1.246   8.634   2.814 -0.1377 -0.1458  0.4650
 3912W        W 7976   0.575   7.498   9.886 -0.3019 -0.1435  0.1091
 3913W        W 7977   3.034   6.878   0.604 -0.0540  0.1228  0.2682
 3914W        W 7978   2.312   4.982   0.233 -0.4339 -0.1058  0.2301
 3915W        W 7979   2.411   6.858   2.324  0.1698 -0.0401  0.4588
 3916W        W 7980   3.253   4.914   8.342 -0.2084 -0.2291  0.1021
 3917W        W 7981   3.831   3.034  10.549 -0.0428 -0.2169  0.1470
 3918W        W 7982   1.842   8.952   7.276 -0.2031 -0.0367 -0.0414
 3919W        W 7983   1.920   6.505  10.441 -0.0400  0.1714  0.0145
 3920W        W 7984   5.563   2.472   2.854 -0.0619 -0.2190  0.2685
 3921W        W 7985   1.093   1.948   8.188 -0.0373  0.0696 -0.1101
 3922W        W 7986   8.678  10.573   3.652  0.1099  0.1846 -0.2455
 3923W        W 7987   2.174   8.648   0.218 -0.2541  0.3969 -0.1289
 3924W        W 7988  10.517   7.449   7.600 -0.0277 -0.0405  0.2253
 3925W        W 7989   3.610  10.102   1.345  0.0625 -0.1920  0.0503
 3926W        W 7990   5.038   3.076   3.291  0.0207 -0.2077  0.1925
 3927W        W 7991   5.740   7.678   9.028 -0.1385  0.1163  0.0303
 3928W        W 7992   4.988   4.978   0.391  0.3193  0.0398  0.0012
 3929W        W 7993  10.415   2.072   8.502  0.1061  0.0187  0.1585
 3930W        W 7994   6.288   0.319   0.178  0.0892  0.0721 -0.1902
 3931W        W 7995   5.788   9.178   0.233 -0.2642  0.1115  0.1679
 3932W        W 7996   8.298   0.128   8.389 -0.1001  0.1313 -0.1427
 3933W        W 7997   4.447   6.749   8.102 -0.5508  0.0318 -0.0927
 3934W        W 7998   6.673   3.837   0.706 -0.1718 -0.1182  0.0196
 3935W        W 7999   8.745   5.106   9.784  0.1644  0.0212 -0.2062
 3936W        W 8000   4.178   1.773  10.095  0.3118 -0.3620  0.0703
 3937W        W 8001  10.543   3.994   2.076 -0.0649 -0.0363 -0.2436
 3938W        W 8002   5.680   9.002   1.953  0.0097  0.1877 -0.0854
 3939W        W 8003   3.230  10.696   0.426 -0.2434 -0.0414 -0.2861
 3940W        W 8004   6.402   5.484   0.688 -0.0293  0.1258 -0.0123
 3941W        W 8005   9.598   9.356   1.738  0.1257  0.1284  0.1072
 3942W        W 8006   2.489   1.023   0.996  0.2483 -0.2716 -0.0918
 3943W        W 8007   8.473   6.722   2.583  0.1772 -0.1886 -0.2234
 3944W        W 8008   5.267   8.915   8.376  0.1256 -0.3790 -0.2542
 3945W        W 8009   3.530   7.862   9.220  0.3665  0.3048 -0.1291
 3946W        W 8010   8.872   7.630   0.551  0.0313 -0.0696  0.0248
 3947W        W 8011   2.692   4.516   9.761  0.0985  0.0922  0.1572
 3948W        W 8012  10.571   6.795   8.661 -0.0800 -0.0063 -0.2931
 3949W        W 8013   4.155   7.340   8.765 -0.1000 -0.1205 -0.1033
 3950W        W 8014   3.615   7.461   2.261 -0.0949 -0.0241  0.1791
 3951W        W 8015   4.058   3.830   9.105 -0.0905  0.3428 -0.1254
 3952W        W 8016   6.017   3.709  10.126 -0.1483  0.0278  0.2880
 3953W        W 8017   1.790   8.500   8.089 -0.0584  0.0793  0.3007
 3954W        W 8018   5.822   8.460   7.630  0.4576 -0.1231 -0.1416
 3955W        W 8019   5.672   0.907   1.201  0.3033  0.2183 -0.0093
 3956W        W 8020   8.013   1.749   0.727 -0.2016  0.1014 -0.1180
 3957W        W 8021   9.130   3.370   7.638  0.0715  0.1263 -0.1274
 3958W        W 8022   6.298   7.392   0.627  0.1101 -0.0798 -0.0899
 3959W        W 8023   3.337   0.583  10.570 -0.1544 -0.1527 -0.1123
 3960W        W 8024   0.559   0.768   3.295 -0.0425 -0.2205 -0.1699
 3961W        W 8025   8.779   0.276   9.251  0.2914  0.2554 -0.2350
 3962W        W 8026   8.381   4.882  10.580  0.2498  0.1883 -0.1771
 3963W        W 8027   0.278   6.149   0.839  0.1502 -0.1555 -0.2546
 3964W        W 8028   5.347   7.865   8.323  0.1213 -0.0422 -0.2111
 3965W        W 8029  10.574   3.068   0.521 -0.0559 -0.0461 -0.1320
 3966W        W 8030   7.179   4.041  11.100  0.0473 -0.2558 -0.0673
 3967W        W 8031   8.527   7.622   1.971 -0.2319  0.2553 -0.1153
 3968W        W 8032   3.234   7.374   0.546  0.2288 -0.3120  0.0050
 3969W        W 8033   8.474   0.023   7.955  0.1895  0.1107 -0.1978
 3970W        W 8034   2.221   4.866   9.657  0.0497  0.1130  0.6443
 3971W        W 8035   5.923   1.666   3.079 -0.1933 -0.1657  0.0067
 3972W        W 8036   6.826   2.797  11.148 -0.1639 -0.0006 -0.1583
 3973W        W 8037   4.766   1.524   9.004  0.1062  0.1335  0.0586
 3974W        W 8038   4.870   2.054  10.506 -0.0663  0.1896  0.0849
 3975W        W 8039   7.719   5.874   2.442  0.0019  0.0257  0.0759
 3976W        W 8040   9.442   2.760   2.471 -0.0076  0.0328  0.1321
 3977W        W 8041   2.330   5.076  11.042  0.0326 -0.1130 -0.1777
 3978W        W 8042   4.165   8.874   1.584  0.1376 -0.2520  0.2673
 3979W        W 8043   1.136   0.664  10.099  0.0649  0.1066  0.1702
 3980W        W 8044   9.959   8.984   0.237  0.0851  0.1494 -0.0162
 3981W        W 8045   4.635   5.993  10.515  0.1926 -0.2275  0.1233
 3982W        W 8046   3.480   4.887   7.365  0.0122 -0.1302 -0.2108
 3983W        W 8047   4.392   6.642   2.376 -0.2552  0.1620  0.2584
 3984W        W 8048   3.609   9.385   9.704 -0.0193  0.1544  0.0494
 3985W        W 8049  10.415   9.530  10.532 -0.2265 -0.0750 -0.0767
 3986W        W 8050   0.549   4.333   7.959 -0.0615  0.1448  0.0918
 3987W        W 8051   5.911   4.846   0.932 -0.2770  0.2451  0.1034
 3988W        W 8052  10.346   1.201   8.048 -0.2497 -0.2856 -0.1922
 3989W        W 8053   5.196   4.164   0.803  0.1185  0.1273 -0.0490
 3990W        W 8054   9.956   2.884   1.632  0.2045 -0.1028  0.1061
 3991W        W 8055   1.967   0.772  10.497 -0.2712 -0.0367 -0.1426
 3992W        W 8056   1.870   5.399   0.961  0.1938  0.1556  0.0302
 3993W        W 8057   7.845  10.470   1.048  0.0755  0.0721 -0.0164
 3994W        W 8058   0.342   1.856   9.238  0.0629  0.4073  0.0942
 3995W        W 8059   6.706   3.433   9.408  0.1512 -0.1420 -0.1371
 3996W        W 8060   5.008   5.035   8.605  0.2666  0.0475 -0.4610
 3997W        W 8061   4.174  10.082   0.436 -0.0215 -0.1293  0.1534
 3998W        W 8062   2.055   8.681   1.810  0.2110  0.0686 -0.5026
 3999W        W 8063   4.414   8.716   8.965  0.1026 -0.1077 -0.0707
 4000W        W 8064   4.760   8.176   1.696  0.1173 -0.2583 -0.1155
 4001W        W 8065  10.330   3.890   7.477 -0.1744  0.2458  0.1191
 4002W        W 8066   2.586   8.314   3.155  0.1635  0.0226 -0.0337
 4003W        W 8067   8.851   7.029   2.075  0.0922  0.3199  0.1339
 4004W        W 8068   3.816   4.047  10.551  0.3939 -0.1748 -0.3087
 4005W        W 8069   4.601   6.654   7.406  0.0725 -0.0450 -0.4132
 4006W        W 8070   6.375   8.243   0.239  0.1619  0.2222  0.0261
 4007W        W 8071   2.665   1.910   9.327  0.0744  0.3749  0.1994
 4008W        W 8072   5.877   2.918  10.098 -0.0321 -0.2777 -0.0642
 4009W        W 8073   7.523   6.055   8.136  0.0144  0.2445  0.1020
 4010W        W 8074   2.801   2.969   2.430  0.2816 -0.1871 -0.1101
 4011W        W 8075   3.615   1.678  10.709  0.3322 -0.2818  0.1895
 4012W        W 8076   5.712   3.753   9.398  0.1406  0.0601 -0.0559
 4013W        W 8077  10.546   7.968  10.654  0.2185 -0.0692  0.1270
 4014W        W 8078   1.144   7.692  11.178 -0.1441 -0.0238 -0.2239
 4015W        W 8079   8.230   1.412   7.228  0.1700  0.0930  0.1102
 4016W        W 8080  10.338   3.053   0.976  0.0090 -0.0279 -0.0640
 4017W        W 8081   9.304   8.410   3.500 -0.3770 -0.0511 -0.2179
 4018W        W 8082  10.381   4.077   9.826  0.2235 -0.0272 -0.2368
 4019W        W 8083   3.607   7.408   7.455 -0.1147 -0.1035 -0.0982
 4020W        W 8084   9.936   9.417   1.370 -0.2185  0.0947 -0.1809
 4021W        W 8085   9.035   8.319  10.413 -0.0390  0.0363 -0.1789
 4022W        W 8086   2.002   6.275   8.127 -0.1917 -0.1060 -0.0699
 4023W        W 8087   1.226   0.675   2.470 -0.0858 -0.0921 -0.0787
 4024W        W 8088  10.200   8.846   8.339  0.1554 -0.0893  0.0507
 4025W        W 8089   6.378   5.993   3.167  0.1729 -0.0993 -0.2499
 4026W        W 8090   3.779   1.048   9.782  0.0515  0.0066  0.0885
 4027W        W 8091   4.841  10.278   7.868  0.3058  0.2873 -0.0579
 4028W        W 8092   8.488   8.754   0.901  0.4834  0.0022  0.2195
 4029W        W 8093   4.546   4.646  10.104  0.0021 -0.2784 -0.2399
 4030W        W 8094   8.554   4.969   1.850 -0.0496 -0.1537  0.4371
 4031W        W 8095   4.281   7.570  10.705 -0.1918  0.5576 -0.3144
 4032W        W 8096   7.650   3.153   9.465  0.0223  0.1392 -0.1825
 4033W        W 8097   5.335   7.537   8.816 -0.1506 -0.1882 -0.1536
 4034W        W 8098  10.331   1.879   0.367 -0.2668  0.2311 -0.1291
 4035W        W 8099  10.708   5.096   7.764 -0.0300 -0.0351  0.0975
 4036W        W 8100   5.417   9.084   9.369  0.2185  0.0018 -0.1427
 4037W        W 8101  10.035   6.727   1.815  0.0295 -0.2828 -0.2154
 4038W        W 8102   7.531   5.227  10.492  0.1641  0.0558  0.3409
 4039W        W 8103   5.795   7.049  10.883 -0.1485  0.0112  0.1591
 4040W        W 8104   2.615   5.841  10.311 -0.3484 -0.2481  0.3738
 4041W        W 8105   4.795   0.657   1.400 -0.0943  0.1874  0.0759
 4042W        W 8106   0.301   5.169   9.602 -0.4143 -0.0071 -0.1680
 4043W        W 8107   0.366   9.967  10.450 -0.0734  0.0803  0.1531
 4044W        W 8108   6.324   6.592   0.440 -0.1631  0.0133 -0.3608
 4045W        W 8109   5.157   1.382   9.711 -0.2522 -0.1382 -0.0636
 4046W        W 8110   9.814   4.484   8.580 -0.1829  0.0854  0.0579
 4047W        W 8111   6.518   6.788   7.543  0.0156  0.0963  0.0322
 4048W        W 8112   0.649   0.992   8.901  0.1305 -0.2913 -0.0018
 4049W        W 8113   4.588   1.085   0.649  0.0161 -0.0268 -0.2171
 4050W        W 8114   1.522   0.451   9.853  0.2036  0.0430 -0.0523
 4051W        W 8115   5.237   5.008  11.118 -0.2394  0.1499 -0.0008
 4052W        W 8116   7.643  10.116   0.691 -0.1018 -0.0205 -0.0666
 4053W        W 8117  10.176   6.996  10.510 -0.2701  0.1294 -0.0714
 4054W        W 8118  10.299   9.766   1.456  0.1301  0.1225  0.2601
 4055W        W 8119   3.215   9.312  11.077 -0.2043 -0.0375  0.1710
 4056W        W 8120   7.938   6.734   7.589  0.0607 -0.3291 -0.3340
 4057W        W 8121   3.654   6.089   7.793 -0.4371 -0.1221 -0.1937
 4058W        W 8122   9.986   9.034   7.871  0.1422 -0.0742 -0.1465
 4059W        W 8123   2.722   8.067   7.147  0.0756  0.0323 -0.0375
 4060W        W 8124   8.687   7.030   9.363  0.3482  0.4180  0.2976
 4061W        W 8125   3.163   1.822  10.339 -0.0069  0.2429  0.2153
 4062W        W 8126   0.416   5.208   7.735  0.0972  0.3198  0.1378
 4063W        W 8127   8.940   4.906   7.899 -0.0337 -0.2132 -0.1889
 4064W        W 8128   7.059   0.017   1.629 -0.0494  0.1888  0.1887
 4065W        W 8129   6.874   0.227   0.156  0.3277 -0.0587  0.0964
 4066W        W 8130   3.846   7.924  10.046 -0.0676 -0.1280  0.0249
 4067W        W 8131   7.566   9.635   2.113  0.4112 -0.2268 -0.1168
 4068W        W 8132   7.521   4.435   8.121  0.3148 -0.1599 -0.1889
 4069W        W 8133   8.401   8.941   8.812 -0.0474  0.1309  0.2422
 4070W        W 8134   9.305   6.993   1.236  0.2419  0.0806 -0.1357
 4071W        W 8135   3.857   7.853   0.572 -0.3548  0.2189  0.0199
 4072W        W 8136  10.009   2.452  11.142 -0.0440 -0.0440  0.1356
 4073W        W 8137   0.614   8.567  10.424  0.1258  0.1380  0.0597
 4074W        W 8138   9.567   8.212   8.158 -0.0157  0.1758 -0.2009
 4075W        W 8139   4.790   3.237   8.885 -0.0977  0.0222 -0.0694
 4076W        W 8140   3.526   9.343  10.212  0.0124  0.0549  0.1056
 4077W        W 8141   5.606   1.957   2.426  0.1292 -0.0253 -0.0038
 4078W        W 8142   3.374   1.701   1.710 -0.0412 -0.2292  0.1973
 4079W        W 8143   7.635   7.989   2.355 -0.0722 -0.0004  0.2827
 4080W        W 8144   3.946   7.527   9.255  0.3657  0.1650 -0.1852
 4081W        W 8145   7.303  10.750   8.494 -0.3820 -0.0784  0.0227
 4082W        W 8146   6.556   3.545  10.444 -0.0190 -0.0803 -0.0759
 4083W        W 8147   2.638   8.616   6.766  0.2801  0.1375  0.0650
 4084W        W 8148  10.697   8.902   1.696  0.2782 -0.0309 -0.1243
 4085W        W 8149   9.177   1.942  11.116  0.1114 -0.0897  0.1330
 4086W        W 8150  10.439   5.380   3.712  0.0235 -0.0346  0.0821
 4087W        W 8151   0.436   7.405   3.289  0.0346 -0.0916 -0.1864
 4088W        W 8152   6.996   5.959   9.943  0.0429  0.2427  0.1064
 4089W        W 8153   1.562   7.363   8.968  0.0573  0.1042  0.0621
 4090W        W 8154   5.913   2.128   2.793 -0.1917  0.0940 -0.0684
 4091W        W 8155   5.105  10.586   0.385 -0.0571 -0.2553 -0.0222
 4092W        W 8156   8.406   1.373   9.570 -0.0473 -0.1049  0.2464
 4093W        W 8157   4.177   9.062   9.274 -0.4053  0.2080 -0.0788
 4094W        W 8158   6.579   7.659   8.964  0.3671  0.0103 -0.0743
 4095W        W 8159   5.387   0.446   2.406 -0.0784 -0.1292  0.2938
 4096W        W 8160   9.401   3.614   8.140 -0.1721 -0.0842  0.1103
 4097W        W 8161   5.966   9.310  10.564  0.1356  0.1508 -0.1912
 4098W        W 8162   5.524   6.780  11.227  0.2903  0.0488  0.0875
 4099W        W 8163   2.743   4.231  10.197  0.0139  0.1862 -0.1314
 4100W        W 8164   1.559   3.465   1.737 -0.1398 -0.1153  0.0193
 4101W        W 8165   7.522   4.704   8.668 -0.1869 -0.0815 -0.0240
 4102W        W 8166   6.415   0.290   9.232 -0.0710 -0.0119 -0.3105
 4103W        W 8167   4.164   1.849   2.183  0.1938 -0.1037  0.3054
 4104W        W 8168   4.801   1.163   1.069 -0.2088  0.2539 -0.3107
 4105W        W 8169   9.109   1.873   7.623 -0.3138 -0.3775 -0.1642
 4106W        W 8170  10.299   9.611   2.938 -0.0543  0.0179  0.6364
 4107W        W 8171   6.062   9.297   8.601 -0.0943  0.0828  0.1459
 4108W        W 8172   5.936   5.269   0.603  0.3080  0.3213  0.0150
 4109W        W 8173   6.278   7.246  11.066  0.4762  0.0932 -0.0675
 4110W        W 8174   6.215   7.904  10.141 -0.1299 -0.0813 -0.0263
 4111W        W 8175   2.489   8.763   2.099  0.1755  0.0006 -0.0302
 4112W        W 8176   2.940   0.691   8.673  0.2962  0.0822  0.1085
 4113W        W 8177   3.289   9.349   1.538  0.4259  0.1958  0.0969
 4114W        W 8178   0.900   5.896   0.197 -0.0862 -0.0113 -0.0007
 4115W        W 8179   5.304   4.139   9.489  0.2106 -0.0540  0.0822
 4116W        W 8180   4.304   2.647  10.748  0.2145  0.2930  0.0837
 4117W        W 8181   8.790   9.890   0.420  0.0705 -0.1881  0.1137
 4118W        W 8182   1.057   3.725   6.927  0.1486 -0.3122  0.2393
 4119W        W 8183   6.638   2.999   9.701 -0.1324 -0.1512  0.3798
 4120W        W 8184   8.017   1.350  10.514  0.1270  0.0752 -0.1355
 4121W        W 8185   0.350   6.135   9.841 -0.3008  0.0521 -0.1832
 4122W        W 8186   1.041   0.761   8.658 -0.0455  0.2947 -0.1563
 4123W        W 8187   6.235   5.626   0.230  0.1098 -0.0983 -0.1443
 4124W        W 8188   9.112  10.006   9.952  0.2643 -0.3715 -0.1365
 4125W        W 8189   9.832   2.351   1.750 -0.1086  0.1318 -0.3601
 4126W        W 8190   9.141   9.316   1.533 -0.1663  0.2331 -0.1716
 4127W        W 8191   0.505   5.924  11.224  0.1636  0.0881  0.3953
 4128W        W 8192   5.993   1.452   8.690 -0.1940  0.0129  0.3231
 4129W        W 8193  10.587   0.364   8.297  0.1505  0.1564  0.2428
 4130W        W 8194   4.082   7.481   9.731 -0.0902  0.1526  0.0844
 4131W        W 8195   6.853   6.258  11.270  0.2139 -0.2729  0.0013
 4132W        W 8196   7.899   3.444   1.804 -0.1237 -0.0028  0.4290
 4133W        W 8197   9.583   4.424   0.912 -0.1028  0.3276 -0.1529
 4134W        W 8198   8.957   9.061  10.533 -0.2923  0.0843  0.2765
 4135W        W 8199   3.158   0.052   1.382  0.1299 -0.0889 -0.0834
 4136W        W 8200   9.520   1.562   2.910  0.1486  0.2252  0.0414
 4137W        W 8201   2.101   4.433  10.900  0.0250 -0.0024  0.1854
 4138W        W 8202   9.241   0.885   1.082  0.2119 -0.3231 -0.0599
 4139W        W 8203  10.721   5.799   0.679  0.4064 -0.0769 -0.3070
 4140W        W 8204   3.108   6.884   1.440 -0.0809  0.2383  0.0331
 4141W        W 8205   0.637   7.106   1.176  0.1499 -0.1977  0.4292
 4142W        W 8206   6.048   7.383   2.741  0.2469 -0.1846  0.1430
 4143W        W 8207   5.075   8.319  10.071  0.0943  0.1960  0.1655
 4144W        W 8208   8.641   2.005   1.672 -0.2342 -0.1600 -0.2543
 4145W        W 8209   3.902   7.992   8.250  0.1533 -0.1370 -0.3206
 4146W        W 8210   6.293   4.767   1.272 -0.0157 -0.2233 -0.5372
 4147W        W 8211   5.093   9.014   1.717  0.0864  0.0907 -0.1338
 4148W        W 8212   8.488   4.981   9.389 -0.0109  0.0881 -0.3081
 4149W        W 8213   3.354   7.856  10.906  0.0287 -0.0711  0.0620
 4150W        W 8214   6.498   5.992   9.916 -0.2423 -0.2063 -0.0911
 4151W        W 8215   5.712   7.932   7.642 -0.0923  0.0228 -0.1500
 4152W        W 8216   0.746   4.160   8.469 -0.0198 -0.3290  0.0213
 4153W        W 8217   2.893   5.718   7.166 -0.2099  0.3359 -0.0826
 4154W        W 8218   5.164   8.577   9.195 -0.0665 -0.2018 -0.0973
 4155W        W 8219   0.906   8.599   8.078 -0.0466 -0.0145 -0.1218
 4156W        W 8220   0.285   7.032   0.751  0.0929  0.3447 -0.1955
 4157W        W 8221  10.135   5.149   9.688  0.1726 -0.0327  0.1767
 4158W        W 8222   3.129   1.503  10.702 -0.0740  0.0392 -0.0043
 4159W        W 8223   5.595   2.620   2.168  0.0676  0.1061  0.0981
 4160W        W 8224   2.521  10.676   9.683 -0.2454 -0.0380  0.1638
 4161W        W 8225   7.685   7.928   0.401 -0.3281 -0.1500  0.1979
 4162W        W 8226   0.450   7.869   0.470 -0.3207  0.0818  0.3372
 4163W        W 8227   0.979   8.403  11.261 -0.2880  0.0599  0.0940
 4164W        W 8228   3.513   3.088   0.961  0.0494 -0.0835  0.0414
 4165W        W 8229   3.096   9.485   2.410 -0.2777  0.0040  0.0966
 4166W        W 8230  10.599   4.433   3.733  0.1510 -0.2270  0.0332
 4167W        W 8231   3.024   2.491   1.501 -0.1130  0.1340  0.0669
 4168W        W 8232   1.647   6.034   8.356 -0.1520  0.0292 -0.3740
 4169W        W 8233   9.097   4.423  10.150  0.1769  0.2983 -0.1428
 4170W        W 8234   8.957   8.049   7.191 -0.1795 -0.1682 -0.2636
 4171W        W 8235   7.979   7.275   8.182 -0.1005  0.0901 -0.1598
 4172W        W 8236   8.968   3.853   2.790 -0.3105 -0.2991  0.0428
 4173W        W 8237   7.790   9.906   8.074 -0.0923  0.2677 -0.0447
 4174W        W 8238   8.050  10.293  11.245 -0.0647  0.2477 -0.1394
 4175W        W 8239   5.408  10.269   1.532 -0.0203  0.0317 -0.1364
 4176W        W 8240   4.580   0.060   9.761  0.0913  0.0200  0.1170
 4177W        W 8241   4.970   3.483   1.731 -0.2808  0.3555  0.1081
 4178W        W 8242   7.724   2.363   2.684 -0.0749  0.1539  0.0176
 4179W        W 8243   4.441   8.409   7.881  0.1065  0.1972 -0.0323
 4180W        W 8244   9.660   9.866  10.097 -0.0419 -0.0158  0.0104
 4181W        W 8245   6.756   9.772   0.712  0.2828 -0.1444 -0.1124
 4182W        W 8246   7.401   3.449  10.460 -0.0682  0.0060  0.2563
 4183W        W 8247   6.822  10.078   9.674  0.0019 -0.3304  0.0079
 4184W        W 8248   8.688   6.780  11.260 -0.0384 -0.1587 -0.1189
 4185W        W 8249   0.670   0.457  11.030 -0.2877 -0.0204 -0.0820
 4186W        W 8250   2.319   5.280   9.325 -0.2863 -0.1883 -0.4678
 4187W        W 8251  10.684   2.873   2.480  0.4652  0.2540 -0.0538
 4188W        W 8252   1.629  10.500   1.374 -0.0100  0.0726 -0.0966
 4189W        W 8253   3.505   2.276   1.593  0.0869  0.0782  0.2173
 4190W        W 8254   7.766  10.746   8.501 -0.4763 -0.3251 -0.1258
 4191W        W 8255   3.022   1.991  10.911  0.0534 -0.0668 -0.2479
 4192W        W 8256  10.671   4.986   3.432 -0.3031  0.0326 -0.0246
 4193W        W 8257   7.235   9.587   9.211  0.1050  0.0300  0.3843
 4194W        W 8258   3.991   9.736   2.130  0.0384 -0.3583 -0.0967
 4195W        W 8259   1.192   0.257   2.148 -0.4883  0.0825 -0.0048
 4196W        W 8260   4.638   8.529   0.447 -0.0991  0.0546 -0.1951
 4197W        W 8261   6.617   4.853   2.944  0.1824  0.2425  0.0329
 4198W        W 8262   2.001   3.482  10.048  0.2370 -0.0486 -0.3461
 4199W        W 8263   8.197   8.822   2.859  0.3266  0.3040 -0.0662
 4200W        W 8264   4.771   1.027   1.683  0.0531 -0.0487  0.0545
 4201W        W 8265   2.985   1.712   2.070  0.0971 -0.0478  0.0047
 4202W        W 8266   0.914   9.521   8.747  0.1206  0.0568 -0.0103
 4203W        W 8267   5.346   4.653   1.182 -0.2344  0.1189  0.2557
 4204W        W 8268   7.371   6.484  10.231 -0.3076  0.2121 -0.2351
 4205W        W 8269   8.197   9.195   0.975  0.2335 -0.0041 -0.1567
 4206W        W 8270   0.301   0.207   3.187 -0.2422 -0.1065  0.2162
 4207W        W 8271   0.757   2.261  10.597  0.1621  0.1840 -0.0159
 4208W        W 8272   0.013   3.594   7.585 -0.2822 -0.0241 -0.0134
 4209W        W 8273   5.239   2.396   2.426 -0.0813 -0.1417  0.1455
 4210W        W 8274   1.945   1.198  10.267  0.3248  0.0173  0.0465
 4211W        W 8275   2.509   4.893  10.088  0.0054  0.0455  0.2259
 4212W        W 8276   5.902   8.363  10.280  0.0358  0.2187  0.1184
 4213W        W 8277   7.709   3.709   3.343 -0.0357 -0.3455  0.3183
 4214W        W 8278   4.209   1.484   0.595 -0.4502 -0.0314  0.1111
 4215W        W 8279   6.185   6.109   1.526 -0.1286 -0.0130 -0.0184
 4216W        W 8280   3.367   6.254   8.378  0.0578  0.0669  0.1628
 4217W        W 8281   0.093   9.861  10.935  0.0533  0.0619 -0.0308
 4218W        W 8282   7.245   5.315   1.841  0.1204 -0.0965 -0.0352
 4219W        W 8283  10.746   3.028   9.250  0.1583  0.0328  0.2655
 4220W        W 8284   1.968   2.956   8.331 -0.0362  0.1357 -0.1476
 4221W        W 8285   8.021   1.492   0.287  0.1911 -0.0988  0.1200
 4222W        W 8286   9.435   8.886  11.250 -0.1550 -0.3020  0.0370
 4223W        W 8287   2.727   4.747   3.006  0.1018  0.0085 -0.0234
 4224W        W 8288   4.454   2.862   2.520  0.0451 -0.3938  0.0684
 4225W        W 8289   6.091   7.388  10.596 -0.3112 -0.0952 -0.0888
 4226W        W 8290   1.697   0.873   2.448 -0.5535  0.0412  0.1624
 4227W        W 8291   2.800  10.040   8.562  0.3117  0.1740 -0.1820
 4228W        W 8292   6.452   6.915   8.957 -0.0934 -0.1204 -0.0949
 4229W        W 8293   3.046   6.579   0.217 -0.1306 -0.0949 -0.0771
 4230W        W 8294   5.001   2.862   9.295  0.1975  0.1418  0.0795
 4231W        W 8295   6.392   2.235   2.626 -0.1539  0.0324 -0.1075
 4232W        W 8296   8.022   1.427  11.075  0.1030 -0.3316  0.3579
 4233W        W 8297   0.310   4.651   7.157 -0.1494 -0.1327  0.3122
 4234W        W 8298   1.333   9.194   7.171  0.0771 -0.0784 -0.1999
 4235W        W 8299   9.823   1.190   8.028 -0.3373 -0.0760  0.2510
 4236W        W 8300  10.427  10.537   8.165 -0.0468 -0.1969 -0.2275
 4237W        W 8301   8.448   3.530   8.877  0.1462  0.3636  0.0873
 4238W        W 8302   8.516   1.433   0.021  0.0602  0.0276 -0.1197
 4239W        W 8303   1.529   1.336   1.230 -0.2027  0.1914  0.3015
 4240W        W 8304   9.600   5.847   9.496  0.0366  0.1160 -0.0709
 4241W        W 8305   2.529   9.686   0.943 -0.0627 -0.1632 -0.0691
 4242W        W 8306   6.249   7.537   9.695 -0.2937 -0.1104 -0.0352
 4243W        W 8307   3.057   3.014   0.060  0.4481  0.0496  0.0637
 4244W        W 8308   1.912   1.391   2.324  0.2779  0.0462  0.0341
 4245W        W 8309   6.750   3.182   9.045 -0.0322  0.0354  0.1208
 4246W        W 8310   1.607   5.558   7.990  0.2845 -0.3098 -0.0821
 4247W        W 8311   5.671  10.478   1.150 -0.1882 -0.1454 -0.1601
 4248W        W 8312   2.289   8.269   6.999 -0.2439  0.2708  0.1843
 4249W        W 8313   8.450   9.375   7.978  0.0900 -0.1433  0.2212
 4250W        W 8314   0.067   7.866   2.049  0.1457  0.1645 -0.2633
 4251W        W 8315   7.935   2.720   3.048  0.0554 -0.0161  0.0936
 4252W        W 8316   8.038   5.430   9.132 -0.3555 -0.0268 -0.0550
 4253W        W 8317   1.984   0.854   1.832 -0.2976  0.1575 -0.1022
 4254W        W 8318   2.289  10.774  10.643 -0.1746 -0.1241  0.0304
 4255W        W 8319   1.523   8.219   7.441  0.0596 -0.2743 -0.3137
 4256W        W 8320   6.790   6.132   9.519 -0.0579 -0.3951 -0.2774
 4257W        W 8321   2.110   4.846   9.129  0.1291 -0.0800 -0.0867
 4258W        W 8322   4.014   9.752   7.834 -0.0643 -0.0553  0.0430
 4259W        W 8323   5.730   5.425   0.198 -0.2535  0.0448  0.0192
 4260W        W 8324   7.915   2.864   8.187  0.2363  0.1636 -0.0859
 4261W        W 8325   0.989   3.663  11.056  0.0498  0.0517  0.2067
 4262W        W 8326   5.081   1.302   1.448 -0.0548  0.5121 -0.3361
 4263W        W 8327   6.407   7.669   1.607  0.0185  0.1064 -0.0615
 4264W        W 8328   9.420   2.617   0.371  0.1943  0.3484 -0.1187
 4265W        W 8329   7.141   6.536   2.801  0.1335  0.0861 -0.4109
 4266W        W 8330   4.109   6.111   0.425 -0.0228 -0.2415 -0.1724
 4267W        W 8331   7.511   1.765   9.988 -0.0743 -0.1231  0.0153
 4268W        W 8332   8.053   2.466   9.862  0.0906  0.2915 -0.1569
 4269W        W 8333   6.798   6.225   2.505 -0.0887  0.2175  0.0309
 4270W        W 8334   1.233   4.364   9.112 -0.4731  0.0114 -0.4670
 4271W        W 8335   1.707   8.745   8.503  0.0542  0.5758 -0.1741
 4272W        W 8336   6.492   8.706   6.746  0.1173 -0.3760 -0.0221
 4273W        W 8337   8.529   4.440  10.274 -0.3358  0.2595 -0.1698
 4274W        W 8338  10.475   9.348  10.061  0.1761  0.0178 -0.0169
 4275W        W 8339   1.271   0.078   1.285 -0.3440 -0.1127  0.2995
 4276W        W 8340   7.342   2.430  10.455  0.3956  0.1008  0.1240
 4277W        W 8341   1.680   3.910   7.965  0.0652 -0.0041 -0.1316
 4278W        W 8342   1.333   7.157   0.437  0.3501 -0.2502 -0.1594
 4279W        W 8343   3.171   3.862   2.447 -0.2496 -0.0926 -0.0631
 4280W        W 8344   5.986   1.341  10.284 -0.0884  0.2658 -0.1399
 4281W        W 8345   5.433   9.217  10.779 -0.0346  0.0343 -0.1668
 4282W        W 8346   9.811   1.507   9.227 -0.1468 -0.0766  0.2140
 4283W        W 8347   5.448   4.836   8.636  0.2530  0.0088  0.0010
 4284W        W 8348   4.775   8.643   1.463 -0.0395  0.1547  0.1270
 4285W        W 8349   6.961   9.371   0.927 -0.0396  0.0134  0.1163
 4286W        W 8350   7.738   9.648  10.059  0.0018 -0.4916  0.5254
 4287W        W 8351   7.547   1.481  11.207  0.0142 -0.0591  0.0552
 4288W        W 8352   7.800   3.842   1.490 -0.1812 -0.0910  0.2240
 4289W        W 8353   5.543   9.977  11.086  0.0443  0.0095 -0.0273
 4290W        W 8354   6.559   1.873   8.804 -0.1656  0.4219 -0.0564
 4291W        W 8355   2.525   8.814  10.674  0.1772 -0.2490  0.0338
 4292W        W 8356   1.690   9.663   0.717 -0.0961  0.0750  0.4516
 4293W        W 8357   5.974   4.181   7.285  0.0234 -0.2272 -0.0382
 4294W        W 8358   2.891   3.360   8.545  0.2094 -0.1337 -0.0405
 4295W        W 8359   7.534   0.020   1.313 -0.1358  0.1406 -0.2475
 4296W        W 8360   2.944   0.050   9.899 -0.0388 -0.3698  0.2183
 4297W        W 8361   0.055   6.015   8.222 -0.0876  0.0545 -0.1268
 4298W        W 8362   4.951   6.857   9.268  0.1339  0.0858  0.1081
 4299W        W 8363   9.689   1.147   2.485  0.2665  0.0779 -0.1759
 4300W        W 8364   6.303   2.475   0.212 -0.1158 -0.2027 -0.0706
 4301W        W 8365   6.623   1.636  11.030  0.2536 -0.1259  0.0149
 4302W        W 8366   8.850   3.140   0.901 -0.0856 -0.0803  0.0313
 4303W        W 8367   9.950   4.246   9.478  0.0854 -0.0931  0.0876
 4304W        W 8368   7.742   7.932   0.936  0.1303  0.0790 -0.0933
 4305W        W 8369  10.399   4.167   7.896  0.5608  0.0836  0.3358
 4306W        W 8370   6.033   4.814   2.835  0.1010 -0.1301  0.1374
 4307W        W 8371   7.851   0.960   1.255  0.0558  0.1765  0.3698
 4308W        W 8372   5.219   9.756   8.148  0.1332 -0.3745  0.0910
 4309W        W 8373   0.541   4.951  11.177 -0.1260  0.0946  0.0501
 4310W        W 8374   6.659   8.970   2.277  0.2577  0.0761  0.0410
 4311W        W 8375   6.640   9.506   2.103 -0.2318  0.2200 -0.2403
 4312W        W 8376   7.054   1.523   0.487  0.3762  0.1174  0.1522
 4313W        W 8377   8.629   4.279   3.012  0.2115  0.3066 -0.1067
 4314W        W 8378   7.591   7.599   8.076  0.1117 -0.0785 -0.0984
 4315W        W 8379  10.039   1.644   8.492  0.2513 -0.2445  0.0265
 4316W        W 8380   5.549   5.151   1.310 -0.2718 -0.3349  0.0886
 4317W        W 8381   7.550   7.513  11.298  0.1893  0.1115 -0.1381
 4318W        W 8382   6.410   7.362   8.183 -0.2097 -0.0372 -0.0519
 4319W        W 8383  10.373   7.445  10.350 -0.2804  0.1721  0.0355
 4320W        W 8384   9.093   3.695  11.009 -0.3303  0.0390  0.2858
 4321W        W 8385   7.629   5.600   3.856  0.0234  0.1602  0.3029
 4322W        W 8386   0.169   0.838   8.166 -0.0367 -0.0073  0.0185
 4323W        W 8387  10.323   4.484   8.360 -0.3585  0.2474 -0.0092
 4324W        W 8388   2.219   6.677   9.430  0.1749  0.1234 -0.2910
 4325W        W 8389   4.863   6.724   7.786 -0.1235  0.0230 -0.1191
 4326W        W 8390   0.628   8.580   7.595  0.0931  0.1947 -0.0784
 4327W        W 8391   2.957   9.978   2.626  0.0106 -0.0065  0.0475
 4328W        W 8392   7.986   7.451   1.949  0.0580  0.0877  0.1499
 4329W        W 8393   5.095   5.313   9.467  0.0379  0.1231 -0.1733
 4330W        W 8394  10.043   7.689   2.088  0.0059  0.3640 -0.0371
 4331W        W 8395   8.971   8.716   7.254 -0.1671  0.1066 -0.2053
 4332W        W 8396   5.648  10.659   1.733  0.0537  0.3229  0.3109
 4333W        W 8397   2.276   9.143   3.138 -0.0146  0.2995  0.0672
 4334W        W 8398   7.974   6.253   7.924 -0.0630 -0.0651  0.0854
 4335W        W 8399   6.705   0.310   1.353 -0.0152  0.1761  0.1587
 4336W        W 8400   4.268   5.304   2.535 -0.0899 -0.2248  0.0680
 4337W        W 8401   3.535   1.381  10.317  0.0003 -0.1337 -0.1012
 4338W        W 8402   4.271   9.953   9.572  0.1844  0.1064 -0.1734
 4339W        W 8403   7.026   2.811   8.810  0.0162 -0.1473  0.0071
 4340W        W 8404   2.657   8.608   0.413 -0.0785  0.4326 -0.2022
 4341W        W 8405   9.518   4.107   7.949 -0.1237 -0.0372 -0.1332
 4342W        W 8406   9.281   0.389  10.046 -0.4065  0.0672  0.1226
 4343W        W 8407   9.675   1.367   8.706 -0.0287  0.1487 -0.1550
 4344W        W 8408   6.917  10.652  10.919 -0.1042  0.1053  0.0778
 4345W        W 8409   0.717   2.662   0.764  0.1684  0.0390 -0.3343
 4346W        W 8410   2.917   3.915   2.983  0.0657  0.0062 -0.1200
 4347W        W 8411   2.371   1.611   9.645 -0.2285 -0.0794  0.1057
 4348W        W 8412   5.562   7.478   0.785  0.0674  0.1438 -0.1923
 4349W        W 8413   5.742   9.455   1.107 -0.1549 -0.0632  0.1596
 4350W        W 8414   4.870   6.409   8.167  0.0863  0.1655  0.3286
 4351W        W 8415   3.928   3.752   1.968  0.1246 -0.3348  0.1151
 4352W        W 8416   9.537   3.407   2.236  0.2622  0.3994 -0.1535
 4353W        W 8417   1.716   1.120   0.324  0.3773 -0.0096  0.1208
 4354W        W 8418   1.201   5.772  10.630 -0.0652  0.1499  0.1803
 4355W        W 8419   0.876   7.018   8.004  0.0531 -0.1512 -0.0327
 4356W        W 8420   0.576   3.375   1.402 -0.1350  0.2612 -0.0073
 4357W        W 8421   1.676   6.599  10.911 -0.0775 -0.1712 -0.2700
 4358W        W 8422   2.189   6.650   7.259 -0.0655  0.1100 -0.2369
 4359W        W 8423   9.511   2.322  11.250  0.5734 -0.3514  0.0097
 4360W        W 8424  10.607   3.558   7.002 -0.0901  0.2057 -0.0474
 4361W        W 8425   8.048   7.677   0.177  0.1808  0.2111 -0.1193
 4362W        W 8426   0.369   0.109   8.705 -0.0834 -0.3606 -0.1318
 4363W        W 8427   9.088   1.889  10.570 -0.1083 -0.0242 -0.0437
 4364W        W 8428   3.154   6.437   9.576 -0.1994 -0.3884 -0.5131
 4365W        W 8429   3.918   5.018   6.596 -0.2329  0.1020  0.0637
 4366W        W 8430   5.218   7.788  10.928 -0.0280 -0.2140  0.2462
 4367W        W 8431   2.144   2.484   8.625 -0.0466  0.3574  0.0831
 4368W        W 8432   5.644   6.558  10.174  0.1520 -0.0304 -0.0683
 4369W        W 8433   9.891  10.148  11.086 -0.4493  0.1186  0.0323
 4370W        W 8434   8.956   8.538   8.042 -0.4548 -0.0348  0.1854
 4371W        W 8435   8.503   5.202   6.920  0.3358 -0.0349 -0.0609
 4372W        W 8436   4.033   2.053   0.466 -0.0531  0.0949 -0.2837
 4373W        W 8437   1.840  10.166   9.537 -0.0295  0.1708  0.3952
 4374W        W 8438   6.221   8.314   0.856 -0.0390  0.4467  0.0014
 4375W        W 8439   3.476   7.916   3.029 -0.2157  0.1543 -0.1219
 4376W        W 8440   2.629   9.684   2.353 -0.0616  0.0760 -0.1235
 4377W        W 8441   0.669   1.749   7.168 -0.1793 -0.1493 -0.0844
 4378W        W 8442   9.215   2.144   9.381  0.2525 -0.1125  0.1762
 4379W        W 8443   9.727   0.549   8.444 -0.1633  0.0721  0.0019
 4380W        W 8444   1.938   1.167   0.940  0.4265 -0.3464 -0.1513
 4381W        W 8445   4.489   5.877   7.600 -0.0176  0.0008  0.0389
 4382W        W 8446   8.713   0.359  10.711 -0.0339 -0.1095 -0.1226
 4383W        W 8447   1.273   2.028   8.675  0.0621 -0.0407 -0.2371
 4384W        W 8448   8.903   8.317   0.055 -0.0706  0.0855 -0.1141
 4385W        W 8449   2.507   2.254   1.641 -0.2554  0.2004  0.0925
 4386W        W 8450   7.138   8.180   0.633  0.2385 -0.0428  0.2399
 4387W        W 8451   8.678  10.219   7.053  0.2643  0.1398  0.1018
 4388W        W 8452   6.243   8.882  11.267 -0.2902 -0.2518  0.1400
 4389W        W 8453   3.095   7.634   2.020  0.1786  0.1353 -0.0594
 4390W        W 8454   9.316   3.865   9.921 -0.1931  0.2895 -0.0818
 4391W        W 8455   9.591   0.795   1.422 -0.0573 -0.1474  0.1169
 4392W        W 8456   1.090  10.025  10.551 -0.0175  0.0658 -0.0768
 4393W        W 8457   1.646   5.976   9.673  0.0375 -0.4219 -0.0173
 4394W        W 8458  10.636   2.953   3.082  0.0109 -0.3126 -0.1159
 4395W        W 8459   6.648   8.871  10.310 -0.0407 -0.1277  0.2537
 4396W        W 8460   5.016   4.076   8.824  0.1624  0.0096  0.0811
 4397W        W 8461   4.610   6.713   2.811  0.2671 -0.1504 -0.3503
 4398W        W 8462   2.642   4.836   6.620 -0.2302 -0.0344 -0.1695
 4399W        W 8463   1.554   1.073   8.678 -0.1634 -0.0491  0.0204
 4400W        W 8464   6.778   8.494   8.459  0.1746 -0.3902 -0.3578
 4401W        W 8465   6.445   4.928  10.414 -0.1057  0.0104  0.3346
 4402W        W 8466   2.576   7.762  10.805  0.1642 -0.1427  0.2664
 4403W        W 8467   3.644   7.021   2.505  0.1831 -0.1393 -0.2198
 4404W        W 8468   1.168   2.641   2.520 -0.0201  0.2831 -0.2672
 4405W        W 8469  10.018  10.598   1.944  0.0719 -0.1108  0.0866
 4406W        W 8470   1.189   5.740   8.302 -0.0076 -0.0965  0.0696
 4407W        W 8471   3.122   7.579   8.945  0.0647  0.2413 -0.2527
 4408W        W 8472   1.741   7.621   2.361 -0.1323  0.3486 -0.2507
 4409W        W 8473   8.088   8.910   0.100  0.2049  0.0883  0.2212
 4410W        W 8474   0.335   4.687   9.425 -0.1528  0.2131 -0.1094
 4411W        W 8475   3.329   9.030   1.080 -0.1518 -0.2660  0.1142
 4412W        W 8476   4.094   9.238   2.084 -0.2437  0.0602 -0.2290
 4413W        W 8477   8.195   2.348   8.014 -0.0318 -0.3943  0.0212
 4414W        W 8478   0.245   9.858   3.009  0.1700 -0.5066  0.1740
 4415W        W 8479   5.137   8.491   1.931 -0.0526  0.2897 -0.0561
 4416W        W 8480   2.310   0.548   8.069 -0.1749 -0.1477  0.1102
 4417W        W 8481  10.215   3.691   9.034 -0.0814  0.1766 -0.0311
 4418W        W 8482   5.919   7.596   1.460 -0.0711 -0.0309  0.1252
 4419W        W 8483   5.361   3.192   0.525 -0.1186  0.3088 -0.0917
 4420W        W 8484   6.631  10.357  10.054 -0.3212  0.2826 -0.1696
 4421W        W 8485   4.058  10.511  11.015 -0.0465 -0.0311  0.0075
 4422W        W 8486   1.598   4.402   8.093 -0.3227 -0.1838  0.3192
 4423W        W 8487   6.780   3.932   3.318 -0.0870 -0.1340 -0.1059
 4424W        W 8488   9.649   4.369   9.038 -0.4406 -0.1164  0.1336
 4425W        W 8489   3.361   3.927  10.740 -0.0836  0.3307  0.1185
 4426W        W 8490   1.605   9.332   9.970  0.1551  0.0235  0.1912
 4427W        W 8491  10.411   8.491  10.733  0.0010 -0.1814 -0.1602
 4428W        W 8492   4.933   2.108   1.937  0.0925  0.0611 -0.0173
 4429W        W 8493   6.610   4.867   1.637  0.1632 -0.1912 -0.1196
 4430W        W 8494   9.109   5.080  10.763  0.1604  0.2874  0.1270
 4431W        W 8495   6.594   4.470   7.898  0.2499  0.0429  0.0871
 4432W        W 8496   7.859   6.110   1.537 -0.0425  0.0224  0.2007
 4433W        W 8497   5.744   0.612   9.246  0.1836  0.2716 -0.2411
 4434W        W 8498   2.805   0.437   1.171  0.1362 -0.1120 -0.0368
 4435W        W 8499   4.326   9.791   9.055  0.0460  0.2256 -0.0476
 4436W        W 8500   6.299  10.071   9.778 -0.3425 -0.3395  0.1810
 4437W        W 8501   1.501   0.788   2.925 -0.0762 -0.1009  0.0594
 4438W        W 8502   7.289   9.937   9.731 -0.3078 -0.0564 -0.1608
 4439W        W 8503   9.061   0.670   2.820  0.3212  0.1570 -0.1106
 4440W        W 8504  10.510   4.919   1.669  0.0296  0.1562 -0.2609
 4441W        W 8505   1.731  10.340   0.928 -0.2071 -0.1709  0.0870
 4442W        W 8506   6.262   0.858   0.203 -0.4080  0.0633 -0.0570
 4443W        W 8507   8.415   7.753  11.155 -0.2699  0.2767 -0.1086
 4444W        W 8508   8.131   5.707  10.069 -0.1178  0.0297 -0.1254
 4445W        W 8509   3.232   0.220   0.911  0.0471  0.2325 -0.0718
 4446W        W 8510   6.369   8.435  10.465  0.0214  0.2245 -0.0702
 4447W        W 8511   3.827   5.954   8.473  0.1003  0.0163  0.0695
 4448W        W 8512   5.945   1.175   0.328 -0.0413 -0.3021  0.0602
 4449W        W 8513   2.229   0.623  10.931 -0.3703  0.1973  0.6018
 4450W        W 8514  10.050   6.016   2.362 -0.1774  0.1202 -0.1223
 4451W        W 8515   0.508   6.597   9.618 -0.0027 -0.1157 -0.0084
 4452W        W 8516   5.601   3.456   0.198  0.0795 -0.0253  0.1619
 4453W        W 8517   9.044   7.888   9.976  0.1835  0.1916 -0.1611
 4454W        W 8518  10.177   0.930   1.338 -0.0974  0.1533  0.1735
 4455W        W 8519   2.508   4.610  11.099 -0.2463 -0.4578  0.2855
 4456W        W 8520   0.756   2.807   1.984  0.1903 -0.1227 -0.1545
 4457W        W 8521  10.488   1.581   2.849  0.1580  0.2393 -0.0868
 4458W        W 8522   7.841   0.580   0.942  0.0067 -0.0260  0.0386
 4459W        W 8523   2.419   4.897   0.833  0.2893  0.1071 -0.1336
 4460W        W 8524   0.467   0.966   2.834 -0.2184 -0.4891 -0.3901
 4461W        W 8525   3.774   7.423   8.399  0.0945  0.0701  0.0600
 4462W        W 8526   8.095   8.482   7.626  0.2639 -0.1615 -0.2194
 4463W        W 8527   9.406   3.978   0.476 -0.1283  0.0140 -0.0995
 4464W        W 8528  10.119   5.461   8.626  0.1920 -0.2260  0.1761
 4465W        W 8529   9.962   0.848   1.774 -0.2017  0.0939  0.0970
 4466W        W 8530   8.252   6.721   0.086 -0.2963 -0.0195 -0.0827
 4467W        W 8531   3.414   1.786   0.777 -0.0976  0.0054 -0.0816
 4468W        W 8532  10.331   8.546   7.222 -0.0202 -0.0389  0.0212
 4469W        W 8533   6.222   1.375  10.799  0.0252 -0.0402  0.2199
 4470W        W 8534   8.210   3.902   3.263  0.0810  0.1058  0.1874
 4471W        W 8535   1.845   6.089   8.816 -0.1488  0.1745  0.3132
 4472W        W 8536   5.864   0.609   0.296  0.3932 -0.1317 -0.1788
 4473W        W 8537   3.455   7.326   9.302  0.1362 -0.0144  0.5000
 4474W        W 8538   1.855   9.817   9.150 -0.0917  0.0071 -0.0128
 4475W        W 8539   8.679   9.333  10.094  0.1891 -0.3034 -0.2183
 4476W        W 8540  10.364   3.322   2.374  0.5273 -0.0293  0.0522
 4477W        W 8541   0.656   2.219   1.167  0.2269  0.2124 -0.3280
 4478W        W 8542   8.787   2.892   1.337 -0.2235 -0.2009  0.1047
 4479W        W 8543   5.789   6.552   0.640 -0.0916  0.1297  0.1310
 4480W        W 8544   0.121  10.632   2.780 -0.2314 -0.1905  0.1538
 4481W        W 8545   0.991   4.228   9.566 -0.1350 -0.0445 -0.2519
 4482W        W 8546   3.792   0.072   8.657  0.2099  0.0032 -0.3814
 4483W        W 8547   0.293   9.441   2.130  0.0100 -0.3397 -0.1708
 4484W        W 8548   5.497   1.936   2.962 -0.1425  0.5965  0.0266
 4485W        W 8549   9.434   9.775   9.117 -0.0106  0.0660 -0.1263
 4486W        W 8550   9.624   8.031   8.805 -0.2480  0.2869 -0.0429
 4487W        W 8551   2.437   0.208   0.172  0.0640 -0.0851 -0.0021
 4488W        W 8552   9.382   5.291   3.450 -0.0240 -0.2125 -0.3252
 4489W        W 8553   7.049   7.791   0.012 -0.2929  0.1864 -0.0098
 4490W        W 8554   7.966   7.490  10.356  0.2909 -0.0597 -0.0130
 4491W        W 8555   8.152   6.817   8.000 -0.3307 -0.2555 -0.2051
 4492W        W 8556   6.839   9.709  10.991 -0.0804 -0.1094  0.4514
 4493W        W 8557   3.507   6.753   1.692  0.2386  0.2723  0.0608
 4494W        W 8558   9.242   1.458   3.378 -0.3140 -0.1103 -0.2022
 4495W        W 8559   6.376   1.169   0.790  0.0921 -0.2296 -0.0112
 4496W        W 8560   0.790   2.214   0.116  0.0903  0.1903  0.1082
 4497W        W 8561   1.955   7.081   8.095  0.0550 -0.0997 -0.1540
 4498W        W 8562   8.412   6.533  10.171 -0.2669 -0.0254  0.1619
 4499W        W 8563   4.844   6.670   1.570  0.0157  0.1455 -0.1838
 4500W        W 8564   8.493   3.222   8.039  0.2875 -0.0632 -0.3825
 4501W        W 8565   0.461   1.530   1.912 -0.1551  0.1259 -0.0803
 4502W        W 8566   3.998   8.513   8.102  0.3495 -0.2225 -0.1362
 4503W        W 8567   4.489   9.838   1.508 -0.0268  0.1962 -0.1904
 4504W        W 8568  10.159   0.067   2.493  0.1259 -0.2590 -0.0799
 4505W        W 8569   8.699   3.847   8.470 -0.1311 -0.0999  0.1275
 4506W        W 8570  10.075   6.524   0.417 -0.2674 -0.1475  0.1205
 4507W        W 8571   8.534   8.073   2.942  0.1210 -0.0189 -0.1662
 4508W        W 8572   5.630   0.595  10.570 -0.0281 -0.0153  0.1350
 4509W        W 8573   2.187   1.873   2.429 -0.0477 -0.2462  0.0337
 4510W        W 8574   3.049   4.355   2.183 -0.2910 -0.0267  0.0169
 4511W        W 8575   2.033   8.555   0.669  0.0754 -0.0025  0.2137
 4512W        W 8576   8.282   3.714   0.609  0.1383 -0.0271  0.1375
 4513W        W 8577   5.335  10.733   2.607  0.2894  0.0585 -0.3377
 4514W        W 8578   1.115   0.556  10.645  0.1163 -0.0861  0.3695
 4515W        W 8579   6.334   2.914   8.000  0.2741  0.2696 -0.0591
 4516W        W 8580   9.838   3.882   7.301 -0.1196  0.0766  0.1014
 4517W        W 8581   7.577   0.528   1.441 -0.0810  0.1405 -0.2637
 4518W        W 8582   3.184   3.346   9.168  0.0326 -0.4863  0.2996
 4519W        W 8583   8.903   8.212   2.647  0.2819  0.2102 -0.2905
 4520W        W 8584   5.045   5.954  11.273  0.0982  0.1988  0.4337
 4521W        W 8585   8.987   5.583  10.817  0.2321  0.4621  0.3384
 4522W        W 8586   4.120   0.262   1.877 -0.0435 -0.1062  0.2235
 4523W        W 8587   2.910   8.162   0.300 -0.2543 -0.0149 -0.0134
 4524W        W 8588   8.558   8.125   1.402  0.4332  0.1066 -0.1354
 4525W        W 8589   1.026  10.722   8.149 -0.0430  0.1888  0.1639
 4526W        W 8590   8.850   7.652   1.224 -0.1168  0.1294  0.1002
 4527W        W 8591  10.086   1.281   2.140  0.0405  0.1716  0.2565
 4528W        W 8592   3.222   9.433   8.419 -0.1833 -0.1488  0.1675
 4529W        W 8593   4.706   6.186   9.426  0.1891 -0.0996 -0.0092
 4530W        W 8594   0.601  10.626  10.229 -0.0885 -0.1581  0.2057
 4531W        W 8595   9.417   2.241  10.404 -0.1377 -0.0617  0.3309
 4532W        W 8596   0.600   5.949   2.634  0.1162 -0.0694 -0.2810
 4533W        W 8597   9.299   0.858   0.133  0.0941 -0.2632  0.0712
 4534W        W 8598   4.958   0.266   2.173 -0.1020 -0.0110 -0.1936
 4535W        W 8599   4.572   0.851   9.258  0.1338  0.1523  0.0447
 4536W        W 8600  10.444   7.817   0.538 -0.1125 -0.1562 -0.0573
 4537W        W 8601   0.614   6.082   9.439 -0.2672 -0.0325 -0.1956
 4538W        W 8602   7.938   9.421   7.999 -0.0437  0.0866 -0.3591
 4539W        W 8603  10.579  10.564  10.573 -0.0397  0.2763  0.0666
 4540W        W 8604   3.931   7.560   1.476  0.1136  0.3837 -0.1933
 4541W        W 8605   2.655   3.526   1.172  0.0900  0.2760 -0.0699
 4542W        W 8606   1.787   5.335  10.455  0.1342  0.1891 -0.2360
 4543W        W 8607   6.415   9.663   8.803 -0.0191  0.0056 -0.0491
 4544W        W 8608   7.216   2.686   3.154  0.1067 -0.2685 -0.0152
 4545W        W 8609  10.770   8.487   1.934  0.0682 -0.0960 -0.0931
 4546W        W 8610   1.992   1.052   3.720  0.0572 -0.0004  0.0418
 4547W        W 8611   4.894   7.981   8.497  0.1213  0.2334  0.0357
 4548W        W 8612   0.728   2.228   3.137  0.1156 -0.0397  0.0198
 4549W        W 8613   6.510   9.651  10.033 -0.1000  0.0131 -0.2946
 4550W        W 8614   6.979   5.322   7.654  0.0911 -0.2923  0.1741
 4551W        W 8615   9.272   0.323   8.936 -0.1321  0.0680  0.0418
 4552W        W 8616   5.139   8.990   8.917  0.1269 -0.1596  0.2641
 4553W        W 8617   9.960   0.931  10.376 -0.0272  0.1800 -0.1916
 4554W        W 8618   4.533  10.625   1.115  0.0549  0.0586  0.0289
 4555W        W 8619   1.754   3.352   8.086  0.0518  0.0253  0.2158
 4556W        W 8620   9.276   9.814   1.813 -0.0107 -0.0840 -0.3173
 4557W        W 8621  10.390   9.909  10.061 -0.1810  0.0592  0.1455
 4558W        W 8622   1.835   9.358   3.852  0.1157  0.0444 -0.0015
 4559W        W 8623   8.120   3.593   9.243 -0.0537 -0.0308 -0.0532
 4560W        W 8624   8.953   5.963   2.262  0.1213 -0.0118 -0.0569
 4561W        W 8625  10.654   7.023   1.029  0.3569 -0.0474  0.0077
 4562W        W 8626   2.224   4.658   1.746 -0.0554  0.3991  0.0914
 4563W        W 8627  10.152   9.522   2.041 -0.3680 -0.1172  0.2673
 4564W        W 8628   0.998  10.689  11.219  0.1369 -0.0712  0.2914
 4565W        W 8629   1.499   1.041   9.848  0.3633 -0.2223  0.1058
 4566W        W 8630   6.824   5.693   2.564 -0.2555  0.0229  0.1680
 4567W        W 8631   8.010   2.486   1.276 -0.2262 -0.3567  0.2904
 4568W        W 8632   5.721   3.404   3.086 -0.2561  0.1035 -0.2916
 4569W        W 8633   0.093   1.321   7.259  0.0714 -0.0598  0.1550
 4570W        W 8634   4.899   6.948  10.150 -0.1058  0.0063  0.2062
 4571W        W 8635   6.784   9.086   3.839  0.2580 -0.0748  0.0709
 4572W        W 8636   1.289   3.283   0.370 -0.0345  0.2130  0.1262
 4573W        W 8637   8.570   9.298   2.414  0.0552 -0.0490  0.1253
 4574W        W 8638  10.342   8.450  11.175 -0.2019  0.2659 -0.2388
 4575W        W 8639   6.761   0.820   2.048  0.4178 -0.3090 -0.2449
 4576W        W 8640   4.944   1.262  11.204  0.1533 -0.0210 -0.2091
 4577W        W 8641   8.449   2.663  10.384 -0.0896  0.0181 -0.3940
 4578W        W 8642   2.739   9.896  10.000 -0.0655  0.2466  0.0503
 4579W        W 8643   0.149   7.356   1.856 -0.0301 -0.0152 -0.0847
 4580W        W 8644   5.030   1.177   9.251  0.1484  0.2119 -0.1719
 4581W        W 8645   1.311  10.538   2.327 -0.2383 -0.1250 -0.0230
 4582W        W 8646   6.537   7.553  10.387 -0.3045 -0.0245 -0.0837
 4583W        W 8647   2.495   0.729  10.057  0.2368 -0.0379 -0.1038
 4584W        W 8648  10.003   3.228   9.673  0.0703  0.0447  0.0952
 4585W        W 8649  10.279  10.297   8.750 -0.3509  0.0872 -0.1311
 4586W        W 8650   1.261   8.864   0.853  0.2564  0.3883  0.0521
 4587W        W 8651   0.128   1.718   9.712 -0.0584  0.1355 -0.1399
 4588W        W 8652   6.215   3.980   2.499 -0.0024  0.2312  0.5011
 4589W        W 8653   4.808   3.586  11.128  0.1168  0.0835 -0.0764
 4590W        W 8654  10.186   6.370   1.419  0.2781  0.0202 -0.2890
 4591W        W 8655  10.297   4.313   0.749  0.1220  0.2594 -0.5860
 4592W        W 8656   0.018   0.775   0.268  0.1583 -0.0503 -0.1165
 4593W        W 8657   0.712   8.763   9.037  0.3094 -0.2017 -0.0051
 4594W        W 8658   9.584  10.210   0.737  0.0488  0.2755  0.2069
 4595W        W 8659   4.031   4.729   2.531 -0.3937  0.1554 -0.0207
 4596W        W 8660   1.157   0.358   9.124 -0.2183 -0.2078 -0.3584
 4597W        W 8661   1.208   2.863   0.808 -0.1087  0.1394  0.0932
 4598W        W 8662   9.450   8.445   8.932 -0.0680 -0.2888  0.3281
 4599W        W 8663   1.016  10.175   2.095 -0.3131  0.0779 -0.2927
 4600W        W 8664   6.371   2.631   3.106 -0.0235 -0.1067 -0.1222
 4601W        W 8665   2.532   9.366   2.795  0.1477 -0.4011 -0.2635
 4602W        W 8666   9.429   1.937   2.588  0.0786  0.0253 -0.3860
 4603W        W 8667   1.032   4.435   8.091 -0.2403  0.0192 -0.0946
 4604W        W 8668   9.395   0.901   1.844 -0.0280 -0.0214  0.1001
 4605W        W 8669   8.033   4.382   0.209 -0.1064 -0.0025 -0.0776
 4606W        W 8670   6.137   8.738   0.442  0.0397 -0.1166  0.0122
 4607W        W 8671   9.971   5.423  10.969  0.0447  0.0705 -0.0119
 4608W        W 8672   9.849  10.640   0.706 -0.2594 -0.1269  0.1099
 4609W        W 8673   0.270   5.579   8.722 -0.3163 -0.0315  0.0507
 4610W        W 8674   8.414   7.105   1.782  0.0291  0.0486 -0.2758
 4611W        W 8675   5.895   9.442   2.150 -0.4236  0.3958  0.1503
 4612W        W 8676   0.564   1.036  10.224 -0.1559  0.0185  0.0086
 4613W        W 8677   5.852   6.840   6.717  0.3782  0.0073  0.0064
 4614W        W 8678   8.498   7.323  10.279 -0.1148  0.0052 -0.0182
 4615W        W 8679   2.804  10.086   1.629 -0.1995  0.3382 -0.2778
 4616W        W 8680   3.880   1.198   9.258  0.0271  0.0845 -0.0254
 4617W        W 8681   6.882   7.961   7.644  0.1827 -0.0386 -0.0635
 4618W        W 8682   0.639   4.625   2.463 -0.1147  0.2207  0.2250
 4619W        W 8683   8.819   2.452   2.636  0.1040  0.1332 -0.1151
 4620W        W 8684   2.373   9.994   7.750  0.4505 -0.3119 -0.1272
 4621W        W 8685   4.850   3.930   9.578  0.2131 -0.0230 -0.3277
 4622W        W 8686   7.792   4.346   9.876  0.0919 -0.1681  0.0817
 4623W        W 8687   9.759   8.575   3.427 -0.0470  0.1782 -0.0140
 4624W        W 8688   3.034   0.397   3.663 -0.4095 -0.0880 -0.0279
 4625W        W 8689   2.524  10.729   9.198 -0.1753 -0.0456 -0.2195
 4626W        W 8690   0.661   0.296   0.201  0.0865  0.0103 -0.2396
 4627W        W 8691   4.408   5.509   7.935  0.2690  0.1759 -0.2983
 4628W        W 8692   7.062   1.541   9.770 -0.0426  0.0102 -0.0433
 4629W        W 8693   8.278   8.921   7.801  0.2294  0.0339  0.2006
 4630W        W 8694   1.125   2.015   1.289  0.0712  0.1507 -0.3874
 4631W        W 8695   4.127  10.502   1.801 -0.2444  0.0442  0.1354
 4632W        W 8696   6.077   3.568  11.255 -0.0179  0.0507  0.3143
 4633W        W 8697   3.405   3.397  11.258 -0.1136 -0.1501  0.1191
 4634W        W 8698   8.263   8.325  10.042 -0.1230  0.1243  0.2463
 4635W        W 8699   3.701   3.577  10.918  0.2265 -0.0813  0.0314
 4636W        W 8700   0.358  10.301   0.553 -0.2749 -0.0057 -0.2684
 4637W        W 8701   0.873  10.328   7.166 -0.0818 -0.0896  0.0235
 4638W        W 8702   1.645   7.304   9.788  0.2548  0.2585  0.0823
 4639W        W 8703   6.209   8.259   3.054  0.0278 -0.4826 -0.0471
 4640W        W 8704   4.990   2.333   0.181  0.0770 -0.0298  0.0682
 4641W        W 8705   0.024   7.671   9.040 -0.0288 -0.0353  0.4892
 4642W        W 8706   9.179   5.148  11.245  0.1344  0.2261 -0.0482
 4643W        W 8707  10.267   7.013   7.698  0.0678  0.0482  0.5275
 4644W        W 8708   3.688   7.893   0.038 -0.1623  0.2936 -0.1703
 4645W        W 8709   0.407   4.184   0.158  0.1816 -0.1242 -0.1662
 4646W        W 8710   7.308   1.328   9.364 -0.0474 -0.1663 -0.0797
 4647W        W 8711   7.950   8.673   9.477 -0.3191 -0.0962  0.0841
 4648W        W 8712   1.427   2.497   1.536  0.0393  0.0033 -0.0491
 4649W        W 8713   2.092   6.956   1.299 -0.0737 -0.0459  0.0093
 4650W        W 8714   3.430   9.769  10.597 -0.1490  0.0107  0.2388
 4651W        W 8715   2.804   2.141   8.814  0.3052 -0.0874 -0.1371
 4652W        W 8716   4.227  10.173   8.721 -0.2526 -0.0899  0.2943
 4653W        W 8717   2.565   6.401   8.988 -0.1814  0.3309  0.0992
 4654W        W 8718   4.055   7.116   0.085  0.1485  0.0555  0.1714
 4655W        W 8719   3.654   2.748   2.799 -0.4774 -0.0191 -0.0050
 4656W        W 8720   9.622   0.113  11.055 -0.2257  0.3286 -0.2524
 4657W        W 8721   7.173   7.850   2.217 -0.0404  0.1259  0.1101
 4658W        W 8722  10.605   5.203  10.596 -0.1742 -0.0095 -0.1613
 4659W        W 8723   6.325   3.122   9.273 -0.0682  0.1119 -0.1964
 4660W        W 8724   0.050   1.784   1.798 -0.0516  0.0537  0.0344
 4661W        W 8725   9.820   0.973   9.538  0.2240  0.0302 -0.1474
 4662W        W 8726   9.593  10.211   3.080 -0.2094 -0.3077 -0.0073
 4663W        W 8727  10.390   2.017   3.177  0.0199 -0.0924  0.2044
 4664W        W 8728   8.127   8.312   6.682  0.0430  0.3912  0.0604
 4665W        W 8729   5.204   5.393   3.724 -0.0291  0.0202 -0.0025
 4666W        W 8730   0.749   9.405  11.032 -0.0573  0.1774 -0.2373
 4667W        W 8731   2.544   7.341   2.607 -0.2355  0.1560  0.1303
 4668W        W 8732   1.522   4.956  10.097  0.1516 -0.0451 -0.3385
 4669W        W 8733   2.234   2.454   3.098 -0.0554  0.0194  0.0226
 4670W        W 8734   1.111   7.165   1.262  0.0980  0.0934 -0.1197
 4671W        W 8735   3.472   3.513   3.447 -0.1609  0.1236  0.0532
 4672W        W 8736   0.230   2.334  10.781 -0.1501 -0.1758 -0.3319
 4673W        W 8737   9.493   5.814   0.417 -0.1030 -0.3465  0.0918
 4674W        W 8738   8.977   2.087  10.072 -0.0344  0.1032  0.3302
 4675W        W 8739   1.906   6.150   1.314 -0.3040  0.0688  0.0990
 4676W        W 8740   3.189   3.507   8.195 -0.0003 -0.1475 -0.1418
 4677W        W 8741   6.182   0.668   9.484  0.0011 -0.2112 -0.1465
 4678W        W 8742   0.020   7.658   8.002 -0.0674 -0.0144 -0.0628
 4679W        W 8743   8.448   8.327   9.542  0.0494  0.0138 -0.2356
 4680W        W 8744   0.072   1.880   7.344 -0.1037 -0.0951 -0.4443
 4681W        W 8745   0.809   1.601   1.139  0.1959 -0.3829  0.1342
 4682W        W 8746   7.298   9.582   3.755 -0.6049  0.0574  0.0660
 4683W        W 8747   7.152   9.412   2.663 -0.0369  0.1531  0.3423
 4684W        W 8748   3.688   0.285   0.563  0.0947 -0.1955  0.3379
 4685W        W 8749   5.523   2.153   0.242 -0.1196  0.0665  0.2526
 4686W        W 8750   2.598   7.695  10.249  0.0129 -0.1654 -0.2718
 4687W        W 8751  10.019   8.903   8.914 -0.0634 -0.1698 -0.2377
 4688W        W 8752   7.643   0.366  10.335  0.0085 -0.0610 -0.0767
 4689W        W 8753   1.473   7.763   9.910  0.0539 -0.1948  0.0408
 4690W        W 8754   9.745   3.655   0.361 -0.0316  0.4615  0.1168
 4691W        W 8755   5.607   8.296   9.321  0.0185  0.4209  0.1369
 4692W        W 8756  10.527   6.414   0.628  0.1779  0.3321 -0.1443
 4693W        W 8757   8.663   1.313   2.782 -0.1548 -0.3187  0.1919
 4694W        W 8758   7.498   8.438   9.514  0.0998  0.0437 -0.1336
 4695W        W 8759   6.756   4.277   0.580  0.1901 -0.0547  0.0819
 4696W        W 8760   6.523  10.518   2.184  0.0501  0.1385  0.0388
 4697W        W 8761   4.282   7.002   3.238  0.0680  0.0872  0.1389
 4698W        W 8762  10.484   1.991   1.493 -0.0050 -0.2413  0.2000
 4699W        W 8763   6.998   8.645   1.496 -0.1827 -0.1956 -0.1149
 4700W        W 8764   0.323   0.427   8.333  0.0820 -0.3490  0.0726
 4701W        W 8765   6.286   8.812   1.509 -0.1479  0.0419  0.0472
 4702W        W 8766   4.508  10.656   7.944 -0.1147 -0.0906  0.0626
 4703W        W 8767   3.354   5.526   9.581 -0.1122  0.1102  0.0085
 4704W        W 8768   6.129   4.561   1.815  0.1359  0.1871  0.1599
 4705W        W 8769   5.512   0.662   7.749  0.2391 -0.2364  0.1283
 4706W        W 8770   2.244  10.583   3.599  0.1086  0.0400  0.1815
 4707W        W 8771   8.255   6.682   9.360 -0.5285 -0.0989  0.1107
 4708W        W 8772   0.485   5.217   0.807 -0.0281 -0.3612  0.0128
 4709W        W 8773   5.224  10.308   8.974 -0.0504  0.2870 -0.0487
 4710W        W 8774   4.306   0.446   9.126  0.0265  0.1153 -0.0280
 4711W        W 8775   3.127   5.307  10.948 -0.2272  0.4512 -0.1416
 4712W        W 8776   7.787   4.538   9.115 -0.1718 -0.1089 -0.1033
 4713W        W 8777   5.063   5.632   0.735 -0.3409 -0.1854  0.2601
 4714W        W 8778   1.598   7.800   1.913  0.0577  0.0552  0.1968
 4715W        W 8779   8.187   8.599   8.499 -0.2921  0.2738 -0.0155
 4716W        W 8780   5.601   6.709   1.531 -0.1254 -0.3549  0.3435
 4717W        W 8781   8.348   4.215   1.455  0.3269 -0.0464 -0.2481
 4718W        W 8782   8.846   2.239   3.572  0.1589 -0.0675 -0.0973
 4719W        W 8783  10.647   4.350   0.395 -0.0469  0.1190  0.4494
 4720W        W 8784  10.299   6.165  10.281 -0.0836  0.2350 -0.1080
 4721W        W 8785   0.077  10.240   1.034 -0.0959 -0.0776 -0.4079
 4722W        W 8786   0.278   8.336   7.334 -0.0540  0.0907  0.1272
 4723W        W 8787   0.364   6.357   9.137 -0.2326 -0.1928 -0.3256
 4724W        W 8788  10.665   8.497   2.493  0.3027  0.0601 -0.4357
 4725W        W 8789   1.925   5.719  11.274 -0.0287 -0.1545  0.2144
 4726W        W 8790   3.951   9.733   1.166  0.3130 -0.2165  0.2493
 4727W        W 8791   9.044   1.431  10.410 -0.0655 -0.2158  0.0189
 4728W        W 8792   0.859   6.584   7.888 -0.3543  0.0348  0.1261
 4729W        W 8793  10.139   1.411   9.646 -0.1075 -0.0049 -0.1644
 4730W        W 8794   0.323   4.515   0.571 -0.0139  0.0945  0.1404
 4731W        W 8795   6.865   6.094   8.154 -0.0231 -0.2906  0.2320
 4732W        W 8796   0.463   3.257   9.821  0.4424 -0.1088 -0.0304
 4733W        W 8797   6.771   1.096   0.447  0.0080  0.5030 -0.0698
 4734W        W 8798   4.004   0.537   2.541  0.0634  0.1294  0.1045
 4735W        W 8799   0.396   3.515   2.580 -0.1215  0.3256  0.1640
 4736W        W 8800   1.416   4.891   2.375  0.0659 -0.1607  0.2458
 4737W        W 8801   8.725   5.492  11.239 -0.3416  0.0923 -0.0910
 4738W        W 8802  10.319   1.507   0.043  0.1323 -0.0882 -0.2861
 4739W        W 8803   4.683   6.598   9.709  0.2258 -0.0592  0.1258
 4740W        W 8804   1.117   9.670   7.994  0.1844  0.2345 -0.1780
 4741W        W 8805   4.801   2.229   2.395  0.0404  0.5108  0.0980
 4742W        W 8806   5.355   3.622   2.030 -0.0101  0.4045 -0.2301
 4743W        W 8807   9.151   1.315   0.044 -0.1437  0.0387 -0.1998
 4744W        W 8808   9.032  10.649   9.353  0.4918 -0.1974  0.0097
 4745W        W 8809   3.092   7.410   7.530  0.0920 -0.0522  0.2645
 4746W        W 8810   4.152   3.431  10.167 -0.0709 -0.1204  0.0819
 4747W        W 8811   8.976   0.749   7.697  0.1444 -0.0932  0.0383
 4748W        W 8812   1.748   3.691   9.687 -0.0420 -0.0424 -0.0745
 4749W        W 8813   2.894   0.904   1.437  0.1140  0.0497 -0.2231
 4750W        W 8814   1.649   0.271   8.823  0.1323 -0.2804  0.1845
 4751W        W 8815   1.705   3.718   0.953 -0.1272  0.0987 -0.1999
 4752W        W 8816   8.883   0.776   2.117  0.3013 -0.2332  0.1093
 4753W        W 8817   5.453   0.114   1.326  0.1842  0.4051 -0.4990
 4754W        W 8818   2.177   4.389   2.177  0.3133  0.0112 -0.2141
 4755W        W 8819   3.900   5.111   1.275  0.0146  0.0186 -0.0104
 4756W        W 8820   5.647   0.576   9.756  0.1960  0.1681  0.2243
 4757W        W 8821   6.327   2.218   9.753 -0.0679  0.2528 -0.0852
 4758W        W 8822   7.642   9.451   8.427 -0.0003 -0.0177 -0.0538
 4759W        W 8823   2.391   3.349   2.492  0.3001  0.2240 -0.1764
 4760W        W 8824   0.954   8.400   7.228 -0.1344 -0.0315 -0.1111
 4761W        W 8825   2.613   7.458   7.663 -0.1789  0.0528 -0.0846
 4762W        W 8826   6.741   1.921   2.817 -0.0798 -0.1290  0.1457
 4763W        W 8827   1.980   2.095   7.913 -0.4278 -0.0758 -0.0621
 4764W        W 8828   0.061   1.784   8.393  0.0062 -0.1493  0.1726
 4765W        W 8829   4.806   5.192   8.146 -0.1176 -0.2809 -0.0697
 4766W        W 8830   3.769   0.104  10.815 -0.2009 -0.2251  0.2549
 4767W        W 8831  10.375   6.435   9.315  0.2027  0.2089  0.3122
 4768W        W 8832  10.317   5.727  11.203  0.1779 -0.1419 -0.3390
 4769W        W 8833   4.323   3.203  10.668 -0.1192 -0.1155  0.0680
 4770W        W 8834   4.701   0.039   0.214 -0.1961  0.0880 -0.1572
 4771W        W 8835   9.432   3.702  10.613  0.2416 -0.1054  0.0005
 4772W        W 8836   0.420   2.040  11.105 -0.0024  0.3523  0.1168
 4773W        W 8837   8.484   6.486   0.513 -0.2353 -0.0157 -0.1162
 4774W        W 8838   4.797   6.545   1.054  0.1378 -0.2760  0.1180
 4775W        W 8839   2.628   4.145  10.952  0.0718  0.2535 -0.3100
 4776W        W 8840   7.549   4.978   8.217  0.1548 -0.1828  0.1317
 4777W        W 8841   3.626   6.223  10.292 -0.0725  0.1472  0.0265
 4778W        W 8842   9.541   7.842   3.489  0.1774  0.4628  0.0089
 4779W        W 8843   0.203   5.572   2.619 -0.2103 -0.1601  0.0430
 4780W        W 8844   2.803   3.498   2.221 -0.1185  0.0734  0.1267
 4781W        W 8845   1.667   0.404  11.167  0.0612  0.0091 -0.0526
 4782W        W 8846   8.806   8.434   2.231  0.1174  0.1393  0.3262
 4783W        W 8847   1.721   5.646   7.480 -0.0893  0.0961  0.1889
 4784W        W 8848   7.725   5.867   1.049  0.3205  0.0499  0.1432
 4785W        W 8849   0.229   9.361   8.030  0.1213 -0.1219 -0.2180
 4786W        W 8850   7.965   4.588   8.319 -0.2907  0.2838  0.1604
 4787W        W 8851   7.950   1.174   3.210 -0.0966 -0.1856  0.1142
 4788W        W 8852   0.798   8.097  10.534 -0.1534  0.1333 -0.0270
 4789W        W 8853   2.314  10.166   9.868 -0.0064  0.0559 -0.0841
 4790W        W 8854   8.008   4.933   2.163  0.2035 -0.1949  0.0072
 4791W        W 8855   2.979   5.942   1.041 -0.3013  0.2039 -0.1207
 4792W        W 8856   3.671   1.632   2.148 -0.1622 -0.4269 -0.3708
 4793W        W 8857   3.282   3.221  10.408  0.0508  0.1033  0.1748
 4794W        W 8858   8.436   0.846   9.809 -0.1312  0.1101  0.3389
 4795W        W 8859   0.302   6.675   1.164  0.2948  0.2975 -0.0863
 4796W        W 8860   3.280   5.269   0.168 -0.0797 -0.2060 -0.3641
 4797W        W 8861   0.371   0.025   2.038 -0.0825 -0.1717  0.0275
 4798W        W 8862   0.053   7.171   8.916 -0.1367 -0.0061  0.3382
 4799W        W 8863   0.212   6.152   0.301 -0.2094  0.0629 -0.0949
 4800W        W 8864   9.996   3.258   2.027 -0.1482 -0.0649  0.1348
 4801W        W 8865   5.172   0.817  11.290 -0.2074  0.0832  0.2017
 4802W        W 8866  10.202   4.159   2.565 -0.0909  0.2095  0.1048
 4803W        W 8867   0.521   7.018  10.715  0.0937  0.3089  0.2007
 4804W        W 8868   9.078   0.880   7.183 -0.2970 -0.0321  0.1020
 4805W        W 8869   9.340   5.108   8.912  0.1193 -0.0765 -0.1068
 4806W        W 8870   1.705  10.211  11.216 -0.0456 -0.1721 -0.0367
 4807W        W 8871   2.183  10.046   0.109 -0.0129  0.2388 -0.1556
 4808W        W 8872   1.513   6.552   3.811  0.1045 -0.0804  0.2501
 4809W        W 8873   8.745   5.699   3.015 -0.1706  0.3691 -0.2757
 4810W        W 8874   9.602   9.018   1.299  0.1546 -0.2589  0.0839
 4811W        W 8875   1.500   0.485   1.101  0.2301 -0.1499 -0.1644
 4812W        W 8876   1.110   8.421  10.246  0.5662  0.0838 -0.2132
 4813W        W 8877   2.358   5.876   9.803  0.0867  0.1445  0.1217
 4814W        W 8878   5.490   1.696   2.006 -0.1071  0.1138  0.0400
 4815W        W 8879   6.107   1.599   0.521  0.0633  0.0733  0.0612
 4816W        W 8880   1.359   5.222   9.465 -0.1593 -0.0564  0.2595
 4817W        W 8881   2.312   9.551   0.011 -0.1132 -0.3580  0.1673
 4818W        W 8882   0.856   5.459   7.671  0.0036  0.1431  0.1746
 4819W        W 8883   6.016  10.022   3.363 -0.0425 -0.2169 -0.0286
 4820W        W 8884   7.209  10.200   0.413 -0.3123  0.0253  0.1119
 4821W        W 8885   2.123   2.944   2.436 -0.3542 -0.2716 -0.1687
 4822W        W 8886   7.091   6.354   7.772  0.0323 -0.3317 -0.2437
 4823W        W 8887   4.353   2.769   8.768  0.1931  0.4073  0.1276
 4824W        W 8888   2.396   3.401   8.721 -0.0959  0.0254  0.1469
 4825W        W 8889   2.706   6.473   0.694  0.1725 -0.2050 -0.0740
 4826W        W 8890   6.680   3.724   8.502  0.0939  0.1621  0.0239
 4827W        W 8891   0.525   1.393   9.887 -0.2661  0.0643  0.0780
 4828W        W 8892   9.976   6.397  10.746  0.1006 -0.0676 -0.0646
 4829W        W 8893   3.838   9.294   0.856  0.0103  0.0250 -0.1690
 4830W        W 8894   0.307   3.184   2.195 -0.1070  0.3220  0.0500
 4831W        W 8895   7.087  10.376   8.151  0.0912 -0.0792 -0.0724
 4832W        W 8896   7.308   2.379   1.803 -0.0755 -0.2416 -0.1669
 4833W        W 8897   9.376   1.768   7.178  0.1112 -0.0495  0.2615
 4834W        W 8898   5.299   3.931  11.119 -0.0101 -0.0921 -0.0860
 4835W        W 8899   3.651   3.240   2.873  0.0136  0.1416 -0.1688
 4836W        W 8900   6.497   4.888  11.232  0.2428  0.4046  0.1919
 4837W        W 8901   5.185   2.055  11.126 -0.1477 -0.1217  0.0167
 4838W        W 8902   8.454   0.773   8.852 -0.0608  0.1850  0.1405
 4839W        W 8903  10.288   4.343   1.657 -0.1481 -0.1871 -0.4538
 4840W        W 8904   2.041   3.665   7.750 -0.1610 -0.1672  0.0217
 4841W        W 8905   5.929   0.837  11.115 -0.0325 -0.0294  0.2225
 4842W        W 8906   7.155  10.405   9.825 -0.1648  0.0514  0.1618
 4843W        W 8907   6.887   5.764   0.577  0.1505 -0.0134 -0.0347
 4844W        W 8908   0.746   9.682   0.463 -0.0010  0.0278 -0.2796
 4845W        W 8909   9.266   8.655   2.199  0.2596  0.2776 -0.0559
 4846W        W 8910  10.283   2.741   6.756  0.1504  0.1223  0.3265
 4847W        W 8911   4.114   2.218  10.889 -0.1308  0.0816  0.2414
 4848W        W 8912   6.441   6.540  11.273 -0.1595 -0.0464  0.1528
 4849W        W 8913   0.362   3.646   7.207  0.1903 -0.2845  0.0422
 4850W        W 8914   6.974   9.425   0.427  0.0240  0.0283  0.0759
 4851W        W 8915  10.730   9.169   0.814 -0.0008 -0.1825  0.1445
 4852W        W 8916   8.094   3.084  11.177 -0.1602 -0.3232  0.0483
 4853W        W 8917   4.709   4.116   2.610  0.2690 -0.1007 -0.2769
 4854W        W 8918   8.906   3.104   0.347  0.0914 -0.2449 -0.1344
 4855W        W 8919   0.003   4.820  10.341  0.0044 -0.0155  0.0101
 4856W        W 8920   7.798   3.303  10.763  0.2525 -0.0735 -0.0402
 4857W        W 8921  10.328   3.299  10.939  0.1179  0.1225 -0.1441
 4858W        W 8922   5.429   5.080   9.861 -0.4341  0.1410  0.2291
 4859W        W 8923   8.698   9.382   0.262  0.2313  0.0128 -0.0277
 4860W        W 8924   2.089   9.405   8.949  0.0455 -0.2043  0.0624
 4861W        W 8925   1.136   4.477  10.031 -0.3338  0.2126  0.0203
 4862W        W 8926  10.488   7.966  11.219  0.2906 -0.0402  0.0385
 4863W        W 8927   9.071   3.808   2.197 -0.0392 -0.0836 -0.0853
 4864W        W 8928   0.438   8.517   8.568 -0.0230 -0.1179  0.0761
 4865W        W 8929  10.055   6.796   8.597  0.0909  0.2302 -0.1657
 4866W        W 8930   0.902   3.572   1.121 -0.0973  0.2019  0.1188
 4867W        W 8931   1.380   3.369  11.165 -0.1171 -0.1467 -0.0593
 4868W        W 8932   3.131   9.934  10.266 -0.0492  0.0887 -0.1291
 4869W        W 8933   9.883   2.148   8.400 -0.1815 -0.0195  0.1362
 4870W        W 8934   4.428   5.546   3.072  0.2801 -0.3515  0.0956
 4871W        W 8935   0.396   6.917   3.473  0.2966 -0.0372  0.1665
 4872W        W 8936   7.741   8.962   8.631 -0.3822  0.2190 -0.2185
 4873W        W 8937   3.775   4.393   2.804 -0.1443 -0.6026 -0.1381
 4874W        W 8938   2.871   3.419   9.596 -0.0309 -0.1625  0.0837
 4875W        W 8939   5.676   0.472   1.531  0.0397  0.2474  0.1694
 4876W        W 8940   8.806   0.242   2.164 -0.0691  0.3282  0.0465
 4877W        W 8941   1.322   7.271   7.224  0.1015  0.3860  0.1064
 4878W        W 8942   0.724   1.954   1.652 -0.1403 -0.0838  0.2032
 4879W        W 8943   5.852   2.666   8.004  0.3405  0.0451 -0.2896
 4880W        W 8944   4.510   0.816   2.599 -0.1544  0.1445  0.1454
 4881W        W 8945   9.850   9.680   4.299  0.0164 -0.0215  0.2819
 4882W        W 8946   0.891   8.096   2.201 -0.0653 -0.0720 -0.2764
 4883W        W 8947   4.185   3.551   7.861  0.1336  0.0994  0.1579
 4884W        W 8948   8.949   0.679   8.963 -0.0996  0.0700  0.1742
 4885W        W 8949   2.934   3.633  10.133  0.0155  0.2630 -0.2155
 4886W        W 8950   2.881   3.153   8.074  0.0953  0.1225 -0.1533
 4887W        W 8951   0.794   5.531   8.597  0.2724 -0.2486 -0.2703
 4888W        W 8952   2.895   7.822  11.191  0.0612  0.2267 -0.0050
 4889W        W 8953   1.538   0.638   8.438 -0.1572 -0.2230 -0.2314
 4890W        W 8954   0.190   9.900   8.092 -0.1809  0.1868  0.3205
 4891W        W 8955   6.891   1.644   9.278 -0.3335 -0.1411 -0.0685
 4892W        W 8956   7.262   1.592   2.868 -0.2619 -0.1126 -0.1792
 4893W        W 8957   2.001   4.152   3.596  0.1041 -0.1647  0.2897
 4894W        W 8958   9.384   7.531   1.286  0.3449 -0.0041  0.0225
 4895W        W 8959   9.800   4.688   3.494  0.1797 -0.0024 -0.2098
 4896W        W 8960   6.335   9.542   9.292  0.1524 -0.2106  0.0047
 4897W        W 8961   8.526   4.556   9.127 -0.1042 -0.1559  0.0443
 4898W        W 8962   3.409  10.205   9.155 -0.1240  0.0012 -0.1426
 4899W        W 8963   8.040   2.670   3.732 -0.3384  0.1965  0.0233
 4900W        W 8964   3.278   8.871  10.225  0.4103 -0.0936 -0.1672
 4901W        W 8965   0.713   4.740  10.261  0.1947 -0.0821 -0.0509
 4902W        W 8966   9.502   7.864   1.746  0.0273 -0.0939  0.0587
 4903W        W 8967   0.863   5.900   7.969  0.2245  0.0495 -0.1168
 4904W        W 8968   5.692   1.969  11.048  0.0432  0.1173  0.1844
 4905W        W 8969   8.522   2.457   1.395 -0.2461  0.0612 -0.2210
 4906W        W 8970   1.397   9.740  10.320  0.2546  0.2114  0.4767
 4907W        W 8971   3.643   8.375   9.973 -0.2743  0.0632 -0.2799
 4908W        W 8972   2.474   5.792   3.325  0.2194  0.0479 -0.3637
 4909W        W 8973   3.150   9.203   9.764  0.2054  0.1076 -0.2651
 4910W        W 8974   5.177   6.968   1.274  0.2984  0.3436 -0.0588
 4911W        W 8975   7.643   8.624   7.669  0.2737 -0.2200 -0.2273
 4912W        W 8976   5.293   2.260   8.728 -0.0622  0.0889 -0.2024
 4913W        W 8977   1.891   0.493   2.831  0.5439 -0.3102  0.0303
 4914W        W 8978   2.429   2.156   9.705  0.0512  0.1235  0.0256
 4915W        W 8979   8.172   1.170   8.748  0.0894 -0.1639 -0.0066
 4916W        W 8980   1.121   2.899   1.630  0.0451 -0.0679  0.0416
 4917W        W 8981   2.265   7.362   0.465  0.4119  0.1127 -0.0359
 4918W        W 8982   9.363   1.489   7.813  0.1427  0.0638  0.0509
 4919W        W 8983   6.918   0.194   8.895  0.4945 -0.1513  0.0521
 4920W        W 8984   0.506   2.732   8.395 -0.0466 -0.1702 -0.0729
 4921W        W 8985   4.639   1.890   0.512 -0.0374 -0.3756  0.2734
 4922W        W 8986   6.436   5.503   7.633  0.1463 -0.0287 -0.0152
 4923W        W 8987   2.330   6.978  10.927  0.1071 -0.1397  0.1408
 4924W        W 8988   2.717   0.795   7.351 -0.1800  0.1106  0.0234
 4925W        W 8989   6.744   1.407   2.699 -0.1913  0.2622 -0.1173
 4926W        W 8990   9.557   5.292   0.159  0.0958  0.1977  0.3130
 4927W        W 8991   0.977  10.259   2.623  0.1078  0.2185 -0.0914
 4928W        W 8992   5.140   2.348   9.249 -0.0384 -0.1087  0.1577
 4929W        W 8993   3.785  10.268   9.970  0.0131  0.0316  0.0734
 4930W        W 8994   0.795   4.241   2.855  0.3866  0.0595  0.0593
 4931W        W 8995  10.483  10.269   1.437  0.1922 -0.2793  0.1027
 4932W        W 8996   1.823  10.587  10.889 -0.1213 -0.3047  0.0750
 4933W        W 8997   7.958   5.252   3.080  0.2898  0.1582  0.3543
 4934W        W 8998   3.488   4.060   2.079 -0.3323 -0.1785 -0.3451
 4935W        W 8999   2.613   8.461   9.765 -0.3262 -0.0956  0.1480
 4936W        W 9000   8.329   0.501   2.209  0.0541  0.3980 -0.4147
 4937W        W 9001   4.333   8.076  10.592 -0.1139 -0.0305 -0.4007
 4938W        W 9002   1.441   6.446  10.052  0.1015 -0.0194 -0.1100
 4939W        W 9003   3.764   7.104   1.288 -0.3067  0.0016  0.1127
 4940W        W 9004   5.293   1.209   2.010 -0.0926  0.2401  0.0812
 4941W        W 9005   9.105   1.579   8.419 -0.0131 -0.2442  0.1437
 4942W        W 9006  10.199   5.159   9.072  0.1533  0.0717 -0.3026
 4943W        W 9007   5.194   3.048   1.895 -0.1113  0.2006 -0.1252
 4944W        W 9008   1.206   7.377   3.300  0.0174 -0.2318  0.1109
 4945W        W 9009   5.513   9.935   2.714 -0.0141 -0.1143 -0.0986
 4946W        W 9010   2.236   7.820   8.743  0.0441  0.1821  0.1794
 4947W        W 9011   9.700  10.579   8.188  0.0920 -0.5775 -0.0306
 4948W        W 9012   9.906   3.459  10.681  0.1244  0.2582 -0.0812
 4949W        W 9013   8.493  10.117   2.907  0.2822 -0.2342 -0.0879
 4950W        W 9014   1.238   1.577   7.796  0.0096 -0.2171  0.0988
 4951W        W 9015   1.292   6.359   8.660 -0.1961  0.0018 -0.1462
 4952W        W 9016   0.715   9.873  10.869 -0.1111  0.1912 -0.1650
 4953W        W 9017   9.012   8.208   9.590  0.0856 -0.1068 -0.0319
 4954W        W 9018   3.217   5.148   7.813  0.3550  0.0525  0.2244
 4955W        W 9019  10.463   0.737   6.840 -0.0073  0.0539  0.0174
 4956W        W 9020   1.549  10.681   0.007 -0.0332 -0.0764  0.1159
 4957W        W 9021   4.149   7.041   9.176  0.0004  0.0676  0.0287
 4958W        W 9022   9.866   3.989   0.678 -0.0500 -0.0235  0.2275
 4959W        W 9023   2.622  10.037  11.049 -0.1527  0.3941  0.1487
 4960W        W 9024  10.716   7.146  10.633  0.1286 -0.3154 -0.0306
 4961W        W 9025   2.528   8.757   1.585 -0.1548 -0.2873  0.0983
 4962W        W 9026   0.588   1.097   0.407 -0.0330  0.2411 -0.3496
 4963W        W 9027   5.694   3.977   9.846 -0.2985 -0.1857  0.1915
 4964W        W 9028   0.076   5.754  10.907 -0.0524  0.1760 -0.2684
 4965W        W 9029   8.260   0.526   7.195  0.2809  0.0589  0.1698
 4966W        W 9030   0.835   3.070   2.456  0.1572 -0.1727 -0.1514
 4967W        W 9031   1.473   2.225   2.822 -0.2270  0.2706 -0.0580
 4968W        W 9032   4.743   7.584   0.405  0.0830  0.1089 -0.2911
 4969W        W 9033  10.445   6.070   0.994  0.3132  0.1328  0.1084
 4970W        W 9034   7.932   6.403   8.921 -0.1105 -0.0559  0.0103
 4971W        W 9035   9.214   5.592   1.961  0.5313  0.2654 -0.0965
 4972W        W 9036  10.102   0.108   8.355 -0.0602  0.1772 -0.1976
 4973W        W 9037   3.353   4.430   8.336 -0.2858  0.0906 -0.3119
 4974W        W 9038   7.228   9.073  10.366  0.2623 -0.1389  0.0538
 4975W        W 9039   4.625   9.833   0.433 -0.2339  0.1045  0.1422
 4976W        W 9040   1.777   8.160   0.604 -0.0678  0.0230 -0.3832
 4977W        W 9041   8.823  10.429   3.144  0.0664 -0.0492  0.0952
 4978W        W 9042   1.412   7.689   0.332 -0.0601  0.0243  0.4228
 4979W        W 9043  10.728   8.348   7.757  0.1362  0.4169  0.1411
 4980W        W 9044   3.123   6.312   3.716 -0.0819  0.0400 -0.0380
 4981W        W 9045   0.834   9.431   1.679  0.1136 -0.0640  0.1265
 4982W        W 9046   0.584   1.504  10.393  0.1623 -0.0623  0.0988
 4983W        W 9047   4.841   3.801  10.099  0.0846  0.0133 -0.0925
 4984W        W 9048   3.398   0.761   1.760 -0.1893 -0.1264 -0.2609
 4985W        W 9049   5.759   5.759   8.817  0.1986  0.1572 -0.0486
 4986W        W 9050   7.878   4.069   9.462 -0.0705  0.1883 -0.1707
 4987W        W 9051   2.277   8.039   2.600  0.2432  0.3869 -0.1205
 4988W        W 9052   8.138  10.093   0.926 -0.0767 -0.0128 -0.0680
 4989W        W 9053   2.331   9.680   8.568  0.1833  0.1236  0.0506
 4990W        W 9054   4.816   6.603   0.569 -0.0270  0.1173  0.0964
 4991W        W 9055   3.118   1.615   9.093 -0.0628 -0.0113 -0.0119
 4992W        W 9056   8.869   2.363   8.212  0.0724  0.1811 -0.3067
 4993W        W 9057   4.016   0.627   9.544  0.2210 -0.0736  0.3921
 4994W        W 9058   5.466   8.661  10.098 -0.0167 -0.2587  0.0665
 4995W        W 9059   7.543   6.599   7.891 -0.1175  0.1406 -0.1219
 4996W        W 9060   2.633   2.106   2.377  0.4258 -0.0340 -0.0901
 4997W        W 9061   6.672   9.121   9.360  0.2037 -0.0630  0.3655
 4998W        W 9062   8.333   6.340   1.005  0.0217 -0.1937  0.2077
 4999W        W 9063   6.552   5.339   2.814  0.2291  0.0581  0.2515
 5000W        W 9064   3.542   8.855   9.821 -0.1582 -0.2203 -0.1633
 5001W        W 9065   2.927   5.658   0.335 -0.4253  0.0376 -0.3075
 5002W        W 9066   3.367   5.678   0.943 -0.2583  0.1151  0.0753
 5003W        W 9067   5.144   0.560  10.838 -0.0762  0.0086 -0.0268
 5004W        W 9068   8.801   6.604   2.937 -0.0831 -0.1598  0.2566
 5005W        W 9069   9.611   6.738   0.889 -0.4254 -0.0373  0.0574
 5006W        W 9070   8.777   4.703   3.331  0.0268  0.0731 -0.1929
 5007W        W 9071   2.192  10.644  10.143  0.1839 -0.3192  0.0473
 5008W        W 9072   5.565   2.728   1.678  0.1990  0.4351 -0.1339
 5009W        W 9073   7.322  10.486  10.695  0.3880  0.1138  0.0814
 5010W        W 9074   9.961   7.430   2.541 -0.0752  0.1731 -0.0152
 5011W        W 9075   0.058   9.780   9.805 -0.2750  0.2347  0.1252
 5012W        W 9076   1.625   2.923   1.762  0.3397  0.0045  0.1385
 5013W        W 9077   1.657   4.233   1.163 -0.1348  0.1494  0.1664
 5014W        W 9078   4.808   1.752  11.053 -0.2641  0.0060 -0.1956
 5015W        W 9079   7.702   9.914   1.175  0.1415 -0.1520  0.0154
 5016W        W 9080   0.004   3.024   9.818 -0.2163  0.1271 -0.0936
 5017W        W 9081   9.185   2.525   3.362 -0.0592  0.1093 -0.2747
 5018W        W 9082   6.518   2.736   9.027  0.0863 -0.0154 -0.3110
 5019W        W 9083   8.504   7.860   2.461 -0.0189 -0.3222  0.1176
 5020W        W 9084   0.787   4.206   0.505  0.0676  0.1139  0.1958
 5021W        W 9085   1.576   9.594   8.139  0.1545 -0.1822 -0.0280
 5022W        W 9086   6.464   3.029   7.517  0.0175 -0.1936 -0.1146
 5023W        W 9087  10.234   9.423   3.379  0.2535  0.1416 -0.0534
 5024W        W 9088   8.727   4.970   0.211 -0.1378  0.1448 -0.0957
 5025W        W 9089   4.012   3.555  10.599 -0.3013 -0.3875  0.1762
 5026W        W 9090   7.388   1.031   0.449  0.3658  0.0869  0.2571
 5027W        W 9091   8.360  10.296   2.490  0.1057 -0.1240  0.0627
 5028W        W 9092   4.123   3.695   7.354  0.2047  0.0129 -0.0321
 5029W        W 9093   6.718   6.367   0.622  0.0539 -0.3131  0.1215
 5030W        W 9094   6.323   5.589   9.694 -0.0798 -0.0169  0.0057
 5031W        W 9095   7.087   7.058   2.826  0.1272 -0.0435  0.2342
 5032W        W 9096   9.725   4.315   1.585  0.0611 -0.0650  0.2234
 5033W        W 9097   5.194   4.481  11.152 -0.0018 -0.0980  0.1648
 5034W        W 9098   9.861   8.738   7.322 -0.1819  0.1144 -0.4050
 5035W        W 9099   3.311   3.629   9.768 -0.2152 -0.1600  0.1744
 5036W        W 9100   8.593   3.787   2.396 -0.1033  0.1364 -0.0778
 5037W        W 9101   4.357  10.358  10.638 -0.1934  0.2167 -0.0094
 5038W        W 9102   2.673   1.758  11.262 -0.0980 -0.3412 -0.0124
 5039W        W 9103  10.421   1.155  10.987  0.0224 -0.1137 -0.5155
 5040W        W 9104   3.194   0.223   2.883 -0.0332  0.0237  0.1007
 5041W        W 9105   1.557   1.287   2.618 -0.1234 -0.5029 -0.2911
 5042W        W 9106   5.825   3.138   2.714 -0.0578 -0.1815  0.2237
 5043W        W 9107   7.021   0.910  11.054 -0.0228 -0.1601 -0.0365
 5044W        W 9108   0.308   6.223   8.608  0.0049 -0.0456  0.1252
 5045W        W 9109   5.119   5.419   0.220 -0.3048 -0.1444  0.0156
 5046W        W 9110   4.256   8.580   2.887 -0.2331  0.0706  0.1425
 5047W        W 9111   4.003   3.083   8.718  0.0318 -0.0826  0.0961
 5048W        W 9112   3.255   4.127  10.287  0.1567  0.2023  0.2200
 5049W        W 9113   7.943   7.129   1.507  0.1718 -0.0586 -0.0471
 5050W        W 9114   8.494   8.560   7.112 -0.0053  0.0438 -0.1877
 5051W        W 9115   2.655   7.734   2.341  0.4098  0.0805 -0.2538
 5052W        W 9116   8.999   2.576   0.032 -0.1038 -0.2736  0.0508
 5053W        W 9117   9.340   3.941   1.518 -0.0794 -0.0952  0.0471
 5054W        W 9118   8.107   7.673   0.687  0.0271  0.1041 -0.1768
 5055W        W 9119   9.962   6.470   8.186 -0.1158 -0.0699 -0.0837
 5056W        W 9120   6.989   5.350   6.982  0.0263  0.0287 -0.1252
 5057W        W 9121   5.279   4.906   9.121 -0.0354  0.1156  0.1611
 5058W        W 9122   6.745   8.130   2.159 -0.0245  0.0760 -0.3042
 5059W        W 9123   9.156   7.374   0.894  0.1716  0.1791  0.0228
 5060W        W 9124   0.146   6.642   9.972  0.4777 -0.2229  0.0459
 5061W        W 9125  10.528   2.669   7.984 -0.1103  0.2010  0.0556
 5062W        W 9126   1.504   5.567   7.032 -0.1830  0.0015 -0.5174
 5063W        W 9127   8.279   4.610   2.430  0.0517  0.0856  0.0512
 5064W        W 9128   3.835  10.436   8.936 -0.2030  0.4064 -0.1288
 5065W        W 9129   8.186   7.668   9.853  0.0981 -0.2221  0.2830
 5066W        W 9130   7.669   5.064   1.731 -0.0004 -0.0061  0.3484
 5067W        W 9131   7.224   1.257   2.492  0.1037 -0.0360 -0.0226
 5068W        W 9132  10.406   9.366   2.478  0.1560  0.2853  0.2320
 5069W        W 9133   3.527   8.427   8.309 -0.3211 -0.3011 -0.1894
 5070W        W 9134   7.054  10.748   1.108  0.1165  0.2994  0.1595
 5071W        W 9135   8.228   0.533  10.613  0.0321  0.4654  0.2414
 5072W        W 9136   6.436   5.256   3.340  0.0938 -0.3193  0.0912
 5073W        W 9137   3.755   8.043   1.503 -0.0205  0.0089  0.2312
 5074W        W 9138   8.446   4.008   0.248 -0.1017  0.1578  0.1275
 5075W        W 9139   3.864   6.472   0.726  0.1051  0.1767 -0.0132
 5076W        W 9140   6.788   9.762   9.174  0.1486 -0.2200 -0.1829
 5077W        W 9141  10.150   9.028   1.147 -0.1026  0.0916  0.0426
 5078W        W 9142   1.062   5.817   6.773 -0.0266 -0.0767 -0.2126
 5079W        W 9143   1.226   6.154   0.598  0.0521  0.1542  0.1618
 5080W        W 9144   2.031   3.780   8.882 -0.1568  0.1458 -0.3360
 5081W        W 9145   7.708   2.182   1.481 -0.2513 -0.0713 -0.3630
 5082W        W 9146   6.315   9.916   0.452 -0.1786 -0.3605 -0.0060
 5083W        W 9147   3.570   4.877   0.642 -0.0188  0.1783 -0.1988
 5084W        W 9148   0.442   7.353   8.086 -0.2191  0.1622  0.1928
 5085W        W 9149   9.100  10.182   0.795 -0.2332  0.0053  0.0732
 5086W        W 9150   1.814   5.122  10.933 -0.2264 -0.3383  0.0140
 5087W        W 9151   6.307   2.121   3.147  0.1946 -0.0413 -0.2918
 5088W        W 9152   2.233  10.306  10.871 -0.1858 -0.0410 -0.0375
 5089W        W 9153   6.234   3.031   8.732 -0.3049 -0.1214 -0.1219
 5090W        W 9154   1.685   5.750  10.755  0.3170 -0.0770  0.1633
 5091W        W 9155   8.362   7.552  10.712 -0.0681 -0.2112  0.0510
 5092W        W 9156  10.726   9.930   8.783 -0.2773  0.2495  0.0918
 5093W        W 9157   9.807   8.136   2.025  0.0460  0.0468  0.4243
 5094W        W 9158   3.029   6.911   8.049 -0.0969  0.1880  0.0059
 5095W        W 9159   2.217   8.374   1.490 -0.1313  0.3913  0.1898
 5096W        W 9160   7.601   7.103   7.799 -0.1373  0.1119  0.1235
 5097W        W 9161   7.610   2.604   0.455 -0.0587  0.2827  0.1502
 5098W        W 9162  10.509   1.559   7.593 -0.1214 -0.0675  0.0332
 5099W        W 9163   3.480   2.166   3.550  0.0138  0.0117 -0.1535
 5100W        W 9164   8.831   5.149   3.614  0.1131  0.1877 -0.0184
 5101W        W 9165   0.158   0.603   7.622 -0.0561 -0.0653 -0.0112
 5102W        W 9166   8.437   9.738   2.152  0.2707  0.0083 -0.0356
 5103W        W 9167   8.823   4.516   8.265 -0.0881  0.2891  0.2939
 5104W        W 9168   9.164   9.352   9.134 -0.0441 -0.0805  0.0392
 5105W        W 9169   5.077   9.906   0.072 -0.0181  0.3520  0.3723
 5106W        W 9170   0.733   7.269   9.412  0.0290  0.1188  0.2036
 5107W        W 9171   8.935   9.223   9.703 -0.2549  0.0034  0.0076
 5108W        W 9172   0.909   2.872   8.145  0.2270 -0.1422  0.0211
 5109W        W 9173   8.181   5.042   8.502  0.6570  0.2302 -0.1478
 5110W        W 9174  10.116   2.464   8.691  0.0839 -0.0770  0.2609
 5111W        W 9175   2.968   8.129   2.148  0.3557  0.0379 -0.2818
 5112W        W 9176   0.823   7.264  11.227 -0.0009 -0.0243  0.0894
 5113W        W 9177   4.778  10.006  10.345 -0.0507 -0.2218 -0.3704
 5114W        W 9178   2.386   0.641   8.576  0.1132  0.2042  0.2729
 5115W        W 9179   8.616   1.689   9.924 -0.0570 -0.2137  0.1234
 5116W        W 9180   4.153   7.715   6.869  0.1367  0.2304  0.2397
 5117W        W 9181   7.367   1.236   8.771  0.2224  0.1148 -0.3354
 5118W        W 9182   7.643  10.445   9.758 -0.0663  0.2315 -0.1373
 5119W        W 9183   0.698   0.282   2.400  0.0519 -0.0510  0.2441
 5120W        W 9184   3.676   5.055   9.666  0.1559 -0.3389  0.3655
 5121W        W 9185   0.843   8.456   2.543  0.0754  0.1844  0.3631
 5122W        W 9186   2.734   5.331   7.544 -0.1286  0.0486 -0.0205
 5123W        W 9187   4.788   4.688   0.037  0.4496  0.1034  0.0865
 5124W        W 9188   7.318   4.117   3.265  0.0417 -0.1067 -0.4187
 5125W        W 9189   3.295   0.841   2.320  0.0880  0.3658 -0.1739
 5126W        W 9190   8.666   0.346   8.600 -0.0830 -0.1138 -0.3804
 5127W        W 9191   6.779   9.818   0.164 -0.0827  0.0276 -0.4871
 5128W        W 9192   7.575   1.133   8.353 -0.3057  0.2484  0.1374
 5129W        W 9193   9.120   5.734   0.757  0.0843 -0.1006 -0.1756
 5130W        W 9194   8.068   9.538  10.736 -0.2397  0.1864  0.0696
 5131W        W 9195   9.697   1.679   8.121 -0.0392 -0.1713  0.0274
 5132W        W 9196   6.357   7.063   0.217 -0.0376  0.2032 -0.0432
 5133W        W 9197   4.608   3.512   2.535 -0.2331  0.3350  0.2854
 5134W        W 9198   3.326   6.726   2.254 -0.2170 -0.3168 -0.2759
 5135W        W 9199   0.245   7.950   7.706  0.0434  0.0276  0.1138
 5136W        W 9200  10.345   3.893   3.025  0.0470  0.0300 -0.1071
 5137W        W 9201   6.536   1.728   2.265 -0.3120  0.0579  0.0929
 5138W        W 9202   4.776   4.580   2.780 -0.0363 -0.2108  0.1102
 5139W        W 9203  10.245   5.709   7.576 -0.1791  0.1952  0.1625
 5140W        W 9204   2.852   3.216   0.506  0.1360  0.2489  0.1624
 5141W        W 9205   0.829   5.939  10.072 -0.2574  0.0817  0.1526
 5142W        W 9206   6.489   1.360   3.974 -0.0723  0.1885 -0.2764
 5143W        W 9207   6.740   7.950   8.501  0.2608 -0.1938  0.1349
 5144W        W 9208   7.254   1.974   0.749 -0.0693 -0.0192 -0.0302
 5145W        W 9209   6.079   1.093   9.855 -0.1152 -0.0968  0.1474
 5146W        W 9210   4.785   6.212   2.358  0.1162 -0.1321  0.0074
 5147W        W 9211   9.266   8.046   3.109  0.1430 -0.1465  0.0477
 5148W        W 9212   9.505   1.044  10.647  0.1126  0.3055  0.4267
 5149W        W 9213   8.461   2.656   7.370 -0.0764  0.1628  0.0727
 5150W        W 9214   6.457   1.521   8.451  0.1072 -0.0417  0.2756
 5151W        W 9215  10.513   9.848   3.384 -0.0860  0.0684 -0.0690
 5152W        W 9216   6.133   6.188   0.236  0.3059 -0.1848  0.1486
 5153W        W 9217   5.128   7.438   1.217  0.4231 -0.2988 -0.0413
 5154W        W 9218   8.340   6.245   9.176 -0.0786 -0.2458 -0.0352
 5155W        W 9219   7.429   3.905   7.970  0.1893 -0.2395  0.0524
 5156W        W 9220   8.274   0.419   9.232  0.0031 -0.1335 -0.1756
 5157W        W 9221   9.438   8.440  11.037 -0.2061 -0.0658  0.0829
 5158W        W 9222   6.624  10.721   2.661  0.0175 -0.4312  0.0857
 5159W        W 9223   0.277   0.338   2.630 -0.0903  0.1594 -0.0458
 5160W        W 9224   4.251   7.535   0.655  0.1126 -0.0888 -0.3207
 5161W        W 9225   0.670   3.463   3.408 -0.3769 -0.2789  0.1843
 5162W        W 9226   2.572   9.497   7.696  0.2346  0.0445 -0.2085
 5163W        W 9227   7.890   5.500   0.433 -0.1816  0.0152  0.1599
 5164W        W 9228   8.007   2.065   3.072 -0.3166 -0.1804 -0.0418
 5165W        W 9229   0.771   5.630   9.671  0.5461  0.0980 -0.1086
 5166W        W 9230   6.015   5.892   1.092  0.1976 -0.2286  0.0248
 5167W        W 9231   0.122  10.393   7.916 -0.2448 -0.1240  0.0063
 5168W        W 9232  10.499   5.488   7.976  0.0031  0.0555 -0.0239
 5169W        W 9233   9.561  10.761   9.146  0.2123  0.2534 -0.0891
 5170W        W 9234   7.806   6.879  10.888  0.4676 -0.0233  0.1186
 5171W        W 9235  10.078  10.100   2.678 -0.3888 -0.1520 -0.2079
 5172W        W 9236   6.554   7.268   2.504  0.2454 -0.0675  0.1852
 5173W        W 9237   8.872   2.018   2.247 -0.1476 -0.3296  0.3111
 5174W        W 9238   5.679   1.143   8.537  0.2676 -0.2213 -0.3478
 5175W        W 9239   2.737   2.348   1.166 -0.3976  0.1105  0.2767
 5176W        W 9240   4.507   4.796   0.413  0.1906  0.2947 -0.1923
 5177W        W 9241   3.860   4.318   8.427 -0.1248 -0.1934 -0.0643
 5178W        W 9242   7.315   5.588  10.143 -0.0590 -0.1130 -0.1097
 5179W        W 9243   6.584   3.268   8.333  0.3178  0.0822 -0.0294
 5180W        W 9244   1.749   9.085   1.640  0.1368  0.1063  0.0905
 5181W        W 9245   1.020   1.579   0.466 -0.0172 -0.0408 -0.0113
 5182W        W 9246   3.809   5.061   2.170  0.1854  0.0489  0.0095
 5183W        W 9247   6.924   2.526   2.032  0.0900 -0.0236 -0.1828
 5184W        W 9248   4.475   6.344   7.807  0.0471 -0.1178  0.1743
 5185W        W 9249   0.685   7.707   9.152 -0.1418 -0.0243 -0.1624
 5186W        W 9250   0.053  10.730   8.387 -0.0910 -0.0559  0.3384
 5187W        W 9251   7.330   1.423   7.550 -0.1075 -0.0609  0.0083
 5188W        W 9252   1.440   7.942   9.387 -0.0366  0.3940 -0.0584
 5189W        W 9253   5.560   5.939   1.346  0.1541 -0.2847 -0.1457
 5190W        W 9254  10.359   7.326   2.259 -0.1066 -0.0281 -0.1920
 5191W        W 9255   6.996   4.707  10.510  0.0164 -0.2441 -0.3085
 5192W        W 9256   2.515   4.502   7.645  0.1877  0.2108  0.3113
 5193W        W 9257   7.618   9.221   2.438 -0.0557 -0.0097 -0.1696
 5194W        W 9258   0.912   4.661   7.032  0.0934 -0.0581  0.1897
 5195W        W 9259   8.280   2.541   8.515  0.0279 -0.0977 -0.0388
 5196W        W 9260   5.993  10.289   8.867  0.0773  0.1560 -0.0801
 5197W        W 9261   0.085  10.117   0.074  0.3098  0.0444 -0.2362
 5198W        W 9262  10.055   1.773  10.303  0.1679  0.1537 -0.0205
 5199W        W 9263   6.690   4.294   0.097 -0.2733 -0.0851 -0.2269
 5200W        W 9264   5.208   0.012  10.119  0.0026  0.2099  0.2162
 5201W        W 9265   4.278   5.605   1.447  0.0677 -0.0558 -0.1818
 5202W        W 9266   6.284   6.339   2.387 -0.2194 -0.1562  0.1182
 5203W        W 9267   8.248   9.749   8.324  0.1396  0.0711 -0.0322
 5204W        W 9268   7.108   1.241   0.057  0.0119 -0.2504  0.2028
 5205W        W 9269   0.179   0.561  10.593 -0.2262 -0.4227  0.0549
 5206W        W 9270  10.023   7.968   0.215  0.0402 -0.1385  0.0696
 5207W        W 9271   5.808   5.884  11.288  0.0280  0.1630 -0.0171
 5208W        W 9272   0.022   3.502   9.932  0.2466 -0.2027 -0.1149
 5209W        W 9273   1.004   8.394   0.793  0.0411 -0.0509 -0.1241
 5210W        W 9274   2.973   2.875  10.560 -0.2084  0.0096  0.0482
 5211W        W 9275   9.274   9.836   8.238  0.1990 -0.0908 -0.0437
 5212W        W 9276   8.813   5.500   7.991  0.2398 -0.1223 -0.1810
 5213W        W 9277   5.365  10.247   2.061  0.0639 -0.0457 -0.3187
 5214W        W 9278   8.741   4.728   6.752  0.1603  0.0270  0.1853
 5215W        W 9279   4.499   8.198   1.141  0.1919 -0.2867 -0.1805
 5216W        W 9280   8.023   2.547   0.811 -0.0801 -0.0754  0.1527
 5217W        W 9281   6.412   0.975  10.278 -0.3162 -0.1834 -0.2784
 5218W        W 9282   8.759   4.491   7.728 -0.0867 -0.1231 -0.3147
 5219W        W 9283   3.315   4.488   7.530 -0.4065 -0.1015 -0.0569
 5220W        W 9284   6.856   2.949   2.979 -0.0212  0.0756  0.0915
 5221W        W 9285   4.986   8.907   0.529 -0.0963 -0.4098  0.2492
 5222W        W 9286   0.905   8.826  10.028 -0.0867  0.0161  0.1917
 5223W        W 9287   3.593   4.551   9.692 -0.1595 -0.0298  0.0992
 5224W        W 9288   6.586   0.469   8.468 -0.0376  0.1653 -0.1252
 5225W        W 9289   0.560   8.001   1.536  0.1825  0.2784  0.2886
 5226W        W 9290   6.737   7.923   9.952 -0.2003 -0.1128 -0.0992
 5227W        W 9291   9.459   4.621   7.800 -0.0694 -0.1118 -0.1766
 5228W        W 9292   5.787   1.978   4.033  0.1614  0.0112  0.1378
 5229W        W 9293   1.323   7.992   0.689  0.1708  0.0968  0.2326
 5230W        W 9294   5.755  10.604   9.295  0.0742  0.2380  0.3028
 5231W        W 9295   6.370   2.645  10.098 -0.1605  0.1318  0.0775
 5232W        W 9296   8.937   4.054   0.225 -0.0344 -0.1963  0.1138
 5233W        W 9297   5.980  10.593   8.432 -0.0173 -0.3845  0.1024
 5234W        W 9298   6.698   8.825   8.930  0.1648  0.1538  0.1896
 5235W        W 9299  10.024   4.803   2.329 -0.0307  0.1693 -0.3862
 5236W        W 9300   8.631   1.336   8.501 -0.0355  0.0230 -0.3244
 5237W        W 9301  10.477   5.878   8.890 -0.1067 -0.0793 -0.1193
 5238W        W 9302   7.563   3.939   1.040 -0.2994 -0.1034  0.0768
 5239W        W 9303   2.911  10.294   9.744  0.0400  0.1612  0.3387
 5240W        W 9304   0.471   4.677   8.871 -0.0564 -0.0877  0.1620
 5241W        W 9305   2.653   9.263  10.985 -0.2617 -0.1459 -0.0559
 5242W        W 9306   8.439   0.239   9.710  0.1211  0.0713 -0.1935
 5243W        W 9307   8.792   3.769   6.686 -0.2585 -0.1335 -0.1284
 5244W        W 9308   5.591   9.462  11.130  0.0381 -0.3136  0.1488
 5245W        W 9309  10.082   3.850   1.564  0.0364  0.1197  0.1373
 5246W        W 9310   9.793   6.673   9.161  0.3283  0.1689  0.1491
 5247W        W 9311   8.028   2.852   2.474 -0.0185  0.1247  0.0940
 5248W        W 9312   1.333   1.912   0.195 -0.1678  0.0249  0.0531
 5249W        W 9313   7.030   2.516   8.372  0.2300  0.3218 -0.2357
 5250W        W 9314   1.677  10.523   2.692 -0.1847 -0.2636 -0.2414
 5251W        W 9315   8.954   7.297  10.469 -0.0331  0.1090  0.0568
 5252W        W 9316   0.026   0.147   7.878  0.1758 -0.0574 -0.2558
 5253W        W 9317   9.311   9.294   2.234  0.1593 -0.1421 -0.4622
 5254W        W 9318   3.416   6.502  11.183  0.0256 -0.0268  0.0075
 5255W        W 9319   2.217   1.921   0.225 -0.1077 -0.1674 -0.4204
 5256W        W 9320   7.080   8.439   8.946 -0.1726  0.2012  0.1856
 5257W        W 9321   2.170   3.555   0.583 -0.0478  0.2333  0.1033
 5258W        W 9322   1.542   0.268   2.532 -0.1712 -0.0972 -0.1068
 5259W        W 9323   4.584   4.393   7.938  0.1416  0.3733 -0.0033
 5260W        W 9324   2.159   6.542   8.715  0.0777 -0.0095 -0.0878
 5261W        W 9325   0.833   5.009   0.292  0.2640 -0.0247 -0.1344
 5262W        W 9326   3.141   3.711   1.350 -0.0766  0.3194  0.0950
 5263W        W 9327   6.184   9.772   1.381 -0.2500  0.1198 -0.1721
 5264W        W 9328   0.902   6.537   1.996  0.0060 -0.2976  0.1363
 5265W        W 9329   7.719   3.139   2.141  0.0983 -0.3517 -0.1668
 5266W        W 9330   1.725   8.874  10.801 -0.1077 -0.0813 -0.3912
 5267W        W 9331   3.649   1.069   8.736 -0.0421  0.0466 -0.2945
 5268W        W 9332   2.596   1.498   1.544 -0.2846 -0.5323  0.0030
 5269W        W 9333   7.102   4.698   8.419  0.0844  0.0881 -0.1156
 5270W        W 9334   3.024   0.001   8.986 -0.1469  0.2271  0.1345
 5271W        W 9335   5.175   4.390   2.558  0.2654  0.2720  0.0011
 5272W        W 9336   8.936   9.743  11.283  0.1520 -0.2242 -0.2351
 5273W        W 9337   8.932   5.352   7.497  0.0942 -0.1615 -0.3112
 5274W        W 9338   5.863   4.027   2.055 -0.1521  0.1456  0.1793
 5275W        W 9339   3.961   7.163  10.077 -0.0427 -0.1612  0.1762
 5276W        W 9340   2.491   8.272   0.067  0.2343 -0.1330  0.3531
 5277W        W 9341   0.578   9.246   0.310  0.3392  0.2171  0.1542
 5278W        W 9342   9.386   0.883   9.330 -0.3020 -0.2363  0.2353
 5279W        W 9343   9.201   9.798   2.340  0.1397 -0.4017 -0.1724
 5280W        W 9344   9.294   3.063   0.662 -0.0380 -0.2931  0.0325
 5281W        W 9345   7.894   8.668   9.957  0.1359  0.3023 -0.1596
 5282W        W 9346   7.902   5.556   8.643  0.2290 -0.0473  0.3662
 5283W        W 9347   3.221   5.356   7.301 -0.1397 -0.0478  0.2405
 5284W        W 9348   8.703   6.880  10.370  0.0898 -0.0618  0.0161
 5285W        W 9349   9.451   5.246   1.289  0.1230 -0.0231 -0.1404
 5286W        W 9350   9.924   8.092   1.503  0.1342 -0.3865 -0.1255
 5287W        W 9351   7.911   9.606   0.801 -0.1718  0.0159 -0.1224
 5288W        W 9352   1.629   3.795   3.185  0.0057  0.1174 -0.1896
 5289W        W 9353   9.044   3.146  11.191 -0.0078  0.5002 -0.0991
 5290W        W 9354   8.972   2.631   2.080  0.0224 -0.0190 -0.1327
 5291W        W 9355   9.367   1.401   9.127  0.2164  0.4336  0.1219
 5292W        W 9356   3.941   8.846   1.103 -0.0862 -0.1397  0.0708
 5293W        W 9357   1.928   7.028  10.561  0.2159 -0.1424 -0.1390
 5294W        W 9358   6.466   2.665   2.273  0.0964 -0.2170 -0.0564
 5295W        W 9359   0.979  10.137   9.013  0.3120  0.0213  0.0888
 5296W        W 9360   5.272   8.364   7.827 -0.1356  0.1238 -0.0505
 5297W        W 9361   1.911   0.328  10.669  0.0198  0.4986 -0.0930
 5298W        W 9362   4.535   0.527   0.556 -0.0832 -0.0399 -0.0415
 5299W        W 9363   6.710   7.001   2.043 -0.2035 -0.1279 -0.1636
 5300W        W 9364   1.245   8.686   2.308 -0.0192  0.0964 -0.0370
 5301W        W 9365   2.291   4.585   8.584 -0.2600 -0.1656  0.2363
 5302W        W 9366   3.250   6.525   8.986 -0.0522  0.0896 -0.0145
 5303W        W 9367   8.291   6.376   2.973 -0.1179  0.0035 -0.1092
 5304W        W 9368   0.083   2.948   8.258 -0.2337 -0.0680 -0.1053
 5305W        W 9369   9.532   6.606   1.739 -0.1343  0.0733  0.2159
 5306W        W 9370   8.759   8.066   9.206 -0.2314 -0.1620 -0.0921
 5307W        W 9371   5.732   6.391   9.654  0.0258 -0.0091  0.2125
 5308W        W 9372   6.185   9.304   1.222 -0.0411 -0.0775  0.1323
 5309W        W 9373   7.676   0.546   0.461 -0.1574  0.1293 -0.3887
 5310W        W 9374   8.105   5.542   0.889  0.2689  0.0408 -0.1002
 5311W        W 9375   6.071   2.179  10.175 -0.0970  0.0912  0.4196
 5312W        W 9376   2.792   3.429   1.669 -0.1381  0.0872  0.1206
 5313W        W 9377  10.714   0.060   9.147 -0.1006 -0.0429  0.0175
 5314W        W 9378   3.646   2.900   8.318  0.0143  0.2196 -0.2281
 5315W        W 9379   7.137   6.508   9.349 -0.3556  0.3238 -0.2647
 5316W        W 9380   9.798   5.446   7.525 -0.0430 -0.0249  0.2223
 5317W        W 9381   4.149   6.850  10.569  0.0369 -0.2127  0.2768
 5318W        W 9382   2.970   4.650   0.858 -0.0064 -0.1956  0.0789
 5319W        W 9383   3.975   2.029  10.447 -0.0505  0.0428 -0.0153
 5320W        W 9384  10.418   4.720   0.012 -0.0587  0.0332 -0.2980
 5321W        W 9385   5.297   7.382   8.265 -0.0391  0.3249 -0.0014
 5322W        W 9386   3.787   2.389   2.047  0.1154 -0.1876 -0.0391
 5323W        W 9387   5.658   5.696   8.265  0.0456 -0.1225  0.0427
 5324W        W 9388   0.691   1.479   8.998 -0.1747  0.0469 -0.0985
 5325W        W 9389   5.263   3.721   1.306 -0.2365  0.0345 -0.1135
 5326W        W 9390   3.399   7.256   7.960  0.2307 -0.3401  0.3405
 5327W        W 9391   6.752   8.417   0.036 -0.2166 -0.1396  0.2009
 5328W        W 9392   1.671   1.293   1.715 -0.0742 -0.0746 -0.4510
 5329W        W 9393   2.665   4.019   7.900 -0.0063  0.0364  0.2529
 5330W        W 9394   4.293   4.665   1.321 -0.0188 -0.0621 -0.0431
 5331W        W 9395   8.542   1.728  10.464 -0.5101  0.0925  0.0450
 5332W        W 9396   2.957   6.930   9.734 -0.0250 -0.0471 -0.0562
 5333W        W 9397   0.873   1.762   8.592  0.1620  0.1015  0.1346
 5334W        W 9398   8.380   2.895   1.086  0.1866  0.1346  0.0094
 5335W        W 9399   7.916   7.501   9.423 -0.1234  0.3247  0.2100
 5336W        W 9400   1.230   6.739   1.601 -0.0823  0.0140 -0.0324
 5337W        W 9401   8.012   2.920  10.347 -0.2224  0.1913  0.0638
 5338W        W 9402   7.770   6.396   9.416  0.0127  0.0805  0.1259
 5339W        W 9403   9.354   1.477  10.876  0.1623  0.0401 -0.1794
 5340W        W 9404   3.970   4.520   0.502  0.0036 -0.1521  0.3520
 5341W        W 9405   8.158   4.234   0.648  0.1754  0.0019 -0.0333
 5342W        W 9406  10.274   7.655   9.392 -0.0161 -0.1645  0.0553
 5343W        W 9407   6.289   0.802   2.244  0.0455 -0.1042 -0.1960
 5344W        W 9408   8.050   0.145   3.165  0.2825 -0.2908  0.2002
 5345W        W 9409   2.456   0.978  11.226  0.0911 -0.2879 -0.1703
 5346W        W 9410   4.311   6.648   0.391  0.1632 -0.1758  0.0367
 5347W        W 9411   8.247   8.317   1.036 -0.3285  0.0164  0.2703
 5348W        W 9412   0.396   9.860   0.836  0.2303 -0.4695  0.2466
 5349W        W 9413   2.261   8.267   7.511 -0.0366  0.1407 -0.2111
 5350W        W 9414   7.643   2.718  10.766 -0.3806 -0.0524  0.2060
 5351W        W 9415   2.445   5.837   2.727 -0.1088  0.0060 -0.2853
 5352W        W 9416   4.204   2.315   1.795 -0.0805  0.0219 -0.0154
 5353W        W 9417   1.649   6.089   7.837  0.0813  0.2219  0.0332
 5354W        W 9418   5.356   7.361   0.329  0.0341  0.2061 -0.0904
 5355W        W 9419   1.668   9.630   2.722  0.1582  0.0669  0.1625
 5356W        W 9420   1.843   9.090   7.813  0.0251  0.0503 -0.1026
 5357W        W 9421   3.556  10.300  10.852  0.1931  0.0708  0.2215
 5358W        W 9422   9.499   8.559   9.426 -0.0013  0.1797 -0.2531
 5359W        W 9423   6.161   5.119   9.275 -0.0753 -0.1933  0.1308
 5360W        W 9424   8.729   3.649   1.826  0.2245 -0.1236  0.0471
 5361W        W 9425   7.651   1.217   2.765 -0.0452 -0.3791 -0.3284
 5362W        W 9426   8.856   8.711   9.567 -0.0976  0.0985 -0.1124
 5363W        W 9427   8.235   3.545  10.745 -0.1538 -0.1493  0.0928
 5364W        W 9428   4.787   6.164   1.545  0.1092  0.0339 -0.2418
 5365W        W 9429   6.965   5.695   8.530  0.0571  0.0268 -0.0243
 5366W        W 9430   1.723   2.709  10.137 -0.0233 -0.1710 -0.2363
 5367W        W 9431   3.134   2.927   8.431 -0.3785  0.0122  0.1042
 5368W        W 9432   3.959   8.100   2.124  0.0182 -0.1446  0.0485
 5369W        W 9433   4.192  10.071   7.202 -0.1714 -0.1724 -0.1278
 5370W        W 9434   2.088   9.733   2.438 -0.1036 -0.0632 -0.1732
 5371W        W 9435   0.123   4.067   7.858  0.0522  0.2093 -0.1240
 5372W        W 9436  10.669   5.896   9.897  0.0142 -0.1934 -0.2709
 5373W        W 9437   9.112   9.547  10.153  0.0668 -0.0881 -0.0848
 5374W        W 9438   6.245   4.848   8.048 -0.2838  0.4870  0.0815
 5375W        W 9439   0.676   7.443  10.351 -0.1331  0.0932  0.1063
 5376W        W 9440   7.403   5.720   8.740  0.1564 -0.0405 -0.0101
 5377W        W 9441   9.221   9.195   7.888  0.0527  0.1145 -0.2918
 5378W        W 9442   9.833   9.353   3.059  0.0531 -0.4910 -0.0592
 5379W        W 9443   2.290   2.072   0.787  0.2449  0.0670  0.0789
 5380W        W 9444   5.763   0.899  10.185  0.2595  0.1152  0.0398
 5381W        W 9445   8.592   2.412   1.896 -0.0547 -0.0946 -0.0707
 5382W        W 9446  10.479   3.605   3.428  0.0285 -0.0668  0.0255
 5383W        W 9447   8.090   1.745   9.731  0.0561 -0.0259  0.3306
 5384W        W 9448   5.952   0.203   9.497 -0.0562  0.0761 -0.1310
 5385W        W 9449   7.359   2.604   4.020  0.5243 -0.0845  0.0931
 5386W        W 9450  10.026   0.419   1.445 -0.2004 -0.1200 -0.1463
 5387W        W 9451   5.797   5.744   2.553  0.4408  0.0475  0.2462
 5388W        W 9452   8.324   1.665   8.713 -0.0105  0.2487  0.0952
 5389W        W 9453   4.147   5.149   7.494 -0.1461  0.0318 -0.1012
 5390W        W 9454   1.870   3.592  11.226  0.2319  0.2621  0.2009
 5391W        W 9455   7.098   5.789   9.129 -0.0240  0.3245  0.0230
 5392W        W 9456  10.304   2.464   1.547  0.1622 -0.1234  0.0914
 5393W        W 9457   6.667   7.449   7.713  0.3664 -0.0001  0.1729
 5394W        W 9458   1.829   1.602  10.568  0.0288 -0.3240  0.0665
 5395W        W 9459   5.636   6.674   8.384  0.4893  0.0885 -0.1224
 5396W        W 9460   4.738   5.331   0.612  0.1312 -0.1817  0.0187
 5397W        W 9461   8.386   8.518   8.089 -0.2896  0.2148  0.0822
 5398W        W 9462   3.471   4.740   7.907  0.0453 -0.2005  0.1196
 5399W        W 9463   7.277   6.638  11.136 -0.1151 -0.1521 -0.0628
 5400W        W 9464   2.272   5.398   0.601 -0.1576  0.0793  0.3667
 5401W        W 9465   7.053   1.632  10.345  0.2981  0.0765 -0.2810
 5402W        W 9466   0.774  10.495   1.685  0.3694  0.0216  0.2119
 5403W        W 9467   5.610   9.569   8.468  0.2548 -0.0986  0.1779
 5404W        W 9468   1.176   0.186   9.677 -0.1621 -0.0087 -0.1188
 5405W        W 9469   1.705   3.301  10.377  0.0712 -0.1993  0.0062
 5406W        W 9470   1.200   7.734   7.934  0.0771 -0.1035  0.0643
 5407W        W 9471   3.325   0.811   9.694 -0.0964 -0.1421 -0.3795
 5408W        W 9472   2.779   9.025  10.095 -0.2113 -0.0969  0.2317
 5409W        W 9473   9.446   9.535   1.168  0.2133  0.1085 -0.2517
 5410W        W 9474   4.944   3.342   1.180 -0.3331  0.3708 -0.0462
 5411W        W 9475  10.668   0.221   0.882 -0.1268 -0.2551 -0.1984
 5412W        W 9476   0.792   5.729   0.775 -0.2433 -0.0784  0.0314
 5413W        W 9477   4.479   5.477  10.770 -0.1725  0.3068 -0.0315
 5414W        W 9478   0.793   6.910   2.716  0.0463 -0.2013  0.1501
 5415W        W 9479   3.556   4.018  11.279 -0.2087  0.2402 -0.0217
 5416W        W 9480   6.137   4.991   2.092  0.0460 -0.3271 -0.0639
 5417W        W 9481  10.010   1.439   2.716  0.1727 -0.1889 -0.3146
 5418W        W 9482   6.196   1.626   0.036  0.2655 -0.1054 -0.1588
 5419W        W 9483   0.074   4.287   0.978  0.4224  0.2603  0.0475
 5420W        W 9484   9.679   8.690  10.211 -0.0193  0.0284 -0.2246
 5421W        W 9485   4.816   2.839   9.763 -0.1511  0.1507 -0.0078
 5422W        W 9486   1.091   0.803   2.020 -0.0742  0.3219 -0.0699
 5423W        W 9487   0.454   7.418   8.605 -0.0507 -0.1034 -0.0881
 5424W        W 9488   8.062   7.956   2.147 -0.1255  0.1844  0.1241
 5425W        W 9489   5.980   7.867   9.488  0.1260 -0.1651  0.0812
 5426W        W 9490  10.706   3.809   8.239  0.0297  0.0725 -0.0512
 5427W        W 9491   1.844   5.985  10.311 -0.4544 -0.1924 -0.0107
 5428W        W 9492   7.691   7.974  11.146  0.2646  0.1360  0.0212
 5429W        W 9493   9.386   4.280   0.063  0.3163 -0.1554 -0.1665
 5430W        W 9494  10.265   8.556   0.985  0.1793  0.1117 -0.0777
 5431W        W 9495   3.485   9.076   0.073 -0.3787  0.2284  0.1778
 5432W        W 9496   1.204   7.680   9.032  0.1449 -0.1577 -0.2264
 5433W        W 9497   8.844   8.289   3.207 -0.1237 -0.0410 -0.3175
 5434W        W 9498   9.978   6.954   7.230  0.2661 -0.0204  0.1926
 5435W        W 9499   9.648   1.345   1.953  0.2025  0.3494 -0.3430
 5436W        W 9500   6.683   5.847   0.130 -0.1247  0.2958  0.0443
 5437W        W 9501   2.921   5.106   9.882  0.1710 -0.1123 -0.0684
 5438W        W 9502   5.928   4.373   3.529 -0.1499 -0.1232  0.0416
 5439W        W 9503   6.290   8.204   9.756 -0.0552  0.1026  0.4429
 5440W        W 9504   0.874   1.949   9.127 -0.1608  0.0537 -0.0037
 5441W        W 9505   1.296   2.414   0.285  0.0750  0.1729  0.6154
 5442W        W 9506   6.415   1.198   1.858 -0.1003  0.0832  0.0183
 5443W        W 9507   6.883   7.821   1.806 -0.3500  0.0500  0.0211
 5444W        W 9508   7.704   8.091   1.427 -0.0856 -0.0844  0.2377
 5445W        W 9509   3.140   2.782   2.864 -0.1061 -0.2125  0.3250
 5446W        W 9510   4.200   8.450   9.946 -0.3405 -0.3506 -0.1451
 5447W        W 9511   9.225   4.894   0.355 -0.0696  0.3654  0.0463
 5448W        W 9512   0.917   8.963   9.483 -0.1031  0.0826  0.2553
 5449W        W 9513   0.794   6.531  10.678 -0.1715 -0.2491  0.0714
 5450W        W 9514   4.830   5.513   8.566  0.0362 -0.1281 -0.2026
 5451W        W 9515   9.372   9.126  10.772  0.0304  0.0295 -0.0193
 5452W        W 9516   7.581   8.504   0.711  0.1014 -0.0544  0.0664
 5453W        W 9517   4.398   2.095   1.307  0.1042  0.2070  0.0512
 5454W        W 9518   0.085   5.593   1.965  0.0387  0.0072  0.1453
 5455W        W 9519  10.729   8.947  10.192  0.0027 -0.1484 -0.2350
 5456W        W 9520   0.927   2.000   0.746  0.1644  0.1073  0.4791
 5457W        W 9521   6.844   3.329   0.507  0.1042  0.2417  0.4978
 5458W        W 9522   9.742   3.536  10.177 -0.0107  0.2996 -0.2017
 5459W        W 9523   3.876   0.033   0.105 -0.0296  0.2115  0.1101
 5460W        W 9524  10.560   2.040  10.561 -0.2841 -0.1469  0.0251
 5461W        W 9525   8.873   3.581   8.086 -0.1782 -0.1508  0.0271
 5462W        W 9526   2.019   9.838   8.187  0.1414  0.2377  0.1157
 5463W        W 9527   4.470   3.365   1.408  0.1365  0.0781  0.2642
 5464W        W 9528  10.546   3.760   2.554 -0.2763  0.4774 -0.2118
 5465W        W 9529   9.282   1.779   0.618  0.0536  0.0550  0.0490
 5466W        W 9530   9.379   5.293   0.653 -0.1903  0.0189 -0.0525
 5467W        W 9531  10.753   2.376   8.803  0.0598 -0.0013  0.3421
 5468W        W 9532   6.525   9.793   7.533  0.3199  0.1093 -0.0145
 5469W        W 9533   0.839   7.232   2.235 -0.1612  0.1285 -0.0989
 5470W        W 9534   4.484   9.478   9.429 -0.0523  0.1606 -0.3470
 5471W        W 9535   4.672   5.495   1.102  0.1836 -0.0184 -0.0187
 5472W        W 9536   8.684   7.658   8.399 -0.0335  0.1291  0.2566
 5473W        W 9537   3.980   9.099  11.137 -0.0964  0.1274  0.1268
 5474W        W 9538   8.334   2.118   0.723  0.1338  0.0142  0.0988
 5475W        W 9539   3.415   9.192   0.594 -0.0030 -0.0453 -0.1754
 5476W        W 9540   4.426   4.461   2.327  0.2437  0.0468 -0.1063
 5477W        W 9541   6.249   2.302   8.867  0.0602 -0.2565 -0.2787
 5478W        W 9542   4.715   9.521  10.683  0.4238  0.1438 -0.4166
 5479W        W 9543   9.732   9.442   7.987  0.1152 -0.1296 -0.0868
 5480W        W 9544   9.708   7.447   7.861 -0.0018  0.1615 -0.2200
 5481W        W 9545   6.153   6.842   0.861 -0.2827 -0.2968 -0.1040
 5482W        W 9546   3.383   2.945   2.377  0.1183 -0.0211 -0.3917
 5483W        W 9547   3.804   6.637   9.177  0.0466 -0.2139 -0.0264
 5484W        W 9548   2.156   7.494   7.781  0.2578 -0.1442  0.0630
 5485W        W 9549   5.928   8.846  10.263 -0.2126 -0.1676 -0.1932
 5486W        W 9550   2.964   4.853   2.530  0.0956 -0.1449  0.0215
 5487W        W 9551  10.186   7.482   7.971 -0.1479  0.0383  0.0450
 5488W        W 9552   8.048   0.927  10.906  0.0473  0.1495 -0.3598
 5489W        W 9553   2.383   1.830   7.683 -0.1730 -0.1411 -0.0277
 5490W        W 9554   1.665   0.873   1.393 -0.0212 -0.0997 -0.1519
 5491W        W 9555   3.297   3.618   1.861 -0.1176 -0.0126 -0.0969
 5492W        W 9556   6.488   5.519   8.492  0.0998  0.0652  0.0847
 5493W        W 9557   5.646  10.098   9.219  0.1845 -0.0621  0.2312
 5494W        W 9558   1.797   2.411   9.570  0.1933 -0.1551  0.3273
 5495W        W 9559   7.728   8.962   0.874  0.0451 -0.0044  0.0038
 5496W        W 9560   6.849   5.613   2.017 -0.2409  0.3502 -0.1792
 5497W        W 9561   1.242   7.304   9.485 -0.3085  0.3440 -0.0007
 5498W        W 9562   0.642   3.276   0.203  0.0395 -0.0533 -0.3324
 5499W        W 9563   3.190   9.022   2.108 -0.3359 -0.0237 -0.0647
 5500W        W 9564   5.445   0.947   8.963  0.0462 -0.1228 -0.3904
 5501W        W 9565  10.648   2.044   9.429  0.1541 -0.0406  0.0102
 5502W        W 9566   9.001   3.560   9.709  0.1174 -0.0282 -0.0386
 5503W        W 9567   3.738   0.552   9.934  0.0852 -0.1877  0.4728
 5504W        W 9568   9.561   0.447   1.098 -0.1073  0.2718  0.1486
 5505W        W 9569   2.417   7.889   1.462 -0.1488  0.1650 -0.0126
 5506W        W 9570   5.133   0.874   8.043  0.2765 -0.1474 -0.0288
 5507W        W 9571   8.891   9.524   2.038 -0.0653 -0.0692 -0.0640
 5508W        W 9572   1.102  10.222   8.120 -0.0160  0.0358 -0.0806
 5509W        W 9573   4.998  10.667   8.089 -0.0950  0.2644  0.0526
 5510W        W 9574   3.337   8.228   2.675  0.1562 -0.3233 -0.1830
 5511W        W 9575   7.849   0.115   0.791 -0.3858 -0.2129  0.1338
 5512W        W 9576   8.211   0.446   2.701  0.1769  0.0633  0.1246
 5513W        W 9577   2.389   0.765   1.534 -0.2122 -0.1845  0.0598
 5514W        W 9578   0.732   8.760   0.984 -0.0217 -0.2209 -0.2098
 5515W        W 9579   1.984   3.656   1.906  0.2982 -0.4185 -0.5002
 5516W        W 9580   5.975   0.029  11.227  0.2564  0.1656  0.0304
 5517W        W 9581   1.927   2.024   2.925 -0.1120  0.2141  0.0408
 5518W        W 9582   2.495   9.031   0.140  0.1779 -0.2142  0.2164
 5519W        W 9583   3.398   3.042  10.882 -0.5781  0.2855 -0.3728
 5520W        W 9584   3.309   6.051   0.077  0.1566 -0.2316  0.1428
 5521W        W 9585   5.850   2.520   9.764  0.2270 -0.1977  0.0483
 5522W        W 9586   8.764   7.765  10.372 -0.3390 -0.2343 -0.1071
 5523W        W 9587   0.534   0.891  11.250 -0.1198 -0.1076  0.0404
 5524W        W 9588   8.788   7.107   8.238  0.1732  0.1606 -0.2921
 5525W        W 9589   0.058  10.241   3.305 -0.0569 -0.0942 -0.1058
 5526W        W 9590   5.031  10.082   2.662 -0.2270  0.2839  0.2568
 5527W        W 9591   9.112   8.131   1.361 -0.2607  0.0536 -0.0036
 5528W        W 9592  10.124   5.725   8.203  0.0367  0.1298  0.0583
 5529W        W 9593   5.365   7.768  10.246  0.1559 -0.0733 -0.3533
 5530W        W 9594   7.171   6.492   1.510  0.0204 -0.1509 -0.1499
 5531W        W 9595   0.326   5.099   9.084  0.0517 -0.0304 -0.1686
 5532W        W 9596   4.611   6.058  11.097 -0.2278  0.3581 -0.0202
 5533W        W 9597   5.302   6.112   8.203 -0.1067  0.1609  0.1029
 5534W        W 9598   5.844   4.622   8.373 -0.0312  0.2022  0.1064
 5535W        W 9599   7.589   5.638  10.853 -0.1737 -0.0504 -0.0376
 5536W        W 9600   5.136   6.239   1.932 -0.0807 -0.3403  0.0439
 5537W        W 9601   0.224   1.555   7.718 -0.0312 -0.0049 -0.3708
 5538W        W 9602   1.959   1.644   9.963 -0.1059  0.0875  0.0281
 5539W        W 9603   2.160  10.064   3.294 -0.1178 -0.0617 -0.1992
 5540W        W 9604   8.636   8.109  10.973  0.3577  0.2478 -0.0924
 5541W        W 9605   0.087   6.119   1.801 -0.0978  0.1580  0.0982
 5542W        W 9606   2.672   1.561   8.947  0.1151 -0.0818 -0.0444
 5543W        W 9607   6.093   9.272   3.011 -0.1040  0.1934  0.0674
 5544W        W 9608   4.622   7.440   9.867  0.2739 -0.2382  0.0090
 5545W        W 9609   6.585   0.236   3.074  0.1009 -0.2443  0.1238
 5546W        W 9610   5.670  10.102   7.525 -0.2193  0.0788 -0.2947
 5547W        W 9611   2.311   9.336   9.460  0.3180  0.2291 -0.1656
 5548W        W 9612   7.466   9.407   1.015  0.1118  0.1908  0.0649
 5549W        W 9613   9.668   7.878  10.110 -0.1567 -0.0585  0.3381
 5550W        W 9614   5.479   6.214  10.489  0.0139 -0.0746 -0.0109
 5551W        W 9615   3.686   8.175   7.801  0.3354  0.5067  0.2352
 5552W        W 9616   2.992   4.477   7.899 -0.0910 -0.1779 -0.5131
 5553W        W 9617   1.639   6.447   7.365  0.0156  0.0749 -0.3924
 5554W        W 9618   4.990   5.720   1.611 -0.0812 -0.2586 -0.0257
 5555W        W 9619   3.336   6.065  10.800 -0.2474 -0.1471 -0.0706
 5556W        W 9620  10.014   5.572   2.951  0.0775  0.0850  0.0708
 5557W        W 9621   7.088   9.533   8.452  0.0310 -0.0158  0.1964
 5558W        W 9622   2.364   4.094   1.804 -0.0292 -0.2115  0.0636
 5559W        W 9623   5.773   6.346   7.697 -0.3711 -0.0516  0.0964
 5560W        W 9624   2.233   2.586   9.760  0.2862 -0.2124  0.1809
 5561W        W 9625   2.903   8.313  11.016 -0.1426  0.1170  0.0598
 5562W        W 9626   4.962   7.867   9.963  0.0299  0.2726  0.0777
 5563W        W 9627   2.666   9.068   7.423  0.2759 -0.0166 -0.2813
 5564W        W 9628   4.239   5.359   0.469  0.0397 -0.1980  0.2545
 5565W        W 9629   3.727   1.576   9.759  0.1102 -0.5544  0.0388
 5566W        W 9630   3.845   8.324   9.059  0.4187  0.0373  0.0169
 5567W        W 9631  10.218   4.779   7.804  0.0718  0.1777  0.2548
 5568W        W 9632   3.603   8.508   1.315 -0.1102  0.1637  0.4600
 5569W        W 9633   3.222   8.348   7.916 -0.1375  0.2217 -0.1461
 5570W        W 9634   8.125  10.362   9.634 -0.0489 -0.0241  0.1224
 5571W        W 9635   6.148   0.309   8.512  0.0045  0.2318  0.1866
 5572W        W 9636   8.952   5.275   1.008  0.1162  0.2286 -0.0993
 5573W        W 9637   0.563   1.511   0.679 -0.1173 -0.0434 -0.0732
 5574W        W 9638   2.609   4.915   8.935 -0.0030  0.2024 -0.1189
 5575W        W 9639   3.488   9.939   2.502 -0.0141  0.3740  0.0938
 5576W        W 9640   8.391  10.017  10.769  0.1690  0.2885 -0.4942
 5577W        W 9641   2.067   7.789   0.376  0.6441  0.1290 -0.3319
 5578W        W 9642   7.853   5.556   1.536 -0.0346  0.0243  0.0389
 5579W        W 9643   1.938   0.865  11.227 -0.2451 -0.1557 -0.1852
 5580W        W 9644   7.898  10.205  10.640  0.1515  0.1251  0.0244
 5581W        W 9645   6.566   5.486  10.668  0.1589 -0.0041  0.2914
 5582W        W 9646   7.593   2.373   3.171  0.0890 -0.2159 -0.0228
 5583W        W 9647   8.835   8.389   0.999  0.2418 -0.1905 -0.1785
 5584W        W 9648  10.366   7.490   9.859 -0.0360  0.0784  0.5517
 5585W        W 9649   8.285   9.751   7.718  0.3488  0.0150 -0.3644
 5586W        W 9650   2.692   2.670   7.939 -0.1519 -0.3176  0.2152
 5587W        W 9651  10.488  10.357  11.025  0.1259 -0.0403 -0.1449
 5588W        W 9652   5.469   1.616   3.883  0.1735 -0.1091 -0.0761
 5589W        W 9653   5.933   8.885   8.832  0.0673  0.1828 -0.1946
 5590W        W 9654   9.708   5.702   7.929 -0.1109  0.5322 -0.1931
 5591W        W 9655   7.868   9.395   8.849  0.0386 -0.1672  0.1091
 5592W        W 9656   8.559   2.834   2.272 -0.0360  0.1413 -0.0227
 5593W        W 9657   4.785   4.359   1.583  0.3301  0.0663 -0.1397
 5594W        W 9658   0.115   3.425   8.552 -0.2267  0.1781  0.1025
 5595W        W 9659   2.477   4.664   2.505  0.0604  0.0622  0.0241
 5596W        W 9660   4.948   4.888   9.884  0.0640  0.1729  0.3607
 5597W        W 9661   1.304   5.382   3.403  0.0973 -0.0588  0.2635
 5598W        W 9662   1.251   0.209   8.626  0.0687  0.0277 -0.1493
 5599W        W 9663   2.114  10.369   2.305 -0.1845 -0.3679 -0.2280
 5600W        W 9664   6.904   1.175   1.671 -0.2432  0.0621 -0.4316
 5601W        W 9665  10.274   6.033   2.807 -0.2676  0.2322 -0.2304
 5602W        W 9666   9.713   2.075   0.346 -0.0703  0.2628  0.0547
 5603W        W 9667   3.392   1.193   9.415 -0.1435 -0.0496 -0.3498
 5604W        W 9668   7.855  10.485   2.146  0.0458  0.1729  0.0302
 5605W        W 9669   3.344   9.879  11.122 -0.0220 -0.2204  0.1530
 5606W        W 9670   6.055   3.010   1.685 -0.0261 -0.1578 -0.3344
 5607W        W 9671   0.086   0.996   9.192 -0.1161  0.2635  0.1174
 5608W        W 9672  10.618   8.843   1.166  0.0443  0.0530  0.2091
 5609W        W 9673   1.239   4.241  10.888 -0.0942  0.0092 -0.5064
 5610W        W 9674   8.903   0.047  10.323  0.4142 -0.1982  0.1808
 5611W        W 9675   2.365   8.984   0.619 -0.2702  0.1692 -0.1916
 5612W        W 9676   2.114   3.924   3.160 -0.1380  0.1351  0.0254
 5613W        W 9677   6.372   7.771   7.349  0.2323  0.1058 -0.0723
 5614W        W 9678   1.131   1.567   7.289  0.2732 -0.0563  0.0469
 5615W        W 9679   4.571   3.870   7.683  0.3116 -0.0532  0.1231
 5616W        W 9680   2.059   5.816   7.890 -0.1309  0.2304 -0.3494
 5617W        W 9681   9.881   9.317   0.888 -0.0734 -0.4826 -0.0701
 5618W        W 9682   1.236   1.859   9.883 -0.1026  0.0267  0.0762
 5619W        W 9683  10.222   9.362   7.608 -0.1964  0.1481 -0.2924
 5620W        W 9684   5.172  10.264  10.114 -0.1694  0.2654 -0.1820
 5621W        W 9685   6.618   8.398   1.668  0.4295  0.0637 -0.1311
 5622W        W 9686   2.752   1.111   3.597 -0.1263  0.3801  0.0506
 5623W        W 9687   8.929   4.833   9.349 -0.0677 -0.1605 -0.0798
 5624W        W 9688   8.869   1.526  10.980  0.0634 -0.1269  0.3357
 5625W        W 9689   4.836   8.500  10.601 -0.0227  0.0102  0.0873
 5626W        W 9690   2.930   1.930   1.505 -0.2376  0.0311  0.0470
 5627W        W 9691   2.128  10.403   0.572  0.2273 -0.0493  0.3266
 5628W        W 9692   3.831   3.111   7.870  0.0016 -0.1393 -0.0373
 5629W        W 9693   0.180   3.967   8.732  0.2006 -0.2446 -0.2586
 5630W        W 9694   6.836   7.386   0.485 -0.1805 -0.0040 -0.1261
 5631W        W 9695   5.824   7.244   0.070 -0.2367 -0.0473  0.0360
 5632W        W 9696   1.292   2.965  10.238  0.5403 -0.2601  0.0160
 5633W        W 9697   8.210   0.963   9.241  0.1656 -0.2877 -0.1512
 5634W        W 9698   7.958   4.527  10.959 -0.2496  0.0029  0.1128
 5635W        W 9699   8.750   6.102   0.733 -0.1394 -0.0542  0.0786
 5636W        W 9700   7.332   0.097  10.041  0.2001  0.1238 -0.0163
 5637W        W 9701   9.576   9.872   7.209  0.2552 -0.1765  0.1740
 5638W        W 9702   3.172   2.065   0.207 -0.2440 -0.0721 -0.0820
 5639W        W 9703   7.984   1.453   1.276 -0.3787  0.3733  0.1042
 5640W        W 9704   2.599  10.455   2.303  0.0808 -0.2365 -0.1514
 5641W        W 9705   8.067   1.501   8.327 -0.3675 -0.1280 -0.1209
 5642W        W 9706   8.332   1.311   7.822  0.3024  0.3847  0.0323
 5643W        W 9707   2.961   0.042   0.078 -0.1494  0.0166  0.2215
 5644W        W 9708   2.452   6.626   9.875  0.2070  0.2288  0.1971
 5645W        W 9709   3.952   8.279  10.380  0.2519  0.0366  0.0477
 5646W        W 9710   7.185   8.456   7.527  0.1128  0.2223 -0.2311
 5647W        W 9711   5.794   5.108   8.127 -0.0946 -0.1353 -0.0183
 5648W        W 9712   2.962   9.503  10.205  0.1193 -0.1282  0.0637
 5649W        W 9713   4.238   8.035   1.615 -0.1629 -0.1622  0.0457
 5650W        W 9714   1.605   3.202   1.275 -0.2673  0.0747  0.0513
 5651W        W 9715   3.583   1.870   8.240  0.1174  0.1908  0.0478
 5652W        W 9716   8.112   8.506   2.105 -0.1221 -0.1378  0.1244
 5653W        W 9717   5.272   4.764   2.270  0.1916 -0.1309  0.0811
 5654W        W 9718   5.262   8.180   8.828 -0.2883 -0.1909 -0.2387
 5655W        W 9719   4.282  10.471   9.715  0.1145 -0.1829  0.0910
 5656W        W 9720   2.201   4.132   7.970 -0.0963 -0.2555 -0.3137
 5657W        W 9721   1.486   3.894  11.213 -0.1085 -0.3774 -0.2473
 5658W        W 9722   3.283   8.753  11.020  0.1337 -0.2498  0.0398
 5659W        W 9723   0.710   8.938   1.492  0.1519 -0.1942 -0.2275
 5660W        W 9724   7.957   7.986   7.517 -0.2889 -0.0830  0.1108
 5661W        W 9725   6.571   5.030   8.800 -0.1828 -0.0245 -0.1411
 5662W        W 9726   5.483   8.978   1.043 -0.1640 -0.0846  0.0861
 5663W        W 9727   2.621   6.652  11.254 -0.0510 -0.0652  0.1457
 5664W        W 9728   5.867   5.900   9.696 -0.1464 -0.2939  0.1541
 5665W        W 9729   3.777   8.364   2.506 -0.1061  0.1815  0.3390
 5666W        W 9730   1.397   1.619   8.976 -0.4178  0.2911 -0.0448
 5667W        W 9731   2.094   8.375  10.050 -0.0922  0.0652 -0.0797
 5668W        W 9732   0.564   5.511   9.187 -0.0475 -0.0229 -0.0969
 5669W        W 9733   5.664   4.560   2.122  0.2613 -0.0580  0.0697
 5670W        W 9734  10.685   8.560   2.993 -0.2480 -0.2316 -0.1089
 5671W        W 9735   4.295   8.390   9.356  0.1257 -0.0889  0.3030
 5672W        W 9736   2.566   8.323  10.305 -0.0829 -0.1216  0.1184
 5673W        W 9737   4.125   5.400   9.765 -0.0390  0.3683 -0.2182
 5674W        W 9738   4.355   5.855   8.540 -0.1154 -0.1631 -0.2664
 5675W        W 9739   6.863   4.762   2.441 -0.0312  0.3154 -0.1102
 5676W        W 9740   7.582   1.952   8.660  0.2022  0.0581 -0.0860
 5677W        W 9741   1.022   9.094   7.933  0.4121  0.2038 -0.1480
 5678W        W 9742   8.554   4.090   1.965  0.0279  0.1741 -0.1764
 5679W        W 9743   2.709   9.177   1.868  0.2477 -0.0918  0.1736
 5680W        W 9744   6.377   4.953   2.529 -0.0373  0.1440  0.2021
 5681W        W 9745   3.960   2.351   1.387 -0.0367  0.0485 -0.0625
 5682W        W 9746   6.772   6.529   2.011  0.4820 -0.3230  0.1712
 5683W        W 9747   2.806   2.509   7.235  0.0892 -0.5939 -0.0287
 5684W        W 9748   5.304   3.198   9.673 -0.0080  0.2207  0.1063
 5685W        W 9749   4.665   6.827  10.642  0.2459  0.0783 -0.1089
 5686W        W 9750  10.509   0.534  11.142  0.0103 -0.0698  0.0949
 5687W        W 9751   0.998   6.058   2.063 -0.0582  0.0866  0.3446
 5688W        W 9752   8.150   0.279   0.431 -0.0502 -0.0108 -0.0642
 5689W        W 9753   6.798   5.399   1.624  0.1159 -0.2133  0.4598
 5690W        W 9754   3.517   2.675   0.538  0.0734 -0.0537  0.0218
 5691W        W 9755   8.761   1.030   0.056 -0.0704  0.1724  0.2121
 5692W        W 9756  10.423   3.242   7.433 -0.0868 -0.0708  0.2303
 5693W        W 9757   3.973   5.721   8.889  0.0205  0.2113 -0.0342
 5694W        W 9758   0.760   4.881   7.930 -0.3705  0.2476 -0.0449
 5695W        W 9759   8.751   6.284   8.717  0.0722  0.2101 -0.1245
 5696W        W 9760   0.518   0.654   0.557 -0.1030 -0.1917 -0.0706
 5697W        W 9761   7.025   1.826  11.266 -0.1119  0.0455  0.1181
 5698W        W 9762  10.699   2.326   1.879  0.1534 -0.5483 -0.0634
 5699W        W 9763   6.079   6.575   8.734 -0.3342 -0.0544 -0.1525
 5700W        W 9764   9.597   5.606   1.583 -0.1131  0.4562 -0.2694
 5701W        W 9765  10.313   3.850  11.179  0.1466  0.0674 -0.1498
 5702W        W 9766   3.973   8.364   8.589 -0.2099 -0.0738 -0.0851
 5703W        W 9767   5.150   9.769  10.859 -0.0222 -0.2020 -0.0120
 5704W        W 9768   8.064   6.711   1.837 -0.3355 -0.1803 -0.1373
 5705W        W 9769   4.108   6.106   1.557 -0.2499  0.0977  0.2927
 5706W        W 9770   8.918   0.742   9.810  0.0659  0.0729 -0.0869
 5707W        W 9771   5.968   4.351   1.242 -0.1854  0.1210 -0.1253
 5708W        W 9772  10.228   0.549   8.620  0.1154 -0.1734 -0.2594
 5709W        W 9773   5.866   0.184   8.064 -0.0534 -0.0912 -0.3090
 5710W        W 9774   8.408   7.433   8.063 -0.3618  0.2614 -0.0672
 5711W        W 9775   4.335   4.557   1.779  0.5128 -0.1656  0.2038
 5712W        W 9776   7.256  10.645   8.996 -0.1734 -0.0974 -0.2968
 5713W        W 9777   7.714   0.952   0.129  0.0544  0.0604  0.1823
 5714W        W 9778   5.032   9.479   9.646  0.0615 -0.0104  0.2076
 5715W        W 9779   6.565  10.653   1.128 -0.0354 -0.0979 -0.0940
 5716W        W 9780   1.532   9.263   0.003 -0.0922  0.3326 -0.2255
 5717W        W 9781   7.512   0.780   9.592 -0.2579 -0.0294 -0.2062
 5718W        W 9782   9.333   6.267  10.349  0.1236 -0.0235 -0.0285
 5719W        W 9783   2.518   6.008   0.599 -0.1040 -0.2915 -0.3689
 5720W        W 9784   5.077   0.025   9.645  0.2169  0.3801 -0.1805
 5721W        W 9785   8.734   4.764   2.829  0.0116  0.0271 -0.2174
 5722W        W 9786   0.738  10.390  10.720  0.1693  0.0911  0.3399
 5723W        W 9787   2.686  10.483  10.722  0.0854  0.4543 -0.0490
 5724W        W 9788   3.495   4.404   0.853  0.0386  0.2194 -0.2578
 5725W        W 9789  10.536   9.570   0.552  0.2263 -0.2571  0.0598
 5726W        W 9790   1.960   2.410   0.729  0.0378  0.4607 -0.0806
 5727W        W 9791   9.626   6.401   9.564 -0.0125 -0.1480  0.1853
 5728W        W 9792   7.289   5.464   9.637 -0.3875  0.1618 -0.1526
 5729W        W 9793   2.049   2.869   9.292 -0.0051  0.1428 -0.2648
 5730W        W 9794   7.415   2.896  10.306  0.2080  0.0020  0.1027
 5731W        W 9795   5.247   1.976   8.294 -0.0828  0.1160  0.5098
 5732W        W 9796   4.635   8.986   8.596 -0.4227 -0.1036 -0.1075
 5733W        W 9797   6.656  10.266   0.594 -0.1071 -0.1911 -0.0668
 5734W        W 9798   1.419   1.517   3.471 -0.1368  0.3576 -0.0441
 5735W        W 9799   4.606   7.477   2.123  0.0201 -0.0318  0.0143
 5736W        W 9800   7.721   5.822  10.387  0.2383  0.2313  0.1763
 5737W        W 9801   7.799   0.737   2.576  0.3788 -0.5292 -0.2604
 5738W        W 9802  10.218   8.720  10.004 -0.1118  0.1424 -0.0243
 5739W        W 9803   0.164   1.387   2.914  0.3527  0.2749  0.0682
 5740W        W 9804   5.760  10.166   9.757 -0.1243 -0.1576 -0.3295
 5741W        W 9805   4.768   4.233  10.387 -0.2982  0.0110  0.2393
 5742W        W 9806   5.938   9.791   9.484 -0.1331  0.1175 -0.0296
 5743W        W 9807   4.373   1.327   9.231  0.0596  0.1120 -0.2537
 5744W        W 9808   6.142   0.304   4.302 -0.0287 -0.3162  0.0081
 5745W        W 9809   1.500   6.426   3.320  0.1940  0.0986 -0.1061
 5746W        W 9810   5.322   0.849   1.567  0.2316  0.1113  0.0071
 5747W        W 9811   6.404   1.713   1.702  0.0979  0.2860 -0.1649
 5748W        W 9812  10.327   7.490   0.149 -0.1994  0.0091  0.0755
 5749W        W 9813   6.205   3.495   2.930  0.1037 -0.0223  0.1538
 5750W        W 9814   0.492   9.835   8.945 -0.3748 -0.2350  0.0744
 5751W        W 9815   9.865   7.414   9.852  0.0136  0.0107 -0.2294
 5752W        W 9816   1.750   4.663   8.685 -0.2422  0.0536  0.1166
 5753W        W 9817   1.795   0.604   7.921 -0.0458 -0.1545  0.1576
 5754W        W 9818   4.667   2.269  10.973  0.0373 -0.1876 -0.1712
 5755W        W 9819   1.762   1.255   3.186 -0.1399  0.3756  0.1017
 5756W        W 9820   6.726   9.529   3.050  0.4159 -0.1520  0.0271
 5757W        W 9821   7.797   7.839   7.099  0.2841 -0.1589 -0.2049
 5758W        W 9822   0.913   3.303   8.840 -0.0147 -0.0777  0.0765
 5759W        W 9823   4.324   4.698   7.570 -0.2019 -0.1662  0.1230
 5760W        W 9824   7.058   9.987   3.331 -0.1831  0.0745 -0.1575
 5761W        W 9825   5.915   8.886   7.364 -0.1298 -0.1884 -0.0916
 5762W        W 9826   1.414   6.971   8.483 -0.0508  0.1569  0.0282
 5763W        W 9827   4.697  10.356   8.833  0.1114 -0.2343 -0.0123
 5764W        W 9828   4.510   2.624   8.199 -0.1098  0.0034  0.1076
 5765W        W 9829   6.188   8.553   7.952 -0.0167 -0.1675 -0.1525
 5766W        W 9830   1.570   0.188   9.396  0.0387  0.1167  0.2241
 5767W        W 9831   4.977   0.980   2.760  0.1303  0.1717  0.0455
 5768W        W 9832   7.762   5.731   7.792 -0.1593  0.4382  0.3322
 5769W        W 9833   5.097   3.817   2.420  0.0015  0.0628  0.2951
 5770W        W 9834   3.952   4.837   1.712 -0.2189  0.0424  0.1554
 5771W        W 9835   0.290   8.192   3.747  0.2350 -0.1002  0.0358
 5772W        W 9836  10.542   8.769   9.239 -0.1758  0.1737  0.1040
 5773W        W 9837   2.737   4.045   0.225 -0.0625  0.1915  0.1075
 5774W        W 9838   4.464   1.895   1.754 -0.2295  0.4927  0.1302
 5775W        W 9839   1.260   1.736  10.659 -0.0306  0.1804  0.3408
 5776W        W 9840   7.230   9.564  10.095 -0.1918 -0.2523 -0.2560
 5777W        W 9841   2.238   6.054   2.105  0.0079 -0.1381 -0.2928
 5778W        W 9842  10.401   0.215   6.953 -0.1006 -0.2137 -0.0643
 5779W        W 9843   8.133   4.380   2.886 -0.3980 -0.2257  0.0950
 5780W        W 9844   4.338   2.633  11.251 -0.0973  0.0887  0.1462
 5781W        W 9845   4.768   5.620   9.923  0.0275  0.1088  0.1137
 5782W        W 9846  10.012   0.430  10.712 -0.0993 -0.0166 -0.3132
 5783W        W 9847   6.828   9.971   8.302 -0.0989  0.0201  0.0415
 5784W        W 9848   7.271   3.687   2.446 -0.0110 -0.1487  0.0948
 5785W        W 9849   2.017   2.709   1.966 -0.1128  0.1622  0.2791
 5786W        W 9850   7.715   3.646   8.268  0.2539  0.5377 -0.2947
 5787W        W 9851   6.794   4.104   8.921  0.0760 -0.0315  0.1079
 5788W        W 9852   3.922   4.387   2.166 -0.0566 -0.0944  0.0410
 5789W        W 9853  10.140   0.014  10.451  0.2907  0.1178  0.0235
 5790W        W 9854   7.323   9.231   8.798 -0.3128 -0.0860 -0.0236
 5791W        W 9855   6.522   4.138   1.187  0.1951 -0.3834  0.2202
 5792W        W 9856   0.834   4.858   0.816  0.4211  0.5506 -0.4465
 5793W        W 9857   4.432   5.807   2.493  0.2094  0.0237 -0.1447
 5794W        W 9858   2.926   4.348   3.262  0.1574 -0.0637 -0.2015
 5795W        W 9859   0.084  10.302  10.124 -0.1226 -0.1401  0.0606
 5796W        W 9860   3.404   4.979  10.164  0.1009 -0.2024 -0.0191
 5797W        W 9861   7.871   1.825   2.035 -0.0242  0.0995  0.5784
 5798W        W 9862   5.727   4.629  10.434  0.4558  0.2683  0.1967
 5799W        W 9863   1.785   4.146   0.690  0.0259 -0.0049  0.3056
 5800W        W 9864   1.733   7.546   0.653 -0.1860 -0.0008 -0.3446
 5801W        W 9865  10.306   0.295   2.017 -0.1353  0.2609  0.0707
 5802W        W 9866   8.506   5.269   3.264 -0.0349 -0.0075 -0.1009
 5803W        W 9867   4.007   0.808   1.844  0.3146  0.2453 -0.2019
 5804W        W 9868   9.215   5.868   1.316 -0.1962 -0.2023 -0.2620
 5805W        W 9869   4.960   6.964   0.143 -0.1152 -0.2189 -0.0375
 5806W        W 9870   7.904   9.211   0.398  0.1201  0.2868 -0.5144
 5807W        W 9871   9.639   6.796   2.393  0.0655  0.3633  0.1731
 5808W        W 9872   3.902   9.561  10.499  0.0742  0.2005  0.2053
 5809W        W 9873   1.586   6.104   9.218 -0.0787  0.1116  0.1671
 5810W        W 9874   9.221   2.794  10.428 -0.1078 -0.0778 -0.0081
 5811W        W 9875   0.260   0.461   2.172 -0.3664 -0.0710 -0.0223
 5812W        W 9876   0.015   9.093   0.327 -0.0878  0.0054  0.1845
 5813W        W 9877   7.527   2.690   8.465 -0.2097 -0.2861  0.2590
 5814W        W 9878  10.020   9.658   9.182 -0.1172 -0.1000  0.0299
 5815W        W 9879   5.358   9.858   1.760 -0.2238  0.1267  0.4092
 5816W        W 9880   6.671   9.095   2.795 -0.1120 -0.0157 -0.1369
 5817W        W 9881   5.265   9.360   1.451  0.2265  0.0919  0.1476
 5818W        W 9882   7.507   6.887   9.208  0.3125 -0.0408  0.0802
 5819W        W 9883   5.952   0.174   8.951  0.3714  0.0363 -0.0251
 5820W        W 9884  10.330   0.904   0.164  0.0672  0.1667 -0.1671
 5821W        W 9885   3.789   0.956   2.288 -0.1344 -0.2412 -0.1376
 5822W        W 9886   0.162   3.965  10.810 -0.0583 -0.2948  0.0099
 5823W        W 9887   4.060   5.992   0.985  0.0608 -0.1170 -0.0202
 5824W        W 9888   6.639   8.504   7.662  0.4143  0.0154 -0.1625
 5825W        W 9889   3.251   4.735   3.407  0.5246  0.4049 -0.0907
 5826W        W 9890   6.748   4.294   8.450 -0.1544  0.2185  0.0391
 5827W        W 9891   6.073   0.816   1.800  0.1898 -0.1165  0.1576
 5828W        W 9892   3.706   9.493  11.103  0.3229 -0.1957  0.1960
 5829W        W 9893   6.712   9.013   1.218  0.2888  0.0904  0.0254
 5830W        W 9894   1.330   3.216   6.868  0.1232 -0.1588  0.0624
 5831W        W 9895   4.502   0.660   1.857  0.0573  0.0639  0.0785
 5832W        W 9896   6.877   0.692   8.860  0.0213 -0.2330 -0.2460
 5833W        W 9897   1.776   4.718   1.483  0.2037 -0.2139 -0.3442
 5834W        W 9898   7.713   5.419   2.052  0.1332 -0.0092 -0.1094
 5835W        W 9899   8.369   8.362   2.575 -0.1221 -0.2260  0.1186
 5836W        W 9900   6.546   3.095   3.736 -0.2832  0.3268  0.3382
 5837W        W 9901   5.711   2.871   0.687 -0.0788  0.0903  0.0255
 5838W        W 9902   2.381   1.329   3.797  0.0699 -0.1013 -0.0730
 5839W        W 9903   4.286  10.134  10.135 -0.0120 -0.1333  0.0383
 5840W        W 9904   0.617   3.611   6.615  0.0327  0.1751  0.0485
 5841W        W 9905   2.429   9.995   2.080  0.2422 -0.0776  0.0787
 5842W        W 9906   7.330   4.927   2.182  0.0803  0.1019  0.0803
 5843W        W 9907  10.265   1.028   9.361  0.0747 -0.2587  0.2117
 5844W        W 9908   7.502   7.534   9.062 -0.0624  0.0807 -0.1018
 5845W        W 9909   4.795   3.889   2.057  0.0028 -0.0488  0.0170
 5846W        W 9910   8.386   9.612   9.323 -0.2088 -0.0066 -0.4300
 5847W        W 9911   8.154   0.842   7.542 -0.0626  0.1406 -0.1229
 5848W        W 9912   5.213   4.003   1.700  0.1434 -0.0821 -0.0490
 5849W        W 9913   0.257   5.700   1.514  0.2295 -0.0676 -0.1226
 5850W        W 9914   1.525   2.128   9.201  0.3048  0.0561 -0.2033
 5851W        W 9915   3.824   7.818   2.632  0.1021  0.0734  0.1566
 5852W        W 9916   5.289   0.098  10.581  0.0190  0.2618  0.0557
 5853W        W 9917   0.993   7.690   9.602 -0.0114 -0.2276  0.0781
 5854W        W 9918   7.704   0.872   8.761  0.0827  0.2141  0.3489
 5855W        W 9919   2.238   8.287   8.019  0.1725  0.2647 -0.2952
 5856W        W 9920   5.091   9.475   8.565 -0.1778  0.0365  0.0677
 5857W        W 9921   2.577   6.875   1.622  0.1331  0.1089 -0.0772
 5858W        W 9922   2.475   4.976   8.371 -0.2924  0.2909  0.0308
 5859W        W 9923   6.712   8.794   8.050  0.3077 -0.0827 -0.1480
 5860W        W 9924   2.616   7.665   1.022  0.2430  0.1365 -0.1002
 5861W        W 9925   2.719   9.453   9.794 -0.0838  0.0290 -0.2833
 5862W        W 9926  10.240   3.000   2.711  0.1406 -0.1536 -0.0623
 5863W        W 9927   4.452   8.064   2.081  0.3032 -0.0875 -0.1075
 5864W        W 9928   8.702   7.125   2.875  0.2710 -0.1145  0.1605
 5865W        W 9929   2.047   0.487   2.147 -0.1084 -0.1707 -0.1110
 5866W        W 9930   3.022   8.478   8.367 -0.0809 -0.0762 -0.1586
 5867W        W 9931  10.392   9.044   9.612  0.0462 -0.3780  0.1987
 5868W        W 9932   1.972   6.284   0.808 -0.0849 -0.2918 -0.2036
 5869W        W 9933   2.715   4.856   3.512 -0.1523  0.0408  0.0602
 5870W        W 9934   0.884   2.696   2.900  0.0285 -0.2735 -0.1115
 5871W        W 9935   5.832   1.376  11.139 -0.0826 -0.0339 -0.0066
 5872W        W 9936   0.875   5.503   2.078 -0.1178 -0.1128 -0.1007
 5873W        W 9937   6.952  10.425   8.656  0.1772 -0.0768  0.3652
 5874W        W 9938   8.341   0.065  10.462  0.0907 -0.2822 -0.1129
 5875W        W 9939   2.983   6.385  11.002 -0.1366  0.0725  0.0919
 5876W        W 9940   6.045   7.514   1.961 -0.1833  0.0333 -0.1866
 5877W        W 9941   5.287   5.616  10.013  0.0708  0.0260  0.0564
 5878W        W 9942   4.837   9.880   3.098 -0.2711 -0.1404 -0.3504
 5879W        W 9943   4.054   9.664   0.120  0.2301 -0.0371 -0.0715
 5880W        W 9944   8.990   8.617  10.941 -0.2558 -0.2810 -0.1702
 5881W        W 9945   5.380   8.405   8.379 -0.0148 -0.0480  0.0145
 5882W        W 9946   2.325   0.457   3.052  0.2429 -0.1514 -0.2328
 5883W        W 9947   0.212   0.856   0.910 -0.3229 -0.1224  0.3444
 5884W        W 9948   1.515   5.487  11.195  0.1895  0.4368  0.1022
 5885W        W 9949   7.155   2.795   9.306  0.1701 -0.1731  0.1268
 5886W        W 9950   8.251   4.650   7.518 -0.1702  0.0099  0.0350
 5887W        W 9951   4.873   0.544  10.445  0.1370  0.1958  0.0310
 5888W        W 9952   2.718   2.280   0.026 -0.0518 -0.1051  0.3725
 5889W        W 9953   0.974   3.085   7.624  0.0159 -0.3109 -0.0193
 5890W        W 9954   9.352   2.075   6.799  0.0980 -0.2237  0.3232
 5891W        W 9955   7.592   2.797   3.497  0.0160 -0.2787 -0.0029
 5892W        W 9956  10.764   6.241  10.556  0.0076 -0.1365  0.0307
 5893W        W 9957   9.049   9.729   8.660  0.0995  0.0293 -0.0733
 5894W        W 9958   1.629   1.906   8.256  0.1875  0.6002  0.0961
 5895W        W 9959   5.534   3.791   0.777  0.0177  0.0354 -0.1460
 5896W        W 9960   4.203   9.964   8.289 -0.1720 -0.3258 -0.0731
 5897W        W 9961   8.143   3.349   8.434  0.1508  0.0795 -0.0500
 5898W        W 9962   2.686   0.952   2.438 -0.3041 -0.0831  0.1634
 5899W        W 9963   6.943   6.844   9.068 -0.0219 -0.2392 -0.2294
 5900W        W 9964   1.837   7.379   8.507  0.0698 -0.1799  0.0572
 5901W        W 9965   4.613  10.375   8.341  0.2419  0.5128 -0.0152
 5902W        W 9966   4.949   9.389   7.714  0.0074 -0.1790 -0.1400
 5903W        W 9967   5.717   5.264   9.053 -0.1935  0.1229 -0.1947
 5904W        W 9968   0.375   4.517  11.002 -0.1321  0.1978  0.4519
 5905W        W 9969   8.639   8.457   0.483 -0.1607 -0.2554 -0.0970
 5906W        W 9970   7.214   0.921   2.135  0.0996 -0.1026 -0.1642
 5907W        W 9971   0.349   3.820   9.153  0.2307 -0.1124  0.0373
 5908W        W 9972   4.181   1.611   1.461 -0.0383  0.2278 -0.0835
 5909W        W 9973   8.293   0.052   8.903  0.1503 -0.0513  0.2422
 5910W        W 9974   9.624   7.701  10.868  0.0071  0.0727  0.0102
 5911W        W 9975   1.350  10.189   9.918 -0.2476  0.1852  0.0584
 5912W        W 9976   4.142   9.061   7.318  0.1184 -0.1080  0.1928
 5913W        W 9977   0.671   3.773   1.711  0.2982 -0.1385 -0.1498
 5914W        W 9978  10.025   0.846  10.993 -0.1132 -0.0105  0.2541
 5915W        W 9979   9.660   6.467   8.597  0.1013 -0.0569 -0.1376
 5916W        W 9980   8.126   9.271  10.112  0.0585  0.0671 -0.1928
 5917W        W 9981  10.018   6.084   9.306 -0.2105  0.0955  0.4324
 5918W        W 9982  10.128   3.734   2.171 -0.2626  0.0868 -0.2881
 5919W        W 9983   2.737   8.293   7.742  0.1542  0.1295 -0.3320
 5920W        W 9984   0.853   9.998   1.601 -0.1077 -0.1738  0.2218
 5921W        W 9985   8.591   0.155   1.326  0.0551  0.0143  0.0115
 5922W        W 9986   5.451   1.250   0.096 -0.2316  0.3996 -0.1372
 5923W        W 9987   6.231   5.112  10.836 -0.2682  0.0718 -0.0727
 5924W        W 9988   7.938   3.663   2.747 -0.2272 -0.1645 -0.3920
 5925W        W 9989   2.211   2.228   2.070  0.2059  0.0083 -0.2804
 5926W        W 9990   7.389   8.242   1.086  0.1684  0.3250  0.0618
 5927W        W 9991   0.724   9.832   7.154 -0.4128 -0.0998  0.1026
 5928W        W 9992   7.657   8.353   1.955 -0.0492 -0.0287  0.0687
 5929W        W 9993   7.838   8.790   8.095  0.2278  0.4954 -0.0323
 5930W        W 9994   5.673   8.033   1.946  0.4281  0.4209 -0.1475
 5931W        W 9995   7.273   1.088   7.920  0.0160  0.1050  0.0623
 5932W        W 9996   2.680   7.720   0.380 -0.3156  0.1191  0.2502
 5933W        W 9997  10.197   8.345   7.632 -0.0347 -0.0505 -0.1339
 5934W        W 9998   0.698   9.727   2.153 -0.0064  0.2573  0.0270
 5935W        W 9999   5.616   2.155   9.152 -0.1298  0.2040 -0.0099
 5936W        W10000   4.741   8.279   9.181  0.0120  0.2916  0.0328
 5937W        W10001   9.569   2.719   1.296  0.1210 -0.2274  0.3142
 5938W        W10002   7.595   6.479   8.429  0.3144  0.3650  0.3024
 5939W        W10003   5.644   3.807   1.607  0.0459 -0.0418 -0.0262
 5940W        W10004   9.994   7.273   8.415  0.0671  0.2752  0.0690
 5941W        W10005   4.163   7.582  10.227  0.0302  0.0745 -0.3120
 5942W        W10006   4.418   6.335   8.386  0.1533  0.1136 -0.1280
 5943W        W10007   1.371   6.435   9.496 -0.0811  0.0465 -0.3490
 5944W        W10008   2.164   0.133  11.083 -0.2255  0.0830  0.1390
 5945W        W10009   2.470   9.170   2.352  0.3722 -0.0828  0.0352
 5946W        W10010   1.369   7.635   8.468 -0.1429  0.3308  0.0463
 5947W        W10011   1.783   7.595   6.843 -0.0972 -0.0033  0.3104
 5948W        W10012   8.766   7.061   1.070  0.2277  0.3449 -0.0561
 5949W        W10013   2.050   1.531   0.510  0.2195 -0.0376 -0.3149
 5950W        W10014   9.414   7.253  10.643 -0.2518 -0.2792  0.2289
 5951W        W10015   5.174  10.334  10.648 -0.3150 -0.0844  0.0842
 5952W        W10016   6.814   6.181   3.017 -0.1780 -0.6169 -0.1255
 5953W        W10017   9.471   1.853   9.023  0.0253 -0.1804 -0.0852
 5954W        W10018   0.381   5.021   2.579  0.2140  0.0379  0.1248
 5955W        W10019   8.785  10.049   2.499 -0.2823 -0.0899  0.3076
 5956W        W10020   2.919   7.291  10.927 -0.1139  0.2316 -0.0065
 5957W        W10021   0.745   8.147   7.872 -0.3984 -0.0071  0.5690
 5958W        W10022   2.059   0.722   1.089 -0.4531 -0.2294 -0.3457
 5959W        W10023  10.708   9.418   3.148 -0.2793  0.2700 -0.1133
 5960W        W10024   8.008   3.323   7.956 -0.0100 -0.1124  0.0604
 5961W        W10025   3.595   5.359   9.185 -0.1859 -0.0787  0.0909
 5962W        W10026   3.311   5.777   2.123  0.0012 -0.0313 -0.2073
 5963W        W10027   8.302   6.718  10.902  0.2930  0.0670  0.5221
 5964W        W10028   1.930   7.953   7.664  0.1887 -0.3541 -0.0469
 5965W        W10029   2.996   7.453   9.952  0.0999  0.1016  0.1746
 5966W        W10030   2.928   4.109   8.377 -0.1541  0.0727 -0.0698
 5967W        W10031   8.141   8.323   1.586  0.0778  0.0662  0.3136
 5968W        W10032   4.670   5.900   1.965 -0.1012 -0.3932 -0.0442
 5969W        W10033   8.016  10.669   7.819 -0.2278  0.0276  0.0908
 5970W        W10034   2.108   4.855  10.613  0.0493  0.1912  0.0002
 5971W        W10035   8.926   6.434  10.126 -0.1158  0.4067  0.2004
 5972W        W10036   8.137   5.277   1.828  0.1164 -0.1546 -0.0262
 5973W        W10037   0.347   0.729   1.572  0.0540 -0.1073  0.2352
 5974W        W10038   7.440   7.346   9.498 -0.0223  0.1993 -0.1968
 5975W        W10039   2.075   9.536   3.462  0.2704 -0.2672  0.0068
 5976W        W10040  10.361   9.455   1.017  0.0519 -0.0994 -0.0591
 5977W        W10041   0.404   6.846   2.987  0.1414  0.0440 -0.1928
 5978W        W10042   2.580   9.479   0.438 -0.1361 -0.1975 -0.0910
 5979W        W10043   5.350   1.580  11.012  0.0449 -0.2321  0.5473
 5980W        W10044   4.368   4.088   1.793 -0.0947 -0.3724 -0.2690
 5981W        W10045  10.562   5.618   1.183 -0.2422  0.1528 -0.0127
 5982W        W10046   9.735   9.068   9.362 -0.1312 -0.2158 -0.0501
 5983W        W10047   6.122   1.520   1.096 -0.0113 -0.0259 -0.2280
 5984W        W10048   7.958   3.429  10.203 -0.0403 -0.1433 -0.0739
 5985W        W10049   3.786   1.361   1.010  0.1309  0.1945  0.0402
 5986W        W10050   3.908   4.571  10.831  0.0553 -0.1577 -0.0582
 5987W        W10051   7.079   2.070   9.159  0.0757 -0.0637 -0.1283
 5988W        W10052   5.001   7.503  11.290 -0.2389  0.2100  0.2608
 5989W        W10053   7.036   0.721   0.668  0.0580 -0.1103  0.0356
 5990W        W10054   0.327   5.080   0.351  0.4180  0.2574 -0.1174
 5991W        W10055   8.309   1.796   8.031 -0.0213 -0.1103  0.0776
 5992W        W10056   5.971   1.094   9.118  0.0048  0.0699  0.1352
 5993W        W10057   2.923   5.847   2.489 -0.1162  0.2009  0.1594
 5994W        W10058   6.327   6.633  10.315  0.1041  0.3263 -0.1482
 5995W        W10059   4.614  10.518   1.585 -0.0248  0.3005 -0.1526
 5996W        W10060  10.738  10.455   8.779 -0.2722 -0.3277  0.2620
 5997W        W10061   0.229   0.429  11.295  0.0797 -0.0850  0.2397
 5998W        W10062   2.091  10.064   0.927  0.4198 -0.1303  0.2919
 5999W        W10063  10.747   9.253   9.355  0.1125 -0.4236  0.0202
 6000W        W10064   1.544   3.265   9.904 -0.0457 -0.0214 -0.2106
 6001W        W10065   3.607   6.890  10.384 -0.2676  0.1766 -0.1272
 6002W        W10066   1.956   0.372  10.177 -0.4144  0.2084 -0.0016
 6003W        W10067   2.168   5.443   2.934 -0.0734 -0.1284 -0.4375
 6004W        W10068   6.360   8.850  10.730  0.3170 -0.2133  0.1712
 6005W        W10069   5.525   3.053   8.162  0.0700 -0.0344  0.1039
 6006W        W10070   2.243   2.433  10.380 -0.4399  0.0943  0.0754
 6007W        W10071   6.628   9.044   7.166  0.1338  0.2729  0.1717
 6008W        W10072   9.675   0.168   2.342  0.1755 -0.3686  0.2185
 6009W        W10073   7.752   8.079  10.131  0.2450  0.4516 -0.0922
 6010W        W10074   6.894  10.370   1.445 -0.1682 -0.3945  0.3549
 6011W        W10075  10.023  10.263   1.573 -0.2786  0.1150 -0.0504
 6012W        W10076   1.511  10.029   1.601  0.2517  0.1989 -0.1815
 6013W        W10077   1.223   4.005   3.322  0.4476  0.4937  0.3880
 6014W        W10078   6.629   9.632   1.223  0.0693 -0.0727  0.1675
 6015W        W10079   0.740   4.526   3.332  0.0860  0.0329  0.3736
 6016W        W10080   8.768  10.559   2.681  0.1130  0.1055 -0.0366
 6017W        W10081  10.213   9.721   8.107 -0.0589  0.0261  0.0887
 6018W        W10082   3.498   1.237   2.597 -0.2277  0.0752  0.1696
 6019W        W10083   8.759   7.409   9.822  0.0678  0.0330 -0.1571
 6020W        W10084   0.097   7.136   2.356 -0.0569  0.0951 -0.0072
 6021W        W10085   5.419   9.388   1.953  0.3385 -0.1016  0.1899
 6022W        W10086   1.416   8.909   7.587  0.0120  0.3699 -0.0259
 6023W        W10087   3.213   2.556   8.761  0.0563 -0.0586 -0.2938
 6024W        W10088   8.299  10.318  10.379 -0.0660 -0.2637 -0.2633
 6025W        W10089   0.437   8.189   1.936  0.1540 -0.0756 -0.1830
 6026W        W10090   5.883   8.269   0.453 -0.0836  0.1938  0.2122
 6027W        W10091  10.222   0.617   0.588 -0.0089 -0.0071  0.0463
 6028W        W10092   3.701   0.861  10.350 -0.1048  0.0330  0.3946
 6029W        W10093   6.504   8.131   2.655  0.2446  0.0311  0.0534
 6030W        W10094   0.674   7.691   1.940 -0.1392 -0.3819 -0.3234
 6031W        W10095   4.962   0.457   9.901  0.1373  0.2134  0.2815
 6032W        W10096   8.299   3.405   2.539  0.0361 -0.1304 -0.0710
 6033W        W10097   2.288   0.609   7.544 -0.1745 -0.0659 -0.0166
 6034W        W10098   2.913   7.529   2.962 -0.1380  0.0497  0.0390
 6035W        W10099   7.689   9.417  11.274 -0.0181  0.0962 -0.0066
 6036W        W10100   5.799   0.780   3.040  0.1408 -0.0612 -0.0499
 6037W        W10101   0.896   7.128   0.756 -0.1341 -0.1242  0.4400
 6038W        W10102   4.184   1.481   2.957 -0.1371 -0.0507 -0.0470
 6039W        W10103   8.559  10.625   6.619 -0.1932  0.3562  0.1907
 6040W        W10104   7.994   8.396  10.459  0.3022  0.2834  0.1461
 6041W        W10105   8.231  10.543  10.864 -0.0012 -0.0291  0.1357
 6042W        W10106   5.784   0.633   8.743 -0.2048  0.0474 -0.0886
 6043W        W10107   8.600   7.124  10.815 -0.2038  0.1730  0.2643
 6044W        W10108   2.170   8.442   2.264  0.1247  0.2463  0.0363
 6045W        W10109   5.917   7.653  10.986  0.4457  0.0099  0.4444
 6046W        W10110   6.512   5.049   9.842 -0.2238  0.2440 -0.1144
 6047W        W10111   7.648   9.150   9.194 -0.2244  0.1709 -0.2052
 6048W        W10112   8.315   2.168  10.626  0.1357  0.4892 -0.0214
 6049W        W10113   2.736   3.941   1.449  0.1981  0.1906 -0.2008
 6050W        W10114   9.456   9.502   2.665  0.1577  0.1120 -0.1508
 6051W        W10115   1.360   4.054   0.402  0.3374 -0.0811  0.2636
 6052W        W10116   1.419   8.756   3.291 -0.0425 -0.0314  0.1322
 6053W        W10117   4.502   0.510  10.790 -0.1419  0.1050  0.0450
 6054W        W10118   6.047  10.211   2.154  0.0625  0.0433  0.3630
 6055W        W10119   6.830   6.911   0.129  0.2606 -0.0783 -0.1113
 6056W        W10120   9.688   5.774   2.091  0.3667 -0.0424 -0.1165
 6057W        W10121   2.991   2.751   0.706  0.0740  0.1212  0.0553
 6058W        W10122   5.582   5.676  10.412  0.0760 -0.0356 -0.0695
 6059W        W10123   4.245   0.138   0.440  0.0421 -0.2844 -0.0184
 6060W        W10124   4.835   5.536  11.119  0.1351 -0.0858  0.0649
 6061W        W10125   7.574   4.880   1.231 -0.0913 -0.1315 -0.0882
 6062W        W10126   9.883   1.294  10.777  0.0171  0.2632 -0.0147
 6063W        W10127   8.583  10.114   9.489  0.0604 -0.1422  0.0946
 6064W        W10128   7.720   0.775   7.766 -0.1055 -0.0603  0.2945
 6065W        W10129   4.103   7.691   1.957 -0.1926  0.1731 -0.1973
 6066W        W10130   8.364   9.159   1.923  0.0642  0.0583  0.2551
 6067W        W10131   2.183   8.787   1.106  0.0357  0.2468  0.0613
 6068W        W10132   6.660   9.372   0.045  0.1820 -0.0010 -0.2679
 6069W        W10133   9.727  10.564  10.668  0.0731 -0.0274 -0.0129
 6070W        W10134   6.964   8.217   9.404  0.4108 -0.1410  0.2948
 6071W        W10135   8.573   0.794   0.552 -0.0275  0.0001  0.3653
 6072W        W10136   2.871   5.807   7.631 -0.1968  0.0439  0.1889
 6073W        W10137   7.349  10.006   8.365  0.2639 -0.2327  0.0810
 6074W        W10138  10.642   4.317  10.562  0.0320 -0.0132  0.1859
 6075W        W10139   3.538   7.014   0.747  0.0221  0.2083 -0.4143
 6076W        W10140   8.131   5.669   2.137  0.0293  0.4680  0.0857
 6077W        W10141   7.362   0.428   8.741  0.5242 -0.1769  0.0156
 6078W        W10142   2.114   5.390   8.234  0.0323  0.2904  0.0628
 6079W        W10143   6.562   6.397  10.751 -0.1281 -0.2962  0.0793
 6080W        W10144   7.595   3.301   2.581  0.0081 -0.0407 -0.1592
 6081W        W10145   2.952   8.770   7.744 -0.0969  0.2375 -0.0591
 6082W        W10146  10.103   8.044   0.829 -0.1061 -0.0385  0.1214
 6083W        W10147   5.596   7.207   1.849  0.3612 -0.1331  0.0173
 6084W        W10148   0.659   8.279   1.133 -0.2849 -0.1501  0.0620
 6085W        W10149   2.545   0.212  10.130  0.0832 -0.0531  0.0770
 6086W        W10150   8.094   2.080   8.468 -0.0118 -0.0480  0.0244
 6087W        W10151  10.607   2.201   0.607 -0.4307 -0.0570 -0.4147
 6088W        W10152   9.996   6.502   2.863  0.1927  0.1470 -0.1051
 6089W        W10153   2.851   1.351   1.153 -0.4934  0.0886 -0.0257
 6090W        W10154   5.551   1.454   2.460  0.4682 -0.1423  0.0221
 6091W        W10155   9.634   1.134  11.155  0.0961  0.0402 -0.4507
 6092W        W10156   7.246   7.197   0.837  0.2105 -0.0596 -0.3518
 6093W        W10157   8.898   0.209   9.762  0.1022 -0.3218 -0.3597
 6094W        W10158   3.789   4.813   8.397  0.3060 -0.1466  0.0994
 6095W        W10159   3.772   6.546   0.245 -0.2232  0.0965  0.1950
 6096W        W10160   9.437   5.175   7.853  0.1762 -0.2503  0.2631
 6097W        W10161   8.770   4.075   9.982  0.1145  0.3424  0.2426
 6098W        W10162   9.156   8.018  10.916 -0.2356 -0.0983 -0.1133
 6099W        W10163   7.141   2.136   1.276  0.0092  0.0900 -0.1783
 6100W        W10164   9.196   9.996  10.433  0.0651  0.2057  0.2745
 6101W        W10165   0.227   9.215   9.727 -0.1174 -0.5516  0.0604
 6102W        W10166   9.692   3.876   2.376 -0.1328  0.2087  0.0037
 6103W        W10167   3.281   5.741   8.301  0.2303  0.0231  0.1080
 6104W        W10168   7.946   7.631  10.952 -0.0193  0.1915  0.1193
 6105W        W10169   2.650   7.654   1.827  0.1908  0.1849 -0.2023
 6106W        W10170   5.002   4.585   8.814 -0.4169  0.1581 -0.1487
 6107W        W10171  10.770   8.726   7.325  0.3306  0.0464  0.1816
 6108W        W10172   2.870   2.213   8.359 -0.3183 -0.1365  0.3765
 6109W        W10173   5.443   8.301  10.493  0.0499  0.0171 -0.0372
 6110W        W10174   8.706   4.608   3.845  0.0606  0.0912  0.1333
 6111W        W10175   1.378   5.966  10.112 -0.2115 -0.1475  0.0340
 6112W        W10176   6.554   9.452   8.356  0.0115  0.1815 -0.0649
 6113W        W10177   6.299   9.354   0.352 -0.2094  0.0125 -0.0030
 6114W        W10178   9.536   4.788   2.121 -0.2020 -0.0920  0.0014
 6115W        W10179   0.312   5.419  10.464  0.1890 -0.0345 -0.0756
 6116W        W10180   7.984   8.671   8.926 -0.2069  0.2246  0.1149
 6117W        W10181   8.201   9.556   0.382 -0.0259  0.0117 -0.0678
 6118W        W10182   4.405   0.817   1.097 -0.1006 -0.0692 -0.1006
 6119W        W10183   7.309   2.925   1.816 -0.2814  0.1776  0.0991
 6120W        W10184   7.592   9.979   9.081  0.1305  0.1592  0.4629
 6121W        W10185   0.471   3.981   2.519  0.1137 -0.1893 -0.0024
 6122W        W10186   9.265   1.371   0.891 -0.4535 -0.1627 -0.0177
 6123W        W10187   2.909   6.228  10.566  0.2586 -0.4667  0.1340
 6124W        W10188   8.793   6.627  10.795  0.0423 -0.0844 -0.1088
 6125W        W10189   5.565   4.649   2.707 -0.1454 -0.3176  0.4158
 6126W        W10190   5.204   2.928   1.359  0.2390 -0.1745 -0.1601
 6127W        W10191   9.428   1.037   7.651 -0.0021 -0.0881 -0.2598
 6128W        W10192   8.663   8.634   2.897  0.1439  0.0188 -0.2969
 6129W        W10193   1.193   6.768   2.390 -0.0441 -0.2732  0.1040
 6130W        W10194   8.992  10.670   7.226  0.2340  0.1800  0.0365
 6131W        W10195   4.598  10.557  11.018 -0.2061  0.0180 -0.1131
 6132W        W10196   0.288   4.041   2.018 -0.1734  0.1939  0.0329
 6133W        W10197   2.153   3.934   9.844 -0.2400  0.0412  0.1711
 6134W        W10198   0.480   6.147  10.358  0.0984  0.2046  0.0345
 6135W        W10199  10.046   5.689   9.613 -0.2094  0.0863  0.0711
 6136W        W10200   4.412   7.265   7.957  0.0329 -0.2600 -0.2350
 6137W        W10201   8.475   7.307   1.346  0.2801 -0.2937  0.0783
 6138W        W10202   1.873   7.006   0.629  0.0885 -0.0159  0.2499
 6139W        W10203   1.957   1.830   1.964 -0.1721 -0.0794 -0.3677
 6140W        W10204   3.794   5.889   1.854 -0.1596  0.3227 -0.0064
 6141W        W10205   9.572   9.382   9.923  0.0381 -0.3336  0.0165
 6142W        W10206   5.861   7.829   0.886 -0.2488  0.2430  0.2831
 6143W        W10207   4.527   1.131   3.061  0.0022 -0.0047  0.2837
 6144W        W10208   2.935   6.259   8.673  0.0218  0.0596  0.2331
 6145W        W10209   8.174   9.253   8.456 -0.1577 -0.3670 -0.0822
 6146W        W10210   0.031   8.692   8.273  0.2839  0.0708 -0.1756
 6147W        W10211   4.515   3.172   0.925  0.0290  0.0922 -0.0672
 6148W        W10212   9.208   0.463   8.476 -0.1018 -0.0403 -0.2022
 6149W        W10213  10.304   2.796   2.062 -0.0531  0.1533  0.3663
 6150W        W10214   3.500   6.654   2.778 -0.1990 -0.0959 -0.0393
 6151W        W10215   3.510   7.731   1.786  0.0785 -0.3511  0.2234
 6152W        W10216   3.258  10.614   9.509 -0.2158  0.1132  0.0063
 6153W        W10217   2.596   8.831   2.870  0.0921  0.0077  0.0297
 6154W        W10218   8.099   0.787   0.589 -0.0081 -0.1780  0.3329
 6155W        W10219   2.054   1.573   8.815  0.0224 -0.1714  0.3450
 6156W        W10220  10.572   8.100   7.292  0.4358  0.0252  0.0621
 6157W        W10221   9.022   2.228   0.753 -0.0374  0.1114  0.2960
 6158W        W10222  10.484   0.703   1.023  0.3162  0.0459 -0.0058
 6159W        W10223   5.618   1.096   3.998 -0.0242 -0.0111  0.0297
 6160W        W10224   7.277   5.542   2.804  0.1148  0.2044  0.1046
 6161W        W10225  10.413   1.647   2.330  0.2023 -0.2787  0.3036
 6162W        W10226   3.978   2.518  10.396  0.3199  0.1080 -0.3049
 6163W        W10227   3.988   6.611  10.184  0.0968 -0.2386  0.0146
 6164W        W10228   6.032   5.308   2.616  0.3777  0.3983  0.0922
 6165W        W10229  10.735   2.037   0.090 -0.1068 -0.3894 -0.0777
 6166W        W10230   0.787   9.350   8.292 -0.1794 -0.3945  0.0790
 6167W        W10231   7.537   1.419   3.316 -0.1952 -0.0285  0.1445
 6168W        W10232   4.790   2.678   1.139 -0.2301 -0.0706  0.1487
 6169W        W10233   4.391   6.335   0.860  0.1240 -0.1663 -0.0595
 6170W        W10234   3.416   2.372  11.181 -0.0572  0.3093  0.2148
 6171W        W10235   6.268   4.496   0.821 -0.0344  0.0538 -0.1725
 6172W        W10236   2.698   3.995   2.464  0.0299  0.2757  0.0568
 6173W        W10237   8.329   3.049  10.706  0.1485 -0.3467 -0.0159
 6174W        W10238   7.776   9.951   9.638 -0.1766  0.1322  0.3242
 6175W        W10239   1.713   6.857   2.997  0.0880 -0.1123 -0.1201
 6176W        W10240   9.075   5.985   2.776  0.0084  0.0034  0.4112
 6177W        W10241   7.571   6.371  10.798  0.1746 -0.1842 -0.0058
 6178W        W10242   2.037   7.913   6.573 -0.1081 -0.1105 -0.0552
 6179W        W10243   4.053   4.288   9.723  0.0920 -0.0526 -0.1776
 6180W        W10244   7.327   1.399   1.988 -0.0859  0.3682  0.0052
 6181W        W10245   8.644   6.285   0.129 -0.1361  0.1654 -0.0473
 6182W        W10246   6.830   5.311   0.329 -0.0817  0.0136 -0.3530
 6183W        W10247   2.430   9.783   1.620 -0.0343 -0.0495 -0.0754
 6184W        W10248   0.105   2.565  11.216  0.0131 -0.0133 -0.1464
 6185W        W10249   1.613   7.537  10.765  0.0128 -0.0720  0.2003
 6186W        W10250   8.830   2.589   8.690  0.2323 -0.0609 -0.2933
 6187W        W10251   4.632   8.029   0.207 -0.1874 -0.0403  0.2265
 6188W        W10252   3.702   7.069  11.070  0.0809 -0.3309  0.0512
 6189W        W10253   7.542  10.467  10.235  0.1059  0.1848 -0.3180
 6190W        W10254   4.615   0.880   0.187  0.0025 -0.1772  0.0405
 6191W        W10255   4.842   8.627   3.040  0.0888 -0.0096  0.2522
 6192W        W10256   0.608   6.214   1.755  0.1422  0.2219  0.3048
 6193W        W10257   6.808   9.775   1.698 -0.1944 -0.0226  0.0167
 6194W        W10258   8.028   7.864   8.030 -0.2287  0.0319 -0.0857
 6195W        W10259   8.492   9.583   0.772 -0.0491  0.2368 -0.3455
 6196W        W10260   5.349   2.530   0.627 -0.0436 -0.2802 -0.1721
 6197W        W10261   8.020   2.817   9.470 -0.2626  0.1765 -0.1802
 6198W        W10262  10.735   4.166   2.726 -0.2882 -0.1329  0.1805
 6199W        W10263   8.572   3.256  11.126 -0.1063  0.0513  0.0745
 6200W        W10264  10.043   3.109  10.347  0.2445  0.1817  0.1223
 6201W        W10265   2.679  10.032  10.471  0.0174 -0.3266 -0.0829
 6202W        W10266   3.222   1.663   9.553 -0.0993  0.1357 -0.0424
 6203W        W10267   9.648   5.590   8.846 -0.0878 -0.0440 -0.0920
 6204W        W10268   2.156  10.103   8.727  0.0284  0.1848  0.2776
 6205W        W10269   9.727  10.325   9.313 -0.0162 -0.1477 -0.0891
 6206W        W10270   0.556   6.024   1.312 -0.1497 -0.0586 -0.0858
 6207W        W10271   5.853   6.431   9.204  0.0517  0.2913 -0.1454
 6208W        W10272   4.935  10.145   1.681  0.0120  0.0474  0.0623
 6209W        W10273  10.129   7.721   3.443  0.0557  0.4091  0.0404
 6210W        W10274   7.024   3.279  10.110  0.0343 -0.0924  0.0234
 6211W        W10275   1.327   6.679  10.513  0.0947  0.0703 -0.0841
 6212W        W10276   8.330   3.739   7.993  0.2487 -0.0889 -0.1403
 6213W        W10277   3.769   5.240   2.653  0.0889 -0.0772 -0.0306
 6214W        W10278  10.529   1.685   7.025  0.3001 -0.0773  0.0387
 6215W        W10279  10.126   2.392   7.585  0.0069  0.0857  0.2665
 6216W        W10280   6.258   8.278   8.409 -0.2179 -0.0164 -0.0507
 6217W        W10281   4.603   7.841   2.475  0.1677 -0.0574 -0.1621
 6218W        W10282  10.358  10.759   1.485 -0.2007  0.3050  0.0749
 6219W        W10283   7.255   1.303   3.719 -0.3566 -0.0245 -0.1101
 6220W        W10284  10.117   0.734   8.159 -0.4086 -0.0139 -0.0323
 6221W        W10285   9.796   0.295   1.886  0.1137 -0.1286 -0.1043
 6222W        W10286  10.124   5.681   1.979 -0.0071  0.2235 -0.0390
 6223W        W10287   4.730   8.455   2.186  0.1738 -0.1713  0.0784
 6224W        W10288   9.369   7.150   2.206  0.1432  0.0025 -0.0447
 6225W        W10289   8.212   3.167   2.115 -0.3120  0.0940 -0.3401
 6226W        W10290   5.628   8.541   1.802 -0.2229  0.0028  0.0454
 6227W        W10291   1.935  10.118   2.804 -0.2384  0.0223  0.2547
 6228W        W10292   1.762   7.998  10.637  0.4392 -0.0050 -0.3876
 6229W        W10293   7.066   8.664   2.007  0.1326 -0.4893  0.0754
 6230W        W10294   1.727   6.642   1.084 -0.0307 -0.3223 -0.0264
 6231W        W10295   6.328   8.114   1.335 -0.1259  0.0702  0.1099
 6232W        W10296   5.622  10.105   0.264 -0.3601 -0.0747  0.1058
 6233W        W10297   1.092   3.115   3.315 -0.1838  0.1124  0.3476
 6234W        W10298   5.694  10.343   2.464  0.1828 -0.4313  0.1523
 6235W        W10299  10.636   6.177  11.119  0.2304 -0.0421  0.1090
 6236W        W10300   0.815   9.383   2.691 -0.1541  0.0078  0.2944
 6237W        W10301   6.947   9.310   8.026  0.1227  0.1496  0.0222
 6238W        W10302  10.289  10.587   9.552 -0.0956 -0.1009  0.2221
 6239W        W10303   7.865   0.276   2.333  0.0605 -0.1114 -0.1640
 6240W        W10304   6.209   6.765  10.876  0.0969 -0.0962  0.0807
 6241W        W10305   7.682   0.030   0.354 -0.1301  0.2205  0.0389
 6242W        W10306   3.762   9.763   0.564 -0.3406 -0.0833  0.2322
 6243W        W10307   5.343   6.934  10.426 -0.2828 -0.5037 -0.4423
 6244W        W10308   8.573   5.655   2.503 -0.2187 -0.1655 -0.1142
 6245W        W10309   0.844   4.115   1.305 -0.1660 -0.0028  0.1763
 6246W        W10310   8.196   7.188   7.672 -0.3532 -0.2455 -0.0219
 6247W        W10311  10.641   7.650   2.569  0.1559 -0.1381  0.0142
 6248W        W10312   9.202   4.438   0.621  0.1062 -0.2125  0.1408
 6249W        W10313   1.249   9.018  10.890  0.2369  0.0956 -0.0664
 6250W        W10314   7.259  10.097   3.799 -0.1465 -0.2459 -0.0738
 6251W        W10315   6.452   3.602   1.744 -0.3250  0.1113  0.0586
 6252W        W10316   7.442   7.069   2.392 -0.1175  0.1654  0.2094
 6253W        W10317   1.130   7.530  10.675  0.3057 -0.0240  0.1789
 6254W        W10318   2.464   5.613   2.212 -0.0641 -0.1417  0.1296
 6255W        W10319   2.525   8.290   1.968 -0.0348 -0.0835  0.1228
 6256W        W10320   1.198   9.714   1.946 -0.1536 -0.1650  0.0957
 6257W        W10321   9.623   9.217   7.561  0.0066  0.0764 -0.3649
 6258W        W10322   6.485   1.823   1.209  0.0699  0.2697 -0.0656
 6259W        W10323  10.690   4.592   7.858  0.1855 -0.5255 -0.0797
 6260W        W10324   7.743   1.216   3.785  0.0646 -0.2666  0.2279
 6261W        W10325  10.035   2.595   1.127 -0.2594 -0.1978  0.0632
 6262W        W10326  10.058   3.671   2.647  0.1267  0.1578  0.2363
 6263W        W10327  10.394   2.384   0.174 -0.1938 -0.0356 -0.0423
 6264W        W10328   7.459  10.584   0.766  0.3263 -0.4020 -0.0164
 6265W        W10329   7.990   0.942  10.102 -0.0787 -0.1195 -0.0302
 6266W        W10330  10.568   5.373   9.614  0.1583  0.0401  0.3517
 6267W        W10331   6.582   9.866   6.964  0.2194 -0.3187  0.0373
 6268W        W10332   7.236   0.351   3.667 -0.0122  0.3932 -0.1766
 6269W        W10333   4.430   9.366   0.204 -0.2124  0.3504 -0.0828
 6270W        W10334  10.654   6.360   8.883  0.1121  0.1119 -0.7353
 6271W        W10335   6.116   3.942   0.922  0.2824  0.2333 -0.0913
 6272W        W10336   8.685   4.430   0.509  0.0759  0.0499 -0.3059
 6273W        W10337   9.102   4.459   2.906 -0.0342 -0.0079  0.1892
 6274W        W10338   3.660   9.470   2.507 -0.1534 -0.0028 -0.0071
 6275W        W10339   7.502   3.748   2.885  0.0089 -0.0922 -0.0527
 6276W        W10340   9.939   6.907   8.038  0.3314 -0.0896  0.1707
 6277W        W10341   7.796   4.076   8.980 -0.0773 -0.0235  0.2123
 6278W        W10342   9.535   8.173  10.568 -0.3658  0.0017  0.2890
 6279W        W10343   9.379   4.540   8.298  0.3593  0.0345 -0.0735
 6280W        W10344   8.428   6.140   8.339  0.0787  0.0970 -0.0496
 6281W        W10345   4.831   6.382  10.868 -0.1818  0.0772 -0.1094
 6282W        W10346   9.476   7.734   2.250  0.1128 -0.2524  0.4853
 6283W        W10347  10.626   6.045   7.446  0.3306 -0.1712 -0.0378
 6284W        W10348   1.860   8.370   7.140  0.0471 -0.2400 -0.2263
 6285W        W10349   5.758   7.396   9.523 -0.2285  0.0607 -0.0252
 6286W        W10350   1.592  10.677   8.513 -0.2528  0.2095  0.0521
 6287W        W10351   8.338   6.200  11.087 -0.0386  0.2879  0.1214
 6288W        W10352   2.230   6.648   0.939 -0.1685  0.0766  0.3627
 6289W        W10353   2.130   4.238   8.945 -0.0635 -0.1901  0.0871
 6290W        W10354   6.041   5.453  10.564  0.0478 -0.1488 -0.4734
 6291W        W10355  10.758   1.648   3.335  0.1005  0.0240 -0.1646
 6292W        W10356   1.944   4.745  11.285 -0.0878 -0.1104  0.3283
 6293W        W10357   1.796   6.968   3.665 -0.1862  0.0443 -0.1476
 6294W        W10358   8.762   2.757   3.584 -0.0205 -0.2173  0.1629
 6295W        W10359  10.699   3.108   1.933  0.1473 -0.0267 -0.1353
 6296W        W10360   8.489   3.345   0.378  0.2438 -0.0303 -0.0339
 6297W        W10361   1.398   2.692   9.290  0.0391  0.2369 -0.4483
 6298W        W10362   6.671   8.184   8.063 -0.1891 -0.3912  0.0117
 6299W        W10363   0.266   6.583   0.661 -0.0562 -0.3436 -0.0144
 6300W        W10364   5.124   9.784  10.078  0.0714  0.4470  0.1490
 6301W        W10365   9.838   5.709  10.363  0.0691 -0.0201  0.1902
 6302W        W10366   2.020   0.221   3.373 -0.1695  0.0466  0.1270
 6303W        W10367   0.203   0.968   8.662 -0.1054 -0.1123 -0.0585
 6304W        W10368   5.977   6.748   0.127  0.1634  0.0821  0.2853
 6305W        W10369   0.868   6.170   8.446  0.0196 -0.0216 -0.1130
 6306W        W10370   5.629   5.051   1.875 -0.2379 -0.0137 -0.0957
 6307W        W10371   2.507   9.811   9.029  0.1385 -0.0913  0.2538
 6308W        W10372   5.908   5.756   0.562 -0.0422 -0.1848  0.2531
 6309W        W10373   1.563   9.359   1.126  0.0322 -0.1662  0.2576
 6310W        W10374   9.926   7.124   2.094  0.0366  0.1206 -0.0902
 6311W        W10375   7.266   9.975   1.750  0.2018  0.1681  0.3942
 6312W        W10376   7.976   9.989   2.301 -0.3203  0.3755  0.3629
 6313W        W10377   9.989   5.193   1.578 -0.1979 -0.0618  0.0449
 6314W        W10378   0.394   5.702  10.032 -0.4601  0.3142  0.0638
 6315W        W10379   1.983   6.111   7.460 -0.3040  0.0648 -0.0960
 6316W        W10380   7.254   6.028   2.633 -0.2364 -0.4765 -0.2294
 6317W        W10381   3.896   7.328   7.081  0.0930 -0.1720  0.2908
 6318W        W10382   2.757   4.889   7.933  0.0140 -0.0921  0.1814
 6319W        W10383   5.522   4.335   8.603  0.1279  0.0161  0.0788
 6320W        W10384   2.190   9.228   7.496  0.1437  0.1302 -0.0350
 6321W        W10385  10.382  10.407  10.146  0.0663  0.4233 -0.1705
 6322W        W10386   1.649   7.880   1.010 -0.0799 -0.0151  0.0418
 6323W        W10387   1.903   5.213   0.108 -0.0014 -0.6203 -0.0456
 6324W        W10388   7.663  10.344   0.262 -0.4143  0.0610 -0.3866
 6325W        W10389   8.988   5.433   8.729  0.0122 -0.2772 -0.1024
 6326W        W10390   5.641   4.479   0.114  0.3859 -0.0298  0.1990
 6327W        W10391   3.453  10.470   0.858  0.1378  0.0841  0.1659
 6328W        W10392   1.438   1.156  10.709  0.2050  0.0295  0.2767
 6329W        W10393   4.196   7.373   7.516  0.2294  0.3437 -0.0990
 6330W        W10394   1.475   4.620  10.533 -0.0353  0.0710  0.0801
 6331W        W10395   5.304   9.624   3.968 -0.0011 -0.0077 -0.0858
 6332W        W10396   9.579   4.578  10.094  0.2623 -0.2254  0.5091
 6333W        W10397   8.995   5.404   1.508 -0.1175 -0.3612 -0.1986
 6334W        W10398  10.506   0.863  10.559 -0.0386 -0.0796  0.0191
 6335W        W10399   1.855   3.383   8.546  0.1436  0.0452 -0.2969
 6336W        W10400   5.939   2.018   2.031 -0.1079 -0.1205  0.0525
 6337W        W10401   1.813   5.112   7.904 -0.2535  0.4379  0.1013
 6338W        W10402   7.262   7.549   2.630 -0.0801 -0.2896  0.2073
 6339W        W10403   4.473   2.022   0.025 -0.1663 -0.0763  0.0127
 6340W        W10404  10.547   4.803   9.694  0.3294 -0.1880  0.0900
 6341W        W10405   1.013  10.126   9.559 -0.0244  0.0898 -0.0794
 6342W        W10406   8.686   6.247   7.097  0.1500 -0.4485 -0.1910
 6343W        W10407   7.526   2.810   2.765  0.0415 -0.1942  0.1167
 6344W        W10408  10.518   6.839   9.649  0.0654  0.0942  0.1475
 6345W        W10409   2.061   5.050   1.947  0.0479  0.0586 -0.0523
 6346W        W10410   0.595  10.272  11.262  0.0179 -0.1739 -0.0184
 6347W        W10411   4.164   0.793  10.077 -0.1804 -0.0096 -0.0467
 6348W        W10412   8.478   7.328   0.811 -0.0170 -0.1718  0.0078
 6349W        W10413   1.717  10.624  10.412  0.2448 -0.1690 -0.1422
 6350W        W10414   1.048   5.072   9.860  0.2278 -0.2345 -0.1578
 6351W        W10415   1.013   6.258  10.363 -0.0421 -0.3183 -0.5018
 6352W        W10416   7.405   5.973   9.550  0.1730 -0.0227 -0.3918
 6353W        W10417   8.075   2.701   0.225  0.1528 -0.1193  0.1182
 6354W        W10418   2.622  10.493   0.436 -0.2129  0.0511 -0.1081
 6355W        W10419  10.182   2.114   2.030 -0.1093  0.0784  0.0929
 6356W        W10420   9.972   1.081   0.623  0.1378  0.2780  0.2467
 6357W        W10421   6.000   1.491   9.489 -0.0991  0.1885  0.0876
 6358W        W10422   4.218   3.507   8.385 -0.1862 -0.0780 -0.0237
 6359W        W10423   3.065   9.100  10.619 -0.1437  0.1453  0.1086
 6360W        W10424   2.689   0.975   9.005  0.2599 -0.2701  0.1062
 6361W        W10425  10.271   9.367  10.977 -0.3585  0.2916  0.0022
 6362W        W10426   9.033   2.131   8.645  0.1232  0.1645  0.1804
 6363W        W10427   2.516   5.828   9.298 -0.2489 -0.0289  0.1342
 6364W        W10428   2.844   7.969   2.700 -0.1773  0.0329 -0.1979
 6365W        W10429   7.527  10.329   8.694 -0.0844  0.0310  0.0902
 6366W        W10430   0.506   9.122   8.624 -0.1839  0.3729  0.1598
 6367W        W10431   9.831   8.486   0.065  0.0701 -0.3781  0.2632
 6368W        W10432   7.206   8.219   1.822  0.1825 -0.0576  0.1893
 6369W        W10433   4.853   7.145   8.077  0.2094 -0.0843  0.0145
 6370W        W10434   3.836   3.549   9.759  0.1836  0.0140  0.2927
 6371W        W10435   2.151   7.472   9.700  0.0666  0.1125  0.0612
 6372W        W10436   2.833   1.241   0.655  0.1179  0.2234 -0.2094
 6373W        W10437   7.219   8.254   3.218  0.1865  0.1523  0.1615
 6374W        W10438   1.528   1.718   3.005 -0.0435  0.0974 -0.4586
 6375W        W10439   7.912   7.164   9.049  0.0604 -0.2152  0.2220
 6376W        W10440   2.482   3.241   9.987  0.1813  0.2981  0.1353
 6377W        W10441   7.269   5.669   0.881 -0.0301 -0.0154  0.0876
 6378W        W10442   2.207   4.999   6.867 -0.1181  0.0187  0.0690
 6379W        W10443   2.214   1.443   8.123  0.2237 -0.0632  0.0334
 6380W        W10444   6.193   9.181   3.542  0.0094 -0.1322 -0.1793
 6381W        W10445   1.322   7.148   2.876  0.0126  0.1162  0.2082
 6382W        W10446   8.269   3.745   7.403 -0.4297  0.0411  0.0284
 6383W        W10447   2.613   8.600   8.138 -0.0810 -0.1042 -0.0071
 6384W        W10448   6.294  10.501   3.012  0.1396  0.0927 -0.1777
 6385W        W10449   3.625  10.653   1.276  0.0198  0.1580  0.0679
 6386W        W10450   3.481   5.550   8.695 -0.3001  0.3239  0.3593
 6387W        W10451   9.661   6.071   8.325 -0.1339  0.2246  0.2386
 6388W        W10452   5.853   0.120   2.437 -0.0921  0.0607 -0.1136
 6389W        W10453   9.160   3.647   1.203  0.0825 -0.0977  0.2927
 6390W        W10454   6.477   4.660   0.404 -0.0063 -0.0035  0.1069
 6391W        W10455   3.438   8.624   0.834 -0.0684  0.0981  0.0681
 6392W        W10456   4.695   1.432   9.593  0.1015  0.0857 -0.0693
 6393W        W10457   1.504  10.775   9.992 -0.1005  0.1528  0.0009
 6394W        W10458  10.766   5.325  10.048 -0.1092 -0.0338  0.1083
 6395W        W10459   8.387   2.927   3.186  0.0361  0.1648  0.2490
 6396W        W10460   5.562  10.132   3.205  0.1554  0.0376 -0.0344
 6397W        W10461   2.328   7.257   8.592 -0.1494 -0.2427 -0.0942
 6398W        W10462   8.397   3.599   3.679 -0.1564  0.2373 -0.1435
 6399W        W10463   6.116   5.915   2.067  0.1236  0.0657 -0.1430
 6400W        W10464   9.921   8.680   1.449  0.0271  0.1852 -0.2731
 6401W        W10465  10.635   4.686   2.582  0.0688 -0.1483  0.1354
 6402W        W10466   8.038   3.380   9.695  0.1481  0.1093  0.1692
 6403W        W10467   4.619   5.098   2.860  0.0462 -0.2152  0.0386
 6404W        W10468   5.485   4.067   0.344 -0.3093 -0.0268  0.0812
 6405W        W10469   2.956   2.466   2.506 -0.2824 -0.0426  0.2097
 6406W        W10470   6.022   5.498  11.080  0.0128 -0.4662  0.1066
 6407W        W10471   8.760   2.118  10.839 -0.2060 -0.1106 -0.0621
 6408W        W10472   7.907   6.549   7.079 -0.0570  0.1895 -0.3094
 6409W        W10473   1.398   8.124   0.072 -0.1436  0.4639  0.3539
 6410W        W10474  10.670   8.681   0.691 -0.2530  0.2821  0.1756
 6411W        W10475   1.527   2.314  10.965 -0.1328  0.0403 -0.3563
 6412W        W10476   4.135   3.939   8.640  0.3171 -0.0687  0.0129
 6413W        W10477   8.162   7.838   1.694  0.0216 -0.1867 -0.0080
 6414W        W10478   2.647   4.520   1.953 -0.0646 -0.1124  0.1988
 6415W        W10479   2.176   7.002   2.797  0.2246 -0.2128  0.0165
 6416W        W10480   1.227   0.690   9.567  0.2764 -0.1865  0.7812
 6417W        W10481  10.306   8.664   1.990 -0.2614 -0.4131 -0.1118
 6418W        W10482   2.404   7.608  11.261 -0.1271 -0.1236 -0.1774
 6419W        W10483   9.196   6.595  11.183 -0.3504  0.0873 -0.1423
 6420W        W10484   5.358   6.122   7.351 -0.0293 -0.0640 -0.0164
 6421W        W10485   0.447   5.308   2.189  0.0541  0.0687 -0.0456
 6422W        W10486   7.952   6.434   0.651  0.0196  0.1291  0.0704
 6423W        W10487   9.824   4.912   7.580 -0.0407  0.0788 -0.3619
 6424W        W10488   1.083   1.018  10.412 -0.0418 -0.2415  0.2610
 6425W        W10489   8.452   9.241   9.644 -0.0260  0.0133  0.0249
 6426W        W10490   7.465   3.391   1.025 -0.0823  0.0822  0.1849
 6427W        W10491   4.251   7.574   8.303  0.0290  0.0422 -0.0286
 6428W        W10492   2.365   8.739   7.737 -0.0811 -0.0419  0.1326
 6429W        W10493   0.538   3.311   7.530  0.0016 -0.4082 -0.1299
 6430W        W10494   0.743   9.401   9.781  0.0812 -0.0460  0.0933
 6431W        W10495  10.725  10.583   0.593 -0.0844 -0.0216  0.3284
 6432W        W10496  10.407   3.575   7.928  0.1727  0.1811  0.2534
 6433W        W10497  10.533   6.675   2.267 -0.1515 -0.3079 -0.1026
 6434W        W10498   5.002   3.833  10.620  0.1039 -0.0021  0.3719
 6435W        W10499   3.471   9.030   9.340 -0.0728 -0.0996 -0.3026
 6436W        W10500  10.774   3.554   2.168 -0.2282  0.4036  0.0481
 6437W        W10501   5.870   1.071   2.169  0.2231  0.1124 -0.1296
 6438W        W10502   8.657   1.860   8.381 -0.2413 -0.2158  0.1147
 6439W        W10503   2.576   9.761   8.124  0.3276  0.0110  0.2401
 6440W        W10504   6.051   2.327   9.342  0.3354  0.0964  0.0202
 6441W        W10505   1.897   5.300   9.633  0.0682  0.0262 -0.2754
 6442W        W10506   5.745   9.027   9.752  0.0153 -0.0952  0.0445
 6443W        W10507   6.731   7.267   1.618  0.0378  0.0100 -0.6813
 6444W        W10508   7.821   2.357   8.787  0.2290  0.3154  0.0710
 6445W        W10509   8.131   5.445   2.645  0.2416 -0.2209  0.1441
 6446W        W10510   4.219   3.434   0.463 -0.0093 -0.1084 -0.0677
 6447W        W10511   8.086   3.980  11.029  0.1007 -0.1705 -0.2367
 6448W        W10512   3.719   2.224   0.892  0.0038  0.0709  0.0114
 6449W        W10513   7.271   9.786   0.728  0.0062  0.2718  0.0009
 6450W        W10514   1.784   5.190   9.102  0.3062  0.1850  0.0067
 6451W        W10515   4.532   2.417   2.749  0.0205  0.2190 -0.1451
 6452W        W10516   3.793   7.411   0.876  0.0541  0.0252  0.0741
 6453W        W10517   3.252   7.070   8.963 -0.1600 -0.0190  0.0555
 6454W        W10518   5.253   6.306   0.544  0.2331  0.1580  0.1012
 6455W        W10519   8.289   4.759   7.055 -0.1279  0.0063 -0.2310
 6456W        W10520   8.364   4.309   8.322 -0.2923  0.0378  0.1333
 6457W        W10521   3.373   8.849   1.613  0.1533  0.1694 -0.1491
 6458W        W10522   6.770   2.463   9.850 -0.2172 -0.0417 -0.0173
 6459W        W10523   2.536   4.421   1.444 -0.1545  0.1383 -0.1191
 6460W        W10524   9.156   0.047   6.790 -0.0721  0.1128 -0.1458
 6461W        W10525   1.020   3.657   0.584  0.3008 -0.3032  0.2107
 6462W        W10526   5.535   6.062  10.033  0.2709 -0.3110 -0.1106
 6463W        W10527   7.735   2.455  11.269  0.1338 -0.0805 -0.0672
 6464W        W10528   8.215  10.702   0.063  0.0024 -0.0782 -0.1540
 6465W        W10529   9.839   5.452   0.547 -0.1916  0.1688 -0.0557
 6466W        W10530   0.555   1.538   8.085 -0.1239 -0.2585  0.1615
 6467W        W10531   2.436   4.505   9.308 -0.0510 -0.1964 -0.0295
 6468W        W10532   1.238   6.338   0.128  0.0960  0.0280  0.3025
 6469W        W10533   6.835   4.638   8.847 -0.2967 -0.0251  0.1082
 6470W        W10534   2.549   3.012   9.471 -0.0897  0.1825 -0.0855
 6471W        W10535   5.087   5.995   1.161  0.1016 -0.0274 -0.0250
 6472W        W10536   1.266   3.986   2.808  0.1374  0.0875  0.4155
 6473W        W10537   8.258   9.117   1.455  0.1218  0.0276  0.1664
 6474W        W10538   2.988   5.782  11.111 -0.1606  0.0730  0.0306
 6475W        W10539   2.559   9.607   6.685  0.0185  0.1253  0.4222
 6476W        W10540   6.278   6.121   9.511 -0.0457  0.0321  0.0094
 6477W        W10541   2.460   5.423   8.595  0.0433  0.1433  0.0974
 6478W        W10542   9.783   9.290  11.227  0.0838 -0.0049  0.1359
 6479W        W10543   1.925   2.721  10.676 -0.0699  0.2521 -0.0271
 6480W        W10544   8.522   2.817   0.035 -0.0214  0.1822  0.1508
 6481W        W10545   5.286   8.535   0.586 -0.2997  0.0569  0.4056
 6482W        W10546   0.664   7.004   8.458 -0.0784 -0.0325 -0.0255
 6483W        W10547   2.807   6.136   2.899  0.2177 -0.0526 -0.0310
 6484W        W10548   4.824   8.511   0.958 -0.0226 -0.1838  0.1315
 6485W        W10549   8.431   6.202  10.594 -0.1804 -0.1427 -0.0483
 6486W        W10550   7.481   0.972   1.756 -0.2394  0.3038  0.0134
 6487W        W10551   6.210   8.286   6.834  0.0551 -0.1526 -0.1037
 6488W        W10552  10.254   9.100   0.693 -0.3539  0.0166  0.1114
 6489W        W10553   4.563   6.405   1.939  0.1289 -0.2661 -0.0473
 6490W        W10554   2.810   1.845   0.923 -0.0555 -0.3387 -0.1217
 6491W        W10555   4.452   6.511  10.363  0.1422 -0.0637 -0.1579
 6492W        W10556  10.498   9.175   2.018  0.2510 -0.0103  0.0731
 6493W        W10557   2.312   6.242  10.299 -0.0351 -0.1166  0.0008
 6494W        W10558   4.513   9.546   1.912 -0.1105 -0.1641  0.0646
 6495W        W10559   3.274  10.364   8.714 -0.1464 -0.1709 -0.1962
 6496W        W10560   9.793   8.648   1.943  0.3186 -0.1265 -0.0205
 6497W        W10561   8.826   5.804   0.325 -0.2350 -0.1964 -0.2071
 6498W        W10562   8.943   7.913   2.180 -0.0545 -0.2212  0.2974
 6499W        W10563   5.572   8.175   2.729  0.2154  0.0110 -0.1852
 6500W        W10564   2.925   1.372   8.097  0.0207  0.1577 -0.0050
 6501W        W10565   2.616   2.854   0.192 -0.2031 -0.2093 -0.0481
 6502W        W10566   5.686   5.029   2.396  0.2500  0.0713  0.1445
 6503W        W10567   4.111   2.213   8.037 -0.2759  0.3236  0.0187
 6504W        W10568   6.623   5.129   7.933 -0.0432 -0.0729 -0.2269
 6505W        W10569  10.597   7.290   9.361 -0.1413 -0.1245  0.2495
 6506W        W10570   1.803   9.817   9.973 -0.2285  0.1431 -0.0355
 6507W        W10571   6.545  10.041   3.194  0.0586 -0.0812 -0.1678
 6508W        W10572   5.671   5.839   3.037  0.1144 -0.0809 -0.0479
 6509W        W10573   7.925   3.850   0.221 -0.3567 -0.0049 -0.2957
 6510W        W10574  10.717   0.003  11.085  0.1905 -0.0847  0.1756
 6511W        W10575   5.443   7.695   2.820  0.0636  0.1081 -0.2539
 6512W        W10576   9.484   7.130   1.679  0.1254 -0.1015  0.0255
 6513W        W10577   7.973   3.328   0.353 -0.1004  0.1231  0.2343
 6514W        W10578   0.818   8.733   0.417  0.2432  0.3599 -0.0184
 6515W        W10579   6.346   2.045   4.033 -0.3438  0.1561 -0.0187
 6516W        W10580   4.320   5.642   3.544 -0.2661 -0.2825  0.1906
 6517W        W10581   8.064   3.944   1.055  0.0957  0.0028  0.0562
 6518W        W10582   7.456   0.007   2.278  0.3452 -0.0645 -0.3319
 6519W        W10583   0.617   3.191   8.406  0.1896 -0.2191 -0.0640
 6520W        W10584   7.156   7.244   1.341 -0.0273 -0.0782  0.0798
 6521W        W10585   2.200   2.342   2.552  0.0092  0.2078 -0.0256
 6522W        W10586   5.857   0.668   2.504  0.2973  0.1500  0.1020
 6523W        W10587   7.579   5.894   1.886  0.1659  0.1694 -0.0688
 6524W        W10588   1.029   3.735   8.441  0.1126 -0.0098  0.0982
 6525W        W10589   6.880   1.569   3.176  0.0908 -0.0592 -0.1764
 6526W        W10590   9.310   6.769   9.288  0.1048 -0.0718 -0.0190
 6527W        W10591   6.439   4.481   9.109 -0.1189 -0.1283  0.2106
 6528W        W10592   6.716   9.158  10.769 -0.0249  0.0299 -0.1614
 6529W        W10593   1.444   0.228   8.140 -0.0058 -0.0810  0.3998
 6530W        W10594   1.693   9.558   2.177 -0.4466 -0.1784  0.1484
 6531W        W10595   3.076   4.682   9.023  0.2110 -0.0118  0.4824
 6532W        W10596   6.663   9.943  10.491  0.0316  0.2705  0.4203
 6533W        W10597   1.837   8.116   2.293  0.0956  0.0724  0.2375
 6534W        W10598   1.306   9.298   1.652  0.0775  0.1615  0.3577
 6535W        W10599   0.395   1.169   1.276  0.0761 -0.0256  0.1332
 6536W        W10600   0.859   9.671   9.350  0.2912  0.1250 -0.0713
 6537W        W10601  10.033  10.287   1.021 -0.1496 -0.2647  0.2454
 6538W        W10602   8.005   5.008   6.680  0.1666 -0.1790  0.0699
 6539W        W10603   5.335   1.523   3.367  0.1113 -0.3267 -0.1448
 6540W        W10604  10.066   7.771  10.664  0.1461  0.1730  0.2612
 6541W        W10605   3.548   3.015   3.311 -0.0927 -0.1749 -0.1484
 6542W        W10606   0.126   2.903   8.743 -0.1780 -0.0620 -0.0817
 6543W        W10607   1.651   1.959   9.658 -0.0311  0.0714 -0.1788
 6544W        W10608   1.426   7.103  10.690 -0.2070 -0.2421 -0.0575
 6545W        W10609   1.953   3.998   2.264 -0.0153  0.0036  0.1398
 6546W        W10610   2.936   4.899   7.474  0.2758 -0.0956  0.2883
 6547W        W10611   4.463   1.317   9.995  0.2219 -0.0082  0.1071
 6548W        W10612   4.272   9.877  10.555  0.1347 -0.0279  0.1286
 6549W        W10613   4.541   7.274  10.403 -0.1111  0.2065 -0.0410
 6550W        W10614   1.941   1.547   2.805 -0.1729  0.0136  0.2115
 6551W        W10615  10.052   0.485   7.337 -0.1068 -0.0355 -0.1662
 6552W        W10616   9.787   9.710  10.878  0.0205 -0.2326  0.0995
 6553W        W10617   5.902   6.932  10.371 -0.0834 -0.0932  0.0193
 6554W        W10618   1.277   3.573  10.215  0.3442 -0.0891 -0.0016
 6555W        W10619   6.586   5.856   9.124  0.0625  0.3159  0.2930
 6556W        W10620   8.362   6.686   8.883  0.3851  0.1817  0.0518
 6557W        W10621   9.295   0.445   2.004 -0.1269 -0.1760 -0.2712
 6558W        W10622   7.766   5.353   9.946  0.0905  0.0409 -0.2546
 6559W        W10623   7.397   9.597   8.036  0.2470 -0.0351 -0.1484
 6560W        W10624   4.818   2.375   9.599 -0.0933 -0.3023  0.0635
 6561W        W10625   7.303   8.446   2.396 -0.1195 -0.1583 -0.0479
 6562W        W10626   6.138   5.076   1.592  0.1855  0.1620 -0.0475
 6563W        W10627   0.899   1.850   2.118  0.0528 -0.0686  0.0980
 6564W        W10628  10.112   6.963   2.601  0.4279  0.2087  0.2239
 6565W        W10629   4.911   7.358   8.578 -0.1056 -0.1041  0.0068
 6566W        W10630  10.634   7.073  10.122  0.0745 -0.0225 -0.2991
 6567W        W10631   5.005   2.207  10.048  0.0431 -0.1675 -0.0072
 6568W        W10632   3.813   3.560   8.807  0.0335  0.0215  0.1833
 6569W        W10633  10.478   5.767   2.341 -0.0767  0.1235  0.2290
 6570W        W10634   1.083   6.633   8.318  0.1564 -0.0396 -0.1846
 6571W        W10635   7.552   8.844   2.144  0.1172  0.1158 -0.1101
 6572W        W10636   3.152   5.961  10.231 -0.0575 -0.1207  0.1779
 6573W        W10637   9.434   0.650   8.015  0.0527  0.2196 -0.2099
 6574W        W10638   2.373   5.018   7.350  0.1982 -0.5043 -0.3589
 6575W        W10639   6.056   6.870   9.904 -0.3212  0.0612  0.1967
 6576W        W10640   5.721   4.727   1.492  0.1731  0.0343 -0.2494
 6577W        W10641   1.485  10.516   7.962 -0.1412  0.1519 -0.1575
 6578W        W10642   7.397   5.567   0.402 -0.2572 -0.1733  0.0518
 6579W        W10643   1.770   2.378   8.281 -0.1618  0.0964 -0.2381
 6580W        W10644   8.826   5.944   9.064 -0.2593  0.0916 -0.1216
 6581W        W10645   9.269   5.675   7.665  0.2089 -0.4478  0.0827
 6582W        W10646   8.549   6.993   0.421  0.1378  0.2715  0.1255
 6583W        W10647   9.497   8.671   8.037  0.1879  0.3062  0.2320
 6584W        W10648   5.359   4.146   2.140  0.2852 -0.2126 -0.3315
 6585W        W10649   8.255   9.378  11.221 -0.2639 -0.0554 -0.1015
 6586W        W10650   6.711   2.861   0.346 -0.0204  0.0174 -0.0560
 6587W        W10651   6.849   1.318   2.170 -0.0466 -0.0945  0.0478
 6588W        W10652  10.106   5.462   2.468 -0.3048  0.1706 -0.0005
 6589W        W10653   3.473   9.570   1.140 -0.0700  0.1947  0.0984
 6590W        W10654   4.911   6.086   7.772 -0.0151  0.3366  0.3352
 6591W        W10655   6.094   4.510  11.228 -0.2342 -0.0066 -0.3460
 6592W        W10656   5.721  10.605   2.877  0.1959  0.0923 -0.4915
 6593W        W10657   2.493   3.665  11.006  0.0667 -0.0799 -0.0600
 6594W        W10658   0.182   5.686   9.574  0.2408  0.0729  0.2449
 6595W        W10659   5.936   9.713  10.897 -0.0268 -0.1275 -0.0128
 6596W        W10660   8.475   2.197  10.120  0.0294  0.1148  0.0751
 6597W        W10661   5.262  10.128   4.005 -0.1476  0.5102  0.1255
 6598W        W10662   1.959   7.410   7.256  0.0338  0.1565  0.2251
 6599W        W10663   7.360   1.202   9.961 -0.1656  0.2952 -0.2357
 6600W        W10664   2.942   2.967   8.970  0.0751 -0.1014 -0.1913
 6601W        W10665   6.522  10.684   1.676  0.2921 -0.1545  0.0342
 6602W        W10666   1.633   7.409  10.276  0.1863  0.2158 -0.3336
 6603W        W10667   2.064   8.554  10.557 -0.1103 -0.0246  0.0347
 6604W        W10668   1.194   8.408   7.751  0.0322 -0.0633 -0.2007
 6605W        W10669   6.185   4.015   9.229 -0.0327 -0.1861 -0.1492
 6606W        W10670   1.961   2.675   0.031 -0.1622 -0.3736 -0.1837
 6607W        W10671  10.037   7.390   7.477  0.1664 -0.1358  0.2472
 6608W        W10672   4.149   0.868   8.962  0.1226 -0.1678  0.0684
 6609W        W10673   0.446   8.930   7.094  0.1814 -0.0283  0.1292
 6610W        W10674   7.973   5.034   9.430  0.0318 -0.0275 -0.1950
 6611W        W10675   2.560   1.027   8.241 -0.0853  0.0214 -0.0787
 6612W        W10676   2.366   0.047   8.289 -0.0879  0.3155 -0.0456
 6613W        W10677   7.950   0.207   1.338  0.1064 -0.0180 -0.1890
 6614W        W10678  10.247   8.456   8.954  0.0144  0.1559 -0.0687
 6615W        W10679  10.217  10.143   9.230  0.2109 -0.1278 -0.1495
 6616W        W10680  10.409   4.232   9.197  0.0221  0.0134 -0.0852
 6617W        W10681   6.934   2.705   1.526 -0.1237 -0.3455 -0.0154
 6618W        W10682   8.498   9.195   2.876  0.0764  0.0390 -0.0209
 6619W        W10683   9.160   9.499   0.437  0.3684 -0.2721  0.0810
 6620W        W10684  10.463   2.727   7.507 -0.1508 -0.1056 -0.1227
 6621W        W10685   8.789  10.470   7.579  0.3085  0.2208 -0.3420
 6622W        W10686   1.661   5.384   2.320 -0.0801  0.1337 -0.2232
 6623W        W10687   0.912   8.086   2.885 -0.1422  0.3240 -0.0199
 6624W        W10688  10.759   4.355   9.653  0.0728  0.2926  0.0252
 6625W        W10689   9.851   2.268  10.088  0.0039  0.1143  0.3540
 6626W        W10690   8.690   2.139   9.635 -0.2134  0.3167  0.1826
 6627W        W10691   1.733   7.747  11.241  0.2520  0.1704 -0.0814
 6628W        W10692   3.576   4.563   8.806 -0.2503  0.0258  0.3273
 6629W        W10693   5.391   0.888   3.512 -0.1122  0.0457  0.0379
 6630W        W10694   6.392   5.629   1.394 -0.0105  0.1604  0.1132
 6631W        W10695   8.443   1.250   1.469  0.0229 -0.2187  0.2897
 6632W        W10696   9.230   6.763   8.443 -0.2545 -0.2214 -0.0801
 6633W        W10697   3.883   0.269  10.341  0.0700  0.0085  0.0010
 6634W        W10698   6.290   2.062   0.757 -0.0775 -0.0041  0.2595
 6635W        W10699  10.115   7.143   9.478 -0.0858 -0.2503  0.0479
 6636W        W10700  10.554   1.490   9.330  0.1273  0.1272  0.0033
 6637W        W10701   9.940   7.292  10.938  0.2138 -0.1646 -0.2960
 6638W        W10702   4.716   0.593   3.050  0.0529 -0.2774  0.3997
 6639W        W10703   8.820   1.181   0.995  0.2369 -0.2285 -0.0577
 6640W        W10704   3.525  10.011   7.748  0.0140 -0.1073  0.0916
 6641W        W10705   8.178   1.768   1.648 -0.3868  0.0125 -0.1381
 6642W        W10706   1.013   1.342   8.210  0.3975 -0.0719 -0.2599
 6643W        W10707  10.123   7.842  10.170 -0.3314  0.1980  0.2023
 6644W        W10708   0.429   3.819   8.294  0.2987 -0.0759  0.0828
 6645W        W10709   7.168   9.358   2.144  0.2511 -0.0069  0.2601
 6646W        W10710   3.775  10.671   2.998  0.2256  0.0425 -0.2803
 6647W        W10711   7.590   1.771   1.305  0.0811 -0.1336  0.2349
 6648W        W10712   1.245   5.178   7.969  0.0279 -0.1093  0.0690
 6649W        W10713   9.043   8.071   8.142  0.0979 -0.1364 -0.1500
 6650W        W10714   5.113   2.613  11.069  0.3649  0.0945 -0.1992
 6651W        W10715  10.316   2.652   0.670  0.2831  0.0879  0.1212
 6652W        W10716   9.889   4.195   0.059 -0.0509 -0.4163  0.1333
 6653W        W10717  10.625   0.049  10.173 -0.3235  0.1824 -0.0136
 6654W        W10718   7.583   6.121   9.986 -0.3475 -0.0999  0.2053
 6655W        W10719   7.976   1.807  10.760 -0.0507  0.0295  0.1931
 6656W        W10720   1.192   7.093   1.933 -0.1096 -0.2670 -0.2287
 6657W        W10721   8.355   0.509   0.928  0.0276  0.1395 -0.0109
 6658W        W10722   2.198   3.943   1.024  0.0936  0.0782  0.0925
 6659W        W10723   8.629   1.721   2.559 -0.0374 -0.2389 -0.0867
 6660W        W10724   7.197   8.777   8.642 -0.2330  0.0026 -0.0038
 6661W        W10725   1.510   1.464   9.690  0.0545 -0.0321 -0.2080
 6662W        W10726   4.245   4.204   2.742  0.0903  0.0976 -0.2977
 6663W        W10727   0.809   9.198   2.111 -0.1188 -0.0892  0.1805
 6664W        W10728   8.464   5.115   0.879 -0.1951  0.3403 -0.0654
 6665W        W10729   9.674   2.736   8.528 -0.1133 -0.0269 -0.1837
 6666W        W10730   7.154   6.868   1.840 -0.2576 -0.1008 -0.3692
 6667W        W10731   5.892   8.637   8.410 -0.3505  0.1183  0.0707
 6668W        W10732   9.535   3.664   7.666 -0.0635  0.0325 -0.0865
 6669W        W10733  10.704   2.392   2.860  0.1545  0.2156 -0.0793
 6670W        W10734   9.978   4.742   9.403  0.0961  0.0255  0.1433
 6671W        W10735   7.414   6.848   9.726  0.1712 -0.0974  0.0770
 6672W        W10736   9.259   3.422   2.626  0.0155  0.3270 -0.2956
 6673W        W10737   4.832   9.534   2.620 -0.1985 -0.1573  0.0297
 6674W        W10738   3.224   7.867   6.719 -0.1196 -0.1982  0.0588
 6675W        W10739   5.586   7.084  10.018  0.3115 -0.0360 -0.0305
 6676W        W10740   2.160   1.991  10.589  0.0503 -0.1255 -0.4616
 6677W        W10741   9.998   2.909   8.894  0.2313 -0.0269  0.1125
 6678W        W10742   7.933   9.254   9.666 -0.0119  0.0552 -0.1550
 6679W        W10743   7.459   7.919   6.745 -0.2959 -0.0375 -0.0138
 6680W        W10744   3.468   6.958   0.264  0.0636 -0.1411 -0.1590
 6681W        W10745   1.792   8.018   2.815  0.0394 -0.0264 -0.0005
 6682W        W10746   0.538   2.627   0.257 -0.1163  0.0490  0.1721
 6683W        W10747   8.209   2.267  11.256 -0.0310 -0.1574 -0.0018
 6684W        W10748   5.857   1.219   0.825  0.0201  0.0760 -0.3495
 6685W        W10749   8.930   3.664  10.206 -0.1811 -0.0478 -0.1086
 6686W        W10750   4.890   4.228   3.555 -0.3045 -0.2692 -0.1551
 6687W        W10751   9.451   4.125  10.345 -0.3100 -0.1621 -0.0525
 6688W        W10752   8.911   0.995   1.538 -0.0346 -0.2024 -0.2531
 6689W        W10753   1.862   4.808   7.430  0.0664  0.1159  0.0745
 6690W        W10754   1.411   2.741   2.995  0.2916 -0.0524 -0.1621
 6691W        W10755  10.087   6.503   0.956 -0.3196 -0.1329  0.1761
 6692W        W10756   3.766   6.027   2.358 -0.2313 -0.1268 -0.1152
 6693W        W10757   6.136   2.437  11.064 -0.0940 -0.0235 -0.3450
 6694W        W10758   3.435   4.942   1.622  0.0726  0.0975 -0.1150
 6695W        W10759   4.761   4.845   1.835 -0.0354  0.2196  0.1693
 6696W        W10760   8.426   7.327   9.008 -0.0021 -0.0697  0.0604
 6697W        W10761   0.886   1.697   0.000 -0.1707  0.0779 -0.2765
 6698W        W10762   7.155   3.510  11.214  0.2039 -0.1998 -0.2015
 6699W        W10763   1.403   2.784   3.491  0.0358 -0.2580 -0.0714
 6700W        W10764  10.458   5.798   9.390  0.2777 -0.0115 -0.4042
 6701W        W10765   0.650   2.778   7.453  0.0015  0.3309 -0.3382
 6702W        W10766   1.812   8.450   3.165 -0.0509  0.0060  0.1751
 6703W        W10767   8.808  10.327  10.341  0.0649  0.1681 -0.1095
 6704W        W10768   5.196   1.498   2.827  0.0880 -0.1060 -0.1399
 6705W        W10769   4.751   3.080  10.979 -0.0611  0.2542  0.0872
 6706W        W10770   1.306   8.106   2.563 -0.1162  0.0945  0.0357
 6707W        W10771   6.876   9.571   3.517  0.0668 -0.1655 -0.1060
 6708W        W10772   9.649   7.237   0.771 -0.2072 -0.1545  0.2526
 6709W        W10773   9.231   5.026   8.385 -0.0853 -0.2301 -0.1647
 6710W        W10774   6.954   7.099   7.290 -0.1843 -0.1040 -0.0803
 6711W        W10775   6.405   5.905  10.518 -0.4278 -0.2018 -0.0166
 6712W        W10776   2.315   3.599   1.573 -0.3733 -0.1521 -0.1858
 6713W        W10777   8.520   9.449   8.782  0.2317  0.2125 -0.2937
 6714W        W10778  10.430   0.831   7.327  0.1300  0.2248 -0.0506
 6715W        W10779   5.976   7.031   8.375 -0.0544  0.0318 -0.1841
 6716W        W10780   1.871   4.025   0.198 -0.0927  0.1479 -0.1289
 6717W        W10781  10.369   0.441   9.211 -0.1392 -0.0506 -0.0458
 6718W        W10782   3.433   7.312  10.696  0.1416 -0.4400 -0.0955
 6719W        W10783   2.884   0.143  10.498 -0.1156  0.0076 -0.1882
 6720W        W10784   1.214   1.053   0.483  0.1427 -0.0775  0.3059
 6721W        W10785  10.393   6.745   8.146 -0.4301  0.1583  0.4592
 6722W        W10786   0.546   9.686   7.799 -0.1841  0.1844  0.0961
 6723W        W10787   2.775   8.362   8.939 -0.3637  0.0472  0.2028
 6724W        W10788   6.590   2.034  10.134  0.0385  0.0251 -0.0142
 6725W        W10789   0.400   8.071   2.452  0.1679  0.1934  0.1845
 6726W        W10790   3.172   2.044   7.984 -0.3967  0.1022  0.1545
 6727W        W10791   1.079   1.150   2.532 -0.1185 -0.0440  0.0181
 6728W        W10792   4.629   2.378   9.061 -0.1869 -0.1201 -0.3025
 6729W        W10793   4.130   6.575   7.251  0.1745 -0.0249  0.0510
 6730W        W10794   7.357   2.099   3.991  0.0599 -0.1659 -0.0633
 6731W        W10795   0.554   0.944   9.427 -0.1238  0.0543  0.5630
 6732W        W10796   0.587   6.541   8.365 -0.1425 -0.1614  0.2113
 6733W        W10797  10.483   7.322   1.430 -0.1454 -0.0673  0.0339
 6734W        W10798   2.546   7.441   9.149  0.2351  0.1084 -0.1023
 6735W        W10799   1.141   2.437   8.162 -0.0252 -0.0137  0.0658
 6736W        W10800   6.509   3.146  10.165  0.2106  0.3586  0.3249
 6737W        W10801   7.268   9.003   1.227  0.3578 -0.1557 -0.2040
 6738W        W10802   3.183   5.273   0.726  0.0890  0.0173  0.2936
 6739W        W10803   2.819   6.251  10.021 -0.0335  0.0907 -0.1801
 6740W        W10804   1.767   8.916  10.229  0.4995 -0.2220  0.2026
 6741W        W10805   0.822   0.427   8.367 -0.0287  0.2598  0.1296
 6742W        W10806   2.382   5.324   9.875 -0.0545 -0.0330 -0.2561
 6743W        W10807   0.213   9.819   7.076 -0.1547  0.0269 -0.1285
 6744W        W10808   2.871   5.368   2.348  0.0396 -0.4335  0.0721
 6745W        W10809   7.652   9.097  10.112 -0.2657  0.1280  0.4394
 6746W        W10810   8.907   6.161   3.188  0.0447  0.1383 -0.0361
 6747W        W10811   2.105   2.009   9.364  0.1571 -0.2262 -0.1504
 6748W        W10812   3.389   7.423  11.179 -0.2530 -0.2995  0.0355
 6749W        W10813   5.958  10.256  11.140 -0.3794  0.1589 -0.0137
 6750W        W10814   1.124   2.526   1.129  0.0457  0.0423  0.1587
 6751W        W10815   3.183   6.124   7.907 -0.1965  0.0956 -0.2692
 6752W        W10816   7.100   5.506  11.196 -0.2752  0.3017  0.0518
 6753W        W10817   9.791   2.247   2.759 -0.1940  0.0183 -0.2258
 6754W        W10818   0.981   2.874   0.213 -0.1448  0.2365 -0.0669
 6755W        W10819   7.012   3.216   7.707  0.0023  0.0235  0.1452
 6756W        W10820   4.633   3.721   8.600  0.0941 -0.0763  0.2318
 6757W        W10821   9.079   6.997  10.071  0.1483  0.0574  0.1534
 6758W        W10822   9.832   5.259   2.120  0.0168  0.3598  0.1071
 6759W        W10823   3.644   0.285   1.636  0.0656 -0.3963  0.1368
 6760W        W10824   1.828   7.298   0.238 -0.4972  0.2338  0.1432
 6761W        W10825   9.179   7.144   9.577 -0.1991  0.3299 -0.0252
 6762W        W10826   2.924   8.559   9.395 -0.3133 -0.2283 -0.0267
 6763W        W10827   5.490   8.380   2.268 -0.1127 -0.3647 -0.1078
 6764W        W10828   3.116  10.595  10.835 -0.1003 -0.0432  0.1952
 6765W        W10829   3.656   2.849   7.501 -0.1631  0.2518  0.4588
 6766W        W10830   4.197   6.255  11.284  0.1445  0.2513 -0.0525
 6767W        W10831   6.398   5.924   2.678  0.0150 -0.1390  0.1365
 6768W        W10832   0.560   3.642  10.735 -0.2690 -0.5906 -0.0584
 6769W        W10833   6.918   1.265   0.894  0.3292  0.1961 -0.2477
 6770W        W10834   6.839   5.201  10.376 -0.2100  0.1508  0.2756
 6771W        W10835   3.423   2.662  10.535  0.0101  0.1566 -0.3046
 6772W        W10836   7.828   8.522   2.539  0.1155 -0.3020 -0.0076
 6773W        W10837   2.254   7.806   9.285 -0.0117 -0.0637 -0.1468
 6774W        W10838  10.717   3.306   2.651 -0.4240 -0.0182 -0.3153
 6775W        W10839  10.764   7.126   7.892 -0.1696 -0.1489 -0.0354
 6776W        W10840   0.038   4.419   1.808 -0.0577 -0.0269  0.1639
 6777W        W10841   3.061   7.241   1.045  0.1433  0.0103  0.2244
 6778W        W10842   7.947   8.763   3.328  0.0533 -0.0328  0.2259
 6779W        W10843   6.592   4.469  10.817  0.0222 -0.2067 -0.0023
 6780W        W10844   2.936   4.137   7.519 -0.3690 -0.3394 -0.0492
 6781W        W10845   6.752   7.264   0.949  0.2771  0.0064 -0.1328
 6782W        W10846   9.079   9.658   7.220 -0.4195  0.0504 -0.2942
 6783W        W10847   7.983   2.225   0.385  0.0270  0.3307  0.2123
 6784W        W10848   1.691   2.266   1.915  0.2931 -0.3053 -0.1472
 6785W        W10849   4.840   1.585   3.210 -0.1589 -0.3495 -0.3058
 6786W        W10850   6.447   8.586   2.102 -0.1080  0.2349 -0.1850
 6787W        W10851  10.520   3.518   0.825 -0.0443  0.2078 -0.3718
 6788W        W10852   0.051   2.604   1.485 -0.0303 -0.0729  0.0946
 6789W        W10853   4.009   4.064  11.009 -0.1862 -0.1218 -0.2650
 6790W        W10854   5.554   9.112   2.942 -0.0035 -0.1080 -0.2906
 6791W        W10855   5.432   1.405  10.393  0.0173  0.0890  0.0546
 6792W        W10856   8.708   0.314   2.614  0.1481  0.0870 -0.0883
 6793W        W10857   9.957   2.952  11.083  0.0533 -0.3316 -0.2631
 6794W        W10858   9.902   8.134   3.162 -0.1437 -0.0002 -0.1315
 6795W        W10859   7.060   0.903   8.481 -0.2324  0.0957  0.1915
 6796W        W10860   4.226  10.325   9.251  0.0294 -0.1038  0.1577
 6797W        W10861   2.207   9.363   8.053 -0.4235 -0.2565  0.0191
 6798W        W10862   3.771   8.853   8.976 -0.1001 -0.2224  0.0165
 6799W        W10863   2.736   2.575   9.656  0.1978  0.3139 -0.0324
 6800W        W10864  10.421  10.389   2.406 -0.1506  0.0128  0.1223
 6801W        W10865   0.097   7.468   9.920 -0.2106  0.0461  0.3189
 6802W        W10866   8.293  10.259   7.887  0.3091  0.2722  0.0980
 6803W        W10867   0.030   1.416   2.164 -0.1848  0.0130 -0.0839
 6804W        W10868   6.030  10.675   1.400 -0.0265  0.0809 -0.3097
 6805W        W10869   7.498   6.864   0.564 -0.0679  0.0965  0.2302
 6806W        W10870   5.096   4.468   0.357  0.0571 -0.3029  0.1988
 6807W        W10871   6.085   3.634  10.633 -0.0312 -0.1275  0.1979
 6808W        W10872   4.979   9.454   0.292 -0.0707  0.0839  0.1136
 6809W        W10873  10.491  10.569   7.680  0.2280  0.2934  0.2074
 6810W        W10874   6.761   0.614   9.350  0.0129 -0.0055 -0.1700
 6811W        W10875   1.593   6.926  10.169 -0.2473  0.0442 -0.2637
 6812W        W10876   6.755   5.452   8.971  0.1050  0.2600  0.0363
 6813W        W10877   5.957   8.511   1.276 -0.2441 -0.1994  0.2516
 6814W        W10878   6.342   7.592   0.156  0.1728 -0.2895 -0.2057
 6815W        W10879   6.498   9.324   0.850  0.4931  0.1389  0.0989
 6816W        W10880   7.173   3.595   3.263 -0.0698 -0.3636  0.3792
 6817W        W10881   0.574   1.782   2.831  0.2512 -0.3640  0.0790
 6818W        W10882   1.753   2.014   8.749 -0.0354  0.1010 -0.2612
 6819W        W10883   0.813   2.192   9.831 -0.0506  0.3882  0.0385
 6820W        W10884   9.891   5.212   1.095 -0.1355 -0.2595 -0.0604
 6821W        W10885   6.597   8.190   7.207 -0.3154 -0.1083  0.1081
 6822W        W10886   2.310   9.648  10.161 -0.2314 -0.0160 -0.3683
 6823W        W10887   8.894   7.654   8.848 -0.2533  0.0345  0.4370
 6824W        W10888   0.809   6.553   1.381 -0.0461 -0.0215  0.0368
 6825W        W10889   1.307   4.665   6.692  0.2262  0.0740  0.2825
 6826W        W10890   9.009   4.175   7.086 -0.0533 -0.0910 -0.1361
 6827W        W10891   2.920   9.631  10.694  0.0826  0.0735  0.1901
 6828W        W10892   6.131   1.012   4.014 -0.2253  0.0739 -0.0614
 6829W        W10893   9.365   9.661   7.605  0.3577  0.1025  0.2859
 6830W        W10894   9.817   5.302  10.043 -0.1973  0.0643 -0.3299
 6831W        W10895   9.270   4.594   1.756 -0.0501 -0.2058 -0.0543
 6832W        W10896   5.804   5.451   2.150 -0.0200  0.0755 -0.0696
 6833W        W10897   0.323   6.374  10.990  0.0396  0.0487  0.0699
 6834W        W10898  10.028   4.310   1.192 -0.0841 -0.1899 -0.3520
 6835W        W10899   2.537   5.503   7.942  0.0912  0.2667 -0.0344
 6836W        W10900   9.634   2.222   7.966  0.1199  0.2401  0.1625
 6837W        W10901   6.290   5.942  11.034  0.3042  0.1245  0.2681
 6838W        W10902   0.512   6.217   7.941 -0.0813 -0.1225 -0.3737
 6839W        W10903   6.202   9.744   2.881  0.1713 -0.2606  0.3391
 6840W        W10904   8.587   0.090   3.221 -0.2593 -0.3490 -0.2993
 6841W        W10905   5.093   1.314   3.959  0.0628  0.2162  0.0240
 6842W        W10906   4.971   3.745   2.871  0.2159  0.0410  0.1011
 6843W        W10907   2.188   7.040   7.560 -0.0117 -0.0690  0.3580
 6844W        W10908   9.213   3.973   8.823 -0.1971  0.0266 -0.2786
 6845W        W10909   5.509   5.889   2.089 -0.0148 -0.1368 -0.0023
 6846W        W10910   8.961   5.614   3.439  0.0412 -0.1982  0.0704
 6847W        W10911   7.743   2.919   9.933  0.0574 -0.1588  0.0967
 6848W        W10912   0.552  10.476   7.663  0.5458 -0.1181 -0.1216
 6849W        W10913   2.028   5.724   9.405  0.1938 -0.3032  0.2897
 6850W        W10914   2.132   5.375   7.602  0.1070  0.3340 -0.1954
 6851W        W10915   3.335   5.276   2.235  0.0141 -0.1987  0.1784
 6852W        W10916   5.523   1.967   3.479  0.3505  0.2285  0.2856
 6853W        W10917   5.328   5.949   2.581 -0.1779 -0.2428  0.1149
 6854W        W10918   0.988   3.881  10.549 -0.0228  0.1071  0.0425
 6855W        W10919   1.557   2.533   7.837  0.3230  0.1982  0.0062
 6856W        W10920   6.289   9.234  10.205  0.1554  0.2104 -0.1553
 6857W        W10921   1.806   5.003   0.632  0.2282  0.3975  0.2947
 6858W        W10922   9.464   9.059   0.414  0.1989  0.2019  0.0545
 6859W        W10923   8.923   9.221  11.107  0.1843 -0.0790 -0.2260
 6860W        W10924   0.765   5.774   1.675 -0.0645  0.2220 -0.1922
 6861W        W10925   9.992   1.615   0.802  0.0608  0.0664  0.1382
 6862W        W10926   9.667   4.447   0.429 -0.3083  0.0188  0.2315
 6863W        W10927   5.602   2.492  10.216 -0.0376 -0.1042  0.1082
 6864W        W10928   6.064   3.511   2.404 -0.0751 -0.0218 -0.1235
 6865W        W10929   2.706   3.426   9.129 -0.4025  0.2773  0.2261
 6866W        W10930   9.611   6.901   9.696  0.2082  0.1297  0.2619
 6867W        W10931   0.220   8.792   9.415  0.1796 -0.1896 -0.2918
 6868W        W10932   0.940   0.156   1.662 -0.2079 -0.2743 -0.2080
 6869W        W10933   1.976   1.272   9.591  0.0621  0.2643 -0.1924
 6870W        W10934   7.740   2.383   8.133  0.0767 -0.2311 -0.0537
 6871W        W10935   4.398   1.407   8.318 -0.0276 -0.0131  0.1024
 6872W        W10936   2.777   3.828   8.776  0.0655 -0.0475 -0.0539
 6873W        W10937   1.920   8.902   2.951 -0.0358 -0.2217  0.1136
 6874W        W10938   5.414  10.712   2.143 -0.2895 -0.2897 -0.2065
 6875W        W10939   4.431   8.015   8.366 -0.0244  0.1374 -0.0667
 6876W        W10940  10.431   0.991   8.904 -0.1524  0.0463 -0.3679
 6877W        W10941   7.616   0.640   8.264  0.0154  0.0639  0.1631
 6878W        W10942   3.600   4.862   0.172  0.0148  0.2999 -0.0528
 6879W        W10943   2.141   1.116  10.842  0.1444 -0.0333  0.1031
 6880W        W10944   4.457   3.152   9.774 -0.1052 -0.0165 -0.0140
 6881W        W10945   9.232   1.010  10.237 -0.1264 -0.0066 -0.2898
 6882W        W10946   1.232   6.335   7.616  0.0626  0.1608  0.0433
 6883W        W10947   2.648  10.413  10.143 -0.1771  0.0709 -0.3066
 6884W        W10948   7.492   4.322   3.819 -0.1495 -0.5006  0.0983
 6885W        W10949   6.294   7.067   1.792  0.1298 -0.1014  0.2604
 6886W        W10950   8.976  10.466   0.404 -0.2549 -0.3247  0.2515
 6887W        W10951   9.182   2.155   0.272 -0.2993 -0.1572  0.1279
 6888W        W10952   2.151   1.681  10.961  0.5600 -0.0076 -0.0200
 6889W        W10953   9.985   6.071   7.839  0.0146  0.1297  0.1043
 6890W        W10954   0.360   2.994   0.613 -0.0858 -0.1217  0.1505
 6891W        W10955   2.111   0.334   9.723  0.0445 -0.1894  0.0729
 6892W        W10956   6.386   4.963   0.788  0.0458 -0.1632  0.1624
 6893W        W10957   9.721  10.278   0.275 -0.2989  0.0087 -0.2390
 6894W        W10958   7.889   3.838   7.691 -0.1229 -0.0266 -0.0154
 6895W        W10959   9.284   4.613   8.766  0.2496 -0.0048 -0.1539
 6896W        W10960   8.025   7.026   2.341  0.1176 -0.1821 -0.0907
 6897W        W10961   7.230   3.658   0.704 -0.1485 -0.2640 -0.2914
 6898W        W10962   2.206   9.231   1.504  0.2139 -0.1132  0.0425
 6899W        W10963   2.800  10.278   9.156  0.0211 -0.1790  0.2135
 6900W        W10964   0.754  10.722   3.052 -0.0271 -0.1691 -0.0361
 6901W        W10965   4.196   8.954   8.262 -0.1077  0.0308  0.2467
 6902W        W10966   1.060   8.083   8.269  0.1609  0.0523  0.0812
 6903W        W10967  10.549   0.955   8.429  0.1182 -0.2054  0.1467
 6904W        W10968   7.375   4.777   9.189  0.2253 -0.0376 -0.1791
 6905W        W10969   2.917   8.856   8.995 -0.0360  0.2133 -0.0361
 6906W        W10970   9.652  10.080  10.540 -0.2120 -0.0009 -0.2225
 6907W        W10971  10.454   5.191  11.080 -0.0029  0.2248 -0.1816
 6908W        W10972   8.131   9.160   9.165  0.0947 -0.0870 -0.3434
 6909W        W10973   8.002  10.359   8.853 -0.4347 -0.2514 -0.1892
 6910W        W10974   1.444  10.521   9.524  0.1286  0.1617  0.1850
 6911W        W10975   5.745   7.871  10.504 -0.1845 -0.1687  0.2004
 6912W        W10976  10.446   8.038   2.317  0.2586 -0.2672 -0.1632
 6913W        W10977   3.890  10.537  10.493  0.0348 -0.1995 -0.2130
 6914W        W10978   5.349   1.811   1.513 -0.2373 -0.0041  0.0522
 6915W        W10979   4.851   5.609   2.772 -0.3007  0.0052 -0.0851
 6916W        W10980   3.827   8.670  10.780  0.5744 -0.2538 -0.0124
 6917W        W10981   8.741   3.307   2.277  0.1037 -0.0985 -0.2289
 6918W        W10982   1.513   2.463   8.816  0.1360 -0.2023  0.3426
 6919W        W10983   0.810   4.607   9.247  0.1817 -0.1683 -0.0047
 6920W        W10984   2.110   1.138   1.402  0.3360  0.0544  0.1099
 6921W        W10985   1.313   1.511  11.124 -0.3228 -0.2166 -0.0811
 6922W        W10986   5.696   6.202   8.657  0.3322  0.1743 -0.0900
 6923W        W10987  10.040   7.313   1.680 -0.0837  0.1196  0.0575
 6924W        W10988   2.621   5.070   1.672 -0.3119 -0.1066 -0.0711
 6925W        W10989   1.003   5.262   3.076  0.0054  0.1586 -0.1876
 6926W        W10990   6.884   5.378   9.926 -0.1409 -0.1598  0.1553
 6927W        W10991   5.099   6.883   8.802 -0.4515 -0.2205  0.3052
 6928W        W10992   3.155   4.203   9.775 -0.1411  0.0477  0.2677
 6929W        W10993   1.729   4.775   3.245  0.1454  0.1411  0.1462
 6930W        W10994   1.594   1.874  10.276  0.0199 -0.4781  0.3241
 6931W        W10995   9.515   8.957   2.697  0.1341 -0.2514 -0.0136
 6932W        W10996  10.649   4.320   8.728  0.0305  0.0075 -0.0293
 6933W        W10997   1.235   3.123   2.762 -0.2392 -0.0274 -0.1205
 6934W        W10998   1.571   8.463  10.529  0.1667 -0.2965  0.1726
 6935W        W10999   6.047   7.941   0.019 -0.1459  0.2391 -0.1235
 6936W        W11000   2.685   0.286   7.383  0.1457 -0.2515 -0.0729
 6937W        W11001   7.619   8.484   8.524 -0.1161  0.0876 -0.1945
 6938W        W11002   0.194   4.792   0.995 -0.1290  0.0342  0.0353
 6939W        W11003   0.221   2.146   1.429 -0.0796 -0.1568 -0.1068
 6940W        W11004   4.045   6.147   6.861 -0.3005 -0.3341  0.3512
 6941W        W11005   4.367   4.983   2.090  0.3172  0.0549 -0.3035
 6942W        W11006   1.447   6.695   7.986 -0.1443  0.1992  0.1902
 6943W        W11007   2.322   3.788   0.181  0.1023 -0.0407  0.3922
 6944W        W11008   8.071   7.366   1.087 -0.0965 -0.1029  0.0930
 6945W        W11009   5.411   7.204   9.210  0.0025 -0.0717 -0.0810
 6946W        W11010   5.307   3.242   9.189  0.0636 -0.0664  0.0274
 6947W        W11011   6.198   0.386   1.207 -0.0767  0.2930  0.0493
 6948W        W11012   8.650   3.111   1.810 -0.0949  0.0018 -0.1753
 6949W        W11013   1.190   0.147   0.391 -0.3172  0.0509  0.1682
 6950W        W11014   5.702   6.424   1.100 -0.0016  0.4498  0.1936
 6951W        W11015   9.641   9.656   2.182  0.2370  0.1851 -0.0202
 6952W        W11016  10.353   9.872   2.358  0.0933 -0.1186  0.2288
 6953W        W11017   6.594   1.142   3.145  0.2797  0.1065  0.1202
 6954W        W11018   2.347   8.890   9.664  0.0311  0.1708 -0.2256
 6955W        W11019   9.032   2.612   9.459 -0.0011 -0.3438 -0.2284
 6956W        W11020   7.106   6.525   0.360 -0.0782  0.3565  0.3790
 6957W        W11021   4.573   5.183   0.067  0.3004 -0.2029 -0.3750
 6958W        W11022   2.548   1.574   0.472  0.0523 -0.1807 -0.3324
 6959W        W11023   0.519   1.388   8.557  0.2045  0.0258 -0.0527
 6960W        W11024   8.857  10.306   9.077  0.1117  0.1306 -0.0604
 6961W        W11025   2.074   3.621  10.624 -0.0152  0.1717 -0.2918
 6962W        W11026   6.990   4.210   3.723 -0.1211  0.3223  0.0648
 6963W        W11027   1.164   0.375   2.832 -0.0562 -0.0579  0.2066
 6964W        W11028   9.403   5.663  10.016  0.0978  0.5115 -0.0093
 6965W        W11029   6.819   8.666  10.859 -0.0212 -0.0868  0.0485
 6966W        W11030   8.730   3.275   8.487  0.3615 -0.2333 -0.1337
 6967W        W11031   7.756   3.629   0.682 -0.1086 -0.0456  0.0329
 6968W        W11032   7.706   3.050   0.674  0.0996  0.1614 -0.0708
 6969W        W11033   1.360   3.049   7.880  0.1551 -0.1525  0.1004
 6970W        W11034   0.662   0.874   8.305  0.2213  0.3090  0.0916
 6971W        W11035   7.792   6.977   0.970 -0.0757 -0.0737  0.0932
 6972W        W11036   5.904   8.487  10.792 -0.0781  0.2297  0.0674
 6973W        W11037   7.128   2.413   0.558 -0.5450  0.2598  0.3247
 6974W        W11038   3.334   3.162   0.401 -0.0296 -0.1001  0.1776
 6975W        W11039   2.555   4.450   8.147  0.2772  0.1452  0.0497
 6976W        W11040   2.955   5.427   1.893  0.1269  0.1155  0.0435
 6977W        W11041   3.158   6.790   8.555  0.0369  0.1633  0.1626
 6978W        W11042   8.756   4.826  11.042  0.2264 -0.1797 -0.0861
 6979W        W11043   9.168   1.186   8.732 -0.1632  0.3711  0.1495
 6980W        W11044   4.370   8.016   0.664  0.0811  0.1114  0.0131
 6981W        W11045  10.447   7.970   7.894  0.0281 -0.1374  0.0261
 6982W        W11046   5.849   0.141   0.909  0.2997 -0.1566 -0.0505
 6983W        W11047   3.340   2.010   8.790 -0.0561 -0.1357 -0.1251
 6984W        W11048   5.339   0.514  10.175  0.0469  0.1646  0.2372
 6985W        W11049   3.200   4.218   8.844  0.0961  0.2308 -0.0680
 6986W        W11050   2.716   5.563   0.864  0.1003  0.2525 -0.0770
 6987W        W11051   9.471   8.028   0.084  0.0249 -0.2080 -0.1138
 6988W        W11052   4.783   0.532  11.167  0.0610  0.0492 -0.1055
 6989W        W11053   1.505   3.709  10.715  0.4061 -0.0070 -0.1507
 6990W        W11054   9.737   7.694   9.268  0.1094  0.1664  0.0659
 6991W        W11055   6.137   6.060   8.964 -0.0534 -0.0902  0.1993
 6992W        W11056   5.642   7.602   7.970  0.1366  0.0026 -0.0382
 6993W        W11057   1.910  10.429   8.212 -0.0614  0.1823  0.2119
 6994W        W11058   1.872   2.980   7.803  0.1365 -0.0364  0.2683
 6995W        W11059   5.632   1.048   9.487  0.2021  0.0341 -0.1563
 6996W        W11060   3.028   2.147   9.792  0.0082 -0.1463  0.1445
 6997W        W11061   5.942   7.085   1.466 -0.0768 -0.0542 -0.2081
 6998W        W11062   6.420   3.288  10.854  0.3542  0.0428  0.0455
 6999W        W11063   2.751   3.891   9.274 -0.1487 -0.2023 -0.2180
 7000W        W11064   5.446   4.812   0.666 -0.1844  0.1787 -0.2805
 7001W        W11065   6.389  10.213   1.694 -0.1220 -0.4241 -0.1582
 7002W        W11066   1.668  10.241   8.809 -0.0271 -0.2115  0.0544
 7003W        W11067  10.096   1.604   7.811 -0.1301  0.0222 -0.1809
 7004W        W11068   4.013   6.695  11.074  0.1828 -0.1054 -0.2041
 7005W        W11069   2.579  10.131   0.739  0.2327  0.0501  0.1409
 7006W        W11070   1.551   5.821   2.567  0.2889  0.1735  0.0643
 7007W        W11071   4.107   9.301   9.721  0.4966  0.2925 -0.0970
 7008W        W11072   7.678   3.492  11.233  0.0117 -0.0153  0.1987
 7009W        W11073   5.440   6.185  11.029 -0.1272 -0.0660  0.2437
 7010W        W11074   0.839   2.129   2.534  0.0216 -0.1179 -0.1609
 7011W        W11075  10.111   4.591   2.865  0.1871  0.1691  0.0493
 7012W        W11076   3.625   7.569   8.845  0.1918  0.2843  0.1285
 7013W        W11077   9.230   7.129   0.196 -0.0819 -0.1007  0.0525
 7014W        W11078   7.966  10.138   2.783 -0.0677  0.0481 -0.0786
 7015W        W11079  10.775   2.025  10.116 -0.2361 -0.0049  0.4211
 7016W        W11080   8.913   6.605   8.083 -0.0824 -0.1688  0.0122
 7017W        W11081   8.441   6.401   7.937 -0.1647 -0.2558  0.0606
 7018W        W11082   5.916   3.024  10.972  0.2990 -0.1097  0.2575
 7019W        W11083   9.799   6.719   1.326  0.1207 -0.1346 -0.4105
 7020W        W11084   6.319  10.367   8.158  0.1636 -0.2606 -0.0475
 7021W        W11085   2.699   7.288   0.675 -0.2651  0.2204 -0.2854
 7022W        W11086   4.062   1.667   9.116  0.2580 -0.2021  0.0120
 7023W        W11087   1.764   3.957   2.727 -0.0613  0.0514  0.0860
 7024W        W11088   0.929   2.421   1.567  0.0572  0.2116  0.1007
 7025W        W11089   4.025   0.554  10.821  0.3565  0.1634 -0.1995
 7026W        W11090   1.919   9.399  10.937 -0.2300 -0.2466 -0.1583
 7027W        W11091   4.050   2.051   9.505 -0.0810 -0.1048  0.2427
 7028W        W11092   3.079   2.264  10.498  0.0451 -0.2800  0.0414
 7029W        W11093   8.914   6.544   1.001 -0.1213  0.3270 -0.3214
 7030W        W11094   9.288   0.135   8.123 -0.1450 -0.2152 -0.1140
 7031W        W11095  10.462   7.024   1.853  0.1455 -0.0704 -0.0881
 7032W        W11096   0.822   6.431   8.861 -0.1106  0.1333 -0.2804
 7033W        W11097   5.246   2.372   1.496 -0.2163 -0.0670 -0.0934
 7034W        W11098   2.599   7.244  10.529  0.2585  0.1151 -0.3158
 7035W        W11099   4.632   7.745  10.315 -0.0234 -0.0191 -0.2508
 7036W        W11100   2.823   1.278   0.117 -0.1412  0.0522 -0.1083
 7037W        W11101   9.405   0.965   3.138  0.2157  0.0965 -0.3984
 7038W        W11102   5.791   9.033   1.475 -0.0697 -0.1496  0.2529
 7039W        W11103   1.677   4.180   8.770 -0.3507  0.0331 -0.1264
 7040W        W11104   5.307   9.815   9.373  0.1208 -0.0738  0.0580
 7041W        W11105   9.835   3.448   9.282 -0.3537 -0.2258 -0.1609
 7042W        W11106   9.585   2.349   8.881  0.1912 -0.1243  0.1083
 7043W        W11107  10.436   1.255   0.532  0.2337 -0.1485  0.2821
 7044W        W11108   4.414   2.527   9.956  0.1036 -0.1098 -0.2867
 7045W        W11109   4.264   2.932   0.362  0.0581 -0.0084  0.4515
 7046W        W11110   2.915   0.562   9.872  0.5806 -0.0850 -0.1816
 7047W        W11111   7.428   9.478   9.638  0.0137  0.1060  0.1895
 7048W        W11112   6.009   5.037  11.288 -0.2717 -0.4387  0.0471
 7049W        W11113   8.991   6.050  11.136  0.0325 -0.1251  0.2742
 7050W        W11114   0.537   4.157   6.432  0.4434  0.1364  0.2090
 7051W        W11115   5.628   0.307   2.933  0.2241 -0.0333 -0.1692
 7052W        W11116   9.472   8.040   9.626 -0.1759 -0.2259  0.2010
 7053W        W11117   9.520  10.191   8.506  0.2345  0.0308 -0.1397
 7054W        W11118   5.754   4.197   2.620  0.0330  0.2730  0.0260
 7055W        W11119  10.521   4.577   1.256 -0.0590  0.3076 -0.1466
 7056W        W11120   1.735   3.155  10.860 -0.0038  0.0691  0.1236
 7057W        W11121   6.273   2.704   9.607 -0.0055  0.2092  0.0928
 7058W        W11122   9.980   3.513   8.633  0.0821 -0.0020  0.1301
 7059W        W11123   9.110   6.920   0.764 -0.2158  0.3419  0.4696
 7060W        W11124   3.893   5.591   3.261 -0.2759  0.0740  0.2652
 7061W        W11125   0.313   6.603   1.657 -0.0523  0.1274  0.1875
 7062W        W11126   0.128   8.090   3.303 -0.0421 -0.2778 -0.0260
 7063W        W11127   8.505   2.400   0.339 -0.2181  0.0046  0.1760
 7064W        W11128   4.681  10.763   2.531 -0.2594 -0.0577  0.2208
 7065W        W11129   9.026   8.004   3.605  0.1105  0.0971 -0.2306
 7066W        W11130   8.588   5.224   2.805  0.2886 -0.2358 -0.0713
 7067W        W11131   8.408   3.758   9.848 -0.0697 -0.0082 -0.1116
 7068W        W11132  10.419   7.100   0.571  0.0105  0.0891 -0.0504
 7069W        W11133   1.153   5.427   0.231  0.2565 -0.1928  0.1599
 7070W        W11134   3.198   0.940  10.207 -0.1344  0.0519 -0.3501
 7071W        W11135   2.266   4.403  10.048  0.1779 -0.0254  0.1598
 7072W        W11136   3.620   8.054   8.684 -0.2924 -0.0941 -0.1174
 7073W        W11137   5.865   7.805   2.963  0.0564 -0.3604 -0.0303
 7074W        W11138   0.522   1.432  11.085  0.0021 -0.2120  0.0191
 7075W        W11139   0.468   8.252   0.036 -0.2236  0.3466 -0.0999
 7076W        W11140   4.889   2.829   2.319  0.2130  0.1839  0.0087
 7077W        W11141   9.914   7.930   2.473  0.0749  0.0742 -0.1325
 7078W        W11142   9.616   3.991   8.426  0.0629 -0.0441 -0.2020
 7079W        W11143   6.458   4.470   2.714  0.3074 -0.0061 -0.1379
 7080W        W11144   8.544   6.631   8.398 -0.0743 -0.2028 -0.0870
 7081W        W11145   7.727   7.121   2.784  0.0209 -0.1265 -0.2310
 7082W        W11146   4.661   9.213   0.764 -0.0646  0.2137  0.2689
 7083W        W11147   7.411   7.966   7.612  0.0246 -0.1043 -0.1115
 7084W        W11148   3.914   5.103   7.971 -0.0337  0.1074 -0.2577
 7085W        W11149   6.450   6.554   9.639 -0.2257 -0.0999 -0.0748
 7086W        W11150   8.062   9.614   3.164 -0.2383  0.1024  0.2565
 7087W        W11151   9.939   9.514   2.557 -0.2187  0.0232  0.0444
 7088W        W11152   7.028   8.161   2.648 -0.1327  0.0128 -0.0812
 7089W        W11153   1.325  10.275   7.297 -0.1309  0.1305 -0.2352
 7090W        W11154   9.296   3.539   0.185  0.3032  0.1751  0.1259
 7091W        W11155   1.635   5.938   0.887  0.1120 -0.0370  0.0720
 7092W        W11156   3.319   0.812  11.189  0.3966  0.2767  0.3690
 7093W        W11157   8.609   3.524   9.413  0.5995  0.0539 -0.1440
 7094W        W11158   9.347   8.178   2.395  0.0092 -0.0781 -0.1709
 7095W        W11159   7.051   8.617   0.972 -0.0956  0.4071 -0.2069
 7096W        W11160   7.999   4.084   1.902  0.1716  0.1749  0.1780
 7097W        W11161   8.568   1.843   3.413  0.0356  0.3328  0.3130
 7098W        W11162   2.456   6.252   8.411  0.0608  0.0197 -0.0707
 7099W        W11163   1.229   9.331   9.633  0.2099  0.2643 -0.0254
 7100W        W11164   5.933   6.379  11.037  0.2898  0.0206 -0.1112
 7101W        W11165   9.128   3.061   8.055  0.1239 -0.2287  0.0691
 7102W        W11166   8.132   0.218  10.973 -0.1533 -0.0477  0.2326
 7103W        W11167   4.070   4.923   0.208  0.4124 -0.2521  0.1090
 7104W        W11168   2.358   0.568   2.612  0.2012 -0.0843  0.2157
 7105W        W11169   7.040   7.368   9.054 -0.5172 -0.0737  0.1867
 7106W        W11170   7.390   0.926   0.987  0.0937  0.0477 -0.0664
 7107W        W11171   0.500   9.774  11.296 -0.1195 -0.2037 -0.1654
 7108W        W11172   6.253   0.279   0.696 -0.5035 -0.0783  0.1346
 7109W        W11173   2.574   6.272   9.509  0.2462  0.1795  0.0188
 7110W        W11174   7.586   3.622   9.284 -0.0614 -0.1222 -0.0427
 7111W        W11175  10.348   1.240   1.019  0.0147 -0.2811  0.0246
 7112W        W11176   8.070   7.227   0.548  0.0871  0.1483  0.0512
 7113W        W11177   0.044   7.680   1.530 -0.0889 -0.0084  0.0783
 7114W        W11178   9.620   2.392   3.761 -0.4682  0.2727  0.0179
 7115W        W11179   5.912   9.544   0.591 -0.0988  0.1934 -0.0468
 7116W        W11180   1.540   3.538   2.740  0.0392  0.1577 -0.0726
 7117W        W11181   0.450   7.819   2.933  0.0372 -0.0372 -0.1099
 7118W        W11182   8.536   8.228  10.434 -0.0734 -0.1204  0.1723
 7119W        W11183   0.148   5.270  11.196 -0.1119 -0.1212  0.0718
 7120W        W11184   1.341   6.331   6.718 -0.0762  0.0833  0.2071
 7121W        W11185   8.780  10.505   2.144  0.1251 -0.0757 -0.0934
 7122W        W11186   5.196   6.475   9.926  0.0795  0.2798  0.1773
 7123W        W11187   6.505   0.343   9.737 -0.0151 -0.0663 -0.1713
 7124W        W11188   0.630   0.150   9.829  0.0736 -0.0179 -0.0016
 7125W        W11189   6.344   1.941   9.316 -0.0492 -0.1958  0.0596
 7126W        W11190   5.975   2.434   3.781 -0.1946 -0.1159 -0.1396
 7127W        W11191   7.966   8.555  10.998  0.0990 -0.0413 -0.1914
 7128W        W11192   8.423   8.613  10.737 -0.0402 -0.1068  0.1792
 7129W        W11193   0.031   3.374  11.082 -0.1442  0.1798 -0.4494
 7130W        W11194   6.548   5.412  11.161  0.3815  0.0429 -0.1537
 7131W        W11195  10.130   6.159   7.352  0.2711  0.2710  0.3709
 7132W        W11196   1.466   9.046   8.133 -0.3244  0.1049  0.0997
 7133W        W11197   6.266   4.123  10.390 -0.1520  0.1974 -0.0409
 7134W        W11198   6.305   1.760  10.468  0.0655  0.1622 -0.3496
 7135W        W11199   4.723   7.850   9.457  0.0884  0.0777  0.3156
 7136W        W11200   9.089   7.274   8.596 -0.2797 -0.2369  0.1232
 7137W        W11201   5.202   0.703   9.485 -0.2764  0.0035 -0.0434
 7138W        W11202   2.161   3.352   9.187 -0.0921  0.0514  0.0449
 7139W        W11203   4.406   2.693   0.807 -0.1296 -0.0471 -0.1496
 7140W        W11204   0.502   6.557   7.466 -0.1586  0.0698  0.2404
 7141W        W11205   6.338   9.604   3.324 -0.1214  0.0698  0.4404
 7142W        W11206   4.867   7.190   1.580  0.0005  0.1077  0.0633
 7143W        W11207  10.139   0.499  10.230  0.2550 -0.0299  0.3423
 7144W        W11208   7.147   5.570  10.659  0.4158  0.0391  0.1330
 7145W        W11209   1.426  10.003   7.736 -0.0129  0.0305 -0.1568
 7146W        W11210   0.309   2.180   9.668  0.0476 -0.0456 -0.2201
 7147W        W11211   9.266   5.753   8.158  0.0030 -0.1726 -0.0861
 7148W        W11212   0.982   0.181  10.203  0.0470 -0.1576  0.1209
 7149W        W11213   9.026   0.558  11.097 -0.1392  0.0110  0.2212
 7150W        W11214  10.109   2.213   0.778  0.2023 -0.2845 -0.3946
 7151W        W11215   1.555   3.802   7.025  0.2840  0.2391  0.0254
 7152W        W11216   2.723   9.918   9.510 -0.0889 -0.2484 -0.0251
 7153W        W11217   5.549   1.221   2.924  0.1044 -0.0001 -0.0200
 7154W        W11218   6.015   2.587  10.514  0.2468 -0.2874  0.0212
 7155W        W11219   6.649   4.771   8.344 -0.0860 -0.0632  0.0502
 7156W        W11220   2.294   3.211   3.493  0.1619 -0.0020 -0.0838
 7157W        W11221   5.607   2.866  10.587 -0.0494  0.0175 -0.2869
 7158W        W11222   2.279   0.020   2.063  0.2250 -0.1877  0.0156
 7159W        W11223   3.984  10.699   0.918 -0.0596 -0.1921 -0.1127
 7160W        W11224   3.288   3.694   8.760 -0.0501 -0.2825 -0.0201
 7161W        W11225   2.706   3.687   0.553 -0.2426 -0.0560 -0.0200
 7162W        W11226   1.709   4.315  11.161 -0.1060 -0.2695 -0.0108
 7163W        W11227   1.070   2.382   9.045 -0.1201  0.0588 -0.0675
 7164W        W11228   5.275   3.800   8.435 -0.1145 -0.1140  0.2619
 7165W        W11229   3.015   4.650  10.193  0.1289  0.1330  0.3349
 7166W        W11230   0.775   7.353   3.655  0.3349 -0.1545  0.0461
 7167W        W11231   9.717   6.117   1.552 -0.0360 -0.1866  0.1552
 7168W        W11232   8.374   1.279  10.156 -0.1205 -0.0519 -0.0553
 7169W        W11233   0.597   8.221   6.927 -0.4472  0.1518 -0.2186
 7170W        W11234   1.068   9.433   0.094 -0.1973  0.0943 -0.1363
 7171W        W11235   4.075   7.045   8.246 -0.1086 -0.1943 -0.2625
 7172W        W11236   6.321   3.939   0.160 -0.0978  0.1309  0.0479
 7173W        W11237   7.727   1.630   9.369  0.0970 -0.2105  0.3690
 7174W        W11238   3.727   4.003   7.527 -0.4941 -0.0260 -0.2243
 7175W        W11239   7.775   4.780   7.327  0.0699 -0.0065  0.0478
 7176W        W11240   4.293   4.664   3.008 -0.0794 -0.1747  0.0946
 7177W        W11241   6.183  10.566  10.783  0.2515 -0.5260 -0.0160
 7178W        W11242   0.237   4.862   8.120 -0.0361 -0.0463 -0.0120
 7179W        W11243   5.133   1.687   0.187  0.1156  0.0542  0.2308
 7180W        W11244   4.196   6.261   2.682 -0.2334 -0.0408  0.1890
 7181W        W11245   7.390   0.140  10.866 -0.2088 -0.0929 -0.0427
 7182W        W11246   8.854   7.656  10.862 -0.1209  0.3466  0.1772
 7183W        W11247   3.756   2.558   7.980 -0.3082 -0.3728  0.0818
 7184W        W11248   1.680   1.986   0.565  0.1732 -0.0358 -0.1926
 7185W        W11249   1.186  10.546   6.847  0.3442 -0.2414  0.0766
 7186W        W11250   2.209   2.649   7.991  0.1244  0.0971  0.1133
 7187W        W11251   3.601   2.246   0.329  0.0727  0.1512 -0.3021
 7188W        W11252   7.936   0.090   7.233  0.0141 -0.3677  0.4377
 7189W        W11253   1.336   4.424   1.606  0.3850 -0.1680  0.0478
 7190W        W11254   6.732   6.873   0.678 -0.0143  0.2121  0.0726
 7191W        W11255   5.537   8.190   0.126 -0.4220 -0.0581 -0.0711
 7192W        W11256   4.433   9.811   0.985  0.1487  0.1628 -0.0702
 7193W        W11257   8.088  10.484   0.535 -0.0521  0.1349 -0.0499
 7194W        W11258   9.666   0.670   2.243 -0.2138 -0.0367  0.0117
 7195W        W11259   9.464   2.590  10.071  0.0224  0.1814  0.0486
 7196W        W11260   0.059   6.757   7.588  0.2426 -0.0967  0.0428
 7197W        W11261   9.752   5.078   2.650 -0.1876  0.2001 -0.2113
 7198W        W11262   0.540  10.543   2.528  0.0072  0.0684 -0.2282
 7199W        W11263   4.388   9.521   8.462 -0.0194 -0.3341 -0.2779
 7200W        W11264   4.755   0.087   0.728  0.1672  0.0687 -0.0425
 7201W        W11265   7.066   7.399   2.140 -0.2275  0.1431 -0.3237
 7202W        W11266   5.154  10.371   3.070 -0.1487 -0.1725 -0.4079
 7203W        W11267   7.291   2.430   8.800  0.0185 -0.0602 -0.4585
 7204W        W11268   7.634   9.347   7.238  0.0173  0.2464 -0.0089
 7205W        W11269   0.239   4.610   3.452  0.1089  0.0200 -0.1085
 7206W        W11270  10.246   0.141   0.597 -0.0263  0.1670 -0.1854
 7207W        W11271   4.943   5.147   3.226  0.2880  0.0939  0.1555
 7208W        W11272   0.503   6.871  11.172  0.1016  0.3025  0.2057
 7209W        W11273   3.276   0.380  10.127  0.1135 -0.0448  0.1578
 7210W        W11274   6.531   3.642   1.198  0.2630 -0.2093 -0.2884
 7211W        W11275   8.864   9.764   9.164 -0.0581 -0.0461 -0.1540
 7212W        W11276   0.038   6.545   8.370 -0.2831 -0.1273  0.4109
 7213W        W11277   6.500   1.186  11.191  0.1426 -0.1884 -0.1566
 7214W        W11278   7.245   9.114   0.107  0.2475 -0.0898 -0.1055
 7215W        W11279   5.896   9.684   8.982 -0.1987 -0.2229  0.2118
 7216W        W11280   0.970   4.339   3.688 -0.1867 -0.0336  0.0518
 7217W        W11281   9.575   3.131   0.193 -0.0899 -0.2185  0.0188
 7218W        W11282   1.602   4.487   0.333 -0.2890  0.0031 -0.0671
 7219W        W11283   1.176   9.295  10.214 -0.2763  0.1837 -0.0238
 7220W        W11284   5.881   4.967   9.727 -0.2147  0.2862  0.0646
 7221W        W11285   4.437  10.055   2.779 -0.2020 -0.0751 -0.2482
 7222W        W11286  10.743   4.865   6.836  0.0551  0.0917  0.0072
 7223W        W11287   4.805   6.103   8.597  0.2189  0.1157  0.1633
 7224W        W11288   7.326   0.382   9.251 -0.0533  0.5432 -0.1716
 7225W        W11289   2.351   1.913  10.104  0.1144  0.1517  0.3157
 7226W        W11290   6.989   5.187   2.992  0.1329 -0.1320 -0.1768
 7227W        W11291   4.093   8.179   0.203 -0.0018  0.1006  0.2487
 7228W        W11292   3.755   7.035   8.820 -0.0594 -0.1870 -0.2887
 7229W        W11293   5.422   8.881   2.419  0.1622 -0.1515  0.0454
 7230W        W11294   0.086   1.885   1.017 -0.0707 -0.2658  0.3445
 7231W        W11295   2.158   9.705   2.963  0.1250 -0.0089  0.2375
 7232W        W11296   5.667   3.109   2.090 -0.3521  0.0263  0.0053
 7233W        W11297   7.499   8.923   9.652  0.1344 -0.0688 -0.1040
 7234W        W11298   5.395   3.101  10.171 -0.1722 -0.0487  0.0191
 7235W        W11299   8.982   5.878  10.151 -0.1418 -0.0356 -0.2027
 7236W        W11300   7.417  10.437   1.918 -0.1683  0.1435  0.1429
 7237W        W11301  10.645  10.058   0.521  0.1813  0.0585 -0.0841
 7238W        W11302   5.091   8.902  10.896 -0.0097 -0.3660  0.2195
 7239W        W11303   3.130   6.936  11.193  0.1552  0.2383 -0.2353
 7240W        W11304   7.224   2.443  11.165 -0.2032 -0.0107  0.2359
 7241W        W11305   1.014   5.250   1.018 -0.1057 -0.1104  0.1570
 7242W        W11306   8.185   5.983   0.633  0.2302  0.0771  0.1139
 7243W        W11307  10.572   9.677   9.179 -0.0834 -0.0621 -0.0704
 7244W        W11308   5.575   3.239   3.525  0.3447  0.2685  0.1318
 7245W        W11309   3.054   1.656   0.488 -0.1120 -0.0559  0.0719
 7246W        W11310   1.858   2.583   2.781  0.0437  0.0002  0.1309
 7247W        W11311   4.296   7.907   9.821  0.1461  0.0790 -0.0762
 7248W        W11312   2.652   3.113  11.013 -0.1491  0.1557 -0.0625
 7249W        W11313   1.717   6.770   2.492 -0.0063  0.0462  0.3938
 7250W        W11314  10.298   3.923   0.394 -0.3055 -0.2820 -0.4716
 7251W        W11315  10.094   7.390   6.941 -0.3595  0.0299  0.0185
 7252W        W11316   9.878   1.810   1.751  0.2131 -0.2866 -0.1384
 7253W        W11317   0.127   8.331   9.364  0.2924  0.2330 -0.0570
 7254W        W11318   8.735   4.073   7.964 -0.1704 -0.1013  0.0106
 7255W        W11319   7.832   1.506   8.746  0.3608  0.1243  0.1233
 7256W        W11320   8.428   2.160   8.849  0.0255 -0.0582  0.2143
 7257W        W11321   0.926   3.109  10.996  0.1580 -0.3036 -0.0499
 7258W        W11322   3.020   9.472   0.980 -0.1237 -0.0076  0.2884
 7259W        W11323   6.834   7.659   1.310  0.1189  0.0992 -0.5380
 7260W        W11324   3.842   9.423   9.164  0.1108  0.2045  0.3699
 7261W        W11325   0.611   2.522  11.070  0.3261  0.0925 -0.0180
 7262W        W11326  10.495   0.655   1.611  0.0501  0.1590 -0.1934
 7263W        W11327  10.214   7.797   7.184 -0.1824 -0.1194 -0.1682
 7264W        W11328   6.998   4.659  11.147 -0.0286 -0.0476 -0.1428
 7265W        W11329  10.449   0.690   7.825  0.3110 -0.2334  0.2787
 7266W        W11330   4.163   1.481   3.473 -0.2786  0.2467 -0.0878
 7267W        W11331   1.095   6.168   1.580 -0.1310 -0.0128  0.2275
 7268W        W11332   7.021   3.606   9.085 -0.1955  0.1902  0.2123
 7269W        W11333   7.085   0.137  10.504  0.1843  0.0651 -0.0145
 7270W        W11334   0.292   1.911  10.501  0.0003 -0.0709  0.0125
 7271W        W11335   3.727   5.151  11.094 -0.2178 -0.0578 -0.0366
 7272W        W11336   7.974   7.336   3.189  0.2004  0.0600  0.1841
 7273W        W11337   8.714   9.137   9.184  0.1416 -0.0126  0.0299
 7274W        W11338   1.136   7.373  10.108 -0.2897  0.1426 -0.0289
 7275W        W11339   1.271   5.118   6.949  0.2118  0.3824  0.0151
 7276W        W11340   1.052   0.331   7.769  0.2568  0.0049 -0.1736
 7277W        W11341   3.606   2.105   7.655 -0.1939  0.1516  0.1343
 7278W        W11342  10.679   3.988   1.596 -0.0727 -0.2035 -0.1637
 7279W        W11343  10.560   2.369   1.079  0.2325  0.0574  0.0540
 7280W        W11344   1.768   9.748   8.633 -0.0795 -0.4311 -0.0827
 7281W        W11345   1.749   2.263  10.514 -0.0368  0.0247 -0.1538
 7282W        W11346  10.004   7.678   8.816  0.1358 -0.2504 -0.0856
 7283W        W11347   5.111   4.079   7.413  0.2375 -0.2815  0.0540
 7284W        W11348   5.192   5.282   7.853 -0.1480 -0.0445  0.2256
 7285W        W11349   2.671   0.445   9.037  0.2231  0.0751 -0.0985
 7286W        W11350  10.344   7.820   8.375  0.0204 -0.1319 -0.1456
 7287W        W11351   1.291   8.077  10.793  0.3338  0.1526 -0.3057
 7288W        W11352   3.157   1.116   3.267 -0.0650  0.1578  0.1924
 7289W        W11353   1.199  10.359   8.595  0.1630  0.1479 -0.0400
 7290W        W11354   3.750   8.502   1.810 -0.0397 -0.1263  0.4944
 7291W        W11355   2.527   6.023  10.890  0.0955  0.1492 -0.0786
 7292W        W11356   3.838   7.086   9.534  0.0434 -0.0218 -0.3847
 7293W        W11357   2.097   8.510  11.033  0.1476  0.2546  0.0933
 7294W        W11358   2.952   5.243   3.187  0.2048  0.1057  0.0523
 7295W        W11359   1.092   0.554   0.704  0.4007 -0.0719  0.1417
 7296W        W11360   0.635   6.007   3.313 -0.0041 -0.1640  0.0001
 7297W        W11361   3.641   4.047   0.516  0.1885  0.0001  0.2763
 7298W        W11362   0.375   4.975  10.633  0.0659 -0.2392 -0.0337
 7299W        W11363   6.930  10.749   2.192 -0.3657  0.1646 -0.2514
 7300W        W11364   8.620   7.899   9.780 -0.0164 -0.1484 -0.0420
 7301W        W11365   1.206   1.118   1.647 -0.0838  0.4944  0.0167
 7302W        W11366   3.869  10.308   7.982  0.0067 -0.1320 -0.0765
 7303W        W11367  10.456   3.192   8.770 -0.1790 -0.1219  0.1342
 7304W        W11368   3.795  10.397   9.466  0.4195  0.1487 -0.2003
 7305W        W11369   0.076   2.536   9.303  0.0238  0.2210 -0.0791
 7306W        W11370   3.772   5.545   2.225  0.2431 -0.0132 -0.0687
 7307W        W11371   5.052   1.070   0.398 -0.1668 -0.1549 -0.2681
 7308W        W11372   2.516   9.160   1.101 -0.0183  0.0806 -0.1151
 7309W        W11373   6.903   2.111   3.288  0.1509 -0.1170  0.1123
 7310W        W11374   1.039   5.806   1.214 -0.1235 -0.0216  0.2336
 7311W        W11375   6.028   8.121   2.599  0.1596  0.3282  0.1299
 7312W        W11376   8.783   4.936   8.912  0.0700 -0.3880 -0.1057
 7313ION    NA+11377   8.754   2.800   9.135 -0.1871 -0.1360 -0.2707
 7314ION    NA+11378   1.642   2.831   6.949  0.0671  0.1607 -0.1765
 7315ION    NA+11379   7.481   2.627   2.296  0.1858 -0.0465  0.0170
 7316ION    NA+11380   5.051   0.501   0.394  0.1401 -0.1325  0.3502
 7317ION    NA+11381   3.284   9.798   7.348 -0.0123  0.3411 -0.0165
 7318ION    NA+11382   9.595   3.205   8.878  0.0048 -0.1094 -0.1469
 7319ION    NA+11383   5.100   5.085   0.964 -0.0248  0.1881 -0.0293
 7320ION    NA+11384   4.124   9.011  10.120  0.1710  0.0618 -0.1203
 7321ION    NA+11385   5.009   7.446   2.613 -0.0787 -0.3018  0.0787
 7322ION    NA+11386   4.167   5.370  11.210  0.0719 -0.0749  0.1579
 7323ION    NA+11387   2.036   2.313  10.964 -0.1760  0.1960 -0.1717
 7324ION    NA+11388   0.057  10.175   6.769 -0.1414 -0.0635  0.0048
 7325ION    NA+11389   2.935   8.109  10.589  0.4552  0.1329  0.1430
 7326ION    NA+11390   3.543   8.148   0.888  0.0992  0.3764 -0.1850
 7327ION    NA+11391   8.248  10.225   1.923  0.0300  0.0289 -0.1373
 7328ION    NA+11392   6.307   0.535   3.740 -0.2856 -0.0145 -0.1556
 7329ION    NA+11393   5.428   9.193   7.527 -0.1036  0.0813 -0.1442
 7330ION    NA+11394   3.456   0.063  10.469 -0.0751 -0.2065 -0.0836
 7331ION    NA+11395   2.224   6.452   1.493 -0.1250 -0.1768  0.3731
 7332ION    NA+11396   4.322  10.044  11.235 -0.0291 -0.2424 -0.1410
 7333ION    NA+11397   4.506   5.141   3.438  0.1365  0.1811  0.0410
 7334ION    NA+11398   2.984   9.194   0.217 -0.2024  0.0279  0.0656
 7335ION    NA+11399   9.771   4.896   8.094 -0.0350 -0.0211 -0.2106
 7336ION    NA+11400   0.609  10.753   7.172  0.0813 -0.1526 -0.2349
 7337ION    NA+11401   9.310   5.589   7.131  0.2701  0.1571 -0.1240
 7338ION    NA+11402   7.646   4.118   0.519 -0.1195 -0.0508  0.3570
 7339ION    NA+11403   6.805   5.626   1.062  0.0749 -0.2006  0.1317
 7340ION    NA+11404   0.901   0.435   1.241 -0.2435 -0.1098 -0.0599
 7341ION    NA+11405   2.074   2.945   1.102  0.0197 -0.0975 -0.0178
 7342ION    NA+11406   1.114   0.115   3.273 -0.0644 -0.0383 -0.2978
 7343ION    NA+11407   7.556   5.572   9.187 -0.2405  0.0630  0.1796
 7344ION    NA+11408   3.241   3.514   0.826 -0.1069 -0.1707  0.0794
 7345ION    NA+11409   6.868   0.790   7.957 -0.0186  0.0831  0.2557
 7346ION    NA+11410   6.812   6.741  10.436  0.1394 -0.1357  0.0115
 7347ION    NA+11411   1.366   4.858   8.956  0.0950 -0.0257 -0.2075
 7348ION    NA+11412   8.012   6.209   2.040  0.3548 -0.0682  0.0265
 7349ION    NA+11413   8.320   2.822   7.828 -0.1427  0.1675 -0.0599
 7350ION    NA+11414   1.935   6.606   3.375 -0.0146 -0.1404 -0.3076
 7351ION    NA+11415   5.607   1.403   1.280  0.2482 -0.1180 -0.0411
 7352ION    NA+11416   8.964   7.440   2.432 -0.0459 -0.4773  0.0821
 7353ION    NA+11417   2.036   7.488   1.751 -0.3182 -0.3387  0.0850
 7354ION    NA+11418   9.141   2.212   7.281  0.3422  0.1660 -0.2224
 7355ION    NA+11419   4.104   7.157   2.250 -0.1241 -0.1528 -0.2802
 7356ION    NA+11420   0.815  10.410   0.825 -0.0558  0.2619 -0.2500
 7357ION    NA+11421   8.104   7.104  10.605 -0.3019  0.1971  0.1103
 7358ION    NA+11422   0.198   5.404   8.182  0.0108  0.1383  0.0596
 7359ION    NA+11423   4.494   3.676  10.511  0.0273  0.2244  0.1005
 7360ION    NA+11424   1.721   8.625   2.172 -0.2626 -0.1865 -0.0361
 7361ION    NA+11425   3.480   9.507   7.892  0.0306 -0.0121 -0.2798
 7362ION    NA+11426   5.542   8.632   8.822  0.1790 -0.0964 -0.4482
 7363ION    NA+11427   5.043   4.223   3.088 -0.1879  0.1408 -0.0627
 7364ION    NA+11428   3.323   1.741   2.543  0.0202  0.0897 -0.3788
 7365ION    NA+11429  10.192   1.400   8.941 -0.2967 -0.1450  0.4374
 7366ION    NA+11430   0.372   9.081   1.164  0.2691  0.4245  0.2620
 7367ION    NA+11431   4.674   4.964   7.253 -0.0906 -0.1932  0.3252
 7368ION    NA+11432   3.251   7.831   7.247  0.1949 -0.3163 -0.0320
 7369ION    NA+11433   4.469   3.249   0.088 -0.0534 -0.1052  0.2930
 7370ION    NA+11434   7.663   7.965   8.363  0.3179 -0.1340 -0.0181
 7371ION    NA+11435   7.249   2.143   2.800  0.1291  0.0155  0.1153
 7372ION    NA+11436   1.384   2.337   0.741 -0.3031 -0.2775  0.3488
 7373ION    NA+11437   4.603   8.218   3.177  0.1402 -0.0436  0.1453
 7374ION    NA+11438   9.051   0.270   1.164 -0.3748  0.1320 -0.1014
 7375ION    NA+11439   0.479   6.591   6.986  0.1134 -0.0177 -0.0667
 7376ION    NA+11440   6.054   1.524   2.015 -0.0613 -0.1684  0.1013
 7377ION    NA+11441  10.007   2.595   8.136  0.0198 -0.1375  0.2721
 7378ION    NA+11442   2.256   0.646   0.260 -0.1137 -0.0833 -0.0306
 7379ION    NA+11443   2.694   4.939   9.474  0.0654 -0.1374  0.2391
 7380ION    NA+11444   6.713   4.124   2.423  0.0657 -0.0407 -0.2865
 7381ION    NA+11445   3.007  10.281  11.293  0.0465  0.0651  0.3024
 7382ION    NA+11446   4.917   8.961   7.408 -0.0661 -0.0777  0.1161
 7383ION    NA+11447   6.890   0.877   1.237 -0.0405  0.0650 -0.2978
 7384ION    NA+11448   3.709   2.628   8.853  0.0869 -0.0077 -0.3851
 7385ION    NA+11449   7.065   4.882   1.296 -0.3228  0.2288 -0.3748
 7386ION    NA+11450   0.621   6.821   0.350 -0.3102  0.2174 -0.0974
 7387ION    NA+11451   4.481   0.559   9.744  0.3923  0.1772  0.1010
 7388ION    NA+11452   3.029   0.382   1.726  0.1124  0.0616 -0.0338
 7389ION    NA+11453   8.175   5.956   2.672  0.2274 -0.2714 -0.0147
 7390ION    CL-11454   9.564   5.675   2.581  0.1395  0.3652 -0.0122
 7391ION    CL-11455   7.149   4.640   1.727 -0.0794 -0.1853 -0.0818
 7392ION    CL-11456   1.493   5.897   1.498  0.0392  0.0566 -0.0357
 7393ION    CL-11457   6.959   7.244  10.571  0.1500  0.0472 -0.5150
 7394ION    CL-11458  10.453   6.002   7.896  0.1267 -0.0902 -0.2009
 7395ION    CL-11459  10.105   7.530   1.109 -0.1577  0.2974 -0.1987
 7396ION    CL-11460   2.891   9.671   0.011  0.1408  0.2317  0.2020
 7397ION    CL-11461  10.481   4.927   8.204  0.0167  0.0227  0.1176
 7398ION    CL-11462   2.554   7.069   8.077  0.0972 -0.1135 -0.0911
 7399ION    CL-11463   3.186   0.362   2.254 -0.2257 -0.3098 -0.0893
 7400ION    CL-11464   7.763   0.508  10.819  0.5449  0.2170 -0.0185
 7401ION    CL-11465   8.450   6.054   2.209  0.3170  0.2626 -0.1023
 7402ION    CL-11466   5.981   1.823   3.566  0.0653  0.1752  0.2348
 7403ION    CL-11467   4.530   9.850   2.299  0.0591  0.1141 -0.0861
 7404ION    CL-11468  10.619   1.559   1.352 -0.2323  0.0964  0.1682
 7405ION    CL-11469  10.059   1.101   8.513 -0.4290  0.4869 -0.0817
 7406ION    CL-11470   0.529   5.817   2.105 -0.0525  0.0006  0.1206
 7407ION    CL-11471   1.696   6.358   2.864  0.3031  0.0668  0.1142
 7408ION    CL-11472   3.551  10.705   9.992 -0.2309 -0.1310  0.1368
 7409ION    CL-11473   3.956   9.428   8.190  0.1798  0.1992 -0.0004
 7410ION    CL-11474   4.738   8.780   0.023 -0.0256  0.1344  0.1113
 7411ION    CL-11475   6.574   9.182   9.840 -0.1559 -0.1197 -0.1682
 7412ION    CL-11476   5.291   2.829   0.207 -0.3941  0.1037 -0.0147
 7413ION    CL-11477   2.900   1.067   9.820  0.1759 -0.2538  0.3525
 7414ION    CL-11478   3.641   4.248   7.966 -0.0032 -0.1121 -0.0792
 7415ION    CL-11479   7.905   2.292   2.193  0.0210  0.1767 -0.0433
 7416ION    CL-11480   4.432   2.340   8.611  0.3907  0.3122 -0.0823
 7417ION    CL-11481   4.911   4.397   2.084 -0.2654 -0.0034  0.0515
 7418ION    CL-11482   6.098   1.327   1.559  0.1518 -0.0073  0.3917
 7419ION    CL-11483   1.513   1.919   7.376 -0.1115  0.3778  0.0840
 7420ION    CL-11484   2.081   4.302   2.695 -0.1516 -0.1513  0.2213
 7421ION    CL-11485   4.536   1.988   3.163  0.0713  0.1109  0.0330
 7422ION    CL-11486   5.110   1.744   2.388  0.2603  0.0115  0.1055
 7423ION    CL-11487   0.818   0.143   0.770  0.1546 -0.0383 -0.0843
 7424ION    CL-11488   1.919   0.669   0.608  0.1065  0.3110 -0.0734
 7425ION    CL-11489   7.582   7.496   2.201  0.2414  0.1025 -0.1028
 7426ION    CL-11490   1.462   4.785   7.783 -0.2372  0.4670 -0.0507
 7427ION    CL-11491   0.987   4.531   8.768 -0.1186 -0.1813  0.3086
 7428ION    CL-11492   3.846  10.146  11.284  0.1721  0.1142 -0.1782
 7429ION    CL-11493   3.869   7.201   1.805 -0.4137 -0.0322 -0.0298
 7430ION    CL-11494   3.276   0.582   1.302  0.0442 -0.0816  0.2549
 7431ION    CL-11495   5.418   2.922   3.012 -0.2067  0.0901 -0.2179
 7432ION    CL-11496   5.759   3.088   8.869 -0.1552 -0.0090  0.1311
 7433ION    CL-11497   7.517   1.894   3.172  0.1232 -0.0283 -0.0946
 7434ION    CL-11498   7.715   4.463   0.925  0.0062  0.1298 -0.0088
 7435ION    CL-11499   1.602   2.720   1.062  0.0003  0.3229 -0.3842
 7436ION    CL-11500   0.918   3.803   9.152 -0.1166 -0.1074 -0.1869
 7437ION    CL-11501   2.560   8.173   1.099  0.0056  0.2021 -0.0466
 7438ION    CL-11502   6.523   3.986   2.879  0.1794  0.0653  0.1528
 7439ION    CL-11503   1.216   7.494   0.794  0.4194 -0.3525  0.0368
 7440ION    CL-11504   3.420   2.844   9.187 -0.1301 -0.2326 -0.2334
 7441ION    CL-11505  10.247  10.396   0.572  0.2277  0.2788  0.0050
 7442ION    CL-11506   2.755   5.480   9.523 -0.1005  0.0340 -0.0714
 7443ION    CL-11507   8.030   8.119   8.654  0.1377 -0.1689 -0.0195
 7444ION    CL-11508   2.393   6.118   1.054 -0.0843 -0.2134 -0.2155
 7445ION    CL-11509   9.710   2.972   9.344  0.0217 -0.1621  0.0309
 7446ION    CL-11510   0.614   9.313   0.849 -0.1227 -0.0548 -0.0654
 7447ION    CL-11511   9.236   7.821   2.711  0.0531  0.0030  0.0853
 7448ION    CL-11512   8.980   0.498   1.584  0.1826  0.0698  0.0076
 7449ION    CL-11513   4.929   8.512   8.181 -0.5287  0.2416 -0.0005
 7450ION    CL-11514   7.370   3.845   0.181  0.0019  0.1759 -0.2508
 7451ION    CL-11515   3.214   3.654   0.296 -0.0008 -0.0415  0.0538
 7452ION    CL-11516  10.296   6.269   2.014 -0.0377 -0.2487  0.0312
 7453ION    CL-11517  10.359   2.445   2.371  0.1249  0.2812  0.2333
 7454ION    CL-11518   3.160   4.708   9.673  0.2704  0.0887 -0.1332
 7455ION    CL-11519  10.026   3.046   8.363 -0.0558  0.1304  0.1233
 7456ION    CL-11520   0.441   0.214   1.538  0.2271 -0.0608 -0.1246
 7457ION    CL-11521   3.316  10.325   8.149 -0.2033  0.0852  0.3496
 7458ION    CL-11522   4.507   4.538   9.602  0.0854 -0.4414  0.2972
 7459ION    CL-11523   7.570   6.316   2.273  0.1779  0.0578  0.1678
 7460ION    CL-11524   7.086   0.608   1.682 -0.3187  0.0031 -0.2929
 7461ION    CL-11525   0.376   8.550   2.326  0.2773 -0.1944 -0.1213
 7462ION    CL-11526  10.276   4.379  10.984  0.0634 -0.1294 -0.0312
 7463ION    CL-11527   6.152   0.466  10.477 -0.1464  0.2930 -0.3612
 7464ION    CL-11528   9.402   8.804   7.559 -0.2007  0.0748 -0.0243
 7465ION    CL-11529   8.608   4.968   7.454  0.0759 -0.1162  0.2045
 7466ION    CL-11530   1.774   2.201   0.130  0.3218 -0.1087  0.0698
  10.77550  10.77550  11.29914
