Protein in INSANE! Membrane UpperLeaflet>POPC=1.0 LowerLeaflet>POPC=1.0
12676
    1AU     AUC    1   6.140   8.249   6.614  0.0405  0.0467  0.2048
    1AU     AUC    2   6.417   8.164   6.656  0.0147  0.0137 -0.0883
    1AU     AUC    3   6.255   8.301   6.880  0.0168  0.0136  0.0390
    1AU     AUC    4   6.025   8.199   6.335 -0.0475  0.1086  0.0720
    1AU     AUC    5   5.871   8.357   6.554 -0.0109  0.0012 -0.0042
    1AU     AUC    6   6.102   8.486   6.427 -0.0302  0.0425  0.0440
    1AU     AUC    7   6.349   8.465   6.609  0.0121  0.0536 -0.0814
    1AU     AUC    8   5.928   8.051   6.611 -0.0395  0.0500  0.0558
    1AU     AUC    9   6.141   8.044   6.793 -0.1195  0.0227  0.0047
    1AU     AUC   10   5.940   8.253   6.855  0.0615 -0.0545 -0.0372
    1AU     AUC   11   6.066   8.509   6.744 -0.0347  0.0724 -0.0248
    1AU     AUC   12   6.210   7.983   6.491  0.0254  0.0122  0.0951
    1AU     AUC   13   6.319   8.252   6.378  0.0348 -0.0444  0.0584
    1AU     AUC   14   6.697   8.068   6.716  0.0333  0.0128  0.0023
    1AU     AUC   15   6.548   8.204   6.935 -0.0824 -0.0011  0.0038
    1AU     AUC   16   6.363   8.376   7.142 -0.0262 -0.0611  0.0874
    1AU     AUC   17   5.901   8.139   6.092  0.0332  0.1686  0.0182
    1AU     AUC   18   5.732   8.291   6.283  0.0024  0.0564  0.0022
    1AU     AUC   19   5.589   8.469   6.492 -0.0118 -0.0218  0.0106
    1AU     AUC   20   6.097   8.715   6.248 -0.0416  0.0480  0.0211
    1AU     AUC   21   6.335   8.700   6.430  0.0076  0.0741  0.0688
    1AU     AUC   22   6.562   8.673   6.632  0.0279  0.0113  0.0351
    1AU     AUC   23   5.676   7.847   6.587 -0.0556 -0.0194  0.0038
    1AU     AUC   24   5.949   7.807   6.792 -0.0204  0.0043  0.1297
    1AU     AUC   25   6.162   7.797   7.000  0.0401  0.0810  0.1391
    1AU     AUC   26   5.741   8.238   7.065 -0.0705  0.0653  0.0454
    1AU     AUC   27   5.856   8.509   7.003 -0.0261  0.0051  0.0167
    1AU     AUC   28   5.994   8.765   6.890 -0.0044 -0.0008 -0.0231
    1AU     AUC   29   6.281   7.713   6.377  0.0694  0.1132  0.1024
    1AU     AUC   30   6.397   7.985   6.264 -0.0307  0.0375  0.0032
    1AU     AUC   31   6.514   8.252   6.141  0.1069  0.0965 -0.0063
    1AU     AUC   32   6.061   8.328   7.138  0.0624 -0.0003  0.0484
    1AU     AUC   33   6.160   8.562   7.024 -0.0861  0.0075  0.0509
    1AU     AUC   34   6.503   7.891   6.550  0.0039  0.0195 -0.0088
    1AU     AUC   35   6.617   8.155   6.430  0.1143 -0.0085 -0.0471
    1AU     AUC   36   5.634   8.363   6.791 -0.0675 -0.0381 -0.0259
    1AU     AUC   37   5.772   8.635   6.696  0.1028  0.0123  0.0199
    1AU     AUC   38   6.099   7.917   6.221  0.0261 -0.0057 -0.0107
    1AU     AUC   39   6.209   8.174   6.101 -0.0800 -0.0689  0.0478
    1AU     AUC   40   6.649   8.363   6.661  0.0544  0.0985 -0.0555
    1AU     AUC   41   6.479   8.509   6.900 -0.0026  0.0721  0.0221
    1AU     AUC   42   5.984   8.424   6.158  0.0189 -0.0849 -0.0212
    1AU     AUC   43   5.833   8.600   6.377 -0.0175 -0.0179  0.0652
    1AU     AUC   44   6.434   7.921   6.857  0.0821 -0.0276 -0.0044
    1AU     AUC   45   6.273   8.093   7.083  0.0937 -0.0887 -0.0761
    1AU     AUC   46   5.792   7.969   6.324 -0.0213  0.0443  0.1086
    1AU     AUC   47   5.625   8.152   6.548  0.0025  0.0030  0.0101
    1AU     AUC   48   6.030   8.754   6.579 -0.0398  0.0167 -0.0001
    1AU     AUC   49   6.292   8.723   6.728  0.0060  0.0466 -0.0598
    1AU     AUC   50   5.729   8.018   6.829  0.0072  0.0549 -0.0732
    1AU     AUC   51   5.938   8.024   7.060 -0.0291  0.1102  0.0254
    1AU     AUC   52   6.301   8.493   6.179  0.1165 -0.0063  0.0588
    1AU     AUC   53   6.551   8.455   6.380  0.0368 -0.0655 -0.0153
    1AU     AUC   54   5.996   7.776   6.459 -0.0130 -0.0530 -0.0123
    1AU     AUC   55   6.230   7.761   6.701  0.0099 -0.0187 -0.0160
    1AU    AUSL   56   6.032   8.509   7.286 -0.0281  0.0705 -0.0142
    1AU    AUSL   57   5.906   8.116   7.442 -0.0702  0.0087  0.0043
    1AU     AUL   58   5.871   8.358   7.724  0.0293  0.0332 -0.0043
    1AU       S   59   6.040   7.881   7.716 -0.2635  0.2024 -0.0036
    1AU     LIG   60   5.672   7.680   7.891  0.1524 -0.0319  0.0008
    1AU     LIG   61   5.473   7.282   7.785 -0.0590 -0.0513 -0.1910
    1AU     LIG   62   5.141   7.115   7.497  0.0167 -0.1491 -0.2913
    1AU     LIG   63   4.706   7.005   7.462 -0.0966 -0.2209  0.0777
    1AU     LIG   64   4.525   6.731   7.628  0.2048  0.1870  0.0114
    1AU     LIG   65   4.213   6.443   7.616  0.0725 -0.3559  0.3422
    1AU       S   66   5.742   8.924   7.569  0.2584  0.1226  0.0312
    1AU     LIG   67   5.763   9.441   7.537  0.0409 -0.1941  0.3291
    1AU     LIG   68   5.619   9.888   7.251 -0.0323 -0.3509  0.0645
    1AU     LIG   69   5.422  10.164   7.509 -0.0120 -0.2972 -0.3226
    1AU     LIG   70   5.054  10.241   7.786 -0.0600 -0.1749  0.0691
    1AU     LIG   71   4.691  10.642   7.612  0.0512  0.1490 -0.1839
    1AU     LIG   72   4.788  10.848   7.281  0.0755  0.0884 -0.1046
    1AU    AUSL   73   5.640   8.405   7.332  0.0054  0.0535  0.0592
    1AU    AUSL   74   5.673   8.750   7.109 -0.0707  0.0495 -0.0086
    1AU     AUL   75   5.473   8.391   7.462  0.1472  0.1039 -0.1066
    1AU       S   76   5.673   8.800   7.602 -0.1190  0.3853 -0.1610
    1AU     LIG   77   5.448   8.676   7.904  0.0852  0.2416  0.1751
    1AU     LIG   78   4.970   8.600   8.009 -0.0805 -0.3003 -0.1683
    1AU     LIG   79   4.581   8.717   8.068 -0.0615  0.1035  0.1091
    1AU     LIG   80   4.322   9.133   8.153 -0.2274 -0.0287  0.0571
    1AU     LIG   81   3.811   9.184   8.065 -0.1093  0.0535 -0.1306
    1AU     LIG   82   3.504   9.319   8.196  0.0494  0.0282  0.4493
    1AU       S   83   5.344   8.788   7.261  0.0629 -0.0246 -0.2497
    1AU     LIG   84   5.309   9.227   7.333 -0.2344 -0.1491 -0.0666
    1AU     LIG   85   5.278   9.515   7.049  0.3928 -0.2558  0.0573
    1AU     LIG   86   4.781   9.662   6.994 -0.0051 -0.5731  0.0236
    1AU     LIG   87   4.495  10.003   6.964 -0.2317  0.2184  0.1871
    1AU     LIG   88   4.413  10.087   6.479  0.3276  0.1446  0.1249
    1AU     LIG   89   4.245  10.423   6.116 -0.1333  0.0301 -0.0110
    1AU    AUSL   90   6.051   8.920   7.195 -0.0207  0.0711 -0.0546
    1AU    AUSL   91   6.438   8.634   7.279 -0.0024 -0.0048  0.0056
    1AU     AUL   92   6.165   8.693   7.496 -0.0919 -0.0596 -0.0657
    1AU       S   93   5.994   9.069   7.302  0.2649  0.2140 -0.0792
    1AU     LIG   94   6.003   9.512   7.028 -0.1377  0.0878 -0.0485
    1AU     LIG   95   6.099   9.934   6.973 -0.0536 -0.0035  0.1431
    1AU     LIG   96   6.048  10.293   6.876 -0.0979 -0.3167  0.0080
    1AU     LIG   97   6.288  10.535   6.607 -0.1824 -0.0037  0.0335
    1AU     LIG   98   6.293  11.005   6.782  0.2261 -0.0651 -0.0690
    1AU     LIG   99   6.333  11.181   7.253  0.2800  0.0520  0.1487
    1AU       S  100   6.626   8.647   7.484 -0.0090  0.1444 -0.2474
    1AU     LIG  101   6.478   8.635   7.879 -0.0584  0.0155 -0.0816
    1AU     LIG  102   6.180   8.400   8.113 -0.0918  0.1368 -0.0346
    1AU     LIG  103   5.939   8.053   8.178 -0.1835 -0.2969  0.0574
    1AU     LIG  104   6.125   7.661   8.129  0.0160  0.0539 -0.1664
    1AU     LIG  105   6.445   7.442   7.948 -0.1626 -0.2885  0.1209
    1AU     LIG  106   6.822   7.310   7.878  0.1788 -0.2944 -0.1676
    1AU    AUSL  107   6.868   7.934   6.484 -0.0538  0.1088  0.0915
    1AU    AUSL  108   6.863   8.280   6.192  0.0575  0.0343  0.0060
    1AU     AUL  109   7.135   7.975   6.228  0.0520 -0.0657 -0.0134
    1AU       S  110   7.100   7.499   6.217  0.1153 -0.2643  0.2590
    1AU     LIG  111   7.544   7.448   6.126 -0.1405 -0.0109  0.1252
    1AU     LIG  112   7.860   7.559   6.333 -0.2794  0.0721 -0.3096
    1AU     LIG  113   8.096   7.673   6.571 -0.2045  0.0936  0.0554
    1AU     LIG  114   8.214   7.863   6.800  0.0613  0.1564 -0.0965
    1AU     LIG  115   8.031   8.156   7.063 -0.1383 -0.0330 -0.0277
    1AU     LIG  116   7.844   8.560   7.172  0.0355 -0.1265  0.1259
    1AU       S  117   7.420   8.360   6.311  0.0289 -0.3915 -0.2286
    1AU     LIG  118   7.647   7.979   6.439 -0.0491  0.1222 -0.0757
    1AU     LIG  119   7.439   7.625   6.605  0.1663  0.2924  0.3111
    1AU     LIG  120   7.238   7.543   7.012  0.1106  0.1350  0.5578
    1AU     LIG  121   7.431   7.479   7.317  0.1210 -0.2612 -0.0813
    1AU     LIG  122   7.255   7.587   7.746  0.3108 -0.0481 -0.2721
    1AU     LIG  123   6.897   7.765   8.110  0.0871  0.2179 -0.2264
    1AU    AUSL  124   6.668   7.603   6.321  0.0180 -0.0205 -0.0209
    1AU    AUSL  125   6.756   7.675   6.785 -0.0168 -0.0432  0.0659
    1AU     AUL  126   6.989   7.721   6.621  0.0944 -0.0873 -0.0143
    1AU       S  127   6.777   7.276   6.777 -0.0686 -0.1984 -0.0125
    1AU     LIG  128   7.198   7.137   6.657  0.3987  0.0500 -0.0256
    1AU     LIG  129   7.421   6.868   6.600 -0.2415  0.2170  0.2356
    1AU     LIG  130   7.768   6.463   6.623  0.0350 -0.0439 -0.4859
    1AU     LIG  131   7.745   6.180   6.982  0.1739  0.1820 -0.3758
    1AU     LIG  132   7.487   5.763   7.240  0.1480 -0.0791 -0.2165
    1AU     LIG  133   7.104   5.586   7.427  0.1398  0.1909 -0.1277
    1AU       S  134   6.879   7.393   6.298  0.0316 -0.1179  0.2084
    1AU     LIG  135   6.842   6.909   6.405  0.0186  0.1673  0.2049
    1AU     LIG  136   6.890   6.641   6.699 -0.1477 -0.0027 -0.1732
    1AU     LIG  137   7.121   6.645   7.042  0.0797  0.1458 -0.1069
    1AU     LIG  138   7.518   6.573   7.082 -0.1223  0.0976 -0.0717
    1AU     LIG  139   7.657   6.737   7.465  0.1619 -0.0904 -0.2447
    1AU     LIG  140   8.014   6.941   7.601  0.1989  0.0710 -0.1297
    1AU    AUSL  141   6.557   8.008   6.224  0.0648 -0.0042 -0.0621
    1AU    AUSL  142   6.394   7.673   6.019 -0.0242  0.0210  0.0498
    1AU     AUL  143   6.765   7.793   6.024  0.0945  0.0365  0.0401
    1AU       S  144   6.540   7.560   5.708  0.0753 -0.3829 -0.1819
    1AU     LIG  145   6.805   7.268   5.830  0.6163 -0.0984  0.1771
    1AU     LIG  146   6.804   6.781   5.626 -0.1076 -0.4111  0.0234
    1AU     LIG  147   6.548   6.339   5.399  0.2025  0.2295 -0.1790
    1AU     LIG  148   6.705   5.960   5.215  0.1551 -0.1972 -0.1576
    1AU     LIG  149   6.410   5.688   5.458 -0.2942 -0.2248  0.4135
    1AU     LIG  150   6.040   5.519   5.605 -0.4945  0.1913 -0.3266
    1AU       S  151   6.684   7.460   6.291 -0.0066  0.1994 -0.5853
    1AU     LIG  152   6.458   7.089   6.191  0.0231  0.1589  0.2388
    1AU     LIG  153   6.415   6.618   6.077  0.0309  0.4201  0.3910
    1AU     LIG  154   6.349   6.236   5.939 -0.1752  0.3809 -0.0328
    1AU     LIG  155   6.274   5.786   6.025 -0.0262  0.0774 -0.3201
    1AU     LIG  156   5.961   5.510   6.112 -0.4983 -0.0502 -0.2824
    1AU     LIG  157   5.683   5.679   6.302  0.0149 -0.0421  0.1222
    1AU    AUSL  158   5.421   8.651   6.791  0.0112 -0.0069 -0.0941
    1AU    AUSL  159   5.738   8.965   6.758 -0.0788 -0.0820 -0.0581
    1AU     AUL  160   5.630   9.051   7.004 -0.0193  0.0235 -0.0767
    1AU       S  161   5.193   8.887   7.062  0.3309  0.2378 -0.0918
    1AU     LIG  162   4.782   9.116   7.197  0.1777 -0.0802  0.5299
    1AU     LIG  163   4.406   9.456   7.198 -0.3059  0.1072  0.0397
    1AU     LIG  164   4.179   9.646   7.254 -0.3050  0.5367  0.2053
    1AU     LIG  165   3.896   9.946   7.117  0.4117 -0.0627 -0.0514
    1AU     LIG  166   3.432  10.055   6.903 -0.1797  0.1450 -0.0020
    1AU     LIG  167   3.018  10.183   6.851 -0.1738  0.1703  0.0118
    1AU       S  168   5.278   9.103   6.650  0.0791 -0.0347  0.0681
    1AU     LIG  169   4.837   9.258   6.701 -0.1183  0.1304  0.1554
    1AU     LIG  170   4.510   9.440   6.695  0.0383 -0.1173  0.2443
    1AU     LIG  171   4.142   9.680   6.730 -0.3060 -0.0465 -0.0025
    1AU     LIG  172   3.716   9.699   6.570 -0.1295  0.4561  0.0426
    1AU     LIG  173   3.463   9.776   6.131  0.1414 -0.2345  0.0173
    1AU     LIG  174   3.591   9.731   5.684 -0.2748  0.0591 -0.1651
    1AU    AUSL  175   5.699   8.371   6.930  0.0305  0.0077 -0.0369
    1AU    AUSL  176   5.248   8.315   6.627  0.0222 -0.0101  0.0009
    1AU     AUL  177   5.189   8.568   6.745  0.1450  0.0344  0.0787
    1AU       S  178   4.890   8.196   6.850 -0.0190  0.4065 -0.2474
    1AU     LIG  179   4.659   8.204   6.418 -0.0270 -0.0651 -0.1659
    1AU     LIG  180   4.550   7.921   6.159 -0.0722 -0.1076 -0.0295
    1AU     LIG  181   4.263   7.608   6.327 -0.2078 -0.2127  0.0938
    1AU     LIG  182   4.042   7.464   6.607  0.2172 -0.1640 -0.2081
    1AU     LIG  183   3.679   7.534   6.825  0.0407  0.0509 -0.1962
    1AU     LIG  184   3.170   7.483   6.922 -0.2970  0.3147  0.0702
    1AU       S  185   5.212   8.671   7.183 -0.0245 -0.3044 -0.3089
    1AU     LIG  186   4.797   8.584   7.167  0.2157  0.0621 -0.4412
    1AU     LIG  187   4.437   8.483   7.053  0.0459  0.6424 -0.3687
    1AU     LIG  188   4.242   8.334   6.696  0.4536  0.1039 -0.1661
    1AU     LIG  189   3.802   8.306   6.787 -0.0292 -0.0769 -0.0861
    1AU     LIG  190   3.306   8.390   6.742 -0.3131 -0.0740 -0.0080
    1AU     LIG  191   2.912   8.416   7.037 -0.3753 -0.1943  0.2425
    1AU    AUSL  192   6.106   7.966   6.005  0.0680  0.0062  0.0155
    1AU    AUSL  193   6.034   7.562   6.191  0.0268  0.0984  0.0252
    1AU     AUL  194   6.117   7.551   5.877  0.0435 -0.0946 -0.0401
    1AU       S  195   6.403   7.657   5.524  0.2669  0.3411 -0.0857
    1AU     LIG  196   6.096   7.524   5.277 -0.1598 -0.0754  0.1236
    1AU     LIG  197   5.980   7.133   5.375  0.1893  0.1237 -0.4966
    1AU     LIG  198   5.688   7.002   5.657 -0.3200 -0.1308  0.0185
    1AU     LIG  199   5.432   6.764   5.940 -0.2057  0.2530 -0.1894
    1AU     LIG  200   5.045   6.456   6.154  0.1140 -0.2580  0.1979
    1AU     LIG  201   4.617   6.368   6.045  0.2927 -0.2995 -0.0915
    1AU       S  202   5.649   7.281   6.050 -0.2180 -0.1719 -0.3358
    1AU     LIG  203   5.894   6.843   6.111 -0.0293 -0.3981 -0.2997
    1AU     LIG  204   5.874   6.437   6.017 -0.4419 -0.4180  0.1106
    1AU     LIG  205   5.917   6.084   6.263 -0.1139 -0.4701 -0.0182
    1AU     LIG  206   6.047   5.870   6.565 -0.1920  0.1871 -0.0964
    1AU     LIG  207   5.789   5.852   6.994  0.2859  0.2320  0.3574
    1AU     LIG  208   5.547   5.633   7.260 -0.1976 -0.5555  0.1839
    1AU    AUSL  209   6.479   8.056   5.817 -0.0105  0.0042  0.0635
    1AU    AUSL  210   5.990   8.267   5.747 -0.0113  0.0238 -0.0351
    1AU     AUL  211   6.112   7.985   5.667 -0.0493  0.1062 -0.0934
    1AU       S  212   6.072   8.380   5.457 -0.1560 -0.0075  0.1734
    1AU     LIG  213   5.672   8.438   5.342  0.0119  0.3484 -0.0228
    1AU     LIG  214   5.278   8.276   5.375 -0.1108 -0.0337  0.1100
    1AU     LIG  215   5.024   7.918   5.585 -0.2515 -0.0070 -0.0877
    1AU     LIG  216   4.770   7.617   5.751  0.0980 -0.0467  0.2027
    1AU     LIG  217   4.639   7.233   5.714  0.3126 -0.0604  0.3341
    1AU     LIG  218   4.720   6.890   5.830 -0.1326  0.3536 -0.0045
    1AU       S  219   6.535   7.904   5.645 -0.3938  0.2231 -0.0134
    1AU     LIG  220   6.937   7.730   5.586  0.1692 -0.0382 -0.2475
    1AU     LIG  221   7.309   7.443   5.668  0.2579  0.0665 -0.1154
    1AU     LIG  222   7.674   7.346   5.629 -0.0074  0.1683 -0.0831
    1AU     LIG  223   7.899   7.034   5.910  0.2516 -0.0770 -0.2985
    1AU     LIG  224   7.815   7.075   6.312 -0.0253  0.0064 -0.2041
    1AU     LIG  225   8.078   6.891   6.428 -0.1303 -0.0951  0.0198
    1AU    AUSL  226   6.878   8.706   6.749  0.0526 -0.0452  0.0617
    1AU    AUSL  227   6.986   8.314   6.590  0.0841 -0.1039  0.0564
    1AU     AUL  228   7.115   8.774   6.580 -0.0343 -0.1271  0.0893
    1AU       S  229   7.280   8.312   6.561 -0.1711  0.4223  0.2186
    1AU     LIG  230   7.729   8.665   6.633  0.1800  0.3250 -0.1463
    1AU     LIG  231   8.053   8.975   6.705  0.0475 -0.2397  0.1014
    1AU     LIG  232   8.138   8.990   7.100 -0.4815  0.1292  0.1387
    1AU     LIG  233   8.430   9.033   7.310  0.2403 -0.1572 -0.0898
    1AU     LIG  234   8.882   9.196   7.346  0.1530 -0.1716 -0.0229
    1AU     LIG  235   9.153   9.183   7.082  0.1366 -0.1095  0.2127
    1AU       S  236   7.138   8.544   7.016 -0.2336 -0.1097  0.0410
    1AU     LIG  237   7.313   8.891   7.013  0.1455  0.0995  0.0822
    1AU     LIG  238   7.548   9.144   6.749  0.0755 -0.2899 -0.1139
    1AU     LIG  239   7.441   9.490   6.503 -0.5198 -0.0658  0.1556
    1AU     LIG  240   7.353   9.860   6.290 -0.3157 -0.3064  0.0315
    1AU     LIG  241   7.330  10.232   6.187  0.3540  0.0234 -0.2756
    1AU     LIG  242   7.045  10.582   6.076  0.0918  0.3132 -0.0948
    1AU    AUSL  243   6.950   8.109   6.944 -0.0818 -0.0609  0.0087
    1AU    AUSL  244   6.696   8.185   7.294  0.0041  0.0366  0.0142
    1AU     AUL  245   7.022   7.982   7.285 -0.0425 -0.0158 -0.0072
    1AU       S  246   7.133   8.385   7.096 -0.7592  0.0442  0.5859
    1AU     LIG  247   7.496   8.272   7.393  0.2005 -0.2111  0.0296
    1AU     LIG  248   7.740   7.917   7.434  0.0138 -0.0415  0.2528
    1AU     LIG  249   8.155   7.762   7.504  0.1193 -0.2048  0.1094
    1AU     LIG  250   8.479   7.653   7.171 -0.1222 -0.3351 -0.0874
    1AU     LIG  251   8.910   7.754   7.103 -0.0417  0.0053 -0.1854
    1AU     LIG  252   9.083   8.196   7.065  0.0345  0.1382  0.4319
    1AU       S  253   6.774   7.745   7.617 -0.1478  0.3974 -0.2133
    1AU     LIG  254   7.076   8.066   7.759  0.0672 -0.2897  0.2242
    1AU     LIG  255   6.965   8.509   7.769  0.1068  0.1101  0.0831
    1AU     LIG  256   6.949   8.966   7.807 -0.3099  0.1376 -0.1874
    1AU     LIG  257   6.944   9.329   8.073 -0.1567  0.1011 -0.1449
    1AU     LIG  258   6.683   9.711   8.176 -0.0088  0.5571 -0.1422
    1AU     LIG  259   6.438   9.973   8.456  0.3083  0.3467  0.2433
    1AU    AUSL  260   6.645   8.433   6.981  0.0767 -0.0101  0.0270
    1AU    AUSL  261   6.566   8.868   6.969  0.0565  0.0360  0.0417
    1AU     AUL  262   6.803   8.817   7.075 -0.0145  0.0475  0.0979
    1AU       S  263   6.565   8.925   7.464 -0.1440 -0.1426 -0.2409
    1AU     LIG  264   6.892   9.188   7.294 -0.0188 -0.3071  0.2316
    1AU     LIG  265   7.254   9.375   7.658 -0.0064  0.2261  0.1920
    1AU     LIG  266   7.465   9.382   7.968  0.0317 -0.2510 -0.2131
    1AU     LIG  267   7.615   9.380   8.319 -0.2784 -0.1500  0.0511
    1AU     LIG  268   7.628   9.267   8.663  0.3208 -0.1879 -0.3567
    1AU     LIG  269   7.853   9.170   8.937 -0.3118 -0.0220  0.2865
    1AU       S  270   7.048   8.471   7.302  0.0341  0.1364  0.1073
    1AU     LIG  271   7.304   8.780   7.497  0.1014  0.0165  0.0750
    1AU     LIG  272   7.591   9.084   7.562 -0.0540  0.2295  0.0265
    1AU     LIG  273   7.965   9.263   7.549 -0.3232  0.0846 -0.0293
    1AU     LIG  274   8.122   9.640   7.441 -0.1300  0.1624  0.0651
    1AU     LIG  275   8.042   9.838   7.094 -0.0235  0.0370  0.2679
    1AU     LIG  276   7.588   9.798   6.952  0.2955 -0.2869  0.0738
    1AU    AUSL  277   5.797   8.809   6.059  0.0013  0.0162 -0.0079
    1AU    AUSL  278   5.546   8.769   6.430 -0.0463  0.0061  0.0172
    1AU     AUL  279   5.668   9.089   6.215 -0.0474 -0.0524 -0.0461
    1AU       S  280   5.254   8.956   6.448  0.0750 -0.5033  0.0995
    1AU     LIG  281   5.129   9.358   6.212  0.2347  0.0704  0.3379
    1AU     LIG  282   5.095   9.672   6.573 -0.0813 -0.1208 -0.1246
    1AU     LIG  283   5.035  10.094   6.773  0.0538  0.0663 -0.3199
    1AU     LIG  284   4.830  10.392   7.061  0.1643 -0.0207 -0.2794
    1AU     LIG  285   4.327  10.336   7.297  0.2061  0.2414 -0.0905
    1AU     LIG  286   3.920  10.513   7.141 -0.0911  0.1429 -0.0640
    1AU       S  287   5.566   8.989   5.766  0.2510  0.1265 -0.0294
    1AU     LIG  288   5.501   9.413   5.779 -0.2772 -0.2532 -0.0178
    1AU     LIG  289   5.489   9.783   6.134  0.1168 -0.1362 -0.1327
    1AU     LIG  290   5.381  10.129   6.291 -0.0103 -0.0721  0.0691
    1AU     LIG  291   5.299  10.499   6.510  0.1102 -0.3248  0.0080
    1AU     LIG  292   4.989  10.881   6.543 -0.0473  0.0111 -0.2326
    1AU     LIG  293   4.784  11.091   6.837 -0.0756  0.0223 -0.3119
    1AU    AUSL  294   5.833   8.402   6.081  0.0084 -0.0167 -0.0432
    1AU    AUSL  295   6.150   8.670   5.857  0.0276  0.0459 -0.0365
    1AU     AUL  296   5.896   8.661   5.773  0.0436  0.0153 -0.0240
    1AU       S  297   5.449   8.785   5.710 -0.1293 -0.1148  0.1405
    1AU     LIG  298   5.093   8.689   5.490  0.0462 -0.1243 -0.1449
    1AU     LIG  299   4.640   8.751   5.452 -0.2980  0.0560 -0.3208
    1AU     LIG  300   4.529   9.195   5.435  0.2553  0.2049  0.1524
    1AU     LIG  301   4.780   9.414   5.806 -0.0188  0.3524 -0.0656
    1AU     LIG  302   4.955   9.881   6.011  0.1761  0.0714 -0.1009
    1AU     LIG  303   4.898  10.279   6.249 -0.0711  0.2123 -0.0943
    1AU       S  304   6.237   8.644   5.443 -0.2367 -0.3160 -0.1428
    1AU     LIG  305   5.947   8.929   5.354  0.0388 -0.1563  0.1816
    1AU     LIG  306   5.733   9.242   5.360  0.0242  0.0892  0.0059
    1AU     LIG  307   5.356   9.520   5.218 -0.1722 -0.1968  0.1323
    1AU     LIG  308   5.213   9.953   5.091  0.1363 -0.0471  0.2620
    1AU     LIG  309   5.185  10.171   4.768  0.2287 -0.1834 -0.2300
    1AU     LIG  310   5.110  10.551   4.595 -0.1468  0.3401 -0.0247
    1AU    AUSL  311   5.447   8.542   6.124  0.0540  0.0177 -0.0285
    1AU    AUSL  312   5.531   8.129   6.017  0.0424  0.0309  0.0068
    1AU     AUL  313   5.528   8.358   5.820 -0.0001  0.0071  0.1370
    1AU       S  314   5.095   8.214   6.036 -0.1126 -0.0207 -0.4383
    1AU     LIG  315   4.766   8.478   5.910  0.1269 -0.1495  0.0920
    1AU     LIG  316   4.410   8.854   5.954  0.2801  0.0995  0.0806
    1AU     LIG  317   4.078   8.901   6.063 -0.1592 -0.1345 -0.0568
    1AU     LIG  318   3.615   8.888   6.170 -0.0428 -0.1635 -0.3123
    1AU     LIG  319   3.291   8.637   6.253 -0.0615 -0.0358  0.0704
    1AU     LIG  320   2.859   8.463   6.415  0.4937  0.2011  0.1180
    1AU       S  321   5.276   8.780   5.956  0.1066  0.0679  0.0036
    1AU     LIG  322   4.870   8.964   5.978 -0.1809 -0.0798  0.2526
    1AU     LIG  323   4.570   9.085   6.365  0.1520  0.0441 -0.1058
    1AU     LIG  324   4.356   8.762   6.465 -0.0990  0.0702 -0.1213
    1AU     LIG  325   4.314   8.445   6.180 -0.1902 -0.1903  0.1151
    1AU     LIG  326   4.039   8.096   6.304 -0.0602  0.0759  0.2112
    1AU     LIG  327   3.718   7.846   6.498  0.2090 -0.1446  0.0622
    1AU    AUSL  328   6.456   7.812   7.286  0.0068 -0.0434 -0.0572
    1AU    AUSL  329   6.304   8.227   7.407 -0.0931 -0.0273  0.0490
    1AU     AUL  330   6.596   8.199   7.557 -0.0091  0.0764  0.0434
    1AU       S  331   6.572   7.695   7.489 -0.1979  0.2987 -0.2221
    1AU     LIG  332   6.359   7.264   7.408 -0.1542  0.2670  0.1462
    1AU     LIG  333   6.097   6.947   7.194 -0.1290 -0.1858 -0.2519
    1AU     LIG  334   6.107   6.511   7.066  0.2522 -0.1103 -0.1617
    1AU     LIG  335   6.165   6.138   7.051  0.3219  0.0488  0.4521
    1AU     LIG  336   6.458   5.832   6.920  0.1559  0.1597  0.2589
    1AU     LIG  337   6.674   5.564   6.653 -0.3986  0.1782 -0.0349
    1AU       S  338   6.147   7.998   7.600  0.2021  0.2165 -0.1340
    1AU     LIG  339   6.438   7.945   7.973 -0.0133 -0.0117  0.1588
    1AU     LIG  340   6.718   8.232   8.122  0.0688 -0.2025  0.3696
    1AU     LIG  341   7.130   8.313   8.250 -0.3425 -0.0097  0.0701
    1AU     LIG  342   7.449   8.496   7.943  0.2096 -0.0294  0.0928
    1AU     LIG  343   7.759   8.585   7.652  0.0868 -0.0011  0.4127
    1AU     LIG  344   8.139   8.707   7.592 -0.0951  0.0131  0.3067
    1AU    AUSL  345   6.560   8.000   6.931  0.0158 -0.0859 -0.0135
    1AU    AUSL  346   6.383   7.556   6.971 -0.0829 -0.0255  0.0163
    1AU     AUL  347   6.760   7.655   7.049 -0.0286 -0.0077 -0.0100
    1AU       S  348   6.537   7.749   7.408  0.1345  0.2452  0.0384
    1AU     LIG  349   6.904   7.337   7.428  0.1327  0.0127  0.3619
    1AU     LIG  350   7.129   7.108   7.231  0.4113 -0.1313 -0.1412
    1AU     LIG  351   7.539   7.031   7.037  0.0001 -0.1366 -0.4061
    1AU     LIG  352   7.967   6.916   7.057  0.0028 -0.1317 -0.1057
    1AU     LIG  353   8.034   6.531   7.255  0.1316 -0.1065 -0.2123
    1AU     LIG  354   8.222   6.097   7.242  0.1221  0.2308  0.0297
    1AU       S  355   6.640   7.191   6.996  0.3452 -0.2915 -0.0813
    1AU     LIG  356   6.589   6.852   7.287  0.4223  0.1914 -0.1002
    1AU     LIG  357   6.621   6.385   7.221 -0.0994 -0.1367  0.0925
    1AU     LIG  358   6.511   6.293   6.691 -0.0485 -0.3206  0.0210
    1AU     LIG  359   6.550   5.981   6.413  0.2159  0.3822 -0.1469
    1AU     LIG  360   6.801   5.894   6.024  0.3678 -0.0730  0.0670
    1AU     LIG  361   6.855   6.139   5.706  0.2742  0.0876 -0.2715
    1AU    AUSL  362   5.426   7.876   6.338  0.0090 -0.0785  0.1027
    1AU    AUSL  363   5.739   7.784   6.001 -0.1288 -0.0486  0.0639
    1AU     AUL  364   5.420   7.856   5.920  0.0559  0.0338  0.0872
    1AU       S  365   5.614   7.426   6.029  0.4901  0.1355  0.0761
    1AU     LIG  366   5.713   7.529   5.555  0.0224  0.0140 -0.1742
    1AU     LIG  367   5.752   7.952   5.376 -0.1222  0.0900  0.0750
    1AU     LIG  368   6.147   7.988   5.154 -0.0271  0.0824 -0.2451
    1AU     LIG  369   6.478   8.126   5.177  0.1014  0.4179  0.2461
    1AU     LIG  370   6.938   8.064   5.231 -0.1535  0.1217 -0.1217
    1AU     LIG  371   7.309   8.206   5.266  0.1931  0.4060  0.1387
    1AU       S  372   5.068   8.107   6.111 -0.2147  0.3006 -0.2348
    1AU     LIG  373   4.992   7.645   6.217 -0.0964  0.0920  0.0455
    1AU     LIG  374   4.668   7.299   6.371  0.0530 -0.2959 -0.0158
    1AU     LIG  375   4.507   7.207   6.625  0.2195  0.0903  0.0264
    1AU     LIG  376   4.361   7.295   7.032 -0.0358 -0.2369 -0.1124
    1AU     LIG  377   4.091   7.525   7.236  0.2273  0.0736  0.0233
    1AU     LIG  378   3.695   7.546   7.356 -0.0210  0.2647 -0.1869
    1AU    AUSL  379   5.593   8.277   6.404  0.0578  0.0600 -0.0088
    1AU    AUSL  380   5.482   7.995   6.740 -0.0431  0.1062  0.0175
    1AU     AUL  381   5.200   7.996   6.540 -0.1512  0.0520 -0.0523
    1AU       S  382   4.932   8.034   6.928  0.0728  0.2059 -0.1153
    1AU     LIG  383   4.809   7.622   7.226 -0.3015 -0.1285  0.0968
    1AU     LIG  384   4.841   7.245   7.054  0.3990  0.1102  0.0118
    1AU     LIG  385   4.634   6.852   6.960 -0.1241  0.4651 -0.2986
    1AU     LIG  386   4.528   6.513   6.874 -0.1376  0.4807  0.0566
    1AU     LIG  387   4.311   6.256   7.070 -0.5517 -0.0643  0.2953
    1AU     LIG  388   3.959   5.922   7.026  0.2306 -0.0413  0.0082
    1AU       S  389   5.126   8.240   6.168 -0.0973 -0.0256  0.0805
    1AU     LIG  390   4.939   8.606   6.319  0.2143 -0.1680 -0.0250
    1AU     LIG  391   4.744   8.733   6.697 -0.2718  0.1909  0.3105
    1AU     LIG  392   4.347   8.928   6.927 -0.2000 -0.1169 -0.1340
    1AU     LIG  393   3.956   8.804   6.824 -0.3022 -0.1996 -0.1458
    1AU     LIG  394   3.608   8.758   6.679 -0.1446 -0.3513  0.0089
    1AU     LIG  395   3.125   8.828   6.705 -0.1617 -0.0496  0.0084
    1AU    AUSL  396   6.125   9.107   6.741  0.0495  0.0674 -0.0972
    1AU    AUSL  397   5.953   8.794   6.443  0.0338 -0.0929 -0.0073
    1AU     AUL  398   5.903   9.209   6.602 -0.0673  0.0543  0.0321
    1AU       S  399   5.436   9.198   6.589 -0.1591  0.0653 -0.0277
    1AU     LIG  400   5.614   9.642   6.748 -0.2175 -0.1978 -0.2863
    1AU     LIG  401   5.598  10.057   6.798  0.2431  0.1035 -0.3291
    1AU     LIG  402   5.444  10.349   6.988 -0.2021 -0.0994  0.0568
    1AU     LIG  403   5.332  10.771   6.956  0.0116 -0.1113 -0.2839
    1AU     LIG  404   5.259  11.227   6.908 -0.0820 -0.0348 -0.0513
    1AU     LIG  405   5.285  11.510   7.141 -0.2393  0.1880  0.4094
    1AU       S  406   6.307   9.447   6.654  0.3348 -0.3272 -0.0883
    1AU     LIG  407   6.562   9.809   6.575 -0.1740 -0.5541  0.2743
    1AU     LIG  408   6.542  10.132   6.814  0.1492  0.2287 -0.1707
    1AU     LIG  409   6.876  10.270   7.134  0.1530 -0.1164 -0.4982
    1AU     LIG  410   7.052  10.540   7.192  0.1540 -0.1244 -0.5454
    1AU     LIG  411   6.997  10.958   7.187 -0.0023 -0.0216 -0.2879
    1AU     LIG  412   6.790  11.267   6.958  0.3371 -0.1266  0.0974
    1AU    AUSL  413   6.189   9.088   6.274  0.0170  0.0118  0.0107
    1AU    AUSL  414   6.749   8.839   6.298 -0.0456 -0.0145  0.0237
    1AU     AUL  415   6.466   9.185   6.081  0.1072  0.0023  0.0911
    1AU       S  416   6.332   9.389   6.444 -0.2414 -0.1212 -0.1599
    1AU     LIG  417   6.360   9.665   6.133 -0.2305 -0.1377  0.1546
    1AU     LIG  418   6.366  10.049   6.125  0.0694 -0.1755  0.0465
    1AU     LIG  419   6.164  10.408   5.877 -0.1115  0.0333 -0.1910
    1AU     LIG  420   6.105  10.659   5.555 -0.2149 -0.0173  0.0158
    1AU     LIG  421   6.111  10.988   5.451 -0.4084 -0.2519  0.1342
    1AU     LIG  422   6.135  11.334   5.344 -0.1405  0.2803 -0.1259
    1AU       S  423   6.884   8.993   6.228  0.1511  0.1597  0.0538
    1AU     LIG  424   7.004   9.427   6.203  0.0291  0.2971  0.2832
    1AU     LIG  425   6.881   9.769   6.123 -0.0299  0.1273 -0.1732
    1AU     LIG  426   6.863  10.176   6.391  0.0235  0.2660  0.0137
    1AU     LIG  427   6.776  10.604   6.575  0.0138  0.0328 -0.4217
    1AU     LIG  428   6.613  10.714   7.006  0.1105  0.4107 -0.0456
    1AU     LIG  429   6.635  10.716   7.426 -0.0041 -0.2254 -0.1452
    1AU    AUSL  430   6.465   8.946   6.580 -0.0504 -0.0681  0.0399
    1AU    AUSL  431   6.183   8.724   6.884  0.1065 -0.0192  0.0433
    1AU     AUL  432   6.379   9.119   6.966 -0.0164  0.0495  0.0265
    1AU       S  433   6.465   8.994   7.427  0.2062 -0.0179  0.0468
    1AU     LIG  434   6.273   9.410   7.522 -0.4279  0.0520  0.0987
    1AU     LIG  435   6.478   9.719   7.363  0.3412  0.3273  0.5456
    1AU     LIG  436   6.728   9.770   7.055  0.1032  0.0318  0.2453
    1AU     LIG  437   7.013   9.755   6.778  0.0783  0.0222  0.0383
    1AU     LIG  438   7.230  10.072   6.680 -0.1750  0.1493  0.0772
    1AU     LIG  439   7.656  10.249   6.540  0.1295  0.0595  0.1002
    1AU       S  440   6.600   9.214   6.552  0.2053  0.5208  0.0996
    1AU     LIG  441   6.951   9.248   6.690 -0.0657  0.1229 -0.2292
    1AU     LIG  442   7.171   9.373   6.960 -0.3653  0.2842 -0.4826
    1AU     LIG  443   7.175   9.748   7.262 -0.0170 -0.2213 -0.1974
    1AU     LIG  444   7.398  10.154   7.333 -0.0203  0.1496  0.1789
    1AU     LIG  445   7.535  10.346   7.012 -0.0276 -0.0885  0.2682
    1AU     LIG  446   7.455  10.802   6.985  0.4410  0.0072 -0.1673
    1AU    AUSL  447   5.675   7.953   7.128 -0.0116 -0.1349 -0.0042
    1AU    AUSL  448   6.121   7.974   7.120 -0.1140  0.0122 -0.0178
    1AU     AUL  449   5.683   7.945   7.444  0.0532  0.0480 -0.0264
    1AU       S  450   5.434   7.541   7.374  0.1348 -0.2036 -0.1028
    1AU     LIG  451   5.184   7.933   7.486 -0.1845 -0.1643  0.0524
    1AU     LIG  452   5.031   8.401   7.549  0.7068  0.0981 -0.0128
    1AU     LIG  453   5.013   8.909   7.619  0.1144 -0.0167  0.0106
    1AU     LIG  454   4.631   9.067   7.761  0.3085 -0.0897 -0.2760
    1AU     LIG  455   4.374   9.001   7.417  0.0416  0.0125  0.4913
    1AU     LIG  456   4.067   8.695   7.282 -0.2050  0.2692  0.1125
    1AU       S  457   6.108   7.694   7.594 -0.1507  0.0930 -0.2367
    1AU     LIG  458   5.978   7.341   7.684 -0.0584  0.3102  0.1054
    1AU     LIG  459   6.081   6.954   7.717  0.1654 -0.0481 -0.4158
    1AU     LIG  460   6.480   6.911   7.848  0.0181  0.1469  0.1162
    1AU     LIG  461   6.810   6.866   8.195  0.0295  0.1537  0.2107
    1AU     LIG  462   6.802   6.530   8.512 -0.0974 -0.2260  0.3062
    1AU     LIG  463   6.692   6.585   8.899 -0.0590 -0.3898 -0.0944
    1AU    AUSL  464   5.617   7.631   6.886  0.0058 -0.0667 -0.0024
    1AU    AUSL  465   5.344   8.224   7.059  0.0492  0.0236  0.0218
    1AU     AUL  466   5.323   7.811   6.992  0.0262  0.0021  0.0949
    1AU       S  467   5.398   7.431   7.206 -0.2294 -0.0569  0.2163
    1AU     LIG  468   5.342   7.150   7.014 -0.0062 -0.0711 -0.4326
    1AU     LIG  469   5.182   6.867   6.795  0.0097 -0.1484  0.5409
    1AU     LIG  470   5.121   6.463   6.679 -0.2193  0.1100  0.1371
    1AU     LIG  471   4.870   6.102   6.483 -0.1853 -0.3299 -0.1083
    1AU     LIG  472   4.931   5.666   6.516 -0.2516  0.0918 -0.3883
    1AU     LIG  473   4.624   5.370   6.565 -0.3197  0.0425 -0.3445
    1AU       S  474   5.106   8.208   7.044  0.0489  0.0839 -0.2301
    1AU     LIG  475   4.672   8.093   7.374  0.2210 -0.0571 -0.0863
    1AU     LIG  476   4.584   7.761   7.731  0.0073 -0.1490 -0.0705
    1AU     LIG  477   4.472   7.411   7.597  0.1039  0.0258  0.0918
    1AU     LIG  478   4.162   7.085   7.507  0.3122  0.1122 -0.0457
    1AU     LIG  479   4.185   6.757   7.215 -0.0431 -0.0757 -0.0389
    1AU     LIG  480   3.830   6.433   7.001  0.0641  0.3177  0.0117
    1AU    AUSL  481   5.936   7.619   7.185  0.0696  0.0127  0.0141
    1AU    AUSL  482   5.777   7.437   6.560  0.0139 -0.0295  0.0750
    1AU     AUL  483   5.791   7.295   7.012 -0.0510 -0.1080 -0.0293
    1AU       S  484   5.590   7.101   6.569  0.0539 -0.0341 -0.0958
    1AU     LIG  485   5.527   6.711   6.433 -0.1488  0.4605  0.0915
    1AU     LIG  486   5.484   6.384   6.294 -0.1227  0.2684  0.2899
    1AU     LIG  487   5.414   6.029   6.587  0.1937 -0.0424  0.2374
    1AU     LIG  488   5.229   5.866   6.894 -0.1042 -0.2508 -0.1358
    1AU     LIG  489   4.885   5.584   6.977  0.2604  0.0472 -0.3238
    1AU     LIG  490   4.611   5.404   7.184 -0.4512 -0.0755  0.2475
    1AU       S  491   5.664   7.508   7.395  0.1678  0.0603  0.2093
    1AU     LIG  492   5.631   7.046   7.424 -0.1300 -0.2189 -0.2813
    1AU     LIG  493   5.809   6.620   7.437 -0.0743 -0.1647 -0.0224
    1AU     LIG  494   5.828   6.093   7.412 -0.1000  0.0095  0.5431
    1AU     LIG  495   6.151   5.777   7.353  0.0336  0.1003 -0.3426
    1AU     LIG  496   6.420   5.451   7.286 -0.2538 -0.0368  0.2154
    1AU     LIG  497   6.884   5.303   7.021 -0.1231  0.1247 -0.2106
    1AU    AUSL  498   6.651   8.561   5.984  0.0316  0.0692 -0.0783
    1AU    AUSL  499   6.637   8.504   6.492  0.0426  0.0263 -0.0121
    1AU     AUL  500   6.957   8.525   6.177  0.0785  0.0862 -0.1108
    1AU       S  501   6.933   8.827   5.824 -0.2555  0.2021  0.1873
    1AU     LIG  502   6.777   9.028   5.474  0.0976  0.1442 -0.1822
    1AU     LIG  503   6.367   9.119   5.570  0.2586  0.1651 -0.2218
    1AU     LIG  504   6.079   9.292   5.786  0.1234  0.2621 -0.0964
    1AU     LIG  505   5.924   9.469   6.124 -0.1298 -0.3670 -0.1621
    1AU     LIG  506   5.942   9.778   6.438  0.1474 -0.1729 -0.2959
    1AU     LIG  507   5.904  10.240   6.437 -0.2040  0.3327 -0.0093
    1AU       S  508   7.151   8.319   6.558  0.0303 -0.1526  0.0136
    1AU     LIG  509   7.446   8.040   6.945  0.2044 -0.0718  0.3127
    1AU     LIG  510   7.762   7.725   6.953  0.1195 -0.2022 -0.5535
    1AU     LIG  511   7.820   7.370   6.828  0.0656  0.2510 -0.1123
    1AU     LIG  512   8.301   7.265   6.696 -0.3633 -0.0974 -0.4686
    1AU     LIG  513   8.796   7.224   6.987  0.3001 -0.1282  0.1641
    1AU     LIG  514   9.150   7.464   6.750 -0.0512  0.0612  0.1385
    1AU    AUSL  515   6.351   8.710   6.225  0.0515 -0.0696 -0.0240
    1AU    AUSL  516   6.313   8.343   6.030  0.0714  0.0045  0.0422
    1AU     AUL  517   6.443   8.762   5.861  0.0034  0.0202 -0.0196
    1AU       S  518   6.875   8.978   5.991 -0.0854 -0.0085  0.4913
    1AU     LIG  519   7.319   9.085   5.983  0.0348  0.1720  0.1730
    1AU     LIG  520   7.569   8.939   6.250 -0.2303 -0.0170 -0.1503
    1AU     LIG  521   8.055   8.806   6.261  0.1129 -0.2852 -0.1071
    1AU     LIG  522   8.460   8.826   6.426 -0.0256  0.0695 -0.2750
    1AU     LIG  523   8.369   8.569   6.836  0.1160 -0.0785  0.0429
    1AU     LIG  524   8.439   8.474   7.227 -0.0375 -0.0089  0.1114
    1AU       S  525   6.398   8.437   5.549  0.1121 -0.2414 -0.1314
    1AU     LIG  526   6.858   8.306   5.668 -0.2224 -0.2470 -0.0339
    1AU     LIG  527   7.212   8.110   5.726 -0.2750  0.0991 -0.3471
    1AU     LIG  528   7.521   7.908   5.807  0.2662  0.0951  0.0111
    1AU     LIG  529   7.959   7.796   5.752 -0.1408 -0.4844 -0.2262
    1AU     LIG  530   8.172   7.964   6.120  0.1193 -0.0767 -0.2989
    1AU     LIG  531   8.111   8.273   6.463  0.0602  0.1134  0.3856
    1AU    AUSL  532   6.215   7.375   6.527  0.0635  0.0293  0.0657
    1AU    AUSL  533   5.819   7.815   6.427  0.0357 -0.0859  0.0814
    1AU     AUL  534   6.037   7.332   6.285  0.0003  0.0769 -0.0310
    1AU       S  535   5.498   7.432   6.179  0.0295  0.1279 -0.1445
    1AU     LIG  536   5.181   7.113   6.289 -0.0182 -0.4598 -0.1564
    1AU     LIG  537   4.882   6.845   6.367  0.2365 -0.2271 -0.0717
    1AU     LIG  538   4.425   6.749   6.421  0.0221 -0.2034 -0.2236
    1AU     LIG  539   4.102   6.898   6.613  0.1612  0.1313 -0.0167
    1AU     LIG  540   3.881   7.089   6.989 -0.0884 -0.0252  0.3701
    1AU     LIG  541   3.471   6.801   7.043 -0.3765 -0.2095  0.0837
    1AU       S  542   5.840   7.082   6.614 -0.7318  0.2179 -0.0117
    1AU     LIG  543   5.696   6.774   6.954 -0.0657  0.2072 -0.0702
    1AU     LIG  544   5.378   6.695   7.188 -0.0933 -0.2627  0.0106
    1AU     LIG  545   5.006   6.567   7.210 -0.3318 -0.2091  0.0684
    1AU     LIG  546   4.838   6.122   7.069  0.0328  0.0101  0.1069
    1AU     LIG  547   4.458   5.876   6.771  0.1565  0.2018 -0.1534
    1AU     LIG  548   4.179   5.544   6.834 -0.0182 -0.3962  0.2526
    1AU    AUSL  549   6.033   7.656   6.791  0.0562 -0.0454 -0.0418
    1AU    AUSL  550   6.391   7.732   6.585 -0.0141 -0.0417  0.1171
    1AU     AUL  551   6.197   7.326   6.827 -0.0646  0.0140  0.0403
    1AU       S  552   5.668   7.289   6.582 -0.0019 -0.1823  0.2085
    1AU     LIG  553   5.229   7.489   6.632 -0.0883 -0.2183 -0.3034
    1AU     LIG  554   4.884   7.573   6.699 -0.1009  0.0866  0.1509
    1AU     LIG  555   4.509   7.783   6.736 -0.0795 -0.0075 -0.0660
    1AU     LIG  556   4.265   7.986   7.036 -0.2241 -0.2074 -0.0137
    1AU     LIG  557   3.882   8.006   7.150  0.1470  0.1679  0.1534
    1AU     LIG  558   3.605   8.000   7.491  0.4535 -0.1724 -0.2703
    1AU       S  559   6.633   7.211   6.694  0.1415  0.1373  0.1262
    1AU     LIG  560   6.398   6.795   6.643  0.0735 -0.4040 -0.1581
    1AU     LIG  561   5.990   6.536   6.529 -0.0930  0.3701 -0.0396
    1AU     LIG  562   5.723   6.303   6.764 -0.1772 -0.2237  0.2424
    1AU     LIG  563   5.499   6.262   7.032 -0.3640  0.1825 -0.0363
    1AU     LIG  564   5.195   6.109   7.417  0.2336  0.0545  0.2382
    1AU     LIG  565   4.970   5.743   7.448  0.0223  0.0373 -0.3242
    2POPC   NC3  566   4.033   3.084   9.174  0.0229 -0.2300  0.2060
    2POPC   PO4  567   4.441   2.908   8.948  0.1092  0.2003  0.0901
    2POPC   GL1  568   4.380   2.970   8.588  0.0968  0.1114  0.0045
    2POPC   GL2  569   4.321   3.280   8.472 -0.0762  0.1867 -0.5247
    2POPC   C1A  570   4.541   2.944   8.154  0.4035  0.4161 -0.0745
    2POPC   D2A  571   4.725   2.973   7.706 -0.1394 -0.1212 -0.3640
    2POPC   C3A  572   4.646   2.809   7.269 -0.1826 -0.0545  0.2232
    2POPC   C4A  573   4.597   2.583   6.990  0.1302 -0.2070  0.1951
    2POPC   C1B  574   4.777   3.455   8.215  0.3936 -0.0920  0.0729
    2POPC   C2B  575   5.034   3.414   7.804 -0.1062 -0.1704 -0.0108
    2POPC   C3B  576   5.131   3.367   7.458  0.2728 -0.0514  0.0042
    2POPC   C4B  577   5.168   3.586   7.119 -0.2057 -0.0595  0.2198
    3POPC   NC3  578   4.591   5.856   9.540 -0.2374  0.0345  0.1351
    3POPC   PO4  579   4.257   6.190   9.435 -0.0549 -0.1523  0.2034
    3POPC   GL1  580   4.538   6.199   9.135  0.1338 -0.2006 -0.1909
    3POPC   GL2  581   4.388   6.327   8.908  0.0932  0.2468  0.0918
    3POPC   C1A  582   4.821   6.509   8.841  0.0294  0.0074  0.3964
    3POPC   D2A  583   5.100   6.529   8.390  0.3433 -0.1072  0.2831
    3POPC   C3A  584   4.973   6.696   8.038 -0.0383  0.0185  0.1294
    3POPC   C4A  585   5.098   6.625   7.693 -0.0409  0.1940  0.2232
    3POPC   C1B  586   4.254   6.472   8.479 -0.1714  0.1078  0.1445
    3POPC   C2B  587   4.395   6.481   8.058 -0.0714 -0.0211 -0.0547
    3POPC   C3B  588   4.673   6.239   7.710  0.2430  0.1008 -0.1016
    3POPC   C4B  589   4.520   5.920   7.416 -0.0036  0.0890  0.0561
    4POPC   NC3  590   0.655   9.120   9.387 -0.5444  0.0046  0.0523
    4POPC   PO4  591   0.680   9.299   9.024  0.1090 -0.0513 -0.1224
    4POPC   GL1  592   0.572   9.541   8.688  0.3457 -0.1908  0.0496
    4POPC   GL2  593   0.529   9.857   8.669 -0.2973 -0.0072  0.1008
    4POPC   C1A  594   0.606   9.519   8.207 -0.0895  0.2941 -0.4939
    4POPC   D2A  595   0.594   9.491   7.679 -0.1623  0.1772 -0.0229
    4POPC   C3A  596   0.582   9.102   7.430  0.0819  0.0422  0.0383
    4POPC   C4A  597   0.493   8.695   7.215  0.4232 -0.0491 -0.2190
    4POPC   C1B  598   0.503  10.046   8.210  0.0149 -0.1998  0.1021
    4POPC   C2B  599   0.671   9.942   7.928  0.0077 -0.3358 -0.2339
    4POPC   C3B  600   0.597   9.919   7.460 -0.1901 -0.1087  0.0913
    4POPC   C4B  601   0.672  10.006   7.025 -0.1368 -0.1945  0.1488
    5POPC   NC3  602   4.933   0.770   8.500 -0.0615  0.2306 -0.0452
    5POPC   PO4  603   5.305   1.009   8.645  0.2859 -0.0157  0.1009
    5POPC   GL1  604   5.271   0.940   8.179  0.1969 -0.0414  0.1499
    5POPC   GL2  605   4.936   1.017   8.038 -0.2540 -0.1101  0.0474
    5POPC   C1A  606   5.612   0.754   7.979  0.0377 -0.1895  0.3187
    5POPC   D2A  607   5.974   0.547   8.056 -0.0378 -0.1137  0.2940
    5POPC   C3A  608   6.166   0.224   7.688  0.2059 -0.0963  0.2902
    5POPC   C4A  609   6.150  -0.191   7.572  0.2607 -0.0662  0.1234
    5POPC   C1B  610   4.583   0.880   7.752  0.0822 -0.2618  0.0216
    5POPC   C2B  611   4.365   1.013   7.347  0.0953  0.3147  0.0701
    5POPC   C3B  612   4.094   1.324   7.216  0.1159 -0.0740 -0.0156
    5POPC   C4B  613   3.975   1.662   6.994 -0.4444 -0.1585 -0.1589
    6POPC   NC3  614   6.784   5.820   9.560  0.0918 -0.0614  0.0762
    6POPC   PO4  615   7.020   6.183   9.480 -0.3092 -0.0148 -0.0868
    6POPC   GL1  616   7.015   6.060   9.082  0.1536 -0.1824  0.1641
    6POPC   GL2  617   6.688   5.954   9.065 -0.2497 -0.0526 -0.2868
    6POPC   C1A  618   6.912   6.055   8.644  0.1414 -0.1155  0.1110
    6POPC   D2A  619   6.781   5.944   8.255  0.1207 -0.0265 -0.1044
    6POPC   C3A  620   6.434   6.082   7.979 -0.3949  0.0848  0.1982
    6POPC   C4A  621   6.077   5.949   7.824  0.1769 -0.1578 -0.0141
    6POPC   C1B  622   6.773   5.614   8.918  0.0915 -0.3153 -0.0533
    6POPC   C2B  623   6.868   5.517   8.538 -0.1304  0.2659  0.0454
    6POPC   C3B  624   6.749   5.441   8.080  0.0602 -0.2969 -0.0309
    6POPC   C4B  625   6.407   5.488   7.815 -0.0223 -0.0449 -0.1004
    7POPC   NC3  626   6.420   2.636   8.983  0.3971  0.0395 -0.0383
    7POPC   PO4  627   6.653   2.267   9.067  0.5076 -0.0545 -0.2417
    7POPC   GL1  628   6.840   2.459   8.701  0.0467 -0.0216  0.2009
    7POPC   GL2  629   6.528   2.516   8.547 -0.0886 -0.2810 -0.2342
    7POPC   C1A  630   7.110   2.346   8.320 -0.2295 -0.0075 -0.3466
    7POPC   D2A  631   7.306   2.387   8.041 -0.0651 -0.1862 -0.0685
    7POPC   C3A  632   7.125   2.304   7.565 -0.1150 -0.0696 -0.0821
    7POPC   C4A  633   7.296   2.003   7.316  0.0210  0.2308 -0.2519
    7POPC   C1B  634   6.332   2.624   8.175  0.1654  0.1251 -0.1515
    7POPC   C2B  635   6.122   2.652   7.843 -0.1710  0.0322  0.0941
    7POPC   C3B  636   5.759   2.627   7.653  0.0575 -0.1036 -0.3433
    7POPC   C4B  637   5.484   2.517   7.302 -0.1993  0.1608 -0.0292
    8POPC   NC3  638   6.618   4.353   9.303  0.0618 -0.0532  0.0103
    8POPC   PO4  639   6.848   3.971   9.144  0.2594  0.0198 -0.0543
    8POPC   GL1  640   6.849   3.877   8.727 -0.1074 -0.0183 -0.1244
    8POPC   GL2  641   7.008   3.686   8.649 -0.1301  0.3360  0.2083
    8POPC   C1A  642   6.633   4.015   8.246 -0.1167  0.2158 -0.2875
    8POPC   D2A  643   6.497   4.341   8.002 -0.0832 -0.1135 -0.2134
    8POPC   C3A  644   6.175   4.354   7.736 -0.1386 -0.2170  0.3213
    8POPC   C4A  645   6.020   4.592   7.355  0.1083 -0.2065 -0.1544
    8POPC   C1B  646   7.147   4.073   8.353  0.2205  0.0150  0.0556
    8POPC   C2B  647   7.473   4.253   8.131  0.1077 -0.2400  0.1039
    8POPC   C3B  648   7.673   4.300   7.753 -0.0736 -0.0113 -0.2240
    8POPC   C4B  649   7.798   4.383   7.412 -0.1232 -0.0359  0.1766
    9POPC   NC3  650   1.997   7.978   9.163  0.2448  0.4047  0.2101
    9POPC   PO4  651   2.312   7.638   9.163 -0.4989  0.0017 -0.2087
    9POPC   GL1  652   2.438   7.849   8.791 -0.1318  0.0805 -0.1282
    9POPC   GL2  653   2.655   7.686   8.551  0.0702 -0.1536  0.0818
    9POPC   C1A  654   2.311   7.998   8.313  0.0130 -0.2173  0.2287
    9POPC   D2A  655   2.254   7.825   7.863  0.0849  0.2144 -0.0376
    9POPC   C3A  656   2.129   7.490   7.697  0.0087  0.0987  0.1420
    9POPC   C4A  657   2.254   7.094   7.657 -0.0976  0.2384 -0.0642
    9POPC   C1B  658   2.851   7.965   8.276 -0.1143 -0.1064 -0.0532
    9POPC   C2B  659   3.231   8.185   8.022 -0.1162 -0.0906 -0.0770
    9POPC   C3B  660   3.747   8.241   8.100  0.0737 -0.3146 -0.3004
    9POPC   C4B  661   3.946   8.403   7.793 -0.0583 -0.0564  0.2072
   10POPC   NC3  662   1.371   7.567   8.822  0.2759 -0.2088  0.1117
   10POPC   PO4  663   1.588   7.180   8.698 -0.0907 -0.1398 -0.3493
   10POPC   GL1  664   1.424   6.975   8.376  0.0422  0.2796  0.2617
   10POPC   GL2  665   1.188   7.225   8.365  0.0087 -0.0601  0.0300
   10POPC   C1A  666   1.512   6.718   8.027 -0.1245 -0.0432  0.2768
   10POPC   D2A  667   1.716   6.354   7.872  0.0773 -0.0005  0.1114
   10POPC   C3A  668   1.882   6.403   7.411  0.0920  0.0332 -0.2262
   10POPC   C4A  669   2.079   6.518   7.036  0.1318  0.1897 -0.2785
   10POPC   C1B  670   1.446   7.566   8.211  0.1109 -0.0332 -0.1691
   10POPC   C2B  671   1.731   7.711   7.792  0.0924  0.1152  0.0227
   10POPC   C3B  672   1.880   7.834   7.371  0.0868 -0.1096  0.2519
   10POPC   C4B  673   1.802   8.036   6.991  0.0173 -0.1727  0.2414
   11POPC   NC3  674   4.948   8.654   9.681  0.1698  0.0593  0.2105
   11POPC   PO4  675   4.714   8.986   9.481  0.0377  0.1662 -0.1566
   11POPC   GL1  676   4.966   9.218   9.153 -0.1342  0.1115 -0.0315
   11POPC   GL2  677   5.301   9.397   9.202  0.2959  0.0520 -0.2243
   11POPC   C1A  678   5.109   9.212   8.712 -0.2137  0.0038  0.0562
   11POPC   D2A  679   5.118   9.503   8.452 -0.0955 -0.0122 -0.3604
   11POPC   C3A  680   4.962   9.547   8.079 -0.0066 -0.3480  0.0226
   11POPC   C4A  681   5.188   9.724   7.666  0.0102  0.1512  0.1283
   11POPC   C1B  682   5.345   9.629   8.855 -0.1896  0.2238  0.1705
   11POPC   C2B  683   5.570   9.833   8.443  0.1357 -0.0461  0.0960
   11POPC   C3B  684   5.547   9.459   8.127  0.0895 -0.1777 -0.0486
   11POPC   C4B  685   5.306   9.214   7.851  0.0661  0.3113 -0.1200
   12POPC   NC3  686   0.486   4.979   9.440 -0.2019  0.1678  0.1685
   12POPC   PO4  687   0.340   5.242   8.995  0.2392  0.1763 -0.3457
   12POPC   GL1  688   0.065   5.477   8.737  0.3494 -0.0562  0.0583
   12POPC   GL2  689   0.069   5.766   8.523 -0.0015 -0.0629 -0.0105
   12POPC   C1A  690  -0.122   5.234   8.398 -0.2113  0.0612  0.1102
   12POPC   D2A  691  -0.299   5.314   8.007  0.1841 -0.1504  0.2353
   12POPC   C3A  692  -0.259   4.961   7.745 -0.1491 -0.2553  0.1496
   12POPC   C4A  693  -0.130   4.547   7.794 -0.3393 -0.1387 -0.1740
   12POPC   C1B  694   0.172   5.576   8.074 -0.0594  0.2937  0.3029
   12POPC   C2B  695   0.091   5.561   7.677  0.1551 -0.3273 -0.2893
   12POPC   C3B  696   0.230   5.775   7.285 -0.1041 -0.4679  0.3904
   12POPC   C4B  697   0.538   5.782   6.978 -0.0756 -0.0457 -0.2880
   13POPC   NC3  698   5.119   8.471  10.117  0.0189  0.2855 -0.0105
   13POPC   PO4  699   4.815   8.197   9.860 -0.0247  0.1424  0.0614
   13POPC   GL1  700   4.735   8.144   9.416 -0.3741  0.0051 -0.0844
   13POPC   GL2  701   4.520   7.802   9.407 -0.0774  0.0491 -0.2205
   13POPC   C1A  702   4.791   8.244   8.850  0.1836  0.1620 -0.0070
   13POPC   D2A  703   4.590   8.386   8.447 -0.1168 -0.0074 -0.0257
   13POPC   C3A  704   4.426   8.174   7.993  0.0365  0.0679 -0.0481
   13POPC   C4A  705   4.478   8.535   7.618  0.0931  0.4079  0.0527
   13POPC   C1B  706   4.754   7.718   9.073 -0.1156  0.1886 -0.1177
   13POPC   C2B  707   5.103   7.445   8.850 -0.5174 -0.0464 -0.0279
   13POPC   C3B  708   5.380   7.349   8.588  0.0502  0.0456  0.1127
   13POPC   C4B  709   5.664   7.508   8.355 -0.0546  0.2604  0.1107
   14POPC   NC3  710   3.591   0.093   9.248 -0.1890  0.3900  0.3264
   14POPC   PO4  711   3.779   0.271   8.937 -0.3017  0.0321 -0.0759
   14POPC   GL1  712   3.923   0.100   8.538 -0.0097 -0.0908  0.2158
   14POPC   GL2  713   3.887   0.447   8.266 -0.0129  0.1121  0.3257
   14POPC   C1A  714   4.214  -0.133   8.222  0.2643 -0.1767 -0.2137
   14POPC   D2A  715   4.601  -0.217   7.920  0.2234 -0.1355  0.0610
   14POPC   C3A  716   4.681  -0.150   7.469  0.0137  0.0257  0.2392
   14POPC   C4A  717   5.074  -0.191   7.230 -0.2636  0.1961 -0.2507
   14POPC   C1B  718   4.077   0.679   7.946  0.1134  0.0050 -0.1003
   14POPC   C2B  719   4.233   0.586   7.549  0.4236 -0.0396  0.1386
   14POPC   C3B  720   4.287   0.607   7.165 -0.1574  0.1119 -0.5117
   14POPC   C4B  721   4.330   0.737   6.775 -0.0539 -0.1637  0.0426
   15POPC   NC3  722   8.787   9.465   9.132  0.3346  0.2491  0.2181
   15POPC   PO4  723   9.041   9.112   9.273 -0.1857  0.2020  0.0049
   15POPC   GL1  724   9.094   9.172   8.862  0.0556  0.2166 -0.3026
   15POPC   GL2  725   9.101   9.458   8.755 -0.1432 -0.1904  0.0458
   15POPC   C1A  726   9.184   8.999   8.489  0.3066 -0.2805  0.0128
   15POPC   D2A  727   9.020   8.995   8.071 -0.1134  0.2273  0.2521
   15POPC   C3A  728   8.772   9.329   7.906 -0.1459 -0.1465 -0.0202
   15POPC   C4A  729   8.667   9.619   7.660 -0.2652  0.0151  0.2021
   15POPC   C1B  730   9.254   9.438   8.236 -0.2285 -0.2057  0.1919
   15POPC   C2B  731   9.205   9.515   7.871  0.2242 -0.1838  0.0096
   15POPC   C3B  732   9.272   9.502   7.432 -0.2744  0.1465 -0.2229
   15POPC   C4B  733   9.050   9.669   7.085 -0.1413  0.1780 -0.0710
   16POPC   NC3  734   9.234   7.372   9.584  0.0441  0.0406 -0.0176
   16POPC   PO4  735   9.527   7.182   9.218  0.0466  0.2200  0.0902
   16POPC   GL1  736   9.381   7.304   8.712 -0.0355  0.2153  0.0796
   16POPC   GL2  737   9.266   6.957   8.554 -0.0288 -0.0597  0.1779
   16POPC   C1A  738   9.264   7.431   8.287 -0.0927  0.1443 -0.1194
   16POPC   D2A  739   9.409   7.682   7.903 -0.0994 -0.1777  0.3295
   16POPC   C3A  740   9.057   7.464   7.574 -0.1193 -0.3155 -0.0083
   16POPC   C4A  741   9.228   7.330   7.185  0.4162  0.3225  0.0260
   16POPC   C1B  742   9.472   7.028   8.131 -0.1615  0.1439 -0.0366
   16POPC   C2B  743   9.946   6.973   8.089  0.3616  0.2083  0.0494
   16POPC   C3B  744  10.283   7.325   8.092 -0.2352  0.1214  0.1946
   16POPC   C4B  745  10.608   7.676   7.964 -0.1190  0.2711 -0.1859
   17POPC   NC3  746   2.453  10.177   9.055 -0.2215  0.1945  0.0940
   17POPC   PO4  747   2.888  10.242   8.938  0.5884  0.1091 -0.0241
   17POPC   GL1  748   2.754  10.123   8.504 -0.0839  0.0841 -0.0599
   17POPC   GL2  749   2.909  10.275   8.241  0.2563 -0.0989  0.0320
   17POPC   C1A  750   2.493  10.016   8.171  0.1781  0.0110 -0.0024
   17POPC   D2A  751   2.682   9.906   7.813  0.1937  0.0027 -0.0605
   17POPC   C3A  752   2.566   9.997   7.413  0.1943  0.1921 -0.1611
   17POPC   C4A  753   2.538   9.949   7.067 -0.2285 -0.0750  0.2140
   17POPC   C1B  754   3.183  10.353   7.902  0.0726  0.0065 -0.1001
   17POPC   C2B  755   3.255  10.499   7.579  0.0490 -0.1774 -0.2271
   17POPC   C3B  756   3.447  10.405   7.232  0.0046  0.0051  0.0139
   17POPC   C4B  757   3.447  10.548   6.814  0.0814 -0.0729  0.0907
   18POPC   NC3  758   0.113   3.449   8.943 -0.1283 -0.1202  0.3991
   18POPC   PO4  759  -0.302   3.314   8.929 -0.2035  0.2068 -0.1171
   18POPC   GL1  760  -0.161   3.305   8.531 -0.0553  0.1333  0.2017
   18POPC   GL2  761  -0.059   3.529   8.337  0.0070  0.1465 -0.0401
   18POPC   C1A  762  -0.446   3.187   8.147  0.0639 -0.0846 -0.2140
   18POPC   D2A  763  -0.807   3.181   7.837 -0.1604 -0.0478  0.1292
   18POPC   C3A  764  -0.785   3.606   7.745 -0.0625  0.2648  0.1994
   18POPC   C4A  765  -1.088   3.871   7.966  0.1177  0.0369  0.4095
   18POPC   C1B  766  -0.132   3.566   7.902  0.0938 -0.0895 -0.2312
   18POPC   C2B  767  -0.393   3.385   7.547 -0.0370 -0.1561  0.2657
   18POPC   C3B  768  -0.711   3.339   7.330 -0.1064 -0.2417 -0.0064
   18POPC   C4B  769  -0.801   3.486   6.932 -0.1647 -0.0193 -0.1661
   19POPC   NC3  770   1.140   5.160   8.534  0.1226  0.0763  0.0464
   19POPC   PO4  771   1.210   5.616   8.603 -0.3018 -0.1423 -0.0883
   19POPC   GL1  772   1.318   5.549   8.178 -0.1929 -0.1192  0.0911
   19POPC   GL2  773   1.390   5.147   8.134 -0.1004 -0.2892  0.1561
   19POPC   C1A  774   1.532   5.333   7.735 -0.3285  0.2062  0.4026
   19POPC   D2A  775   1.485   5.559   7.394 -0.1783  0.1133  0.0222
   19POPC   C3A  776   1.983   5.574   7.215  0.0961 -0.3169 -0.0785
   19POPC   C4A  777   2.347   5.638   7.150  0.2280 -0.2518 -0.4382
   19POPC   C1B  778   1.018   5.272   7.888 -0.1922  0.0694  0.0947
   19POPC   C2B  779   1.015   5.368   7.522  0.4608 -0.0401 -0.2093
   19POPC   C3B  780   0.745   5.217   7.072 -0.1023 -0.0404 -0.1390
   19POPC   C4B  781   0.343   5.345   6.889 -0.1684  0.0744  0.0217
   20POPC   NC3  782   0.478   0.761   9.644 -0.0077  0.2561  0.3889
   20POPC   PO4  783   0.511   0.901   9.260 -0.1663  0.1182  0.0838
   20POPC   GL1  784   0.604   0.993   8.807  0.1057  0.0975 -0.1126
   20POPC   GL2  785   0.416   0.850   8.705 -0.0770  0.0266  0.1031
   20POPC   C1A  786   0.717   1.083   8.347  0.0696 -0.2399  0.1568
   20POPC   D2A  787   0.536   1.183   7.983  0.3280  0.0689  0.1618
   20POPC   C3A  788   0.482   0.917   7.667 -0.0968  0.1478  0.1072
   20POPC   C4A  789   0.241   0.578   7.588  0.4081  0.0478  0.1583
   20POPC   C1B  790   0.430   0.505   8.395  0.0442  0.1406  0.2130
   20POPC   C2B  791   0.223   0.304   8.034 -0.2200  0.2930 -0.1433
   20POPC   C3B  792  -0.169   0.274   7.755  0.0261 -0.0148  0.1711
   20POPC   C4B  793  -0.333  -0.055   7.411 -0.2881  0.0594  0.1910
   21POPC   NC3  794   5.388   7.313  10.297  0.2922 -0.3936 -0.1251
   21POPC   PO4  795   5.298   7.391   9.865  0.1227 -0.1112 -0.1060
   21POPC   GL1  796   5.265   7.326   9.480  0.4445 -0.1596 -0.0350
   21POPC   GL2  797   5.316   7.662   9.393 -0.2695  0.1070  0.3051
   21POPC   C1A  798   5.453   7.189   9.074 -0.0713  0.0012 -0.2492
   21POPC   D2A  799   5.392   6.778   8.867 -0.2629  0.1720 -0.0991
   21POPC   C3A  800   5.258   6.409   8.983  0.0730 -0.2104  0.1962
   21POPC   C4A  801   5.033   6.073   8.978  0.0739  0.0838  0.3037
   21POPC   C1B  802   5.195   7.965   9.026 -0.0936 -0.1291 -0.0631
   21POPC   C2B  803   5.044   7.898   8.556  0.0082 -0.4211  0.0184
   21POPC   C3B  804   5.015   8.177   8.258 -0.3464  0.1155 -0.1866
   21POPC   C4B  805   4.961   8.056   7.861  0.0933  0.1415  0.1514
   22POPC   NC3  806   0.072   3.994   9.000  0.1525 -0.0034 -0.2511
   22POPC   PO4  807   0.248   3.888   8.586 -0.1681  0.2203 -0.3235
   22POPC   GL1  808   0.199   3.899   8.154  0.0907  0.2359  0.2153
   22POPC   GL2  809   0.102   4.183   8.209  0.2165 -0.3397  0.3124
   22POPC   C1A  810   0.271   3.917   7.784 -0.1682  0.0375  0.0106
   22POPC   D2A  811   0.448   3.823   7.276 -0.3982  0.1965 -0.3028
   22POPC   C3A  812   0.898   3.974   7.158  0.1513  0.2342 -0.0872
   22POPC   C4A  813   1.230   4.293   7.082  0.1496 -0.0771 -0.0085
   22POPC   C1B  814  -0.223   4.056   7.850 -0.1849  0.0411 -0.2824
   22POPC   C2B  815  -0.267   4.238   7.435 -0.2957 -0.0764 -0.2141
   22POPC   C3B  816  -0.070   4.630   7.266  0.0189 -0.1990 -0.1925
   22POPC   C4B  817  -0.189   4.790   6.950  0.0855  0.0551  0.3317
   23POPC   NC3  818   5.558   2.487   8.799 -0.2170 -0.0994  0.1931
   23POPC   PO4  819   5.483   2.791   9.160 -0.0793  0.2024 -0.1559
   23POPC   GL1  820   5.565   3.019   8.828  0.0014  0.0262 -0.2891
   23POPC   GL2  821   5.359   2.926   8.635  0.1256  0.3347 -0.0877
   23POPC   C1A  822   5.830   3.059   8.463  0.1860  0.1957  0.1384
   23POPC   D2A  823   5.775   2.906   8.140 -0.1850  0.1589 -0.2186
   23POPC   C3A  824   5.948   3.119   7.816 -0.2316  0.1912 -0.0401
   23POPC   C4A  825   5.967   3.200   7.317  0.1849  0.0185  0.0222
   23POPC   C1B  826   5.171   3.103   8.219 -0.0047 -0.0875 -0.1414
   23POPC   C2B  827   5.262   2.961   7.753  0.0626  0.3375 -0.1981
   23POPC   C3B  828   5.524   3.010   7.352 -0.2556 -0.0742  0.0271
   23POPC   C4B  829   5.574   3.283   7.043  0.0733 -0.0534 -0.1997
   24POPC   NC3  830   7.919   1.198   9.406  0.0782 -0.0326  0.1555
   24POPC   PO4  831   8.054   1.469   9.054  0.2057 -0.1098  0.2600
   24POPC   GL1  832   7.937   1.578   8.669  0.2355  0.2961  0.2665
   24POPC   GL2  833   8.081   1.348   8.346  0.0229 -0.0604  0.0330
   24POPC   C1A  834   8.136   1.905   8.375  0.0665 -0.4841  0.0219
   24POPC   D2A  835   8.261   2.260   8.013  0.0481 -0.0655 -0.2033
   24POPC   C3A  836   8.544   2.089   7.665  0.1239  0.2131  0.0525
   24POPC   C4A  837   8.651   1.903   7.365  0.1275  0.0481  0.1790
   24POPC   C1B  838   8.254   1.189   7.901  0.0725 -0.0972  0.1240
   24POPC   C2B  839   8.127   0.840   7.540 -0.0051  0.1256  0.0989
   24POPC   C3B  840   7.936   0.543   7.191 -0.1820  0.3769 -0.0348
   24POPC   C4B  841   7.892   0.526   6.802  0.3632 -0.0141  0.1052
   25POPC   NC3  842   6.685   9.922  10.129  0.2079 -0.0181 -0.0271
   25POPC   PO4  843   6.292   9.743   9.984 -0.0014 -0.3298  0.0349
   25POPC   GL1  844   6.209   9.586   9.558 -0.0500 -0.1020 -0.1823
   25POPC   GL2  845   5.914   9.412   9.573  0.0318 -0.0479  0.0427
   25POPC   C1A  846   6.263   9.534   9.107 -0.2144 -0.0130 -0.0173
   25POPC   D2A  847   6.145   9.237   8.719  0.0274  0.1530  0.2811
   25POPC   C3A  848   6.431   9.278   8.381  0.1812  0.2931 -0.2311
   25POPC   C4A  849   6.441   9.163   7.967  0.1436  0.1728 -0.0905
   25POPC   C1B  850   5.724   9.294   9.066 -0.0218  0.1535  0.0656
   25POPC   C2B  851   5.666   9.266   8.653 -0.1985 -0.4164 -0.0625
   25POPC   C3B  852   5.776   9.014   8.311  0.0819 -0.1580  0.1020
   25POPC   C4B  853   6.037   8.881   8.025 -0.1163  0.0188 -0.0409
   26POPC   NC3  854   5.261   1.511   8.919 -0.1716  0.2088 -0.0330
   26POPC   PO4  855   5.523   1.451   8.646  0.2351  0.3043 -0.1238
   26POPC   GL1  856   5.711   1.525   8.312 -0.1283  0.1431 -0.1470
   26POPC   GL2  857   5.546   1.367   8.155  0.1759 -0.0013 -0.2028
   26POPC   C1A  858   5.894   1.720   8.012  0.0627  0.0442  0.2436
   26POPC   D2A  859   5.811   1.844   7.650  0.1522  0.0999  0.2751
   26POPC   C3A  860   5.590   1.669   7.344 -0.0077  0.0599  0.0795
   26POPC   C4A  861   5.403   1.763   6.860  0.0281 -0.1053 -0.0161
   26POPC   C1B  862   5.701   1.299   7.749 -0.1050 -0.0225 -0.0410
   26POPC   C2B  863   5.682   1.140   7.397  0.2810 -0.0283 -0.2250
   26POPC   C3B  864   5.755   0.966   7.024 -0.0251 -0.4611 -0.1220
   26POPC   C4B  865   5.821   0.516   6.901  0.4678  0.0708 -0.0605
   27POPC   NC3  866   3.198   8.940   9.126  0.2552  0.1884  0.2064
   27POPC   PO4  867   3.539   8.690   9.241 -0.2245  0.1347 -0.2968
   27POPC   GL1  868   3.483   8.671   8.837 -0.0426 -0.2594  0.1257
   27POPC   GL2  869   3.360   8.927   8.632 -0.0827 -0.3230  0.0711
   27POPC   C1A  870   3.550   8.514   8.449  0.1627  0.1339  0.0873
   27POPC   D2A  871   3.653   8.715   8.047  0.1574 -0.1096 -0.0030
   27POPC   C3A  872   3.487   8.496   7.721  0.3626  0.0159  0.0565
   27POPC   C4A  873   3.094   8.314   7.496  0.1311  0.0880 -0.0229
   27POPC   C1B  874   3.128   9.055   8.257 -0.2457 -0.1114  0.2990
   27POPC   C2B  875   3.239   9.084   7.854 -0.1006  0.0677 -0.0889
   27POPC   C3B  876   3.613   9.022   7.638 -0.1525  0.1282  0.1611
   27POPC   C4B  877   3.583   8.926   7.142 -0.1365 -0.1262  0.1049
   28POPC   NC3  878   8.937   5.407   9.064  0.0750 -0.0071  0.2082
   28POPC   PO4  879   9.272   5.203   8.884 -0.1739 -0.0514 -0.0235
   28POPC   GL1  880   9.075   5.233   8.506  0.1129 -0.3217 -0.0401
   28POPC   GL2  881   8.903   5.574   8.286 -0.1077 -0.3179  0.1366
   28POPC   C1A  882   9.242   5.214   8.171  0.0805 -0.0760  0.0707
   28POPC   D2A  883   9.477   5.173   7.820 -0.0836 -0.1205  0.0601
   28POPC   C3A  884   9.547   5.438   7.668 -0.2899 -0.3194 -0.5459
   28POPC   C4A  885   9.481   5.880   7.578 -0.0720 -0.0238  0.1926
   28POPC   C1B  886   8.723   5.642   7.920 -0.1815  0.2107 -0.1277
   28POPC   C2B  887   8.926   5.844   7.588  0.4373  0.2311  0.0971
   28POPC   C3B  888   8.858   5.906   7.213 -0.0652  0.0160  0.2184
   28POPC   C4B  889   9.153   5.759   6.803  0.0534  0.1205 -0.1024
   29POPC   NC3  890   3.807   4.379   9.122  0.4059  0.2542 -0.2254
   29POPC   PO4  891   4.068   4.065   9.122  0.1381 -0.0636  0.0285
   29POPC   GL1  892   4.011   4.117   8.698  0.1045 -0.1995  0.1025
   29POPC   GL2  893   4.229   3.945   8.412 -0.1523  0.0756 -0.0079
   29POPC   C1A  894   3.970   4.322   8.305  0.0119 -0.0695  0.1319
   29POPC   D2A  895   3.906   4.508   7.849 -0.3503 -0.2374 -0.2511
   29POPC   C3A  896   3.933   4.576   7.324 -0.1612 -0.2178  0.2275
   29POPC   C4A  897   3.729   4.343   6.999 -0.0630 -0.0294 -0.0084
   29POPC   C1B  898   4.562   3.941   8.133  0.0893 -0.0566  0.4088
   29POPC   C2B  899   4.606   3.692   7.741  0.2159  0.1821 -0.1213
   29POPC   C3B  900   4.732   3.660   7.359  0.0439 -0.1014 -0.0497
   29POPC   C4B  901   4.745   3.340   7.008  0.0066  0.0953  0.1377
   30POPC   NC3  902   1.620   5.444   8.580 -0.0898  0.2354 -0.0394
   30POPC   PO4  903   2.063   5.528   8.645  0.0120  0.1474  0.3551
   30POPC   GL1  904   2.356   5.673   8.379 -0.0393  0.1412  0.3061
   30POPC   GL2  905   2.171   6.006   8.198  0.1710 -0.0438 -0.3239
   30POPC   C1A  906   2.611   5.696   8.075  0.2625 -0.0046 -0.0920
   30POPC   D2A  907   2.633   5.712   7.735  0.0349  0.0788  0.2014
   30POPC   C3A  908   2.710   5.376   7.430 -0.0921  0.3221 -0.1862
   30POPC   C4A  909   2.365   5.133   7.254  0.1546  0.2094 -0.0082
   30POPC   C1B  910   2.316   6.138   7.762  0.0759 -0.0270  0.2445
   30POPC   C2B  911   2.270   6.120   7.367 -0.0983 -0.1221 -0.3900
   30POPC   C3B  912   1.964   6.052   7.090  0.1841 -0.1519 -0.3592
   30POPC   C4B  913   1.774   6.197   6.657  0.1640  0.0750 -0.3241
   31POPC   NC3  914   4.584   6.753  10.108  0.1723  0.2796 -0.3443
   31POPC   PO4  915   4.438   7.151  10.024  0.1295 -0.0498 -0.2235
   31POPC   GL1  916   4.424   7.250   9.545  0.3867 -0.0413 -0.3802
   31POPC   GL2  917   4.086   7.166   9.392  0.0445 -0.0872 -0.2738
   31POPC   C1A  918   4.810   7.201   9.340 -0.1645  0.4099 -0.0365
   31POPC   D2A  919   4.896   6.988   8.941  0.3183 -0.1011 -0.0522
   31POPC   C3A  920   5.043   6.972   8.531  0.3383 -0.0964 -0.0537
   31POPC   C4A  921   5.223   7.142   8.204  0.2891  0.1243 -0.2146
   31POPC   C1B  922   4.352   7.291   9.009 -0.0931 -0.3286 -0.0445
   31POPC   C2B  923   4.588   7.437   8.656 -0.2892  0.0155 -0.1060
   31POPC   C3B  924   4.892   7.440   8.392 -0.0537  0.1426 -0.1620
   31POPC   C4B  925   5.148   7.666   8.092 -0.1848 -0.0004 -0.0834
   32POPC   NC3  926   7.813   2.081   9.599 -0.0766 -0.0002 -0.0150
   32POPC   PO4  927   7.616   2.231   9.296  0.0167  0.2635  0.0060
   32POPC   GL1  928   7.496   2.324   8.784  0.0472 -0.0936 -0.0474
   32POPC   GL2  929   7.786   2.342   8.581 -0.0989  0.1912 -0.2214
   32POPC   C1A  930   7.499   1.922   8.418  0.1572  0.2469 -0.1954
   32POPC   D2A  931   7.737   1.712   8.178 -0.0052  0.0241  0.3133
   32POPC   C3A  932   7.811   1.373   7.970  0.0530  0.0221 -0.0480
   32POPC   C4A  933   7.892   1.293   7.525  0.0494  0.1582 -0.1315
   32POPC   C1B  934   7.783   2.430   8.211  0.0216  0.1394  0.0799
   32POPC   C2B  935   7.636   2.596   7.688 -0.2595 -0.0098 -0.0045
   32POPC   C3B  936   7.732   2.564   7.198 -0.1665  0.0985 -0.0704
   32POPC   C4B  937   7.854   2.455   6.775  0.1428 -0.0837  0.0110
   33POPC   NC3  938   5.555   9.385   9.984 -0.2544 -0.0874 -0.1876
   33POPC   PO4  939   5.551   8.841   9.923 -0.1726 -0.1290 -0.2961
   33POPC   GL1  940   5.751   8.940   9.569 -0.0013 -0.1269 -0.1295
   33POPC   GL2  941   5.513   8.833   9.316 -0.0638 -0.0691  0.2541
   33POPC   C1A  942   6.219   8.942   9.350  0.0946 -0.0851 -0.1390
   33POPC   D2A  943   6.635   8.980   9.163  0.3768 -0.1124  0.1508
   33POPC   C3A  944   6.674   9.219   8.870 -0.0985  0.1137  0.1158
   33POPC   C4A  945   6.624   9.531   8.737  0.2824  0.0255 -0.0659
   33POPC   C1B  946   5.879   8.855   8.948 -0.0229 -0.0518 -0.0989
   33POPC   C2B  947   6.162   8.751   8.539  0.0864 -0.0500 -0.1031
   33POPC   C3B  948   6.585   8.716   8.410 -0.0777 -0.1494  0.1001
   33POPC   C4B  949   7.013   8.746   8.244 -0.0517 -0.3226 -0.0775
   34POPC   NC3  950   5.718   1.952   8.595 -0.3390 -0.0410  0.0064
   34POPC   PO4  951   5.731   2.427   8.352  0.1381  0.2963  0.2796
   34POPC   GL1  952   5.582   2.130   8.038  0.1166  0.3540  0.0923
   34POPC   GL2  953   5.389   1.868   8.119  0.0735 -0.2629  0.1828
   34POPC   C1A  954   5.439   2.148   7.617  0.3004  0.1114 -0.0761
   34POPC   D2A  955   5.245   2.007   7.219  0.2617 -0.0143 -0.2491
   34POPC   C3A  956   5.143   2.233   6.843  0.1080  0.0162  0.0375
   34POPC   C4A  957   5.170   2.198   6.396  0.0838  0.0018 -0.0315
   34POPC   C1B  958   5.298   1.611   7.795 -0.5100  0.0008 -0.1234
   34POPC   C2B  959   5.246   1.255   7.640  0.2602  0.1335  0.2854
   34POPC   C3B  960   5.295   0.804   7.383 -0.0173  0.2553  0.0392
   34POPC   C4B  961   5.201   0.351   7.446 -0.0604 -0.0521  0.0838
   35POPC   NC3  962   4.476   2.015   8.701  0.2019 -0.2472 -0.0775
   35POPC   PO4  963   4.020   2.097   8.789 -0.0071  0.2504 -0.1219
   35POPC   GL1  964   3.939   1.844   8.465  0.0565  0.5673  0.1800
   35POPC   GL2  965   4.222   1.648   8.386  0.0487  0.2674 -0.0336
   35POPC   C1A  966   4.092   2.198   8.082  0.3243  0.3220  0.0782
   35POPC   D2A  967   3.984   2.253   7.672 -0.0882  0.0486 -0.4211
   35POPC   C3A  968   3.768   2.582   7.490 -0.2803  0.1510  0.2458
   35POPC   C4A  969   3.409   2.786   7.358  0.4512  0.0687  0.1206
   35POPC   C1B  970   4.253   1.640   8.003 -0.2026  0.0507  0.1952
   35POPC   C2B  971   4.100   1.692   7.588  0.0044 -0.0643 -0.2449
   35POPC   C3B  972   4.082   2.021   7.274  0.1954 -0.1462  0.0582
   35POPC   C4B  973   3.934   2.124   6.856  0.3470 -0.4144  0.0471
   36POPC   NC3  974   2.620   7.237   9.108  0.0931 -0.2734  0.1930
   36POPC   PO4  975   2.324   7.268   8.795  0.4068  0.0081  0.0715
   36POPC   GL1  976   2.330   7.295   8.399  0.3293  0.2868  0.0944
   36POPC   GL2  977   2.155   7.565   8.417  0.1945  0.1341 -0.0880
   36POPC   C1A  978   2.562   7.510   8.076 -0.0259  0.0767  0.0852
   36POPC   D2A  979   2.756   7.964   7.751 -0.0384  0.1927  0.1494
   36POPC   C3A  980   2.643   7.689   7.538 -0.1743 -0.2167  0.0090
   36POPC   C4A  981   2.655   7.328   7.217  0.1371  0.0131 -0.2083
   36POPC   C1B  982   1.879   7.294   8.088 -0.0178  0.2651  0.2957
   36POPC   C2B  983   1.459   7.182   7.859  0.1005  0.0959  0.1596
   36POPC   C3B  984   1.020   6.879   7.806  0.0023  0.1625 -0.3189
   36POPC   C4B  985   0.768   6.613   7.477 -0.1938 -0.2190  0.0842
   37POPC   NC3  986   9.901   1.317   9.442  0.0931  0.0549 -0.1974
   37POPC   PO4  987   9.453   1.251   9.290 -0.1809  0.0356  0.0772
   37POPC   GL1  988   9.730   1.216   8.859 -0.2089  0.0641 -0.1713
   37POPC   GL2  989   9.835   1.525   8.680  0.0489  0.3012 -0.0111
   37POPC   C1A  990   9.909   1.065   8.441 -0.3053 -0.1928 -0.1589
   37POPC   D2A  991   9.888   1.166   7.921  0.1502 -0.2424 -0.0912
   37POPC   C3A  992   9.935   1.662   7.650  0.0251  0.0813 -0.1846
   37POPC   C4A  993   9.930   1.993   7.260 -0.0693  0.0728 -0.0488
   37POPC   C1B  994  10.031   1.685   8.245  0.0691  0.3094 -0.0314
   37POPC   C2B  995  10.326   1.577   8.005  0.0077  0.0321 -0.2798
   37POPC   C3B  996  10.317   1.230   7.676  0.2558  0.0643  0.3271
   37POPC   C4B  997  10.424   1.389   7.323  0.0669 -0.0061 -0.0104
   38POPC   NC3  998   5.731   4.949   9.313  0.0699  0.2292  0.0054
   38POPC   PO4  999   6.035   4.723   9.394 -0.2406  0.1323  0.0866
   38POPC   GL1 1000   6.233   4.613   8.954 -0.2022 -0.0498 -0.0806
   38POPC   GL2 1001   6.515   4.326   8.788  0.2000 -0.1211 -0.2807
   38POPC   C1A 1002   6.369   4.790   8.664 -0.0941 -0.0744  0.1851
   38POPC   D2A 1003   6.510   5.153   8.468 -0.0842  0.0936 -0.2108
   38POPC   C3A 1004   6.154   5.237   8.189 -0.2584  0.0357 -0.1820
   38POPC   C4A 1005   5.778   5.397   7.891 -0.0384  0.1210 -0.0277
   38POPC   C1B 1006   6.261   4.349   8.444  0.0753  0.1936  0.0744
   38POPC   C2B 1007   6.261   4.708   8.143  0.2760 -0.0640  0.2805
   38POPC   C3B 1008   6.310   4.895   7.853  0.0372 -0.1867 -0.0461
   38POPC   C4B 1009   6.129   5.146   7.562 -0.1863  0.3142 -0.1988
   39POPC   NC3 1010   9.126   0.114   8.965  0.2240  0.0512 -0.1942
   39POPC   PO4 1011   9.436   0.347   8.909 -0.1209  0.1608  0.1163
   39POPC   GL1 1012   9.463   0.660   8.504  0.1663  0.0548  0.3318
   39POPC   GL2 1013   9.634   0.372   8.255  0.1167  0.0006 -0.0090
   39POPC   C1A 1014   9.216   0.551   8.155 -0.1311  0.0755  0.0752
   39POPC   D2A 1015   9.026   0.569   7.730  0.0686  0.0345 -0.0142
   39POPC   C3A 1016   9.131   0.439   7.361  0.2770  0.1713 -0.0202
   39POPC   C4A 1017   9.257   0.602   6.950  0.1163  0.2514  0.1605
   39POPC   C1B 1018   9.866   0.659   8.037 -0.1664 -0.2103  0.2681
   39POPC   C2B 1019   9.970   0.782   7.635  0.0307  0.0755  0.0090
   39POPC   C3B 1020  10.186   0.843   7.272 -0.0958  0.0582 -0.2168
   39POPC   C4B 1021  10.607   0.675   7.159 -0.0605  0.2913  0.2475
   40POPC   NC3 1022   8.071   1.076   8.776 -0.0989 -0.1159  0.0607
   40POPC   PO4 1023   8.017   0.633   9.007 -0.2303 -0.2118 -0.2517
   40POPC   GL1 1024   8.200   0.324   8.654 -0.2819 -0.2026 -0.0006
   40POPC   GL2 1025   8.228   0.571   8.524 -0.0090 -0.2097  0.0496
   40POPC   C1A 1026   8.352   0.241   8.158  0.0235 -0.1052  0.0199
   40POPC   D2A 1027   8.708   0.298   8.029 -0.2293 -0.0733 -0.1398
   40POPC   C3A 1028   8.735   0.174   7.513  0.1301 -0.0662 -0.0691
   40POPC   C4A 1029   8.790   0.441   7.016  0.1998  0.2977  0.3905
   40POPC   C1B 1030   8.115   0.639   8.233  0.1519  0.1369  0.2901
   40POPC   C2B 1031   7.939   0.574   7.925 -0.3212  0.0758 -0.1157
   40POPC   C3B 1032   8.129   0.362   7.618 -0.2522  0.0009 -0.2603
   40POPC   C4B 1033   8.326   0.310   7.233  0.0946  0.3870  0.1738
   41POPC   NC3 1034   2.775   2.581   8.612 -0.1585 -0.1141 -0.1776
   41POPC   PO4 1035   2.410   2.803   8.834 -0.3578 -0.2116  0.0656
   41POPC   GL1 1036   2.476   2.976   8.366  0.0607 -0.1463 -0.3736
   41POPC   GL2 1037   2.726   3.238   8.438  0.1621 -0.0466 -0.3469
   41POPC   C1A 1038   2.503   2.981   7.935 -0.2993 -0.0023 -0.0624
   41POPC   D2A 1039   2.777   3.241   7.649 -0.2648 -0.1210 -0.2006
   41POPC   C3A 1040   2.745   2.994   7.302 -0.4191  0.4166  0.2895
   41POPC   C4A 1041   2.946   2.707   7.148 -0.2298  0.1093  0.1239
   41POPC   C1B 1042   3.014   3.197   8.109 -0.0198 -0.3044 -0.1085
   41POPC   C2B 1043   3.157   2.897   7.770 -0.3483 -0.0255 -0.0121
   41POPC   C3B 1044   2.772   2.627   7.641  0.1747  0.0512 -0.3581
   41POPC   C4B 1045   2.347   2.558   7.748  0.0813 -0.2077  0.0090
   42POPC   NC3 1046   4.897   6.285  10.672  0.2036 -0.0766 -0.2035
   42POPC   PO4 1047   4.956   6.402  10.184  0.2046 -0.0333 -0.2729
   42POPC   GL1 1048   4.910   6.636   9.679  0.2265 -0.1661 -0.0871
   42POPC   GL2 1049   4.781   6.613   9.377  0.2519  0.0203  0.0311
   42POPC   C1A 1050   5.280   6.824   9.412  0.1076  0.1199  0.0215
   42POPC   D2A 1051   5.757   6.880   9.332  0.0022 -0.2790 -0.1439
   42POPC   C3A 1052   5.852   6.890   8.866 -0.0840  0.1238  0.1395
   42POPC   C4A 1053   5.831   7.171   8.658  0.1846  0.2223  0.0941
   42POPC   C1B 1054   4.417   6.783   9.093 -0.3815 -0.0381 -0.0667
   42POPC   C2B 1055   4.538   6.926   8.654  0.0011 -0.1400 -0.0307
   42POPC   C3B 1056   4.639   6.942   8.254  0.1956 -0.0263 -0.1674
   42POPC   C4B 1057   4.818   7.203   7.902  0.1589 -0.2180  0.2632
   43POPC   NC3 1058   8.050   5.302   9.242  0.0598  0.2624  0.3086
   43POPC   PO4 1059   8.314   5.410   9.046  0.0228  0.2915 -0.1460
   43POPC   GL1 1060   8.096   5.448   8.682 -0.0110 -0.2056 -0.2986
   43POPC   GL2 1061   8.035   5.169   8.676  0.1546  0.5116 -0.1897
   43POPC   C1A 1062   7.876   5.663   8.361 -0.1770 -0.0862 -0.0221
   43POPC   D2A 1063   7.707   5.654   8.026  0.1016 -0.2894  0.0164
   43POPC   C3A 1064   7.610   5.608   7.659 -0.1812  0.1175  0.0439
   43POPC   C4A 1065   7.522   5.254   7.388 -0.0026  0.1857  0.2054
   43POPC   C1B 1066   7.688   5.145   8.332 -0.1263  0.0866  0.1137
   43POPC   C2B 1067   7.469   5.201   7.949  0.4318  0.0342 -0.0188
   43POPC   C3B 1068   7.130   5.127   7.754 -0.0539 -0.2304 -0.1295
   43POPC   C4B 1069   6.797   5.269   7.575  0.1303 -0.1003  0.0580
   44POPC   NC3 1070   7.257   8.006   9.502 -0.3116  0.2113  0.0997
   44POPC   PO4 1071   7.333   7.532   9.413 -0.0348 -0.0872  0.1354
   44POPC   GL1 1072   7.279   7.693   9.008  0.1209 -0.4087  0.1217
   44POPC   GL2 1073   7.249   7.441   8.868  0.0129 -0.1279  0.1412
   44POPC   C1A 1074   7.394   8.054   8.831  0.3168  0.1937 -0.1314
   44POPC   D2A 1075   7.162   8.393   8.724 -0.2992  0.0436 -0.2607
   44POPC   C3A 1076   7.019   8.805   8.868 -0.1033  0.0172  0.0768
   44POPC   C4A 1077   7.093   9.209   8.523 -0.0951  0.0519 -0.0146
   44POPC   C1B 1078   7.727   7.315   8.602  0.1175 -0.0029  0.3923
   44POPC   C2B 1079   7.743   7.443   8.168  0.2408  0.0613  0.1090
   44POPC   C3B 1080   7.748   7.529   7.794  0.1682  0.1339  0.0341
   44POPC   C4B 1081   7.906   7.390   7.399 -0.0255 -0.0818 -0.0489
   45POPC   NC3 1082   0.549   6.706   8.820  0.0018 -0.0096 -0.0888
   45POPC   PO4 1083   0.383   7.077   8.667  0.0147 -0.0425 -0.0494
   45POPC   GL1 1084   0.752   7.018   8.428  0.1089  0.0781 -0.0507
   45POPC   GL2 1085   0.921   6.707   8.510 -0.1820  0.0281  0.2953
   45POPC   C1A 1086   0.582   7.075   8.001 -0.0914 -0.1823  0.3452
   45POPC   D2A 1087   0.608   7.024   7.603 -0.0561 -0.0136 -0.0774
   45POPC   C3A 1088   0.935   7.035   7.294 -0.1845 -0.2555  0.1227
   45POPC   C4A 1089   1.430   6.912   7.335  0.3668  0.4226 -0.0651
   45POPC   C1B 1090   1.312   6.412   8.390 -0.1762 -0.2543  0.0640
   45POPC   C2B 1091   1.397   6.016   8.065  0.1146 -0.1458 -0.2732
   45POPC   C3B 1092   1.169   5.867   7.708  0.1188  0.0653  0.2205
   45POPC   C4B 1093   0.978   6.175   7.318 -0.0651  0.1306  0.1387
   46POPC   NC3 1094   9.291   3.998   8.733  0.0293 -0.1687  0.0953
   46POPC   PO4 1095   8.796   3.969   8.816 -0.0627  0.1682 -0.2562
   46POPC   GL1 1096   8.838   4.228   8.566 -0.2499  0.2449  0.1177
   46POPC   GL2 1097   8.540   4.406   8.428 -0.0938  0.3672  0.0130
   46POPC   C1A 1098   9.029   4.351   8.197 -0.3131 -0.0397 -0.1658
   46POPC   D2A 1099   9.090   4.451   7.810 -0.0812  0.0262  0.3935
   46POPC   C3A 1100   9.098   4.773   7.681  0.1605  0.0616  0.0398
   46POPC   C4A 1101   9.315   5.099   7.379 -0.3795  0.1488  0.1944
   46POPC   C1B 1102   8.605   4.543   7.943  0.1710  0.2088 -0.1336
   46POPC   C2B 1103   8.674   4.711   7.455  0.0134 -0.1455  0.2017
   46POPC   C3B 1104   8.740   5.000   7.118  0.1782 -0.0239 -0.0729
   46POPC   C4B 1105   8.775   5.412   7.058  0.2606 -0.0273 -0.1938
   47POPC   NC3 1106   1.038   0.066   9.139  0.0861 -0.1956  0.0548
   47POPC   PO4 1107   0.658  -0.150   9.121  0.2609  0.2292  0.0667
   47POPC   GL1 1108   0.700   0.096   8.751 -0.0686  0.1987  0.2027
   47POPC   GL2 1109   1.021  -0.070   8.638  0.5106  0.0438  0.0242
   47POPC   C1A 1110   0.790   0.203   8.237 -0.1655 -0.0405  0.2219
   47POPC   D2A 1111   1.167   0.173   7.910 -0.1291  0.0844  0.2026
   47POPC   C3A 1112   1.163   0.064   7.393 -0.2136  0.0813  0.1249
   47POPC   C4A 1113   1.184   0.094   6.949  0.3976 -0.3113 -0.1095
   47POPC   C1B 1114   1.079  -0.405   8.322 -0.2066 -0.3324  0.0161
   47POPC   C2B 1115   1.014  -0.574   7.887 -0.0381  0.1238  0.2182
   47POPC   C3B 1116   1.209  -0.847   7.552 -0.3205 -0.3274  0.1089
   47POPC   C4B 1117   1.254  -1.268   7.574 -0.1636  0.1983  0.1231
   48POPC   NC3 1118   8.660   2.504   9.259  0.0839  0.0365  0.2744
   48POPC   PO4 1119   8.704   2.491   8.734  0.2601 -0.2013 -0.0759
   48POPC   GL1 1120   8.698   2.406   8.187 -0.2968  0.0393 -0.0120
   48POPC   GL2 1121   8.816   2.091   8.081  0.0342 -0.0648  0.0669
   48POPC   C1A 1122   8.700   2.728   7.748 -0.0972  0.0383  0.2463
   48POPC   D2A 1123   8.830   2.857   7.392  0.2350 -0.2706  0.0667
   48POPC   C3A 1124   8.640   2.561   7.183 -0.0811  0.2198  0.2649
   48POPC   C4A 1125   8.275   2.340   6.954  0.1359 -0.2937  0.0169
   48POPC   C1B 1126   9.079   2.019   7.758  0.2182 -0.2909  0.2681
   48POPC   C2B 1127   9.055   2.381   7.453 -0.1772  0.1752 -0.0505
   48POPC   C3B 1128   9.175   2.576   7.041 -0.2125 -0.3209  0.3711
   48POPC   C4B 1129   8.969   2.772   6.851 -0.2810  0.1801  0.0933
   49POPC   NC3 1130   7.641   9.204   9.544  0.1835 -0.0989 -0.3830
   49POPC   PO4 1131   8.156   9.173   9.492 -0.1578 -0.1955  0.2360
   49POPC   GL1 1132   8.302   8.853   9.214  0.2141  0.0905  0.0331
   49POPC   GL2 1133   8.590   8.992   9.098  0.1252  0.1728 -0.1611
   49POPC   C1A 1134   8.105   8.746   8.858  0.0932 -0.2546 -0.2295
   49POPC   D2A 1135   7.916   8.860   8.476 -0.0052 -0.2968 -0.2892
   49POPC   C3A 1136   8.302   8.787   8.199 -0.4140 -0.0351  0.0295
   49POPC   C4A 1137   8.771   8.632   8.285  0.0208  0.2162  0.0059
   49POPC   C1B 1138   8.717   8.948   8.634  0.3370  0.1274  0.0598
   49POPC   C2B 1139   8.656   9.260   8.390 -0.0108 -0.1034  0.1278
   49POPC   C3B 1140   8.798   9.665   8.392  0.0017  0.4184  0.0473
   49POPC   C4B 1141   8.900   9.951   7.995  0.0141 -0.1033 -0.0862
   50POPC   NC3 1142  10.146   2.445   8.727 -0.1272  0.3286  0.0076
   50POPC   PO4 1143  10.589   2.408   8.928  0.0670  0.0408  0.1015
   50POPC   GL1 1144  10.594   2.454   8.454  0.0965 -0.0243 -0.1073
   50POPC   GL2 1145  10.779   2.730   8.300 -0.3298 -0.2537  0.1315
   50POPC   C1A 1146  11.043   2.339   8.257  0.1818 -0.1402  0.0920
   50POPC   D2A 1147  11.486   2.286   8.336 -0.0589 -0.1263 -0.1963
   50POPC   C3A 1148  11.801   2.397   8.074  0.1501 -0.1176 -0.0153
   50POPC   C4A 1149  12.186   2.311   7.891 -0.1022 -0.1837 -0.0768
   50POPC   C1B 1150  11.067   2.794   7.925 -0.0527  0.1075 -0.1015
   50POPC   C2B 1151  11.042   2.420   7.690  0.1156 -0.0710  0.1350
   50POPC   C3B 1152  10.950   2.055   7.796  0.2876 -0.1605  0.1296
   50POPC   C4B 1153  10.710   1.602   7.691 -0.0840 -0.0649  0.2045
   51POPC   NC3 1154   4.061   0.542   8.676 -0.2637  0.1069  0.0048
   51POPC   PO4 1155   3.585   0.663   8.644  0.0063  0.0929 -0.2387
   51POPC   GL1 1156   3.354   0.430   8.323  0.0554  0.1254  0.0541
   51POPC   GL2 1157   3.385   0.069   8.356 -0.0688  0.1422 -0.1767
   51POPC   C1A 1158   3.029   0.611   8.075  0.1800  0.1496  0.1312
   51POPC   D2A 1159   2.884   0.649   7.664 -0.1094  0.0134  0.0951
   51POPC   C3A 1160   2.462   0.556   7.498 -0.0264 -0.1544 -0.1560
   51POPC   C4A 1161   2.087   0.539   7.244 -0.0419 -0.1951  0.1092
   51POPC   C1B 1162   3.642  -0.033   7.994  0.0769  0.3629  0.1607
   51POPC   C2B 1163   3.644  -0.128   7.587 -0.0183  0.1057  0.2593
   51POPC   C3B 1164   3.214  -0.225   7.354  0.1280 -0.0483 -0.0897
   51POPC   C4B 1165   2.992  -0.458   7.120 -0.0883  0.2974  0.6000
   52POPC   NC3 1166   6.762   0.610   9.062  0.0049 -0.0080  0.1411
   52POPC   PO4 1167   6.718   1.174   9.005  0.1405  0.0381 -0.2397
   52POPC   GL1 1168   6.723   1.193   8.522 -0.1149  0.1785 -0.0617
   52POPC   GL2 1169   6.760   1.545   8.508  0.0596 -0.2542 -0.0722
   52POPC   C1A 1170   6.472   1.076   8.165  0.1103 -0.2124 -0.0638
   52POPC   D2A 1171   6.513   0.869   7.752 -0.1607 -0.1182  0.0902
   52POPC   C3A 1172   6.721   1.148   7.489 -0.0162 -0.1610 -0.0539
   52POPC   C4A 1173   6.545   1.498   7.387  0.4008 -0.1896  0.0762
   52POPC   C1B 1174   7.071   1.764   8.227 -0.2931  0.0139 -0.1190
   52POPC   C2B 1175   7.374   1.892   7.870  0.3272 -0.0429  0.0537
   52POPC   C3B 1176   7.734   2.045   7.804 -0.1375 -0.4803 -0.1448
   52POPC   C4B 1177   8.013   2.193   7.551  0.1224 -0.1851  0.0686
   53POPC   NC3 1178   0.327   1.353   9.122 -0.3169 -0.2131  0.3002
   53POPC   PO4 1179  -0.030   1.571   9.049  0.0266 -0.2732  0.3323
   53POPC   GL1 1180   0.130   1.366   8.673  0.1761 -0.1766  0.0406
   53POPC   GL2 1181   0.528   1.447   8.582  0.0107  0.1394 -0.1936
   53POPC   C1A 1182   0.197   1.096   8.320  0.1014 -0.1664 -0.1235
   53POPC   D2A 1183   0.189   0.775   8.047  0.2151 -0.0927 -0.1536
   53POPC   C3A 1184   0.739   0.588   7.937 -0.3759  0.1524 -0.1606
   53POPC   C4A 1185   1.147   0.637   7.773  0.1960 -0.1512  0.0505
   53POPC   C1B 1186   0.522   1.733   8.199 -0.0435 -0.3972 -0.3431
   53POPC   C2B 1187   0.253   2.073   8.000 -0.0675 -0.0510  0.1257
   53POPC   C3B 1188   0.250   2.026   7.535  0.0330 -0.1225 -0.0237
   53POPC   C4B 1189   0.426   2.395   7.347 -0.2013  0.0599  0.1383
   54POPC   NC3 1190   1.583   4.306   8.610 -0.0376  0.2183  0.2732
   54POPC   PO4 1191   1.454   4.707   8.754 -0.0981  0.2166  0.0843
   54POPC   GL1 1192   1.192   4.674   8.374  0.2394  0.0316 -0.0462
   54POPC   GL2 1193   1.354   4.638   8.104  0.2071  0.0736 -0.1006
   54POPC   C1A 1194   0.781   4.785   8.106 -0.1155 -0.0614  0.1300
   54POPC   D2A 1195   0.789   4.849   7.607  0.3649 -0.0071 -0.1321
   54POPC   C3A 1196   1.073   4.759   7.260 -0.1580 -0.0176 -0.1903
   54POPC   C4A 1197   1.161   4.935   6.898 -0.1139 -0.3491  0.1194
   54POPC   C1B 1198   1.262   4.910   7.752 -0.0443 -0.1350  0.0527
   54POPC   C2B 1199   1.437   5.048   7.314  0.0289  0.2610  0.0275
   54POPC   C3B 1200   1.657   5.183   6.944 -0.1565  0.1073  0.1606
   54POPC   C4B 1201   1.598   5.338   6.598 -0.2453  0.4024 -0.1178
   55POPC   NC3 1202   6.035   8.131   9.788 -0.1037 -0.2941 -0.2186
   55POPC   PO4 1203   6.498   8.393   9.999  0.1637  0.0708  0.0158
   55POPC   GL1 1204   6.343   8.282   9.502 -0.1536  0.2173 -0.0197
   55POPC   GL2 1205   6.107   8.439   9.250  0.1822  0.0063  0.1927
   55POPC   C1A 1206   6.400   8.063   9.166 -0.0266  0.0440 -0.2694
   55POPC   D2A 1207   6.109   7.992   8.818 -0.0330  0.3125 -0.0230
   55POPC   C3A 1208   5.945   8.333   8.599 -0.4046  0.2194 -0.2066
   55POPC   C4A 1209   5.664   8.531   8.316  0.1110  0.1432 -0.1725
   55POPC   C1B 1210   6.378   8.471   8.885 -0.0382 -0.2134 -0.0296
   55POPC   C2B 1211   6.505   8.215   8.549  0.0489 -0.1015  0.0100
   55POPC   C3B 1212   6.510   7.850   8.560  0.2380  0.3311  0.0659
   55POPC   C4B 1213   6.135   7.524   8.593  0.0402  0.3078  0.1839
   56POPC   NC3 1214   6.290   1.892   9.062 -0.0466 -0.0271  0.1892
   56POPC   PO4 1215   6.031   2.182   8.922 -0.0684  0.2456 -0.1398
   56POPC   GL1 1216   6.224   2.137   8.507  0.2632  0.5626 -0.0260
   56POPC   GL2 1217   6.501   1.974   8.570 -0.3775  0.0111  0.2782
   56POPC   C1A 1218   6.225   2.102   8.033 -0.1548 -0.0251 -0.0182
   56POPC   D2A 1219   6.354   1.905   7.683 -0.0862 -0.0152  0.1496
   56POPC   C3A 1220   6.704   2.060   7.330 -0.4751  0.0693  0.0129
   56POPC   C4A 1221   6.895   2.281   6.980  0.4654  0.0230  0.0535
   56POPC   C1B 1222   6.687   2.078   8.225  0.1328  0.1232  0.0085
   56POPC   C2B 1223   6.857   1.928   7.827  0.1112 -0.2705  0.0906
   56POPC   C3B 1224   6.961   1.652   7.570 -0.2906 -0.0187 -0.0085
   56POPC   C4B 1225   6.986   1.568   7.171 -0.2421 -0.0997 -0.0027
   57POPC   NC3 1226   3.110   4.961   9.015  0.1365 -0.2165  0.2823
   57POPC   PO4 1227   3.365   4.611   9.145  0.0692  0.1668 -0.0260
   57POPC   GL1 1228   3.470   4.723   8.771  0.2099 -0.1604  0.1343
   57POPC   GL2 1229   3.547   4.387   8.709 -0.0716  0.0213 -0.0073
   57POPC   C1A 1230   3.551   5.011   8.372 -0.1622  0.3694  0.1780
   57POPC   D2A 1231   3.438   5.290   8.008 -0.1748  0.0542  0.2707
   57POPC   C3A 1232   3.679   5.381   7.683 -0.0737  0.0866 -0.0848
   57POPC   C4A 1233   3.836   4.997   7.448 -0.0821 -0.0174 -0.2203
   57POPC   C1B 1234   3.516   4.561   8.311  0.0405 -0.0305 -0.0359
   57POPC   C2B 1235   3.415   4.711   7.929  0.0334  0.1100 -0.4505
   57POPC   C3B 1236   3.318   4.985   7.632  0.1417 -0.0566 -0.1625
   57POPC   C4B 1237   3.261   5.242   7.265  0.3407 -0.0353  0.0263
   58POPC   NC3 1238   0.377   5.863   8.903  0.1212 -0.0166 -0.0017
   58POPC   PO4 1239   0.707   6.205   9.018  0.1015  0.2618 -0.0029
   58POPC   GL1 1240   0.791   6.064   8.627 -0.2056  0.0396  0.2948
   58POPC   GL2 1241   0.552   6.281   8.569  0.1541 -0.0853  0.1835
   58POPC   C1A 1242   0.960   6.066   8.182  0.0103  0.1227  0.3291
   58POPC   D2A 1243   1.128   6.340   7.835  0.1687  0.0216  0.1969
   58POPC   C3A 1244   1.388   6.431   7.501  0.0650  0.1154  0.1470
   58POPC   C4A 1245   1.559   6.490   7.019 -0.1543  0.0241  0.1073
   58POPC   C1B 1246   0.449   5.970   8.228  0.1529 -0.0799  0.0226
   58POPC   C2B 1247   0.097   6.148   7.968  0.1504 -0.0154  0.2244
   58POPC   C3B 1248   0.135   6.173   7.585  0.0415  0.0239 -0.1944
   58POPC   C4B 1249  -0.102   6.178   7.091 -0.0186  0.1389 -0.1028
   59POPC   NC3 1250   5.382   5.904   9.845  0.2587 -0.1703  0.3386
   59POPC   PO4 1251   5.149   5.608   9.694  0.1761  0.0743 -0.2941
   59POPC   GL1 1252   5.254   5.589   9.300 -0.0321 -0.4487  0.2286
   59POPC   GL2 1253   5.397   5.285   9.199 -0.1346  0.0035 -0.2106
   59POPC   C1A 1254   5.183   5.566   8.849 -0.1882 -0.0540  0.0291
   59POPC   D2A 1255   5.193   5.655   8.446  0.1397 -0.1516 -0.0476
   59POPC   C3A 1256   5.041   6.040   8.471 -0.0685  0.1219  0.0948
   59POPC   C4A 1257   4.672   6.223   8.411  0.1081  0.0408 -0.1809
   59POPC   C1B 1258   5.654   5.540   8.930  0.2921 -0.1697  0.1314
   59POPC   C2B 1259   5.735   5.618   8.498 -0.1023 -0.3381  0.2248
   59POPC   C3B 1260   5.513   5.733   8.089  0.1773  0.0535 -0.0137
   59POPC   C4B 1261   5.491   5.814   7.708 -0.0535  0.0400  0.2055
   60POPC   NC3 1262   1.642   7.978   9.630  0.0736 -0.0158  0.0989
   60POPC   PO4 1263   1.459   7.878   9.202 -0.2615  0.2758  0.0853
   60POPC   GL1 1264   1.631   8.089   8.807 -0.2359  0.1238  0.0146
   60POPC   GL2 1265   1.858   7.927   8.666 -0.0415 -0.3107  0.0565
   60POPC   C1A 1266   1.413   8.194   8.493 -0.0044  0.0255  0.0841
   60POPC   D2A 1267   1.193   8.560   8.372  0.1171 -0.0667  0.0483
   60POPC   C3A 1268   1.015   8.466   7.971  0.2495  0.3167  0.0624
   60POPC   C4A 1269   0.708   8.570   7.724  0.1058  0.1749 -0.1494
   60POPC   C1B 1270   1.793   7.949   8.284  0.4474 -0.0015  0.2981
   60POPC   C2B 1271   1.443   8.142   8.003 -0.1834 -0.0781  0.1490
   60POPC   C3B 1272   1.238   7.857   7.863  0.0956 -0.0529 -0.0736
   60POPC   C4B 1273   1.194   7.498   7.488 -0.1355  0.1078  0.0533
   61POPC   NC3 1274   8.661   0.734   9.373 -0.0197  0.2228 -0.0147
   61POPC   PO4 1275   8.721   0.273   9.318  0.2435  0.2421 -0.1232
   61POPC   GL1 1276   8.657   0.225   8.819  0.0983  0.1935 -0.0406
   61POPC   GL2 1277   8.641  -0.144   8.761  0.1891 -0.2966 -0.1937
   61POPC   C1A 1278   8.743   0.527   8.488  0.0797 -0.0814  0.0984
   61POPC   D2A 1279   8.948   0.866   8.444 -0.2381 -0.0672  0.0255
   61POPC   C3A 1280   8.987   1.009   7.988  0.1317 -0.2678 -0.1791
   61POPC   C4A 1281   9.047   1.057   7.611 -0.2802 -0.2258  0.1883
   61POPC   C1B 1282   8.602  -0.111   8.317  0.0187  0.1790 -0.0486
   61POPC   C2B 1283   8.478  -0.137   7.820  0.1061  0.1767 -0.1104
   61POPC   C3B 1284   8.263  -0.126   7.558 -0.0469 -0.1608 -0.0270
   61POPC   C4B 1285   7.879   0.013   7.365 -0.0878 -0.0733 -0.2131
   62POPC   NC3 1286   0.941   5.745   9.021  0.0364  0.3199 -0.1286
   62POPC   PO4 1287   0.733   5.412   8.699 -0.0784  0.0667  0.1411
   62POPC   GL1 1288   0.765   5.545   8.323 -0.1664  0.0545 -0.0647
   62POPC   GL2 1289   0.619   5.321   8.209  0.0029  0.1168  0.1366
   62POPC   C1A 1290   0.766   5.714   7.904  0.1979  0.1540  0.3736
   62POPC   D2A 1291   0.677   5.814   7.556 -0.0990 -0.0208  0.1588
   62POPC   C3A 1292   0.920   5.703   7.191 -0.3803  0.1772 -0.2357
   62POPC   C4A 1293   1.271   5.535   6.967 -0.0712  0.1013 -0.0553
   62POPC   C1B 1294   0.582   5.214   7.817 -0.0734  0.1913  0.2047
   62POPC   C2B 1295   0.393   5.303   7.394  0.2870  0.0342  0.1360
   62POPC   C3B 1296  -0.038   5.223   7.273  0.1686 -0.1391  0.4728
   62POPC   C4B 1297  -0.462   5.145   7.130 -0.2071 -0.4621  0.2648
   63POPC   NC3 1298   2.966   1.331   9.048 -0.0542  0.0185  0.3059
   63POPC   PO4 1299   3.255   1.622   9.136 -0.2005  0.0261 -0.2520
   63POPC   GL1 1300   3.052   1.627   8.621  0.1516  0.0922 -0.2850
   63POPC   GL2 1301   2.929   1.319   8.565  0.3777  0.1138  0.1676
   63POPC   C1A 1302   3.334   1.848   8.266  0.1772 -0.1798  0.1556
   63POPC   D2A 1303   3.720   1.773   7.988 -0.1359  0.1086 -0.3705
   63POPC   C3A 1304   3.629   1.842   7.549 -0.2556 -0.1345  0.0600
   63POPC   C4A 1305   3.588   2.219   7.205  0.1482  0.0079 -0.0348
   63POPC   C1B 1306   3.233   1.384   8.166  0.1922  0.2589  0.0191
   63POPC   C2B 1307   3.129   1.313   7.693  0.2182  0.3395  0.0991
   63POPC   C3B 1308   3.113   1.006   7.285  0.1000  0.0810 -0.1337
   63POPC   C4B 1309   2.692   0.812   7.055 -0.5218 -0.3411  0.1053
   64POPC   NC3 1310   2.296   9.366   9.023  0.1357  0.1033  0.2924
   64POPC   PO4 1311   1.986   9.721   9.052 -0.1292 -0.2636 -0.1284
   64POPC   GL1 1312   1.987   9.484   8.623  0.1393  0.1331 -0.2721
   64POPC   GL2 1313   2.193   9.265   8.436  0.0832 -0.0310  0.1857
   64POPC   C1A 1314   1.718   9.143   8.324 -0.4160  0.2178  0.0894
   64POPC   D2A 1315   1.631   8.754   8.195 -0.2891  0.2497 -0.1141
   64POPC   C3A 1316   1.474   8.609   7.803 -0.0503  0.0556  0.0921
   64POPC   C4A 1317   1.243   8.304   7.588 -0.0033 -0.0691  0.3350
   64POPC   C1B 1318   2.435   9.534   8.050 -0.1635  0.0494  0.4310
   64POPC   C2B 1319   2.363   9.535   7.641 -0.2418  0.0593 -0.0522
   64POPC   C3B 1320   2.554   9.406   7.254  0.0683  0.0978 -0.1556
   64POPC   C4B 1321   3.038   9.277   6.905  0.0224 -0.0801  0.0339
   65POPC   NC3 1322   7.068   1.425   9.239 -0.2348 -0.1388  0.6604
   65POPC   PO4 1323   7.184   1.543   8.843  0.1122  0.0302  0.0644
   65POPC   GL1 1324   7.416   1.437   8.451  0.1248 -0.0165  0.2980
   65POPC   GL2 1325   7.620   1.205   8.530 -0.1802  0.0251  0.0625
   65POPC   C1A 1326   7.340   1.362   8.022 -0.1827 -0.1792 -0.3360
   65POPC   D2A 1327   7.318   1.349   7.662 -0.0901 -0.0527  0.1334
   65POPC   C3A 1328   7.486   1.534   7.335  0.0994 -0.0234 -0.1699
   65POPC   C4A 1329   7.366   1.725   6.894 -0.1247  0.1608 -0.1646
   65POPC   C1B 1330   7.671   0.940   8.156 -0.0728  0.0522  0.0566
   65POPC   C2B 1331   7.559   0.943   7.777 -0.2970 -0.0846  0.1373
   65POPC   C3B 1332   7.522   0.946   7.331 -0.2493 -0.1711 -0.2870
   65POPC   C4B 1333   7.316   1.161   6.973 -0.2218  0.0689 -0.2641
   66POPC   NC3 1334   2.513   7.634   9.885 -0.0561 -0.1190 -0.2047
   66POPC   PO4 1335   2.716   7.718   9.428 -0.1874  0.2749 -0.0709
   66POPC   GL1 1336   2.898   7.665   9.034  0.0123  0.0798 -0.0451
   66POPC   GL2 1337   2.968   8.008   8.931  0.2243 -0.0231 -0.1567
   66POPC   C1A 1338   3.227   7.528   8.828 -0.0478 -0.0542 -0.1101
   66POPC   D2A 1339   3.606   7.415   8.531  0.2976  0.1737  0.2098
   66POPC   C3A 1340   3.537   7.155   8.236 -0.0300  0.2822  0.0460
   66POPC   C4A 1341   3.214   7.029   8.008 -0.1125  0.0805  0.1032
   66POPC   C1B 1342   3.217   8.178   8.533  0.1625 -0.2116  0.0771
   66POPC   C2B 1343   3.455   7.862   8.350 -0.0286 -0.2372 -0.3170
   66POPC   C3B 1344   3.612   7.734   8.036 -0.0946 -0.0917  0.0860
   66POPC   C4B 1345   3.499   7.380   7.779 -0.0543 -0.0369  0.1898
   67POPC   NC3 1346   6.377   5.039   9.612  0.1807 -0.2340  0.1465
   67POPC   PO4 1347   5.977   5.252   9.652  0.0110 -0.1583 -0.0960
   67POPC   GL1 1348   6.075   5.274   9.174 -0.0761 -0.0309 -0.3462
   67POPC   GL2 1349   6.361   5.231   9.016 -0.0021  0.1652  0.0875
   67POPC   C1A 1350   5.961   5.203   8.731 -0.1516  0.0489  0.2745
   67POPC   D2A 1351   5.885   4.850   8.438 -0.1131 -0.2403  0.1118
   67POPC   C3A 1352   5.842   4.545   8.649 -0.2950 -0.0649 -0.1403
   67POPC   C4A 1353   6.085   4.143   8.952 -0.1068 -0.2752  0.1609
   67POPC   C1B 1354   6.344   5.566   8.665 -0.0934  0.0607  0.1302
   67POPC   C2B 1355   6.221   5.728   8.360  0.0262  0.1233 -0.0622
   67POPC   C3B 1356   6.027   6.147   8.243 -0.2353 -0.3218 -0.0660
   67POPC   C4B 1357   5.978   6.445   7.981 -0.1395 -0.0346  0.0567
   68POPC   NC3 1358   8.698   9.292   9.580  0.0948 -0.0184 -0.2758
   68POPC   PO4 1359   8.435   9.684   9.565 -0.0520  0.0108 -0.2245
   68POPC   GL1 1360   8.383   9.714   9.065  0.2881  0.1680  0.1079
   68POPC   GL2 1361   8.280   9.408   8.988 -0.1295  0.2150  0.2587
   68POPC   C1A 1362   8.336   9.652   8.571 -0.0312 -0.0844  0.1889
   68POPC   D2A 1363   8.359   9.682   8.095 -0.0314 -0.0876  0.3167
   68POPC   C3A 1364   7.923   9.655   7.883 -0.0631  0.1191 -0.1574
   68POPC   C4A 1365   7.637   9.700   7.535  0.0080  0.0932 -0.1111
   68POPC   C1B 1366   8.245   9.171   8.677 -0.1002  0.1918  0.1422
   68POPC   C2B 1367   8.136   9.287   8.314 -0.2920 -0.1499  0.0582
   68POPC   C3B 1368   8.248   9.222   7.937 -0.0865  0.0534  0.2319
   68POPC   C4B 1369   8.514   8.916   7.785 -0.0470 -0.3519  0.1673
   69POPC   NC3 1370   7.952   3.130   9.175 -0.0485  0.0035  0.2288
   69POPC   PO4 1371   8.159   3.267   8.794 -0.1464  0.1976  0.1203
   69POPC   GL1 1372   8.085   3.049   8.354 -0.1154 -0.0116 -0.0746
   69POPC   GL2 1373   8.092   3.244   8.074  0.2288 -0.3229 -0.1936
   69POPC   C1A 1374   8.115   2.765   7.969 -0.0744  0.1819 -0.1212
   69POPC   D2A 1375   8.185   2.684   7.516  0.1984  0.0799 -0.0209
   69POPC   C3A 1376   7.969   3.005   7.216  0.1126 -0.0633 -0.2273
   69POPC   C4A 1377   7.915   2.964   6.764 -0.1604 -0.0722  0.0245
   69POPC   C1B 1378   7.882   3.270   7.705  0.0234 -0.0928 -0.0213
   69POPC   C2B 1379   7.702   3.577   7.391  0.1060 -0.1725  0.1628
   69POPC   C3B 1380   7.651   3.616   6.961 -0.1261  0.4099 -0.0353
   69POPC   C4B 1381   7.678   3.396   6.555 -0.2840  0.4546 -0.1503
   70POPC   NC3 1382   5.120   1.392   8.381  0.0635 -0.0726 -0.2051
   70POPC   PO4 1383   4.826   1.641   8.730 -0.0367  0.2007 -0.2156
   70POPC   GL1 1384   4.978   1.859   8.402 -0.1227  0.0787  0.0348
   70POPC   GL2 1385   4.698   1.855   8.301 -0.1085 -0.3930 -0.2065
   70POPC   C1A 1386   4.967   2.134   7.987 -0.0517 -0.0505  0.0261
   70POPC   D2A 1387   4.952   1.955   7.633 -0.2263 -0.1004  0.1017
   70POPC   C3A 1388   4.982   1.612   7.399  0.0688  0.0829  0.3922
   70POPC   C4A 1389   4.841   1.208   7.266 -0.0533 -0.2011  0.0004
   70POPC   C1B 1390   4.519   2.033   7.837 -0.3329 -0.0076 -0.0531
   70POPC   C2B 1391   4.557   2.007   7.325  0.0656  0.4122 -0.2158
   70POPC   C3B 1392   4.675   2.023   7.033  0.0503  0.2113 -0.2123
   70POPC   C4B 1393   4.708   2.142   6.601 -0.1323  0.2602 -0.2341
   71POPC   NC3 1394   6.454  10.194   9.057  0.1777  0.1116 -0.0854
   71POPC   PO4 1395   6.335  10.606   9.123 -0.2702  0.1222  0.1824
   71POPC   GL1 1396   6.363  10.580   8.715  0.0195  0.0016 -0.1360
   71POPC   GL2 1397   6.696  10.368   8.588 -0.4716 -0.1278  0.2647
   71POPC   C1A 1398   6.222  10.388   8.306  0.0476  0.2765 -0.0840
   71POPC   D2A 1399   6.195  10.050   8.020 -0.1090  0.0683 -0.0034
   71POPC   C3A 1400   5.740   9.848   7.836 -0.1146  0.0285 -0.0460
   71POPC   C4A 1401   5.385   9.962   8.036  0.1125 -0.0355  0.0206
   71POPC   C1B 1402   6.657  10.186   8.099 -0.0113 -0.1920  0.2888
   71POPC   C2B 1403   6.605  10.159   7.661 -0.0966 -0.0749  0.1166
   71POPC   C3B 1404   6.385  10.317   7.266  0.0792 -0.2660  0.1051
   71POPC   C4B 1405   6.163  10.746   7.269  0.0274  0.3529  0.0181
   72POPC   NC3 1406   1.480   9.512   9.235 -0.0235  0.0423 -0.1157
   72POPC   PO4 1407   1.391   9.954   9.037 -0.0157  0.1211 -0.1754
   72POPC   GL1 1408   1.533   9.890   8.637 -0.3258  0.1375 -0.0569
   72POPC   GL2 1409   1.819  10.042   8.673  0.1048 -0.1646  0.1982
   72POPC   C1A 1410   1.519   9.740   8.212 -0.3061  0.3161 -0.3494
   72POPC   D2A 1411   1.389   9.315   7.973  0.0539 -0.2473 -0.0487
   72POPC   C3A 1412   1.700   9.034   7.799  0.1030  0.1830  0.2800
   72POPC   C4A 1413   1.797   8.810   7.367  0.1254 -0.1674  0.3735
   72POPC   C1B 1414   2.056   9.798   8.304  0.1783 -0.1050  0.2961
   72POPC   C2B 1415   1.951   9.506   8.044  0.3944 -0.0730 -0.0722
   72POPC   C3B 1416   1.679   9.638   7.717  0.1184  0.0907  0.2353
   72POPC   C4B 1417   1.317   9.972   7.723 -0.1372  0.3279  0.1139
   73POPC   NC3 1418   1.417   8.469   9.648 -0.0468 -0.1877  0.1697
   73POPC   PO4 1419   1.564   8.357   9.255  0.0772 -0.0659  0.2767
   73POPC   GL1 1420   1.679   8.624   8.857  0.1860  0.1433  0.0737
   73POPC   GL2 1421   1.846   8.548   8.564  0.2121 -0.0984 -0.2750
   73POPC   C1A 1422   1.389   8.900   8.654 -0.0432  0.1477  0.2081
   73POPC   D2A 1423   1.152   9.081   8.379  0.0738 -0.0736 -0.1690
   73POPC   C3A 1424   0.643   9.062   8.378  0.1586  0.0750 -0.0864
   73POPC   C4A 1425   0.294   8.728   8.348  0.1516 -0.0828  0.2017
   73POPC   C1B 1426   2.071   8.448   8.278  0.0598  0.1055 -0.4394
   73POPC   C2B 1427   1.892   8.276   7.810 -0.1498 -0.1531 -0.0900
   73POPC   C3B 1428   1.707   8.336   7.415 -0.3255  0.0950  0.0181
   73POPC   C4B 1429   1.429   8.474   7.124  0.1501  0.2728 -0.1330
   74POPC   NC3 1430   6.008   3.919   9.837  0.0808  0.0813  0.0149
   74POPC   PO4 1431   6.462   3.897   9.517  0.1101  0.0860 -0.3084
   74POPC   GL1 1432   6.308   3.753   9.056 -0.2165 -0.0244 -0.1293
   74POPC   GL2 1433   6.532   3.463   8.854 -0.2989 -0.0503 -0.1145
   74POPC   C1A 1434   6.353   3.836   8.623  0.0097  0.0708 -0.2085
   74POPC   D2A 1435   6.123   3.943   8.138 -0.1828  0.0042  0.1107
   74POPC   C3A 1436   6.004   3.640   7.677  0.2341 -0.1230 -0.0181
   74POPC   C4A 1437   6.248   3.618   7.355  0.0259  0.0567  0.0477
   74POPC   C1B 1438   6.688   3.463   8.398 -0.1659  0.1620  0.0154
   74POPC   C2B 1439   6.934   3.701   8.083  0.0770 -0.0326 -0.3579
   74POPC   C3B 1440   6.969   3.658   7.667 -0.1975 -0.2826 -0.1034
   74POPC   C4B 1441   7.157   3.535   7.287 -0.1154  0.2655 -0.2061
   75POPC   NC3 1442   0.768   1.822   8.790  0.2695 -0.1418 -0.0453
   75POPC   PO4 1443   1.131   1.875   8.980 -0.3431  0.1086 -0.3226
   75POPC   GL1 1444   1.277   1.830   8.577 -0.4677 -0.0597 -0.1726
   75POPC   GL2 1445   1.080   1.829   8.296  0.0319  0.0708 -0.1528
   75POPC   C1A 1446   1.594   1.857   8.207  0.0630  0.0180 -0.3878
   75POPC   D2A 1447   1.989   1.719   7.934 -0.0511 -0.0852 -0.2484
   75POPC   C3A 1448   2.295   1.945   7.939 -0.0158  0.1563 -0.2159
   75POPC   C4A 1449   2.690   2.023   7.647  0.1996 -0.2807  0.0377
   75POPC   C1B 1450   1.207   2.045   7.896 -0.2638 -0.0922  0.1032
   75POPC   C2B 1451   1.571   2.007   7.605  0.4059  0.1414  0.0102
   75POPC   C3B 1452   1.806   1.846   7.431 -0.2927  0.1056 -0.1504
   75POPC   C4B 1453   1.918   1.570   7.070 -0.1081 -0.2126  0.1150
   76POPC   NC3 1454   5.326  10.220   9.663 -0.0964  0.0082  0.1434
   76POPC   PO4 1455   5.331   9.743   9.727 -0.0319 -0.0684 -0.0095
   76POPC   GL1 1456   5.520   9.725   9.448  0.0619 -0.1599 -0.3133
   76POPC   GL2 1457   5.343   9.934   9.225 -0.1532  0.1335 -0.1360
   76POPC   C1A 1458   5.838   9.807   9.180 -0.2707  0.1516  0.4307
   76POPC   D2A 1459   6.006   9.964   8.706  0.1079 -0.2695 -0.1989
   76POPC   C3A 1460   6.019   9.595   8.363 -0.0231 -0.5953 -0.2306
   76POPC   C4A 1461   6.068   9.554   7.995 -0.2910 -0.2391 -0.0820
   76POPC   C1B 1462   5.540  10.082   8.859 -0.2231 -0.0085 -0.0835
   76POPC   C2B 1463   5.714  10.351   8.463 -0.1032 -0.1514 -0.1071
   76POPC   C3B 1464   5.739  10.333   8.113 -0.2182  0.0836  0.1828
   76POPC   C4B 1465   5.650  10.472   7.806  0.0310  0.0304 -0.1091
   77POPC   NC3 1466   7.075   6.485  10.234  0.0928  0.1031 -0.0826
   77POPC   PO4 1467   6.757   6.369   9.964  0.1341  0.1090 -0.1414
   77POPC   GL1 1468   6.400   6.163   9.634  0.2823  0.2368 -0.0893
   77POPC   GL2 1469   6.596   6.342   9.361  0.2889 -0.1089 -0.0398
   77POPC   C1A 1470   6.058   6.089   9.307  0.2751 -0.1205 -0.3047
   77POPC   D2A 1471   6.037   6.009   8.834 -0.1061  0.2598 -0.2921
   77POPC   C3A 1472   6.411   6.154   8.563 -0.0304  0.1934 -0.2339
   77POPC   C4A 1473   6.457   6.519   8.174  0.0220  0.1305 -0.0320
   77POPC   C1B 1474   6.226   6.474   9.039  0.1521  0.0291 -0.3544
   77POPC   C2B 1475   6.278   6.621   8.627  0.0624  0.1443 -0.0113
   77POPC   C3B 1476   6.031   6.776   8.318  0.0288  0.3261 -0.2659
   77POPC   C4B 1477   5.863   7.137   8.136  0.0394  0.2103 -0.0510
   78POPC   NC3 1478   4.706   2.361   9.479  0.1289  0.2140 -0.0163
   78POPC   PO4 1479   4.495   2.398   9.027  0.0231 -0.1203  0.3456
   78POPC   GL1 1480   4.666   2.505   8.537  0.1174 -0.0296  0.0207
   78POPC   GL2 1481   4.344   2.423   8.394 -0.0969  0.1103  0.1684
   78POPC   C1A 1482   4.944   2.671   8.080 -0.1947 -0.1194 -0.1216
   78POPC   D2A 1483   5.315   2.553   7.977  0.1212  0.1294  0.0535
   78POPC   C3A 1484   5.051   2.552   7.581 -0.1509  0.0929  0.1840
   78POPC   C4A 1485   4.956   2.383   7.259  0.0689  0.1817  0.0836
   78POPC   C1B 1486   4.528   2.558   7.892  0.4629 -0.2627 -0.2365
   78POPC   C2B 1487   4.450   2.473   7.496  0.1036 -0.0198 -0.1241
   78POPC   C3B 1488   4.212   2.457   7.180  0.0441  0.0792  0.1024
   78POPC   C4B 1489   4.205   2.487   6.723  0.2254  0.2520  0.0960
   79POPC   NC3 1490   3.734   6.114   9.224  0.0081  0.0773  0.0823
   79POPC   PO4 1491   3.326   5.881   9.106  0.4694 -0.0532 -0.0189
   79POPC   GL1 1492   3.289   5.890   8.683 -0.1647 -0.0664 -0.2419
   79POPC   GL2 1493   3.123   5.983   8.407  0.1410 -0.0363  0.2367
   79POPC   C1A 1494   3.567   5.628   8.439 -0.0036 -0.7137  0.0904
   79POPC   D2A 1495   3.710   5.838   7.917  0.2388 -0.3981  0.2792
   79POPC   C3A 1496   3.860   6.268   8.027 -0.0192 -0.1906 -0.1273
   79POPC   C4A 1497   3.396   6.280   8.042 -0.0437 -0.2062 -0.1780
   79POPC   C1B 1498   3.186   5.885   8.021 -0.0853 -0.1967 -0.3074
   79POPC   C2B 1499   3.368   6.050   7.592  0.3581  0.0693 -0.0966
   79POPC   C3B 1500   3.379   6.134   7.127 -0.1223  0.0734 -0.1881
   79POPC   C4B 1501   3.342   6.340   6.740 -0.0391 -0.2011 -0.2062
   80POPC   NC3 1502   8.516   1.643   9.047  0.0348 -0.1774 -0.1756
   80POPC   PO4 1503   8.488   1.436   8.701  0.0512 -0.2077 -0.1455
   80POPC   GL1 1504   8.592   1.146   8.425 -0.0669 -0.0353  0.0259
   80POPC   GL2 1505   8.689   1.372   8.190 -0.0166 -0.0490  0.1941
   80POPC   C1A 1506   8.588   0.794   8.135 -0.0603 -0.0561  0.4873
   80POPC   D2A 1507   8.474   0.638   7.791 -0.1855 -0.0670 -0.0739
   80POPC   C3A 1508   8.640   0.932   7.469  0.1404 -0.1923 -0.2680
   80POPC   C4A 1509   8.385   1.248   7.308  0.1352 -0.0660 -0.3205
   80POPC   C1B 1510   8.503   1.663   7.960 -0.3472  0.0993 -0.0097
   80POPC   C2B 1511   8.124   1.769   7.824 -0.2371 -0.1734 -0.0348
   80POPC   C3B 1512   8.086   1.707   7.368 -0.0464  0.2662 -0.1726
   80POPC   C4B 1513   7.851   1.502   7.011  0.3849  0.0258 -0.1469
   81POPC   NC3 1514   8.931   7.647   8.929  0.1642  0.0970 -0.1024
   81POPC   PO4 1515   8.566   7.281   8.989 -0.0087  0.0710 -0.1768
   81POPC   GL1 1516   8.748   7.260   8.634 -0.0982  0.0399 -0.0654
   81POPC   GL2 1517   8.763   6.954   8.582 -0.1933  0.0828  0.1229
   81POPC   C1A 1518   8.600   7.638   8.302 -0.0521  0.2329  0.0667
   81POPC   D2A 1519   8.309   7.706   7.997  0.0770 -0.2292  0.0045
   81POPC   C3A 1520   8.268   7.351   7.762 -0.0394  0.0889 -0.0191
   81POPC   C4A 1521   8.453   6.906   7.844 -0.1766 -0.2049 -0.1157
   81POPC   C1B 1522   8.913   6.912   8.174  0.3356  0.0895  0.1978
   81POPC   C2B 1523   8.764   7.312   7.946  0.0707  0.1279  0.2345
   81POPC   C3B 1524   8.689   7.780   7.686 -0.1527  0.1781 -0.0360
   81POPC   C4B 1525   8.705   8.074   7.432 -0.3972 -0.2583  0.2082
   82POPC   NC3 1526   8.021   8.010   9.949 -0.2138 -0.2966 -0.1941
   82POPC   PO4 1527   7.725   8.231   9.615  0.1118 -0.1169  0.1525
   82POPC   GL1 1528   7.841   8.395   9.246 -0.2889 -0.0423 -0.1805
   82POPC   GL2 1529   7.497   8.369   9.199 -0.4105 -0.2043  0.0494
   82POPC   C1A 1530   7.845   8.309   8.813  0.1904 -0.0649  0.3826
   82POPC   D2A 1531   7.683   8.336   8.482 -0.2267 -0.2381 -0.2570
   82POPC   C3A 1532   7.974   8.442   8.073  0.1089 -0.0051 -0.0131
   82POPC   C4A 1533   8.204   8.218   7.746 -0.2212  0.0096  0.1035
   82POPC   C1B 1534   7.465   8.823   9.077  0.2150 -0.0692 -0.0437
   82POPC   C2B 1535   7.461   8.795   8.599 -0.0508  0.1115  0.1756
   82POPC   C3B 1536   7.512   8.899   8.144  0.0514 -0.1731  0.0252
   82POPC   C4B 1537   7.847   8.924   7.968  0.0538  0.3730  0.1552
   83POPC   NC3 1538   3.139   3.156   9.118 -0.0383  0.2116 -0.1709
   83POPC   PO4 1539   2.737   3.201   8.931 -0.0892  0.4280  0.0658
   83POPC   GL1 1540   2.970   3.573   8.698 -0.1702 -0.0953 -0.0097
   83POPC   GL2 1541   2.844   3.730   8.420  0.2209  0.1165 -0.1969
   83POPC   C1A 1542   3.267   3.509   8.523 -0.1638  0.1248  0.0405
   83POPC   D2A 1543   3.514   3.386   8.147  0.3506  0.0027 -0.0625
   83POPC   C3A 1544   3.206   3.466   7.768 -0.1008 -0.0216  0.0303
   83POPC   C4A 1545   3.270   3.246   7.350 -0.1011 -0.1223  0.2696
   83POPC   C1B 1546   2.949   3.850   8.030 -0.2488 -0.1280  0.0629
   83POPC   C2B 1547   3.111   4.077   7.704  0.0984 -0.2373  0.0359
   83POPC   C3B 1548   3.248   4.439   7.488 -0.0311  0.1464 -0.0496
   83POPC   C4B 1549   3.287   4.660   7.075  0.3832  0.0956 -0.2672
   84POPC   NC3 1550   4.399   4.935   9.291  0.0994  0.1288 -0.1969
   84POPC   PO4 1551   3.960   4.817   9.270 -0.0287 -0.0801 -0.1618
   84POPC   GL1 1552   3.982   4.883   8.836  0.1028 -0.0449  0.1470
   84POPC   GL2 1553   3.806   5.230   8.822 -0.4392 -0.0200 -0.0065
   84POPC   C1A 1554   4.022   4.797   8.501  0.3495  0.1387 -0.1025
   84POPC   D2A 1555   4.094   4.955   7.988  0.0786 -0.0830  0.2721
   84POPC   C3A 1556   4.381   5.214   7.980  0.2223  0.2180 -0.0854
   84POPC   C4A 1557   4.701   5.304   7.778  0.0902  0.1180 -0.0888
   84POPC   C1B 1558   3.962   5.329   8.396 -0.1155  0.1406 -0.0142
   84POPC   C2B 1559   4.084   5.623   8.109 -0.1818 -0.0255  0.1626
   84POPC   C3B 1560   4.182   5.580   7.653  0.0340  0.0949  0.2437
   84POPC   C4B 1561   4.067   5.443   7.312 -0.0547  0.0926 -0.3137
   85POPC   NC3 1562   0.468   4.759   8.940  0.1850  0.0420  0.2586
   85POPC   PO4 1563   0.564   4.310   8.913 -0.2087 -0.0494  0.0719
   85POPC   GL1 1564   0.573   4.219   8.473 -0.2191  0.1952 -0.1141
   85POPC   GL2 1565   0.470   4.551   8.387 -0.0039  0.2584  0.5514
   85POPC   C1A 1566   0.731   4.265   8.101 -0.1517  0.0845 -0.0784
   85POPC   D2A 1567   1.118   4.310   7.897 -0.1453 -0.1539  0.3297
   85POPC   C3A 1568   1.298   4.052   7.550  0.0524 -0.0973  0.0120
   85POPC   C4A 1569   1.709   3.982   7.343 -0.0628  0.0298  0.0467
   85POPC   C1B 1570   0.373   4.555   7.955  0.0160 -0.2387  0.3872
   85POPC   C2B 1571   0.390   4.437   7.689  0.0837 -0.2234 -0.0294
   85POPC   C3B 1572   0.213   4.288   7.367 -0.1963  0.0751  0.1051
   85POPC   C4B 1573   0.351   4.252   6.932  0.0156 -0.0671 -0.1717
   86POPC   NC3 1574   9.878   4.600   9.140 -0.0761 -0.0149 -0.1079
   86POPC   PO4 1575   9.718   4.265   8.815  0.0703 -0.1504  0.0949
   86POPC   GL1 1576   9.878   4.402   8.447  0.3672  0.1267 -0.1042
   86POPC   GL2 1577   9.729   4.303   8.143  0.3235  0.0978  0.0547
   86POPC   C1A 1578  10.160   4.698   8.280 -0.0977 -0.1361 -0.0791
   86POPC   D2A 1579  10.401   5.026   8.061  0.1477 -0.1121  0.0370
   86POPC   C3A 1580  10.433   4.898   7.630 -0.1052 -0.0465 -0.1026
   86POPC   C4A 1581  10.636   4.696   7.217  0.0767  0.0875  0.2257
   86POPC   C1B 1582   9.533   4.242   7.803 -0.1762 -0.0307 -0.1243
   86POPC   C2B 1583   9.346   4.069   7.526 -0.0118  0.1405 -0.0601
   86POPC   C3B 1584   9.062   3.783   7.361  0.1616 -0.0358 -0.1196
   86POPC   C4B 1585   8.664   3.612   7.444 -0.0233  0.1261  0.1013
   87POPC   NC3 1586   9.923   5.489   9.619 -0.3591 -0.0976 -0.1764
   87POPC   PO4 1587   9.908   5.574   9.126  0.4033 -0.0790 -0.2097
   87POPC   GL1 1588   9.747   5.308   8.754 -0.1846  0.1577 -0.0261
   87POPC   GL2 1589   9.797   5.569   8.602 -0.3102  0.0005 -0.1795
   87POPC   C1A 1590   9.680   4.999   8.361  0.0135 -0.2084  0.0926
   87POPC   D2A 1591   9.567   4.754   7.999 -0.2400 -0.1398  0.0033
   87POPC   C3A 1592   9.562   4.656   7.577 -0.0348  0.1132 -0.0308
   87POPC   C4A 1593   9.599   4.493   7.197  0.0736  0.1999 -0.0125
   87POPC   C1B 1594   9.575   5.608   8.165 -0.0583  0.2018 -0.0501
   87POPC   C2B 1595   9.203   5.843   8.041  0.3086 -0.0613 -0.1806
   87POPC   C3B 1596   8.864   6.084   8.049 -0.0170 -0.0792 -0.0139
   87POPC   C4B 1597   8.419   6.033   7.896 -0.1519 -0.3189 -0.0832
   88POPC   NC3 1598   2.999   6.296   8.947 -0.3973 -0.3468  0.1130
   88POPC   PO4 1599   3.338   6.538   9.199 -0.2761  0.0665  0.0168
   88POPC   GL1 1600   3.573   6.591   8.840  0.2427 -0.1591 -0.2082
   88POPC   GL2 1601   3.372   6.435   8.585  0.2871  0.0638 -0.3734
   88POPC   C1A 1602   3.839   6.764   8.584 -0.2039  0.3708 -0.1380
   88POPC   D2A 1603   3.642   6.654   8.185  0.1223 -0.2420 -0.1322
   88POPC   C3A 1604   3.611   6.875   7.743 -0.1112  0.1068 -0.4732
   88POPC   C4A 1605   3.285   7.055   7.470  0.3993  0.2040  0.2689
   88POPC   C1B 1606   3.608   6.231   8.487 -0.1610  0.0743 -0.1784
   88POPC   C2B 1607   3.944   6.003   8.443 -0.0450  0.1546  0.1252
   88POPC   C3B 1608   4.289   5.882   8.580 -0.0484 -0.1200  0.0495
   88POPC   C4B 1609   4.658   5.746   8.781 -0.1183 -0.2155 -0.0674
   89POPC   NC3 1610   9.412   8.317   9.454 -0.1759  0.1434  0.1549
   89POPC   PO4 1611   9.069   8.018   9.200  0.1647  0.1366 -0.0099
   89POPC   GL1 1612   9.146   8.083   8.844  0.2078  0.0786  0.1057
   89POPC   GL2 1613   9.358   8.359   8.904 -0.0314  0.2831 -0.0510
   89POPC   C1A 1614   8.787   8.092   8.548  0.4700  0.2312  0.0501
   89POPC   D2A 1615   8.603   8.126   8.089  0.3490  0.1498 -0.0401
   89POPC   C3A 1616   8.692   8.431   7.804 -0.2538 -0.0965 -0.2472
   89POPC   C4A 1617   8.829   8.706   7.446 -0.0381  0.0521 -0.0243
   89POPC   C1B 1618   9.494   8.694   8.801 -0.1530 -0.1604  0.0061
   89POPC   C2B 1619   9.623   8.763   8.307 -0.3916  0.1805 -0.0544
   89POPC   C3B 1620   9.478   9.097   7.972  0.0382 -0.4628 -0.0031
   89POPC   C4B 1621   9.264   8.989   7.618 -0.2400  0.2190  0.4682
   90POPC   NC3 1622   4.759   4.205   9.315  0.3136 -0.1846  0.0529
   90POPC   PO4 1623   4.716   4.598   9.526  0.2441  0.1004  0.1307
   90POPC   GL1 1624   4.811   4.688   9.088 -0.3496 -0.2942  0.0889
   90POPC   GL2 1625   4.890   4.992   9.022 -0.1789 -0.1670  0.0251
   90POPC   C1A 1626   4.860   4.715   8.652  0.3059  0.0627  0.0241
   90POPC   D2A 1627   5.181   4.794   8.410  0.1380 -0.1461  0.0559
   90POPC   C3A 1628   5.293   4.571   8.065  0.1323 -0.0128 -0.2372
   90POPC   C4A 1629   5.406   4.338   7.781 -0.0119  0.3443  0.0520
   90POPC   C1B 1630   4.863   5.254   8.671 -0.1975 -0.0791 -0.1595
   90POPC   C2B 1631   4.940   5.217   8.237 -0.1639  0.0953  0.0827
   90POPC   C3B 1632   5.085   5.551   8.008 -0.0152  0.2199  0.1426
   90POPC   C4B 1633   5.091   6.001   7.951 -0.4580  0.1074 -0.2711
   91POPC   NC3 1634   9.960   6.678   9.327  0.2643 -0.1826 -0.1104
   91POPC   PO4 1635   9.893   6.496   8.949  0.2780 -0.0391  0.0450
   91POPC   GL1 1636   9.797   6.554   8.475 -0.0825 -0.0643 -0.3640
   91POPC   GL2 1637   9.453   6.510   8.498 -0.0959  0.0581  0.0265
   91POPC   C1A 1638   9.926   6.481   8.077 -0.0828 -0.1695  0.3579
   91POPC   D2A 1639   9.987   6.506   7.591 -0.0538 -0.3131 -0.0716
   91POPC   C3A 1640   9.704   6.290   7.393  0.0039  0.0140  0.1164
   91POPC   C4A 1641   9.556   5.984   7.070 -0.1330 -0.1981 -0.0847
   91POPC   C1B 1642   9.159   6.467   8.136 -0.0206  0.0564  0.0296
   91POPC   C2B 1643   9.102   6.334   7.648  0.2472  0.3819  0.0455
   91POPC   C3B 1644   9.056   6.398   7.265 -0.4705 -0.3734 -0.1200
   91POPC   C4B 1645   9.136   6.274   6.895 -0.0666 -0.2830 -0.2674
   92POPC   NC3 1646   8.866   4.639   9.303 -0.0167  0.0923  0.1598
   92POPC   PO4 1647   8.604   5.001   9.265 -0.2998 -0.0340  0.0499
   92POPC   GL1 1648   8.730   5.009   8.842 -0.1711 -0.0252 -0.0461
   92POPC   GL2 1649   8.552   5.203   8.680 -0.1168  0.0535  0.3072
   92POPC   C1A 1650   8.787   4.845   8.349 -0.0025  0.0870  0.1813
   92POPC   D2A 1651   8.806   5.033   7.972  0.1282  0.2911  0.1307
   92POPC   C3A 1652   8.927   5.296   7.569 -0.0811 -0.2118  0.1398
   92POPC   C4A 1653   9.255   5.563   7.265  0.1273 -0.1168 -0.2008
   92POPC   C1B 1654   8.492   5.296   8.247  0.2073 -0.0310  0.0858
   92POPC   C2B 1655   8.217   5.574   7.965  0.1753  0.1945 -0.0668
   92POPC   C3B 1656   7.953   5.986   7.678 -0.1396 -0.2774 -0.0668
   92POPC   C4B 1657   7.672   6.175   7.529 -0.0646 -0.3631 -0.0401
   93POPC   NC3 1658   9.399   5.676   8.950 -0.3209  0.2453  0.1233
   93POPC   PO4 1659   9.175   5.825   8.657  0.2166 -0.3543 -0.2866
   93POPC   GL1 1660   9.507   6.029   8.394 -0.0406 -0.0783 -0.0174
   93POPC   GL2 1661   9.773   6.023   8.395 -0.3319  0.0818  0.0413
   93POPC   C1A 1662   9.523   6.175   7.940  0.0575 -0.3542  0.0319
   93POPC   D2A 1663   9.502   6.701   7.765  0.1422  0.2025 -0.2594
   93POPC   C3A 1664   9.162   6.787   7.760  0.0971 -0.4280  0.1666
   93POPC   C4A 1665   8.878   6.981   7.536  0.0017 -0.2351 -0.0587
   93POPC   C1B 1666   9.898   5.838   7.967 -0.0070 -0.0653  0.0798
   93POPC   C2B 1667   9.972   5.862   7.513 -0.2633  0.1942 -0.0483
   93POPC   C3B 1668   9.915   5.705   7.209 -0.3205 -0.1634 -0.0709
   93POPC   C4B 1669   9.694   5.610   6.774  0.5474 -0.0154 -0.0058
   94POPC   NC3 1670   2.671   4.156   8.587 -0.3705  0.4189  0.0237
   94POPC   PO4 1671   2.319   3.936   8.786  0.4322  0.0870  0.1553
   94POPC   GL1 1672   2.343   3.835   8.392  0.0024  0.3179 -0.0626
   94POPC   GL2 1673   2.493   4.057   8.172 -0.0563 -0.0270  0.1053
   94POPC   C1A 1674   2.536   3.590   8.004 -0.1437  0.0962 -0.0728
   94POPC   D2A 1675   2.283   3.387   7.754 -0.0257 -0.3580  0.1204
   94POPC   C3A 1676   2.185   3.622   7.310  0.0845  0.1593 -0.1192
   94POPC   C4A 1677   2.057   3.525   6.856 -0.1863  0.2233  0.0116
   94POPC   C1B 1678   2.590   4.098   7.693 -0.2220  0.1313  0.2893
   94POPC   C2B 1679   2.645   3.797   7.479 -0.1738 -0.2511  0.3062
   94POPC   C3B 1680   2.680   3.521   7.201  0.4121 -0.0419 -0.0935
   94POPC   C4B 1681   2.549   3.319   7.027  0.2573 -0.2264  0.2730
   95POPC   NC3 1682   3.045   9.416   8.848  0.1651  0.2028  0.0904
   95POPC   PO4 1683   2.660   9.413   8.676 -0.1599  0.1167  0.0925
   95POPC   GL1 1684   2.817   9.666   8.358  0.1074 -0.2672  0.0143
   95POPC   GL2 1685   3.150   9.821   8.461  0.0484  0.2900  0.0195
   95POPC   C1A 1686   2.920   9.499   7.987 -0.1901  0.1050  0.2625
   95POPC   D2A 1687   2.985   9.577   7.573 -0.2276 -0.0184  0.1838
   95POPC   C3A 1688   3.112   9.246   7.376 -0.0751 -0.0679  0.0542
   95POPC   C4A 1689   2.836   8.866   7.238 -0.1145  0.1734 -0.1267
   95POPC   C1B 1690   3.251   9.844   8.045  0.2961  0.1279  0.1578
   95POPC   C2B 1691   3.507   9.532   7.754  0.0837  0.1160 -0.1244
   95POPC   C3B 1692   3.633   9.602   7.396  0.0589  0.2304  0.0163
   95POPC   C4B 1693   3.408   9.548   6.983 -0.0877  0.0759  0.3423
   96POPC   NC3 1694   8.269   6.025   8.805  0.1111 -0.1583  0.0163
   96POPC   PO4 1695   8.238   6.558   8.895 -0.0444  0.0077  0.1254
   96POPC   GL1 1696   8.357   6.574   8.574  0.6825  0.3373 -0.1615
   96POPC   GL2 1697   8.283   6.322   8.372 -0.2786  0.0842 -0.0568
   96POPC   C1A 1698   8.628   6.534   8.058 -0.2190 -0.1958  0.2043
   96POPC   D2A 1699   8.631   6.395   7.626  0.0618  0.0336  0.0569
   96POPC   C3A 1700   8.476   6.718   7.381 -0.1670  0.1395  0.2245
   96POPC   C4A 1701   8.333   7.158   7.298 -0.0111  0.0234  0.1522
   96POPC   C1B 1702   7.944   6.210   8.181  0.2778 -0.3047 -0.0259
   96POPC   C2B 1703   7.605   6.472   7.968  0.0600 -0.3397 -0.3141
   96POPC   C3B 1704   7.279   6.865   8.211  0.2866  0.2076  0.0662
   96POPC   C4B 1705   7.254   7.241   8.329 -0.2934 -0.2765  0.1349
   97POPC   NC3 1706   6.338   1.408   8.846  0.1867  0.0173  0.0787
   97POPC   PO4 1707   6.078   1.608   8.658 -0.0735  0.2112  0.0449
   97POPC   GL1 1708   6.277   1.535   8.270  0.1772 -0.1362  0.0573
   97POPC   GL2 1709   6.386   1.686   8.107 -0.1171  0.1178  0.0921
   97POPC   C1A 1710   6.281   1.349   7.788 -0.0845 -0.1147 -0.0951
   97POPC   D2A 1711   6.079   1.460   7.387  0.0483 -0.1598 -0.2123
   97POPC   C3A 1712   6.142   1.778   7.188  0.2784 -0.1289  0.1007
   97POPC   C4A 1713   6.018   1.905   6.776 -0.0809 -0.3670  0.0983
   97POPC   C1B 1714   6.704   1.478   7.956  0.0665 -0.1663  0.2534
   97POPC   C2B 1715   6.969   1.085   7.935  0.0962  0.3439 -0.0294
   97POPC   C3B 1716   7.209   0.822   8.142  0.1479 -0.1353 -0.3842
   97POPC   C4B 1717   7.456   0.427   8.100  0.2960 -0.0339 -0.1024
   98POPC   NC3 1718   6.267   6.411  10.037 -0.1642 -0.2416  0.0886
   98POPC   PO4 1719   5.838   6.330   9.884 -0.2866  0.3346  0.0253
   98POPC   GL1 1720   5.711   6.421   9.466 -0.1370  0.1130 -0.1644
   98POPC   GL2 1721   5.515   6.127   9.447  0.2196  0.0369 -0.2669
   98POPC   C1A 1722   5.764   6.419   9.065  0.1757  0.1294  0.2416
   98POPC   D2A 1723   5.774   6.453   8.664 -0.2014 -0.0684 -0.0953
   98POPC   C3A 1724   5.542   6.771   8.362 -0.2527  0.0733 -0.1748
   98POPC   C4A 1725   5.574   6.799   7.852  0.2927  0.2795 -0.2165
   98POPC   C1B 1726   5.526   5.978   9.085 -0.1509  0.0666 -0.1213
   98POPC   C2B 1727   5.546   6.051   8.712  0.1376 -0.0821 -0.3127
   98POPC   C3B 1728   5.532   6.300   8.273 -0.1967  0.2033 -0.2830
   98POPC   C4B 1729   5.517   6.341   7.764  0.0331  0.3390  0.1542
   99POPC   NC3 1730   6.129   7.662   9.919 -0.0434 -0.1342 -0.1235
   99POPC   PO4 1731   6.460   7.836   9.764  0.0633  0.0834 -0.3285
   99POPC   GL1 1732   6.070   7.792   9.457 -0.2056 -0.0421  0.2620
   99POPC   GL2 1733   5.839   7.521   9.463  0.1563  0.0105  0.0142
   99POPC   C1A 1734   5.757   8.008   9.149 -0.1530  0.0861  0.2266
   99POPC   D2A 1735   5.591   8.415   8.970 -0.0210  0.1877  0.1994
   99POPC   C3A 1736   5.369   8.334   8.665  0.0507  0.1978  0.0188
   99POPC   C4A 1737   5.044   8.594   8.496 -0.0201 -0.1969  0.2632
   99POPC   C1B 1738   5.867   7.513   9.049 -0.1265  0.0263 -0.0647
   99POPC   C2B 1739   5.563   7.755   8.766  0.1787 -0.1650  0.0715
   99POPC   C3B 1740   5.486   7.975   8.280 -0.0467 -0.2903 -0.3303
   99POPC   C4B 1741   5.469   8.179   7.920  0.0828 -0.0432  0.1539
  100POPC   NC3 1742   7.771   8.741   9.602 -0.0143  0.1163  0.1361
  100POPC   PO4 1743   7.337   8.950   9.871  0.4161  0.2329 -0.2697
  100POPC   GL1 1744   7.096   9.195   9.614 -0.2388 -0.0749  0.0505
  100POPC   GL2 1745   7.023   9.005   9.386 -0.0010  0.2190 -0.0738
  100POPC   C1A 1746   6.812   9.459   9.336 -0.0485  0.2123 -0.1313
  100POPC   D2A 1747   6.929   9.823   9.107  0.0140 -0.1169  0.1331
  100POPC   C3A 1748   7.024   9.785   8.724  0.5041 -0.0625  0.1712
  100POPC   C4A 1749   7.216   9.651   8.507  0.2689  0.0671 -0.2247
  100POPC   C1B 1750   7.206   9.340   9.107  0.0776 -0.1548  0.0569
  100POPC   C2B 1751   7.478   9.681   8.982 -0.4887  0.0557  0.3377
  100POPC   C3B 1752   7.314  10.136   8.788 -0.2489  0.0832  0.1762
  100POPC   C4B 1753   7.138  10.285   8.332  0.2017  0.2066 -0.0125
  101POPC   NC3 1754   7.023   7.604   9.852  0.0307  0.3569  0.0703
  101POPC   PO4 1755   6.635   7.315   9.786 -0.1693 -0.3394 -0.3292
  101POPC   GL1 1756   6.334   7.341   9.487  0.0361 -0.2799  0.0066
  101POPC   GL2 1757   6.137   7.087   9.585 -0.1103  0.0962  0.0062
  101POPC   C1A 1758   6.407   7.519   9.080  0.2096 -0.0427 -0.2121
  101POPC   D2A 1759   6.764   7.551   8.806 -0.5603  0.2204  0.0389
  101POPC   C3A 1760   6.707   7.365   8.401 -0.0121 -0.0372  0.1355
  101POPC   C4A 1761   6.410   7.052   8.350 -0.0606 -0.0905  0.1784
  101POPC   C1B 1762   6.218   7.039   9.141  0.0051  0.0416  0.2768
  101POPC   C2B 1763   6.522   7.095   8.798  0.0924  0.1541 -0.1401
  101POPC   C3B 1764   6.936   7.000   8.629 -0.0355  0.2398 -0.0781
  101POPC   C4B 1765   7.348   6.884   8.724  0.2625  0.2989  0.2014
  102POPC   NC3 1766   0.577   0.371   9.274  0.1467 -0.3054  0.1006
  102POPC   PO4 1767   0.918   0.514   9.056 -0.0657  0.4385  0.1667
  102POPC   GL1 1768   0.964   0.769   8.653 -0.1539  0.1616  0.1011
  102POPC   GL2 1769   1.164   0.470   8.541  0.1662 -0.3728  0.2789
  102POPC   C1A 1770   1.167   0.975   8.307  0.2080  0.1979  0.0607
  102POPC   D2A 1771   1.057   1.055   7.937 -0.1528 -0.1769 -0.0312
  102POPC   C3A 1772   1.077   1.020   7.485  0.0363 -0.0441  0.0454
  102POPC   C4A 1773   1.181   0.816   7.231  0.1525  0.1115 -0.1526
  102POPC   C1B 1774   1.454   0.179   8.325 -0.1785  0.1236 -0.1442
  102POPC   C2B 1775   1.644  -0.021   8.059 -0.3194  0.0178 -0.1844
  102POPC   C3B 1776   2.070  -0.260   7.800 -0.2364 -0.3567  0.0617
  102POPC   C4B 1777   2.096  -0.434   7.313  0.0279  0.0235  0.1722
  103POPC   NC3 1778   2.855   1.898   9.043 -0.1649 -0.1489  0.0559
  103POPC   PO4 1779   3.004   2.180   8.745 -0.0104  0.4737  0.0911
  103POPC   GL1 1780   3.360   2.524   8.549 -0.2944 -0.3422 -0.4111
  103POPC   GL2 1781   3.689   2.373   8.434 -0.0309  0.0018 -0.1134
  103POPC   C1A 1782   3.416   2.887   8.187  0.1286 -0.2520  0.2243
  103POPC   D2A 1783   3.688   3.059   7.717  0.3563 -0.0773  0.1334
  103POPC   C3A 1784   3.644   3.507   7.556  0.0628  0.0911  0.1178
  103POPC   C4A 1785   3.746   3.915   7.284  0.1962 -0.1487 -0.2467
  103POPC   C1B 1786   3.651   2.318   8.034 -0.0292  0.0628  0.1850
  103POPC   C2B 1787   3.349   2.474   7.732  0.0370  0.3667  0.3764
  103POPC   C3B 1788   3.131   2.340   7.420  0.0190  0.2432  0.2898
  103POPC   C4B 1789   3.007   2.110   7.045  0.1793 -0.2271 -0.2433
  104POPC   NC3 1790  10.203   8.668   9.473  0.0554  0.1596  0.1807
  104POPC   PO4 1791   9.985   9.050   9.503 -0.0883  0.1801 -0.0909
  104POPC   GL1 1792   9.823   9.060   9.082 -0.0923  0.2794 -0.1746
  104POPC   GL2 1793   9.556   9.236   9.101 -0.1873 -0.0660  0.1216
  104POPC   C1A 1794   9.988   8.855   8.658  0.0299 -0.0080  0.0106
  104POPC   D2A 1795  10.161   9.113   8.381 -0.1512 -0.2311 -0.1380
  104POPC   C3A 1796  10.053   9.030   8.053  0.1639  0.0012  0.2930
  104POPC   C4A 1797  10.306   9.153   7.632 -0.4652  0.4969  0.1760
  104POPC   C1B 1798   9.604   9.158   8.689 -0.0955 -0.0449  0.0095
  104POPC   C2B 1799   9.710   9.369   8.375  0.2911  0.0811  0.0718
  104POPC   C3B 1800   9.779   9.473   8.046 -0.0539  0.0332  0.0219
  104POPC   C4B 1801   9.762   9.210   7.589 -0.0206  0.1954 -0.1494
  105POPC   NC3 1802   9.834   2.004   8.720 -0.0137 -0.0332 -0.1875
  105POPC   PO4 1803   9.639   2.350   8.622 -0.0857  0.2287  0.4854
  105POPC   GL1 1804   9.464   2.211   8.186  0.1273  0.1173  0.0371
  105POPC   GL2 1805   9.327   2.404   7.963 -0.2296  0.0886 -0.1244
  105POPC   C1A 1806   9.614   2.041   7.833 -0.0198 -0.2971  0.1312
  105POPC   D2A 1807   9.469   1.845   7.463  0.2763  0.4344 -0.1479
  105POPC   C3A 1808   9.137   1.556   7.346  0.0616  0.1440  0.1003
  105POPC   C4A 1809   8.747   1.443   7.577  0.1923  0.2559  0.2826
  105POPC   C1B 1810   9.195   2.749   7.698 -0.3659 -0.0512 -0.0130
  105POPC   C2B 1811   9.016   3.211   7.629 -0.2186  0.0916  0.1902
  105POPC   C3B 1812   8.939   3.359   7.103  0.2500  0.1050 -0.1709
  105POPC   C4B 1813   9.022   3.781   6.779  0.2236  0.2103 -0.2888
  106POPC   NC3 1814   2.257   0.714   8.888  0.0428  0.0340 -0.3864
  106POPC   PO4 1815   2.697   0.925   8.791  0.0632  0.1354  0.1786
  106POPC   GL1 1816   2.574   0.878   8.388 -0.0541  0.0661 -0.0273
  106POPC   GL2 1817   2.551   0.571   8.135  0.0602 -0.1755 -0.0386
  106POPC   C1A 1818   2.789   1.059   8.061 -0.1138 -0.1278 -0.0338
  106POPC   D2A 1819   2.581   1.057   7.637 -0.0374 -0.0757 -0.2186
  106POPC   C3A 1820   2.729   1.304   7.300  0.0073  0.2254  0.4648
  106POPC   C4A 1821   2.978   1.667   7.317  0.1818 -0.1336 -0.1830
  106POPC   C1B 1822   2.215   0.751   7.926 -0.0015  0.1929 -0.4527
  106POPC   C2B 1823   2.110   0.882   7.633 -0.0778 -0.0870 -0.3009
  106POPC   C3B 1824   2.061   1.064   7.239 -0.0209  0.0927 -0.1384
  106POPC   C4B 1825   2.015   1.124   6.800 -0.0448  0.1331 -0.1450
  107POPC   NC3 1826   7.514   6.086   9.245  0.1438  0.2424 -0.1120
  107POPC   PO4 1827   7.601   6.499   9.313  0.1146 -0.3335  0.1340
  107POPC   GL1 1828   7.524   6.409   8.848 -0.0113 -0.1832  0.2089
  107POPC   GL2 1829   7.800   6.379   8.679  0.1376  0.2069  0.1703
  107POPC   C1A 1830   7.302   6.445   8.428  0.0308  0.2120 -0.2446
  107POPC   D2A 1831   7.077   6.399   8.025 -0.0448 -0.3045 -0.0790
  107POPC   C3A 1832   6.696   6.417   7.723 -0.4544  0.1124  0.2000
  107POPC   C4A 1833   6.296   6.475   7.572  0.0747  0.1792  0.2827
  107POPC   C1B 1834   7.722   6.771   8.414  0.0574 -0.1081  0.2646
  107POPC   C2B 1835   7.690   6.969   7.947  0.1644  0.2174  0.0460
  107POPC   C3B 1836   7.347   7.114   7.732 -0.0758  0.0752  0.0186
  107POPC   C4B 1837   6.956   6.876   7.647 -0.1538  0.3342 -0.0320
  108POPC   NC3 1838   1.048   3.389   8.537 -0.0307 -0.1924  0.3617
  108POPC   PO4 1839   1.378   3.728   8.435  0.0691 -0.0118  0.1689
  108POPC   GL1 1840   1.152   3.748   8.111  0.1136  0.0998 -0.2413
  108POPC   GL2 1841   0.769   3.770   8.240  0.0168  0.2508  0.0464
  108POPC   C1A 1842   0.956   3.488   7.827  0.1779  0.2028 -0.0311
  108POPC   D2A 1843   0.963   3.482   7.450 -0.1897 -0.1503 -0.0003
  108POPC   C3A 1844   0.548   3.333   7.348  0.3374  0.1825  0.1699
  108POPC   C4A 1845   0.164   3.318   6.946 -0.0740 -0.0450 -0.0724
  108POPC   C1B 1846   0.783   4.025   7.699  0.2151 -0.0971  0.2394
  108POPC   C2B 1847   0.805   4.408   7.378  0.3461 -0.2085 -0.0459
  108POPC   C3B 1848   0.784   4.508   6.897  0.2411  0.0862  0.1490
  108POPC   C4B 1849   0.837   4.847   6.488 -0.1620  0.1810  0.0920
  109POPC   NC3 1850   2.212   5.963   8.769 -0.0776  0.4410  0.1771
  109POPC   PO4 1851   2.648   5.923   8.890 -0.1908  0.3036 -0.1846
  109POPC   GL1 1852   2.609   6.156   8.439  0.3781 -0.3356 -0.1044
  109POPC   GL2 1853   2.821   6.424   8.524 -0.5192  0.4158  0.2344
  109POPC   C1A 1854   2.796   6.146   7.943  0.0079  0.0002  0.0943
  109POPC   D2A 1855   2.745   6.225   7.550  0.0913 -0.3259  0.1658
  109POPC   C3A 1856   2.747   5.976   7.191 -0.1531 -0.0411  0.3043
  109POPC   C4A 1857   3.106   5.707   7.018 -0.0380 -0.2753 -0.1779
  109POPC   C1B 1858   2.993   6.592   8.198  0.0160 -0.0845  0.0155
  109POPC   C2B 1859   3.003   6.622   7.839 -0.2105 -0.0800  0.0316
  109POPC   C3B 1860   3.280   6.546   7.539  0.1605  0.0456 -0.0507
  109POPC   C4B 1861   3.711   6.447   7.489 -0.1189  0.0384  0.0460
  110POPC   NC3 1862   8.192   7.492   9.285 -0.1062 -0.0167 -0.0192
  110POPC   PO4 1863   8.509   7.767   9.152 -0.2040 -0.0490  0.0363
  110POPC   GL1 1864   8.123   7.622   8.829  0.4142 -0.2189 -0.1116
  110POPC   GL2 1865   8.296   7.706   8.655 -0.1012  0.2074  0.2976
  110POPC   C1A 1866   7.776   7.794   8.545  0.0466  0.1415  0.1979
  110POPC   D2A 1867   7.363   7.727   8.429 -0.0932  0.3799  0.0500
  110POPC   C3A 1868   7.047   7.815   8.570  0.1643 -0.0620 -0.0482
  110POPC   C4A 1869   6.776   8.056   8.905 -0.1276  0.0960  0.0919
  110POPC   C1B 1870   8.207   7.311   8.379  0.0625 -0.2494 -0.0464
  110POPC   C2B 1871   8.367   7.031   8.317  0.0738  0.2496  0.0922
  110POPC   C3B 1872   8.131   6.670   8.118 -0.3062 -0.3461  0.0332
  110POPC   C4B 1873   8.162   6.415   7.751  0.3001  0.0272 -0.0721
  111POPC   NC3 1874   3.092   8.563   9.529  0.0874  0.0356 -0.2866
  111POPC   PO4 1875   2.890   8.509   9.241 -0.1630 -0.0955  0.0025
  111POPC   GL1 1876   2.997   8.535   8.817 -0.0984 -0.1864 -0.2826
  111POPC   GL2 1877   2.745   8.335   8.612 -0.0043  0.0648  0.0674
  111POPC   C1A 1878   3.030   8.588   8.344 -0.1700  0.1488  0.0934
  111POPC   D2A 1879   2.963   8.703   7.814 -0.1499 -0.1114  0.2458
  111POPC   C3A 1880   3.230   8.754   7.425  0.2272 -0.3357 -0.3853
  111POPC   C4A 1881   3.493   8.432   7.176 -0.1350  0.1363 -0.1595
  111POPC   C1B 1882   2.645   8.369   8.095 -0.3209  0.2244 -0.0912
  111POPC   C2B 1883   2.440   8.298   7.662  0.3282  0.0011 -0.2925
  111POPC   C3B 1884   2.620   8.178   7.317 -0.1911  0.3750  0.3455
  111POPC   C4B 1885   2.924   7.907   7.119  0.2690 -0.1139  0.0506
  112POPC   NC3 1886   0.013   6.730   8.659 -0.0884  0.1093  0.2561
  112POPC   PO4 1887   0.023   6.252   8.607  0.0310 -0.1947  0.0451
  112POPC   GL1 1888   0.154   6.472   8.293  0.0473  0.0180 -0.2833
  112POPC   GL2 1889   0.404   6.662   8.344 -0.0447  0.0588 -0.2365
  112POPC   C1A 1890   0.239   6.626   7.842  0.0712  0.1061 -0.1148
  112POPC   D2A 1891   0.173   6.728   7.400  0.0667  0.1394  0.0149
  112POPC   C3A 1892  -0.177   6.736   7.118 -0.2410 -0.1010 -0.2002
  112POPC   C4A 1893  -0.232   6.949   6.794  0.0209 -0.2704 -0.0271
  112POPC   C1B 1894   0.721   6.524   8.020 -0.2820 -0.0984 -0.1995
  112POPC   C2B 1895   0.575   6.249   7.747 -0.0877  0.0475 -0.1048
  112POPC   C3B 1896   0.472   6.273   7.258 -0.0391  0.0733  0.1594
  112POPC   C4B 1897   0.690   6.286   6.968  0.3688  0.2595  0.0467
  113POPC   NC3 1898   5.253   4.269   9.241  0.2147  0.0097  0.2668
  113POPC   PO4 1899   5.425   3.973   9.020  0.0386  0.0986  0.1242
  113POPC   GL1 1900   5.333   3.835   8.612  0.2026 -0.0221  0.0072
  113POPC   GL2 1901   5.031   3.799   8.449 -0.0073 -0.0959 -0.1535
  113POPC   C1A 1902   5.528   3.446   8.428  0.1110 -0.1475 -0.4440
  113POPC   D2A 1903   5.583   3.317   8.038  0.0869 -0.0035 -0.0316
  113POPC   C3A 1904   5.542   3.450   7.633  0.1303  0.1875 -0.1225
  113POPC   C4A 1905   5.571   3.716   7.414 -0.1468 -0.2007 -0.1404
  113POPC   C1B 1906   5.133   3.930   8.057 -0.2180 -0.2345 -0.1003
  113POPC   C2B 1907   5.089   3.961   7.608  0.3061  0.3259 -0.2696
  113POPC   C3B 1908   5.156   4.133   7.210 -0.3091 -0.0512 -0.1654
  113POPC   C4B 1909   5.273   4.150   6.794 -0.1856  0.2918  0.2031
  114POPC   NC3 1910   3.693   2.402   8.988  0.0993  0.0600 -0.3406
  114POPC   PO4 1911   3.628   2.845   8.942  0.2794 -0.3474  0.2101
  114POPC   GL1 1912   3.741   3.073   8.545 -0.1238  0.0617 -0.1467
  114POPC   GL2 1913   3.905   2.869   8.367 -0.0832  0.1969 -0.0465
  114POPC   C1A 1914   3.975   3.210   8.092 -0.3659  0.0279  0.0167
  114POPC   D2A 1915   4.335   3.261   7.823 -0.0342  0.2394 -0.2069
  114POPC   C3A 1916   4.371   3.351   7.451  0.0699  0.1427  0.3352
  114POPC   C4A 1917   4.022   3.502   7.207 -0.1027  0.5104  0.1210
  114POPC   C1B 1918   3.977   2.684   7.936 -0.0954 -0.1527  0.0671
  114POPC   C2B 1919   4.190   2.869   7.600 -0.4187 -0.1912  0.0005
  114POPC   C3B 1920   3.933   3.018   7.288  0.3864  0.3631  0.2282
  114POPC   C4B 1921   3.639   3.152   7.045 -0.1628 -0.0753 -0.0948
  115POPC   NC3 1922   9.482   9.709   9.382 -0.0166 -0.2298  0.0706
  115POPC   PO4 1923   9.162   9.824   9.071  0.1651  0.1362 -0.0443
  115POPC   GL1 1924   9.276   9.916   8.693  0.2642 -0.1945 -0.0793
  115POPC   GL2 1925   9.553  10.108   8.697 -0.0315  0.1714  0.2356
  115POPC   C1A 1926   9.315   9.964   8.228 -0.0067  0.0977  0.1338
  115POPC   D2A 1927   9.192  10.337   8.015  0.2577  0.2133  0.0206
  115POPC   C3A 1928   9.538  10.562   7.826 -0.0576  0.1569 -0.0558
  115POPC   C4A 1929   9.662  10.699   7.421 -0.1728  0.1076  0.1902
  115POPC   C1B 1930   9.793  10.149   8.333 -0.1574  0.0905 -0.0316
  115POPC   C2B 1931   9.814  10.065   7.893  0.0909  0.1388  0.0512
  115POPC   C3B 1932   9.453  10.072   7.650 -0.2045  0.1095 -0.0794
  115POPC   C4B 1933   9.102  10.091   7.467  0.1449  0.1051  0.1672
  116POPC   NC3 1934   1.351   2.949   9.323 -0.0284  0.1118  0.1238
  116POPC   PO4 1935   1.399   3.316   8.886  0.0288 -0.1200 -0.0809
  116POPC   GL1 1936   1.416   3.112   8.443  0.0215 -0.3050  0.0473
  116POPC   GL2 1937   1.380   3.293   8.143  0.0063  0.3126  0.0430
  116POPC   C1A 1938   1.279   2.784   8.146 -0.2755 -0.1003  0.0471
  116POPC   D2A 1939   1.356   2.595   7.730  0.1423 -0.1980  0.2139
  116POPC   C3A 1940   1.782   2.703   7.542  0.2276  0.3416 -0.1061
  116POPC   C4A 1941   1.800   2.752   7.182  0.0443  0.0530  0.1098
  116POPC   C1B 1942   1.297   3.146   7.811  0.0452  0.0075  0.2515
  116POPC   C2B 1943   1.371   3.086   7.359  0.2986 -0.1161  0.0382
  116POPC   C3B 1944   1.076   3.250   6.972  0.0475  0.3160 -0.1320
  116POPC   C4B 1945   0.816   3.555   6.942 -0.0037  0.4742  0.0088
  117POPC   NC3 1946   9.347   1.488   8.865 -0.0161  0.3633 -0.2801
  117POPC   PO4 1947   9.381   1.847   8.836  0.0403  0.0902 -0.2287
  117POPC   GL1 1948   9.370   1.694   8.424 -0.2296 -0.0033  0.2486
  117POPC   GL2 1949   9.111   1.757   8.262 -0.0187  0.1716 -0.2161
  117POPC   C1A 1950   9.506   1.466   8.156 -0.1507 -0.1302  0.1590
  117POPC   D2A 1951   9.508   0.954   8.132 -0.0528 -0.0483 -0.0395
  117POPC   C3A 1952   9.487   0.811   7.705 -0.2246  0.0058 -0.0358
  117POPC   C4A 1953   9.416   0.932   7.266  0.1041 -0.0802  0.0498
  117POPC   C1B 1954   9.148   1.487   7.853  0.1002 -0.0140  0.1639
  117POPC   C2B 1955   9.458   1.341   7.649 -0.2920 -0.0606  0.0391
  117POPC   C3B 1956   9.800   1.203   7.426 -0.0075 -0.0478  0.2273
  117POPC   C4B 1957   9.891   1.158   7.011  0.1378 -0.1327  0.0216
  118POPC   NC3 1958   8.066   4.121   8.541  0.0187  0.1170 -0.0206
  118POPC   PO4 1959   8.016   4.435   8.774 -0.1774  0.1571 -0.1421
  118POPC   GL1 1960   7.949   4.678   8.563  0.0456  0.2641 -0.2743
  118POPC   GL2 1961   7.593   4.701   8.683  0.2151  0.0622  0.3855
  118POPC   C1A 1962   8.249   4.801   8.254 -0.0513 -0.3921 -0.0688
  118POPC   D2A 1963   8.283   4.874   7.754 -0.4137  0.2411  0.0602
  118POPC   C3A 1964   8.477   5.239   7.674  0.1387  0.0449  0.4873
  118POPC   C4A 1965   8.466   5.664   7.447  0.2637  0.3220  0.0131
  118POPC   C1B 1966   7.360   4.709   8.351 -0.0064  0.0869  0.2747
  118POPC   C2B 1967   7.360   4.715   7.892 -0.0287  0.3127 -0.2169
  118POPC   C3B 1968   7.597   4.815   7.558 -0.1736 -0.0689 -0.2824
  118POPC   C4B 1969   7.916   4.884   7.302  0.1163  0.0333 -0.1002
  119POPC   NC3 1970   0.315   8.023   9.464 -0.1194  0.2700  0.4153
  119POPC   PO4 1971   0.058   8.273   9.158  0.1463  0.1721  0.2142
  119POPC   GL1 1972  -0.179   8.370   8.632  0.1596 -0.0328  0.0517
  119POPC   GL2 1973  -0.406   8.376   8.545 -0.0734 -0.0912  0.4421
  119POPC   C1A 1974  -0.130   8.558   8.138  0.1925  0.0647  0.2768
  119POPC   D2A 1975   0.115   8.728   7.844  0.3755  0.2008  0.1717
  119POPC   C3A 1976   0.461   8.985   7.936 -0.2790  0.1416 -0.0556
  119POPC   C4A 1977   0.905   9.042   7.912 -0.1311  0.3016  0.3240
  119POPC   C1B 1978  -0.567   8.235   8.250 -0.1812 -0.1486 -0.2280
  119POPC   C2B 1979  -0.575   8.108   7.823 -0.0453 -0.0822 -0.1239
  119POPC   C3B 1980  -0.469   7.821   7.418  0.0325 -0.2167 -0.2290
  119POPC   C4B 1981  -0.375   7.745   6.928  0.1972 -0.4562  0.0640
  120POPC   NC3 1982  10.126   7.731   9.194  0.0167  0.1448 -0.1957
  120POPC   PO4 1983   9.881   7.512   8.952  0.2954  0.1325 -0.0643
  120POPC   GL1 1984   9.765   7.700   8.594 -0.0241 -0.2656 -0.3118
  120POPC   GL2 1985   9.463   7.869   8.503  0.4021 -0.1015 -0.0434
  120POPC   C1A 1986   9.843   7.598   8.188  0.1267  0.0304  0.1274
  120POPC   D2A 1987   9.837   7.452   7.748 -0.1138  0.1503 -0.2655
  120POPC   C3A 1988   9.581   7.134   7.562 -0.0353 -0.1707 -0.0016
  120POPC   C4A 1989   9.366   6.833   7.279 -0.3496  0.2772  0.2645
  120POPC   C1B 1990   9.240   8.014   8.211  0.0189  0.0404 -0.1520
  120POPC   C2B 1991   9.082   8.081   7.864 -0.4692  0.0238  0.5662
  120POPC   C3B 1992   9.217   7.922   7.468  0.0394 -0.1415  0.1884
  120POPC   C4B 1993   9.380   7.776   7.035 -0.3467 -0.0278  0.4361
  121POPC   NC3 1994   7.540   5.274   9.542  0.2329 -0.2571  0.0867
  121POPC   PO4 1995   7.607   5.400   9.123 -0.2242 -0.0582 -0.5018
  121POPC   GL1 1996   7.532   5.605   8.793  0.1474  0.0974  0.3060
  121POPC   GL2 1997   7.491   5.883   8.764  0.2673  0.4188 -0.3685
  121POPC   C1A 1998   7.296   5.544   8.344  0.0353 -0.0601  0.3297
  121POPC   D2A 1999   7.204   5.631   7.940 -0.4538  0.1899  0.3252
  121POPC   C3A 2000   6.900   5.881   7.757  0.2172 -0.2576 -0.2513
  121POPC   C4A 2001   6.624   5.940   7.507 -0.2724 -0.0770 -0.0162
  121POPC   C1B 2002   7.374   5.997   8.268 -0.1214 -0.5080  0.0524
  121POPC   C2B 2003   7.403   6.057   7.888  0.1828  0.0526 -0.1064
  121POPC   C3B 2004   7.169   6.339   7.536 -0.1170  0.0800  0.2566
  121POPC   C4B 2005   7.098   6.087   7.135  0.0602  0.0357 -0.2398
  122POPC   NC3 2006   1.929   2.566   8.927 -0.0482  0.0206 -0.2352
  122POPC   PO4 2007   1.568   2.848   8.870 -0.2008  0.2466  0.3110
  122POPC   GL1 2008   1.716   2.677   8.474 -0.0249  0.3649 -0.0070
  122POPC   GL2 2009   1.955   2.892   8.471 -0.1213 -0.3813 -0.2154
  122POPC   C1A 2010   1.741   2.886   8.053  0.1638 -0.0453 -0.0089
  122POPC   D2A 2011   1.821   3.233   7.696  0.0606  0.2167  0.2345
  122POPC   C3A 2012   1.872   3.208   7.278 -0.2050  0.2146 -0.0600
  122POPC   C4A 2013   1.563   3.222   6.928 -0.0637  0.1952 -0.0064
  122POPC   C1B 2014   2.165   2.551   8.277 -0.2136  0.0477  0.0856
  122POPC   C2B 2015   2.600   2.313   8.127 -0.1141  0.1466 -0.1969
  122POPC   C3B 2016   2.974   2.234   7.967 -0.0499  0.1131 -0.0171
  122POPC   C4B 2017   3.168   1.805   7.804 -0.1488 -0.0292 -0.0280
  123POPC   NC3 2018   2.755   5.366   9.078  0.2505  0.0141  0.1873
  123POPC   PO4 2019   2.746   5.034   8.646 -0.0437 -0.0856  0.0007
  123POPC   GL1 2020   2.630   5.204   8.260 -0.1217 -0.0233 -0.1663
  123POPC   GL2 2021   2.480   4.984   8.079  0.0386  0.2226  0.0246
  123POPC   C1A 2022   2.889   5.307   7.882 -0.1774 -0.1939  0.0855
  123POPC   D2A 2023   3.163   5.593   7.638  0.1135  0.1353  0.2791
  123POPC   C3A 2024   3.592   5.683   7.287  0.4559 -0.4272 -0.2380
  123POPC   C4A 2025   3.627   5.507   6.860 -0.3019 -0.0092 -0.3054
  123POPC   C1B 2026   2.304   5.335   7.810 -0.1086 -0.0175 -0.4498
  123POPC   C2B 2027   2.031   5.726   7.731 -0.2635 -0.1991  0.2993
  123POPC   C3B 2028   1.705   5.914   7.549 -0.1505 -0.2248 -0.2409
  123POPC   C4B 2029   1.454   6.004   7.150 -0.0861 -0.1612 -0.1735
  124POPC   NC3 2030   5.752   3.270   9.266  0.3386 -0.0159 -0.0772
  124POPC   PO4 2031   6.084   3.026   9.066 -0.1152 -0.1649  0.3295
  124POPC   GL1 2032   6.096   3.326   8.804 -0.0067 -0.4907  0.0554
  124POPC   GL2 2033   5.848   3.643   8.794 -0.0751 -0.1292  0.3139
  124POPC   C1A 2034   6.129   3.455   8.216  0.0162 -0.2871  0.1202
  124POPC   D2A 2035   6.446   3.568   7.942 -0.0715  0.0152 -0.1287
  124POPC   C3A 2036   6.504   3.874   7.709 -0.0036 -0.3869 -0.1223
  124POPC   C4A 2037   6.667   4.220   7.552 -0.0206 -0.0510  0.1016
  124POPC   C1B 2038   5.779   4.018   8.530 -0.0021 -0.2166  0.0750
  124POPC   C2B 2039   5.613   3.847   8.203  0.2240 -0.1067  0.0670
  124POPC   C3B 2040   5.763   4.079   7.831  0.0764  0.1884  0.2168
  124POPC   C4B 2041   6.004   4.075   7.408 -0.0101  0.0332 -0.0930
  125POPC   NC3 2042   2.824   4.104   9.167  0.1208  0.2065 -0.1501
  125POPC   PO4 2043   3.034   4.053   8.867 -0.0468 -0.2532 -0.0426
  125POPC   GL1 2044   3.156   4.128   8.503  0.2984 -0.0596 -0.1833
  125POPC   GL2 2045   3.420   3.939   8.401  0.1315 -0.0024 -0.0158
  125POPC   C1A 2046   3.009   4.360   8.100  0.1077  0.0060 -0.3195
  125POPC   D2A 2047   2.697   4.578   7.905  0.1433 -0.1014  0.0068
  125POPC   C3A 2048   2.726   4.911   7.605 -0.0515  0.0076  0.0688
  125POPC   C4A 2049   2.860   4.877   7.249  0.0721  0.2036  0.2447
  125POPC   C1B 2050   3.481   4.016   8.035  0.0448  0.1905  0.3018
  125POPC   C2B 2051   3.693   4.044   7.763  0.1620 -0.0502  0.0343
  125POPC   C3B 2052   4.118   4.090   7.654 -0.0497 -0.1611  0.0917
  125POPC   C4B 2053   4.257   3.955   7.289 -0.1161 -0.0408  0.2496
  126POPC   NC3 2054  10.083  10.030   9.297  0.1494  0.1496  0.0863
  126POPC   PO4 2055  10.393  10.275   9.374 -0.0353  0.1018 -0.2163
  126POPC   GL1 2056  10.367  10.074   8.900  0.3396  0.1685  0.1852
  126POPC   GL2 2057  10.026   9.958   8.750 -0.2477  0.1720 -0.0698
  126POPC   C1A 2058  10.280  10.305   8.443  0.0673  0.3958  0.3169
  126POPC   D2A 2059  10.277  10.005   8.095  0.2864 -0.4151 -0.1981
  126POPC   C3A 2060  10.379  10.098   7.601  0.0451  0.0041 -0.1106
  126POPC   C4A 2061  10.349   9.938   7.202 -0.1027 -0.0634  0.5756
  126POPC   C1B 2062  10.115   9.654   8.419  0.2619 -0.0036  0.0500
  126POPC   C2B 2063  10.259   9.517   8.034 -0.2597 -0.3124 -0.0710
  126POPC   C3B 2064  10.323   9.630   7.615  0.1753  0.1228  0.2097
  126POPC   C4B 2065  10.023   9.448   7.252  0.1950  0.2341  0.0068
  127POPC   NC3 2066   3.739   8.189   9.389 -0.0062  0.0600  0.3244
  127POPC   PO4 2067   4.199   8.150   9.473  0.0794 -0.1609 -0.1979
  127POPC   GL1 2068   4.248   8.037   8.999 -0.0750  0.0752  0.2361
  127POPC   GL2 2069   4.118   7.699   9.168 -0.2116  0.0235  0.2621
  127POPC   C1A 2070   4.412   7.880   8.696  0.0917 -0.0509  0.3696
  127POPC   D2A 2071   4.570   7.821   8.298  0.2382 -0.1542  0.0256
  127POPC   C3A 2072   4.397   7.485   8.112  0.0826  0.2878  0.2739
  127POPC   C4A 2073   4.005   7.326   7.986 -0.3354 -0.3037  0.1569
  127POPC   C1B 2074   3.955   7.681   8.768 -0.2402 -0.0435  0.3443
  127POPC   C2B 2075   3.990   7.798   8.339 -0.0760  0.0210  0.3327
  127POPC   C3B 2076   4.002   7.942   7.850 -0.0062  0.0364  0.0721
  127POPC   C4B 2077   4.198   8.096   7.515  0.0722 -0.2958 -0.3106
  128POPC   NC3 2078   1.764   3.383   8.554  0.3324 -0.1056  0.0020
  128POPC   PO4 2079   1.844   3.792   8.570 -0.1182  0.3527 -0.1707
  128POPC   GL1 2080   1.790   3.662   8.120 -0.0910 -0.1970  0.0179
  128POPC   GL2 2081   1.561   3.691   7.819 -0.0401 -0.2333 -0.0485
  128POPC   C1A 2082   2.135   3.929   7.773 -0.2461  0.3661 -0.1628
  128POPC   D2A 2083   2.140   4.102   7.391 -0.3884 -0.2844  0.1099
  128POPC   C3A 2084   2.513   4.385   7.295 -0.2183 -0.1952 -0.2501
  128POPC   C4A 2085   2.885   4.256   7.221 -0.2766  0.0806  0.0455
  128POPC   C1B 2086   1.480   3.540   7.533  0.3375 -0.1763 -0.0598
  128POPC   C2B 2087   1.352   3.651   7.171  0.1440 -0.1061  0.3014
  128POPC   C3B 2088   1.528   3.567   6.618 -0.2941 -0.2498 -0.4110
  128POPC   C4B 2089   1.812   3.228   6.379  0.1138 -0.1178 -0.1035
  129POPC   NC3 2090   9.784   2.887   9.198 -0.0549  0.0689 -0.2453
  129POPC   PO4 2091   9.849   2.832   8.748  0.1046  0.0462 -0.1078
  129POPC   GL1 2092  10.005   2.771   8.324 -0.4848 -0.2150 -0.0739
  129POPC   GL2 2093  10.097   2.451   8.230 -0.1335  0.1003  0.2957
  129POPC   C1A 2094   9.814   2.661   7.878 -0.0706  0.0379  0.3023
  129POPC   D2A 2095   9.677   2.857   7.550 -0.0870 -0.6090  0.0978
  129POPC   C3A 2096   9.646   2.858   7.054 -0.2669 -0.2716  0.2377
  129POPC   C4A 2097   9.436   2.729   6.595  0.2009  0.2909 -0.1050
  129POPC   C1B 2098  10.393   2.654   7.962 -0.0928 -0.0510  0.2173
  129POPC   C2B 2099  10.661   2.837   7.680 -0.0488 -0.1045  0.0499
  129POPC   C3B 2100  11.034   2.886   7.328 -0.0341 -0.0237  0.1055
  129POPC   C4B 2101  11.365   2.573   7.214  0.1318 -0.0098  0.2915
  130POPC   NC3 2102   2.372   6.815   8.994 -0.2950  0.1203 -0.1982
  130POPC   PO4 2103   2.794   6.738   8.865  0.0847 -0.2018 -0.1101
  130POPC   GL1 2104   2.677   7.003   8.543 -0.0764 -0.0063  0.0028
  130POPC   GL2 2105   2.814   7.235   8.639  0.0909  0.1120  0.2281
  130POPC   C1A 2106   2.688   6.996   8.129  0.0319 -0.2005  0.0895
  130POPC   D2A 2107   2.780   7.204   7.688  0.1439  0.1610 -0.1503
  130POPC   C3A 2108   2.824   6.817   7.448 -0.0418  0.3047  0.1445
  130POPC   C4A 2109   2.978   6.696   7.009  0.0318  0.1176  0.4091
  130POPC   C1B 2110   3.082   7.421   8.363 -0.0371  0.0456 -0.0031
  130POPC   C2B 2111   3.118   7.670   7.953 -0.0893  0.1021 -0.0143
  130POPC   C3B 2112   3.182   7.714   7.469 -0.2223 -0.0503  0.0136
  130POPC   C4B 2113   3.416   7.912   7.051 -0.2992 -0.0122  0.2975
  131POPC   NC3 2114   1.983   1.518   9.030  0.1540 -0.2354 -0.1090
  131POPC   PO4 2115   2.328   1.850   9.131 -0.0373  0.0606 -0.0043
  131POPC   GL1 2116   2.291   1.799   8.672  0.3413  0.4818  0.0705
  131POPC   GL2 2117   2.615   1.919   8.503  0.3327 -0.3772 -0.3826
  131POPC   C1A 2118   2.399   1.501   8.334  0.0975  0.0617  0.0005
  131POPC   D2A 2119   2.248   1.327   7.846  0.2022  0.1082  0.0580
  131POPC   C3A 2120   1.843   1.337   7.656  0.3473  0.2727  0.5955
  131POPC   C4A 2121   1.461   1.590   7.746  0.1939  0.0515 -0.1594
  131POPC   C1B 2122   2.838   1.715   8.128 -0.1072 -0.2559 -0.3078
  131POPC   C2B 2123   2.697   1.542   7.787  0.1285 -0.0078  0.1846
  131POPC   C3B 2124   2.449   1.680   7.455  0.1738 -0.0685 -0.0902
  131POPC   C4B 2125   2.550   1.864   7.080 -0.0451  0.1204  0.1638
  132POPC   NC3 2126   0.746   8.406   8.598 -0.3240  0.0137  0.2567
  132POPC   PO4 2127   0.591   7.955   8.552  0.0709 -0.1070  0.0415
  132POPC   GL1 2128   0.238   8.142   8.243  0.2290  0.1936 -0.1787
  132POPC   GL2 2129  -0.093   8.017   8.265 -0.0299  0.1001  0.2092
  132POPC   C1A 2130   0.248   8.267   7.860  0.2065  0.0918 -0.0095
  132POPC   D2A 2131   0.256   8.226   7.373  0.1876 -0.0714 -0.0132
  132POPC   C3A 2132   0.012   8.630   7.132 -0.0662  0.1095 -0.0874
  132POPC   C4A 2133   0.080   9.038   7.063  0.1962  0.2711  0.1136
  132POPC   C1B 2134  -0.073   7.828   7.776 -0.0696  0.0866  0.0020
  132POPC   C2B 2135  -0.007   7.615   7.337  0.1281 -0.0847 -0.2746
  132POPC   C3B 2136  -0.327   7.332   7.165  0.1453 -0.0168 -0.3366
  132POPC   C4B 2137  -0.655   7.323   6.815  0.1134 -0.2814  0.0399
  133POPC   NC3 2138   1.272   1.014   9.004  0.0551 -0.0523  0.2211
  133POPC   PO4 2139   1.745   1.088   8.935 -0.1272  0.2262 -0.0710
  133POPC   GL1 2140   1.498   1.277   8.660 -0.1896  0.2798 -0.0242
  133POPC   GL2 2141   1.800   1.469   8.543  0.2239 -0.3383  0.3638
  133POPC   C1A 2142   1.318   1.396   8.180  0.1066  0.0379  0.1561
  133POPC   D2A 2143   0.938   1.526   7.893  0.0944  0.0235 -0.0019
  133POPC   C3A 2144   0.971   1.729   7.551  0.0227  0.1535 -0.0717
  133POPC   C4A 2145   1.125   2.117   7.400 -0.0691  0.2089 -0.0966
  133POPC   C1B 2146   1.850   1.136   8.189 -0.1878  0.0097 -0.0586
  133POPC   C2B 2147   1.564   0.976   7.915 -0.1904  0.0987  0.3021
  133POPC   C3B 2148   1.622   0.832   7.448  0.2774  0.3554 -0.2996
  133POPC   C4B 2149   1.567   0.455   7.179  0.1237  0.0119  0.1268
  134POPC   NC3 2150   3.599   5.545   9.316 -0.1869  0.0665  0.0825
  134POPC   PO4 2151   4.017   5.347   9.232  0.1109 -0.0799 -0.0247
  134POPC   GL1 2152   4.296   5.415   8.802 -0.0160  0.3319  0.1174
  134POPC   GL2 2153   4.384   5.139   8.836 -0.2397  0.4854 -0.1103
  134POPC   C1A 2154   4.517   5.474   8.364  0.1313 -0.1930 -0.0657
  134POPC   D2A 2155   4.616   5.793   8.009 -0.0805 -0.0771  0.0738
  134POPC   C3A 2156   4.225   6.000   7.868 -0.0393 -0.0396 -0.0674
  134POPC   C4A 2157   3.956   6.003   7.528  0.0227 -0.2069  0.1997
  134POPC   C1B 2158   4.504   4.982   8.428 -0.5252  0.0614  0.3846
  134POPC   C2B 2159   4.767   4.755   8.150  0.3005 -0.0098  0.5176
  134POPC   C3B 2160   4.932   4.886   7.796  0.0136  0.0287  0.2063
  134POPC   C4B 2161   4.947   5.052   7.364 -0.1173  0.1246  0.2467
  135POPC   NC3 2162   4.369   9.048   9.867  0.0003 -0.1072 -0.0811
  135POPC   PO4 2163   4.384   9.380   9.618  0.2254  0.1922 -0.1997
  135POPC   GL1 2164   4.603   9.503   9.226 -0.2657  0.3410 -0.1333
  135POPC   GL2 2165   4.819   9.785   9.125 -0.1092  0.1398  0.2279
  135POPC   C1A 2166   4.684   9.415   8.795  0.0956  0.4625 -0.1401
  135POPC   D2A 2167   4.621   9.401   8.434  0.2318 -0.2262  0.2092
  135POPC   C3A 2168   4.926   9.063   8.294  0.1089  0.1556  0.1112
  135POPC   C4A 2169   5.270   8.957   8.304  0.0810 -0.0596  0.0549
  135POPC   C1B 2170   4.965   9.975   8.848 -0.1280 -0.0489 -0.1497
  135POPC   C2B 2171   5.168  10.117   8.499  0.2311 -0.1747  0.1265
  135POPC   C3B 2172   5.256  10.514   8.164 -0.2652 -0.1204  0.1110
  135POPC   C4B 2173   5.091  10.835   7.852 -0.1646 -0.2586 -0.1018
  136POPC   NC3 2174   3.838   1.378   9.333  0.1349  0.0828 -0.0152
  136POPC   PO4 2175   3.835   1.441   8.860  0.2722  0.1577  0.1566
  136POPC   GL1 2176   3.685   1.380   8.309 -0.0723 -0.0500 -0.2076
  136POPC   GL2 2177   3.627   1.002   8.241  0.0061 -0.1455  0.1332
  136POPC   C1A 2178   3.564   1.359   7.848 -0.0574 -0.0331  0.1564
  136POPC   D2A 2179   3.522   1.320   7.417  0.0345  0.2675 -0.1831
  136POPC   C3A 2180   3.604   1.273   7.023  0.0875  0.2945 -0.0883
  136POPC   C4A 2181   3.506   1.414   6.674  0.0097  0.0897 -0.1562
  136POPC   C1B 2182   3.404   0.804   7.876 -0.1013  0.0478  0.1196
  136POPC   C2B 2183   3.644   0.386   7.753 -0.2230  0.1633 -0.0382
  136POPC   C3B 2184   4.036   0.124   7.739 -0.1263 -0.3836 -0.4210
  136POPC   C4B 2185   4.142  -0.225   7.642 -0.1876 -0.4559  0.2730
  137POPC   NC3 2186   3.678   9.507   9.578  0.3067  0.1473 -0.2508
  137POPC   PO4 2187   3.664   9.762   9.242 -0.2095  0.0525 -0.2162
  137POPC   GL1 2188   3.892   9.828   8.915 -0.1648 -0.2978  0.1024
  137POPC   GL2 2189   3.743   9.852   8.568  0.0595 -0.2583  0.1855
  137POPC   C1A 2190   4.367   9.839   8.718 -0.2539  0.1348 -0.1734
  137POPC   D2A 2191   4.667   9.906   8.482  0.4008  0.0631  0.1659
  137POPC   C3A 2192   4.755  10.352   8.223 -0.1787  0.0086  0.0125
  137POPC   C4A 2193   4.395  10.483   8.052 -0.1842 -0.2502  0.0923
  137POPC   C1B 2194   3.795   9.764   8.135  0.1192 -0.0535  0.3957
  137POPC   C2B 2195   4.011   9.531   7.725 -0.1634  0.2818  0.1463
  137POPC   C3B 2196   3.938   9.230   7.346 -0.2238  0.1186 -0.1422
  137POPC   C4B 2197   3.830   9.302   6.959 -0.1312 -0.0553  0.2003
  138POPC   NC3 2198   7.263   4.738   9.106 -0.1246  0.0009  0.1232
  138POPC   PO4 2199   7.106   5.029   9.320 -0.2802 -0.2552 -0.2442
  138POPC   GL1 2200   7.153   5.230   8.973  0.0209  0.0079 -0.0741
  138POPC   GL2 2201   7.379   5.139   8.691  0.0269 -0.0688  0.2207
  138POPC   C1A 2202   6.913   4.947   8.642  0.3840  0.0351 -0.0878
  138POPC   D2A 2203   6.772   4.573   8.447  0.0806 -0.0215  0.1116
  138POPC   C3A 2204   7.001   4.448   8.076 -0.0620 -0.0243  0.4898
  138POPC   C4A 2205   7.014   4.171   7.854  0.2400 -0.3062  0.3641
  138POPC   C1B 2206   7.031   5.045   8.201  0.3020  0.1856  0.1451
  138POPC   C2B 2207   6.773   4.790   7.830  0.2227  0.1439  0.0470
  138POPC   C3B 2208   6.579   4.702   7.403  0.1381 -0.0222  0.0728
  138POPC   C4B 2209   6.451   4.411   7.116  0.1492 -0.0412 -0.1562
  139POPC   NC3 2210   3.660   7.290   9.747 -0.1448  0.1395  0.0636
  139POPC   PO4 2211   3.675   7.713   9.581 -0.2799 -0.1724  0.1480
  139POPC   GL1 2212   3.687   7.482   9.191  0.0653  0.0058  0.3463
  139POPC   GL2 2213   3.519   7.814   9.093  0.2412 -0.1242  0.2693
  139POPC   C1A 2214   3.851   7.195   8.913  0.2496 -0.4457  0.1756
  139POPC   D2A 2215   4.165   7.273   8.533  0.0359 -0.0672 -0.1654
  139POPC   C3A 2216   4.158   6.895   8.263  0.0163 -0.3771  0.1703
  139POPC   C4A 2217   4.085   6.798   7.902  0.0446  0.0694 -0.1514
  139POPC   C1B 2218   3.658   8.091   8.741  0.1651 -0.0393 -0.0117
  139POPC   C2B 2219   4.060   8.303   8.499 -0.0837  0.0579  0.2800
  139POPC   C3B 2220   4.135   8.662   8.149 -0.2753 -0.0621 -0.2254
  139POPC   C4B 2221   4.102   8.902   7.772  0.0121 -0.3806  0.0089
  140POPC   NC3 2222   1.581   6.754   8.944  0.5083 -0.0585  0.0247
  140POPC   PO4 2223   1.574   6.314   9.181  0.0039  0.3803  0.1155
  140POPC   GL1 2224   1.836   6.322   8.750 -0.0657  0.2390 -0.1681
  140POPC   GL2 2225   2.199   6.440   8.710 -0.1621  0.2602  0.1606
  140POPC   C1A 2226   1.851   6.426   8.338 -0.2391 -0.1435 -0.0082
  140POPC   D2A 2227   2.023   6.760   8.023  0.0242 -0.0463  0.2128
  140POPC   C3A 2228   1.831   6.852   7.604 -0.0462 -0.2501 -0.0835
  140POPC   C4A 2229   1.943   6.932   7.223 -0.1240 -0.0432 -0.2379
  140POPC   C1B 2230   2.397   6.632   8.367 -0.0625  0.0303 -0.0240
  140POPC   C2B 2231   2.537   6.621   7.896 -0.2330  0.0007  0.0305
  140POPC   C3B 2232   2.354   6.617   7.456 -0.2493  0.0813 -0.1762
  140POPC   C4B 2233   2.514   6.858   7.070 -0.1082 -0.1269 -0.0552
  141POPC   NC3 2234   1.791  10.209   9.157 -0.1681 -0.4609 -0.0476
  141POPC   PO4 2235   2.002  10.492   8.930 -0.0680 -0.3316  0.2028
  141POPC   GL1 2236   1.940  10.628   8.526  0.0430  0.2190 -0.0190
  141POPC   GL2 2237   2.079  10.890   8.451 -0.0316  0.0587 -0.1979
  141POPC   C1A 2238   2.158  10.482   8.138  0.1332  0.0814  0.2289
  141POPC   D2A 2239   2.239  10.496   7.821 -0.0898  0.0114  0.0222
  141POPC   C3A 2240   2.651  10.394   7.699 -0.3127 -0.0238  0.2303
  141POPC   C4A 2241   2.862  10.350   7.279  0.1879  0.3513 -0.2323
  141POPC   C1B 2242   1.760  10.783   8.132 -0.1530 -0.0182 -0.0658
  141POPC   C2B 2243   1.663  10.627   7.689  0.0746  0.1377  0.0497
  141POPC   C3B 2244   1.734  10.332   7.529  0.1627 -0.1802 -0.1879
  141POPC   C4B 2245   2.077  10.302   7.402  0.0642 -0.2076 -0.2696
  142POPC   NC3 2246   0.820   3.906   8.748  0.0823 -0.1580 -0.2589
  142POPC   PO4 2247   0.625   3.406   8.863 -0.0319 -0.1629  0.2032
  142POPC   GL1 2248   0.407   3.378   8.532  0.1408 -0.0827  0.2162
  142POPC   GL2 2249   0.658   3.283   8.271  0.2062  0.0479  0.2599
  142POPC   C1A 2250   0.187   3.152   8.146  0.3341  0.1691 -0.3066
  142POPC   D2A 2251  -0.114   3.044   7.814  0.0730 -0.2742  0.0255
  142POPC   C3A 2252  -0.079   2.992   7.415  0.0024 -0.1544 -0.4546
  142POPC   C4A 2253   0.336   2.861   7.147  0.0681 -0.2758 -0.1098
  142POPC   C1B 2254   0.439   3.429   7.906  0.5662  0.2738  0.0811
  142POPC   C2B 2255   0.113   3.475   7.490  0.2853 -0.0393 -0.2559
  142POPC   C3B 2256  -0.167   3.771   7.213 -0.2611 -0.1346 -0.0470
  142POPC   C4B 2257  -0.557   3.887   7.164 -0.0405  0.1879  0.1653
  143POPC   NC3 2258   5.936   0.653   8.985 -0.0190  0.5041 -0.2966
  143POPC   PO4 2259   6.313   0.840   8.910  0.0192 -0.0358 -0.1544
  143POPC   GL1 2260   6.249   0.793   8.542  0.2752 -0.1493 -0.0632
  143POPC   GL2 2261   6.003   1.113   8.496 -0.3249 -0.1832 -0.1091
  143POPC   C1A 2262   6.538   0.568   8.214  0.2461 -0.0038  0.3755
  143POPC   D2A 2263   6.736   0.421   7.919 -0.1682 -0.2240  0.2391
  143POPC   C3A 2264   7.087   0.648   7.686 -0.1515 -0.1661 -0.0321
  143POPC   C4A 2265   7.478   0.454   7.549  0.0423 -0.1779 -0.0595
  143POPC   C1B 2266   5.969   1.064   8.114 -0.0723  0.0225 -0.1534
  143POPC   C2B 2267   5.988   0.878   7.692 -0.2723  0.1593  0.1947
  143POPC   C3B 2268   5.729   0.566   7.408 -0.2745  0.0551  0.2186
  143POPC   C4B 2269   5.816   0.125   7.295  0.0766  0.0351  0.1825
  144POPC   NC3 2270   7.146   2.411   9.116 -0.1233 -0.2845 -0.0089
  144POPC   PO4 2271   7.467   2.790   9.228  0.0807 -0.3758 -0.1502
  144POPC   GL1 2272   7.317   2.816   8.858 -0.1394  0.0095  0.3449
  144POPC   GL2 2273   7.198   3.077   8.743 -0.0249 -0.0654 -0.1533
  144POPC   C1A 2274   7.421   2.729   8.443 -0.1561  0.2863  0.0082
  144POPC   D2A 2275   7.562   2.932   8.091  0.0841  0.0299 -0.1593
  144POPC   C3A 2276   7.554   3.447   8.032  0.0641  0.0324  0.0103
  144POPC   C4A 2277   7.449   3.818   7.820  0.2022  0.0196  0.2355
  144POPC   C1B 2278   7.235   3.225   8.368  0.0755  0.0956  0.3639
  144POPC   C2B 2279   7.031   3.206   7.995  0.2556  0.1168  0.0192
  144POPC   C3B 2280   7.102   3.086   7.641 -0.3282  0.1844  0.2291
  144POPC   C4B 2281   7.503   3.045   7.408  0.0116 -0.0532 -0.1462
  145POPC   NC3 2282   1.991   4.678   8.689 -0.1518  0.1981 -0.3736
  145POPC   PO4 2283   1.782   4.890   8.364  0.0506  0.2109  0.1187
  145POPC   GL1 2284   1.934   4.546   8.064  0.0264  0.0383  0.2093
  145POPC   GL2 2285   2.236   4.492   7.998  0.0028 -0.2930  0.1074
  145POPC   C1A 2286   1.783   4.451   7.598 -0.1712  0.0686 -0.4613
  145POPC   D2A 2287   1.828   4.439   7.160 -0.1144  0.1417  0.1753
  145POPC   C3A 2288   1.661   4.657   6.810 -0.3548  0.2364 -0.0338
  145POPC   C4A 2289   1.517   4.904   6.435  0.0963 -0.0481 -0.3619
  145POPC   C1B 2290   2.225   4.658   7.573 -0.0761 -0.0589  0.1204
  145POPC   C2B 2291   1.917   4.901   7.306  0.4985 -0.0207  0.2173
  145POPC   C3B 2292   2.065   4.922   6.859  0.0611  0.0717 -0.0765
  145POPC   C4B 2293   2.134   5.300   6.802  0.1972  0.3468  0.2147
  146POPC   NC3 2294   0.975   7.578   9.121 -0.2958  0.2013  0.2659
  146POPC   PO4 2295   1.039   7.919   8.836 -0.1561 -0.0276 -0.0307
  146POPC   GL1 2296   1.014   7.772   8.434 -0.6396  0.0901 -0.2651
  146POPC   GL2 2297   0.982   8.046   8.272 -0.2856  0.0496  0.2225
  146POPC   C1A 2298   0.887   7.500   8.080 -0.1967 -0.0832 -0.2262
  146POPC   D2A 2299   0.722   7.459   7.723 -0.1142 -0.3449  0.2096
  146POPC   C3A 2300   0.280   7.360   7.673  0.1343  0.2283  0.4099
  146POPC   C4A 2301  -0.067   7.094   7.565 -0.1286  0.0527 -0.0357
  146POPC   C1B 2302   0.760   8.028   7.867  0.0739  0.0686 -0.0102
  146POPC   C2B 2303   0.779   8.182   7.448  0.0517  0.0614  0.4135
  146POPC   C3B 2304   0.559   8.246   7.025  0.3414 -0.1114  0.3374
  146POPC   C4B 2305   0.335   8.178   6.704 -0.0945 -0.1959  0.2912
  147POPC   NC3 2306   8.148  10.101   9.573  0.0296  0.0963 -0.0041
  147POPC   PO4 2307   7.850  10.512   9.480 -0.3747 -0.1325 -0.1440
  147POPC   GL1 2308   7.802  10.329   8.978  0.1203 -0.1961 -0.0184
  147POPC   GL2 2309   8.005  10.054   8.994  0.3775 -0.1959  0.1427
  147POPC   C1A 2310   7.806  10.194   8.502 -0.0626  0.0230  0.1044
  147POPC   D2A 2311   7.972  10.147   8.032 -0.0068  0.2178  0.0531
  147POPC   C3A 2312   7.566  10.261   7.810  0.0477  0.0315  0.1573
  147POPC   C4A 2313   7.090  10.343   7.781  0.1158  0.0757  0.0009
  147POPC   C1B 2314   7.845   9.740   8.593  0.0924  0.1697  0.2270
  147POPC   C2B 2315   7.528   9.911   8.208  0.3050 -0.1279 -0.0405
  147POPC   C3B 2316   7.195   9.901   7.980 -0.0392  0.2866 -0.0450
  147POPC   C4B 2317   6.820   9.680   7.718 -0.3165 -0.0659  0.0289
  148POPC   NC3 2318   4.054   1.047   8.597 -0.2128 -0.3731 -0.0742
  148POPC   PO4 2319   4.449   0.835   8.525 -0.5551 -0.1149 -0.1605
  148POPC   GL1 2320   4.426   1.076   8.144 -0.2143 -0.0197  0.0445
  148POPC   GL2 2321   4.604   1.362   8.233  0.1196  0.0068 -0.1635
  148POPC   C1A 2322   4.080   1.179   7.843  0.1018  0.0576  0.1816
  148POPC   D2A 2323   3.823   0.871   7.509  0.0988 -0.0806 -0.1521
  148POPC   C3A 2324   3.496   0.692   7.259  0.1248 -0.3362  0.5745
  148POPC   C4A 2325   3.066   0.520   7.093 -0.0782 -0.0951 -0.0684
  148POPC   C1B 2326   4.687   1.414   7.832  0.0536  0.0237 -0.1670
  148POPC   C2B 2327   4.497   1.393   7.573  0.1576 -0.0954  0.2858
  148POPC   C3B 2328   4.542   1.575   7.110  0.0424  0.1486  0.0857
  148POPC   C4B 2329   4.424   1.704   6.681 -0.0065  0.0109 -0.3595
  149POPC   NC3 2330   8.538   3.464   8.416 -0.1037 -0.2957  0.0103
  149POPC   PO4 2331   8.445   3.941   8.312  0.1266  0.2599  0.0763
  149POPC   GL1 2332   8.265   4.130   8.026 -0.0091 -0.0558 -0.2740
  149POPC   GL2 2333   8.027   4.446   8.042 -0.1296  0.1696  0.0236
  149POPC   C1A 2334   8.253   4.350   7.579  0.2871 -0.0297  0.1556
  149POPC   D2A 2335   8.244   4.537   7.283 -0.2252 -0.2631  0.0925
  149POPC   C3A 2336   7.953   4.497   6.937  0.0119 -0.1191  0.1495
  149POPC   C4A 2337   7.680   4.684   6.572 -0.1048  0.0243 -0.0228
  149POPC   C1B 2338   7.839   4.816   7.998  0.2632  0.0063 -0.0237
  149POPC   C2B 2339   7.923   5.164   7.870  0.1167 -0.1645  0.0365
  149POPC   C3B 2340   8.042   5.374   7.531  0.1847  0.1180 -0.0336
  149POPC   C4B 2341   8.005   5.603   7.192 -0.1625  0.0272  0.0384
  150POPC   NC3 2342   4.718   3.317   9.034 -0.0550 -0.3172  0.0781
  150POPC   PO4 2343   4.969   3.822   9.027 -0.0372  0.0082  0.1265
  150POPC   GL1 2344   4.970   4.187   8.804 -0.1650  0.0349 -0.1664
  150POPC   GL2 2345   4.653   4.195   8.775  0.0655  0.3342  0.1746
  150POPC   C1A 2346   4.940   4.303   8.417  0.1604  0.2284  0.0025
  150POPC   D2A 2347   4.900   4.350   7.914 -0.1827 -0.1435 -0.2822
  150POPC   C3A 2348   4.616   4.156   7.609 -0.1850  0.1486 -0.4984
  150POPC   C4A 2349   4.656   4.208   7.166 -0.1226  0.0885 -0.0469
  150POPC   C1B 2350   4.477   4.477   8.484 -0.0362 -0.1088 -0.3782
  150POPC   C2B 2351   4.363   4.418   8.014  0.0937 -0.2369 -0.2048
  150POPC   C3B 2352   4.452   4.610   7.703  0.1323  0.1347  0.0029
  150POPC   C4B 2353   4.426   5.016   7.479  0.1852  0.1312 -0.0890
  151POPC   NC3 2354   5.406   5.116   9.664 -0.1431 -0.2719  0.0860
  151POPC   PO4 2355   5.184   4.777   9.419  0.0825  0.0824 -0.2356
  151POPC   GL1 2356   5.335   4.834   9.057  0.1370  0.0661 -0.0320
  151POPC   GL2 2357   5.333   4.586   8.832  0.1647 -0.1121  0.0795
  151POPC   C1A 2358   5.364   5.149   8.736  0.1156 -0.0406 -0.3483
  151POPC   D2A 2359   5.517   5.194   8.361  0.2343  0.0430  0.4293
  151POPC   C3A 2360   5.384   5.133   8.001  0.0061  0.0161  0.1190
  151POPC   C4A 2361   5.331   5.336   7.700  0.1355  0.2348  0.2533
  151POPC   C1B 2362   5.444   4.377   8.450 -0.3076 -0.3593  0.2173
  151POPC   C2B 2363   5.818   4.480   8.096 -0.2954  0.2266 -0.2788
  151POPC   C3B 2364   5.755   4.701   7.853 -0.3143  0.2732  0.1477
  151POPC   C4B 2365   5.375   4.838   7.608  0.0147  0.0594  0.0050
  152POPC   NC3 2366   4.028   9.284   9.305 -0.1994 -0.0196 -0.1006
  152POPC   PO4 2367   3.625   9.193   9.186  0.1509  0.3362 -0.1191
  152POPC   GL1 2368   3.848   9.154   8.804 -0.0810 -0.1161  0.1792
  152POPC   GL2 2369   3.922   8.836   8.656  0.1593 -0.0894  0.0317
  152POPC   C1A 2370   3.983   9.406   8.524  0.0932  0.0588  0.1712
  152POPC   D2A 2371   4.266   9.587   8.124  0.1114  0.1297 -0.3361
  152POPC   C3A 2372   4.524   9.513   7.808 -0.2514 -0.0260 -0.2497
  152POPC   C4A 2373   4.832   9.482   7.498 -0.0302  0.0544  0.3121
  152POPC   C1B 2374   4.400   8.820   8.572  0.2727 -0.2720 -0.0344
  152POPC   C2B 2375   4.656   8.859   8.744 -0.1667  0.0002  0.0999
  152POPC   C3B 2376   5.042   8.718   8.947 -0.0063 -0.1873  0.0435
  152POPC   C4B 2377   5.456   8.838   8.765  0.1048  0.1729  0.0376
  153POPC   NC3 2378   8.567   8.286   9.262 -0.3523 -0.1887 -0.0080
  153POPC   PO4 2379   8.974   8.611   9.248 -0.0228  0.0491  0.0751
  153POPC   GL1 2380   8.885   8.545   8.798 -0.1232  0.1661  0.1715
  153POPC   GL2 2381   8.542   8.516   8.729  0.0747  0.0830  0.0331
  153POPC   C1A 2382   9.224   8.521   8.415  0.1303  0.1096 -0.1662
  153POPC   D2A 2383   9.320   8.612   7.963  0.1500  0.1982  0.2525
  153POPC   C3A 2384   9.735   8.678   7.819  0.1530 -0.0553 -0.1860
  153POPC   C4A 2385  10.031   8.295   7.609  0.4538 -0.0610 -0.0126
  153POPC   C1B 2386   8.245   8.427   8.554  0.1551  0.2188  0.0151
  153POPC   C2B 2387   8.107   8.092   8.377 -0.2364  0.3634  0.0154
  153POPC   C3B 2388   7.889   7.924   8.061  0.0580  0.0704 -0.2104
  153POPC   C4B 2389   7.487   7.995   8.040  0.2840  0.1023 -0.1460
  154POPC   NC3 2390   8.999   2.708   8.435 -0.0785 -0.1634  0.0002
  154POPC   PO4 2391   9.050   3.231   8.287  0.3178  0.1719  0.2622
  154POPC   GL1 2392   8.820   3.510   8.017  0.2157 -0.0171 -0.1479
  154POPC   GL2 2393   8.415   3.560   7.963  0.0181  0.2134  0.2463
  154POPC   C1A 2394   8.688   3.981   7.741 -0.1858 -0.0938 -0.0087
  154POPC   D2A 2395   8.711   4.198   7.272 -0.2628  0.0179  0.4968
  154POPC   C3A 2396   8.697   4.435   7.010  0.0254  0.3807 -0.2053
  154POPC   C4A 2397   8.406   4.761   6.849 -0.0082  0.0593  0.0427
  154POPC   C1B 2398   8.172   3.779   7.614 -0.1725  0.0821  0.0788
  154POPC   C2B 2399   8.292   3.946   7.299 -0.1880 -0.1772  0.4406
  154POPC   C3B 2400   8.296   4.203   6.850 -0.4577 -0.1872  0.0110
  154POPC   C4B 2401   8.523   4.065   6.437 -0.3128  0.0387  0.1547
  155POPC   NC3 2402   6.969   3.497   9.139  0.0356 -0.0722  0.0361
  155POPC   PO4 2403   6.836   2.974   9.069  0.1472  0.0062  0.3237
  155POPC   GL1 2404   6.726   3.010   8.670  0.1131 -0.1311 -0.0030
  155POPC   GL2 2405   6.391   3.054   8.512  0.0213 -0.1858  0.1609
  155POPC   C1A 2406   6.879   2.829   8.349  0.1071  0.0198 -0.0830
  155POPC   D2A 2407   6.816   2.451   7.965  0.0652 -0.2328  0.1026
  155POPC   C3A 2408   6.494   2.382   7.672  0.0652  0.2159  0.1254
  155POPC   C4A 2409   6.091   2.223   7.470  0.1346 -0.2282 -0.2572
  155POPC   C1B 2410   6.451   3.076   8.182 -0.1774 -0.0084  0.0191
  155POPC   C2B 2411   6.628   2.938   7.862  0.0007 -0.4161  0.0146
  155POPC   C3B 2412   6.823   2.679   7.467  0.0610  0.2516  0.0392
  155POPC   C4B 2413   7.192   2.609   7.172  0.0318 -0.1842  0.3229
  156POPC   NC3 2414   2.464   8.650   8.970  0.0514 -0.0300  0.0186
  156POPC   PO4 2415   2.739   8.978   9.009 -0.3826  0.1950  0.2368
  156POPC   GL1 2416   2.768   8.940   8.546  0.0092 -0.1635 -0.4018
  156POPC   GL2 2417   2.495   8.779   8.472  0.0011  0.2815  0.0515
  156POPC   C1A 2418   2.702   9.101   8.097 -0.1649  0.1175  0.0529
  156POPC   D2A 2419   2.696   9.141   7.683  0.0140 -0.0759 -0.0637
  156POPC   C3A 2420   2.445   8.773   7.496  0.3757 -0.1255  0.0011
  156POPC   C4A 2421   2.266   8.534   7.210  0.0200 -0.1110  0.2213
  156POPC   C1B 2422   2.287   8.814   8.046  0.1652 -0.0698  0.0669
  156POPC   C2B 2423   2.175   9.127   7.752  0.1623  0.1502  0.0190
  156POPC   C3B 2424   1.963   9.293   7.414  0.1345 -0.0522 -0.1583
  156POPC   C4B 2425   1.703   9.536   7.043 -0.0436 -0.0852  0.0755
  157POPC   NC3 2426   2.388   9.307   4.843  0.0799  0.0847  0.0742
  157POPC   PO4 2427   2.405   9.805   4.608 -0.2846 -0.2044 -0.0585
  157POPC   GL1 2428   2.527   9.761   4.980 -0.1647 -0.3043 -0.0733
  157POPC   GL2 2429   2.422  10.005   5.151  0.0516 -0.0213  0.0441
  157POPC   C1A 2430   2.708   9.559   5.386  0.1310  0.2753 -0.0126
  157POPC   D2A 2431   2.529   9.200   5.718 -0.0147 -0.0840 -0.1814
  157POPC   C3A 2432   2.442   9.171   6.060 -0.0027  0.1602  0.2942
  157POPC   C4A 2433   2.752   9.214   6.425 -0.0047  0.2663 -0.3575
  157POPC   C1B 2434   2.917  10.128   5.097  0.0215 -0.4386  0.3366
  157POPC   C2B 2435   3.233  10.352   5.349 -0.2454 -0.3411  0.0422
  157POPC   C3B 2436   3.602  10.177   5.534 -0.0369 -0.2064 -0.0245
  157POPC   C4B 2437   4.046  10.024   5.343 -0.2167  0.0363 -0.0424
  158POPC   NC3 2438   2.805   3.136   5.277  0.4701  0.1482  0.0827
  158POPC   PO4 2439   2.991   3.440   5.047  0.1926  0.0350  0.0810
  158POPC   GL1 2440   3.096   3.786   5.369  0.0502 -0.3027  0.1301
  158POPC   GL2 2441   3.299   3.653   5.585 -0.0459 -0.0343 -0.0914
  158POPC   C1A 2442   3.171   4.147   5.677 -0.4450 -0.1245 -0.0469
  158POPC   D2A 2443   3.381   4.179   6.010 -0.0416 -0.0930  0.1640
  158POPC   C3A 2444   3.541   3.730   6.130  0.3008 -0.0544  0.3809
  158POPC   C4A 2445   3.428   3.259   6.021 -0.0888 -0.3119 -0.0246
  158POPC   C1B 2446   3.070   3.770   5.980 -0.0154  0.1131  0.1142
  158POPC   C2B 2447   3.141   3.914   6.434 -0.1857 -0.1537  0.3807
  158POPC   C3B 2448   2.700   4.116   6.657 -0.1552  0.1863 -0.1962
  158POPC   C4B 2449   2.458   3.915   6.957  0.2267 -0.1910 -0.0850
  159POPC   NC3 2450   3.593  10.162   4.124 -0.0251 -0.1306 -0.2080
  159POPC   PO4 2451   3.111  10.106   4.166 -0.0544  0.1675 -0.0186
  159POPC   GL1 2452   3.283   9.906   4.539 -0.1667  0.0245 -0.0623
  159POPC   GL2 2453   3.591   9.802   4.597 -0.0139  0.0211 -0.1225
  159POPC   C1A 2454   3.323   9.803   5.005 -0.0223 -0.5185 -0.2089
  159POPC   D2A 2455   3.186   9.798   5.463 -0.0719  0.0583 -0.0047
  159POPC   C3A 2456   3.145  10.064   5.881  0.0590  0.1651  0.1973
  159POPC   C4A 2457   3.066  10.224   6.291  0.2111  0.0858 -0.0768
  159POPC   C1B 2458   3.775   9.701   5.058 -0.3162  0.0411 -0.0508
  159POPC   C2B 2459   4.071   9.511   5.514  0.0848 -0.1813 -0.1560
  159POPC   C3B 2460   4.281   9.349   5.978  0.2252  0.0929  0.0119
  159POPC   C4B 2461   4.588   9.563   6.236  0.0228  0.0020 -0.0109
  160POPC   NC3 2462   6.176   2.590   5.369 -0.2540  0.2943 -0.0952
  160POPC   PO4 2463   5.833   2.990   5.287 -0.0645  0.3075  0.1590
  160POPC   GL1 2464   5.577   2.860   5.691 -0.1013  0.2747 -0.2425
  160POPC   GL2 2465   5.613   2.900   5.929 -0.0082  0.0803  0.0800
  160POPC   C1A 2466   5.088   3.091   5.853 -0.0265  0.2766  0.1824
  160POPC   D2A 2467   4.836   3.160   6.090  0.0652  0.0165 -0.0280
  160POPC   C3A 2468   4.939   3.462   6.401  0.1997  0.1503  0.1701
  160POPC   C4A 2469   4.904   3.781   6.754  0.4575 -0.2358 -0.3519
  160POPC   C1B 2470   5.880   3.085   6.270  0.0604 -0.0340 -0.0820
  160POPC   C2B 2471   5.683   3.361   6.512 -0.1790 -0.3304 -0.2029
  160POPC   C3B 2472   5.360   3.693   6.634  0.1329 -0.2039 -0.2439
  160POPC   C4B 2473   5.056   4.006   6.350  0.0568 -0.2512  0.0090
  161POPC   NC3 2474   5.350   3.050   5.049  0.1489  0.0388  0.1508
  161POPC   PO4 2475   4.886   2.980   5.038  0.2264 -0.0812 -0.0090
  161POPC   GL1 2476   4.754   2.896   5.525  0.1299 -0.0649 -0.0990
  161POPC   GL2 2477   4.464   3.015   5.724  0.2380  0.1774 -0.1287
  161POPC   C1A 2478   4.806   2.658   5.884 -0.2149  0.0476 -0.4398
  161POPC   D2A 2479   4.753   2.560   6.334 -0.3004  0.0218  0.0947
  161POPC   C3A 2480   5.106   2.684   6.702 -0.3349 -0.1654 -0.4291
  161POPC   C4A 2481   5.125   2.885   7.128  0.2016 -0.2415  0.0981
  161POPC   C1B 2482   4.394   3.421   5.927  0.0119  0.0786 -0.1504
  161POPC   C2B 2483   4.426   3.483   6.457  0.2782 -0.1091  0.0588
  161POPC   C3B 2484   4.312   3.284   6.729  0.0624 -0.0591 -0.3293
  161POPC   C4B 2485   4.311   2.971   6.920  0.1042 -0.0603  0.0291
  162POPC   NC3 2486   9.395   7.075   4.914  0.0687 -0.2846  0.2041
  162POPC   PO4 2487   9.390   6.776   4.747 -0.3652 -0.1179 -0.0950
  162POPC   GL1 2488   9.574   6.721   5.245 -0.5390  0.2834 -0.3308
  162POPC   GL2 2489   9.436   7.007   5.444  0.1021  0.2102 -0.2048
  162POPC   C1A 2490   9.713   6.670   5.684 -0.1915 -0.0636 -0.1276
  162POPC   D2A 2491   9.621   6.541   6.080 -0.2919  0.3608  0.0379
  162POPC   C3A 2492   9.901   6.500   6.464  0.1276  0.3082  0.1306
  162POPC   C4A 2493   9.832   6.057   6.647  0.1429 -0.2035 -0.0889
  162POPC   C1B 2494   9.181   7.169   5.759 -0.0189  0.1439  0.1080
  162POPC   C2B 2495   9.000   7.145   6.235  0.1524 -0.0925 -0.3454
  162POPC   C3B 2496   8.751   7.145   6.534 -0.3069  0.0791 -0.0344
  162POPC   C4B 2497   8.534   6.843   6.850  0.0898 -0.0299 -0.2750
  163POPC   NC3 2498   8.634   9.770   3.975 -0.0268  0.0111 -0.0497
  163POPC   PO4 2499   8.558  10.008   4.364  0.3591 -0.0208 -0.2211
  163POPC   GL1 2500   8.290   9.916   4.735  0.0971  0.2468 -0.2640
  163POPC   GL2 2501   7.970   9.981   4.716 -0.0350  0.0858 -0.0802
  163POPC   C1A 2502   8.119   9.612   5.118  0.1005  0.0512 -0.1419
  163POPC   D2A 2503   8.069   9.470   5.550 -0.0791 -0.1351 -0.2416
  163POPC   C3A 2504   8.241   9.222   5.836  0.1621  0.0012  0.3124
  163POPC   C4A 2505   8.448   8.887   5.913  0.4451  0.0829  0.1537
  163POPC   C1B 2506   7.690   9.778   4.986  0.2810 -0.0495  0.0922
  163POPC   C2B 2507   7.646   9.737   5.504  0.1084  0.1899  0.0191
  163POPC   C3B 2508   7.659   9.884   5.918 -0.3291 -0.0035  0.1463
  163POPC   C4B 2509   7.851   9.811   6.296  0.0729 -0.1173 -0.0214
  164POPC   NC3 2510   6.644   5.708   4.532 -0.0896  0.2490  0.0226
  164POPC   PO4 2511   6.356   5.541   4.493 -0.2769 -0.1949 -0.1140
  164POPC   GL1 2512   6.151   5.802   4.716 -0.0246  0.0679  0.0201
  164POPC   GL2 2513   6.135   5.990   4.472  0.0561 -0.0198  0.2737
  164POPC   C1A 2514   6.086   6.041   5.138  0.0469  0.0648 -0.1165
  164POPC   D2A 2515   6.075   6.255   5.560  0.2032  0.1573 -0.3324
  164POPC   C3A 2516   6.162   6.699   5.681  0.2332 -0.0926  0.1990
  164POPC   C4A 2517   6.203   7.076   5.806  0.0167  0.1502 -0.0133
  164POPC   C1B 2518   5.932   6.317   4.744  0.0886  0.2151  0.2304
  164POPC   C2B 2519   5.464   6.325   4.991  0.5002  0.2270 -0.0070
  164POPC   C3B 2520   5.240   6.248   5.327 -0.1704 -0.1927  0.1777
  164POPC   C4B 2521   5.303   6.265   5.793  0.2668  0.2177  0.1423
  165POPC   NC3 2522   2.983   5.035   4.200 -0.0762 -0.0494 -0.0542
  165POPC   PO4 2523   3.082   4.902   4.649 -0.0417 -0.2241 -0.0461
  165POPC   GL1 2524   3.158   4.985   5.129 -0.2119  0.0486 -0.0225
  165POPC   GL2 2525   2.948   5.126   5.209 -0.2570  0.0644  0.0550
  165POPC   C1A 2526   3.146   4.729   5.555 -0.1175 -0.1914  0.0880
  165POPC   D2A 2527   3.134   4.689   5.929  0.0220 -0.1983  0.1686
  165POPC   C3A 2528   3.351   5.047   6.233 -0.1211  0.0359 -0.1006
  165POPC   C4A 2529   3.686   4.968   6.546  0.0891 -0.3190  0.2214
  165POPC   C1B 2530   2.989   5.154   5.739 -0.0923 -0.3138 -0.1570
  165POPC   C2B 2531   2.846   5.171   6.121  0.1584  0.1587  0.0068
  165POPC   C3B 2532   2.793   4.857   6.386 -0.0481 -0.0317  0.1678
  165POPC   C4B 2533   2.864   4.683   6.803 -0.0660 -0.0257  0.2069
  166POPC   NC3 2534   1.537   2.106   5.241  0.1801 -0.0075  0.0809
  166POPC   PO4 2535   1.222   1.794   5.334 -0.0082 -0.0268 -0.0816
  166POPC   GL1 2536   1.395   1.969   5.673 -0.4355  0.4409  0.0471
  166POPC   GL2 2537   1.380   2.284   5.725  0.0972 -0.0440 -0.1063
  166POPC   C1A 2538   1.586   2.021   6.158 -0.0440 -0.1582  0.4168
  166POPC   D2A 2539   1.771   2.340   6.569  0.2409 -0.3283 -0.0071
  166POPC   C3A 2540   1.788   2.777   6.590  0.0229 -0.0042  0.1233
  166POPC   C4A 2541   2.072   3.029   6.841  0.1251  0.0593 -0.1202
  166POPC   C1B 2542   1.105   2.242   6.066 -0.1809 -0.0663 -0.2857
  166POPC   C2B 2543   0.791   2.502   6.398 -0.1110  0.1498  0.1757
  166POPC   C3B 2544   0.537   2.742   6.204 -0.1048  0.0892  0.0470
  166POPC   C4B 2545   0.115   2.992   6.244 -0.2312 -0.0362  0.0472
  167POPC   NC3 2546   1.022   2.642   4.835  0.0859  0.1467 -0.0540
  167POPC   PO4 2547   1.282   2.507   5.205  0.1655  0.0444  0.1691
  167POPC   GL1 2548   1.083   2.646   5.585 -0.0112  0.1714  0.0385
  167POPC   GL2 2549   1.069   2.928   5.747 -0.1797 -0.3076 -0.0547
  167POPC   C1A 2550   0.709   2.504   5.767  0.1250  0.0295 -0.1485
  167POPC   D2A 2551   0.340   2.361   5.937 -0.4255 -0.2272  0.3448
  167POPC   C3A 2552   0.333   2.288   6.349  0.0078 -0.1800 -0.3630
  167POPC   C4A 2553   0.282   2.407   6.831 -0.1610 -0.3389 -0.0854
  167POPC   C1B 2554   1.048   2.851   6.155 -0.3871 -0.0590 -0.1065
  167POPC   C2B 2555   0.856   3.023   6.503  0.0088 -0.3128 -0.2529
  167POPC   C3B 2556   0.422   2.991   6.658  0.2291 -0.0089  0.2276
  167POPC   C4B 2557  -0.074   2.818   6.842 -0.2894  0.0218  0.1713
  168POPC   NC3 2558   4.343   7.707   3.072 -0.3610  0.1356 -0.1221
  168POPC   PO4 2559   4.538   7.638   3.410 -0.1285 -0.0072  0.0827
  168POPC   GL1 2560   4.549   7.501   3.903  0.0783  0.0510 -0.0896
  168POPC   GL2 2561   4.247   7.507   4.093 -0.4006 -0.0404  0.3063
  168POPC   C1A 2562   4.928   7.446   4.118 -0.1139  0.0173 -0.0616
  168POPC   D2A 2563   4.946   7.477   4.642 -0.0025 -0.0431  0.0846
  168POPC   C3A 2564   4.870   7.735   4.885 -0.0946  0.0579  0.0227
  168POPC   C4A 2565   4.648   8.078   4.835 -0.1761 -0.0666  0.3478
  168POPC   C1B 2566   4.200   7.386   4.471  0.0050  0.2003 -0.0653
  168POPC   C2B 2567   4.366   7.602   4.858  0.0988  0.1468  0.1685
  168POPC   C3B 2568   4.539   7.755   5.297 -0.0105  0.1002  0.0005
  168POPC   C4B 2569   4.445   7.969   5.650 -0.0679 -0.1181  0.1123
  169POPC   NC3 2570   4.715   3.393   4.917 -0.1992  0.0783 -0.3784
  169POPC   PO4 2571   4.826   3.800   5.116 -0.0227 -0.0147  0.0987
  169POPC   GL1 2572   4.852   3.745   5.589  0.0026 -0.0182 -0.2408
  169POPC   GL2 2573   4.784   4.005   5.907 -0.4674 -0.0280 -0.0827
  169POPC   C1A 2574   5.092   3.616   5.963  0.2374 -0.0011 -0.1668
  169POPC   D2A 2575   5.467   3.375   5.979  0.0524 -0.2847 -0.0676
  169POPC   C3A 2576   5.912   3.405   5.860  0.0471  0.0561 -0.1589
  169POPC   C4A 2577   6.210   3.695   5.978 -0.1589 -0.0074 -0.0819
  169POPC   C1B 2578   4.434   4.265   6.190  0.1686  0.0113  0.1922
  169POPC   C2B 2579   4.621   4.206   6.568  0.0811  0.0420  0.1051
  169POPC   C3B 2580   4.345   4.491   6.958  0.1576 -0.4106 -0.1696
  169POPC   C4B 2581   4.145   4.966   7.007 -0.4197  0.2541 -0.1357
  170POPC   NC3 2582  10.207   0.075   5.270 -0.0131 -0.1024  0.0789
  170POPC   PO4 2583  10.516  -0.176   5.535  0.2203 -0.0736  0.0352
  170POPC   GL1 2584  10.424  -0.284   5.907 -0.0732 -0.0235 -0.1224
  170POPC   GL2 2585  10.319   0.048   6.025 -0.1646 -0.0825  0.1412
  170POPC   C1A 2586  10.381  -0.489   6.369  0.1487  0.1262 -0.1011
  170POPC   D2A 2587  10.196  -0.224   6.631 -0.1439 -0.0075  0.2986
  170POPC   C3A 2588  10.085   0.114   6.970  0.0438  0.1191 -0.0621
  170POPC   C4A 2589  10.225   0.368   7.198  0.1158 -0.0128 -0.0121
  170POPC   C1B 2590  10.479   0.139   6.364  0.0907  0.1459 -0.2561
  170POPC   C2B 2591  10.557   0.041   6.793  0.4236  0.0461  0.1245
  170POPC   C3B 2592  10.674   0.119   7.301  0.0573 -0.0120  0.0930
  170POPC   C4B 2593  10.924   0.133   7.700 -0.0390  0.0063 -0.2645
  171POPC   NC3 2594   5.554   8.373   3.377 -0.1154 -0.0509  0.1491
  171POPC   PO4 2595   6.018   8.459   3.463  0.1006 -0.0278  0.0976
  171POPC   GL1 2596   6.003   8.484   3.795  0.2708  0.0702 -0.1459
  171POPC   GL2 2597   6.295   8.609   3.933  0.2933  0.4537  0.2799
  171POPC   C1A 2598   5.713   8.624   4.098 -0.1502 -0.2487  0.1616
  171POPC   D2A 2599   5.548   8.433   4.477 -0.1856  0.1508 -0.0045
  171POPC   C3A 2600   5.437   8.589   4.911  0.3390 -0.1691  0.3945
  171POPC   C4A 2601   5.434   8.828   5.203  0.3209 -0.1555 -0.0409
  171POPC   C1B 2602   6.388   8.207   4.141  0.0662  0.0515  0.3214
  171POPC   C2B 2603   6.428   8.007   4.598 -0.0586  0.2208 -0.2489
  171POPC   C3B 2604   6.285   7.544   4.856 -0.0904  0.0414  0.0704
  171POPC   C4B 2605   6.201   7.110   4.925 -0.0632  0.1547 -0.0768
  172POPC   NC3 2606   3.587   2.535   5.222 -0.2126  0.3076  0.0836
  172POPC   PO4 2607   3.418   2.991   5.259 -0.3892  0.2196 -0.1734
  172POPC   GL1 2608   3.537   2.812   5.738  0.1250 -0.3381  0.0064
  172POPC   GL2 2609   3.567   2.453   5.827 -0.0197 -0.0545 -0.1448
  172POPC   C1A 2610   3.719   2.818   6.112 -0.0031  0.0038  0.1115
  172POPC   D2A 2611   3.743   2.485   6.439  0.1261 -0.4097  0.1201
  172POPC   C3A 2612   3.419   2.211   6.695 -0.1402  0.0160  0.1264
  172POPC   C4A 2613   3.405   1.820   6.944 -0.1000  0.2830  0.0648
  172POPC   C1B 2614   3.960   2.366   5.906  0.1887 -0.0945  0.1106
  172POPC   C2B 2615   4.239   2.644   6.044  0.3159 -0.0612 -0.1760
  172POPC   C3B 2616   4.388   2.999   6.281  0.2349 -0.2802 -0.1428
  172POPC   C4B 2617   4.748   2.989   6.631  0.2667  0.0155  0.0339
  173POPC   NC3 2618   3.203   8.348   3.510  0.3097 -0.0946  0.0145
  173POPC   PO4 2619   3.317   8.739   3.725  0.0738  0.3841  0.0287
  173POPC   GL1 2620   3.470   8.676   4.202  0.2936  0.0438 -0.0784
  173POPC   GL2 2621   3.184   8.476   4.370  0.0535 -0.0141 -0.1725
  173POPC   C1A 2622   3.806   8.773   4.463  0.3231 -0.0177  0.0542
  173POPC   D2A 2623   3.872   8.698   4.881 -0.3046 -0.0163  0.2499
  173POPC   C3A 2624   4.208   8.568   5.160  0.0320  0.1158  0.1127
  173POPC   C4A 2625   4.222   8.485   5.535  0.0118  0.0814 -0.3829
  173POPC   C1B 2626   3.522   8.297   4.714  0.2936 -0.1673  0.0268
  173POPC   C2B 2627   3.792   8.270   5.130  0.2334 -0.2399  0.0266
  173POPC   C3B 2628   3.823   8.165   5.591 -0.2526 -0.0704 -0.1542
  173POPC   C4B 2629   3.779   7.843   5.979 -0.0754 -0.2661 -0.0154
  174POPC   NC3 2630   8.537   7.152   4.390  0.1403 -0.6092  0.3333
  174POPC   PO4 2631   8.997   7.067   4.522  0.1863 -0.0874  0.2051
  174POPC   GL1 2632   8.922   6.904   4.927 -0.1277  0.1983 -0.1306
  174POPC   GL2 2633   9.140   6.612   5.136 -0.3068  0.0788  0.1568
  174POPC   C1A 2634   8.936   6.991   5.359  0.0735  0.1799  0.0439
  174POPC   D2A 2635   8.811   6.839   5.759 -0.0135 -0.1866 -0.0170
  174POPC   C3A 2636   8.565   6.937   6.088  0.0198 -0.0950 -0.1337
  174POPC   C4A 2637   8.365   7.297   6.199 -0.0001  0.0339  0.1092
  174POPC   C1B 2638   9.223   6.600   5.636 -0.0043  0.1163 -0.1552
  174POPC   C2B 2639   9.185   6.683   6.058  0.2180 -0.1642 -0.1335
  174POPC   C3B 2640   8.989   6.640   6.406  0.1979  0.0548 -0.1797
  174POPC   C4B 2641   9.060   6.760   6.842 -0.0298  0.2641 -0.2152
  175POPC   NC3 2642   9.881   7.684   5.167 -0.0490 -0.1162  0.2234
  175POPC   PO4 2643   9.786   7.309   5.184 -0.2329 -0.0351  0.0448
  175POPC   GL1 2644   9.389   7.505   5.308 -0.1073 -0.1145 -0.2481
  175POPC   GL2 2645   9.444   7.774   5.395  0.0774 -0.2701 -0.1898
  175POPC   C1A 2646   9.018   7.525   5.469 -0.0190  0.1683  0.0939
  175POPC   D2A 2647   8.585   7.456   5.341  0.2614 -0.3513 -0.2379
  175POPC   C3A 2648   8.287   7.203   5.653  0.1022 -0.0896  0.1696
  175POPC   C4A 2649   8.033   7.050   5.377  0.0878 -0.2864 -0.0780
  175POPC   C1B 2650   9.369   7.641   5.847 -0.4681  0.1414  0.2269
  175POPC   C2B 2651   9.105   7.773   6.060 -0.0316 -0.0528  0.4299
  175POPC   C3B 2652   8.787   7.605   6.299 -0.1387 -0.0989  0.0129
  175POPC   C4B 2653   8.655   7.604   6.715 -0.0320  0.1685 -0.1067
  176POPC   NC3 2654  10.138   8.642   5.363 -0.0814  0.0434 -0.0664
  176POPC   PO4 2655  10.448   8.328   5.384 -0.0122 -0.0821  0.0308
  176POPC   GL1 2656  10.603   8.118   5.788  0.2894 -0.0510  0.0869
  176POPC   GL2 2657  10.563   7.848   5.770 -0.1941 -0.0669  0.1008
  176POPC   C1A 2658  10.749   8.045   6.216  0.1972  0.2195 -0.2370
  176POPC   D2A 2659  10.692   7.699   6.476  0.3050 -0.0567  0.0151
  176POPC   C3A 2660  10.618   7.770   6.979  0.0918  0.0512  0.0690
  176POPC   C4A 2661  10.622   7.817   7.472 -0.3676 -0.1313 -0.0114
  176POPC   C1B 2662  10.399   7.567   6.057 -0.4202 -0.2159  0.1971
  176POPC   C2B 2663  10.105   7.177   6.139  0.0989  0.0346 -0.0141
  176POPC   C3B 2664   9.762   7.061   6.383 -0.2175 -0.1580 -0.5295
  176POPC   C4B 2665   9.397   6.897   6.506 -0.0279  0.2325 -0.0661
  177POPC   NC3 2666   9.837   0.221   4.981  0.4375  0.1561 -0.0223
  177POPC   PO4 2667   9.811   0.371   5.291  0.0971  0.0163  0.0174
  177POPC   GL1 2668   9.952   0.286   5.671  0.2533  0.2689 -0.1416
  177POPC   GL2 2669   9.653   0.091   5.703  0.3031 -0.1078 -0.1048
  177POPC   C1A 2670   9.961   0.347   6.078  0.1576 -0.0951  0.0713
  177POPC   D2A 2671   9.935   0.408   6.433 -0.2968  0.0145 -0.0870
  177POPC   C3A 2672   9.561   0.279   6.753  0.0991 -0.0044 -0.1351
  177POPC   C4A 2673   9.434   0.113   7.089 -0.2624 -0.2248 -0.4559
  177POPC   C1B 2674   9.171   0.151   5.950 -0.2633  0.1534 -0.1557
  177POPC   C2B 2675   8.734   0.085   6.114  0.0614 -0.1531 -0.2352
  177POPC   C3B 2676   8.609   0.008   6.510 -0.1426  0.0093 -0.4199
  177POPC   C4B 2677   8.409  -0.112   6.897  0.1798 -0.2863 -0.1746
  178POPC   NC3 2678   5.574   7.642   3.173 -0.0278 -0.1325 -0.2878
  178POPC   PO4 2679   5.440   7.343   3.393  0.3711  0.0843  0.2680
  178POPC   GL1 2680   5.448   7.365   3.862 -0.1164  0.1022  0.3310
  178POPC   GL2 2681   5.571   7.098   3.937  0.0596  0.0161  0.0883
  178POPC   C1A 2682   5.793   7.562   4.113  0.1689  0.0899 -0.6180
  178POPC   D2A 2683   6.181   7.610   4.246 -0.1178 -0.1830 -0.0138
  178POPC   C3A 2684   6.350   7.257   4.402 -0.1276  0.0380 -0.3175
  178POPC   C4A 2685   6.675   6.900   4.505 -0.2339  0.0183 -0.0026
  178POPC   C1B 2686   5.399   7.295   4.343  0.0753 -0.0886 -0.0888
  178POPC   C2B 2687   5.326   7.194   4.805  0.0953 -0.1949 -0.1568
  178POPC   C3B 2688   5.384   7.308   5.209 -0.1198 -0.3748  0.2792
  178POPC   C4B 2689   5.219   7.378   5.679 -0.0335 -0.1645  0.0328
  179POPC   NC3 2690   7.910   5.107   5.056  0.1610 -0.0297  0.0775
  179POPC   PO4 2691   8.218   5.293   4.838 -0.1554  0.3199 -0.0163
  179POPC   GL1 2692   8.079   5.617   5.081  0.2998 -0.0680 -0.0323
  179POPC   GL2 2693   7.956   5.467   5.400 -0.2327  0.2805  0.3216
  179POPC   C1A 2694   7.852   5.908   5.302 -0.1570 -0.0766  0.2317
  179POPC   D2A 2695   7.679   6.261   5.402 -0.1634  0.1418  0.2134
  179POPC   C3A 2696   7.786   6.546   5.752 -0.0486  0.0460  0.1795
  179POPC   C4A 2697   7.651   6.554   6.089  0.1009 -0.2856  0.1564
  179POPC   C1B 2698   7.958   5.494   5.823 -0.1691 -0.4297 -0.4246
  179POPC   C2B 2699   7.712   5.520   6.111  0.0132 -0.1348 -0.2140
  179POPC   C3B 2700   7.525   5.504   6.417 -0.2530 -0.2719  0.2034
  179POPC   C4B 2701   7.356   5.506   6.754 -0.0551  0.1241 -0.1298
  180POPC   NC3 2702   0.696   1.789   5.287  0.0045  0.0592 -0.3685
  180POPC   PO4 2703   0.360   2.127   5.425 -0.3684 -0.2739 -0.2577
  180POPC   GL1 2704   0.592   1.948   5.787 -0.2651 -0.2301 -0.0424
  180POPC   GL2 2705   0.891   1.860   5.718  0.0269 -0.0788 -0.2909
  180POPC   C1A 2706   0.687   1.963   6.244  0.2292  0.1470 -0.0274
  180POPC   D2A 2707   0.654   2.039   6.659 -0.1203  0.1237 -0.0548
  180POPC   C3A 2708   0.907   2.316   6.857 -0.0460  0.2044 -0.1669
  180POPC   C4A 2709   0.700   2.689   6.872 -0.0092  0.0349 -0.1119
  180POPC   C1B 2710   1.184   1.737   6.067  0.1855  0.0393 -0.1413
  180POPC   C2B 2711   1.398   1.382   6.338  0.2012  0.1022  0.2620
  180POPC   C3B 2712   1.628   1.014   6.501 -0.2780  0.1848  0.2380
  180POPC   C4B 2713   1.621   0.862   6.921 -0.2462 -0.1168  0.1003
  181POPC   NC3 2714   2.591   1.327   5.084  0.1844  0.5046  0.2261
  181POPC   PO4 2715   2.095   1.486   5.183 -0.0861  0.0630 -0.0398
  181POPC   GL1 2716   2.382   1.474   5.507  0.2501  0.0281  0.0335
  181POPC   GL2 2717   2.202   1.600   5.756 -0.1563  0.0722 -0.0220
  181POPC   C1A 2718   2.347   1.121   5.837  0.3762  0.0449  0.2571
  181POPC   D2A 2719   2.348   0.702   6.164  0.0770 -0.0270  0.0423
  181POPC   C3A 2720   1.984   0.707   6.457  0.1457 -0.0937 -0.1491
  181POPC   C4A 2721   1.664   0.451   6.653 -0.1198  0.2165  0.1513
  181POPC   C1B 2722   2.011   1.716   6.133 -0.1016 -0.1024  0.2350
  181POPC   C2B 2723   1.846   1.825   6.582 -0.3038 -0.0260  0.0818
  181POPC   C3B 2724   1.670   2.000   6.947  0.6186 -0.0650 -0.2268
  181POPC   C4B 2725   1.516   2.294   7.193 -0.4007  0.0239  0.1892
  182POPC   NC3 2726   8.000   7.839   3.911  0.0261  0.3685 -0.3144
  182POPC   PO4 2727   7.550   7.578   3.650  0.0065 -0.1333  0.0479
  182POPC   GL1 2728   7.502   7.776   4.045 -0.0725  0.0596 -0.2746
  182POPC   GL2 2729   7.470   8.128   4.234  0.0390  0.1431  0.1670
  182POPC   C1A 2730   7.264   7.649   4.430 -0.0588 -0.1229 -0.0388
  182POPC   D2A 2731   6.948   7.552   4.753 -0.0054  0.1055 -0.0373
  182POPC   C3A 2732   6.861   7.161   4.848 -0.2092  0.0528 -0.0098
  182POPC   C4A 2733   6.735   6.769   5.103  0.1540 -0.2155  0.3637
  182POPC   C1B 2734   7.314   8.316   4.568 -0.1697 -0.1525 -0.2373
  182POPC   C2B 2735   6.908   8.296   4.788  0.3034  0.0763 -0.1885
  182POPC   C3B 2736   6.537   8.451   4.739 -0.2132 -0.1089 -0.2314
  182POPC   C4B 2737   6.229   8.508   4.988  0.0817 -0.2264  0.0198
  183POPC   NC3 2738   4.137   1.864   5.083  0.2777 -0.1528  0.0696
  183POPC   PO4 2739   3.694   2.004   5.020  0.0575  0.1430 -0.1263
  183POPC   GL1 2740   3.704   1.716   5.291  0.0261 -0.0908  0.5198
  183POPC   GL2 2741   3.958   1.477   5.298  0.1461  0.3909 -0.2119
  183POPC   C1A 2742   3.707   1.469   5.723 -0.2928 -0.0638  0.1770
  183POPC   D2A 2743   3.626   1.496   6.163 -0.5045 -0.0158 -0.2422
  183POPC   C3A 2744   3.210   1.695   6.326 -0.1002 -0.3924  0.0618
  183POPC   C4A 2745   2.935   1.847   6.563 -0.2097  0.1822 -0.0627
  183POPC   C1B 2746   3.767   1.033   5.443 -0.0505  0.0540  0.0986
  183POPC   C2B 2747   3.902   1.050   5.961  0.0526  0.0313  0.2324
  183POPC   C3B 2748   3.669   0.937   6.454 -0.0982  0.0410 -0.1109
  183POPC   C4B 2749   3.841   0.828   6.917  0.2188 -0.0891  0.0338
  184POPC   NC3 2750   1.178   8.672   5.219  0.3326  0.2396 -0.2709
  184POPC   PO4 2751   0.857   8.878   5.139  0.2298 -0.1787 -0.0470
  184POPC   GL1 2752   0.821   9.067   5.572  0.0788 -0.0782 -0.0215
  184POPC   GL2 2753   1.138   8.960   5.678 -0.0118  0.0675 -0.0919
  184POPC   C1A 2754   0.648   9.323   5.920  0.0359  0.4442  0.3497
  184POPC   D2A 2755   0.572   9.437   6.303  0.0120  0.0031  0.2688
  184POPC   C3A 2756   0.280   9.175   6.524 -0.0502  0.0827 -0.0440
  184POPC   C4A 2757   0.346   8.741   6.737  0.1362 -0.1677  0.1386
  184POPC   C1B 2758   1.366   8.818   6.064 -0.2340 -0.1516 -0.2047
  184POPC   C2B 2759   1.431   8.768   6.475 -0.0420  0.1457  0.2349
  184POPC   C3B 2760   1.689   8.656   6.759 -0.3150 -0.0401 -0.2364
  184POPC   C4B 2761   1.983   8.399   6.786  0.2915  0.1634  0.2750
  185POPC   NC3 2762   6.946   0.488   3.962  0.1126 -0.3599 -0.4043
  185POPC   PO4 2763   6.631   0.267   3.800 -0.1612  0.0860  0.0347
  185POPC   GL1 2764   6.697  -0.004   4.052  0.0065 -0.0789 -0.4876
  185POPC   GL2 2765   6.764  -0.365   3.908 -0.1320  0.0112  0.0336
  185POPC   C1A 2766   6.835  -0.251   4.388  0.3466  0.3748  0.1702
  185POPC   D2A 2767   6.965  -0.014   4.747 -0.0915  0.1180 -0.1906
  185POPC   C3A 2768   6.662  -0.063   5.144 -0.0057  0.3137  0.2138
  185POPC   C4A 2769   6.386  -0.341   5.204  0.2017  0.0965 -0.0292
  185POPC   C1B 2770   6.601  -0.729   4.205  0.1486  0.0629 -0.0084
  185POPC   C2B 2771   6.317  -1.183   4.243  0.0761  0.3901 -0.5918
  185POPC   C3B 2772   6.147  -1.586   4.386 -0.3475 -0.3235 -0.0735
  185POPC   C4B 2773   5.966  -1.916   4.588  0.0730 -0.2643 -0.1021
  186POPC   NC3 2774   3.638   0.505   4.269  0.4552 -0.0031  0.0608
  186POPC   PO4 2775   3.571   0.737   4.513 -0.2014 -0.1902  0.1666
  186POPC   GL1 2776   3.856   0.572   4.751 -0.1793  0.0299 -0.0363
  186POPC   GL2 2777   3.774   0.527   4.999 -0.4222  0.0930 -0.0097
  186POPC   C1A 2778   4.174   0.399   4.715  0.1844  0.0533  0.1312
  186POPC   D2A 2779   4.675   0.340   4.861 -0.1397 -0.2848 -0.0880
  186POPC   C3A 2780   4.712   0.525   5.304  0.0563  0.2372 -0.3911
  186POPC   C4A 2781   4.732   0.530   5.776 -0.1747 -0.0225 -0.2254
  186POPC   C1B 2782   3.920   0.274   5.296 -0.0210 -0.0416 -0.0728
  186POPC   C2B 2783   4.122   0.152   5.625 -0.0390  0.0465  0.0799
  186POPC   C3B 2784   3.966  -0.222   5.850  0.2355  0.0885 -0.3453
  186POPC   C4B 2785   4.118  -0.443   6.190 -0.2222 -0.2003  0.0134
  187POPC   NC3 2786   2.718   6.634   4.797 -0.0844 -0.1202 -0.2891
  187POPC   PO4 2787   2.874   6.191   4.882 -0.1796  0.1362  0.2144
  187POPC   GL1 2788   2.574   6.014   5.219 -0.1438 -0.0738  0.0930
  187POPC   GL2 2789   2.562   6.310   5.305  0.1055 -0.1451  0.0096
  187POPC   C1A 2790   2.392   5.907   5.672 -0.2320 -0.3532 -0.2847
  187POPC   D2A 2791   2.111   5.658   5.897  0.4980  0.2405 -0.0170
  187POPC   C3A 2792   1.728   5.574   5.559  0.0144  0.2452 -0.2678
  187POPC   C4A 2793   1.333   5.357   5.573  0.1610 -0.2606  0.0278
  187POPC   C1B 2794   2.732   6.417   5.721  0.1736 -0.1558 -0.1890
  187POPC   C2B 2795   3.036   6.820   5.911  0.2260  0.1866  0.2311
  187POPC   C3B 2796   2.972   7.022   6.196  0.1722  0.0613  0.2195
  187POPC   C4B 2797   2.853   7.122   6.671 -0.3216 -0.1065 -0.0293
  188POPC   NC3 2798   2.133   4.050   5.301  0.0046 -0.0525 -0.3030
  188POPC   PO4 2799   2.174   3.681   5.532  0.1153 -0.4014 -0.0504
  188POPC   GL1 2800   2.122   3.869   5.899 -0.0631 -0.0491 -0.0351
  188POPC   GL2 2801   2.192   3.608   6.109 -0.1770 -0.1836  0.0430
  188POPC   C1A 2802   1.814   3.955   6.287 -0.0459 -0.0570 -0.0177
  188POPC   D2A 2803   1.359   4.003   6.332  0.0245 -0.1026  0.0241
  188POPC   C3A 2804   1.195   3.702   6.299  0.0264 -0.1190  0.0152
  188POPC   C4A 2805   0.978   3.485   6.494  0.2908 -0.0451  0.0933
  188POPC   C1B 2806   2.353   3.358   6.488 -0.2626 -0.0227  0.0335
  188POPC   C2B 2807   2.720   3.575   6.624 -0.1557 -0.3376  0.0739
  188POPC   C3B 2808   2.977   3.805   6.935  0.2815 -0.0472  0.0293
  188POPC   C4B 2809   3.148   3.754   7.354  0.0396 -0.0757  0.1679
  189POPC   NC3 2810   6.161   4.648   5.094 -0.0812  0.0203  0.2444
  189POPC   PO4 2811   6.517   4.977   5.250 -0.0588 -0.0642  0.0117
  189POPC   GL1 2812   6.797   4.762   5.453  0.1714  0.0507 -0.0714
  189POPC   GL2 2813   6.770   4.485   5.695 -0.0755 -0.4899  0.2585
  189POPC   C1A 2814   7.033   4.961   5.864  0.0657 -0.1187 -0.3504
  189POPC   D2A 2815   6.964   5.189   6.217 -0.0311 -0.1008  0.1765
  189POPC   C3A 2816   6.750   5.087   6.570 -0.2359 -0.1269 -0.3018
  189POPC   C4A 2817   6.709   4.771   6.853 -0.5390  0.0861  0.0734
  189POPC   C1B 2818   6.574   4.803   6.058  0.2982  0.0136 -0.0572
  189POPC   C2B 2819   6.463   4.720   6.401  0.1254 -0.1675 -0.2193
  189POPC   C3B 2820   6.252   4.714   6.789  0.3535  0.1314 -0.5775
  189POPC   C4B 2821   6.290   4.926   7.066  0.1557 -0.1558 -0.2380
  190POPC   NC3 2822   1.960   6.754   5.223  0.0418 -0.2239 -0.3897
  190POPC   PO4 2823   1.706   7.045   5.404  0.1278 -0.1342 -0.0917
  190POPC   GL1 2824   2.116   7.128   5.720 -0.3848 -0.0810  0.2956
  190POPC   GL2 2825   1.886   7.330   5.791 -0.1453  0.0579 -0.1447
  190POPC   C1A 2826   1.963   6.995   6.172  0.0173 -0.1313  0.2454
  190POPC   D2A 2827   2.208   6.753   6.551 -0.0400 -0.2734  0.1992
  190POPC   C3A 2828   2.354   7.192   6.740 -0.0526  0.0501 -0.3416
  190POPC   C4A 2829   2.572   7.634   6.789  0.0031 -0.0961 -0.1351
  190POPC   C1B 2830   1.726   7.525   6.124  0.1471 -0.2152  0.0918
  190POPC   C2B 2831   1.384   7.632   6.447 -0.0983 -0.0329  0.0125
  190POPC   C3B 2832   1.375   7.823   6.913  0.0522 -0.0097  0.0015
  190POPC   C4B 2833   1.358   7.954   7.265 -0.0105 -0.3054 -0.3077
  191POPC   NC3 2834  10.191   9.587   5.619  0.2253 -0.1488 -0.1338
  191POPC   PO4 2835  10.006   9.982   5.607 -0.0188  0.3296 -0.2914
  191POPC   GL1 2836   9.907  10.026   6.073 -0.0459  0.0402 -0.2797
  191POPC   GL2 2837   9.971   9.687   6.069  0.0154  0.2845  0.2533
  191POPC   C1A 2838   9.727  10.136   6.424  0.1973  0.2399  0.0550
  191POPC   D2A 2839   9.414   9.998   6.705  0.1520  0.2695 -0.1492
  191POPC   C3A 2840   8.932  10.167   6.936  0.0498  0.2094 -0.0833
  191POPC   C4A 2841   8.675   9.941   7.251  0.0469  0.0206  0.0509
  191POPC   C1B 2842   9.831   9.293   6.247 -0.1637 -0.1795  0.2758
  191POPC   C2B 2843   9.949   9.225   6.595 -0.0955  0.0538 -0.3118
  191POPC   C3B 2844  10.286   9.565   6.817 -0.1539  0.0218 -0.0196
  191POPC   C4B 2845  10.529   9.470   7.141 -0.1038  0.2214  0.2546
  192POPC   NC3 2846   1.118   6.284   4.908  0.0533  0.0640  0.4536
  192POPC   PO4 2847   0.646   6.226   4.946  0.0604  0.3411  0.0528
  192POPC   GL1 2848   0.925   6.312   5.349  0.0785  0.0954 -0.0337
  192POPC   GL2 2849   1.224   6.184   5.414 -0.2235 -0.1998  0.2715
  192POPC   C1A 2850   0.785   6.516   5.708 -0.0565 -0.0173 -0.5517
  192POPC   D2A 2851   0.677   6.640   6.121  0.3487  0.3647 -0.0728
  192POPC   C3A 2852   0.812   6.730   6.545  0.1960  0.0543 -0.2112
  192POPC   C4A 2853   1.075   6.681   6.889  0.0008 -0.1334  0.0216
  192POPC   C1B 2854   1.232   5.814   5.551 -0.1372  0.2003 -0.2557
  192POPC   C2B 2855   1.337   5.737   5.979 -0.1895  0.0782 -0.0885
  192POPC   C3B 2856   1.663   5.675   6.119  0.2033 -0.1203  0.2562
  192POPC   C4B 2857   2.028   5.944   6.269 -0.1663 -0.3569  0.1480
  193POPC   NC3 2858   4.536   4.253   4.984  0.0031 -0.2157  0.1535
  193POPC   PO4 2859   4.146   4.222   5.156 -0.2441 -0.4400 -0.3595
  193POPC   GL1 2860   4.153   4.388   5.659  0.0555 -0.0637  0.0033
  193POPC   GL2 2861   4.494   4.496   5.794 -0.0786  0.0737  0.0881
  193POPC   C1A 2862   4.104   4.657   6.075  0.0234 -0.2454 -0.0781
  193POPC   D2A 2863   3.996   4.486   6.546  0.1712 -0.1059 -0.0516
  193POPC   C3A 2864   4.112   4.065   6.699  0.0404  0.0261  0.1621
  193POPC   C4A 2865   4.436   3.746   6.931  0.1248  0.0106 -0.1025
  193POPC   C1B 2866   4.538   4.876   6.001 -0.0796 -0.0805  0.1128
  193POPC   C2B 2867   4.928   4.983   6.309  0.1167 -0.3530  0.3870
  193POPC   C3B 2868   5.011   5.107   6.730  0.2037  0.1960 -0.1859
  193POPC   C4B 2869   5.298   5.239   7.059 -0.0726 -0.1584 -0.1028
  194POPC   NC3 2870   1.631   3.799   4.687  0.2773  0.1543 -0.0297
  194POPC   PO4 2871   1.677   4.003   5.047 -0.0927  0.0256  0.0093
  194POPC   GL1 2872   1.726   3.844   5.500  0.0376 -0.1532 -0.0502
  194POPC   GL2 2873   1.316   3.959   5.431 -0.0067  0.1248 -0.0890
  194POPC   C1A 2874   1.615   3.663   5.935 -0.0113 -0.1372 -0.1789
  194POPC   D2A 2875   1.339   3.269   6.088 -0.3292 -0.1515 -0.2914
  194POPC   C3A 2876   1.340   3.100   6.516  0.1456  0.2245  0.0109
  194POPC   C4A 2877   1.376   2.780   6.858 -0.3289 -0.0103  0.1514
  194POPC   C1B 2878   1.644   4.193   5.858  0.0207 -0.0264 -0.0528
  194POPC   C2B 2879   1.700   4.414   6.351 -0.0329  0.2131 -0.0345
  194POPC   C3B 2880   2.059   4.545   6.511  0.6286  0.0995 -0.0883
  194POPC   C4B 2881   2.334   4.416   6.844  0.4728 -0.3844 -0.1447
  195POPC   NC3 2882   9.630   2.628   4.974 -0.0791 -0.2575 -0.1566
  195POPC   PO4 2883   9.271   2.693   5.207  0.2443 -0.0596 -0.0286
  195POPC   GL1 2884   9.285   2.691   5.630 -0.0305 -0.0841 -0.0029
  195POPC   GL2 2885   9.022   2.531   5.913 -0.1171 -0.0843  0.2574
  195POPC   C1A 2886   9.229   3.046   5.879  0.3296  0.2264 -0.3538
  195POPC   D2A 2887   9.517   3.260   6.090 -0.1339  0.0626 -0.0786
  195POPC   C3A 2888   9.340   3.602   6.347  0.3680 -0.4134 -0.2973
  195POPC   C4A 2889   9.021   3.867   6.289  0.5042 -0.0484 -0.0925
  195POPC   C1B 2890   9.103   2.296   6.213  0.1290  0.2873 -0.1676
  195POPC   C2B 2891   9.200   2.085   6.626 -0.1475  0.1625 -0.4393
  195POPC   C3B 2892   9.549   2.184   6.979 -0.1025 -0.1860 -0.0505
  195POPC   C4B 2893   9.600   2.392   7.375  0.0341 -0.1422  0.3348
  196POPC   NC3 2894   4.177   6.307   4.453 -0.1188 -0.1410 -0.2395
  196POPC   PO4 2895   3.875   5.984   4.556 -0.3172 -0.1133  0.1767
  196POPC   GL1 2896   4.150   5.925   4.826  0.1684 -0.0133  0.2019
  196POPC   GL2 2897   4.333   6.191   4.929  0.1575  0.1194 -0.0812
  196POPC   C1A 2898   4.064   5.533   5.090  0.0722  0.3767 -0.0611
  196POPC   D2A 2899   3.894   5.311   5.434 -0.3537 -0.1349 -0.0398
  196POPC   C3A 2900   3.840   5.557   5.875 -0.1449 -0.2108 -0.0380
  196POPC   C4A 2901   4.109   5.476   6.244  0.2554  0.0789  0.3159
  196POPC   C1B 2902   4.420   6.053   5.301  0.5080 -0.3612 -0.2243
  196POPC   C2B 2903   4.610   5.960   5.691 -0.0892  0.1846  0.0214
  196POPC   C3B 2904   5.006   5.881   5.902 -0.0189 -0.0228 -0.1362
  196POPC   C4B 2905   5.241   5.794   6.182 -0.4919  0.0084 -0.0108
  197POPC   NC3 2906   9.782   9.003   5.375  0.2354  0.1785  0.0600
  197POPC   PO4 2907   9.304   8.853   5.157  0.2067 -0.2068 -0.2590
  197POPC   GL1 2908   9.130   8.612   5.507  0.0008 -0.0755  0.0720
  197POPC   GL2 2909   9.259   8.565   5.806  0.1673  0.1266  0.1394
  197POPC   C1A 2910   8.712   8.517   5.696  0.0046 -0.3709  0.2415
  197POPC   D2A 2911   8.424   8.443   6.156  0.1448 -0.1564  0.2899
  197POPC   C3A 2912   8.565   8.113   6.466 -0.5612 -0.2218  0.3288
  197POPC   C4A 2913   8.662   8.127   6.891  0.0585 -0.1312  0.0576
  197POPC   C1B 2914   9.013   8.266   5.977 -0.1115 -0.2869  0.0480
  197POPC   C2B 2915   8.714   7.997   5.833  0.2742  0.0739  0.1527
  197POPC   C3B 2916   8.527   7.673   5.830  0.0249 -0.0616 -0.1466
  197POPC   C4B 2917   8.715   7.315   5.825  0.0333 -0.3217 -0.0325
  198POPC   NC3 2918   0.154   0.384   4.534 -0.0309  0.1432 -0.2134
  198POPC   PO4 2919  -0.121   0.636   4.890 -0.1555  0.3128  0.0285
  198POPC   GL1 2920   0.008   0.685   5.390  0.0260 -0.1997 -0.2497
  198POPC   GL2 2921   0.300   0.845   5.424 -0.1054 -0.1523 -0.2200
  198POPC   C1A 2922  -0.254   0.786   5.801  0.0494 -0.0124 -0.1902
  198POPC   D2A 2923  -0.421   0.819   6.171 -0.0137  0.0340  0.2537
  198POPC   C3A 2924  -0.566   1.262   6.284  0.0432  0.2855 -0.1555
  198POPC   C4A 2925  -0.707   1.260   6.694  0.0658  0.1894  0.1528
  198POPC   C1B 2926   0.339   1.009   5.948  0.1234 -0.1642  0.0466
  198POPC   C2B 2927   0.354   1.151   6.310 -0.0139  0.4327 -0.2823
  198POPC   C3B 2928   0.570   1.133   6.643 -0.0755  0.0791  0.0532
  198POPC   C4B 2929   0.786   0.908   6.854 -0.1318 -0.1206  0.0921
  199POPC   NC3 2930   8.969   9.159   5.052  0.2275  0.0637  0.0154
  199POPC   PO4 2931   8.650   9.404   5.346  0.0376 -0.1608  0.2366
  199POPC   GL1 2932   8.733   9.336   5.760  0.3801  0.0123 -0.0262
  199POPC   GL2 2933   8.948   9.022   5.773  0.2046  0.1694 -0.0881
  199POPC   C1A 2934   8.589   9.258   6.190  0.0125 -0.0802 -0.3856
  199POPC   D2A 2935   8.108   9.307   6.355  0.0207  0.0586 -0.2326
  199POPC   C3A 2936   7.969   9.450   6.732  0.0113 -0.0520  0.3587
  199POPC   C4A 2937   7.806   9.353   7.133 -0.1788  0.0207  0.3068
  199POPC   C1B 2938   8.917   8.832   6.190 -0.0436 -0.1723 -0.0890
  199POPC   C2B 2939   8.836   9.051   6.612  0.1890 -0.4021 -0.0454
  199POPC   C3B 2940   8.531   9.294   6.688 -0.0622 -0.2204  0.1561
  199POPC   C4B 2941   8.403   9.516   7.057  0.0832 -0.1774  0.1021
  200POPC   NC3 2942   6.914   4.955   4.963  0.0498  0.0225  0.0557
  200POPC   PO4 2943   7.243   4.639   5.136  0.1455  0.0418 -0.0861
  200POPC   GL1 2944   7.330   4.639   5.611  0.0381  0.0208 -0.0064
  200POPC   GL2 2945   7.664   4.724   5.727  0.0451  0.0166 -0.0353
  200POPC   C1A 2946   7.167   4.495   6.010 -0.1846 -0.1766  0.0685
  200POPC   D2A 2947   7.001   4.704   6.362  0.0629 -0.0321  0.1192
  200POPC   C3A 2948   7.145   4.594   6.705 -0.0872  0.3422  0.0639
  200POPC   C4A 2949   7.436   4.630   7.122  0.0308  0.0348 -0.1043
  200POPC   C1B 2950   7.502   4.860   6.080 -0.1289 -0.2022  0.0581
  200POPC   C2B 2951   7.386   5.060   6.564  0.0529 -0.0237 -0.1622
  200POPC   C3B 2952   7.270   5.049   6.970  0.0696 -0.1263  0.2626
  200POPC   C4B 2953   7.089   4.864   7.360 -0.2371 -0.1611 -0.2535
  201POPC   NC3 2954   9.967   6.966   4.879  0.0796  0.3346 -0.3153
  201POPC   PO4 2955  10.384   6.630   5.079 -0.0195 -0.1457  0.0533
  201POPC   GL1 2956  10.527   6.440   5.497  0.1915 -0.1231  0.2637
  201POPC   GL2 2957  10.474   6.677   5.854  0.1165 -0.1555 -0.4766
  201POPC   C1A 2958  10.596   6.158   5.911  0.0692  0.2448 -0.0717
  201POPC   D2A 2959  10.266   6.082   6.250 -0.1335 -0.0071 -0.1857
  201POPC   C3A 2960  10.427   6.055   6.700 -0.2762  0.0835  0.1101
  201POPC   C4A 2961  10.257   5.674   6.845 -0.0445  0.0528  0.1262
  201POPC   C1B 2962  10.579   7.066   6.038 -0.2649  0.2655  0.2395
  201POPC   C2B 2963  10.700   7.183   6.465 -0.2848  0.2769 -0.0338
  201POPC   C3B 2964  10.839   7.207   6.867  0.1854 -0.3703 -0.1853
  201POPC   C4B 2965  10.818   7.376   7.251 -0.3096 -0.0220  0.1268
  202POPC   NC3 2966   9.417  10.044   5.381  0.0963  0.1331  0.0204
  202POPC   PO4 2967   9.621   9.728   5.527  0.2009 -0.0031  0.0166
  202POPC   GL1 2968   9.410   9.864   5.974 -0.2271 -0.3628 -0.0702
  202POPC   GL2 2969   9.464   9.640   6.187  0.2170 -0.2030  0.0175
  202POPC   C1A 2970   9.129  10.026   6.318  0.1026  0.0788  0.0871
  202POPC   D2A 2971   9.124  10.469   6.514  0.0163 -0.0991 -0.5457
  202POPC   C3A 2972   9.485  10.687   6.291  0.0899  0.1926 -0.0059
  202POPC   C4A 2973   9.477  10.779   5.892  0.2832 -0.2205 -0.0757
  202POPC   C1B 2974   9.786   9.675   6.534  0.3159  0.0572  0.0106
  202POPC   C2B 2975   9.831   9.848   6.923 -0.1951  0.1990  0.1780
  202POPC   C3B 2976   9.494   9.849   7.215 -0.1979 -0.0716 -0.0102
  202POPC   C4B 2977   9.745   9.672   7.554 -0.0995 -0.0376  0.0493
  203POPC   NC3 2978   8.548   4.026   5.362 -0.0107 -0.1218  0.1465
  203POPC   PO4 2979   8.328   4.287   4.998 -0.0694  0.1234 -0.0609
  203POPC   GL1 2980   8.313   4.426   5.424  0.0492 -0.1070  0.1091
  203POPC   GL2 2981   8.030   4.425   5.642 -0.2884 -0.2500 -0.0129
  203POPC   C1A 2982   8.455   4.755   5.840  0.2830  0.2751  0.3175
  203POPC   D2A 2983   8.012   4.997   5.996  0.0309  0.1917 -0.0461
  203POPC   C3A 2984   7.977   5.081   6.540 -0.0093  0.4582  0.0202
  203POPC   C4A 2985   7.764   5.229   6.909  0.0017  0.1743 -0.0234
  203POPC   C1B 2986   8.056   4.435   5.982  0.0296  0.0294 -0.2005
  203POPC   C2B 2987   8.200   4.484   6.387 -0.4555  0.1279 -0.0137
  203POPC   C3B 2988   8.414   4.874   6.366 -0.1259 -0.2813 -0.0573
  203POPC   C4B 2989   8.840   5.079   6.612  0.0700 -0.0399  0.1061
  204POPC   NC3 2990   3.384   6.234   4.551  0.0048  0.2354 -0.2175
  204POPC   PO4 2991   3.423   5.792   4.722 -0.0371 -0.0899  0.0329
  204POPC   GL1 2992   3.317   6.056   5.141 -0.1554 -0.0038  0.1064
  204POPC   GL2 2993   3.024   6.073   5.421  0.0127 -0.1353  0.3575
  204POPC   C1A 2994   3.435   6.293   5.588 -0.0815 -0.1202  0.1777
  204POPC   D2A 2995   3.714   6.134   5.991 -0.0736  0.3183 -0.0650
  204POPC   C3A 2996   3.450   6.010   6.308  0.0182  0.2771  0.1656
  204POPC   C4A 2997   3.327   5.873   6.637  0.2458  0.3520  0.0802
  204POPC   C1B 2998   3.078   5.965   5.859  0.2929  0.1034  0.2245
  204POPC   C2B 2999   3.033   5.722   6.191  0.0540  0.0415 -0.2850
  204POPC   C3B 3000   3.196   5.413   6.474  0.1748  0.1778  0.0996
  204POPC   C4B 3001   3.149   5.094   6.760 -0.3818 -0.0764  0.1267
  205POPC   NC3 3002   4.451   3.961   5.562  0.1150 -0.1557 -0.2058
  205POPC   PO4 3003   4.744   4.223   5.451  0.1245  0.0550 -0.3028
  205POPC   GL1 3004   5.079   4.512   5.721 -0.0664  0.0208 -0.1373
  205POPC   GL2 3005   5.038   4.888   5.804  0.0367 -0.1987  0.3419
  205POPC   C1A 3006   4.948   4.420   6.134 -0.0406 -0.1753 -0.1568
  205POPC   D2A 3007   5.078   4.511   6.449  0.1375  0.1269  0.1376
  205POPC   C3A 3008   4.828   4.626   6.829  0.1340  0.1763  0.0780
  205POPC   C4A 3009   4.614   4.916   7.065  0.0627  0.0910  0.0196
  205POPC   C1B 3010   5.352   4.742   6.113 -0.2281 -0.2782 -0.0830
  205POPC   C2B 3011   5.401   4.844   6.642 -0.0428  0.5353  0.1501
  205POPC   C3B 3012   5.247   4.726   7.064  0.2975 -0.4154  0.1060
  205POPC   C4B 3013   4.990   4.500   7.471 -0.4529  0.0701 -0.2596
  206POPC   NC3 3014   9.396   3.530   5.161  0.0505 -0.2523  0.0508
  206POPC   PO4 3015   9.893   3.470   5.193 -0.2669 -0.0595 -0.1380
  206POPC   GL1 3016  10.156   3.365   5.588 -0.1367  0.1511  0.0005
  206POPC   GL2 3017  10.091   3.181   5.845  0.0797  0.2648  0.1119
  206POPC   C1A 3018  10.496   3.437   5.839  0.2240  0.1448 -0.1241
  206POPC   D2A 3019  10.729   3.298   6.145  0.1524  0.1124 -0.0213
  206POPC   C3A 3020  11.111   3.343   6.022  0.0354 -0.1686 -0.2037
  206POPC   C4A 3021  11.349   3.591   5.681 -0.2469  0.0317 -0.1219
  206POPC   C1B 3022   9.702   2.857   5.852 -0.0060  0.3269  0.0629
  206POPC   C2B 3023   9.444   2.666   6.121 -0.1943  0.1273  0.4072
  206POPC   C3B 3024   8.943   2.841   6.304 -0.0263 -0.2728  0.2576
  206POPC   C4B 3025   8.702   3.116   6.563  0.2183 -0.0491 -0.0614
  207POPC   NC3 3026   4.277   0.054   3.484  0.0937  0.0077 -0.5605
  207POPC   PO4 3027   4.103  -0.193   3.927 -0.0876 -0.2715  0.1199
  207POPC   GL1 3028   3.995  -0.415   4.318  0.0456 -0.2845 -0.3530
  207POPC   GL2 3029   3.875  -0.820   4.352  0.0415  0.1453  0.1327
  207POPC   C1A 3030   4.157  -0.510   4.693 -0.3045 -0.2197 -0.0603
  207POPC   D2A 3031   4.431  -0.774   4.941 -0.1001  0.1691 -0.3185
  207POPC   C3A 3032   4.866  -0.700   5.163 -0.1593 -0.1901  0.3392
  207POPC   C4A 3033   4.945  -0.413   5.460  0.2277 -0.1124 -0.3722
  207POPC   C1B 3034   4.181  -1.113   4.614 -0.1319  0.4323  0.0147
  207POPC   C2B 3035   4.521  -1.276   5.039 -0.0199  0.2900  0.2218
  207POPC   C3B 3036   4.898  -1.146   5.168 -0.0350  0.3241 -0.1098
  207POPC   C4B 3037   5.118  -1.043   5.544  0.1632  0.1432  0.2393
  208POPC   NC3 3038   8.103   8.762   3.900 -0.3314 -0.3070 -0.1315
  208POPC   PO4 3039   7.709   8.831   3.801 -0.0647 -0.0463  0.2174
  208POPC   GL1 3040   7.703   9.017   4.251 -0.1362  0.0062 -0.0311
  208POPC   GL2 3041   7.435   9.206   4.158 -0.3958  0.0653  0.0222
  208POPC   C1A 3042   7.550   8.776   4.682 -0.0836 -0.1578  0.0680
  208POPC   D2A 3043   7.318   8.693   5.047  0.1603  0.2902 -0.2061
  208POPC   C3A 3044   7.218   8.730   5.441 -0.3355  0.0436  0.0961
  208POPC   C4A 3045   7.374   8.567   5.848 -0.1030  0.0458 -0.1725
  208POPC   C1B 3046   7.188   8.977   4.325  0.0216  0.1726  0.3343
  208POPC   C2B 3047   7.015   8.791   4.563  0.0060  0.0883 -0.1957
  208POPC   C3B 3048   6.951   8.980   4.988  0.1183 -0.1319  0.1532
  208POPC   C4B 3049   6.739   8.646   5.187  0.0259  0.2708 -0.5841
  209POPC   NC3 3050   8.695   5.159   4.848  0.0589 -0.2534 -0.3134
  209POPC   PO4 3051   8.925   4.902   5.221 -0.1439 -0.0586 -0.0232
  209POPC   GL1 3052   8.844   5.099   5.609  0.1535 -0.0410 -0.0750
  209POPC   GL2 3053   8.965   5.456   5.642 -0.0711  0.0793 -0.0941
  209POPC   C1A 3054   8.597   5.230   5.980  0.0581  0.2414 -0.4365
  209POPC   D2A 3055   8.273   5.362   6.252 -0.2286  0.1866  0.1310
  209POPC   C3A 3056   8.387   5.287   6.731 -0.1849 -0.1335 -0.0992
  209POPC   C4A 3057   8.310   5.144   7.177  0.2984 -0.4518  0.2601
  209POPC   C1B 3058   9.079   5.443   5.925 -0.3005 -0.2356 -0.2650
  209POPC   C2B 3059   8.887   5.573   6.247  0.0163 -0.0390 -0.0024
  209POPC   C3B 3060   8.724   5.640   6.586  0.1734  0.1227  0.0488
  209POPC   C4B 3061   8.452   5.766   6.913 -0.1239  0.1653  0.1731
  210POPC   NC3 3062   8.547   1.632   4.974 -0.1334 -0.0371  0.0339
  210POPC   PO4 3063   8.483   1.649   5.334 -0.0772  0.0150  0.2822
  210POPC   GL1 3064   8.293   1.600   5.737  0.0171  0.2239  0.4006
  210POPC   GL2 3065   7.971   1.682   5.642  0.1479 -0.4109  0.0428
  210POPC   C1A 3066   8.120   1.636   6.137 -0.2718 -0.1380  0.4540
  210POPC   D2A 3067   7.953   1.382   6.489  0.1114  0.1664 -0.2402
  210POPC   C3A 3068   8.255   1.098   6.800 -0.0585  0.2565 -0.3393
  210POPC   C4A 3069   8.393   0.779   7.064 -0.1025 -0.3769 -0.0897
  210POPC   C1B 3070   7.798   1.315   5.875 -0.1868 -0.1968 -0.0498
  210POPC   C2B 3071   7.568   1.188   6.129  0.2100  0.0853 -0.0484
  210POPC   C3B 3072   7.653   0.916   6.470 -0.2650  0.2581 -0.0535
  210POPC   C4B 3073   7.726   0.985   6.858 -0.0001 -0.2062 -0.0920
  211POPC   NC3 3074   5.608   5.273   5.007  0.1671  0.1102 -0.0473
  211POPC   PO4 3075   5.750   4.951   5.215 -0.2752  0.0233 -0.1233
  211POPC   GL1 3076   6.051   5.059   5.481  0.0283  0.2839 -0.1560
  211POPC   GL2 3077   6.095   4.756   5.660  0.0007  0.3316  0.2903
  211POPC   C1A 3078   6.268   5.188   5.858  0.4905  0.1751 -0.0917
  211POPC   D2A 3079   6.342   5.215   6.245 -0.1524 -0.1439 -0.4337
  211POPC   C3A 3080   6.081   5.217   6.581 -0.3417  0.3570  0.0185
  211POPC   C4A 3081   6.015   5.425   7.039 -0.0010  0.1186 -0.3108
  211POPC   C1B 3082   6.057   4.783   6.118 -0.0009  0.0864 -0.2177
  211POPC   C2B 3083   5.858   4.809   6.487  0.2494 -0.1742  0.0822
  211POPC   C3B 3084   5.810   4.910   6.935  0.0144 -0.0441 -0.4575
  211POPC   C4B 3085   5.696   5.130   7.334  0.1169 -0.0904  0.0105
  212POPC   NC3 3086   0.174   2.443   5.090  0.0024  0.1684 -0.1553
  212POPC   PO4 3087  -0.272   2.111   4.947 -0.2237 -0.1950  0.1747
  212POPC   GL1 3088  -0.172   2.031   5.364 -0.0495 -0.1811 -0.0508
  212POPC   GL2 3089  -0.203   1.769   5.518 -0.2005  0.1919 -0.0996
  212POPC   C1A 3090  -0.208   2.154   5.841 -0.2634  0.0248  0.3270
  212POPC   D2A 3091   0.046   2.000   6.071  0.1390  0.3192 -0.0398
  212POPC   C3A 3092  -0.006   1.949   6.546  0.2493 -0.1639 -0.0078
  212POPC   C4A 3093   0.146   1.965   7.062  0.1414 -0.0641  0.0504
  212POPC   C1B 3094  -0.287   1.633   5.988  0.1761 -0.1995  0.0997
  212POPC   C2B 3095  -0.477   1.793   6.354 -0.0198  0.0695 -0.2246
  212POPC   C3B 3096  -0.489   1.838   6.737  0.0373 -0.0564  0.1589
  212POPC   C4B 3097  -0.605   1.551   7.127  0.0503  0.2171 -0.0746
  213POPC   NC3 3098   9.320   4.587   4.954 -0.2438 -0.0450  0.3830
  213POPC   PO4 3099   9.721   4.963   5.186  0.0207  0.0596  0.1081
  213POPC   GL1 3100   9.873   4.745   5.593  0.0405  0.1600 -0.0522
  213POPC   GL2 3101   9.974   4.448   5.590 -0.0108 -0.1855 -0.3080
  213POPC   C1A 3102  10.066   4.739   6.010  0.0841 -0.0656 -0.0194
  213POPC   D2A 3103  10.244   4.776   6.320 -0.3944  0.0712 -0.0867
  213POPC   C3A 3104  10.202   4.458   6.571  0.0659  0.1100  0.1263
  213POPC   C4A 3105  10.016   4.255   6.961 -0.2626 -0.1868  0.0889
  213POPC   C1B 3106   9.640   4.408   5.934  0.0415 -0.0177 -0.2240
  213POPC   C2B 3107   9.299   4.433   6.257  0.0667 -0.0140 -0.1449
  213POPC   C3B 3108   9.053   4.245   6.615  0.1160  0.2748  0.0167
  213POPC   C4B 3109   9.265   4.180   7.021 -0.0225  0.0619 -0.0559
  214POPC   NC3 3110   8.040   1.716   5.148  0.1226  0.1811  0.1354
  214POPC   PO4 3111   8.194   1.304   4.900 -0.0313 -0.0316 -0.1323
  214POPC   GL1 3112   8.150   1.255   5.350  0.2948 -0.1405  0.0615
  214POPC   GL2 3113   7.788   1.328   5.376 -0.0220 -0.1614 -0.0452
  214POPC   C1A 3114   8.165   0.918   5.768  0.1524 -0.1075  0.1611
  214POPC   D2A 3115   8.064   0.938   6.188 -0.0050  0.0321 -0.0916
  214POPC   C3A 3116   8.093   0.538   6.388 -0.0020 -0.1394  0.1024
  214POPC   C4A 3117   8.398   0.390   6.676  0.0682 -0.1339 -0.0769
  214POPC   C1B 3118   7.713   0.892   5.549  0.2785  0.2123  0.2300
  214POPC   C2B 3119   7.617   0.714   5.942 -0.0692  0.0352 -0.0077
  214POPC   C3B 3120   7.523   0.455   6.324 -0.2685 -0.0195 -0.1852
  214POPC   C4B 3121   7.213   0.354   6.615 -0.1552  0.0938  0.2021
  215POPC   NC3 3122   8.535   5.663   4.709 -0.0137  0.0786 -0.0914
  215POPC   PO4 3123   8.866   5.596   5.081  0.1598 -0.0310 -0.0029
  215POPC   GL1 3124   8.545   5.767   5.360  0.0463  0.2237  0.0031
  215POPC   GL2 3125   8.495   6.052   5.270 -0.1665 -0.1343  0.2083
  215POPC   C1A 3126   8.460   5.768   5.781  0.1860 -0.0692 -0.3556
  215POPC   D2A 3127   8.491   6.007   6.176  0.2009 -0.2879  0.4016
  215POPC   C3A 3128   8.303   5.835   6.389  0.1244  0.2123  0.1436
  215POPC   C4A 3129   7.990   5.572   6.636 -0.2538  0.1332 -0.4230
  215POPC   C1B 3130   8.209   6.233   5.560 -0.1205  0.1015 -0.2143
  215POPC   C2B 3131   7.947   6.020   5.877  0.0035  0.1527 -0.3239
  215POPC   C3B 3132   7.768   6.108   6.298  0.2681  0.0621 -0.1104
  215POPC   C4B 3133   7.568   5.904   6.624  0.2088 -0.1030  0.0248
  216POPC   NC3 3134   2.458   5.089   4.972  0.2374  0.2744 -0.1858
  216POPC   PO4 3135   2.570   5.491   5.205  0.0001 -0.0629  0.1373
  216POPC   GL1 3136   2.818   5.627   5.519 -0.1492 -0.0058  0.2280
  216POPC   GL2 3137   3.135   5.491   5.429  0.1646 -0.0725 -0.0078
  216POPC   C1A 3138   2.745   5.586   5.845 -0.0728  0.1008 -0.1358
  216POPC   D2A 3139   2.515   5.584   6.238 -0.0437  0.3381 -0.1611
  216POPC   C3A 3140   2.661   5.300   6.539  0.2958 -0.1468  0.0585
  216POPC   C4A 3141   2.679   5.377   6.911  0.1057  0.1326  0.2884
  216POPC   C1B 3142   3.351   5.477   5.866  0.2432  0.0972 -0.0640
  216POPC   C2B 3143   3.637   5.501   6.337  0.0375 -0.1971 -0.0414
  216POPC   C3B 3144   3.817   5.803   6.544 -0.3242 -0.0099  0.0851
  216POPC   C4B 3145   4.159   6.183   6.526 -0.1622  0.0658  0.0983
  217POPC   NC3 3146   1.698   6.200   4.543  0.1058  0.0384 -0.1352
  217POPC   PO4 3147   1.603   5.955   5.007  0.1202  0.1167  0.0421
  217POPC   GL1 3148   1.742   6.156   5.414  0.0252 -0.1333  0.2864
  217POPC   GL2 3149   1.987   6.299   5.487  0.1834  0.0891  0.1973
  217POPC   C1A 3150   1.667   6.110   5.837  0.1726 -0.2030  0.0932
  217POPC   D2A 3151   1.540   6.166   6.239  0.3151 -0.0737 -0.1555
  217POPC   C3A 3152   1.416   5.811   6.550  0.0685  0.2235 -0.0784
  217POPC   C4A 3153   1.889   5.720   6.692  0.0142 -0.4761 -0.1515
  217POPC   C1B 3154   2.276   6.350   5.849  0.2460  0.1486 -0.5158
  217POPC   C2B 3155   2.507   6.119   6.199 -0.1460 -0.3351  0.0045
  217POPC   C3B 3156   2.771   6.225   6.592  0.1352  0.0635 -0.1242
  217POPC   C4B 3157   2.583   6.357   6.964 -0.1728  0.3370  0.0376
  218POPC   NC3 3158   3.207   6.845   4.471  0.0521 -0.1277  0.2231
  218POPC   PO4 3159   3.267   6.604   4.878 -0.0938  0.2677 -0.0323
  218POPC   GL1 3160   3.588   6.582   5.121 -0.1092  0.1504  0.2015
  218POPC   GL2 3161   3.765   6.250   4.986  0.0861  0.1435  0.2177
  218POPC   C1A 3162   3.809   6.655   5.552 -0.1783 -0.1920  0.1545
  218POPC   D2A 3163   3.604   6.688   5.915  0.1307  0.0676 -0.1333
  218POPC   C3A 3164   3.421   6.989   6.192  0.2859 -0.0649 -0.1746
  218POPC   C4A 3165   3.477   7.139   6.585 -0.2493 -0.0432 -0.1455
  218POPC   C1B 3166   3.814   6.154   5.294  0.0450  0.0159 -0.1436
  218POPC   C2B 3167   3.991   6.213   5.609 -0.1080 -0.0008  0.1890
  218POPC   C3B 3168   4.200   6.190   5.985  0.3941  0.2469 -0.4530
  218POPC   C4B 3169   4.426   5.887   6.237 -0.3678  0.2919  0.0960
  219POPC   NC3 3170  10.061   1.806   4.549 -0.1072  0.1890  0.0285
  219POPC   PO4 3171  10.193   1.369   4.789 -0.1318  0.2259 -0.0013
  219POPC   GL1 3172  10.209   1.440   5.177  0.2438  0.0011 -0.0153
  219POPC   GL2 3173  10.513   1.642   5.416  0.1195  0.3384  0.0003
  219POPC   C1A 3174  10.133   1.268   5.543  0.2422 -0.2272  0.0704
  219POPC   D2A 3175  10.103   1.204   6.057 -0.0565  0.0529 -0.0689
  219POPC   C3A 3176  10.036   1.449   6.563  0.2569 -0.0394  0.1731
  219POPC   C4A 3177  10.179   1.525   6.941  0.0702  0.1942 -0.1533
  219POPC   C1B 3178  10.478   1.565   5.853 -0.0977  0.2139 -0.2917
  219POPC   C2B 3179  10.535   1.626   6.352 -0.0181 -0.1593  0.1300
  219POPC   C3B 3180  10.660   1.588   6.796  0.1344 -0.1574 -0.3980
  219POPC   C4B 3181  10.814   1.725   7.217  0.0350  0.1483  0.0055
  220POPC   NC3 3182   3.456   4.239   4.874  0.5087  0.2223 -0.1100
  220POPC   PO4 3183   3.799   4.459   4.887 -0.2997  0.1176  0.1655
  220POPC   GL1 3184   3.871   4.684   5.251  0.1985  0.0681  0.1096
  220POPC   GL2 3185   3.590   4.883   5.350  0.0026  0.2330 -0.2460
  220POPC   C1A 3186   4.195   4.920   5.515 -0.0204  0.2312 -0.3380
  220POPC   D2A 3187   4.252   5.222   5.787 -0.4984 -0.0411 -0.1512
  220POPC   C3A 3188   4.737   5.374   5.963  0.2096  0.0165 -0.2727
  220POPC   C4A 3189   5.126   5.305   5.945 -0.0784 -0.0884 -0.1213
  220POPC   C1B 3190   3.572   5.007   5.734 -0.0522  0.2694 -0.0891
  220POPC   C2B 3191   3.861   5.109   6.108  0.1755  0.0665 -0.1925
  220POPC   C3B 3192   4.189   4.979   6.464 -0.3179  0.1148 -0.1254
  220POPC   C4B 3193   4.468   4.742   6.455 -0.0174  0.3638  0.1116
  221POPC   NC3 3194   0.717   5.372   4.735 -0.0894 -0.2794  0.0611
  221POPC   PO4 3195   1.127   5.193   4.748  0.1017  0.2898  0.1840
  221POPC   GL1 3196   1.177   5.011   5.223 -0.1294 -0.1480 -0.2333
  221POPC   GL2 3197   0.930   5.244   5.230  0.0993 -0.0077 -0.0110
  221POPC   C1A 3198   1.017   4.945   5.669 -0.2998  0.2651  0.3387
  221POPC   D2A 3199   1.142   4.795   6.068 -0.0253  0.0039  0.1499
  221POPC   C3A 3200   1.245   4.424   6.029 -0.4301  0.0659 -0.1566
  221POPC   C4A 3201   1.060   4.053   5.899 -0.2821 -0.0209  0.3064
  221POPC   C1B 3202   0.802   5.577   5.478 -0.0246  0.4806 -0.1670
  221POPC   C2B 3203   0.922   5.502   5.918  0.1068 -0.2031 -0.1033
  221POPC   C3B 3204   0.985   5.826   6.285 -0.0962  0.2422 -0.1566
  221POPC   C4B 3205   0.899   5.815   6.643  0.3221  0.1064  0.3618
  222POPC   NC3 3206   4.783   2.552   5.207 -0.0487  0.1161  0.2570
  222POPC   PO4 3207   4.498   2.212   5.153  0.2268  0.1357 -0.2892
  222POPC   GL1 3208   4.843   2.055   5.415 -0.0440  0.1363  0.1209
  222POPC   GL2 3209   5.087   2.187   5.555 -0.0689 -0.4776  0.0948
  222POPC   C1A 3210   4.878   1.744   5.648  0.3478 -0.2393 -0.1489
  222POPC   D2A 3211   4.890   1.494   6.019  0.1742  0.1093  0.0012
  222POPC   C3A 3212   5.120   1.612   6.382 -0.0113 -0.2506 -0.1909
  222POPC   C4A 3213   4.962   1.530   6.744 -0.0971 -0.0249  0.0355
  222POPC   C1B 3214   5.183   2.386   5.841 -0.0151  0.0513  0.0104
  222POPC   C2B 3215   5.212   2.676   6.156 -0.0981 -0.0211  0.0109
  222POPC   C3B 3216   5.305   3.065   6.330 -0.0420  0.2078 -0.0982
  222POPC   C4B 3217   5.186   3.208   6.741  0.0805  0.3224  0.0189
  223POPC   NC3 3218   6.790   1.260   4.575  0.1294  0.1122  0.1446
  223POPC   PO4 3219   6.786   1.592   4.863 -0.2847 -0.0091  0.1559
  223POPC   GL1 3220   6.540   1.517   5.236 -0.0604 -0.0584  0.2156
  223POPC   GL2 3221   6.465   1.802   5.419  0.0546  0.0022 -0.1953
  223POPC   C1A 3222   6.429   1.390   5.677 -0.0811 -0.0132  0.1672
  223POPC   D2A 3223   6.250   1.397   6.015 -0.2107  0.1279 -0.1517
  223POPC   C3A 3224   6.277   1.077   6.314 -0.2825 -0.2080  0.0822
  223POPC   C4A 3225   5.889   1.012   6.561 -0.0104  0.1930 -0.2459
  223POPC   C1B 3226   6.586   1.847   5.882 -0.0083  0.2128  0.5182
  223POPC   C2B 3227   6.520   1.761   6.293  0.2122 -0.1404 -0.1329
  223POPC   C3B 3228   6.515   1.434   6.589  0.4055 -0.0007 -0.2891
  223POPC   C4B 3229   6.380   1.253   6.900 -0.0552 -0.2408  0.0624
  224POPC   NC3 3230   1.947   3.222   5.645 -0.1462  0.0283  0.1030
  224POPC   PO4 3231   2.323   3.223   5.404  0.0729  0.1523  0.0094
  224POPC   GL1 3232   2.534   3.075   5.748 -0.1469  0.0931 -0.1538
  224POPC   GL2 3233   2.323   3.025   5.958 -0.3994 -0.1821  0.0220
  224POPC   C1A 3234   2.757   3.294   6.142 -0.1453 -0.0338  0.0736
  224POPC   D2A 3235   3.128   3.402   6.408  0.0186 -0.0988  0.0671
  224POPC   C3A 3236   3.479   3.163   6.543  0.1496 -0.2472 -0.0721
  224POPC   C4A 3237   3.908   3.033   6.529 -0.1181  0.0794 -0.0172
  224POPC   C1B 3238   2.523   2.926   6.313 -0.0746  0.0388 -0.0649
  224POPC   C2B 3239   2.523   2.879   6.813  0.1994  0.0304 -0.1078
  224POPC   C3B 3240   2.358   2.739   7.110  0.2454  0.0012  0.0555
  224POPC   C4B 3241   2.294   2.995   7.468 -0.0956 -0.3344  0.1610
  225POPC   NC3 3242  10.128   4.312   5.010 -0.0410 -0.2870 -0.2565
  225POPC   PO4 3243   9.776   4.311   5.110 -0.0302  0.0843 -0.0479
  225POPC   GL1 3244   9.435   4.480   5.437 -0.0186 -0.0934  0.0217
  225POPC   GL2 3245   9.369   4.816   5.476 -0.1164  0.1601  0.4856
  225POPC   C1A 3246   9.160   4.379   5.743 -0.4187  0.2231  0.1791
  225POPC   D2A 3247   8.972   4.767   6.038 -0.1102 -0.0612  0.1561
  225POPC   C3A 3248   9.273   5.019   6.338 -0.0960  0.1865  0.0442
  225POPC   C4A 3249   9.423   5.186   6.798  0.1151 -0.2143 -0.0434
  225POPC   C1B 3250   9.539   4.921   5.939  0.0749 -0.1655 -0.2749
  225POPC   C2B 3251   9.716   4.737   6.380 -0.1749  0.0690  0.2825
  225POPC   C3B 3252   9.627   4.410   6.647  0.0161 -0.1424  0.1895
  225POPC   C4B 3253   9.456   3.961   6.633 -0.3104 -0.0027  0.0752
  226POPC   NC3 3254   0.933   9.439   5.301  0.3064  0.0943 -0.0149
  226POPC   PO4 3255   1.099   9.745   5.145  0.0510 -0.3042  0.2742
  226POPC   GL1 3256   1.318   9.647   5.602 -0.2030 -0.1507  0.1303
  226POPC   GL2 3257   1.075   9.546   5.821 -0.0020 -0.0333  0.0927
  226POPC   C1A 3258   1.621   9.229   5.800 -0.0078 -0.0520  0.1294
  226POPC   D2A 3259   1.861   9.115   6.161 -0.0120 -0.0216 -0.1830
  226POPC   C3A 3260   1.703   9.198   6.478  0.2408 -0.1154 -0.2852
  226POPC   C4A 3261   1.502   9.127   6.885 -0.4243 -0.1566 -0.0859
  226POPC   C1B 3262   1.301   9.335   6.163  0.1038  0.1316 -0.0353
  226POPC   C2B 3263   1.062   9.357   6.495  0.3156 -0.1126  0.0745
  226POPC   C3B 3264   1.221   9.607   6.901 -0.2960  0.2098 -0.0858
  226POPC   C4B 3265   1.091   9.761   7.275  0.1686  0.2586  0.0590
  227POPC   NC3 3266   8.866   8.186   3.560  0.3235  0.1624 -0.0388
  227POPC   PO4 3267   8.494   7.938   3.845  0.3954 -0.0723  0.0101
  227POPC   GL1 3268   8.299   8.269   4.163  0.0199  0.4129 -0.0938
  227POPC   GL2 3269   7.903   8.327   4.129 -0.1007 -0.0004  0.0187
  227POPC   C1A 3270   8.268   8.215   4.613 -0.2892 -0.0172  0.1662
  227POPC   D2A 3271   8.526   8.302   5.084  0.2068  0.0106 -0.1224
  227POPC   C3A 3272   8.778   8.159   5.334 -0.3954  0.2687  0.1810
  227POPC   C4A 3273   9.129   8.099   5.527  0.2601  0.0620  0.2137
  227POPC   C1B 3274   7.779   8.333   4.600 -0.3127 -0.0801  0.1850
  227POPC   C2B 3275   8.027   7.988   4.945  0.1851 -0.2549  0.1352
  227POPC   C3B 3276   8.548   7.806   4.954 -0.0859  0.0975  0.3805
  227POPC   C4B 3277   9.054   7.905   4.991  0.0997 -0.0363  0.4288
  228POPC   NC3 3278   3.559   7.341   3.722  0.2161  0.1359  0.2336
  228POPC   PO4 3279   3.337   7.138   4.062 -0.1572  0.1444 -0.1960
  228POPC   GL1 3280   3.493   7.425   4.441 -0.0782  0.0338 -0.2122
  228POPC   GL2 3281   3.648   7.033   4.587 -0.1112 -0.2935  0.1196
  228POPC   C1A 3282   3.462   7.335   5.019  0.3919  0.0585  0.1649
  228POPC   D2A 3283   3.099   7.429   5.332  0.0440 -0.0620  0.0481
  228POPC   C3A 3284   3.168   7.294   5.820  0.0762 -0.1442  0.1146
  228POPC   C4A 3285   3.181   7.434   6.315  0.2469  0.1512 -0.0204
  228POPC   C1B 3286   3.878   7.386   4.873 -0.5034 -0.0269 -0.0003
  228POPC   C2B 3287   3.953   7.761   5.104  0.2487 -0.0941 -0.2996
  228POPC   C3B 3288   4.055   7.744   5.522  0.1656 -0.1092 -0.0323
  228POPC   C4B 3289   4.169   7.563   5.863 -0.2617 -0.0837  0.0048
  229POPC   NC3 3290   9.242   5.319   5.226 -0.0204  0.1848 -0.0396
  229POPC   PO4 3291   9.671   5.522   5.199 -0.0734 -0.1239  0.1969
  229POPC   GL1 3292   9.450   5.822   5.467 -0.4600 -0.0240 -0.2153
  229POPC   GL2 3293   9.482   6.200   5.329  0.2090 -0.0640  0.1639
  229POPC   C1A 3294   9.419   5.814   5.879 -0.0397  0.2472 -0.1767
  229POPC   D2A 3295   9.283   6.204   6.016  0.2432  0.2783  0.1199
  229POPC   C3A 3296   9.379   6.317   6.448 -0.1808  0.0043 -0.0003
  229POPC   C4A 3297   9.514   6.508   6.797 -0.0004 -0.2415 -0.2398
  229POPC   C1B 3298   9.714   6.200   5.749  0.1283 -0.0615  0.0366
  229POPC   C2B 3299   9.816   6.060   6.156  0.1522  0.0136 -0.0214
  229POPC   C3B 3300   9.795   5.785   6.277 -0.0317 -0.0681 -0.0045
  229POPC   C4B 3301   9.395   5.818   6.375  0.0432 -0.0939 -0.0755
  230POPC   NC3 3302   7.941   2.395   4.840  0.2292 -0.0326  0.0044
  230POPC   PO4 3303   7.756   2.280   5.255 -0.2186 -0.0449 -0.1756
  230POPC   GL1 3304   7.901   2.207   5.756 -0.3412  0.3077 -0.1393
  230POPC   GL2 3305   8.029   2.517   6.001 -0.1340 -0.1974 -0.1763
  230POPC   C1A 3306   7.706   1.856   6.018 -0.0913  0.1035 -0.1047
  230POPC   D2A 3307   7.409   1.576   6.403 -0.2562 -0.0503 -0.3682
  230POPC   C3A 3308   7.013   1.325   6.474 -0.0789 -0.1842 -0.0169
  230POPC   C4A 3309   6.695   0.877   6.438  0.0558 -0.1717  0.0317
  230POPC   C1B 3310   8.217   2.693   6.387  0.1260  0.3426  0.1589
  230POPC   C2B 3311   8.379   2.806   6.767  0.0695 -0.2105  0.2604
  230POPC   C3B 3312   8.463   3.106   7.133 -0.0541 -0.2719  0.1399
  230POPC   C4B 3313   8.333   3.191   7.497 -0.1551  0.0564  0.1831
  231POPC   NC3 3314   2.901   2.298   4.800 -0.0147 -0.3735  0.1486
  231POPC   PO4 3315   3.206   2.276   4.976 -0.3757  0.0789 -0.2919
  231POPC   GL1 3316   3.356   2.118   5.433  0.0350  0.3497  0.1869
  231POPC   GL2 3317   3.154   2.103   5.628  0.2531  0.0438  0.0368
  231POPC   C1A 3318   3.698   1.960   5.732  0.4194 -0.1352 -0.0193
  231POPC   D2A 3319   4.033   1.844   5.932  0.2657 -0.1309 -0.1975
  231POPC   C3A 3320   4.329   1.820   6.153  0.0190  0.1456 -0.2212
  231POPC   C4A 3321   4.265   2.121   6.339 -0.0683 -0.0257  0.1954
  231POPC   C1B 3322   3.277   1.737   5.813  0.0335  0.4228  0.0251
  231POPC   C2B 3323   3.191   1.334   5.936 -0.2678  0.0247  0.1298
  231POPC   C3B 3324   3.236   1.217   6.339 -0.4339  0.0847 -0.1936
  231POPC   C4B 3325   3.251   0.955   6.745  0.3655 -0.2019  0.3041
  232POPC   NC3 3326   0.251   5.931   4.568 -0.0267 -0.0292 -0.2201
  232POPC   PO4 3327   0.454   5.754   4.901  0.3085  0.0715  0.1614
  232POPC   GL1 3328   0.310   5.641   5.361 -0.3828  0.3068 -0.1843
  232POPC   GL2 3329   0.540   5.995   5.461  0.0404 -0.0034 -0.1419
  232POPC   C1A 3330   0.242   5.597   5.791  0.2495 -0.1435 -0.0131
  232POPC   D2A 3331   0.085   5.168   5.917 -0.0595 -0.3507 -0.1663
  232POPC   C3A 3332  -0.357   5.209   6.164  0.2549  0.3315 -0.0656
  232POPC   C4A 3333  -0.694   5.409   6.133  0.0146  0.2478  0.0076
  232POPC   C1B 3334   0.832   5.979   5.846  0.1799  0.2016  0.1822
  232POPC   C2B 3335   1.119   6.194   5.989  0.0574 -0.0489 -0.0477
  232POPC   C3B 3336   1.047   6.308   6.360  0.1365  0.1470 -0.0847
  232POPC   C4B 3337   1.187   6.230   6.809  0.0054 -0.0328 -0.3274
  233POPC   NC3 3338   3.292   1.833   4.812 -0.1269  0.0678  0.0589
  233POPC   PO4 3339   3.101   1.761   5.146  0.0686 -0.1771  0.0817
  233POPC   GL1 3340   2.869   1.669   5.486  0.0329  0.1097  0.3658
  233POPC   GL2 3341   2.925   1.331   5.489  0.1993 -0.0049 -0.0815
  233POPC   C1A 3342   2.695   1.514   5.957  0.2204 -0.2939  0.0828
  233POPC   D2A 3343   2.512   1.701   6.326 -0.2560  0.0595  0.0245
  233POPC   C3A 3344   2.352   1.561   6.731 -0.0214  0.0400  0.0100
  233POPC   C4A 3345   2.404   1.327   6.952  0.1864 -0.2085 -0.4126
  233POPC   C1B 3346   3.248   0.942   5.459  0.1917 -0.1721 -0.1119
  233POPC   C2B 3347   3.459   0.825   5.850  0.3018  0.2530  0.0967
  233POPC   C3B 3348   3.272   0.714   6.285  0.0079  0.1943 -0.0521
  233POPC   C4B 3349   2.972   0.467   6.598 -0.3483 -0.1070 -0.2142
  234POPC   NC3 3350   4.793   1.097   4.278 -0.0200  0.1092 -0.2602
  234POPC   PO4 3351   5.009   0.970   4.607  0.2902  0.0863  0.0972
  234POPC   GL1 3352   5.104   0.673   4.947  0.0524  0.1091 -0.0834
  234POPC   GL2 3353   5.231   0.742   5.230 -0.0126 -0.0237 -0.0694
  234POPC   C1A 3354   5.047   0.193   5.207 -0.0885 -0.0752 -0.0252
  234POPC   D2A 3355   5.087   0.084   5.706  0.3135 -0.0196 -0.0839
  234POPC   C3A 3356   5.551   0.137   5.903  0.0295 -0.0573 -0.0608
  234POPC   C4A 3357   5.879  -0.210   5.997  0.2638  0.2515  0.1308
  234POPC   C1B 3358   5.216   0.625   5.718 -0.2302 -0.2477 -0.0371
  234POPC   C2B 3359   5.280   0.623   6.126  0.2043  0.0836 -0.0856
  234POPC   C3B 3360   5.487   0.800   6.522  0.3057  0.3730  0.1483
  234POPC   C4B 3361   5.521   1.335   6.633  0.0050  0.1882 -0.1330
  235POPC   NC3 3362   7.467   2.941   5.424 -0.2097  0.0415 -0.0619
  235POPC   PO4 3363   7.228   2.434   5.405  0.0034 -0.1365 -0.0452
  235POPC   GL1 3364   7.050   2.674   5.758 -0.0058 -0.0517  0.0569
  235POPC   GL2 3365   7.024   2.974   5.716  0.0422  0.2300  0.2329
  235POPC   C1A 3366   7.233   2.779   6.140  0.0187  0.0783 -0.1510
  235POPC   D2A 3367   7.292   3.069   6.470  0.4708  0.1174  0.2453
  235POPC   C3A 3368   7.082   3.265   6.661  0.1176 -0.0520  0.1934
  235POPC   C4A 3369   6.905   3.121   7.047  0.0169  0.1335 -0.2568
  235POPC   C1B 3370   6.869   3.132   6.194  0.1302 -0.0338 -0.0518
  235POPC   C2B 3371   6.625   3.210   6.577 -0.2325  0.1852 -0.0706
  235POPC   C3B 3372   6.426   3.189   7.068  0.0927  0.2864 -0.1467
  235POPC   C4B 3373   6.329   2.872   7.474 -0.3798 -0.1551 -0.4116
  236POPC   NC3 3374   8.901   6.714   4.210 -0.1248  0.2207  0.3657
  236POPC   PO4 3375   8.487   6.640   4.343 -0.0337 -0.2199  0.0957
  236POPC   GL1 3376   8.252   6.516   4.682  0.2372 -0.2231 -0.2333
  236POPC   GL2 3377   8.495   6.223   4.743  0.1939  0.0173  0.0309
  236POPC   C1A 3378   8.046   6.574   5.070  0.2319 -0.1601  0.0063
  236POPC   D2A 3379   7.648   6.753   5.344  0.0490  0.1710 -0.1101
  236POPC   C3A 3380   7.345   6.980   5.659 -0.0054  0.1502 -0.0457
  236POPC   C4A 3381   7.293   7.054   6.047 -0.1861 -0.0478  0.3589
  236POPC   C1B 3382   8.599   6.456   5.050 -0.0644 -0.1133  0.1756
  236POPC   C2B 3383   8.429   6.754   5.380 -0.0799  0.2041  0.0855
  236POPC   C3B 3384   8.294   6.642   5.757  0.2028 -0.0920  0.0787
  236POPC   C4B 3385   8.136   6.405   6.139  0.0145 -0.0386  0.0332
  237POPC   NC3 3386   6.369   9.100   3.138 -0.0771  0.1136 -0.1037
  237POPC   PO4 3387   6.066   9.265   3.201  0.0934 -0.1501  0.2324
  237POPC   GL1 3388   6.173   9.534   3.564 -0.0677 -0.0484  0.2952
  237POPC   GL2 3389   6.498   9.477   3.732  0.1561  0.0145  0.3287
  237POPC   C1A 3390   6.032   9.392   4.039 -0.0633  0.1769 -0.2514
  237POPC   D2A 3391   6.093   9.468   4.456  0.0220 -0.4508 -0.0134
  237POPC   C3A 3392   6.258   9.198   4.745  0.0053 -0.1253 -0.2355
  237POPC   C4A 3393   6.419   9.001   5.093  0.1035  0.1035 -0.1714
  237POPC   C1B 3394   6.302   9.778   3.968  0.0932 -0.2683 -0.2628
  237POPC   C2B 3395   6.350   9.918   4.285 -0.3792 -0.1140  0.0089
  237POPC   C3B 3396   6.527   9.628   4.683  0.1084  0.0189  0.2224
  237POPC   C4B 3397   6.651   9.441   5.129 -0.1742 -0.2246  0.1066
  238POPC   NC3 3398   8.655  10.198   4.916 -0.1578  0.0654  0.1012
  238POPC   PO4 3399   9.005  10.340   5.109  0.1956  0.2075  0.0752
  238POPC   GL1 3400   8.703  10.476   5.354  0.2806 -0.3560 -0.1020
  238POPC   GL2 3401   8.833  10.651   5.606 -0.0760 -0.0675  0.1168
  238POPC   C1A 3402   8.524  10.201   5.655  0.1213  0.0283  0.1030
  238POPC   D2A 3403   8.263  10.080   6.123 -0.2061 -0.1701  0.1358
  238POPC   C3A 3404   8.300   9.775   6.496  0.1734  0.3471 -0.0398
  238POPC   C4A 3405   8.713   9.759   6.716  0.0602 -0.2613 -0.1676
  238POPC   C1B 3406   8.962  10.753   6.115  0.0283  0.1874 -0.0722
  238POPC   C2B 3407   8.749  10.886   6.419 -0.0556  0.0874 -0.0340
  238POPC   C3B 3408   8.868  11.134   6.784  0.0668 -0.3608 -0.1483
  238POPC   C4B 3409   8.903  11.350   7.142  0.0783 -0.1951  0.0279
  239POPC   NC3 3410   2.328   1.922   5.200 -0.0339 -0.0582 -0.1810
  239POPC   PO4 3411   2.272   2.321   5.375  0.0676 -0.1247 -0.0147
  239POPC   GL1 3412   2.293   2.085   5.695 -0.0685 -0.1862  0.1890
  239POPC   GL2 3413   2.531   1.975   5.703  0.0765  0.0809 -0.0253
  239POPC   C1A 3414   2.211   2.139   6.190 -0.0367  0.1420 -0.1382
  239POPC   D2A 3415   2.321   2.057   6.604 -0.1404 -0.0506 -0.1552
  239POPC   C3A 3416   2.580   2.358   6.841  0.0522  0.0586  0.2890
  239POPC   C4A 3417   2.602   2.300   7.233  0.0680 -0.0703  0.1037
  239POPC   C1B 3418   2.862   1.992   6.017  0.0526 -0.3055 -0.1931
  239POPC   C2B 3419   3.190   2.242   6.214  0.1236  0.1055 -0.1133
  239POPC   C3B 3420   3.622   2.012   6.214 -0.1497 -0.0473 -0.1480
  239POPC   C4B 3421   3.867   1.803   6.499 -0.1571 -0.0920 -0.3406
  240POPC   NC3 3422   5.600   9.220   3.357 -0.0888  0.4484  0.0559
  240POPC   PO4 3423   5.125   9.310   3.207 -0.2488 -0.0275 -0.1970
  240POPC   GL1 3424   5.199   9.217   3.664 -0.2201  0.1212  0.2097
  240POPC   GL2 3425   5.066   8.970   3.753 -0.0719  0.1776 -0.1776
  240POPC   C1A 3426   5.490   9.306   3.969 -0.2449 -0.1671 -0.1161
  240POPC   D2A 3427   5.584   9.326   4.328 -0.1383  0.0140  0.1010
  240POPC   C3A 3428   5.788   8.966   4.472  0.4658 -0.2863 -0.1374
  240POPC   C4A 3429   5.862   8.803   4.872 -0.2120  0.0164  0.3925
  240POPC   C1B 3430   4.795   8.744   4.168 -0.2729  0.1012  0.0213
  240POPC   C2B 3431   5.066   8.616   4.506 -0.4360  0.1881 -0.4007
  240POPC   C3B 3432   5.157   8.219   4.805 -0.2050 -0.1102  0.2545
  240POPC   C4B 3433   5.651   8.160   4.923  0.1344  0.0292 -0.0200
  241POPC   NC3 3434   6.782   3.343   5.367  0.0569  0.3276  0.2285
  241POPC   PO4 3435   7.108   3.375   5.258  0.2061 -0.0879  0.1109
  241POPC   GL1 3436   7.176   3.496   5.726 -0.0028 -0.1153 -0.0981
  241POPC   GL2 3437   7.110   3.830   5.703 -0.0043  0.0347 -0.1874
  241POPC   C1A 3438   7.283   3.476   6.173 -0.0212 -0.1847 -0.1015
  241POPC   D2A 3439   7.286   3.702   6.566 -0.1682 -0.1114  0.3119
  241POPC   C3A 3440   7.028   3.982   6.874 -0.1974 -0.0109 -0.0907
  241POPC   C4A 3441   6.917   4.422   7.119  0.0008 -0.1856  0.0565
  241POPC   C1B 3442   7.188   4.018   5.995  0.2495 -0.0936  0.0272
  241POPC   C2B 3443   6.995   4.168   6.439 -0.0375  0.0286 -0.3204
  241POPC   C3B 3444   6.597   4.205   6.725 -0.0305  0.3027  0.0527
  241POPC   C4B 3445   6.294   3.889   6.926  0.0280 -0.0814 -0.0608
  242POPC   NC3 3446   0.744   6.689   4.785  0.0172 -0.0027  0.1261
  242POPC   PO4 3447   1.203   6.933   4.893  0.1118  0.1642 -0.2835
  242POPC   GL1 3448   1.260   6.866   5.356 -0.1160 -0.0535  0.1796
  242POPC   GL2 3449   1.464   6.615   5.463 -0.0649  0.0682 -0.0938
  242POPC   C1A 3450   1.157   6.772   5.871  0.3749  0.2491 -0.1990
  242POPC   D2A 3451   1.072   7.052   6.206  0.1946 -0.1447 -0.2740
  242POPC   C3A 3452   1.413   7.131   6.513 -0.0475 -0.2463  0.0167
  242POPC   C4A 3453   1.740   6.904   6.755  0.1418 -0.2396  0.1375
  242POPC   C1B 3454   1.819   6.576   5.817 -0.0415  0.0632  0.2223
  242POPC   C2B 3455   1.995   6.415   6.271 -0.0212 -0.0972 -0.1574
  242POPC   C3B 3456   2.262   6.239   6.618 -0.2786  0.0228  0.0611
  242POPC   C4B 3457   2.420   5.818   6.666  0.0904 -0.1383 -0.3865
  243POPC   NC3 3458   1.273   7.407   4.839  0.1262  0.0957  0.1847
  243POPC   PO4 3459   1.468   7.746   5.089 -0.0602 -0.1458  0.1585
  243POPC   GL1 3460   1.559   7.886   5.397  0.6038  0.2676 -0.0247
  243POPC   GL2 3461   1.857   7.844   5.572 -0.3394  0.2487  0.0759
  243POPC   C1A 3462   1.348   8.010   5.873  0.0272  0.1370  0.0394
  243POPC   D2A 3463   1.283   8.368   5.945 -0.1575  0.1298 -0.2776
  243POPC   C3A 3464   1.008   8.479   6.311 -0.0370  0.0219 -0.1614
  243POPC   C4A 3465   0.690   8.447   6.507 -0.1086  0.1790  0.1368
  243POPC   C1B 3466   1.841   7.997   5.994 -0.0568  0.2290 -0.1916
  243POPC   C2B 3467   1.639   8.131   6.299 -0.0649  0.1548  0.0780
  243POPC   C3B 3468   1.374   8.208   6.634 -0.1314  0.2652 -0.0587
  243POPC   C4B 3469   1.084   8.287   6.848 -0.0731 -0.0537  0.0071
  244POPC   NC3 3470   1.959   0.412   4.813  0.2356  0.0132 -0.3340
  244POPC   PO4 3471   2.216   0.651   4.998 -0.2038  0.1019 -0.2366
  244POPC   GL1 3472   2.479   0.486   5.306 -0.1840  0.5156  0.0050
  244POPC   GL2 3473   2.542   0.262   5.228  0.0095 -0.0377 -0.2435
  244POPC   C1A 3474   2.612   0.470   5.722 -0.0431 -0.3530  0.0128
  244POPC   D2A 3475   2.798   0.464   6.149 -0.0448  0.1217 -0.1574
  244POPC   C3A 3476   2.448   0.304   6.396  0.1272  0.0599 -0.2459
  244POPC   C4A 3477   2.151   0.262   6.642 -0.3681  0.4406  0.1231
  244POPC   C1B 3478   2.752   0.015   5.582  0.2048  0.1816  0.3559
  244POPC   C2B 3479   2.679   0.003   6.011  0.2508 -0.5502  0.0811
  244POPC   C3B 3480   2.632  -0.081   6.564 -0.1035 -0.1007  0.1830
  244POPC   C4B 3481   2.572   0.294   6.935  0.2250 -0.5116 -0.4155
  245POPC   NC3 3482   2.420   2.834   4.682  0.2754  0.1058 -0.1935
  245POPC   PO4 3483   2.546   2.687   5.124 -0.1448  0.3009 -0.3798
  245POPC   GL1 3484   2.638   2.577   5.657  0.1984 -0.2699 -0.2735
  245POPC   GL2 3485   2.408   2.535   5.861  0.2336 -0.1652 -0.2817
  245POPC   C1A 3486   3.084   2.613   5.890 -0.0145 -0.0734 -0.2839
  245POPC   D2A 3487   3.226   2.733   6.206  0.0966 -0.0155  0.3083
  245POPC   C3A 3488   2.963   2.965   6.593  0.0186 -0.1074  0.0616
  245POPC   C4A 3489   3.070   3.269   6.909  0.1789  0.1974  0.2466
  245POPC   C1B 3490   2.704   2.443   6.255 -0.3112 -0.1418  0.4106
  245POPC   C2B 3491   3.022   2.482   6.635  0.0768 -0.1516  0.0712
  245POPC   C3B 3492   3.396   2.783   6.814  0.1028  0.2035 -0.0456
  245POPC   C4B 3493   3.813   2.660   6.949 -0.5217 -0.0714  0.0680
  246POPC   NC3 3494   9.496   1.287   5.190  0.0404  0.1724 -0.0335
  246POPC   PO4 3495   9.481   1.562   5.503 -0.0823  0.4249  0.2705
  246POPC   GL1 3496   9.358   1.914   5.776 -0.0119  0.2747  0.1607
  246POPC   GL2 3497   9.461   2.154   5.936  0.1054  0.3526  0.0982
  246POPC   C1A 3498   9.216   1.680   6.174  0.0767  0.0780  0.1610
  246POPC   D2A 3499   9.121   1.399   6.461  0.0621  0.1559  0.0448
  246POPC   C3A 3500   9.017   1.576   6.786  0.0297 -0.0493  0.1283
  246POPC   C4A 3501   8.599   1.542   6.999  0.1645  0.0005  0.0213
  246POPC   C1B 3502   9.583   2.249   6.422 -0.2441  0.1278 -0.3592
  246POPC   C2B 3503   9.851   2.452   6.728  0.0794 -0.1044 -0.2531
  246POPC   C3B 3504  10.038   2.407   7.108 -0.1402  0.2136  0.0695
  246POPC   C4B 3505  10.165   2.508   7.536  0.1805  0.1478  0.0004
  247POPC   NC3 3506   5.991   1.675   4.974  0.2446  0.2838  0.1227
  247POPC   PO4 3507   5.534   1.829   4.918  0.1125 -0.2400 -0.0711
  247POPC   GL1 3508   5.353   1.829   5.325 -0.1353 -0.6068 -0.1507
  247POPC   GL2 3509   5.699   1.848   5.410  0.0208  0.0119  0.1794
  247POPC   C1A 3510   5.363   1.897   5.795 -0.0318 -0.0781 -0.0960
  247POPC   D2A 3511   5.654   1.514   6.046 -0.0097 -0.1806 -0.2286
  247POPC   C3A 3512   5.496   1.104   6.109  0.2918 -0.3345  0.1143
  247POPC   C4A 3513   5.067   1.101   6.348  0.3096 -0.1952  0.3126
  247POPC   C1B 3514   5.894   1.460   5.599 -0.0353 -0.1162  0.0690
  247POPC   C2B 3515   6.031   0.979   5.856 -0.1288 -0.0311  0.0753
  247POPC   C3B 3516   6.353   0.665   6.033 -0.0486 -0.1983  0.3575
  247POPC   C4B 3517   6.522   0.295   6.166  0.0340  0.1231 -0.0706
  248POPC   NC3 3518   2.219   7.855   3.791  0.0831  0.0502 -0.1805
  248POPC   PO4 3519   2.567   7.917   4.111 -0.1648  0.1115 -0.4202
  248POPC   GL1 3520   2.952   7.948   4.481 -0.1844 -0.1258  0.1578
  248POPC   GL2 3521   2.976   8.140   4.703 -0.3964 -0.3888  0.1656
  248POPC   C1A 3522   3.261   7.801   4.784 -0.2305 -0.1640  0.4164
  248POPC   D2A 3523   3.480   7.855   5.088  0.2773  0.4789 -0.0846
  248POPC   C3A 3524   3.529   7.660   5.449  0.0121 -0.2911  0.0780
  248POPC   C4A 3525   3.339   7.760   5.772  0.2479  0.1296 -0.1231
  248POPC   C1B 3526   2.812   7.844   4.987 -0.0356 -0.0501  0.2289
  248POPC   C2B 3527   2.868   7.833   5.473 -0.1118  0.0622 -0.1385
  248POPC   C3B 3528   2.716   7.779   5.908 -0.2324  0.3329 -0.1072
  248POPC   C4B 3529   2.708   7.610   6.306 -0.1213  0.1026 -0.1842
  249POPC   NC3 3530   1.516   5.305   4.435 -0.0094 -0.1952  0.1083
  249POPC   PO4 3531   1.531   5.001   4.862 -0.1802 -0.2132  0.0239
  249POPC   GL1 3532   1.776   4.851   5.253 -0.1228 -0.0221 -0.2725
  249POPC   GL2 3533   1.681   5.025   5.514 -0.0746  0.2750  0.0160
  249POPC   C1A 3534   2.108   4.817   5.619 -0.1113  0.1002  0.1984
  249POPC   D2A 3535   2.105   4.398   5.905  0.0170 -0.3349  0.1736
  249POPC   C3A 3536   2.382   4.326   6.195  0.1090  0.1690 -0.1290
  249POPC   C4A 3537   2.865   4.371   6.252 -0.0146 -0.2636  0.1515
  249POPC   C1B 3538   1.742   5.201   5.903 -0.1628  0.2089 -0.3524
  249POPC   C2B 3539   1.364   5.267   6.101 -0.0908 -0.3895 -0.0782
  249POPC   C3B 3540   1.093   5.309   6.389  0.1929  0.2233  0.6617
  249POPC   C4B 3541   0.761   5.364   6.577  0.3254  0.0258 -0.2003
  250POPC   NC3 3542   6.281   4.341   5.531 -0.1281  0.1062 -0.1046
  250POPC   PO4 3543   6.636   3.920   5.474  0.0153  0.4400  0.1820
  250POPC   GL1 3544   6.659   3.633   5.842 -0.0289 -0.1544  0.2167
  250POPC   GL2 3545   6.607   3.328   5.849  0.0423 -0.0871 -0.3114
  250POPC   C1A 3546   6.673   3.594   6.221 -0.0935  0.1292 -0.2810
  250POPC   D2A 3547   6.747   3.672   6.621 -0.1060 -0.0520 -0.1490
  250POPC   C3A 3548   6.726   3.622   7.071 -0.1423 -0.1942 -0.2942
  250POPC   C4A 3549   6.674   3.351   7.462 -0.0419  0.2058  0.1635
  250POPC   C1B 3550   6.337   3.220   6.149 -0.0774  0.2989  0.2550
  250POPC   C2B 3551   6.200   3.468   6.429  0.1764  0.2360  0.0416
  250POPC   C3B 3552   6.002   3.525   6.925  0.1081  0.2462  0.1505
  250POPC   C4B 3553   5.782   3.882   6.979  0.0946  0.1112 -0.1574
  251POPC   NC3 3554   1.891   7.504   5.249  0.0885  0.0263  0.1373
  251POPC   PO4 3555   2.155   7.739   4.972  0.0547  0.4146 -0.0600
  251POPC   GL1 3556   2.341   7.669   5.393 -0.1323 -0.2747 -0.2736
  251POPC   GL2 3557   2.635   7.354   5.447  0.2039  0.4751 -0.6429
  251POPC   C1A 3558   2.260   7.617   5.873 -0.1846 -0.0373 -0.2482
  251POPC   D2A 3559   2.287   7.896   6.156 -0.0090 -0.0892 -0.1142
  251POPC   C3A 3560   2.178   7.893   6.659  0.0021  0.1553  0.1457
  251POPC   C4A 3561   2.292   7.901   7.127  0.2535 -0.1652 -0.4080
  251POPC   C1B 3562   2.620   7.261   5.828 -0.0344 -0.2118 -0.0421
  251POPC   C2B 3563   2.482   7.212   6.237  0.2250 -0.0646 -0.0861
  251POPC   C3B 3564   2.176   7.466   6.317  0.1209 -0.1427 -0.3065
  251POPC   C4B 3565   1.843   7.431   6.572 -0.0228  0.0382  0.1583
  252POPC   NC3 3566   2.565   8.307   4.624  0.0773 -0.2912 -0.0485
  252POPC   PO4 3567   2.206   8.304   4.846 -0.1828  0.2351  0.0454
  252POPC   GL1 3568   2.434   8.131   5.076  0.0624  0.1267 -0.0136
  252POPC   GL2 3569   2.649   8.327   5.156 -0.0910 -0.0194 -0.0201
  252POPC   C1A 3570   2.442   8.105   5.545 -0.3355 -0.1754 -0.3102
  252POPC   D2A 3571   2.921   8.225   5.726 -0.1213  0.0194  0.2627
  252POPC   C3A 3572   3.191   7.976   6.162 -0.0434 -0.2106 -0.2483
  252POPC   C4A 3573   3.116   7.855   6.579  0.1748 -0.0779 -0.0586
  252POPC   C1B 3574   3.100   8.194   5.194  0.0617  0.1532 -0.0642
  252POPC   C2B 3575   3.383   8.246   5.581  0.1856 -0.0742 -0.0080
  252POPC   C3B 3576   3.524   8.235   5.959 -0.1489 -0.4614 -0.0152
  252POPC   C4B 3577   3.726   8.452   6.249  0.2836  0.2057 -0.0839
  253POPC   NC3 3578   1.877   9.804   4.496  0.3329  0.1150 -0.0447
  253POPC   PO4 3579   2.069   9.656   4.995  0.1005 -0.0108 -0.1065
  253POPC   GL1 3580   1.992   9.791   5.388  0.3870 -0.0044  0.0011
  253POPC   GL2 3581   1.767   9.835   5.655 -0.0988 -0.2160 -0.0394
  253POPC   C1A 3582   2.362   9.833   5.617 -0.2583  0.0905 -0.0267
  253POPC   D2A 3583   2.600   9.730   5.822 -0.2567 -0.2398 -0.2919
  253POPC   C3A 3584   2.734   9.769   6.203 -0.1547 -0.0241 -0.0755
  253POPC   C4A 3585   3.124   9.748   6.479 -0.0068 -0.1526  0.3967
  253POPC   C1B 3586   2.013  10.016   5.906 -0.1205  0.0862  0.0855
  253POPC   C2B 3587   2.268  10.034   6.238  0.0825 -0.0299  0.0308
  253POPC   C3B 3588   2.123   9.976   6.745 -0.1589 -0.0786 -0.3600
  253POPC   C4B 3589   1.872  10.240   6.947 -0.0823 -0.2249  0.0961
  254POPC   NC3 3590   7.295   5.516   4.492  0.0136  0.0620 -0.1634
  254POPC   PO4 3591   7.159   5.424   4.935  0.1192  0.1608 -0.0815
  254POPC   GL1 3592   7.454   5.459   5.220  0.3090 -0.0646  0.0047
  254POPC   GL2 3593   7.475   5.096   5.280  0.2199 -0.1478 -0.0371
  254POPC   C1A 3594   7.561   5.687   5.610  0.0099  0.3014 -0.1517
  254POPC   D2A 3595   7.370   6.090   5.754 -0.0274 -0.2844 -0.1745
  254POPC   C3A 3596   7.277   6.157   6.190  0.3386 -0.0224  0.1447
  254POPC   C4A 3597   7.325   6.321   6.679 -0.0596 -0.1382  0.0224
  254POPC   C1B 3598   7.524   5.216   5.645 -0.1550  0.0300  0.0702
  254POPC   C2B 3599   7.215   5.482   5.912 -0.3376  0.4980  0.2310
  254POPC   C3B 3600   7.076   5.706   6.317 -0.0780  0.1060  0.3767
  254POPC   C4B 3601   7.027   5.946   6.625  0.0606 -0.1267 -0.2268
  255POPC   NC3 3602   5.023   2.074   4.667  0.2438  0.1388 -0.4148
  255POPC   PO4 3603   5.035   1.764   4.941 -0.0472  0.1839 -0.3519
  255POPC   GL1 3604   5.128   1.406   5.300  0.1812 -0.2574  0.0077
  255POPC   GL2 3605   4.918   1.159   5.219 -0.1275  0.3801  0.1685
  255POPC   C1A 3606   5.258   1.309   5.640 -0.0013  0.1266  0.2673
  255POPC   D2A 3607   5.586   1.043   5.638 -0.1741  0.0330 -0.0273
  255POPC   C3A 3608   5.691   0.617   5.891  0.0723 -0.0806 -0.1373
  255POPC   C4A 3609   5.845   0.490   6.326  0.0057 -0.3060  0.0636
  255POPC   C1B 3610   4.886   1.012   5.645  0.2558  0.0103 -0.0792
  255POPC   C2B 3611   4.614   0.970   6.011 -0.1369 -0.3824 -0.2213
  255POPC   C3B 3612   4.556   0.556   6.208  0.0343 -0.2250 -0.0337
  255POPC   C4B 3613   4.608   0.320   6.605 -0.1727  0.0711 -0.1939
  256POPC   NC3 3614   8.160   2.533   5.409 -0.0558  0.0584 -0.1466
  256POPC   PO4 3615   8.303   2.238   5.091 -0.1360 -0.0628 -0.0209
  256POPC   GL1 3616   8.528   2.129   5.536 -0.2057 -0.0274 -0.2698
  256POPC   GL2 3617   8.586   2.426   5.723  0.1155 -0.0228  0.0168
  256POPC   C1A 3618   8.327   2.058   6.005  0.1378  0.3207 -0.3310
  256POPC   D2A 3619   8.091   2.141   6.400 -0.1540  0.0098 -0.0306
  256POPC   C3A 3620   7.687   2.094   6.520 -0.3298  0.0492  0.2787
  256POPC   C4A 3621   7.438   2.209   6.801  0.1316 -0.4492 -0.0874
  256POPC   C1B 3622   8.583   2.487   6.180  0.1924 -0.0868 -0.1898
  256POPC   C2B 3623   8.602   2.351   6.561  0.1602  0.1663 -0.1599
  256POPC   C3B 3624   8.722   2.035   6.852  0.1485 -0.1145 -0.1713
  256POPC   C4B 3625   9.092   1.979   7.123  0.1178 -0.3404  0.0536
  257POPC   NC3 3626   4.321   7.960   3.718  0.0088 -0.0927 -0.1500
  257POPC   PO4 3627   3.910   7.702   3.781  0.1149 -0.1416 -0.3351
  257POPC   GL1 3628   3.777   7.754   4.160  0.1816 -0.1864 -0.0520
  257POPC   GL2 3629   3.482   7.917   4.323  0.0071 -0.0480 -0.2858
  257POPC   C1A 3630   3.895   7.894   4.643  0.2958  0.1478  0.1483
  257POPC   D2A 3631   4.108   8.217   4.762 -0.2970 -0.1384  0.0937
  257POPC   C3A 3632   4.257   8.128   5.158  0.0335  0.1759 -0.1198
  257POPC   C4A 3633   4.757   8.256   5.319  0.0680 -0.3259  0.0785
  257POPC   C1B 3634   3.776   8.302   4.263 -0.0628  0.4264 -0.3335
  257POPC   C2B 3635   4.210   8.422   4.346 -0.1021  0.1497  0.0109
  257POPC   C3B 3636   4.560   8.575   4.693  0.0266 -0.1153  0.0580
  257POPC   C4B 3637   4.941   8.606   5.016  0.1923 -0.0575  0.1532
  258POPC   NC3 3638   6.158   3.241   5.008 -0.1416  0.0789 -0.1437
  258POPC   PO4 3639   6.519   2.964   5.121  0.5365 -0.1370  0.1434
  258POPC   GL1 3640   6.508   2.909   5.570 -0.0749 -0.2471  0.1226
  258POPC   GL2 3641   6.098   2.897   5.702 -0.0485 -0.0007 -0.0870
  258POPC   C1A 3642   6.541   2.736   5.990  0.2628 -0.0487 -0.0450
  258POPC   D2A 3643   6.404   2.707   6.484 -0.0774 -0.0757  0.3109
  258POPC   C3A 3644   6.523   2.214   6.600  0.0636  0.1577 -0.0884
  258POPC   C4A 3645   6.348   2.223   7.034 -0.2872 -0.1668  0.3866
  258POPC   C1B 3646   6.057   2.659   6.057  0.1846  0.0284 -0.2411
  258POPC   C2B 3647   5.574   2.601   6.442 -0.1133  0.2828 -0.1440
  258POPC   C3B 3648   5.635   2.771   6.815 -0.2987 -0.2628 -0.1821
  258POPC   C4B 3649   6.000   3.000   6.706 -0.2465  0.0183 -0.2506
  259POPC   NC3 3650   7.287   2.078   5.076  0.0695  0.1144  0.0220
  259POPC   PO4 3651   7.505   1.773   5.210 -0.4297 -0.0164 -0.0046
  259POPC   GL1 3652   7.484   1.731   5.569 -0.1361  0.1613 -0.1385
  259POPC   GL2 3653   7.440   2.031   5.653  0.0740 -0.1298  0.2102
  259POPC   C1A 3654   7.176   1.610   5.887  0.0096  0.1995 -0.0677
  259POPC   D2A 3655   6.841   1.443   6.023  0.3805 -0.0889 -0.0509
  259POPC   C3A 3656   6.743   1.052   5.905 -0.0191  0.0944 -0.0596
  259POPC   C4A 3657   6.553   0.895   5.620 -0.1898 -0.0961  0.0643
  259POPC   C1B 3658   7.266   2.134   6.051  0.1967 -0.0875 -0.1480
  259POPC   C2B 3659   7.081   1.971   6.402  0.0709  0.0533 -0.3722
  259POPC   C3B 3660   6.897   1.832   6.673 -0.5195  0.0375 -0.1798
  259POPC   C4B 3661   6.569   1.745   6.930  0.0542 -0.0046 -0.2330
  260POPC   NC3 3662   2.243   7.355   4.658  0.0389  0.0002  0.1467
  260POPC   PO4 3663   2.259   6.933   4.802 -0.1887 -0.2604 -0.1672
  260POPC   GL1 3664   2.557   6.819   5.242  0.0908 -0.0635  0.0375
  260POPC   GL2 3665   2.344   6.730   5.538  0.2787  0.1157 -0.3356
  260POPC   C1A 3666   2.900   6.979   5.457 -0.2594  0.0566  0.2173
  260POPC   D2A 3667   3.401   6.974   5.474  0.0443  0.1451 -0.0538
  260POPC   C3A 3668   3.636   7.275   5.804  0.1057 -0.0780  0.1437
  260POPC   C4A 3669   3.846   7.292   6.193 -0.0233 -0.1143  0.0580
  260POPC   C1B 3670   2.494   6.775   6.071  0.4632 -0.0938 -0.0308
  260POPC   C2B 3671   2.640   6.685   6.399  0.0149 -0.1579  0.1039
  260POPC   C3B 3672   3.027   6.625   6.494  0.2920 -0.0114 -0.0896
  260POPC   C4B 3673   3.275   6.515   6.242 -0.4042  0.2157 -0.1224
  261POPC   NC3 3674   0.398   8.798   5.347 -0.0623 -0.1234  0.2885
  261POPC   PO4 3675   0.038   9.127   5.434 -0.0984  0.0831 -0.2033
  261POPC   GL1 3676   0.250   9.047   5.822  0.2966 -0.1406  0.1436
  261POPC   GL2 3677   0.173   9.341   5.999  0.3712  0.3424  0.2025
  261POPC   C1A 3678   0.391   8.773   6.223 -0.0496 -0.3278 -0.2680
  261POPC   D2A 3679   0.202   8.415   6.277  0.0797  0.3062 -0.1634
  261POPC   C3A 3680  -0.276   8.453   6.175 -0.0732 -0.1005 -0.0524
  261POPC   C4A 3681  -0.609   8.729   6.165 -0.1669 -0.1851 -0.0725
  261POPC   C1B 3682  -0.088   8.941   6.177 -0.1721 -0.3923 -0.2254
  261POPC   C2B 3683  -0.220   8.747   6.593 -0.0940  0.1158 -0.0393
  261POPC   C3B 3684  -0.441   8.619   6.866 -0.0413 -0.0217 -0.0242
  261POPC   C4B 3685  -0.609   8.264   6.972  0.2714 -0.1934 -0.0001
  262POPC   NC3 3686   8.810   8.672   4.890  0.1348 -0.1087 -0.1856
  262POPC   PO4 3687   8.804   9.026   4.567 -0.2616  0.0890  0.4044
  262POPC   GL1 3688   8.445   9.010   4.756  0.2342  0.0500 -0.3586
  262POPC   GL2 3689   8.112   9.135   4.657 -0.2658  0.0114 -0.2204
  262POPC   C1A 3690   8.111   9.012   5.248 -0.2452 -0.1052  0.0261
  262POPC   D2A 3691   7.722   8.829   5.355  0.1903 -0.1085 -0.0395
  262POPC   C3A 3692   7.816   8.922   5.759 -0.1183  0.1163 -0.0709
  262POPC   C4A 3693   7.765   9.366   5.964  0.0452  0.2213 -0.3523
  262POPC   C1B 3694   8.056   8.604   4.884 -0.0070 -0.4782 -0.0667
  262POPC   C2B 3695   7.780   8.363   5.225 -0.0501 -0.1271  0.2305
  262POPC   C3B 3696   7.803   8.293   5.647 -0.3133 -0.0654  0.0653
  262POPC   C4B 3697   7.818   8.432   6.067 -0.1758  0.0401  0.4229
  263POPC   NC3 3698   3.099   0.771   4.759  0.0197  0.0565  0.3629
  263POPC   PO4 3699   2.646   0.874   4.848  0.0754 -0.1007 -0.0929
  263POPC   GL1 3700   2.785   0.856   5.165 -0.1105 -0.2111  0.0303
  263POPC   GL2 3701   2.973   0.586   5.189  0.1124  0.1507 -0.1757
  263POPC   C1A 3702   2.742   0.869   5.554  0.4574 -0.0651 -0.1367
  263POPC   D2A 3703   2.887   0.909   5.962 -0.1557 -0.0014 -0.0589
  263POPC   C3A 3704   2.809   0.886   6.373  0.0186  0.1290  0.0713
  263POPC   C4A 3705   2.478   0.807   6.629 -0.0465  0.1918 -0.2037
  263POPC   C1B 3706   3.077   0.498   5.681 -0.1641 -0.2368  0.1931
  263POPC   C2B 3707   3.302   0.308   6.014 -0.0388 -0.1119 -0.1387
  263POPC   C3B 3708   3.617   0.111   6.326  0.0692 -0.0219 -0.1295
  263POPC   C4B 3709   3.900  -0.091   6.656 -0.2332 -0.0861  0.0242
  264POPC   NC3 3710   9.086   2.275   5.456 -0.2987  0.2815 -0.0965
  264POPC   PO4 3711   9.210   1.846   5.220  0.0714 -0.1914 -0.1567
  264POPC   GL1 3712   8.901   1.812   5.649 -0.5454 -0.0460  0.0772
  264POPC   GL2 3713   8.879   1.990   5.913  0.0882 -0.0630 -0.1861
  264POPC   C1A 3714   8.704   1.503   6.030 -0.0903 -0.3059  0.0268
  264POPC   D2A 3715   8.500   1.132   6.306  0.0704  0.2106  0.1242
  264POPC   C3A 3716   8.557   0.834   6.052 -0.1560  0.2157  0.9329
  264POPC   C4A 3717   8.458   0.490   5.907  0.3524 -0.0825 -0.1753
  264POPC   C1B 3718   8.795   1.895   6.358 -0.2467 -0.2876  0.1306
  264POPC   C2B 3719   8.562   1.695   6.533  0.0036 -0.1539  0.1875
  264POPC   C3B 3720   8.222   1.844   6.836 -0.2051 -0.0119  0.3160
  264POPC   C4B 3721   7.839   2.040   7.059  0.1486  0.2106  0.2910
  265POPC   NC3 3722   7.381   5.791   3.901 -0.0823 -0.1220 -0.0042
  265POPC   PO4 3723   7.397   6.297   4.042 -0.0615  0.2161  0.2707
  265POPC   GL1 3724   7.113   6.484   4.241  0.0933 -0.2070  0.1340
  265POPC   GL2 3725   7.084   6.349   4.505  0.0985  0.1946 -0.1503
  265POPC   C1A 3726   7.152   6.872   4.547 -0.1670 -0.1260 -0.1657
  265POPC   D2A 3727   7.386   7.269   4.744  0.1153  0.0182  0.1844
  265POPC   C3A 3728   7.621   7.456   5.034 -0.3210  0.0827  0.0499
  265POPC   C4A 3729   7.726   7.862   5.332  0.2115  0.0673 -0.4383
  265POPC   C1B 3730   7.003   6.357   4.999 -0.2149  0.0550 -0.0479
  265POPC   C2B 3731   7.210   6.470   5.438 -0.1151 -0.2087 -0.1157
  265POPC   C3B 3732   7.172   6.544   5.899 -0.5973  0.0229  0.0283
  265POPC   C4B 3733   6.814   6.331   6.239 -0.0490 -0.1540 -0.2116
  266POPC   NC3 3734   7.539   3.740   5.269 -0.1596 -0.0736  0.2335
  266POPC   PO4 3735   7.768   3.348   5.299 -0.0980 -0.1385 -0.0069
  266POPC   GL1 3736   7.702   3.277   5.649 -0.2058 -0.0600 -0.2155
  266POPC   GL2 3737   7.457   3.147   5.891 -0.4115 -0.1055 -0.0964
  266POPC   C1A 3738   7.829   3.443   6.026 -0.3697 -0.1838 -0.3780
  266POPC   D2A 3739   7.759   3.829   6.293 -0.0439  0.1227  0.1435
  266POPC   C3A 3740   8.003   4.036   6.519 -0.1428 -0.1097 -0.1208
  266POPC   C4A 3741   7.915   4.035   7.039  0.3757 -0.1049 -0.0035
  266POPC   C1B 3742   7.715   2.999   6.116 -0.1462 -0.1719 -0.3021
  266POPC   C2B 3743   7.631   2.555   6.358  0.0055  0.0893  0.0181
  266POPC   C3B 3744   7.421   2.702   6.755  0.0235  0.1889 -0.1913
  266POPC   C4B 3745   7.429   3.124   6.938 -0.1796 -0.0868  0.1045
  267POPC   NC3 3746   6.253   1.448   4.496 -0.2329  0.0093  0.0899
  267POPC   PO4 3747   6.350   1.381   4.806 -0.0983 -0.1803  0.0296
  267POPC   GL1 3748   6.612   1.058   5.070  0.0907  0.0314  0.1213
  267POPC   GL2 3749   6.629   0.860   4.845 -0.2896 -0.0310  0.0704
  267POPC   C1A 3750   6.890   1.213   5.448  0.0173  0.0112 -0.2502
  267POPC   D2A 3751   7.267   1.054   5.783  0.0326 -0.0579  0.1018
  267POPC   C3A 3752   7.167   0.870   6.222 -0.1197  0.2510  0.2172
  267POPC   C4A 3753   7.213   0.839   6.635  0.2378  0.3001 -0.1944
  267POPC   C1B 3754   6.546   0.547   4.526  0.1234 -0.0494 -0.0424
  267POPC   C2B 3755   6.557   0.205   4.561  0.0241  0.1190 -0.1054
  267POPC   C3B 3756   6.377  -0.071   4.765 -0.1931 -0.4817  0.1141
  267POPC   C4B 3757   6.051  -0.303   4.766 -0.0259  0.2470  0.1800
  268POPC   NC3 3758   9.178   9.483   5.621  0.1204 -0.0555 -0.1153
  268POPC   PO4 3759   9.377   9.104   5.595 -0.0186  0.1826 -0.1488
  268POPC   GL1 3760   9.285   9.166   6.058 -0.0860  0.0482  0.2385
  268POPC   GL2 3761   9.069   9.336   6.179 -0.1183  0.0885  0.1966
  268POPC   C1A 3762   9.445   9.098   6.455  0.2839 -0.0997  0.1349
  268POPC   D2A 3763   9.352   8.797   6.659 -0.0192 -0.0751 -0.1040
  268POPC   C3A 3764   9.350   8.673   7.144  0.2049  0.1448  0.0778
  268POPC   C4A 3765   9.367   8.398   7.506 -0.0561 -0.1988  0.1637
  268POPC   C1B 3766   9.176   9.533   6.633 -0.0395  0.0387  0.1799
  268POPC   C2B 3767   9.537   9.444   6.869 -0.0416  0.0712 -0.0724
  268POPC   C3B 3768   9.631   9.087   7.113 -0.0294 -0.1432  0.0789
  268POPC   C4B 3769   9.808   8.688   7.347 -0.2926 -0.0770  0.1292
  269POPC   NC3 3770   0.596   3.605   4.857  0.1331 -0.2867  0.4111
  269POPC   PO4 3771   0.623   3.149   4.937 -0.0086  0.2079  0.1100
  269POPC   GL1 3772   0.731   3.259   5.368 -0.0409  0.1492  0.0069
  269POPC   GL2 3773   0.686   3.549   5.450 -0.2095 -0.2672  0.0180
  269POPC   C1A 3774   0.459   2.993   5.760 -0.1409 -0.1331  0.1136
  269POPC   D2A 3775   0.143   2.755   5.630 -0.0511 -0.1461  0.1113
  269POPC   C3A 3776  -0.084   2.594   6.003  0.0522  0.0210 -0.0365
  269POPC   C4A 3777  -0.151   2.382   6.324  0.0245  0.1223  0.1433
  269POPC   C1B 3778   0.684   3.736   5.770  0.0791  0.0066  0.1140
  269POPC   C2B 3779   0.689   3.790   6.219  0.1979  0.0645 -0.0318
  269POPC   C3B 3780   0.494   3.545   6.557 -0.0158  0.1156 -0.0613
  269POPC   C4B 3781   0.218   3.791   6.810  0.1747  0.0540 -0.0379
  270POPC   NC3 3782   6.015   5.214   3.710 -0.3117 -0.1129  0.1635
  270POPC   PO4 3783   6.077   5.522   3.983 -0.1865 -0.3069 -0.2644
  270POPC   GL1 3784   5.709   5.942   4.199  0.0461 -0.5236 -0.0025
  270POPC   GL2 3785   5.743   6.272   4.205 -0.0772  0.4047  0.0921
  270POPC   C1A 3786   5.676   5.896   4.599 -0.1345 -0.2310  0.2976
  270POPC   D2A 3787   5.549   5.758   5.021 -0.0673 -0.0113  0.2483
  270POPC   C3A 3788   5.672   6.025   5.355  0.1372 -0.2171 -0.2732
  270POPC   C4A 3789   5.761   5.886   5.801 -0.1023 -0.0293  0.2906
  270POPC   C1B 3790   5.464   6.356   4.489  0.1411  0.0685  0.3350
  270POPC   C2B 3791   5.213   6.657   4.728  0.1753  0.0754  0.3426
  270POPC   C3B 3792   4.948   6.993   5.015 -0.1913 -0.0379 -0.1987
  270POPC   C4B 3793   4.902   7.365   5.319 -0.0238 -0.1021  0.1837
  271POPC   NC3 3794   1.610   9.808   5.125  0.1201 -0.0468  0.0834
  271POPC   PO4 3795   1.814  10.170   4.895 -0.1719 -0.1548  0.1709
  271POPC   GL1 3796   2.021  10.357   5.234  0.2304 -0.0644  0.2607
  271POPC   GL2 3797   1.758  10.646   5.329 -0.3085 -0.1554  0.2767
  271POPC   C1A 3798   2.269  10.331   5.683  0.1469 -0.3229  0.2317
  271POPC   D2A 3799   2.014  10.546   6.102  0.1934  0.0993 -0.2360
  271POPC   C3A 3800   1.832  10.215   6.387  0.0592  0.2212  0.1742
  271POPC   C4A 3801   1.400  10.264   6.509  0.0211 -0.0856 -0.1664
  271POPC   C1B 3802   1.735  10.420   5.655  0.2131 -0.0433  0.2489
  271POPC   C2B 3803   1.552  10.559   6.150  0.2395 -0.1439  0.1648
  271POPC   C3B 3804   1.283  10.838   6.406  0.2516  0.1894  0.0634
  271POPC   C4B 3805   1.145  10.802   6.777  0.2987  0.0003 -0.1832
  272POPC   NC3 3806   4.210   9.331   3.426  0.0094 -0.0320  0.0907
  272POPC   PO4 3807   4.379   9.665   3.602 -0.0202 -0.2723 -0.0276
  272POPC   GL1 3808   4.347   9.569   3.995 -0.0527  0.0041  0.2306
  272POPC   GL2 3809   4.468   9.772   4.257  0.0881 -0.2407  0.1388
  272POPC   C1A 3810   4.539   9.211   4.340  0.0500 -0.0306  0.3079
  272POPC   D2A 3811   4.803   9.047   4.617  0.0775 -0.0788 -0.0683
  272POPC   C3A 3812   5.270   9.068   4.682  0.1756 -0.4048  0.2068
  272POPC   C4A 3813   5.669   9.256   4.873  0.1348  0.2703 -0.5358
  272POPC   C1B 3814   4.880   9.624   4.007  0.0371 -0.2603  0.1724
  272POPC   C2B 3815   5.074   9.275   4.257 -0.0287 -0.0153 -0.0195
  272POPC   C3B 3816   5.320   8.885   4.231 -0.0933  0.3577  0.4264
  272POPC   C4B 3817   5.260   8.558   3.959 -0.0732 -0.1940 -0.2975
  273POPC   NC3 3818   5.036   4.959   4.495  0.0802 -0.3106  0.3745
  273POPC   PO4 3819   5.235   4.903   4.873  0.0499 -0.2979 -0.0809
  273POPC   GL1 3820   5.083   5.013   5.206  0.0367  0.0757  0.3901
  273POPC   GL2 3821   5.280   5.086   5.386 -0.1855  0.1943  0.0472
  273POPC   C1A 3822   4.788   5.253   5.434 -0.2671  0.0726 -0.0044
  273POPC   D2A 3823   4.464   5.519   5.416  0.0032 -0.0871 -0.0210
  273POPC   C3A 3824   4.106   5.734   5.516  0.2725 -0.1939 -0.0385
  273POPC   C4A 3825   3.621   5.741   5.513 -0.1844  0.1954  0.1983
  273POPC   C1B 3826   5.674   5.167   5.781  0.0208  0.0478  0.1981
  273POPC   C2B 3827   5.610   5.162   6.207  0.4194 -0.1176  0.0505
  273POPC   C3B 3828   5.408   5.299   6.443 -0.1015 -0.0960 -0.0722
  273POPC   C4B 3829   5.597   5.464   6.752 -0.0317  0.0452 -0.0161
  274POPC   NC3 3830   2.734   0.242   4.312  0.0425 -0.0719 -0.0813
  274POPC   PO4 3831   3.133   0.322   4.347 -0.2218  0.0559 -0.0025
  274POPC   GL1 3832   3.432   0.232   4.655 -0.1332  0.1094  0.2100
  274POPC   GL2 3833   3.312   0.324   4.903  0.1274  0.2417  0.1297
  274POPC   C1A 3834   3.704  -0.016   4.815 -0.1744  0.3227 -0.1028
  274POPC   D2A 3835   4.097  -0.073   4.888  0.0793 -0.0544 -0.0819
  274POPC   C3A 3836   4.464   0.059   5.199  0.1899 -0.2442  0.1865
  274POPC   C4A 3837   4.618   0.059   5.577 -0.1667 -0.0001 -0.1424
  274POPC   C1B 3838   3.508   0.512   5.380  0.1141 -0.3902 -0.0436
  274POPC   C2B 3839   3.709   0.408   5.765 -0.0854  0.0150 -0.2056
  274POPC   C3B 3840   3.819   0.523   6.150 -0.3059 -0.0154 -0.1584
  274POPC   C4B 3841   3.949   0.394   6.551  0.0206 -0.2408  0.0539
  275POPC   NC3 3842   9.309   5.721   4.310 -0.3294  0.0926  0.3670
  275POPC   PO4 3843   8.933   5.958   4.644 -0.0191 -0.0773 -0.2400
  275POPC   GL1 3844   8.987   6.118   5.111  0.1856 -0.1883  0.0288
  275POPC   GL2 3845   8.983   5.963   5.407 -0.1031  0.0736 -0.0158
  275POPC   C1A 3846   8.801   6.394   5.533  0.0724 -0.0118 -0.3648
  275POPC   D2A 3847   8.803   6.378   6.000  0.1067  0.1011 -0.2270
  275POPC   C3A 3848   8.495   6.551   6.450 -0.3355  0.2654  0.0662
  275POPC   C4A 3849   8.256   6.316   6.727  0.0389 -0.2254 -0.2969
  275POPC   C1B 3850   8.899   5.921   5.855 -0.3535 -0.1914  0.0110
  275POPC   C2B 3851   8.972   6.047   6.376  0.1673 -0.2253  0.0588
  275POPC   C3B 3852   8.740   6.173   6.654 -0.1520  0.1346  0.2280
  275POPC   C4B 3853   8.612   6.322   7.051 -0.0790 -0.2079 -0.1612
  276POPC   NC3 3854   4.305   7.037   3.960  0.1135  0.0680  0.1445
  276POPC   PO4 3855   4.051   6.768   4.255  0.3787 -0.3064 -0.2443
  276POPC   GL1 3856   4.144   6.890   4.687  0.2061 -0.2455  0.0508
  276POPC   GL2 3857   4.293   6.668   4.794 -0.1060 -0.0328  0.0878
  276POPC   C1A 3858   3.945   6.945   5.072 -0.1467  0.0092 -0.0774
  276POPC   D2A 3859   3.850   7.228   5.404  0.0508  0.0434 -0.0917
  276POPC   C3A 3860   4.092   7.096   5.771 -0.1368 -0.2195  0.1653
  276POPC   C4A 3861   4.308   7.059   6.045 -0.0805 -0.0571 -0.0908
  276POPC   C1B 3862   4.187   6.546   5.251 -0.1454 -0.0549  0.2804
  276POPC   C2B 3863   4.320   6.607   5.684  0.2821  0.0045 -0.0395
  276POPC   C3B 3864   4.099   6.644   6.070  0.2300  0.0136  0.0366
  276POPC   C4B 3865   3.725   6.471   6.364 -0.2178  0.1875 -0.1245
  277POPC   NC3 3866   0.902  10.132   5.345 -0.0596  0.0140 -0.0130
  277POPC   PO4 3867   0.765   9.827   5.589 -0.1274  0.0519 -0.0736
  277POPC   GL1 3868   0.735   9.884   6.004 -0.3957  0.2614 -0.1373
  277POPC   GL2 3869   0.658  10.176   5.982 -0.1340  0.0009 -0.1912
  277POPC   C1A 3870   1.106   9.928   6.224 -0.0099  0.2955  0.1624
  277POPC   D2A 3871   1.392   9.731   6.446  0.0187 -0.1263 -0.0512
  277POPC   C3A 3872   1.550   9.907   6.758  0.0447 -0.2082  0.0553
  277POPC   C4A 3873   1.589   9.951   7.255 -0.0133  0.0387  0.2632
  277POPC   C1B 3874   0.612   9.997   6.477 -0.0582 -0.0785 -0.0618
  277POPC   C2B 3875   0.579   9.600   6.721  0.0153  0.1156  0.0093
  277POPC   C3B 3876   0.694   9.235   6.898  0.1804  0.3248  0.1894
  277POPC   C4B 3877   1.091   9.074   7.103 -0.1342 -0.1686  0.0016
  278POPC   NC3 3878   5.319   5.995   3.830 -0.1382 -0.0086  0.0348
  278POPC   PO4 3879   5.228   6.368   3.702  0.0328  0.1302  0.1067
  278POPC   GL1 3880   5.368   6.567   3.995  0.1205 -0.3523  0.0831
  278POPC   GL2 3881   5.124   6.555   4.200  0.3137 -0.1221 -0.3498
  278POPC   C1A 3882   5.500   6.836   4.355  0.0759 -0.1725  0.0967
  278POPC   D2A 3883   5.670   6.890   4.799  0.2884 -0.1175  0.2052
  278POPC   C3A 3884   5.385   6.849   5.219  0.0931 -0.0348 -0.2178
  278POPC   C4A 3885   5.101   6.892   5.600 -0.1864  0.0249 -0.0388
  278POPC   C1B 3886   4.936   6.976   4.425 -0.1287  0.1327 -0.2026
  278POPC   C2B 3887   4.598   7.128   4.667  0.0024  0.2280 -0.2347
  278POPC   C3B 3888   4.430   7.132   5.061  0.1791  0.0108  0.0246
  278POPC   C4B 3889   4.311   7.001   5.374  0.0678  0.1084 -0.2627
  279POPC   NC3 3890   1.824   8.137   5.135  0.0008  0.3413  0.3951
  279POPC   PO4 3891   1.753   8.496   5.034 -0.0034 -0.0442  0.3405
  279POPC   GL1 3892   2.176   8.539   5.301  0.2589 -0.1373  0.2540
  279POPC   GL2 3893   2.007   8.367   5.558  0.1350 -0.1122  0.0853
  279POPC   C1A 3894   2.584   8.597   5.626 -0.1363 -0.0786 -0.1963
  279POPC   D2A 3895   2.549   8.321   6.028 -0.3261 -0.1135 -0.2468
  279POPC   C3A 3896   2.325   8.317   6.391 -0.2294 -0.0170 -0.0013
  279POPC   C4A 3897   2.624   8.111   6.705 -0.3495 -0.0472 -0.0288
  279POPC   C1B 3898   1.744   8.546   5.887  0.0775  0.2645  0.0946
  279POPC   C2B 3899   1.861   8.656   6.300  0.4721  0.0635 -0.0065
  279POPC   C3B 3900   2.076   8.884   6.603  0.0533 -0.0279  0.0025
  279POPC   C4B 3901   2.330   9.027   7.043 -0.1581 -0.0939  0.1701
  280POPC   NC3 3902   7.411   9.908   3.563  0.0063  0.1007  0.0014
  280POPC   PO4 3903   7.111   9.563   3.547 -0.2065  0.0346  0.1646
  280POPC   GL1 3904   7.010   9.359   3.904  0.1464 -0.2442 -0.1520
  280POPC   GL2 3905   6.717   9.064   3.944  0.0541  0.0772 -0.2900
  280POPC   C1A 3906   7.054   9.468   4.349 -0.2620 -0.2402 -0.0703
  280POPC   D2A 3907   6.866   9.260   4.617  0.1125  0.1630  0.1733
  280POPC   C3A 3908   7.357   9.231   4.713 -0.1438 -0.0111  0.1105
  280POPC   C4A 3909   7.647   9.206   5.035  0.2269 -0.0633  0.3169
  280POPC   C1B 3910   6.717   8.659   4.172 -0.1388 -0.2322  0.0392
  280POPC   C2B 3911   6.854   8.429   4.314  0.3339  0.0335  0.3792
  280POPC   C3B 3912   6.854   7.966   4.291 -0.2592  0.1430 -0.1050
  280POPC   C4B 3913   6.742   7.585   4.252  0.0076 -0.1494 -0.3969
  281POPC   NC3 3914   8.742   4.079   4.858  0.2231  0.3490 -0.0730
  281POPC   PO4 3915   8.940   3.760   5.169  0.1493  0.1854  0.4054
  281POPC   GL1 3916   9.036   3.932   5.556 -0.2575 -0.0839  0.1766
  281POPC   GL2 3917   8.786   3.995   5.803  0.0374  0.1904  0.3207
  281POPC   C1A 3918   9.367   3.908   5.862  0.0720  0.0946  0.0837
  281POPC   D2A 3919   9.772   3.858   5.924  0.2850 -0.1483  0.0435
  281POPC   C3A 3920   9.947   3.594   6.166 -0.1883  0.2019 -0.0558
  281POPC   C4A 3921  10.180   3.339   6.507 -0.2774 -0.3962 -0.0787
  281POPC   C1B 3922   8.644   4.319   6.023  0.0143 -0.0899  0.0516
  281POPC   C2B 3923   8.766   4.592   6.474  0.0343  0.4258  0.1163
  281POPC   C3B 3924   9.137   4.699   6.838  0.1988 -0.1471  0.0277
  281POPC   C4B 3925   9.134   4.593   7.248  0.0918  0.0801  0.2356
  282POPC   NC3 3926   8.090   0.056   4.305 -0.0383 -0.2377 -0.1937
  282POPC   PO4 3927   7.681  -0.114   3.974 -0.1661  0.1416 -0.0416
  282POPC   GL1 3928   7.624  -0.185   4.310  0.0017 -0.1781 -0.1237
  282POPC   GL2 3929   7.622   0.100   4.518 -0.2099 -0.1038 -0.0921
  282POPC   C1A 3930   7.313  -0.366   4.639 -0.0158  0.1117 -0.1075
  282POPC   D2A 3931   7.090  -0.540   4.867  0.1107 -0.2413  0.1423
  282POPC   C3A 3932   7.297  -0.702   5.276 -0.1375  0.0186 -0.0669
  282POPC   C4A 3933   7.393  -1.027   5.521 -0.3153  0.0816  0.1995
  282POPC   C1B 3934   7.506  -0.013   4.991 -0.0067 -0.4120 -0.0476
  282POPC   C2B 3935   7.171  -0.161   5.280  0.1009  0.2749 -0.0243
  282POPC   C3B 3936   6.802  -0.378   5.530 -0.1052  0.3972  0.0299
  282POPC   C4B 3937   6.776  -0.739   5.688 -0.0805 -0.1082 -0.0990
  283POPC   NC3 3938   0.256   1.022   4.956 -0.4490  0.0650 -0.0344
  283POPC   PO4 3939   0.556   1.357   5.061 -0.0818 -0.0053  0.1364
  283POPC   GL1 3940   0.610   1.215   5.466 -0.0273 -0.0237  0.0002
  283POPC   GL2 3941   0.841   1.366   5.612  0.3121 -0.1011  0.1532
  283POPC   C1A 3942   0.751   0.944   5.754  0.0026  0.0084  0.1802
  283POPC   D2A 3943   1.103   0.651   5.950  0.0714 -0.4177 -0.0014
  283POPC   C3A 3944   1.554   0.837   6.015 -0.0742  0.0744 -0.0956
  283POPC   C4A 3945   1.956   0.781   5.885 -0.0038  0.0106  0.1446
  283POPC   C1B 3946   0.726   1.397   6.097 -0.0396 -0.1059  0.0298
  283POPC   C2B 3947   0.851   1.488   6.479 -0.0837 -0.1896  0.1645
  283POPC   C3B 3948   0.978   1.383   6.920 -0.2525 -0.2800 -0.0225
  283POPC   C4B 3949   0.642   1.215   7.172  0.0809  0.0780  0.1111
  284POPC   NC3 3950   3.061   8.988   4.102  0.1332 -0.0739  0.2925
  284POPC   PO4 3951   2.753   9.028   4.528 -0.1602  0.3047  0.0832
  284POPC   GL1 3952   2.977   9.120   4.970  0.0734  0.2171 -0.2702
  284POPC   GL2 3953   3.290   9.340   4.925 -0.2639 -0.0602  0.0786
  284POPC   C1A 3954   2.977   9.103   5.350 -0.2804  0.3574  0.3961
  284POPC   D2A 3955   3.156   9.356   5.731 -0.1250 -0.0578  0.3250
  284POPC   C3A 3956   3.298   9.290   6.143 -0.0126 -0.1531  0.0818
  284POPC   C4A 3957   3.468   9.249   6.552  0.3352 -0.2355 -0.0877
  284POPC   C1B 3958   3.577   9.258   5.275  0.4106 -0.1905 -0.2228
  284POPC   C2B 3959   3.668   9.165   5.719 -0.0677  0.0281 -0.1420
  284POPC   C3B 3960   3.805   9.325   6.119  0.0914 -0.0061  0.0886
  284POPC   C4B 3961   4.062   9.246   6.509  0.3305  0.0404 -0.0468
  285POPC   NC3 3962   7.954   7.088   3.878  0.0449  0.0646  0.0802
  285POPC   PO4 3963   8.032   7.372   4.110 -0.3006 -0.3304 -0.0064
  285POPC   GL1 3964   7.825   7.374   4.490  0.1716 -0.1356  0.0778
  285POPC   GL2 3965   8.130   7.381   4.753 -0.2054  0.1067 -0.1071
  285POPC   C1A 3966   7.721   7.738   4.590 -0.1791  0.0644 -0.1237
  285POPC   D2A 3967   7.461   7.914   4.898  0.0715  0.1364  0.4632
  285POPC   C3A 3968   7.196   7.631   5.181 -0.1667 -0.0908 -0.0004
  285POPC   C4A 3969   6.682   7.618   5.162 -0.1400  0.1435  0.1016
  285POPC   C1B 3970   8.143   7.534   5.144  0.0914 -0.0962  0.1490
  285POPC   C2B 3971   8.248   7.940   5.411  0.0650  0.1059  0.1722
  285POPC   C3B 3972   8.301   8.237   5.645 -0.0169  0.1718  0.0888
  285POPC   C4B 3973   8.163   8.651   5.532 -0.0829 -0.0302 -0.2605
  286POPC   NC3 3974   2.867   9.466   4.663 -0.0083 -0.1270 -0.1160
  286POPC   PO4 3975   3.033   9.488   4.230  0.0177  0.0489  0.2169
  286POPC   GL1 3976   3.409   9.345   4.450 -0.0576  0.0312  0.1186
  286POPC   GL2 3977   3.339   9.042   4.488  0.0796 -0.0917  0.0191
  286POPC   C1A 3978   3.734   9.257   4.825 -0.0606  0.0122 -0.4565
  286POPC   D2A 3979   4.063   9.157   5.077  0.0586 -0.2814  0.1033
  286POPC   C3A 3980   4.011   8.909   5.447  0.1101 -0.1372 -0.1009
  286POPC   C4A 3981   3.771   8.675   5.725 -0.1300  0.2161  0.0391
  286POPC   C1B 3982   3.459   8.849   4.845  0.1070 -0.1799 -0.2410
  286POPC   C2B 3983   3.489   8.654   5.280  0.0101 -0.0946 -0.1770
  286POPC   C3B 3984   3.309   8.793   5.744 -0.1657  0.0701  0.1525
  286POPC   C4B 3985   2.867   8.812   5.992 -0.1911  0.1476 -0.0844
  287POPC   NC3 3986  10.077   3.895   5.317  0.2532  0.0683  0.0228
  287POPC   PO4 3987  10.530   3.938   5.171  0.2133 -0.1605 -0.0348
  287POPC   GL1 3988  10.484   3.849   5.622  0.2875 -0.0168 -0.3838
  287POPC   GL2 3989  10.405   4.196   5.791 -0.2980 -0.0243  0.1322
  287POPC   C1A 3990  10.404   3.830   6.121  0.0328 -0.0151 -0.1868
  287POPC   D2A 3991  10.506   4.089   6.421  0.0234  0.1534 -0.0011
  287POPC   C3A 3992  10.921   4.016   6.725 -0.2971  0.2022 -0.1083
  287POPC   C4A 3993  11.382   3.870   6.754  0.2447 -0.1486  0.2129
  287POPC   C1B 3994  10.090   4.250   6.107  0.0317  0.1539 -0.0623
  287POPC   C2B 3995   9.989   3.985   6.461  0.2701 -0.2664  0.0078
  287POPC   C3B 3996   9.892   3.641   6.746  0.2456 -0.1938  0.1470
  287POPC   C4B 3997   9.899   3.298   6.987 -0.0664  0.0357 -0.0690
  288POPC   NC3 3998   7.903   0.871   4.616 -0.1229 -0.0691  0.1052
  288POPC   PO4 3999   8.075   0.597   4.301 -0.1002  0.0764  0.1370
  288POPC   GL1 4000   8.007   0.363   4.676  0.1799  0.0008  0.0602
  288POPC   GL2 4001   8.248   0.227   4.942  0.1133  0.2635  0.1725
  288POPC   C1A 4002   7.751   0.435   5.104  0.2244  0.2727 -0.0740
  288POPC   D2A 4003   7.638   0.187   5.449 -0.0451 -0.1275 -0.0015
  288POPC   C3A 4004   7.431   0.279   5.729 -0.0320 -0.0023 -0.0107
  288POPC   C4A 4005   7.196   0.609   5.597 -0.1590 -0.0996  0.0788
  288POPC   C1B 4006   7.990  -0.030   5.191 -0.1101 -0.0787  0.1409
  288POPC   C2B 4007   8.050  -0.257   5.651  0.0850 -0.0783 -0.3969
  288POPC   C3B 4008   8.371  -0.539   5.906  0.2409 -0.0937 -0.1635
  288POPC   C4B 4009   8.709  -0.474   6.158  0.0423 -0.3707  0.1566
  289POPC   NC3 4010   7.176   6.616   3.768 -0.1610 -0.2197 -0.3168
  289POPC   PO4 4011   6.835   6.265   3.830 -0.2483 -0.2706 -0.0921
  289POPC   GL1 4012   6.561   6.307   4.185  0.0455 -0.3458 -0.2144
  289POPC   GL2 4013   6.616   6.203   4.460 -0.0498  0.0850  0.1373
  289POPC   C1A 4014   6.227   6.552   4.338 -0.0979 -0.0062  0.1417
  289POPC   D2A 4015   6.081   6.777   4.562  0.1535  0.1260 -0.1660
  289POPC   C3A 4016   5.882   7.111   4.414  0.3389  0.0453  0.2001
  289POPC   C4A 4017   5.764   7.370   4.702  0.2154  0.0937  0.1390
  289POPC   C1B 4018   6.436   6.393   4.839 -0.2240  0.2727  0.3822
  289POPC   C2B 4019   6.224   6.602   5.000  0.1481 -0.1113 -0.0749
  289POPC   C3B 4020   5.888   6.596   5.183 -0.3523 -0.2201  0.2080
  289POPC   C4B 4021   5.653   6.530   5.511 -0.2055 -0.1328 -0.0754
  290POPC   NC3 4022   6.734   2.109   5.172  0.1534  0.0075 -0.0228
  290POPC   PO4 4023   6.670   2.543   5.341  0.1894  0.1247 -0.1755
  290POPC   GL1 4024   6.577   2.303   5.619  0.5206  0.0296 -0.3621
  290POPC   GL2 4025   6.852   2.198   5.725 -0.0076  0.0252  0.0226
  290POPC   C1A 4026   6.313   2.243   5.990  0.1528  0.0640 -0.0624
  290POPC   D2A 4027   6.029   2.306   6.442  0.2387  0.2210  0.0931
  290POPC   C3A 4028   6.066   2.522   6.790 -0.1421 -0.1317  0.1722
  290POPC   C4A 4029   5.972   2.667   7.161  0.0029 -0.2438  0.0922
  290POPC   C1B 4030   6.809   2.362   6.152  0.1904  0.1063  0.1026
  290POPC   C2B 4031   7.051   2.458   6.499  0.0717  0.0352 -0.3985
  290POPC   C3B 4032   6.921   2.754   6.709  0.0780  0.3654  0.0446
  290POPC   C4B 4033   6.504   2.706   6.955 -0.3599 -0.0752  0.1597
  291POPC   NC3 4034  10.114   5.093   4.855 -0.0777 -0.2354  0.2819
  291POPC   PO4 4035  10.416   5.302   4.721  0.1110  0.0531  0.3477
  291POPC   GL1 4036  10.600   5.215   5.110 -0.1939  0.4622  0.0901
  291POPC   GL2 4037  10.643   4.958   5.199  0.0585  0.1775  0.2235
  291POPC   C1A 4038  10.714   5.229   5.624 -0.0782  0.1724  0.2239
  291POPC   D2A 4039  10.857   5.094   6.084 -0.0558  0.0315 -0.0663
  291POPC   C3A 4040  10.532   5.177   6.446  0.0690 -0.2470  0.1212
  291POPC   C4A 4041  10.129   5.176   6.636 -0.1478  0.2360  0.1829
  291POPC   C1B 4042  10.483   4.819   5.566 -0.0353 -0.0065 -0.1451
  291POPC   C2B 4043  10.665   4.697   5.863 -0.0944  0.0360  0.0591
  291POPC   C3B 4044  10.681   4.515   6.326  0.0303 -0.3853  0.2544
  291POPC   C4B 4045  10.585   4.783   6.704  0.1766  0.0725 -0.4145
  292POPC   NC3 4046   3.695   1.547   4.849  0.0027  0.0629 -0.0276
  292POPC   PO4 4047   4.167   1.533   4.751 -0.2897  0.0353 -0.0073
  292POPC   GL1 4048   4.270   1.211   5.018 -0.4089 -0.1002 -0.2350
  292POPC   GL2 4049   4.132   0.937   4.966  0.1063  0.0103 -0.0453
  292POPC   C1A 4050   4.412   1.142   5.449  0.1030 -0.0592  0.0135
  292POPC   D2A 4051   4.275   1.395   5.775  0.1159 -0.0591 -0.2101
  292POPC   C3A 4052   4.121   1.373   6.250 -0.3304 -0.0803 -0.2319
  292POPC   C4A 4053   4.017   1.253   6.711 -0.2911  0.1587 -0.1691
  292POPC   C1B 4054   4.141   0.704   5.337  0.2682  0.2638  0.0079
  292POPC   C2B 4055   4.134   0.646   5.791 -0.5898  0.1159  0.1043
  292POPC   C3B 4056   4.160   0.852   6.315  0.1122  0.1527  0.1190
  292POPC   C4B 4057   4.584   1.152   6.481 -0.1047  0.1118 -0.1053
  293POPC   NC3 4058   3.490   3.454   5.134  0.1302  0.0017 -0.0787
  293POPC   PO4 4059   3.309   3.802   4.903  0.0193 -0.1855 -0.3030
  293POPC   GL1 4060   3.564   4.031   5.322 -0.2726  0.2856 -0.1581
  293POPC   GL2 4061   3.548   4.305   5.398 -0.0700  0.1850  0.0255
  293POPC   C1A 4062   3.748   3.894   5.693 -0.2852  0.2002  0.0268
  293POPC   D2A 4063   3.961   3.651   5.825 -0.0990 -0.1606 -0.1852
  293POPC   C3A 4064   4.143   3.842   6.198  0.2936  0.0113 -0.0398
  293POPC   C4A 4065   3.769   4.105   6.332  0.0264 -0.0546 -0.0378
  293POPC   C1B 4066   3.671   4.527   5.816  0.0409 -0.2758 -0.1871
  293POPC   C2B 4067   3.630   4.618   6.193  0.0518 -0.1196  0.1844
  293POPC   C3B 4068   3.354   4.430   6.462  0.1084 -0.2425  0.2735
  293POPC   C4B 4069   3.191   4.270   6.787  0.2484  0.2833 -0.0072
  294POPC   NC3 4070   4.306   5.546   4.443 -0.1599 -0.0012 -0.2945
  294POPC   PO4 4071   4.661   5.488   4.701 -0.2834  0.6044 -0.3248
  294POPC   GL1 4072   4.826   5.803   4.431  0.2398 -0.3652 -0.2676
  294POPC   GL2 4073   5.164   5.861   4.314  0.1532  0.3685 -0.0905
  294POPC   C1A 4074   4.777   6.178   4.513 -0.2084  0.0017 -0.0720
  294POPC   D2A 4075   4.750   6.469   4.709 -0.2886 -0.4264  0.2692
  294POPC   C3A 4076   4.769   6.609   5.204 -0.0847  0.0037 -0.1522
  294POPC   C4A 4077   4.863   6.396   5.644  0.2746 -0.3275  0.3457
  294POPC   C1B 4078   5.201   6.003   4.706  0.0535  0.3292  0.0632
  294POPC   C2B 4079   4.894   6.039   4.987  0.1459 -0.0136  0.1019
  294POPC   C3B 4080   4.970   5.781   5.381 -0.1017  0.1167 -0.0702
  294POPC   C4B 4081   5.433   5.640   5.562 -0.0522  0.3347  0.0349
  295POPC   NC3 4082  10.178   7.818   4.746  0.0723  0.3360 -0.0464
  295POPC   PO4 4083  10.008   8.152   5.025 -0.5002  0.2134 -0.1204
  295POPC   GL1 4084   9.979   8.200   5.563  0.0395 -0.2078 -0.1980
  295POPC   GL2 4085   9.703   8.230   5.740 -0.0244  0.2051  0.0991
  295POPC   C1A 4086  10.103   8.074   5.943 -0.1372  0.1974  0.1729
  295POPC   D2A 4087  10.034   8.002   6.431  0.0749  0.1409  0.2571
  295POPC   C3A 4088  10.105   8.283   6.720  0.1617  0.1971  0.1314
  295POPC   C4A 4089  10.062   8.176   7.117 -0.0243 -0.1348  0.0047
  295POPC   C1B 4090   9.559   8.059   6.085  0.0094  0.0662  0.1389
  295POPC   C2B 4091   9.360   8.295   6.415  0.0906  0.0870 -0.1441
  295POPC   C3B 4092   8.933   8.480   6.574 -0.2065  0.3196 -0.4079
  295POPC   C4B 4093   8.864   8.594   6.948  0.0054  0.0482  0.0442
  296POPC   NC3 4094   7.471   1.223   4.308 -0.0161 -0.0586 -0.1730
  296POPC   PO4 4095   7.320   0.998   4.586  0.1132 -0.0352  0.1761
  296POPC   GL1 4096   7.090   0.652   4.611  0.2797  0.0786 -0.0443
  296POPC   GL2 4097   7.383   0.495   4.795 -0.1187  0.1546 -0.5088
  296POPC   C1A 4098   6.750   0.412   5.017 -0.3525 -0.1235  0.2948
  296POPC   D2A 4099   6.588   0.417   5.428  0.1886  0.0330  0.2347
  296POPC   C3A 4100   6.449  -0.040   5.592 -0.0475 -0.0712  0.0626
  296POPC   C4A 4101   6.314  -0.508   5.660 -0.0744  0.1896 -0.2071
  296POPC   C1B 4102   7.213   0.319   5.186 -0.2184  0.0553 -0.1153
  296POPC   C2B 4103   6.950   0.149   5.580 -0.2631  0.2032 -0.0477
  296POPC   C3B 4104   7.241  -0.205   5.750  0.3956 -0.1129 -0.2986
  296POPC   C4B 4105   7.264  -0.655   5.816 -0.1786 -0.2170  0.1056
  297POPC   NC3 4106   9.002   0.757   4.679 -0.0635 -0.2265 -0.0140
  297POPC   PO4 4107   9.112   1.040   4.975 -0.1872  0.0921  0.2546
  297POPC   GL1 4108   8.967   0.797   5.312  0.3147  0.1623 -0.2877
  297POPC   GL2 4109   9.077   0.863   5.601  0.0362 -0.0436 -0.0685
  297POPC   C1A 4110   8.484   0.748   5.466  0.0196  0.3620  0.0754
  297POPC   D2A 4111   8.155   0.429   5.465 -0.1183  0.1367 -0.0597
  297POPC   C3A 4112   7.985   0.369   5.881  0.2529  0.1647  0.2418
  297POPC   C4A 4113   7.800   0.144   6.060  0.1291  0.1662  0.1490
  297POPC   C1B 4114   9.205   0.940   6.070  0.0845 -0.2148 -0.0484
  297POPC   C2B 4115   9.212   0.921   6.451 -0.2527 -0.0508  0.1593
  297POPC   C3B 4116   9.676   0.808   6.648 -0.1351 -0.0970  0.1297
  297POPC   C4B 4117   9.866   0.633   7.008  0.2311  0.0826  0.0227
  298POPC   NC3 4118   8.149   6.172   4.314 -0.0329 -0.1931 -0.0994
  298POPC   PO4 4119   7.850   5.889   4.167  0.3105 -0.1056 -0.0284
  298POPC   GL1 4120   7.572   6.022   4.481 -0.2996 -0.0267 -0.0077
  298POPC   GL2 4121   7.736   6.372   4.626  0.1354 -0.2334 -0.1913
  298POPC   C1A 4122   7.540   5.995   4.934  0.1918 -0.0273 -0.0743
  298POPC   D2A 4123   7.236   5.978   5.294 -0.1002 -0.2226  0.1731
  298POPC   C3A 4124   7.079   5.724   5.555  0.2555 -0.1928  0.2750
  298POPC   C4A 4125   6.731   5.455   5.815 -0.1948 -0.2615  0.0064
  298POPC   C1B 4126   7.445   6.551   4.861 -0.0264 -0.2813 -0.1793
  298POPC   C2B 4127   7.239   6.855   5.100 -0.0794  0.1598  0.6112
  298POPC   C3B 4128   7.015   7.122   5.297  0.0360 -0.0319  0.2935
  298POPC   C4B 4129   6.493   7.159   5.408 -0.2591  0.0349 -0.0908
  299POPC   NC3 4130   1.936   2.999   5.164 -0.0986  0.0676 -0.3254
  299POPC   PO4 4131   1.578   2.908   5.440 -0.1454 -0.1589  0.1279
  299POPC   GL1 4132   1.683   2.814   5.884 -0.0132 -0.0730  0.0652
  299POPC   GL2 4133   1.532   2.638   6.032  0.0813  0.0123 -0.1886
  299POPC   C1A 4134   2.006   2.710   6.143  0.1243  0.1201  0.2403
  299POPC   D2A 4135   2.239   2.558   6.487 -0.2505  0.3405  0.4318
  299POPC   C3A 4136   2.049   2.343   6.976 -0.0856 -0.2563  0.5534
  299POPC   C4A 4137   2.110   2.297   7.371  0.1507 -0.4450 -0.3272
  299POPC   C1B 4138   1.296   2.534   6.428 -0.3039 -0.1699  0.3943
  299POPC   C2B 4139   1.317   2.150   6.616 -0.5150 -0.0357 -0.1670
  299POPC   C3B 4140   1.121   1.838   6.963  0.0268 -0.0258  0.0547
  299POPC   C4B 4141   1.400   1.632   7.242 -0.0749  0.0155  0.0986
  300POPC   NC3 4142   0.868   8.096   4.792  0.1113  0.1188  0.1491
  300POPC   PO4 4143   0.659   8.427   5.107  0.3666 -0.1084 -0.2101
  300POPC   GL1 4144   0.715   8.468   5.557  0.0137  0.1503  0.2920
  300POPC   GL2 4145   0.622   8.657   5.772 -0.1577 -0.0513 -0.2612
  300POPC   C1A 4146   0.850   8.224   5.912  0.1691 -0.1248  0.0090
  300POPC   D2A 4147   0.958   7.828   6.234  0.3912  0.2911 -0.1190
  300POPC   C3A 4148   0.847   7.868   6.726 -0.1809 -0.1027 -0.1456
  300POPC   C4A 4149   0.858   7.772   7.110 -0.0260  0.0660  0.1439
  300POPC   C1B 4150   0.871   8.934   6.140  0.1336  0.1648 -0.0192
  300POPC   C2B 4151   0.764   8.916   6.555 -0.1396 -0.0253  0.0545
  300POPC   C3B 4152   0.845   8.731   6.894 -0.1131  0.0250  0.0891
  300POPC   C4B 4153   0.938   8.604   7.285  0.1104  0.3472  0.0412
  301POPC   NC3 4154   5.306   1.342   4.804 -0.1179  0.0611  0.1117
  301POPC   PO4 4155   5.726   1.431   4.585  0.1984  0.3841  0.0163
  301POPC   GL1 4156   5.930   1.136   4.787 -0.1850 -0.0415 -0.1553
  301POPC   GL2 4157   6.137   0.816   4.890  0.1825 -0.0340  0.1643
  301POPC   C1A 4158   5.728   0.861   5.162 -0.2975  0.4993 -0.3031
  301POPC   D2A 4159   5.771   0.464   5.219 -0.3405 -0.1676  0.0532
  301POPC   C3A 4160   5.550   0.141   5.381  0.1242 -0.0743 -0.2284
  301POPC   C4A 4161   5.513  -0.275   5.555  0.1147  0.1229  0.0673
  301POPC   C1B 4162   6.220   0.449   5.056 -0.2109  0.0445 -0.1753
  301POPC   C2B 4163   6.071   0.096   5.202 -0.0974 -0.5847  0.1877
  301POPC   C3B 4164   5.991  -0.136   5.506 -0.1166  0.2071  0.0729
  301POPC   C4B 4165   5.878  -0.547   5.595  0.1475 -0.0360  0.4494
  302POPC   NC3 4166   1.798   1.754   5.491  0.0355  0.1758  0.1296
  302POPC   PO4 4167   1.583   1.442   5.279  0.0882  0.1013 -0.0259
  302POPC   GL1 4168   1.334   1.464   5.674 -0.1478 -0.3250 -0.0393
  302POPC   GL2 4169   1.616   1.545   5.915 -0.0639 -0.1171 -0.1547
  302POPC   C1A 4170   1.140   1.216   5.962 -0.1640  0.0279  0.0332
  302POPC   D2A 4171   0.978   0.998   6.350 -0.1068 -0.2363 -0.1700
  302POPC   C3A 4172   1.222   1.058   6.676 -0.1348  0.3767 -0.0784
  302POPC   C4A 4173   1.513   1.378   6.871 -0.0561 -0.0738  0.2650
  302POPC   C1B 4174   1.932   1.219   6.123  0.0255  0.1074 -0.1298
  302POPC   C2B 4175   2.314   1.183   6.357 -0.1170 -0.1615  0.0029
  302POPC   C3B 4176   2.759   1.337   6.545 -0.1312 -0.4065 -0.2983
  302POPC   C4B 4177   2.991   1.407   6.901 -0.0251  0.0198  0.0937
  303POPC   NC3 4178   7.051   4.232   5.390  0.2511  0.5253 -0.2345
  303POPC   PO4 4179   7.527   4.244   5.418 -0.2012 -0.2668 -0.0849
  303POPC   GL1 4180   7.643   4.124   5.809 -0.3530 -0.3211 -0.1205
  303POPC   GL2 4181   7.713   3.840   5.782  0.0622 -0.4011  0.0100
  303POPC   C1A 4182   7.634   4.311   6.208 -0.0318  0.1495  0.2839
  303POPC   D2A 4183   7.532   4.202   6.608 -0.0228 -0.1837  0.0575
  303POPC   C3A 4184   7.442   4.160   6.998 -0.1674  0.3969 -0.0713
  303POPC   C4A 4185   7.325   4.141   7.422  0.0124 -0.0652 -0.2367
  303POPC   C1B 4186   8.181   3.970   6.024  0.2782 -0.0307  0.6953
  303POPC   C2B 4187   8.425   3.667   6.208  0.0159  0.1374  0.1238
  303POPC   C3B 4188   8.659   3.588   6.479 -0.1952 -0.1304 -0.1382
  303POPC   C4B 4189   8.574   3.719   6.958 -0.2122 -0.1617  0.1115
  304POPC   NC3 4190   2.836   3.965   4.874  0.1167 -0.2374  0.0286
  304POPC   PO4 4191   2.519   4.229   4.980  0.1083  0.1240  0.1459
  304POPC   GL1 4192   2.594   4.119   5.398 -0.1760 -0.1065 -0.0703
  304POPC   GL2 4193   2.598   3.935   5.744 -0.4014 -0.4305  0.2766
  304POPC   C1A 4194   2.745   4.417   5.679 -0.0813 -0.0335 -0.0296
  304POPC   D2A 4195   2.582   4.795   5.919 -0.2154  0.0051  0.0040
  304POPC   C3A 4196   2.345   5.207   5.968 -0.1598 -0.0295 -0.1954
  304POPC   C4A 4197   2.066   5.400   6.310  0.1633  0.3204 -0.1342
  304POPC   C1B 4198   2.591   3.895   6.214  0.0415 -0.1449  0.2480
  304POPC   C2B 4199   2.268   3.908   6.507 -0.5506  0.1784  0.1375
  304POPC   C3B 4200   1.993   4.064   6.853  0.4700 -0.1931 -0.0013
  304POPC   C4B 4201   1.664   4.047   6.831 -0.1385 -0.0110  0.0596
  305POPC   NC3 4202   9.421   6.290   4.781 -0.2652  0.1873 -0.2864
  305POPC   PO4 4203   9.820   6.001   5.031  0.0056  0.1074  0.3100
  305POPC   GL1 4204   9.970   5.865   5.436  0.2206 -0.3903 -0.0079
  305POPC   GL2 4205  10.158   6.056   5.708 -0.0115 -0.0913  0.0066
  305POPC   C1A 4206  10.016   5.596   5.910 -0.1197  0.0086 -0.0327
  305POPC   D2A 4207  10.292   5.617   6.300 -0.2882  0.0992 -0.0646
  305POPC   C3A 4208  10.718   5.733   6.341  0.0089  0.4609  0.3190
  305POPC   C4A 4209  10.796   6.178   6.317 -0.0003 -0.0490 -0.0142
  305POPC   C1B 4210  10.107   6.438   5.963 -0.2483  0.2042  0.0138
  305POPC   C2B 4211  10.461   6.622   6.351 -0.1511  0.2434  0.0335
  305POPC   C3B 4212  10.487   6.789   6.716  0.0097 -0.1359  0.0956
  305POPC   C4B 4213  10.758   6.767   7.025 -0.2807  0.1968  0.0038
  306POPC   NC3 4214   6.232   0.924   3.734 -0.0633  0.0595 -0.3803
  306POPC   PO4 4215   5.840   0.780   3.882 -0.2899  0.0315 -0.1371
  306POPC   GL1 4216   5.904   0.411   4.219 -0.1833  0.2213 -0.0874
  306POPC   GL2 4217   6.043   0.588   4.400  0.0953  0.0257 -0.1519
  306POPC   C1A 4218   5.958   0.054   4.452  0.1542  0.0236 -0.0127
  306POPC   D2A 4219   5.798  -0.428   4.217 -0.0720  0.0690  0.4747
  306POPC   C3A 4220   5.287  -0.442   4.250 -0.0085 -0.3664  0.1665
  306POPC   C4A 4221   4.999  -0.222   4.331 -0.0580 -0.3581  0.1513
  306POPC   C1B 4222   5.761   0.473   4.728  0.3154 -0.0547  0.0172
  306POPC   C2B 4223   5.655   0.017   4.915  0.1808 -0.1159 -0.3310
  306POPC   C3B 4224   5.746  -0.362   5.124 -0.2904 -0.1048  0.2248
  306POPC   C4B 4225   6.092  -0.721   5.076  0.1023 -0.0834  0.0700
  307POPC   NC3 4226   1.187   4.649   4.742 -0.1588 -0.0479 -0.0857
  307POPC   PO4 4227   0.738   4.380   4.782  0.1775  0.1524  0.0373
  307POPC   GL1 4228   0.911   4.563   5.166  0.3471  0.2428 -0.1311
  307POPC   GL2 4229   1.296   4.398   5.161 -0.0946  0.2708 -0.0821
  307POPC   C1A 4230   0.866   4.462   5.594 -0.1147 -0.1843  0.1613
  307POPC   D2A 4231   0.668   4.270   5.937  0.1413 -0.1058 -0.0177
  307POPC   C3A 4232   0.913   4.191   6.371 -0.2167  0.1842  0.0927
  307POPC   C4A 4233   1.210   4.470   6.507  0.2353  0.3055 -0.0942
  307POPC   C1B 4234   1.365   4.660   5.529  0.0311  0.3502  0.0201
  307POPC   C2B 4235   1.609   4.736   5.991 -0.2626 -0.0758  0.0229
  307POPC   C3B 4236   1.974   4.834   6.141  0.2932 -0.0517  0.0258
  307POPC   C4B 4237   2.324   4.919   6.382  0.0065  0.0502  0.1072
  308POPC   NC3 4238   5.411   4.600   5.235 -0.2584  0.0761  0.4656
  308POPC   PO4 4239   5.764   4.372   5.408  0.3766  0.3391 -0.1723
  308POPC   GL1 4240   5.533   4.274   5.775  0.1769  0.2668 -0.3588
  308POPC   GL2 4241   5.300   4.031   5.917 -0.0640 -0.3311  0.0489
  308POPC   C1A 4242   5.520   4.338   6.297 -0.2955 -0.0219 -0.1297
  308POPC   D2A 4243   5.879   4.323   6.547  0.0406 -0.0945  0.0465
  308POPC   C3A 4244   5.855   4.405   6.950  0.1064  0.0993 -0.3824
  308POPC   C4A 4245   5.594   4.360   7.283  0.4914 -0.1303 -0.2724
  308POPC   C1B 4246   5.659   3.827   6.143 -0.1881 -0.1850  0.3073
  308POPC   C2B 4247   5.944   3.861   6.420  0.0440  0.0333 -0.0067
  308POPC   C3B 4248   6.382   3.980   6.381 -0.1023 -0.3331 -0.0463
  308POPC   C4B 4249   6.675   4.176   6.025 -0.0834 -0.0772 -0.2196
  309POPC   NC3 4250   0.576   7.972   5.289  0.0356  0.2101 -0.2741
  309POPC   PO4 4251   0.552   7.591   5.383 -0.2846  0.0704 -0.2116
  309POPC   GL1 4252   0.804   7.667   5.707 -0.1741 -0.1407 -0.2656
  309POPC   GL2 4253   0.702   7.485   6.053  0.2663  0.2338 -0.2131
  309POPC   C1A 4254   1.183   7.476   5.925 -0.3323 -0.2112 -0.2894
  309POPC   D2A 4255   1.487   7.121   5.883  0.2701 -0.1964 -0.0303
  309POPC   C3A 4256   1.559   6.760   6.173  0.1068  0.0747 -0.2462
  309POPC   C4A 4257   1.440   6.558   6.516  0.3253 -0.0573  0.0709
  309POPC   C1B 4258   0.932   7.431   6.537 -0.2391  0.2024 -0.1405
  309POPC   C2B 4259   1.188   7.337   6.954 -0.2127 -0.0670 -0.0775
  309POPC   C3B 4260   1.637   7.328   7.059  0.0044 -0.0439  0.0627
  309POPC   C4B 4261   2.074   7.457   7.012  0.0825 -0.0375 -0.0472
  310POPC   NC3 4262   6.319   8.081   2.960  0.0240 -0.1580  0.1900
  310POPC   PO4 4263   5.939   7.991   3.214  0.1951  0.2845  0.0720
  310POPC   GL1 4264   5.647   7.896   3.628 -0.0689  0.0912  0.3116
  310POPC   GL2 4265   5.661   8.165   3.814 -0.2003  0.1627  0.0230
  310POPC   C1A 4266   5.370   7.835   3.991  0.2678 -0.0548  0.2611
  310POPC   D2A 4267   5.106   7.988   4.344  0.2759  0.1213  0.0647
  310POPC   C3A 4268   4.687   7.825   4.258 -0.1217 -0.4177 -0.0616
  310POPC   C4A 4269   4.338   7.885   4.407 -0.0603  0.1664 -0.0058
  310POPC   C1B 4270   5.906   8.080   4.123 -0.1845  0.1188  0.1845
  310POPC   C2B 4271   5.643   7.917   4.468  0.1729 -0.0219 -0.0436
  310POPC   C3B 4272   5.333   7.744   4.737 -0.1406 -0.4814 -0.0748
  310POPC   C4B 4273   5.300   7.791   5.116 -0.5279 -0.0918 -0.0265
  311POPC   NC3 4274   3.883   3.383   4.746  0.0824  0.0755 -0.1230
  311POPC   PO4 4275   4.153   3.271   5.045 -0.1875  0.0344 -0.0111
  311POPC   GL1 4276   3.887   3.205   5.388 -0.1385 -0.0904  0.1256
  311POPC   GL2 4277   3.663   3.278   5.593  0.2239  0.0639 -0.1429
  311POPC   C1A 4278   4.041   2.787   5.565 -0.0787 -0.0959 -0.1227
  311POPC   D2A 4279   4.418   2.523   5.582  0.2739  0.2299 -0.1090
  311POPC   C3A 4280   4.590   2.168   5.953  0.2059 -0.3893  0.2118
  311POPC   C4A 4281   4.806   1.954   6.118  0.1801  0.0722  0.1244
  311POPC   C1B 4282   3.984   3.166   5.900 -0.2174  0.0567  0.1778
  311POPC   C2B 4283   3.959   3.373   6.212  0.1035  0.1525 -0.1145
  311POPC   C3B 4284   3.824   3.583   6.591 -0.1042 -0.2220 -0.0834
  311POPC   C4B 4285   3.452   3.647   6.892  0.1535 -0.2742 -0.1582
  312POPC   NC3 4286   1.271   0.908   5.378 -0.2330 -0.1750  0.1456
  312POPC   PO4 4287   1.177   0.515   5.437 -0.0705  0.0571 -0.1637
  312POPC   GL1 4288   1.224   0.187   5.759 -0.0313 -0.1608  0.0908
  312POPC   GL2 4289   1.269  -0.088   5.758  0.1710  0.3671 -0.2416
  312POPC   C1A 4290   1.075   0.199   6.218 -0.0218 -0.1531 -0.3552
  312POPC   D2A 4291   0.790   0.233   6.488  0.1624 -0.1060 -0.2234
  312POPC   C3A 4292   0.721   0.293   6.941 -0.2377 -0.1648 -0.0733
  312POPC   C4A 4293   0.824   0.447   7.350  0.0702  0.1228 -0.0125
  312POPC   C1B 4294   1.537  -0.166   6.046 -0.1748  0.2850 -0.2240
  312POPC   C2B 4295   1.691  -0.587   6.103 -0.0886 -0.0110  0.2564
  312POPC   C3B 4296   1.921  -0.614   6.531  0.1675  0.1707 -0.1845
  312POPC   C4B 4297   2.176  -0.730   6.923 -0.1480 -0.4258 -0.2377
  313POPC   NC3 4298   0.418   7.048   4.867  0.1882 -0.0573 -0.1358
  313POPC   PO4 4299   0.105   7.326   5.078  0.2795 -0.1650 -0.0628
  313POPC   GL1 4300  -0.147   7.437   5.564  0.2707 -0.2819 -0.3295
  313POPC   GL2 4301  -0.365   7.664   5.644 -0.0539 -0.0292 -0.2352
  313POPC   C1A 4302  -0.526   7.265   5.876 -0.2089 -0.0996  0.1446
  313POPC   D2A 4303  -0.839   7.386   6.238 -0.0545 -0.0888 -0.2173
  313POPC   C3A 4304  -0.732   7.770   6.480 -0.2006 -0.0675  0.2951
  313POPC   C4A 4305  -1.159   7.932   6.592 -0.2517  0.0336 -0.0784
  313POPC   C1B 4306  -0.344   7.681   6.073 -0.1323  0.1742 -0.1255
  313POPC   C2B 4307  -0.284   7.534   6.483 -0.1670 -0.0098 -0.0349
  313POPC   C3B 4308   0.110   7.335   6.768 -0.2521 -0.0023  0.2169
  313POPC   C4B 4309   0.171   7.125   7.133  0.1217 -0.0644 -0.1377
  314POPC   NC3 4310   1.929   8.627   4.542 -0.1226 -0.0371  0.0879
  314POPC   PO4 4311   1.971   8.952   4.933  0.0917 -0.0459 -0.0069
  314POPC   GL1 4312   1.974   9.218   5.299 -0.1741  0.1214  0.1149
  314POPC   GL2 4313   2.217   9.380   5.379 -0.1504 -0.0360 -0.4131
  314POPC   C1A 4314   2.070   8.961   5.585 -0.1017 -0.0932  0.0038
  314POPC   D2A 4315   2.199   8.745   5.949 -0.1540  0.3839  0.2211
  314POPC   C3A 4316   2.510   8.779   6.330 -0.0842 -0.2435  0.0851
  314POPC   C4A 4317   2.487   8.638   6.762  0.0580 -0.1025 -0.0383
  314POPC   C1B 4318   2.121   9.448   5.792 -0.0906  0.2591 -0.1706
  314POPC   C2B 4319   2.174   9.578   6.073 -0.2123  0.0953  0.2023
  314POPC   C3B 4320   2.362   9.518   6.425  0.0112 -0.2342 -0.1836
  314POPC   C4B 4321   2.680   9.617   6.718 -0.0908  0.1915 -0.3600
  315POPC   NC3 4322   8.242   3.264   5.166 -0.0165 -0.5140  0.0719
  315POPC   PO4 4323   8.618   3.436   5.356  0.0054  0.1934  0.2290
  315POPC   GL1 4324   8.714   3.360   5.788  0.2031  0.3633  0.0022
  315POPC   GL2 4325   8.735   2.971   5.883  0.3035 -0.0193 -0.0677
  315POPC   C1A 4326   8.935   3.357   6.185  0.2389  0.3780 -0.3125
  315POPC   D2A 4327   9.200   3.197   6.582  0.1247  0.0017 -0.2053
  315POPC   C3A 4328   9.673   3.170   6.572  0.0846  0.0064  0.1038
  315POPC   C4A 4329   9.895   2.864   6.380 -0.1326 -0.2235 -0.0558
  315POPC   C1B 4330   8.291   3.099   5.943 -0.0034 -0.0468 -0.1931
  315POPC   C2B 4331   8.140   3.208   6.336  0.0668 -0.1081  0.1254
  315POPC   C3B 4332   8.162   3.544   6.626  0.0750 -0.0936  0.0004
  315POPC   C4B 4333   8.136   3.503   7.066  0.1441  0.1593  0.4850
  316POPC   NC3 4334   0.577   0.155   4.581  0.0745 -0.0633  0.0071
  316POPC   PO4 4335   0.844   0.327   4.947  0.2764 -0.0032 -0.2784
  316POPC   GL1 4336   0.688   0.327   5.467 -0.2114 -0.0055  0.2265
  316POPC   GL2 4337   0.409   0.291   5.479 -0.2704 -0.0905 -0.0562
  316POPC   C1A 4338   0.564   0.426   5.936 -0.2417  0.1820  0.1032
  316POPC   D2A 4339   0.591   0.708   6.208  0.0960  0.0877 -0.0779
  316POPC   C3A 4340   0.420   0.623   6.562  0.3441  0.0832 -0.1218
  316POPC   C4A 4341   0.072   0.509   6.748 -0.0805  0.2060  0.0156
  316POPC   C1B 4342   0.132   0.458   5.832 -0.3097 -0.0670  0.1795
  316POPC   C2B 4343   0.055   0.705   6.193  0.0515 -0.2295 -0.0140
  316POPC   C3B 4344  -0.064   0.904   6.532 -0.0418  0.0867  0.1516
  316POPC   C4B 4345   0.153   1.033   6.857  0.0784 -0.1338 -0.0493
  317POPC   NC3 4346   5.088  10.219   3.577 -0.0581 -0.0579 -0.1884
  317POPC   PO4 4347   5.208  10.588   3.608 -0.1171 -0.2572 -0.0259
  317POPC   GL1 4348   5.111  10.382   4.045  0.1668 -0.1485 -0.0346
  317POPC   GL2 4349   4.796  10.436   4.189  0.3235 -0.4706 -0.0207
  317POPC   C1A 4350   5.456  10.253   4.404 -0.1794 -0.1272  0.1643
  317POPC   D2A 4351   5.500   9.821   4.671 -0.1545 -0.0350  0.0373
  317POPC   C3A 4352   5.181   9.539   4.758 -0.2000 -0.0966  0.1578
  317POPC   C4A 4353   4.786   9.538   4.589 -0.1288  0.1031  0.0263
  317POPC   C1B 4354   4.559  10.258   4.526  0.2001  0.0636 -0.2389
  317POPC   C2B 4355   4.727   9.985   4.859 -0.0122  0.3444  0.1110
  317POPC   C3B 4356   4.521   9.780   5.275  0.0597 -0.0032  0.1136
  317POPC   C4B 4357   4.558   9.816   5.755 -0.0828 -0.2001 -0.0388
  318POPC   NC3 4358   5.310   2.264   5.068  0.3643  0.1436  0.1557
  318POPC   PO4 4359   5.707   2.503   5.242  0.4739  0.1381 -0.0296
  318POPC   GL1 4360   5.788   2.359   5.615 -0.0252  0.2837  0.1485
  318POPC   GL2 4361   6.085   2.154   5.525  0.3247  0.0999 -0.1059
  318POPC   C1A 4362   5.652   2.169   6.073  0.4111 -0.1552 -0.1687
  318POPC   D2A 4363   5.589   1.930   6.462  0.1041  0.2348  0.1407
  318POPC   C3A 4364   5.616   2.215   6.751 -0.0229  0.5792  0.0055
  318POPC   C4A 4365   5.722   2.082   7.137 -0.4882  0.3932 -0.1878
  318POPC   C1B 4366   5.956   1.899   5.826  0.2667  0.1471  0.0388
  318POPC   C2B 4367   6.027   1.799   6.222  0.3177  0.1235 -0.0978
  318POPC   C3B 4368   6.028   1.472   6.476  0.0628 -0.6229  0.2082
  318POPC   C4B 4369   5.860   1.452   6.931  0.0008  0.0571 -0.0393
  319W        W 4370   6.594   2.281   1.013  0.0566 -0.1009 -0.1034
  320W        W 4371   2.198   4.433  13.256  0.0133 -0.2306 -0.2266
  321W        W 4372   0.941   9.002   1.238  0.2331  0.0871  0.0337
  322W        W 4373   5.231   0.491   9.824 -0.0314  0.1300  0.5958
  323W        W 4374   8.903   3.642   0.395  0.0841 -0.1446  0.1146
  324W        W 4375   0.484   7.963  13.082  0.1424 -0.1086  0.0655
  325W        W 4376   4.682  10.031   3.318 -0.2769  0.1172  0.3995
  326W        W 4377   4.497   8.226  12.254  0.0800  0.0884 -0.2136
  327W        W 4378   5.071   7.377   0.985  0.2146  0.1840  0.0331
  328W        W 4379   2.364   9.411  10.316 -0.0665 -0.1338  0.1303
  329W        W 4380   8.867   9.512   4.270  0.1236  0.0572 -0.2339
  330W        W 4381   8.622   0.573   4.934 -0.0745  0.0661  0.2296
  331W        W 4382  10.044   4.571  13.372  0.2524 -0.1592 -0.3748
  332W        W 4383   9.866   4.541   0.625  0.1195  0.0815  0.0352
  333W        W 4384   5.659   1.813   0.441 -0.0902 -0.1246  0.0861
  334W        W 4385   6.380   2.187  10.409  0.2672 -0.0362 -0.0390
  335W        W 4386   3.731   0.906   9.580 -0.1265 -0.0469  0.3903
  336W        W 4387   9.434   3.136   4.451 -0.0724  0.0731  0.0889
  337W        W 4388   1.051   2.849   2.659 -0.1492 -0.1815  0.1505
  338W        W 4389   5.939   2.587   9.220  0.0497  0.1966  0.0065
  339W        W 4390   4.800   2.602   1.922 -0.1446  0.1376 -0.1665
  340W        W 4391   9.741   0.802   9.383  0.3965 -0.0965 -0.0338
  341W        W 4392   1.013   6.643  12.929  0.1371  0.0998  0.1269
  342W        W 4393   2.345   4.008  13.620  0.1630  0.3044  0.1308
  343W        W 4394   6.372   9.441  13.664  0.3125  0.1764  0.1664
  344W        W 4395   5.781   3.525  11.470 -0.0946  0.1928 -0.2851
  345W        W 4396   3.729   0.683   0.468  0.2211 -0.0860  0.1963
  346W        W 4397   2.430   3.775  12.650 -0.1795  0.0008  0.3731
  347W        W 4398   0.164   7.794   1.368  0.0695 -0.1058 -0.0513
  348W        W 4399   9.153   8.474   2.263  0.0699 -0.1490  0.3989
  349W        W 4400   7.051  10.130   0.448 -0.0219 -0.1528  0.0669
  350W        W 4401   8.017   8.370   2.555  0.0515  0.0639 -0.3130
  351W        W 4402   4.512   2.921   2.796 -0.3555  0.1023 -0.0866
  352W        W 4403   1.848   1.910  10.861 -0.2331 -0.0386  0.2037
  353W        W 4404   6.944   8.311   9.233  0.2223 -0.0039 -0.3324
  354W        W 4405   0.531   8.943   4.794  0.0305  0.1267  0.2782
  355W        W 4406   7.661   3.522   1.066  0.0311 -0.2168  0.0207
  356W        W 4407   2.224   1.088   9.184  0.2015  0.0584  0.0010
  357W        W 4408   4.193   6.617  11.524 -0.0392  0.0580 -0.1453
  358W        W 4409   8.749   9.707  11.221  0.1368  0.0177 -0.1424
  359W        W 4410   8.170   7.380   3.503 -0.1499 -0.0294  0.0141
  360W        W 4411   9.648   9.671   8.887 -0.4730  0.0160  0.0119
  361W        W 4412   8.266   6.911   2.432  0.0886  0.0577 -0.0327
  362W        W 4413   2.599   6.005  11.317  0.0290 -0.2886 -0.1688
  363W        W 4414  10.064   4.075   4.442  0.2190  0.0920  0.1746
  364W        W 4415   5.886   1.195   4.151  0.0042  0.0845  0.3168
  365W        W 4416   1.337   7.861   0.126  0.2175 -0.0050 -0.3124
  366W        W 4417   5.489   1.003   1.648 -0.0800  0.1508 -0.1125
  367W        W 4418   4.643   4.166  12.030 -0.0906  0.1446  0.0666
  368W        W 4419   3.437   3.691   3.036  0.0281  0.0109  0.1404
  369W        W 4420   3.822   3.912   4.900 -0.3025  0.0295 -0.0708
  370W        W 4421   2.029   9.152  11.714 -0.4395  0.1173  0.1353
  371W        W 4422   7.372   5.799   2.690  0.0753 -0.5995 -0.1161
  372W        W 4423   3.477   2.919  10.469 -0.1037  0.0835  0.0286
  373W        W 4424   1.959   0.189   1.201 -0.0925 -0.1607  0.1167
  374W        W 4425   7.796   5.260  12.063  0.2084  0.2671 -0.1693
  375W        W 4426   3.338   6.841   3.668 -0.0608  0.0810 -0.0583
  376W        W 4427   4.771   5.484   3.222 -0.3457 -0.0298  0.1193
  377W        W 4428   9.408   0.124   9.931  0.0659 -0.2459 -0.2179
  378W        W 4429   9.535   0.415  12.359  0.0648  0.1559 -0.1839
  379W        W 4430   1.140  10.140  10.482 -0.1392 -0.1640 -0.1821
  380W        W 4431   3.872   1.144   4.566  0.0644  0.2094 -0.0540
  381W        W 4432   0.361   5.918   1.334 -0.0824 -0.1500  0.1579
  382W        W 4433   9.210   5.853   1.098 -0.3140 -0.3742 -0.0147
  383W        W 4434   4.184   4.629   1.394 -0.0481 -0.3069  0.1948
  384W        W 4435   5.538   5.642  10.640 -0.2686 -0.1757  0.1113
  385W        W 4436   1.044   8.634   1.550 -0.0670 -0.0133  0.1339
  386W        W 4437   4.528   9.273   2.551  0.1308  0.0849  0.2069
  387W        W 4438   2.125   2.048   4.365 -0.0352 -0.0822 -0.2406
  388W        W 4439   1.925   1.292   1.498  0.1814 -0.0688  0.1037
  389W        W 4440   1.487   1.272   0.290  0.0960  0.1460  0.1807
  390W        W 4441   7.974   7.105   0.719  0.1674  0.1131 -0.3047
  391W        W 4442   8.799   5.851   2.346 -0.0797  0.0687  0.1590
  392W        W 4443   2.198   9.474  11.385  0.1223  0.1630 -0.0632
  393W        W 4444   5.784   9.138   2.428 -0.0499  0.0280 -0.0375
  394W        W 4445   2.561   2.056   3.539  0.1391  0.3285 -0.1207
  395W        W 4446   7.565   6.652   1.639  0.1114  0.0234  0.2010
  396W        W 4447   4.531   1.906  11.791  0.0944 -0.1311  0.2841
  397W        W 4448   9.237   6.534   3.919 -0.0855  0.0506  0.1764
  398W        W 4449   9.944   5.004  13.682 -0.1327  0.1794  0.3316
  399W        W 4450  10.144   8.184   0.039 -0.2189  0.2379  0.0500
  400W        W 4451   8.279   0.488   3.394  0.1997 -0.0120 -0.2910
  401W        W 4452   0.716   6.750  10.552 -0.1178 -0.1911 -0.0497
  402W        W 4453   0.366   1.903   9.076  0.2520  0.2874 -0.4085
  403W        W 4454   5.577   9.726   3.338 -0.2483  0.0727 -0.0724
  404W        W 4455   3.685   1.719  10.105 -0.1941  0.0265  0.0659
  405W        W 4456   2.967   9.464  10.272 -0.0844 -0.0012  0.1023
  406W        W 4457   5.620   1.325   5.222  0.1165  0.0672 -0.0272
  407W        W 4458   7.980   7.759  13.864  0.0779  0.2674 -0.0360
  408W        W 4459   2.520   5.632   3.745  0.0380 -0.1178  0.1996
  409W        W 4460   5.391   4.975  11.143  0.1024  0.1166  0.0296
  410W        W 4461   7.021   4.464   2.109  0.0178 -0.0813 -0.1679
  411W        W 4462   7.316   1.691  12.700  0.3061 -0.0941  0.1866
  412W        W 4463   9.709   3.836   4.859 -0.3217 -0.0930 -0.0571
  413W        W 4464   6.093   0.275   2.398 -0.3583  0.1124 -0.0656
  414W        W 4465   5.451   7.428   0.098 -0.1283 -0.0772  0.1204
  415W        W 4466   0.001   2.678   1.667  0.1805 -0.2436  0.0376
  416W        W 4467   8.982   1.197   9.502  0.2285  0.0755 -0.1210
  417W        W 4468   0.299   9.478  10.555  0.1110 -0.0381 -0.0112
  418W        W 4469   7.414   2.875  12.573 -0.1322 -0.1865  0.2121
  419W        W 4470   7.737   2.770  10.715  0.1220 -0.1577 -0.1902
  420W        W 4471   6.942   4.116   0.150  0.1256  0.2350  0.1266
  421W        W 4472   3.074   0.734   2.395 -0.0868  0.1675  0.2415
  422W        W 4473   4.689   3.157  13.701  0.1487 -0.0365 -0.1100
  423W        W 4474   3.125   6.763   0.819 -0.0285 -0.0746 -0.0787
  424W        W 4475   2.095   0.056  10.713 -0.0114 -0.2168 -0.0096
  425W        W 4476   7.571   5.466   2.317  0.1836 -0.3171  0.0585
  426W        W 4477   9.597   9.912   2.810  0.1037 -0.0873 -0.0830
  427W        W 4478   4.503   1.981   4.236 -0.0319 -0.0063  0.3062
  428W        W 4479   5.257   0.349   0.941  0.1374 -0.1493 -0.1037
  429W        W 4480   7.072   4.150  12.755  0.1061 -0.1650  0.2413
  430W        W 4481   6.628   1.308  13.342  0.0062 -0.0676  0.0196
  431W        W 4482   9.484   9.069   4.217  0.0691  0.0419  0.1944
  432W        W 4483   3.650   7.180  13.780 -0.1429  0.0375 -0.2691
  433W        W 4484   1.517   0.214  10.343 -0.5137  0.2621  0.0273
  434W        W 4485   3.548   3.427   0.243  0.0104  0.0657 -0.2420
  435W        W 4486   3.956   5.151   4.178  0.0409  0.1127 -0.1632
  436W        W 4487   0.133   4.793   9.730 -0.5231 -0.1348  0.0350
  437W        W 4488   4.990   5.240  12.095 -0.1158 -0.0100  0.2632
  438W        W 4489   3.972   3.268  10.212  0.1623  0.0861  0.0520
  439W        W 4490   5.732   3.221   4.648 -0.0984 -0.3461  0.0469
  440W        W 4491   4.770   2.121   1.780  0.2233  0.1180  0.0569
  441W        W 4492   1.262   5.761  13.368 -0.0136 -0.1802  0.0827
  442W        W 4493   5.736   6.898   1.310 -0.1235  0.1283  0.2075
  443W        W 4494   2.050   1.381   3.771  0.0448  0.0325  0.0845
  444W        W 4495   1.476   0.765  12.707 -0.0450  0.0799 -0.2680
  445W        W 4496   3.790   1.161  10.772 -0.2810  0.1084 -0.3453
  446W        W 4497   2.695   6.311  12.508 -0.3692 -0.2658  0.2208
  447W        W 4498   8.934   3.774   3.151 -0.3825 -0.0114  0.1580
  448W        W 4499   9.881   1.307  12.334 -0.0308 -0.0554  0.0836
  449W        W 4500   3.148   0.785   3.543 -0.0187 -0.0304 -0.0080
  450W        W 4501   5.313   3.570   2.340 -0.0266 -0.0761  0.1431
  451W        W 4502   3.579   7.956   3.461  0.3295 -0.0581 -0.0091
  452W        W 4503   1.374   4.302  12.679 -0.1611 -0.2392  0.0845
  453W        W 4504   8.746   6.749  11.946  0.1324  0.0905 -0.0230
  454W        W 4505   5.352   6.518   2.737 -0.0548 -0.1236 -0.1340
  455W        W 4506   0.828   5.642  13.580  0.5177 -0.0213  0.1238
  456W        W 4507   9.049   8.977   1.464  0.2929 -0.1908 -0.0164
  457W        W 4508   4.402   2.884   5.194  0.2689  0.4497 -0.4163
  458W        W 4509   5.635   9.515  12.651 -0.3330 -0.0378  0.1224
  459W        W 4510   9.051   5.482   4.654 -0.0599 -0.0249 -0.0771
  460W        W 4511   8.259   4.780   2.981 -0.1904  0.0284 -0.1939
  461W        W 4512   3.306   8.815   0.810  0.0626 -0.2521 -0.1721
  462W        W 4513   9.764   0.825   0.080 -0.3991 -0.0951 -0.4724
  463W        W 4514   7.680   1.526  11.885 -0.0070 -0.1551  0.0844
  464W        W 4515   3.652   6.275  12.758 -0.1093 -0.2878  0.1576
  465W        W 4516   3.402   1.171   9.273  0.0922  0.2696 -0.0159
  466W        W 4517   5.279   4.534   4.060  0.3119 -0.0848  0.2481
  467W        W 4518   0.086   6.143   4.997 -0.2113  0.2981  0.1440
  468W        W 4519   9.248   2.242   0.045  0.1021 -0.1003  0.0114
  469W        W 4520   8.652   6.095   2.990  0.2668  0.0971 -0.1420
  470W        W 4521   0.367   3.905  10.414 -0.2912  0.3053 -0.2390
  471W        W 4522   4.287   8.339  10.955 -0.0357  0.1321  0.1338
  472W        W 4523   2.219   6.038   3.584 -0.0482  0.0113 -0.0733
  473W        W 4524   5.282   3.734   3.552  0.1676  0.1682  0.1651
  474W        W 4525   3.456   9.527   2.453  0.0130 -0.3420 -0.0207
  475W        W 4526   1.672   1.258  13.717  0.1744  0.2424  0.0108
  476W        W 4527   6.534   7.908  11.567 -0.0766  0.0552 -0.2512
  477W        W 4528   1.459   3.842   8.916 -0.0358  0.2101 -0.1613
  478W        W 4529   5.723   9.716  11.340  0.1047 -0.1326 -0.1179
  479W        W 4530   3.439   1.973   3.166 -0.0740 -0.3165  0.1210
  480W        W 4531   1.103   2.004   1.393 -0.0917  0.1970  0.3224
  481W        W 4532   7.755   3.009   3.625 -0.1658 -0.2499  0.0431
  482W        W 4533   1.885   5.393   8.181 -0.2446 -0.0223 -0.0414
  483W        W 4534   4.962   4.523   4.992 -0.0421  0.1183 -0.0899
  484W        W 4535   2.006   7.477   1.629  0.0403 -0.1926  0.1185
  485W        W 4536   9.792   0.023   3.755 -0.2331  0.0974 -0.1956
  486W        W 4537   9.246   5.935   9.608 -0.0174  0.0664  0.2825
  487W        W 4538   3.807   5.375   9.718  0.0293 -0.0423  0.1534
  488W        W 4539   7.795   7.495   3.211  0.0033  0.1469 -0.1248
  489W        W 4540   0.181   9.280  11.057  0.0196  0.1025  0.2264
  490W        W 4541   2.929   4.654   3.705  0.1289 -0.2335  0.1934
  491W        W 4542   0.398   1.852   9.891  0.0624  0.0091 -0.0241
  492W        W 4543   4.954   0.215   2.721 -0.0140 -0.0035 -0.1772
  493W        W 4544   7.879   8.850  10.455  0.2897 -0.2249  0.0032
  494W        W 4545   8.932   2.900  12.374  0.1271 -0.5015 -0.0381
  495W        W 4546   0.775   8.964   0.028  0.0836 -0.2066  0.1439
  496W        W 4547   3.238   5.027   3.684 -0.3581  0.1718  0.0337
  497W        W 4548   1.977   2.819   1.488  0.3373  0.0629  0.0246
  498W        W 4549   4.944   7.904   1.522  0.0556 -0.0844  0.0236
  499W        W 4550   3.955   8.229  12.982 -0.0178  0.1222  0.1464
  500W        W 4551   4.903   5.086  11.156 -0.0452 -0.2309 -0.1108
  501W        W 4552   0.669   9.652   2.410 -0.1157 -0.4504  0.1459
  502W        W 4553   6.363   1.258  10.587 -0.0755  0.3611 -0.2372
  503W        W 4554   2.240   4.100   2.481  0.2895 -0.0235 -0.2151
  504W        W 4555   2.209   4.595   5.094 -0.1597 -0.2225  0.2714
  505W        W 4556   7.556   3.970  11.096 -0.0339 -0.3157  0.0597
  506W        W 4557   1.862   0.540   2.218 -0.0456  0.1733  0.1077
  507W        W 4558   6.299   1.032  12.750 -0.0964  0.0948  0.0027
  508W        W 4559   8.458   9.410   2.221 -0.1830  0.0126 -0.2099
  509W        W 4560   9.702   7.973   2.683 -0.0929 -0.1141 -0.1637
  510W        W 4561   5.320   2.620  10.018 -0.1333 -0.2201 -0.0724
  511W        W 4562   4.939   1.627   1.624 -0.0996 -0.1288 -0.3315
  512W        W 4563   3.368   1.539  12.229  0.0302  0.0479  0.0658
  513W        W 4564   5.397   3.505  11.749 -0.0997 -0.1237  0.0618
  514W        W 4565   9.496   7.917   4.906  0.1323 -0.1001 -0.1883
  515W        W 4566   5.327   1.412  13.300 -0.1685  0.0073 -0.1459
  516W        W 4567   3.778   6.100   1.048  0.0153 -0.2687 -0.0696
  517W        W 4568   4.079   8.192   1.646  0.3950  0.1976 -0.0827
  518W        W 4569   8.447   5.257   5.312 -0.0695 -0.0431  0.2421
  519W        W 4570   5.153   9.176   1.292 -0.2163  0.1286 -0.0838
  520W        W 4571   4.017   1.642   0.343 -0.1533  0.0155 -0.2224
  521W        W 4572   4.160   0.130  11.189 -0.2787  0.0404 -0.0616
  522W        W 4573   3.214   6.863   8.572  0.3253  0.1638  0.3904
  523W        W 4574   0.464   0.041  13.213  0.3122  0.1404 -0.0697
  524W        W 4575   5.057   8.348   0.629  0.2807 -0.0229  0.1266
  525W        W 4576   0.228   1.863  11.878 -0.0934  0.0875  0.1971
  526W        W 4577   1.273   8.058  12.465 -0.0205 -0.0675  0.2253
  527W        W 4578   5.150   1.503  11.828  0.2098 -0.1667  0.3450
  528W        W 4579   5.900   7.621   1.956 -0.2926 -0.0788  0.2330
  529W        W 4580   5.579   4.112   3.705 -0.1865 -0.2925 -0.1952
  530W        W 4581   9.462   3.098  12.368 -0.2132 -0.0169  0.1840
  531W        W 4582   1.690   9.409   4.833  0.2274  0.3339  0.3719
  532W        W 4583   3.270   8.864   0.225  0.0072  0.2034 -0.5386
  533W        W 4584   8.881   9.699  13.064  0.0646  0.0455 -0.0607
  534W        W 4585   9.340   7.263   0.434 -0.1640 -0.2060  0.0323
  535W        W 4586   6.915   4.307   2.795 -0.0798  0.0461 -0.0519
  536W        W 4587   8.434   5.043  11.058  0.1132 -0.1049 -0.1143
  537W        W 4588   3.238   9.481   9.362 -0.0765  0.1381  0.1573
  538W        W 4589   7.919   6.864   1.339  0.4338  0.1544  0.0764
  539W        W 4590   6.866   8.439  12.620 -0.1809  0.1009  0.1327
  540W        W 4591   6.928   3.759   2.759  0.1922  0.3692 -0.0221
  541W        W 4592   3.331   6.316   3.763 -0.2569 -0.0649  0.2099
  542W        W 4593   8.556   3.150   2.402  0.1812 -0.0174  0.4918
  543W        W 4594   5.216   8.122   9.494 -0.3594  0.3994  0.1178
  544W        W 4595   7.326   6.956  13.069 -0.1198 -0.3052 -0.2587
  545W        W 4596   5.795   7.291  10.018  0.3528 -0.1528  0.0142
  546W        W 4597   0.337   1.533   0.955  0.3693 -0.2065  0.2785
  547W        W 4598   4.819   3.801   4.114  0.0893 -0.2658 -0.0578
  548W        W 4599   1.349   0.798   0.503  0.0485 -0.1385  0.1720
  549W        W 4600   2.023   3.527   2.431 -0.0919  0.1871  0.0501
  550W        W 4601   1.231   7.120  12.667 -0.3553  0.0557 -0.0196
  551W        W 4602   0.938   0.867   1.431 -0.0716  0.0404  0.3058
  552W        W 4603   5.805   6.570   3.372 -0.2146 -0.0798 -0.0142
  553W        W 4604   2.514   5.825   4.253  0.0567 -0.0031 -0.3405
  554W        W 4605   7.214   0.790  12.347 -0.0917 -0.1670 -0.0674
  555W        W 4606   6.992   0.290   2.425  0.2915 -0.0654  0.2877
  556W        W 4607   3.466   2.755   0.821  0.1418  0.0504 -0.4221
  557W        W 4608   9.692   9.188  11.437 -0.1639  0.0325  0.1096
  558W        W 4609   3.960   8.158  11.940  0.0643  0.4503 -0.1512
  559W        W 4610   9.552   4.290   4.546  0.0847 -0.4183 -0.1206
  560W        W 4611   5.212   7.724   2.782  0.0435 -0.1145 -0.0652
  561W        W 4612   7.157   9.668  10.898 -0.2345  0.1356 -0.0411
  562W        W 4613   8.413   6.465  12.545  0.1502  0.0684  0.0527
  563W        W 4614   1.531   2.886   3.522  0.0294 -0.2302  0.1588
  564W        W 4615   0.043   7.167   4.023 -0.1791  0.0929 -0.3140
  565W        W 4616   9.877   6.225   3.273 -0.0714 -0.2349 -0.1049
  566W        W 4617   3.600   3.947  12.275 -0.1886 -0.1606 -0.0154
  567W        W 4618   8.598   1.739  10.435  0.0359 -0.2831 -0.1646
  568W        W 4619   0.525   7.052   9.637  0.0365 -0.0316 -0.2174
  569W        W 4620   4.571   5.782   0.579 -0.2779  0.1469 -0.0351
  570W        W 4621   1.653  10.067  11.719  0.3904  0.0053  0.0038
  571W        W 4622   2.826   8.136  11.878  0.1757  0.0376  0.2103
  572W        W 4623   2.952   9.631  12.973  0.2764  0.0301  0.3462
  573W        W 4624  10.155   5.272   5.357 -0.0836 -0.2881 -0.0030
  574W        W 4625   0.715   7.464   8.676 -0.0287  0.1458 -0.3089
  575W        W 4626   7.866   1.097   0.861 -0.1269  0.1679 -0.1987
  576W        W 4627   1.150   7.324  10.023 -0.2888 -0.1526 -0.1182
  577W        W 4628   1.210   1.844   2.922 -0.0152 -0.0218  0.1268
  578W        W 4629   1.489   0.071   2.024  0.0542  0.0160 -0.0071
  579W        W 4630   6.386   3.157   4.119 -0.1113 -0.1835  0.2608
  580W        W 4631   2.419   5.403  11.770  0.0024  0.3259 -0.0097
  581W        W 4632   8.416   4.794   2.053  0.1335 -0.0757 -0.0992
  582W        W 4633   2.797   5.272   1.535 -0.3629 -0.0372  0.0411
  583W        W 4634   8.608   5.525  10.049  0.0933  0.1592  0.0872
  584W        W 4635   6.471   2.166  12.795 -0.0299 -0.0471 -0.3335
  585W        W 4636   7.457   2.116  12.431  0.0037 -0.0632 -0.3725
  586W        W 4637   2.587   5.290  13.623  0.2101  0.0353 -0.2179
  587W        W 4638   0.551   1.361   2.592  0.0912 -0.0595  0.0481
  588W        W 4639   7.157   2.487   2.083  0.0452  0.0781  0.2140
  589W        W 4640   8.227   0.495  12.668 -0.1261 -0.0764  0.2313
  590W        W 4641   6.004   4.929  12.832 -0.0424  0.0961 -0.0190
  591W        W 4642   3.601   1.508   3.053  0.0032 -0.0380  0.3988
  592W        W 4643   5.391   2.323   0.270 -0.0553  0.1092  0.0749
  593W        W 4644   2.457   3.780   9.513  0.0101 -0.0279  0.3108
  594W        W 4645   9.465   6.654  12.815 -0.2780  0.0164  0.0457
  595W        W 4646   1.148   0.110  12.637  0.0965  0.0945  0.1588
  596W        W 4647   2.418   7.230  12.202  0.0191 -0.0423 -0.1252
  597W        W 4648   8.743   2.381   0.074  0.0361 -0.1337  0.1184
  598W        W 4649   1.597   9.771   4.082  0.0683  0.0030  0.2823
  599W        W 4650   2.449   9.539  13.530  0.0766 -0.2051 -0.2952
  600W        W 4651   1.998   8.973   3.029 -0.0613  0.0713 -0.1429
  601W        W 4652   4.184   1.715   1.340 -0.0006  0.4547  0.3644
  602W        W 4653   9.478   9.537  11.160 -0.1116 -0.0170 -0.2201
  603W        W 4654   0.305   9.603   3.751  0.1433 -0.2593  0.2882
  604W        W 4655   7.741   5.487   4.734  0.0098 -0.3053 -0.1966
  605W        W 4656   3.593   2.311  13.254 -0.2295  0.0440 -0.2089
  606W        W 4657   4.402   8.891  12.083  0.1350 -0.0435 -0.1571
  607W        W 4658   8.188   2.417  10.737  0.0711 -0.2195  0.0955
  608W        W 4659   9.735   2.677  13.178 -0.1726 -0.2189  0.1164
  609W        W 4660   8.444   7.156  11.873 -0.0801  0.5205 -0.2351
  610W        W 4661   1.982   1.983  13.677 -0.2649 -0.1935 -0.3386
  611W        W 4662   2.350   6.715   4.270 -0.1370  0.1759 -0.1091
  612W        W 4663   7.088   1.996   8.723 -0.1567 -0.5746  0.0251
  613W        W 4664   7.257   0.846   4.034 -0.1195  0.1874 -0.0924
  614W        W 4665   9.529   0.616   9.899  0.1982 -0.0989 -0.2639
  615W        W 4666   3.588   1.910   2.113 -0.0211 -0.1456 -0.3053
  616W        W 4667   8.220   0.774  12.228  0.0137 -0.2674 -0.0153
  617W        W 4668   3.552   0.994   4.989  0.2170 -0.3767  0.0867
  618W        W 4669   8.761   8.223  10.438 -0.0046 -0.2877 -0.1755
  619W        W 4670   2.783   2.723  12.845  0.2242  0.0855 -0.2035
  620W        W 4671   5.168  10.077   0.693 -0.1735 -0.0309  0.0219
  621W        W 4672   3.105   1.969   2.802  0.1150  0.0897 -0.0231
  622W        W 4673   6.198   8.158  13.522  0.1659  0.2075 -0.1160
  623W        W 4674   5.598   1.871   9.610  0.1643  0.1831 -0.1077
  624W        W 4675   6.982   6.460  10.773  0.0559  0.1870  0.0124
  625W        W 4676   3.833   1.233   0.589 -0.0337  0.0820  0.0441
  626W        W 4677   6.894   1.100  11.668  0.2313  0.1906 -0.1145
  627W        W 4678   9.317   9.237   1.842 -0.1069  0.1870 -0.0868
  628W        W 4679   8.091   7.539   1.039 -0.0806 -0.0757 -0.1884
  629W        W 4680   2.317   0.503  12.642  0.1549 -0.1490  0.0455
  630W        W 4681   5.424   2.955   0.148 -0.0778  0.0259  0.2285
  631W        W 4682   7.669   5.355   4.136  0.0056  0.2298  0.3286
  632W        W 4683   8.689   9.888   3.437  0.0184  0.2641 -0.1741
  633W        W 4684   2.534   4.618   8.475 -0.2420  0.3454  0.0107
  634W        W 4685   7.648   2.210   4.284 -0.1315  0.0052  0.0016
  635W        W 4686   7.289   9.680  10.434 -0.1109  0.2468  0.0519
  636W        W 4687   6.878   6.877  11.953 -0.1026  0.1320 -0.2280
  637W        W 4688   8.603   5.949   3.462  0.3004  0.0372  0.2278
  638W        W 4689   3.898   1.959   3.473 -0.2118  0.0523  0.0287
  639W        W 4690   7.005   5.383   4.071 -0.1219 -0.4343  0.1592
  640W        W 4691   8.407   4.328  10.849  0.1075 -0.2080 -0.2782
  641W        W 4692   0.330   8.046  11.318  0.0591 -0.0418  0.2732
  642W        W 4693   2.078   7.460   2.507  0.0208  0.1781 -0.0160
  643W        W 4694   1.640   0.340   0.817 -0.2747 -0.0657  0.0381
  644W        W 4695   9.504   0.208   2.860 -0.2823  0.0967  0.0185
  645W        W 4696   2.339   1.516  10.256 -0.0964  0.1583  0.0311
  646W        W 4697   0.603   6.538  13.222  0.2828 -0.0635  0.2310
  647W        W 4698   2.441   5.643  12.887 -0.1716 -0.0920 -0.2377
  648W        W 4699   2.991  10.166  10.479  0.1448 -0.2329 -0.1149
  649W        W 4700   9.122   2.159   1.578 -0.2081 -0.0041 -0.0699
  650W        W 4701   8.598   2.540   1.763 -0.3472 -0.1347 -0.0212
  651W        W 4702   0.662   2.272   2.227  0.1786 -0.3128 -0.0208
  652W        W 4703   2.817   8.306  10.678 -0.1111 -0.1923 -0.3606
  653W        W 4704   5.520   0.162  13.421  0.4518 -0.0827 -0.0357
  654W        W 4705   1.307   3.017   3.065 -0.0975 -0.2300  0.1736
  655W        W 4706   0.206   7.438  13.201  0.2488 -0.0017 -0.1186
  656W        W 4707   2.027   2.496  13.670  0.3589  0.0258 -0.1423
  657W        W 4708   9.098   1.572   4.772  0.1555  0.5565 -0.0692
  658W        W 4709   3.595   2.211   9.532 -0.4025 -0.2489 -0.1519
  659W        W 4710  10.186   1.061   8.997 -0.0060  0.2075  0.3647
  660W        W 4711   1.430   1.620  10.447 -0.2527  0.2336 -0.2343
  661W        W 4712   7.183   0.631   1.489 -0.0496  0.1355 -0.1896
  662W        W 4713   6.386   2.992   1.599  0.1525 -0.0574 -0.3238
  663W        W 4714   9.877   2.493   0.631 -0.1389  0.3682 -0.0138
  664W        W 4715   9.412   7.741   0.778 -0.1302 -0.0956 -0.0180
  665W        W 4716   1.661   7.171  10.225  0.2267  0.2549  0.0505
  666W        W 4717   3.948   9.940  11.962  0.0645 -0.2095  0.0134
  667W        W 4718   9.398   3.996   3.101 -0.0083 -0.0802 -0.5334
  668W        W 4719   8.969   6.096  13.217 -0.0827 -0.2046  0.0273
  669W        W 4720   6.530   4.088  13.688  0.3835 -0.0613 -0.1589
  670W        W 4721   0.620   0.549   1.033 -0.0081 -0.0161 -0.2804
  671W        W 4722   4.597   5.287   0.146  0.0680  0.1706 -0.0570
  672W        W 4723   3.127   2.947   2.153 -0.3776  0.0701  0.0188
  673W        W 4724   0.462   6.623   0.358 -0.0821 -0.3796  0.1389
  674W        W 4725   3.034   5.270   9.915 -0.0150  0.1285  0.0361
  675W        W 4726   7.842   2.573   0.771  0.1252 -0.0898 -0.2219
  676W        W 4727   3.129   7.142   9.048  0.0955  0.2044 -0.1467
  677W        W 4728   8.620   1.485  11.808 -0.1536 -0.1068  0.1015
  678W        W 4729   6.462   1.363  12.410  0.0542  0.3811  0.1616
  679W        W 4730   2.820   6.416   0.485  0.3444 -0.1559 -0.3541
  680W        W 4731   7.732   9.927  12.043 -0.1640  0.1969 -0.0328
  681W        W 4732   1.585   0.612   3.066  0.1113  0.1531 -0.0752
  682W        W 4733   1.924   6.374  11.336 -0.0750 -0.0761 -0.0820
  683W        W 4734   1.812   6.006   1.047 -0.0120 -0.0524  0.1667
  684W        W 4735   4.686   6.427   3.263 -0.0969  0.3555 -0.2035
  685W        W 4736   9.374   6.349   1.018  0.0746 -0.1254 -0.1109
  686W        W 4737   2.052   2.362  10.251 -0.1582  0.2285 -0.2027
  687W        W 4738   3.496   1.084  11.319 -0.0467  0.2925  0.2350
  688W        W 4739   9.820   8.566  11.707 -0.2478  0.0927  0.0040
  689W        W 4740   0.864   6.137   1.600  0.0235  0.0198 -0.3442
  690W        W 4741   4.867   2.306   2.344  0.1691  0.3233  0.0911
  691W        W 4742   2.902   2.214   0.940  0.0543  0.3877 -0.2253
  692W        W 4743  10.102   5.701  12.700  0.0938  0.2155  0.3025
  693W        W 4744   1.402   2.946  11.756  0.5655 -0.0685 -0.0578
  694W        W 4745   9.232   6.586  12.002 -0.1188  0.1724 -0.0539
  695W        W 4746   2.085   4.219   0.728  0.0393 -0.1299  0.2616
  696W        W 4747   6.969   5.906   3.124 -0.0409 -0.5281  0.2326
  697W        W 4748   0.755   0.121   0.453 -0.2979  0.3424  0.1411
  698W        W 4749   4.735   1.497   2.056  0.3071  0.4217  0.2203
  699W        W 4750   4.524   4.270  12.480 -0.0625 -0.3050 -0.2432
  700W        W 4751   2.818   0.524   3.365 -0.0520 -0.0905  0.1135
  701W        W 4752   4.686   7.024   0.959 -0.2059 -0.0213  0.0123
  702W        W 4753   0.806   3.474   9.574  0.2193  0.0140  0.2365
  703W        W 4754   4.328   0.160   3.025 -0.2422  0.0463 -0.0872
  704W        W 4755   2.004   6.897  12.992  0.2969 -0.0629  0.2527
  705W        W 4756   9.745   0.375  10.971 -0.3329 -0.1076  0.0283
  706W        W 4757   8.724   3.381  12.231  0.0720  0.0518  0.0154
  707W        W 4758   9.279   9.633   0.974 -0.0665 -0.0117 -0.0022
  708W        W 4759   9.709   8.010   9.893  0.1406  0.1665  0.1588
  709W        W 4760   2.300   0.987   5.333  0.0112 -0.1649  0.2012
  710W        W 4761   3.574   1.947   4.405  0.4632 -0.1243  0.3306
  711W        W 4762   7.140   5.609   1.385 -0.0662  0.2200  0.1026
  712W        W 4763   5.866   9.951   3.737 -0.0961  0.0111 -0.1229
  713W        W 4764   3.771   9.715   2.796  0.0220 -0.0494  0.3537
  714W        W 4765   7.224   6.749   3.315  0.1439 -0.3177 -0.1866
  715W        W 4766   3.342   6.369   0.387  0.0091  0.2001 -0.0573
  716W        W 4767   8.469   7.842   0.836  0.2020  0.0178  0.0338
  717W        W 4768   5.558   1.400   9.357  0.1815  0.1086 -0.3325
  718W        W 4769   8.806   9.230   1.113  0.0100 -0.0575 -0.0836
  719W        W 4770   7.194   6.964   0.117  0.1100  0.2039  0.0585
  720W        W 4771   1.389   0.469   1.627  0.1462 -0.0918 -0.0782
  721W        W 4772   2.503   3.172  10.661 -0.0291 -0.0404 -0.0802
  722W        W 4773   1.457   7.995  10.432  0.0996 -0.3991  0.1129
  723W        W 4774   7.294   9.162  10.767  0.0479  0.1233  0.1174
  724W        W 4775   1.026   1.123   0.319  0.2453  0.1198  0.0823
  725W        W 4776   7.041   2.231  11.612  0.0882  0.1420  0.0079
  726W        W 4777   1.943   3.531   5.110  0.2134  0.0291 -0.0481
  727W        W 4778   8.312   0.345   9.641 -0.0265 -0.2168 -0.1118
  728W        W 4779   0.362   1.389  11.476 -0.1739 -0.3995 -0.0693
  729W        W 4780   2.322   7.445   1.103  0.1785  0.0782 -0.1964
  730W        W 4781   0.930   3.767  13.146  0.2023 -0.1076 -0.0634
  731W        W 4782   7.942  10.093   2.727 -0.1545  0.2220 -0.2176
  732W        W 4783   2.124   2.946  10.086  0.0382 -0.1263  0.0114
  733W        W 4784   1.042   0.056   3.376  0.2284  0.0473 -0.5261
  734W        W 4785   3.219   6.349  12.536  0.0960  0.0620 -0.0852
  735W        W 4786   8.794   4.603   4.827 -0.0705 -0.0208  0.0420
  736W        W 4787   1.459   3.934   3.639  0.0682 -0.0310  0.1441
  737W        W 4788   4.684   1.327  10.348 -0.1877  0.0780 -0.3207
  738W        W 4789   6.839   6.372   3.341  0.0809 -0.4034 -0.1280
  739W        W 4790  10.016   1.545   2.304 -0.0607 -0.0473 -0.0373
  740W        W 4791   0.273   0.169   2.844  0.0352 -0.0126 -0.0852
  741W        W 4792   5.353   6.449   9.823  0.2433  0.3447  0.0230
  742W        W 4793   2.779   4.326  12.647  0.1768 -0.0811  0.3187
  743W        W 4794   6.859   3.122  11.173 -0.0383  0.2270 -0.1620
  744W        W 4795   6.116   4.133   5.107 -0.2175 -0.1051  0.2408
  745W        W 4796   5.689   2.934  10.126 -0.0860  0.0668 -0.0080
  746W        W 4797   5.600   7.356   2.767 -0.1244 -0.2973  0.0245
  747W        W 4798  10.025   3.364   0.985 -0.0573  0.2278  0.2530
  748W        W 4799   0.853   4.453   0.540 -0.1350  0.4211  0.1514
  749W        W 4800   9.198   5.789  13.603 -0.1495  0.3730 -0.2250
  750W        W 4801   9.501   4.506   9.931  0.0352  0.0230 -0.1385
  751W        W 4802   3.601   2.130  10.342  0.0846 -0.0098 -0.0378
  752W        W 4803   9.686   2.288  10.159  0.1375 -0.4231  0.1841
  753W        W 4804   2.085   1.598  11.199  0.0219  0.0007 -0.3008
  754W        W 4805   2.310   1.945  10.043 -0.4053 -0.1115 -0.2609
  755W        W 4806   9.569   0.949  13.494  0.3531 -0.2092  0.0139
  756W        W 4807   5.502   2.141  11.154 -0.2615 -0.2695  0.0311
  757W        W 4808   8.908   9.032   3.119  0.0667 -0.4434  0.2029
  758W        W 4809   7.444   3.726  13.597  0.0564 -0.1813  0.0130
  759W        W 4810   5.001   3.369   0.889  0.0502  0.2502  0.2980
  760W        W 4811   8.994   4.819  13.638 -0.0442 -0.0359  0.0333
  761W        W 4812   0.605   9.049   3.684  0.0329 -0.1805  0.0963
  762W        W 4813   7.087   4.310   8.819  0.1290  0.0672 -0.2055
  763W        W 4814   3.589   7.826  12.221 -0.0783 -0.0936 -0.2139
  764W        W 4815   2.407   2.873   2.966 -0.1989  0.0787  0.2337
  765W        W 4816   3.846   0.103  13.119  0.0703 -0.0885  0.0474
  766W        W 4817   6.510   2.679  10.332  0.0729 -0.1943 -0.0808
  767W        W 4818   2.842   5.612   8.569 -0.0747 -0.1339  0.0293
  768W        W 4819  10.000   2.073   2.355 -0.0348  0.1083 -0.2249
  769W        W 4820   0.625   7.979  10.825  0.1140 -0.0706 -0.0319
  770W        W 4821   9.174   2.447   3.046 -0.0108  0.1124 -0.2919
  771W        W 4822   8.118   9.847   4.047  0.2326 -0.0478 -0.3336
  772W        W 4823   6.420   1.539   9.869  0.0377 -0.2400 -0.2777
  773W        W 4824   5.534   7.490  13.452  0.0624 -0.0300 -0.1247
  774W        W 4825   8.126   4.003  12.407 -0.2675 -0.3545 -0.2362
  775W        W 4826   1.471   6.166   1.338 -0.0354 -0.3519  0.1309
  776W        W 4827   1.757   0.673  11.424 -0.1616 -0.0805 -0.0913
  777W        W 4828   2.369   6.383   2.545  0.1976  0.0868 -0.3113
  778W        W 4829   8.143   0.409   1.565 -0.0813  0.0451  0.0693
  779W        W 4830   8.575   7.219  10.700 -0.3071  0.0446 -0.0090
  780W        W 4831   5.279   4.308   0.490 -0.0687 -0.0240 -0.2020
  781W        W 4832   3.582   2.937  13.825 -0.1452 -0.3397  0.3377
  782W        W 4833   1.658   3.143   1.722 -0.0394 -0.2428 -0.3285
  783W        W 4834   7.608   4.377   9.076 -0.0782  0.1796 -0.1033
  784W        W 4835   2.403   8.393   2.236  0.1224 -0.1604 -0.1138
  785W        W 4836   8.366   9.693   2.663 -0.0060  0.1023  0.3998
  786W        W 4837   3.378   0.872  10.533 -0.0012 -0.2378  0.0480
  787W        W 4838   1.516   8.875   9.377  0.1740 -0.2770 -0.1663
  788W        W 4839   2.523   5.302   4.156 -0.0014 -0.0811 -0.0471
  789W        W 4840   2.222   6.499   1.813 -0.0881  0.3517 -0.0289
  790W        W 4841   9.425   6.728   9.024 -0.1310 -0.3650  0.0282
  791W        W 4842   5.990   9.291  11.535 -0.0564 -0.1426 -0.2801
  792W        W 4843   7.310   4.982  11.833 -0.1084  0.2658  0.2222
  793W        W 4844   6.950   1.136   3.708 -0.1067 -0.2176  0.0998
  794W        W 4845   7.715   4.326  12.831 -0.1166  0.0017 -0.1154
  795W        W 4846   9.066   9.797   5.070  0.1721 -0.2644  0.0644
  796W        W 4847   6.457   4.541  13.463  0.1594  0.1013 -0.0565
  797W        W 4848   0.455   1.566   3.450  0.1635 -0.2813 -0.1028
  798W        W 4849   2.290   8.898   4.277  0.0816 -0.0743 -0.2019
  799W        W 4850   4.539  10.142   9.889  0.1516 -0.1762 -0.1407
  800W        W 4851   8.097   3.599   1.975 -0.0686 -0.1307  0.1164
  801W        W 4852   6.442   8.121   1.587  0.1958 -0.0058 -0.1893
  802W        W 4853   8.620   1.227   5.616  0.1835 -0.3377 -0.0126
  803W        W 4854   6.014  10.080   2.665  0.0063  0.2382  0.0268
  804W        W 4855   9.499   1.627   2.300 -0.0274  0.1791  0.2390
  805W        W 4856   5.297   3.270   3.745 -0.0541  0.3154  0.4201
  806W        W 4857   7.680   3.189  13.068  0.0436 -0.2203  0.0600
  807W        W 4858   2.395   8.200  13.346 -0.0635 -0.1290 -0.1231
  808W        W 4859   0.469   4.616   1.433  0.0184  0.0656 -0.0911
  809W        W 4860   8.557   8.541   2.377 -0.1356  0.2016 -0.1041
  810W        W 4861   6.510   8.134   2.130 -0.0911 -0.0762 -0.1218
  811W        W 4862   4.454   2.143  10.907  0.0467  0.0255 -0.0145
  812W        W 4863   2.013   9.122  12.836 -0.3588  0.0929 -0.2613
  813W        W 4864   2.021   8.637   0.700  0.0709  0.1051 -0.0756
  814W        W 4865   6.085   7.288  11.115  0.1004  0.0572  0.0837
  815W        W 4866   1.030   8.317   2.614  0.4096 -0.1636  0.1334
  816W        W 4867   2.617   2.047   2.767  0.0863  0.1420  0.0953
  817W        W 4868   2.424   7.482   0.177 -0.1473 -0.3394 -0.0623
  818W        W 4869   2.918   6.947   1.925 -0.0012 -0.1330  0.2281
  819W        W 4870   7.885   3.743   8.037 -0.0153  0.0754  0.0208
  820W        W 4871   9.118   2.692  10.694  0.0684 -0.2192  0.2641
  821W        W 4872   3.866   5.739  10.176 -0.2170 -0.5756 -0.1127
  822W        W 4873   5.338   7.610   1.297 -0.2428 -0.1403 -0.0582
  823W        W 4874   5.594   7.354  11.307  0.1828 -0.1734 -0.4531
  824W        W 4875   3.317   9.453  10.822 -0.0254 -0.0415 -0.1708
  825W        W 4876   4.723   5.677  13.717 -0.0392  0.0890 -0.1293
  826W        W 4877   2.737   4.840  12.620 -0.0057 -0.1045  0.1262
  827W        W 4878   1.364   5.020  11.413 -0.2089 -0.2695  0.5137
  828W        W 4879   3.045   1.798  11.781  0.0638  0.0418 -0.0429
  829W        W 4880   7.834  10.216   1.441 -0.0897 -0.0906  0.0106
  830W        W 4881   4.465   3.688  12.370  0.1967 -0.1235  0.1647
  831W        W 4882  10.175   0.618   2.599  0.2043 -0.1007  0.1302
  832W        W 4883   5.353   6.874  10.015  0.3949 -0.0927  0.3324
  833W        W 4884   7.157   7.199   3.542 -0.1353  0.1415 -0.1833
  834W        W 4885   9.140   2.747  13.803  0.0389  0.1441 -0.1894
  835W        W 4886   0.921   2.323   2.647 -0.2334 -0.1535  0.1759
  836W        W 4887   7.420   2.892   9.776  0.0329 -0.0177  0.2251
  837W        W 4888   7.572   0.741  13.422  0.0258 -0.0370  0.0115
  838W        W 4889   2.896   5.616   0.647 -0.2443  0.3024 -0.0792
  839W        W 4890   2.925   1.796  12.366 -0.1492  0.0308 -0.3713
  840W        W 4891   6.317   5.657   9.405 -0.0213  0.3909 -0.0584
  841W        W 4892   6.824   2.096   4.699  0.0520  0.0243  0.0852
  842W        W 4893   6.324   2.561   4.154 -0.1224 -0.0064 -0.0078
  843W        W 4894   1.737   3.353  11.876 -0.1268 -0.0380  0.1516
  844W        W 4895   5.454   3.384  10.207  0.0851  0.0873  0.3860
  845W        W 4896   8.008   7.073   2.996  0.1490 -0.0688 -0.1664
  846W        W 4897   8.748   0.238  11.077  0.1017 -0.1145 -0.0041
  847W        W 4898   3.173   5.265   8.474  0.0198 -0.0635 -0.0490
  848W        W 4899   3.545   4.580   3.992  0.0763 -0.2146 -0.0016
  849W        W 4900   4.103   0.770  10.516 -0.0925 -0.4358  0.3042
  850W        W 4901   2.023   4.082  12.863 -0.2009 -0.0503 -0.1007
  851W        W 4902  10.041   0.741  10.693 -0.1640 -0.1699  0.2814
  852W        W 4903   5.249   7.028   1.374 -0.0355 -0.2172 -0.0873
  853W        W 4904   9.784   3.794   2.157 -0.1633  0.0864 -0.0656
  854W        W 4905   8.846   7.607   4.367 -0.1784 -0.0978 -0.3839
  855W        W 4906   8.891   5.142  10.818  0.1166  0.1479 -0.0703
  856W        W 4907   9.092   7.941  12.579  0.0128 -0.3284  0.1312
  857W        W 4908   8.124   7.038   8.870  0.1683  0.1798  0.3177
  858W        W 4909   6.467   0.576   0.333 -0.1055  0.0073  0.1046
  859W        W 4910   2.005  10.015  10.325 -0.0716  0.1728  0.1512
  860W        W 4911   9.977   0.889   3.137  0.2251  0.2331  0.0490
  861W        W 4912   7.233   8.620   0.449  0.1045  0.2768 -0.0323
  862W        W 4913   3.795   1.502   1.115  0.1825  0.1294  0.2473
  863W        W 4914   2.703   8.093  13.752 -0.1768 -0.1516  0.2250
  864W        W 4915   5.844   9.593   2.821 -0.2161 -0.1558  0.1243
  865W        W 4916   2.421   9.885  10.613 -0.2582  0.0550  0.3269
  866W        W 4917   9.731   7.129  11.517  0.1295 -0.3898 -0.1499
  867W        W 4918   2.183   7.962  12.444 -0.1262  0.0466 -0.0935
  868W        W 4919   5.840   2.868   0.537 -0.0947 -0.0929 -0.0561
  869W        W 4920   7.060   2.564  12.208 -0.1511  0.1888 -0.0237
  870W        W 4921   2.809   8.519  13.343  0.2565 -0.1168  0.2656
  871W        W 4922   3.082   4.743   8.426  0.2878 -0.3511  0.4302
  872W        W 4923   9.878   9.652   1.156  0.2113 -0.0049  0.0215
  873W        W 4924   0.331   8.264   1.445  0.0816  0.0378 -0.0275
  874W        W 4925   4.492   1.132   3.407 -0.1312 -0.0267 -0.0745
  875W        W 4926   9.012   7.426  10.376  0.1826 -0.0637 -0.0396
  876W        W 4927   5.463   9.850  10.214  0.0797  0.4031  0.0870
  877W        W 4928   0.781   8.315  13.068  0.0563 -0.1866 -0.0410
  878W        W 4929   7.571   7.528   2.753  0.2006  0.1165  0.0185
  879W        W 4930   9.840   0.642   8.859  0.4114 -0.1716 -0.1514
  880W        W 4931   0.979   2.102   4.878  0.1627  0.1666 -0.0702
  881W        W 4932   4.283   4.355  13.266 -0.1865  0.0221 -0.0775
  882W        W 4933   1.725   2.071   0.270 -0.2597 -0.2966 -0.0613
  883W        W 4934   1.451   7.115  12.190  0.0881  0.1350  0.1354
  884W        W 4935   1.563   7.495  10.929 -0.2723  0.1518 -0.0879
  885W        W 4936   7.454   4.094   1.179  0.1393  0.3810 -0.0518
  886W        W 4937   7.190   0.445  13.278 -0.0227 -0.2822  0.1538
  887W        W 4938  10.020   0.235  12.468 -0.4004  0.1409  0.3748
  888W        W 4939   1.273   4.016   2.115  0.2685 -0.1367 -0.3061
  889W        W 4940   3.788   1.883  13.515 -0.2897  0.0330 -0.0804
  890W        W 4941  10.085   5.335   2.371 -0.0406 -0.0294 -0.1066
  891W        W 4942   1.335   9.357   4.419  0.1647 -0.3543 -0.1600
  892W        W 4943   9.016   5.343   1.072 -0.0297 -0.0067  0.0688
  893W        W 4944   4.571   8.634   1.864 -0.2050 -0.1493 -0.1002
  894W        W 4945   9.729   3.860  13.079  0.2821  0.1851  0.0897
  895W        W 4946   2.694   6.887   0.320 -0.1097 -0.0155 -0.2577
  896W        W 4947   7.725   0.358  10.564 -0.0423  0.3725 -0.1085
  897W        W 4948   8.630   2.616   2.245  0.1563  0.0255 -0.2286
  898W        W 4949   4.331   5.057  11.297 -0.1440  0.1057  0.2362
  899W        W 4950  10.145  10.198   3.156  0.2312  0.2242  0.0619
  900W        W 4951   7.960   8.664   2.092  0.2693  0.1030  0.2857
  901W        W 4952   6.393   7.689  13.521 -0.0183 -0.1316  0.0663
  902W        W 4953   5.155   3.283  13.041  0.1656  0.2730 -0.1416
  903W        W 4954   2.733   6.990  11.902  0.0404  0.3155  0.1526
  904W        W 4955  10.043   6.963  12.127 -0.3379  0.0079  0.0928
  905W        W 4956   2.830   3.445   5.698  0.3831 -0.1416 -0.1981
  906W        W 4957   9.103   0.863   9.859 -0.1687  0.1337  0.0661
  907W        W 4958   7.985   5.212   2.492  0.1778  0.0211  0.2589
  908W        W 4959   6.448   9.804   2.816  0.2977  0.1242  0.0663
  909W        W 4960   2.542   2.350   1.251  0.0106  0.0652 -0.1603
  910W        W 4961   2.305   3.116  12.105 -0.0249  0.0151  0.0416
  911W        W 4962   2.621   8.725   2.521  0.1740 -0.3275  0.5518
  912W        W 4963   5.256   6.353   0.972  0.5397 -0.0206 -0.1491
  913W        W 4964   3.700   2.806  12.564  0.4459  0.2758 -0.2306
  914W        W 4965   3.463   2.391  11.147  0.3873 -0.1583  0.3146
  915W        W 4966   4.557   0.654   2.914 -0.0104  0.4009  0.1872
  916W        W 4967   7.445   2.588   4.960  0.2888 -0.0221  0.1136
  917W        W 4968   2.547   4.421  12.205 -0.2177 -0.0004  0.1496
  918W        W 4969   6.074   3.439  13.531  0.1267  0.2077 -0.0145
  919W        W 4970   9.241   4.182   9.691  0.0533  0.2120  0.0722
  920W        W 4971   5.620   7.878   9.742  0.3213 -0.0288  0.0965
  921W        W 4972   4.817   4.564  13.468 -0.0233 -0.1337 -0.3026
  922W        W 4973   0.122   5.410  11.957  0.0074 -0.0295 -0.2644
  923W        W 4974   2.011   6.858  10.008  0.0198 -0.1650  0.0599
  924W        W 4975   3.977   2.412  12.878 -0.0606 -0.2911 -0.0149
  925W        W 4976   8.521   8.565   3.381  0.0438  0.1128 -0.2740
  926W        W 4977   1.051   1.332   1.681 -0.0523  0.0783  0.2275
  927W        W 4978   8.293   3.076   1.980  0.1473  0.5334 -0.2359
  928W        W 4979   6.815   7.517   3.383  0.5007 -0.2182 -0.2135
  929W        W 4980   4.532   0.950  10.736  0.1640 -0.3224  0.4272
  930W        W 4981   5.612   9.169  11.259  0.0941 -0.1702 -0.1937
  931W        W 4982   6.497   1.811   2.406 -0.1538 -0.1376 -0.1767
  932W        W 4983   5.144   4.255  10.668 -0.0825 -0.0591  0.2535
  933W        W 4984   1.434   0.595   5.027  0.0588 -0.1596  0.2269
  934W        W 4985   7.678   8.148  10.920  0.0719  0.2189 -0.3124
  935W        W 4986   2.507   8.211   2.758  0.1185  0.2372 -0.0180
  936W        W 4987   6.322   3.288  13.090 -0.1489 -0.0652  0.1218
  937W        W 4988   0.211   1.100   0.707 -0.0913 -0.0429  0.1656
  938W        W 4989   5.289   4.499   4.566 -0.0243  0.0468 -0.1554
  939W        W 4990   7.974   4.218   4.253 -0.0026  0.1398  0.3016
  940W        W 4991   1.095   0.441  13.783 -0.0655  0.0330 -0.0808
  941W        W 4992   7.220   0.602   3.556 -0.0503  0.4022 -0.1903
  942W        W 4993   5.183   8.892   1.786 -0.0672  0.0201 -0.2832
  943W        W 4994   3.280   1.846  13.755 -0.0112 -0.0688 -0.0139
  944W        W 4995   3.516   7.681   2.896 -0.2516  0.0450  0.0333
  945W        W 4996   5.138   5.464   4.915  0.1772 -0.0040 -0.1132
  946W        W 4997   0.451   3.698  12.257  0.3393  0.2134  0.0917
  947W        W 4998   6.219   8.947   2.217 -0.2445  0.4029  0.4083
  948W        W 4999   0.078   0.191  13.679  0.0196 -0.1912 -0.0005
  949W        W 5000   9.559   9.917  12.130 -0.0028 -0.2289 -0.3123
  950W        W 5001   2.735   0.575   2.705  0.1082 -0.0308  0.0454
  951W        W 5002   7.381   2.430   0.249  0.2694 -0.3245  0.3610
  952W        W 5003   8.677   8.556   4.405 -0.1763  0.1607  0.2728
  953W        W 5004   2.969   9.271   9.770  0.0407 -0.2502  0.0770
  954W        W 5005   1.667   3.156  11.372  0.1327 -0.2128  0.2481
  955W        W 5006   6.308   2.401   0.532 -0.2505  0.0179 -0.0152
  956W        W 5007   3.103   1.053  10.942  0.1071  0.0824  0.1758
  957W        W 5008   2.352   0.235   0.650 -0.0237  0.1367 -0.2901
  958W        W 5009   9.917   0.730   2.171  0.1005  0.2963  0.2439
  959W        W 5010   3.295   2.849   9.517  0.1970  0.0411  0.0271
  960W        W 5011   5.208   2.738   5.391  0.0958  0.2229 -0.0813
  961W        W 5012   7.597   8.683   0.787  0.0865  0.0283  0.1089
  962W        W 5013   7.734   6.886   2.582  0.0520  0.5278 -0.1128
  963W        W 5014   3.482   7.784   2.136 -0.0791  0.1771 -0.0201
  964W        W 5015   0.799   8.882  12.453 -0.1468 -0.1127  0.1676
  965W        W 5016   2.858   0.920  10.543 -0.0932 -0.2538  0.3572
  966W        W 5017   1.632   9.312   9.757  0.2346  0.2696  0.0699
  967W        W 5018   7.327   6.904   1.299 -0.2396 -0.2017  0.0417
  968W        W 5019   2.037   5.735   1.396 -0.0292  0.0554  0.0284
  969W        W 5020   8.007   6.275  12.994  0.0012  0.1979 -0.0014
  970W        W 5021   0.287   8.355   8.721 -0.1983  0.1245 -0.2782
  971W        W 5022   5.941   7.730  13.733 -0.2683 -0.2074  0.0559
  972W        W 5023   8.970   3.610  13.719 -0.2801  0.1690 -0.2259
  973W        W 5024   0.480   9.155  10.209  0.0864 -0.1608 -0.0197
  974W        W 5025   6.619   6.128   2.167  0.2098  0.1229 -0.3733
  975W        W 5026   8.078   8.340  11.364  0.1704 -0.0910 -0.0920
  976W        W 5027   3.909   0.199  11.688 -0.0309  0.1285  0.1118
  977W        W 5028   8.164   2.728   3.857 -0.0595  0.1077  0.2593
  978W        W 5029   5.496   5.161   2.123  0.0767 -0.0899  0.0886
  979W        W 5030   9.208   4.979   3.387 -0.3473 -0.2003  0.2966
  980W        W 5031   7.949   9.622  12.851  0.1647  0.0103  0.0873
  981W        W 5032   2.500   3.331   2.760 -0.0071  0.2692 -0.0299
  982W        W 5033   2.363   6.089   0.010 -0.3362  0.3090 -0.0809
  983W        W 5034   2.073   4.939   4.273  0.0005  0.2081 -0.0146
  984W        W 5035   5.590   2.276   4.667  0.2501 -0.1189  0.2064
  985W        W 5036   2.367   2.264   8.884 -0.3268 -0.1126 -0.1876
  986W        W 5037   6.052   8.860   2.711 -0.5445  0.2034  0.0772
  987W        W 5038   0.080   2.841   2.757  0.0259  0.0427  0.0520
  988W        W 5039   6.999   8.094  13.837 -0.2783 -0.2763  0.1036
  989W        W 5040   0.169   5.611   0.505 -0.0646  0.1156  0.0166
  990W        W 5041   2.414   1.636   0.287 -0.0657 -0.2756  0.2119
  991W        W 5042   4.921  10.107  11.833 -0.2608  0.0673 -0.0079
  992W        W 5043   4.916   2.866  10.159  0.3153  0.1089 -0.1931
  993W        W 5044   3.248  10.006   0.149  0.1908  0.0342  0.5004
  994W        W 5045   0.231   4.450   3.519  0.1916  0.0646  0.0880
  995W        W 5046   4.180   5.931   2.777 -0.0368  0.1592  0.0092
  996W        W 5047   7.942   9.976  13.217 -0.2018  0.1641 -0.2772
  997W        W 5048   5.019   7.907   0.047 -0.2013 -0.0062  0.1609
  998W        W 5049   7.791   5.030  13.441  0.1864 -0.1471 -0.2274
  999W        W 5050   8.112   6.302   3.415  0.0198 -0.0410 -0.0226
 1000W        W 5051   1.175   9.828   3.311 -0.1035  0.0504 -0.0268
 1001W        W 5052   4.797  10.088   1.280 -0.4215  0.0023  0.2586
 1002W        W 5053   9.702   7.093   4.417  0.2022 -0.1027  0.0549
 1003W        W 5054   5.611  10.095   2.983  0.1342  0.0363 -0.0866
 1004W        W 5055   5.200   3.844   0.598 -0.2652 -0.2240  0.0180
 1005W        W 5056   9.789   1.985   1.931 -0.4700  0.1721 -0.0057
 1006W        W 5057   9.643   2.541   9.674 -0.1659 -0.0839 -0.2143
 1007W        W 5058   9.433   9.311   3.453 -0.0132 -0.0854  0.1949
 1008W        W 5059   9.980   0.122   2.697 -0.2122  0.1806  0.0393
 1009W        W 5060   2.199   8.332   1.754 -0.0068 -0.1477 -0.1263
 1010W        W 5061   8.627   8.742   9.578 -0.1339  0.1535 -0.1269
 1011W        W 5062   9.636   7.302  12.134  0.0247 -0.1215 -0.1144
 1012W        W 5063   6.487   5.230   4.143  0.0478 -0.1125 -0.2996
 1013W        W 5064   5.600   4.376  13.480 -0.0133  0.0420  0.1557
 1014W        W 5065   9.276   3.159  10.393  0.1041 -0.0898 -0.3171
 1015W        W 5066   7.802   8.853   0.192 -0.3204  0.0388  0.0235
 1016W        W 5067   3.406   7.750  12.692 -0.3092 -0.3307  0.0109
 1017W        W 5068   1.998   2.702   2.315  0.0534  0.1887 -0.3224
 1018W        W 5069   5.194   9.452  13.503 -0.2089 -0.2109 -0.0300
 1019W        W 5070   5.582   2.982  10.692  0.1688 -0.0290 -0.0546
 1020W        W 5071   6.064   8.635  10.434  0.0044  0.0134  0.1168
 1021W        W 5072   7.112   4.112   4.480 -0.2159  0.0968 -0.1182
 1022W        W 5073   2.156   7.859   1.896 -0.0887 -0.0640  0.0716
 1023W        W 5074   8.140   0.490  11.813  0.0070 -0.1800  0.2216
 1024W        W 5075   2.885   6.360  10.141 -0.1082 -0.2846 -0.2039
 1025W        W 5076   6.502   0.826  11.515 -0.0003 -0.0458  0.3239
 1026W        W 5077   1.038   1.714   9.480  0.1368  0.1160  0.0794
 1027W        W 5078   2.603   0.954   9.842  0.1162  0.1256 -0.0914
 1028W        W 5079   1.251   1.423  11.763  0.3708 -0.1527  0.0714
 1029W        W 5080   3.287  10.087   1.444 -0.1558  0.0797 -0.3614
 1030W        W 5081   8.458   8.532  11.067 -0.2152  0.1217  0.1619
 1031W        W 5082   7.075   9.564  12.578  0.1374  0.3983  0.0491
 1032W        W 5083   9.621   8.496   4.060 -0.1367 -0.0022  0.3644
 1033W        W 5084   4.340   1.073  10.023  0.0993 -0.3840 -0.1884
 1034W        W 5085   9.648  10.072  11.165 -0.2116 -0.0871  0.4296
 1035W        W 5086   9.277   3.865   4.632  0.3267 -0.0573 -0.0594
 1036W        W 5087   8.882   8.072   4.143  0.1463  0.1253  0.0352
 1037W        W 5088   2.685   0.909  11.159 -0.0415 -0.2930  0.2202
 1038W        W 5089   4.629   5.871  11.916 -0.1778  0.0361 -0.0378
 1039W        W 5090   8.593   3.587  13.228 -0.3964 -0.1481  0.0220
 1040W        W 5091   6.114   0.498   1.287 -0.1311 -0.0099  0.1523
 1041W        W 5092   1.483   7.150   2.910  0.0337 -0.1831 -0.0288
 1042W        W 5093   2.606   5.962  12.015  0.2421  0.1308 -0.0242
 1043W        W 5094   9.777   2.321   4.407 -0.1011 -0.1060 -0.2251
 1044W        W 5095   8.881   8.068   0.675  0.0376  0.0468 -0.1009
 1045W        W 5096   9.481   0.660   3.083 -0.1434  0.1538 -0.4057
 1046W        W 5097   2.226   6.036  10.079 -0.1755 -0.3703 -0.0378
 1047W        W 5098   2.308   1.190  11.441  0.1759 -0.1032 -0.2760
 1048W        W 5099   2.135   0.594  13.722 -0.5372 -0.1653 -0.0967
 1049W        W 5100   8.436   4.850   4.590  0.0893  0.2647  0.0580
 1050W        W 5101   6.698   7.740  12.004 -0.0232  0.0148  0.1910
 1051W        W 5102   2.989   7.895   0.271  0.1839  0.0275 -0.2456
 1052W        W 5103   7.011   7.400  12.157  0.1024 -0.0031  0.2065
 1053W        W 5104   7.079   1.401  11.227 -0.2348  0.1227 -0.0907
 1054W        W 5105   3.085   9.772   1.064  0.1557 -0.1627  0.0323
 1055W        W 5106   8.288   9.581   3.617 -0.2376 -0.0885  0.0075
 1056W        W 5107   6.079   3.195   0.825  0.1445 -0.1809 -0.1695
 1057W        W 5108   0.243   9.888  12.446 -0.0287 -0.1107  0.5020
 1058W        W 5109   4.381   9.790  13.230  0.1970 -0.2541  0.1794
 1059W        W 5110   1.906   2.454   4.666  0.1897  0.6467 -0.1284
 1060W        W 5111   1.336   0.479  12.285 -0.0733  0.4234  0.2223
 1061W        W 5112   0.291   8.461  13.182 -0.4438 -0.2215  0.0995
 1062W        W 5113   2.935   5.814   9.838  0.0119 -0.2584 -0.3609
 1063W        W 5114   5.610   3.122  12.831  0.1276  0.2498 -0.3935
 1064W        W 5115   8.955   5.313  13.733 -0.2096 -0.0489 -0.0326
 1065W        W 5116   9.322   4.506   3.192 -0.0702 -0.0654 -0.1018
 1066W        W 5117   8.359   5.500  11.620  0.2809  0.0253  0.0147
 1067W        W 5118  10.209   7.609   0.745 -0.1604  0.0070  0.0519
 1068W        W 5119   1.955   8.365  10.522 -0.0801  0.0444 -0.0063
 1069W        W 5120   8.222   2.084  11.144 -0.2169  0.0202  0.2043
 1070W        W 5121   5.258   4.500   2.268 -0.1186 -0.2205  0.0458
 1071W        W 5122   0.721   7.448   1.406 -0.1142 -0.3016  0.0441
 1072W        W 5123   4.311   6.892  10.975  0.0176 -0.2158  0.0009
 1073W        W 5124   3.959   2.536   0.161 -0.1134  0.2006  0.2020
 1074W        W 5125   9.978   4.760   1.100  0.2445 -0.1098  0.1009
 1075W        W 5126   1.877   9.599  10.552  0.0128 -0.1535  0.0451
 1076W        W 5127   6.723   3.677   0.108  0.2690 -0.1182 -0.0449
 1077W        W 5128   8.186   8.530   9.634 -0.0870 -0.0162 -0.0327
 1078W        W 5129   0.698   6.743   5.274  0.0130 -0.3081 -0.0025
 1079W        W 5130   6.154   7.105   2.015  0.4357  0.0085  0.1964
 1080W        W 5131   9.658   9.956   0.871 -0.0408  0.2648 -0.0450
 1081W        W 5132   8.214   4.404   1.565 -0.1364 -0.3799  0.1768
 1082W        W 5133   5.205   8.576   0.162  0.1270 -0.0808 -0.0899
 1083W        W 5134   5.975   1.285  11.404  0.1137  0.1340 -0.1165
 1084W        W 5135   1.656   1.458  10.917  0.1117 -0.2775  0.0440
 1085W        W 5136   2.639   2.087   4.446  0.1920  0.0519 -0.2398
 1086W        W 5137   8.286   4.148   0.927 -0.2320  0.0289  0.0003
 1087W        W 5138   0.948   3.136  12.619 -0.1742  0.2067  0.1601
 1088W        W 5139   5.768   0.700   2.346  0.1352 -0.0963 -0.3320
 1089W        W 5140   3.837   7.900   1.258  0.2471  0.0030  0.0605
 1090W        W 5141   0.919  10.078   4.780 -0.0934 -0.0047 -0.0960
 1091W        W 5142   9.277   7.066  10.615 -0.2313 -0.1187 -0.1433
 1092W        W 5143   8.249   7.383   1.576 -0.1999 -0.0708 -0.1510
 1093W        W 5144   5.201   9.733  12.448  0.3790  0.1760  0.0397
 1094W        W 5145   9.140   9.779  10.784 -0.1237 -0.0174 -0.1108
 1095W        W 5146   9.301   7.284  11.324 -0.1681  0.3282  0.0341
 1096W        W 5147   4.056   0.908   0.104 -0.2704  0.2315 -0.0315
 1097W        W 5148   4.129   7.337   3.584  0.3793  0.0602  0.0520
 1098W        W 5149   2.218   5.081   8.539  0.0915 -0.2172 -0.1353
 1099W        W 5150   3.959   8.139   0.054  0.1760  0.1727 -0.0875
 1100W        W 5151   3.148   6.989   3.197  0.1112  0.2645  0.1919
 1101W        W 5152   2.854   4.338  11.061  0.2797 -0.3426  0.2837
 1102W        W 5153   5.197   2.057  12.987 -0.3018  0.0172 -0.1329
 1103W        W 5154   7.385   8.003   2.991 -0.1777 -0.0977  0.0777
 1104W        W 5155   7.017   8.094  11.450  0.1212  0.1178 -0.5157
 1105W        W 5156   1.127   4.213  10.828 -0.0973 -0.3694 -0.2130
 1106W        W 5157   9.228   5.408  12.073 -0.0484  0.0752 -0.0088
 1107W        W 5158   5.351   3.640   4.043 -0.1780  0.3100 -0.0664
 1108W        W 5159   9.754   1.603   0.679  0.0352  0.2470 -0.1932
 1109W        W 5160   9.119   2.143   8.559 -0.1821 -0.3291 -0.0413
 1110W        W 5161   0.450   1.509   4.062 -0.0694 -0.2068  0.0983
 1111W        W 5162   1.580   5.296  11.774  0.0192  0.0515 -0.1515
 1112W        W 5163   1.530   0.254  10.882 -0.3199  0.0005 -0.1135
 1113W        W 5164   2.910   2.239  10.778  0.2577  0.1314 -0.0118
 1114W        W 5165   2.689   6.498  10.600 -0.1390 -0.0440  0.2818
 1115W        W 5166   3.991   3.262  12.487  0.0169  0.1134  0.3643
 1116W        W 5167   3.592   2.350   3.676  0.2602 -0.0523  0.3767
 1117W        W 5168   9.681   7.629   9.483 -0.0543  0.0220  0.2672
 1118W        W 5169   0.906   3.901  13.854 -0.2178 -0.2017  0.1065
 1119W        W 5170   8.237   4.939  12.331  0.2306 -0.0914 -0.1031
 1120W        W 5171   9.277   3.005   0.528  0.0552 -0.0747  0.0945
 1121W        W 5172   4.669   5.999   2.504  0.1390  0.0463 -0.1849
 1122W        W 5173   9.316   8.499  11.966 -0.0544 -0.1395 -0.3320
 1123W        W 5174   7.565   4.845  11.375  0.0203  0.1588  0.2604
 1124W        W 5175   6.432   9.801   0.311  0.2654  0.1207  0.0739
 1125W        W 5176   9.637  10.086  13.202  0.0991 -0.0562  0.0116
 1126W        W 5177   0.549   2.146  10.907  0.0278 -0.4235  0.3004
 1127W        W 5178   7.386   8.604  10.836  0.1936  0.3216 -0.2008
 1128W        W 5179   0.644   6.962   2.905 -0.2492  0.1320  0.0082
 1129W        W 5180   3.643   8.635  13.111 -0.0710 -0.1874  0.0607
 1130W        W 5181   4.096   9.899  11.463 -0.2057 -0.0628 -0.0862
 1131W        W 5182   3.913   9.503   3.796 -0.2224 -0.2267  0.1308
 1132W        W 5183   0.206   9.503   9.665 -0.1283 -0.0401  0.2405
 1133W        W 5184   5.624   3.322   0.461 -0.0581  0.1448 -0.0166
 1134W        W 5185   0.767   7.279   0.740  0.0458  0.0212  0.1483
 1135W        W 5186   6.284   5.858  12.534  0.3013  0.0277  0.3856
 1136W        W 5187   7.873   2.855   5.160 -0.3361  0.0566 -0.1685
 1137W        W 5188   2.729   9.999   0.004  0.2617 -0.1228 -0.1982
 1138W        W 5189   4.526   7.501  13.479  0.1390 -0.0641 -0.0631
 1139W        W 5190   2.511   7.901   1.083 -0.0498  0.2902  0.1539
 1140W        W 5191   5.206   2.807   1.109  0.2673 -0.3592  0.0560
 1141W        W 5192   4.986   0.663   4.028  0.2268  0.0229 -0.0530
 1142W        W 5193   3.419   1.187   9.785 -0.0589 -0.1022  0.1516
 1143W        W 5194   7.504   5.898   0.458  0.3392  0.0348 -0.1975
 1144W        W 5195   5.561   0.572  12.536 -0.1439 -0.0146  0.0848
 1145W        W 5196   4.697   8.063  11.319 -0.2725 -0.1175 -0.2818
 1146W        W 5197   0.705   6.217  10.472  0.0633 -0.2173  0.3154
 1147W        W 5198   2.724   6.846  10.950 -0.1445  0.0762 -0.0451
 1148W        W 5199   1.844   6.134  10.922 -0.1204  0.2323  0.2497
 1149W        W 5200   6.218   7.768   2.393  0.0003 -0.0375  0.0677
 1150W        W 5201   4.684   6.169  13.193 -0.2405 -0.2270 -0.0057
 1151W        W 5202  10.175   8.969  11.598  0.0645 -0.1521  0.2224
 1152W        W 5203   2.052   3.167  12.574 -0.1037 -0.1063  0.0047
 1153W        W 5204   8.488   9.632   0.779 -0.3108 -0.1101 -0.1976
 1154W        W 5205   2.027   2.879   0.648 -0.0698  0.0922 -0.3349
 1155W        W 5206   2.797   1.955   0.092 -0.1437  0.1341 -0.2353
 1156W        W 5207   4.230   0.820   0.574 -0.0681 -0.0382 -0.0171
 1157W        W 5208   9.077   6.004   1.549  0.1829  0.1406  0.0684
 1158W        W 5209   2.980   3.547   3.525  0.0011  0.0063 -0.0085
 1159W        W 5210   9.524   2.736   4.072 -0.3505 -0.1257  0.0062
 1160W        W 5211   8.745   4.070   2.222  0.5026 -0.4554 -0.2624
 1161W        W 5212   0.089   7.636   1.911  0.0495  0.2175  0.1924
 1162W        W 5213   7.045   4.726  12.173 -0.1858  0.0580 -0.0175
 1163W        W 5214   8.425   5.080   1.609 -0.4226 -0.3426  0.1300
 1164W        W 5215   5.862   0.999   3.414  0.0177 -0.0930 -0.0479
 1165W        W 5216   1.781   8.023   0.407 -0.1928  0.3577 -0.1259
 1166W        W 5217   9.504   9.381  13.253  0.1548  0.0439 -0.1680
 1167W        W 5218   1.588   7.134   3.942  0.3090 -0.0838 -0.0439
 1168W        W 5219   9.609   3.806   1.338 -0.1313 -0.1305 -0.0291
 1169W        W 5220   3.845   5.003  12.189 -0.1260 -0.1009  0.1647
 1170W        W 5221   2.385   6.497  11.603  0.1040  0.0316 -0.1844
 1171W        W 5222   9.416   6.207   8.951 -0.5010 -0.1717  0.0685
 1172W        W 5223   6.042   2.885   4.432 -0.1150  0.0487  0.0790
 1173W        W 5224   8.554   7.901  12.655  0.1396  0.1212  0.1016
 1174W        W 5225   9.367   8.594   2.683 -0.1454  0.0140 -0.0330
 1175W        W 5226   2.702   3.171   1.948  0.0016 -0.2250 -0.2521
 1176W        W 5227   6.027   1.211  10.202  0.1330  0.0263  0.0110
 1177W        W 5228   7.623   0.170  11.870 -0.3764  0.2761  0.1288
 1178W        W 5229   3.511   9.663   4.067  0.0581  0.1070  0.1669
 1179W        W 5230   6.496   1.957  10.849 -0.2362 -0.2973  0.0373
 1180W        W 5231   7.575   9.641  13.257  0.1456 -0.1866  0.0746
 1181W        W 5232   9.029   6.104   0.690  0.0929  0.0705 -0.1431
 1182W        W 5233   2.609   3.442   0.638  0.2672 -0.5264  0.2616
 1183W        W 5234   8.174   2.231  11.703  0.3936  0.0680 -0.3616
 1184W        W 5235   0.286   9.718   1.674  0.0022 -0.0632  0.3656
 1185W        W 5236   3.328   1.449  10.564  0.2221  0.2222 -0.1607
 1186W        W 5237   0.866   4.616   3.938 -0.1489 -0.1164 -0.1265
 1187W        W 5238   2.667   8.226  11.144  0.3409  0.1826  0.1866
 1188W        W 5239   8.229   2.820   1.490 -0.0335  0.0186  0.0578
 1189W        W 5240   6.041   6.792   0.480 -0.2107 -0.2030 -0.1280
 1190W        W 5241   2.129   2.198  11.823 -0.0423  0.0045 -0.1956
 1191W        W 5242   4.372   3.864  11.763  0.0559 -0.1223 -0.1030
 1192W        W 5243   7.795   4.923   3.740  0.0722  0.3877  0.0762
 1193W        W 5244   5.775   7.027  11.914 -0.4411  0.4765 -0.1871
 1194W        W 5245   8.337   5.935  10.183  0.0994 -0.0225  0.3191
 1195W        W 5246   8.868   3.316  10.538  0.0753 -0.1659  0.2798
 1196W        W 5247   9.175   2.292   4.948 -0.2537 -0.0925  0.1682
 1197W        W 5248  10.055   0.826  13.306 -0.3017  0.3265  0.3187
 1198W        W 5249   0.820   7.179   5.695  0.0996 -0.0457  0.0685
 1199W        W 5250   7.613   1.361  11.417 -0.1099 -0.1270 -0.2675
 1200W        W 5251   0.923   0.729  11.898 -0.0834  0.0590  0.0798
 1201W        W 5252   0.959   0.328   1.353 -0.3686 -0.0839 -0.0058
 1202W        W 5253   8.410   2.556  12.635  0.0560  0.0572 -0.0471
 1203W        W 5254   7.829   8.006   3.416  0.0593  0.1358  0.0240
 1204W        W 5255   6.939   7.987  10.182  0.1131  0.1892 -0.1983
 1205W        W 5256   9.310   1.753   0.210  0.0030 -0.0110 -0.2690
 1206W        W 5257   5.311   2.881   0.629 -0.0508  0.2305 -0.1246
 1207W        W 5258   0.254   4.464  11.556 -0.1284 -0.4670 -0.1068
 1208W        W 5259   7.311   1.444   1.900 -0.3135  0.1416  0.0747
 1209W        W 5260   9.220   6.983  13.103  0.0485  0.1578 -0.2022
 1210W        W 5261   2.747   0.587  12.272  0.0624  0.1140  0.4268
 1211W        W 5262   8.158   5.795   0.213  0.2176  0.1260 -0.1527
 1212W        W 5263   5.576   2.306   1.301 -0.0706 -0.0237  0.0248
 1213W        W 5264   0.287   5.975  10.218  0.0388  0.1100  0.1391
 1214W        W 5265   4.259   6.906  13.071  0.1017 -0.1452 -0.3933
 1215W        W 5266   5.857   1.883   1.312  0.3590  0.1077  0.1018
 1216W        W 5267   4.998   2.427   3.778  0.1824  0.2302 -0.3235
 1217W        W 5268   0.988   2.241   3.780 -0.2169 -0.1771  0.1680
 1218W        W 5269   3.991   7.091  11.445 -0.2770 -0.2123 -0.0313
 1219W        W 5270   1.740   7.958  12.214  0.3396  0.1199  0.1687
 1220W        W 5271   9.048   3.610   1.669  0.0588 -0.1359  0.0058
 1221W        W 5272   7.654   6.709   0.943  0.1815 -0.2308  0.3075
 1222W        W 5273   0.351   5.147  11.016 -0.0695  0.2298  0.4568
 1223W        W 5274   1.090  10.170   0.126 -0.0474 -0.2038  0.1738
 1224W        W 5275   5.054   5.167   2.353 -0.1871  0.2556  0.1077
 1225W        W 5276   4.032   6.681   2.999  0.0196  0.2009  0.0525
 1226W        W 5277   0.205   1.037   3.371  0.2781 -0.2107  0.0059
 1227W        W 5278   1.544   6.077  11.329  0.0142 -0.0390 -0.2140
 1228W        W 5279   7.857   3.907   0.864  0.1402  0.1257  0.1757
 1229W        W 5280  10.203   7.178  13.634 -0.2006  0.1675  0.0042
 1230W        W 5281   6.440   2.500   9.473  0.0466 -0.0350  0.1919
 1231W        W 5282   3.431   7.278  12.130 -0.1230  0.1194  0.4456
 1232W        W 5283   8.895   4.144   9.310 -0.1839  0.1139  0.2949
 1233W        W 5284   6.539   3.113  11.595  0.0560 -0.0101 -0.0890
 1234W        W 5285   2.257   8.830   2.116 -0.0216 -0.1994  0.0248
 1235W        W 5286   4.267   5.496  13.652 -0.4319 -0.3887  0.1067
 1236W        W 5287   4.907   6.378  12.107  0.1485  0.2423  0.1775
 1237W        W 5288   2.018   5.870   2.679 -0.1652  0.1812 -0.0782
 1238W        W 5289   5.390   5.754   1.587 -0.0478  0.0778  0.0353
 1239W        W 5290  10.141   8.052  13.096  0.2265 -0.2070 -0.0229
 1240W        W 5291   1.442   8.407   4.525  0.0958 -0.1507 -0.3438
 1241W        W 5292   3.926   5.859   9.616 -0.1813  0.0986  0.0659
 1242W        W 5293   3.248   7.300   0.192  0.0660 -0.3945 -0.2134
 1243W        W 5294   4.896   9.682   2.548  0.0244 -0.2329  0.1014
 1244W        W 5295   9.253   5.637   2.544 -0.2482  0.0242  0.1875
 1245W        W 5296   5.761   8.487  12.630 -0.2583 -0.0000  0.1951
 1246W        W 5297   5.033   5.124   0.082 -0.1237 -0.0219 -0.0650
 1247W        W 5298   6.815   0.064  13.220  0.3588 -0.0346 -0.1386
 1248W        W 5299   6.334   6.445   0.815  0.3377 -0.2210 -0.1165
 1249W        W 5300   7.625   4.594   1.459  0.1901 -0.2303 -0.2377
 1250W        W 5301   5.930   1.182   2.078  0.0596  0.1372  0.2479
 1251W        W 5302   8.679   7.979  12.205  0.2569  0.0275  0.0789
 1252W        W 5303   8.838   1.403   0.965  0.2066 -0.0755 -0.3700
 1253W        W 5304   9.388   7.155  12.658  0.0451 -0.0850  0.1869
 1254W        W 5305   2.170   1.925  12.303  0.3098  0.1445 -0.1562
 1255W        W 5306   1.573   4.541   3.591 -0.0248 -0.1991 -0.1829
 1256W        W 5307   4.244   9.859  10.944 -0.4039  0.0154 -0.0163
 1257W        W 5308   4.455   8.674   3.785  0.3608  0.0773 -0.1394
 1258W        W 5309   7.732   7.339   1.426 -0.1226 -0.0729 -0.1727
 1259W        W 5310   3.512   8.255   3.873 -0.0882 -0.2643  0.2358
 1260W        W 5311   6.168   7.733   1.000  0.1092  0.1167  0.3296
 1261W        W 5312   7.051   8.212  10.943 -0.2220  0.2009 -0.1758
 1262W        W 5313   5.435   3.989  11.053 -0.2623  0.0939  0.2603
 1263W        W 5314   6.136   5.371  10.165  0.0038 -0.1777  0.2634
 1264W        W 5315   0.401   3.545  13.131 -0.0399  0.0047  0.2883
 1265W        W 5316   4.855   5.391   4.170  0.2320  0.0561  0.1181
 1266W        W 5317   8.634   3.888  12.790 -0.0947 -0.1020 -0.2679
 1267W        W 5318   0.206   4.991   1.208  0.1626 -0.0023  0.0774
 1268W        W 5319   8.942   3.198  10.024  0.1723 -0.0322 -0.0926
 1269W        W 5320   3.373   4.157   1.889  0.1746 -0.2510 -0.1864
 1270W        W 5321   6.558   7.649  10.183 -0.3596 -0.0653  0.0524
 1271W        W 5322   5.591   9.904   0.897 -0.3195 -0.0937 -0.3283
 1272W        W 5323   4.223   4.444   2.300 -0.0513  0.3426  0.2780
 1273W        W 5324   5.826   1.223  13.066 -0.1033  0.3105  0.0912
 1274W        W 5325   8.702   5.652   8.743 -0.0421 -0.1086  0.1870
 1275W        W 5326   7.998   1.829   9.997 -0.0812  0.2963  0.2496
 1276W        W 5327   7.020   8.062   1.244  0.3433  0.1492 -0.2642
 1277W        W 5328  10.189   9.013  10.484 -0.2121 -0.1295  0.2594
 1278W        W 5329   3.061   7.061   5.019  0.2965 -0.1179 -0.1769
 1279W        W 5330   9.988   3.941   3.839  0.0983 -0.1473  0.3272
 1280W        W 5331   5.958   6.458   1.728 -0.1326 -0.0507  0.0921
 1281W        W 5332  10.030   3.213  12.434 -0.0262 -0.4763  0.1653
 1282W        W 5333   9.092   2.863   2.126 -0.2235  0.2866 -0.1189
 1283W        W 5334   5.731   3.517   9.760 -0.3142 -0.0126 -0.0773
 1284W        W 5335  10.049   1.975   3.189 -0.3860  0.0567 -0.0370
 1285W        W 5336   7.228   3.949  13.169  0.1663  0.1729 -0.0148
 1286W        W 5337   1.188   7.896   2.809  0.2403  0.1639 -0.0943
 1287W        W 5338   0.473   5.562   4.264 -0.0159 -0.2000 -0.2553
 1288W        W 5339   4.697   9.174   0.900 -0.2056 -0.0222 -0.1723
 1289W        W 5340   8.425   6.015   1.443  0.0524 -0.4500  0.0978
 1290W        W 5341   4.126   3.509   8.880  0.1248 -0.1247  0.0234
 1291W        W 5342   0.810   2.554   9.824  0.0406  0.1764 -0.0761
 1292W        W 5343  10.054   7.181   9.329  0.1805 -0.0071  0.2743
 1293W        W 5344   0.962   1.447   0.677 -0.0837 -0.2621 -0.2320
 1294W        W 5345   7.617   3.471  11.397  0.1644 -0.1197  0.1340
 1295W        W 5346   4.438   3.933   3.016  0.0603 -0.0102 -0.2011
 1296W        W 5347   8.039   5.946   4.745 -0.0456 -0.1684 -0.0354
 1297W        W 5348   1.942   4.448   1.723 -0.0469 -0.2425  0.1521
 1298W        W 5349   9.671  10.115   3.303 -0.0167 -0.1024  0.1904
 1299W        W 5350   2.907   5.010   9.505  0.0754 -0.1255  0.0407
 1300W        W 5351   0.465   5.005   1.757  0.1712 -0.2105  0.1705
 1301W        W 5352   9.291   5.146   1.981 -0.0359  0.0249  0.0591
 1302W        W 5353   6.157   1.606   2.154 -0.0515 -0.0030 -0.1305
 1303W        W 5354   7.366   4.055   2.005  0.1255  0.2287 -0.1635
 1304W        W 5355   4.056   1.126   2.370  0.3163 -0.3508 -0.1263
 1305W        W 5356   2.275   2.377   3.850 -0.3102  0.0449  0.1454
 1306W        W 5357   0.655   7.214   9.146 -0.1888  0.0029  0.1343
 1307W        W 5358   1.743   7.708   2.202  0.0153 -0.1989  0.2547
 1308W        W 5359   1.165   9.464  10.005 -0.0637 -0.2093 -0.0609
 1309W        W 5360   5.799   6.164  10.706  0.1403 -0.1694  0.1730
 1310W        W 5361  10.191   6.241   4.356 -0.0038 -0.0766  0.1142
 1311W        W 5362   7.545   6.960  13.547 -0.1040 -0.1329  0.0029
 1312W        W 5363   2.737   2.182  11.636  0.0858 -0.1446 -0.0134
 1313W        W 5364   3.545   9.165   2.779 -0.1862  0.1035 -0.1277
 1314W        W 5365   0.996   8.326   4.247  0.1624  0.0518 -0.1865
 1315W        W 5366   9.730   9.174   4.858 -0.0648  0.2273 -0.0772
 1316W        W 5367   8.687   5.781   1.052 -0.1223 -0.1325 -0.2835
 1317W        W 5368   2.367   9.768   9.386 -0.0154  0.2767 -0.1056
 1318W        W 5369   4.916   5.153  13.014  0.0234 -0.2073 -0.1379
 1319W        W 5370   6.590   3.347   0.570  0.2148  0.0815 -0.0977
 1320W        W 5371   9.257   1.168   4.493  0.0453 -0.1004  0.1150
 1321W        W 5372  10.070   3.535  13.093 -0.0601 -0.1619 -0.0413
 1322W        W 5373   6.444   3.983   2.529 -0.0049 -0.2313 -0.2153
 1323W        W 5374   9.752   7.357   0.770 -0.0403  0.0130  0.0287
 1324W        W 5375   1.826   2.014   9.940  0.1306  0.3205 -0.0689
 1325W        W 5376   2.752   5.307   4.615 -0.0210  0.2595  0.2311
 1326W        W 5377   4.510   0.902  11.795  0.1906 -0.1452  0.0961
 1327W        W 5378   9.886   8.965  13.307  0.4221 -0.1853  0.0253
 1328W        W 5379   7.283   3.072   3.189  0.1230 -0.1027  0.1170
 1329W        W 5380   1.371   4.061  11.692  0.4553 -0.0622  0.1135
 1330W        W 5381   3.235   6.467  12.049 -0.1567 -0.1134 -0.1134
 1331W        W 5382   9.011   0.447   2.980  0.0488 -0.0121 -0.1068
 1332W        W 5383   8.216   9.767  12.085 -0.0689  0.2964  0.2976
 1333W        W 5384   8.012   0.792   5.114 -0.4555  0.2060 -0.0684
 1334W        W 5385   8.799   3.122  13.495 -0.2082 -0.2175 -0.2509
 1335W        W 5386   1.366   7.279   2.432  0.0843  0.0136  0.3362
 1336W        W 5387   0.601   5.470   9.498  0.3755 -0.2575  0.1529
 1337W        W 5388   3.915   8.460   9.021 -0.0675 -0.1027  0.0320
 1338W        W 5389   8.512   2.945   5.464 -0.0175  0.0376  0.0874
 1339W        W 5390   7.536   8.338   3.709 -0.2036 -0.0858  0.0444
 1340W        W 5391   3.592   0.295   0.758 -0.2634 -0.2141  0.1644
 1341W        W 5392   9.880   0.284  13.043 -0.1064 -0.1922  0.2403
 1342W        W 5393   0.605   4.143   2.137  0.1677 -0.0432 -0.0173
 1343W        W 5394   2.509   7.771   1.544  0.2012  0.1365 -0.0123
 1344W        W 5395   1.727   1.767   1.993  0.0862 -0.0895  0.2405
 1345W        W 5396   0.824   2.730   1.019 -0.1706  0.2892 -0.1541
 1346W        W 5397   2.410   8.844   9.898  0.1328  0.0559 -0.2087
 1347W        W 5398   9.737   1.732   9.174  0.3141  0.1383 -0.1771
 1348W        W 5399   4.929   3.344   2.769 -0.0823  0.1534  0.3659
 1349W        W 5400   0.897   4.002   4.014 -0.1112  0.2953 -0.0517
 1350W        W 5401   2.323   0.550   4.537 -0.0503 -0.3032 -0.2392
 1351W        W 5402   2.418   7.842   3.273  0.1713 -0.0149 -0.0333
 1352W        W 5403   5.755   0.547   0.940  0.1662 -0.3719 -0.0882
 1353W        W 5404   0.653   1.755   2.952 -0.2531  0.1732 -0.0947
 1354W        W 5405   7.288   4.525   2.542  0.1176  0.2866  0.3903
 1355W        W 5406   4.978   6.961   3.888 -0.2035 -0.0700 -0.2784
 1356W        W 5407   5.625   1.512   2.787 -0.1181  0.0040 -0.0775
 1357W        W 5408   5.735   1.307  10.596  0.0563  0.1747  0.0342
 1358W        W 5409   5.018   4.117   3.770  0.2672 -0.1435  0.1795
 1359W        W 5410   5.970   2.853   1.887  0.1504 -0.0757 -0.1429
 1360W        W 5411   2.244   5.410   4.566  0.1019  0.2519  0.2631
 1361W        W 5412   1.840   4.987   2.046  0.2694 -0.0574  0.3691
 1362W        W 5413   5.689   9.876   1.863  0.0283  0.0922 -0.0263
 1363W        W 5414   3.722   3.796   1.649 -0.0188  0.2705 -0.1271
 1364W        W 5415   7.688   7.910   9.164 -0.0037 -0.0769  0.1524
 1365W        W 5416   1.731   2.226   2.169 -0.0541  0.0269  0.1747
 1366W        W 5417   0.953   8.804  11.023  0.1921  0.0937 -0.0495
 1367W        W 5418   8.217   0.447  10.353  0.2420 -0.0721  0.1319
 1368W        W 5419   8.019   4.015   5.428  0.1335  0.0915  0.1226
 1369W        W 5420   4.716   5.442   9.981  0.1517 -0.1690  0.1931
 1370W        W 5421   9.249   8.450  10.468  0.0309  0.2850  0.3233
 1371W        W 5422   5.828   3.386   2.120 -0.1669 -0.0295 -0.1916
 1372W        W 5423   3.104   0.134  11.248 -0.1637 -0.3421 -0.0339
 1373W        W 5424   2.778   3.326   4.077 -0.0249  0.1481 -0.0988
 1374W        W 5425   8.959   0.246   4.546  0.1343  0.1148  0.1883
 1375W        W 5426   8.280   4.845   8.919 -0.0211 -0.1650 -0.1904
 1376W        W 5427   4.572   1.721   0.217  0.1359  0.0679 -0.0156
 1377W        W 5428   9.736   1.830   3.528 -0.1003  0.0491 -0.0237
 1378W        W 5429   4.541   6.988   0.453 -0.0677  0.2595 -0.1528
 1379W        W 5430   5.699   5.708   3.585 -0.1184  0.1854 -0.0597
 1380W        W 5431   9.376   2.528   0.736 -0.3112 -0.1928 -0.2063
 1381W        W 5432   7.669   1.341   4.793  0.0156 -0.1277 -0.5385
 1382W        W 5433   8.631   2.887  10.768  0.1637  0.3125  0.1387
 1383W        W 5434   0.682   1.483  13.803  0.0164  0.0033 -0.0803
 1384W        W 5435   2.121   4.937  11.125 -0.0502  0.1748  0.0371
 1385W        W 5436   1.357   0.866   0.026  0.0744  0.1939  0.0984
 1386W        W 5437  10.196   9.982   9.817 -0.0440 -0.0229 -0.1329
 1387W        W 5438   0.037   4.859   4.400 -0.0215 -0.0766 -0.0786
 1388W        W 5439   5.742   9.263  10.803  0.1794  0.0711 -0.2926
 1389W        W 5440   3.898   1.424  13.351  0.2676 -0.0735 -0.0289
 1390W        W 5441   7.996   7.008  10.019 -0.1756  0.2891 -0.1569
 1391W        W 5442   8.766   6.986  10.325 -0.0291  0.1616  0.2241
 1392W        W 5443   6.706   5.706  12.781  0.0640  0.2292  0.0646
 1393W        W 5444   2.607   4.694  10.362 -0.0571 -0.0175  0.0201
 1394W        W 5445   8.562   0.439  12.277 -0.0579  0.2808 -0.2597
 1395W        W 5446   9.153   4.102  10.277 -0.0075  0.0451  0.0287
 1396W        W 5447   6.672   3.674   1.026  0.1594 -0.2502 -0.1174
 1397W        W 5448   9.721   6.095  10.780  0.0275 -0.0024 -0.2405
 1398W        W 5449   0.123  10.190   2.362 -0.0361 -0.2686  0.1070
 1399W        W 5450   9.561   6.846   1.620 -0.4470  0.2152 -0.1677
 1400W        W 5451  10.143   7.868  10.230  0.2341  0.3308  0.1310
 1401W        W 5452   4.066   0.008   9.438 -0.3268 -0.1454  0.0499
 1402W        W 5453   8.625   0.278   2.346  0.1501 -0.2027 -0.0085
 1403W        W 5454   9.594   1.086   9.804  0.1137  0.0821 -0.2311
 1404W        W 5455   3.434   7.836  10.983  0.2084 -0.3106 -0.1792
 1405W        W 5456   6.134   1.476   1.197 -0.1283 -0.1127 -0.2613
 1406W        W 5457   8.874   2.068   9.128 -0.0248 -0.1740  0.0919
 1407W        W 5458   0.223   8.856   2.711  0.0007  0.0119 -0.3984
 1408W        W 5459   2.171   7.890   0.178 -0.2924  0.0620  0.0919
 1409W        W 5460   8.039   1.970   9.171 -0.2811  0.0166 -0.1583
 1410W        W 5461   8.445   5.499   2.445  0.2959 -0.2470  0.1655
 1411W        W 5462   6.660   8.443  13.587  0.3362  0.2455 -0.2320
 1412W        W 5463   4.965   7.392   3.603  0.1044 -0.0917 -0.0613
 1413W        W 5464   6.564   9.677   2.221 -0.1485 -0.0186  0.1513
 1414W        W 5465   7.566   3.155   2.472  0.0227 -0.1139 -0.3481
 1415W        W 5466  10.207   4.086  11.682 -0.3175 -0.1964  0.0497
 1416W        W 5467   4.019   4.632   3.394  0.0128 -0.1159 -0.1208
 1417W        W 5468   5.577  10.176  11.086  0.0837 -0.0799  0.2049
 1418W        W 5469  10.188   5.437   3.706 -0.2763 -0.0543 -0.3617
 1419W        W 5470   0.504   5.245   0.546  0.3229  0.0528  0.1622
 1420W        W 5471   3.312   8.128  10.000  0.4379 -0.4875  0.0728
 1421W        W 5472   1.157   8.010  12.996  0.1191  0.6565  0.0459
 1422W        W 5473   3.499   5.047   9.261  0.2561  0.2069 -0.1213
 1423W        W 5474   0.346   2.571   0.817  0.0387  0.0085  0.1100
 1424W        W 5475   3.137   0.873   8.413 -0.0378 -0.1338  0.1716
 1425W        W 5476   6.650   3.889  10.503  0.1445  0.2285  0.1918
 1426W        W 5477   4.788   2.862   0.755  0.0896 -0.0061  0.0570
 1427W        W 5478   2.582   6.935  11.437 -0.2395  0.2527 -0.0606
 1428W        W 5479   9.637   4.227   3.508 -0.0080  0.1172 -0.0093
 1429W        W 5480   5.777   7.762  10.232 -0.2208 -0.0138 -0.1872
 1430W        W 5481   3.162   6.187  13.035 -0.1528 -0.0300  0.0690
 1431W        W 5482   4.032   8.449   2.909 -0.1845 -0.1089 -0.2507
 1432W        W 5483   4.220   5.797   9.113  0.0211 -0.3407  0.0199
 1433W        W 5484   4.053   0.885  11.287 -0.1114  0.0618  0.2031
 1434W        W 5485  10.210   7.548   3.185 -0.1900 -0.3351 -0.2845
 1435W        W 5486   7.872   7.154   9.527 -0.3882  0.2223 -0.3026
 1436W        W 5487   4.683   5.009   4.878 -0.4179 -0.1764  0.0004
 1437W        W 5488   9.829  10.208  11.865  0.1987  0.3256  0.0760
 1438W        W 5489   3.451   8.673   2.838 -0.2224  0.1281  0.0973
 1439W        W 5490   1.991   3.755   0.158 -0.0246  0.0592  0.1324
 1440W        W 5491   4.399   3.692  10.058  0.0803  0.1034 -0.2527
 1441W        W 5492   1.312   7.909   4.642 -0.1585 -0.1289  0.1538
 1442W        W 5493   7.879   4.826   2.021 -0.2065 -0.0156  0.2674
 1443W        W 5494   9.212   3.649  10.723 -0.2015 -0.1336 -0.2041
 1444W        W 5495  10.136   9.607   4.760  0.0572  0.1672 -0.1921
 1445W        W 5496   8.610   9.014  13.754 -0.1218  0.0191 -0.1022
 1446W        W 5497   5.005   3.278   8.630 -0.1430  0.1549  0.1748
 1447W        W 5498   2.297  10.050   1.038  0.0528  0.0129 -0.0347
 1448W        W 5499   0.176   6.594   4.028 -0.0876 -0.0348 -0.2297
 1449W        W 5500   6.126  10.179  10.842  0.4400 -0.0678  0.1511
 1450W        W 5501   6.873   5.066  12.958  0.0937  0.1004  0.0755
 1451W        W 5502   5.277   3.680   1.616 -0.1125  0.2339  0.0764
 1452W        W 5503   0.629   5.197   1.282 -0.1989 -0.2756 -0.0934
 1453W        W 5504   9.702   2.029  13.860  0.2312  0.1360  0.0473
 1454W        W 5505   0.838   7.709   0.958  0.3866  0.0060 -0.2744
 1455W        W 5506   9.439   8.094   2.113 -0.2398 -0.1451  0.2060
 1456W        W 5507   9.257   9.634  12.467 -0.2479 -0.4614 -0.1904
 1457W        W 5508   2.153   3.252  11.544  0.1509 -0.2854  0.1502
 1458W        W 5509   9.575   5.894  11.529  0.1548 -0.0286 -0.1167
 1459W        W 5510   5.760   0.573  11.913  0.1201  0.1065  0.1928
 1460W        W 5511   4.058   6.171  11.152 -0.1209  0.0359 -0.0433
 1461W        W 5512   2.622   4.213   9.670 -0.4412 -0.0341 -0.0979
 1462W        W 5513   8.638   1.341  10.140  0.0505  0.1854  0.0619
 1463W        W 5514   1.229   7.868  11.089  0.2537 -0.3111  0.3204
 1464W        W 5515   9.816   7.107   0.124  0.0637  0.1018 -0.3906
 1465W        W 5516   0.274   3.326  11.254  0.0903  0.0693 -0.0593
 1466W        W 5517   4.731   5.095  13.523  0.3022 -0.1945  0.2578
 1467W        W 5518   0.268   2.834   4.724  0.0854  0.2629 -0.0797
 1468W        W 5519   4.135   5.335  10.104  0.0743 -0.2620  0.1881
 1469W        W 5520   7.791   8.789   2.521  0.0527  0.1517 -0.0969
 1470W        W 5521   4.773   1.372   0.621 -0.0358  0.0630  0.0778
 1471W        W 5522   6.946   2.034  12.048  0.0378 -0.0213  0.0337
 1472W        W 5523  10.054   3.674   9.389 -0.1458  0.0078 -0.3476
 1473W        W 5524   1.462   6.215  13.213 -0.2396 -0.1491  0.1189
 1474W        W 5525   1.922   4.406   9.725  0.2911  0.3229 -0.0389
 1475W        W 5526   2.553   3.566   1.131  0.1679  0.1906 -0.0620
 1476W        W 5527   2.566   3.625   5.257  0.1315 -0.0098  0.6903
 1477W        W 5528   5.594   1.605  11.733  0.0387 -0.1742 -0.1245
 1478W        W 5529   7.286   7.490  13.835  0.2043 -0.1670  0.0460
 1479W        W 5530   0.722   7.786   3.960 -0.0997 -0.0205 -0.0344
 1480W        W 5531   6.870   4.882   0.099 -0.2314  0.1857  0.0544
 1481W        W 5532   8.309   3.767   9.718 -0.1497 -0.2107 -0.0704
 1482W        W 5533   5.359  10.135   0.176  0.4386  0.2709  0.0967
 1483W        W 5534   3.556   3.360   8.895 -0.0029  0.2054 -0.0497
 1484W        W 5535   0.230   7.129  12.428 -0.4605 -0.2473 -0.5307
 1485W        W 5536   6.877   8.375   3.003 -0.2776 -0.1410 -0.1519
 1486W        W 5537   3.289   8.251  12.083 -0.0637 -0.0844 -0.1890
 1487W        W 5538   3.372   1.228   8.751  0.4161 -0.1147  0.2792
 1488W        W 5539   6.772   5.917   1.721  0.0396 -0.1539 -0.2449
 1489W        W 5540   1.052   3.915  12.645 -0.1267  0.1053  0.3566
 1490W        W 5541   2.227   8.263   3.420  0.0213 -0.0538 -0.0197
 1491W        W 5542   2.546  10.122   1.969 -0.0979  0.1699 -0.1463
 1492W        W 5543   5.139   3.211   9.298  0.1399 -0.1873 -0.0639
 1493W        W 5544   3.447   2.516   1.478 -0.0322 -0.3325 -0.0464
 1494W        W 5545   5.000   0.132  10.549 -0.2312  0.4865 -0.1843
 1495W        W 5546  10.111   5.158  12.699  0.1714 -0.1986 -0.1599
 1496W        W 5547   2.833   5.874   9.343  0.1740  0.0652 -0.2511
 1497W        W 5548   2.827   4.875   2.681 -0.0427  0.1981  0.1321
 1498W        W 5549   7.930   5.622  12.410 -0.0430  0.2133  0.0893
 1499W        W 5550   5.725   7.858   2.734  0.0856 -0.2141  0.3252
 1500W        W 5551   6.069   3.202   2.960 -0.0001 -0.1463  0.1586
 1501W        W 5552   3.408   1.014   3.184 -0.0598  0.2477  0.1422
 1502W        W 5553   0.886   5.100   3.926  0.1392  0.0332  0.0586
 1503W        W 5554   0.090   0.999  10.265  0.0920  0.0483 -0.0247
 1504W        W 5555   0.326   9.706   0.359  0.0644  0.0364 -0.0410
 1505W        W 5556   6.094   4.385  11.701 -0.2212 -0.0433 -0.0906
 1506W        W 5557  10.150   4.306  11.175  0.0670  0.0316 -0.0887
 1507W        W 5558   5.146   6.650  11.674 -0.2664  0.1247  0.0287
 1508W        W 5559   0.563   5.574   2.951 -0.0582  0.0296  0.2055
 1509W        W 5560   1.820   6.373  12.898  0.0227  0.1243 -0.0591
 1510W        W 5561   9.053   4.421   4.473  0.3060  0.1110 -0.1229
 1511W        W 5562   9.759   0.969   4.162 -0.0350 -0.0047 -0.2112
 1512W        W 5563   1.854   6.364   2.649 -0.4622  0.0966  0.1081
 1513W        W 5564   3.926   9.917   1.522  0.0208 -0.1594 -0.1082
 1514W        W 5565   5.697   1.070  11.066 -0.1575  0.3099  0.3431
 1515W        W 5566   4.036   2.220   9.315  0.0366  0.1454 -0.4010
 1516W        W 5567   9.752   9.521   3.148 -0.3733  0.0197 -0.1879
 1517W        W 5568   9.994   4.013   0.097 -0.0086 -0.0920  0.2311
 1518W        W 5569   7.108   7.519   1.345 -0.0391  0.0539 -0.1777
 1519W        W 5570   0.105   6.239  12.536 -0.2958 -0.1814  0.0961
 1520W        W 5571   7.221   7.865  11.904  0.0114  0.1192 -0.2023
 1521W        W 5572   5.233   3.087  12.069 -0.3350  0.0047  0.4619
 1522W        W 5573   8.036   6.512   3.826  0.1152 -0.1232 -0.1996
 1523W        W 5574   8.347   4.381  12.693 -0.3818 -0.2603 -0.1038
 1524W        W 5575   0.192   6.445   1.105  0.3089  0.0984  0.0466
 1525W        W 5576   4.327   2.664   3.285  0.0063  0.2710  0.1297
 1526W        W 5577   1.513   7.012   1.337 -0.0140 -0.0028  0.0096
 1527W        W 5578   6.037   3.249  12.638  0.1028 -0.0018 -0.1977
 1528W        W 5579   9.689   4.179  13.513 -0.0984  0.0926 -0.0259
 1529W        W 5580   6.255   5.579   2.797 -0.3383  0.3194  0.0399
 1530W        W 5581   2.421   5.144   9.891 -0.3327 -0.0680  0.1094
 1531W        W 5582   4.330   1.189   0.904  0.2047  0.0156 -0.1707
 1532W        W 5583   9.453   5.547   3.343  0.0871  0.0066  0.2090
 1533W        W 5584   7.503   7.256   0.978 -0.1785 -0.1072 -0.2049
 1534W        W 5585   8.871   0.895  10.327  0.1947  0.1467  0.0051
 1535W        W 5586   2.069   4.217   8.450 -0.0187  0.3953 -0.2828
 1536W        W 5587   2.635   2.627  13.718 -0.1581  0.0830  0.3192
 1537W        W 5588   3.461   2.912   3.892 -0.0726  0.0928 -0.0013
 1538W        W 5589   9.584   3.075   0.016 -0.1697  0.0644  0.3057
 1539W        W 5590   6.004   6.528  11.716 -0.0767  0.1006  0.1763
 1540W        W 5591   9.145  10.138   3.604  0.0853 -0.0147 -0.1047
 1541W        W 5592   7.602   8.475  11.354 -0.1940 -0.2549 -0.2365
 1542W        W 5593   9.156   9.402   9.829  0.2442 -0.1478  0.0832
 1543W        W 5594   8.172   8.045   9.481 -0.1884  0.0863 -0.0384
 1544W        W 5595   7.507   7.278   4.131  0.4403 -0.0112  0.0968
 1545W        W 5596   3.673   8.526   1.762 -0.0175  0.0561 -0.0089
 1546W        W 5597   7.943   3.044   4.173 -0.0849 -0.1333 -0.0755
 1547W        W 5598   3.426   3.315  10.743 -0.2280 -0.1263 -0.0781
 1548W        W 5599   8.564   2.903   8.127 -0.0948  0.0937 -0.0566
 1549W        W 5600   9.096   6.406   9.280 -0.1991 -0.1494 -0.0011
 1550W        W 5601   0.637  10.193  11.647  0.0121  0.1964 -0.1990
 1551W        W 5602   9.136   6.911  11.047  0.1046 -0.2860  0.0813
 1552W        W 5603  10.100   1.334   9.941  0.0561 -0.4566 -0.1644
 1553W        W 5604   9.849   6.773   3.303 -0.1635  0.0220  0.2673
 1554W        W 5605   7.691   1.053  10.028 -0.1854  0.0162 -0.2113
 1555W        W 5606   6.832   7.764   9.347 -0.2885  0.0692  0.1267
 1556W        W 5607   0.853   7.530  13.197 -0.0161  0.2483 -0.0553
 1557W        W 5608  10.035   0.834   9.820 -0.0818  0.1107 -0.0395
 1558W        W 5609   2.832   7.191   9.591 -0.3884  0.5371 -0.3566
 1559W        W 5610   4.113   3.209   2.630  0.0726  0.1193 -0.2117
 1560W        W 5611   2.671   3.135  13.431 -0.0163 -0.0433  0.4249
 1561W        W 5612   1.499   7.295   9.221 -0.0150 -0.2422  0.1484
 1562W        W 5613   6.228   0.685   2.103  0.1982  0.0303 -0.1915
 1563W        W 5614   0.200   8.852  12.443  0.0998 -0.3267 -0.0580
 1564W        W 5615   9.087   6.239  13.747  0.1654 -0.2837  0.1240
 1565W        W 5616   5.260   9.028  10.269  0.0609 -0.1289  0.1696
 1566W        W 5617   1.984   8.981  13.779 -0.0460 -0.0513  0.1910
 1567W        W 5618   8.778   3.766  11.965  0.1937 -0.2396  0.2464
 1568W        W 5619   7.070   4.647  10.214 -0.1331 -0.0795 -0.2659
 1569W        W 5620   1.945   9.471   2.636 -0.2147 -0.1417  0.2528
 1570W        W 5621   9.712   4.940  10.952  0.0081 -0.1680 -0.0909
 1571W        W 5622   6.884   1.652   9.636 -0.0034  0.0081 -0.0210
 1572W        W 5623   0.210   5.425   1.495 -0.2153 -0.1152  0.4305
 1573W        W 5624   0.696   2.219  10.235 -0.1269  0.2228 -0.0909
 1574W        W 5625   0.511   4.563   4.342 -0.1606  0.1377  0.1869
 1575W        W 5626   5.865  10.181  10.294  0.0893 -0.0734 -0.0718
 1576W        W 5627   9.619   4.194   0.906 -0.0621 -0.2152  0.1208
 1577W        W 5628   8.349   9.538   4.378  0.2057 -0.2313  0.3380
 1578W        W 5629   9.160  10.112   0.792  0.0213 -0.3518 -0.1949
 1579W        W 5630   3.057   4.365  13.100 -0.0606 -0.0709 -0.2687
 1580W        W 5631   7.562   6.372  10.200  0.0238  0.2534 -0.2441
 1581W        W 5632   4.204   9.873   3.098 -0.1599  0.0539  0.1632
 1582W        W 5633   2.907   0.412   2.034  0.0302 -0.0285  0.0190
 1583W        W 5634   7.345   1.935  13.857  0.1625 -0.1424  0.1554
 1584W        W 5635   6.737   9.191  10.663  0.0147  0.0393 -0.1840
 1585W        W 5636   7.577   4.595   9.538  0.4486  0.0082 -0.1650
 1586W        W 5637   0.262   9.352   5.033 -0.0808 -0.1461  0.0164
 1587W        W 5638   1.178   1.019   3.823 -0.1447 -0.0331  0.0654
 1588W        W 5639   9.005   1.740   3.307 -0.1211 -0.1359 -0.1262
 1589W        W 5640   7.575   0.027  12.393 -0.0117 -0.2504 -0.0994
 1590W        W 5641   2.410   3.644   4.239 -0.0056 -0.0413  0.2183
 1591W        W 5642   8.696   5.324  12.349 -0.0528 -0.0578 -0.2469
 1592W        W 5643   9.488   9.664   2.015  0.0424 -0.2535 -0.0057
 1593W        W 5644   6.320   6.871   1.564  0.2066  0.3926 -0.0906
 1594W        W 5645   4.739   3.191   3.735  0.3465 -0.3295  0.2135
 1595W        W 5646   9.104   8.952  10.468 -0.0270  0.1989  0.0392
 1596W        W 5647   4.274   0.701   2.495  0.0904  0.0126 -0.0734
 1597W        W 5648   3.200   3.640   9.188 -0.1549  0.1057  0.1619
 1598W        W 5649  10.191   4.549  12.901 -0.1589  0.0186  0.0207
 1599W        W 5650   4.555   8.995  11.553  0.0782 -0.0246  0.0484
 1600W        W 5651   5.982   2.850   3.430  0.0755  0.0267  0.0707
 1601W        W 5652   1.326   5.932  12.323 -0.3295 -0.2575  0.4451
 1602W        W 5653   9.506   6.946   3.662  0.1331 -0.1136  0.0211
 1603W        W 5654   9.549   8.334   5.243 -0.0174  0.0742 -0.1737
 1604W        W 5655   0.734   2.570  12.019 -0.1206 -0.1799 -0.5640
 1605W        W 5656   2.336   8.755   1.512 -0.4210 -0.2270  0.2518
 1606W        W 5657   7.384   2.244   3.711  0.1044  0.3517 -0.4835
 1607W        W 5658   0.250   0.363   8.849  0.1200 -0.0397  0.0718
 1608W        W 5659   4.930   1.811  10.101  0.0043  0.2362  0.0770
 1609W        W 5660   5.061   0.620   0.035  0.0067 -0.1673  0.0499
 1610W        W 5661   0.167   1.918   8.466 -0.0045  0.0433 -0.0505
 1611W        W 5662   7.860   5.041   4.563 -0.2637  0.2760 -0.0835
 1612W        W 5663   6.623   4.408   5.115 -0.0853 -0.2229 -0.2984
 1613W        W 5664   9.137   8.454  11.063 -0.2794 -0.0592  0.1395
 1614W        W 5665   4.892   2.827  12.439 -0.1523  0.1268  0.0228
 1615W        W 5666   1.469   4.827  13.744 -0.2405 -0.1087  0.3594
 1616W        W 5667   7.345   2.287  12.878  0.0996  0.1237  0.0481
 1617W        W 5668   7.924   5.360   9.909 -0.4641  0.0149 -0.1616
 1618W        W 5669   5.248   6.373  13.076  0.3870 -0.0397  0.1086
 1619W        W 5670   1.028   0.352   0.855  0.1463 -0.0403 -0.0502
 1620W        W 5671   5.048   3.220  11.618  0.5063 -0.1381 -0.2530
 1621W        W 5672   0.440   3.995  11.286 -0.1406  0.1695  0.1371
 1622W        W 5673   8.387   2.170   9.479  0.1855  0.4216  0.0676
 1623W        W 5674   0.569   0.505  13.431 -0.1813 -0.1681  0.3321
 1624W        W 5675   3.423   8.864   1.309 -0.2061  0.0027 -0.1647
 1625W        W 5676   5.008   6.676  13.498  0.0076 -0.3366  0.2196
 1626W        W 5677   9.138   4.949   0.804  0.0308 -0.3145 -0.1839
 1627W        W 5678  10.047   1.067  12.823  0.0097  0.1883 -0.0270
 1628W        W 5679   1.950   9.766   0.298 -0.2312 -0.1605 -0.4651
 1629W        W 5680   4.366   0.239   2.490  0.1039  0.0536  0.1947
 1630W        W 5681   4.480   2.109   9.960 -0.1024  0.0009  0.4087
 1631W        W 5682   5.518   2.514  12.874  0.0338  0.1608  0.0541
 1632W        W 5683   9.125   8.775  13.770  0.0861  0.1019  0.2101
 1633W        W 5684   3.680   0.571  11.507 -0.0446  0.1286 -0.0838
 1634W        W 5685   4.317   7.497  11.782  0.1493  0.1932 -0.0919
 1635W        W 5686   3.432   6.040   0.002  0.2838  0.0069  0.0300
 1636W        W 5687   0.609   5.074   9.929 -0.0168 -0.1186  0.0481
 1637W        W 5688   7.051   6.918   1.705 -0.2244 -0.1426 -0.1190
 1638W        W 5689   3.845   5.062   3.154 -0.3300  0.1443 -0.1450
 1639W        W 5690   8.953   1.709   8.736  0.3214  0.1431  0.0347
 1640W        W 5691   8.630  10.190   9.780 -0.0056  0.4406 -0.1908
 1641W        W 5692   3.486   4.978   4.331  0.1576 -0.2541  0.0196
 1642W        W 5693   1.222   7.911   4.024  0.1028 -0.1657 -0.1194
 1643W        W 5694  10.028   2.587  11.278 -0.3257 -0.1493 -0.0643
 1644W        W 5695   1.405   7.799   0.965  0.0566 -0.1393 -0.1112
 1645W        W 5696   1.897   9.693  12.200  0.0423 -0.0821  0.1198
 1646W        W 5697   7.310   7.651  10.286  0.0114  0.1771 -0.0169
 1647W        W 5698   0.677   4.705   2.664  0.1766  0.1746 -0.0074
 1648W        W 5699   4.055   2.390   9.763 -0.1249 -0.1572  0.2101
 1649W        W 5700   7.007   2.718  11.411  0.0932  0.0648 -0.0666
 1650W        W 5701   5.963   4.486  12.534 -0.2265 -0.3626 -0.0609
 1651W        W 5702   5.144   5.163  10.694  0.0529  0.2167 -0.0978
 1652W        W 5703  10.214   5.120  13.286 -0.3024  0.1384 -0.0433
 1653W        W 5704   0.883   2.253   5.329 -0.0062 -0.1533 -0.2952
 1654W        W 5705   3.815   8.344  10.390 -0.2945 -0.4141  0.0710
 1655W        W 5706   3.609   4.588   3.066 -0.3836 -0.0665  0.0142
 1656W        W 5707   0.200   7.925  13.561 -0.1627 -0.1387 -0.1759
 1657W        W 5708   6.116   8.714   9.880 -0.1134  0.0563  0.1838
 1658W        W 5709   3.088   0.668  11.900  0.0340 -0.0131 -0.1598
 1659W        W 5710   0.521   8.889  12.022 -0.0499 -0.1214  0.0066
 1660W        W 5711   1.786   1.531   3.313 -0.0339  0.2221 -0.2164
 1661W        W 5712   9.418   4.771   4.385  0.3497  0.0831 -0.0748
 1662W        W 5713   9.376   3.649  11.647  0.1709 -0.0344  0.0724
 1663W        W 5714   0.803   9.549  10.346  0.2791 -0.1487  0.0210
 1664W        W 5715   4.812   3.668   9.488 -0.0407  0.2222  0.1357
 1665W        W 5716   5.409   8.694  12.326  0.1275  0.0892  0.0912
 1666W        W 5717   3.077   4.146   3.611 -0.3899 -0.2004  0.0090
 1667W        W 5718   7.918   8.359  13.550  0.2358 -0.1543 -0.2769
 1668W        W 5719   6.790   3.678  12.404 -0.0334 -0.0602  0.2474
 1669W        W 5720   8.700   7.982   0.049 -0.3807 -0.3734  0.1794
 1670W        W 5721   3.817   6.660  12.983 -0.1284  0.1291 -0.0301
 1671W        W 5722   7.305   7.584  12.527  0.1125  0.2151  0.1913
 1672W        W 5723   5.647   1.795   2.318  0.1505  0.0790 -0.0740
 1673W        W 5724   2.048   2.416  12.263  0.0757 -0.2708  0.0990
 1674W        W 5725   9.265   3.442   2.916  0.1331 -0.0700 -0.0186
 1675W        W 5726   0.546   7.862   1.829 -0.1180  0.0462 -0.2221
 1676W        W 5727   7.487   7.473  11.724 -0.4563  0.3349 -0.2404
 1677W        W 5728   1.469   6.771  12.903  0.2297  0.1965  0.1347
 1678W        W 5729   2.918   7.291  12.357 -0.0538  0.0507  0.1403
 1679W        W 5730   1.592   5.076   0.592  0.1219 -0.0994  0.0721
 1680W        W 5731   9.848   9.261   5.781  0.1108 -0.0320 -0.0142
 1681W        W 5732   6.524   1.799  13.277  0.1421  0.0005  0.2421
 1682W        W 5733   3.118   9.035  10.964 -0.3320  0.1837 -0.2217
 1683W        W 5734   3.482   9.635   1.399 -0.1320  0.0198 -0.2590
 1684W        W 5735   0.077   2.058  10.263  0.0822 -0.1443 -0.2367
 1685W        W 5736   1.435   6.267   3.486 -0.0144  0.0802  0.2269
 1686W        W 5737   4.150   5.333   2.068 -0.0435  0.0120  0.0647
 1687W        W 5738  10.204   7.150  11.720  0.1792 -0.0663  0.0825
 1688W        W 5739   8.530   4.489   2.453 -0.1813  0.2324  0.0591
 1689W        W 5740   7.369   3.808  10.044 -0.3505 -0.1268  0.1363
 1690W        W 5741   4.711   0.970   9.330  0.0784 -0.1107 -0.2596
 1691W        W 5742   7.314  10.217   1.556 -0.1778 -0.1618  0.0177
 1692W        W 5743   8.058   0.247  12.271 -0.1016 -0.0169 -0.1579
 1693W        W 5744   1.990   2.594   2.822 -0.0717 -0.1085 -0.1454
 1694W        W 5745   8.087   0.787   9.954 -0.1262  0.1151  0.2723
 1695W        W 5746   3.610   0.210  11.137  0.2036  0.1457 -0.0978
 1696W        W 5747  10.007   7.059   1.567 -0.0698  0.3144 -0.1855
 1697W        W 5748   0.826   3.195  13.284 -0.0465 -0.0783 -0.1401
 1698W        W 5749   5.022   1.741   1.114  0.0992  0.0529  0.0472
 1699W        W 5750   0.017  10.128  11.007 -0.0652 -0.1280  0.1052
 1700W        W 5751   0.550   7.980   4.443 -0.2313 -0.0809  0.1581
 1701W        W 5752   9.248   1.674   0.834  0.0653  0.0794 -0.1876
 1702W        W 5753   0.759   1.773   1.043 -0.1643 -0.1324  0.1096
 1703W        W 5754   5.972   0.137   3.280 -0.1922  0.0066  0.0630
 1704W        W 5755   1.869   4.876   2.564  0.2103 -0.2805 -0.1642
 1705W        W 5756   6.202   2.102   2.097  0.1041 -0.0127  0.0384
 1706W        W 5757   7.996   9.597   0.683  0.1653  0.0819 -0.1295
 1707W        W 5758   8.245   2.955  13.454  0.1967  0.0388  0.1027
 1708W        W 5759   3.439   8.988   3.239  0.0922  0.1424 -0.0577
 1709W        W 5760   1.616   4.228  10.700  0.1240 -0.2838  0.0008
 1710W        W 5761   3.392   9.021   9.620 -0.1466 -0.4003 -0.0085
 1711W        W 5762   0.666   1.194  11.936 -0.0195 -0.0799 -0.1493
 1712W        W 5763   2.599   1.007  13.165  0.0933 -0.0442 -0.1169
 1713W        W 5764   1.387   6.297  12.696 -0.4954 -0.2387  0.0803
 1714W        W 5765  10.039   3.547  10.396  0.0225 -0.2726 -0.1414
 1715W        W 5766   8.622   8.235  11.440  0.0644 -0.0594 -0.0632
 1716W        W 5767   9.543   1.976   4.691  0.2769  0.1225 -0.0439
 1717W        W 5768   6.952   2.231  12.565 -0.0323 -0.0257 -0.3192
 1718W        W 5769   1.453   6.971   0.780 -0.0694 -0.1903  0.0615
 1719W        W 5770   7.388   9.459   9.943  0.1588  0.0504  0.0186
 1720W        W 5771   5.490   1.248   3.221 -0.6753  0.1317  0.1632
 1721W        W 5772   5.240   3.299   1.308 -0.0779 -0.3017 -0.2897
 1722W        W 5773   6.689   6.354   2.765 -0.0353 -0.3686 -0.3560
 1723W        W 5774   3.363   7.202  12.654 -0.1841 -0.1784 -0.1265
 1724W        W 5775   1.608  10.058  12.385  0.0347  0.3489  0.0032
 1725W        W 5776   3.798   0.133   2.173 -0.1316  0.1340 -0.4124
 1726W        W 5777   9.061   2.565   1.169 -0.0729 -0.4980 -0.1636
 1727W        W 5778   9.091   4.410  12.201  0.0915  0.0350  0.1751
 1728W        W 5779   1.154   9.994  11.623  0.1585 -0.1667  0.1588
 1729W        W 5780   4.728   3.928   1.610  0.0851 -0.4395 -0.0375
 1730W        W 5781   2.729   8.285   3.274  0.1579  0.0163 -0.1899
 1731W        W 5782   9.548   7.656   2.254  0.0540  0.1295 -0.3879
 1732W        W 5783   0.092   4.957  12.272  0.2702  0.1248 -0.0420
 1733W        W 5784   3.408  10.083   3.218  0.0728 -0.1447  0.0817
 1734W        W 5785   3.925   3.549  13.117 -0.0655  0.1056 -0.4777
 1735W        W 5786   9.724   3.337   9.661 -0.0537 -0.0098 -0.0638
 1736W        W 5787   6.315   0.619   0.833 -0.1508 -0.2918 -0.0990
 1737W        W 5788   4.115   5.955   0.697  0.0729 -0.3038 -0.0344
 1738W        W 5789   5.357   2.419  11.533 -0.0887 -0.0615 -0.0731
 1739W        W 5790   8.990   3.361   0.816  0.0207 -0.0641  0.2574
 1740W        W 5791   4.149   4.972  11.752 -0.1065  0.2702  0.3054
 1741W        W 5792   2.667   6.657   1.619  0.3501 -0.4029 -0.1627
 1742W        W 5793   3.269   6.584  10.987 -0.1010  0.0775 -0.1388
 1743W        W 5794   6.348  10.117  13.129  0.2954 -0.0198 -0.0896
 1744W        W 5795   0.960   5.893   2.735  0.0571 -0.0246 -0.2529
 1745W        W 5796   1.051   7.658  12.039  0.3543 -0.0369  0.1325
 1746W        W 5797   2.711   5.330   2.915  0.2356  0.1478 -0.0013
 1747W        W 5798   4.662   1.464   9.221 -0.2559 -0.3684  0.0061
 1748W        W 5799   1.349   9.740   0.128 -0.3464 -0.0539  0.1215
 1749W        W 5800   5.390   4.980  13.441  0.2942  0.2134 -0.0954
 1750W        W 5801   8.356   4.600   3.661 -0.0529  0.1844  0.0748
 1751W        W 5802   4.422   5.691   3.479  0.2344 -0.1229 -0.2061
 1752W        W 5803   4.956   5.645  12.770 -0.1572 -0.2889 -0.1791
 1753W        W 5804   9.226   9.176   0.215  0.1720  0.0679 -0.0962
 1754W        W 5805   8.053   7.517  11.855 -0.0251  0.0232  0.1227
 1755W        W 5806   0.460   2.119   2.662  0.0671 -0.2832 -0.1280
 1756W        W 5807   0.914   8.325   9.731 -0.1642 -0.0238 -0.2082
 1757W        W 5808   9.837   9.700  13.443 -0.0561 -0.0614 -0.1150
 1758W        W 5809   3.055   0.367   0.726  0.0616  0.3167  0.1685
 1759W        W 5810   4.399   2.606  13.118 -0.0430  0.4753  0.0631
 1760W        W 5811   3.081   4.273   5.232  0.1329  0.0605 -0.0874
 1761W        W 5812   0.192   7.542  11.494  0.0115 -0.0979 -0.0098
 1762W        W 5813   5.012   3.579  12.233 -0.2967  0.0397 -0.3508
 1763W        W 5814   7.843   1.566  13.193 -0.2411 -0.3284  0.1294
 1764W        W 5815   4.678   9.587  12.765 -0.2611 -0.1902 -0.2362
 1765W        W 5816   1.696   7.198  13.397 -0.1949 -0.1538  0.1046
 1766W        W 5817   9.417   4.985   0.009 -0.1575  0.0533 -0.0446
 1767W        W 5818   9.403   1.303  10.827 -0.0768 -0.1134  0.1998
 1768W        W 5819   8.629   0.986   0.318 -0.0594  0.2387 -0.0512
 1769W        W 5820   7.100   6.543  13.673  0.0667 -0.2470 -0.0623
 1770W        W 5821   7.286   9.729  12.153  0.4225  0.0629 -0.0242
 1771W        W 5822   8.709   0.026   1.918  0.0749 -0.1750 -0.0630
 1772W        W 5823   6.120   8.212  13.047  0.0667 -0.0556 -0.4748
 1773W        W 5824   7.116   4.391   1.528  0.1586  0.0211  0.4300
 1774W        W 5825   8.791   5.592  11.892 -0.0219 -0.3607 -0.0022
 1775W        W 5826   3.431   1.591   3.528  0.2146 -0.3219  0.0566
 1776W        W 5827   0.045   1.593   0.527 -0.1780  0.0394  0.2389
 1777W        W 5828   6.133   8.926   1.678 -0.2777 -0.1517  0.1743
 1778W        W 5829   9.521   4.007   2.540  0.3023 -0.4487 -0.1221
 1779W        W 5830   2.368   0.438   4.061 -0.2605 -0.3362 -0.1587
 1780W        W 5831   0.718   2.886   4.537 -0.0924  0.0909  0.2682
 1781W        W 5832   8.118   9.301   0.010  0.2278  0.1702 -0.3584
 1782W        W 5833   6.030  10.137  11.326  0.0614  0.1858 -0.0426
 1783W        W 5834   8.928   8.308   9.659  0.0825  0.0048 -0.0783
 1784W        W 5835   4.005   9.936   0.614  0.3169  0.2375 -0.1999
 1785W        W 5836   0.204   5.375   3.278  0.1917 -0.1162 -0.4460
 1786W        W 5837   3.156   2.061   0.519 -0.2439  0.1131  0.5867
 1787W        W 5838   3.317   5.426   8.930 -0.3459  0.3371 -0.0591
 1788W        W 5839   2.572   9.110   3.434  0.1735  0.0650 -0.1625
 1789W        W 5840   6.755   6.873  10.865 -0.4472 -0.0264 -0.0392
 1790W        W 5841   4.684   9.682  10.704  0.3530 -0.2295  0.1145
 1791W        W 5842   2.900   3.852  11.876  0.0173 -0.1849  0.1981
 1792W        W 5843   2.631   4.611  13.108 -0.1643 -0.1724  0.1979
 1793W        W 5844   3.565   6.982   9.220 -0.1782  0.1301 -0.1898
 1794W        W 5845   0.799   2.350   0.628  0.1552 -0.1863 -0.2704
 1795W        W 5846   3.816   1.577   1.648  0.3016  0.4821  0.0684
 1796W        W 5847   3.437   4.112   9.964 -0.3968  0.1134 -0.1971
 1797W        W 5848   2.448   7.804  12.024  0.0747 -0.0609 -0.2076
 1798W        W 5849   0.137   6.441   9.969  0.2870 -0.0943 -0.0283
 1799W        W 5850   2.928   6.718  13.416  0.0677 -0.0171 -0.0284
 1800W        W 5851   0.978   4.266  12.978  0.0644 -0.3085  0.1547
 1801W        W 5852   0.451   8.699   3.970  0.1978  0.1677 -0.0946
 1802W        W 5853   7.588   6.334   1.274  0.1209 -0.0033 -0.1303
 1803W        W 5854   9.906   0.161  10.040  0.0008 -0.2553  0.0121
 1804W        W 5855   3.611   4.488   9.647  0.1257  0.0366 -0.2169
 1805W        W 5856   4.557   2.271   0.195 -0.0464 -0.2142 -0.2477
 1806W        W 5857   1.486   4.612   1.332 -0.0395 -0.3715  0.0939
 1807W        W 5858   0.212   4.570   0.897 -0.4510 -0.6169  0.0972
 1808W        W 5859   3.265   2.177   9.156  0.0177 -0.1553 -0.1178
 1809W        W 5860   2.567   2.914   0.550  0.0313 -0.2428  0.0023
 1810W        W 5861   1.009   2.111  11.204 -0.0119 -0.1559 -0.0955
 1811W        W 5862   2.614   1.528   9.325 -0.1482 -0.1607  0.2732
 1812W        W 5863   7.060   6.097   0.705  0.0956  0.1073 -0.0513
 1813W        W 5864   0.309   4.529   1.901 -0.0140 -0.1345  0.0540
 1814W        W 5865   9.614   4.937  11.464  0.0503  0.0315 -0.2257
 1815W        W 5866   9.794   4.968   2.137  0.2598  0.0491  0.2607
 1816W        W 5867   8.711   8.905   5.375  0.2199  0.0775  0.0626
 1817W        W 5868   1.621   2.549   9.365  0.3991  0.0260 -0.1954
 1818W        W 5869   3.039   0.223   2.988 -0.3017  0.1822 -0.1472
 1819W        W 5870   2.473   8.479   9.507 -0.0229 -0.1805  0.1868
 1820W        W 5871   0.758   0.050  10.796  0.1055 -0.4044 -0.1272
 1821W        W 5872   3.519   6.866  13.401 -0.3377 -0.0101  0.1067
 1822W        W 5873   8.716   1.679   2.860 -0.1896 -0.1390 -0.2835
 1823W        W 5874   9.233   6.803   0.760 -0.1586  0.0938 -0.1431
 1824W        W 5875   7.106   8.610   3.403 -0.1523 -0.0414  0.1293
 1825W        W 5876   5.596   3.814   0.333 -0.0038  0.1877 -0.2557
 1826W        W 5877   6.834   9.147  12.299  0.1125  0.2866  0.1847
 1827W        W 5878   2.210   6.865   0.107 -0.1304  0.0430  0.2331
 1828W        W 5879   4.665   8.013  10.789  0.4868  0.1220 -0.1090
 1829W        W 5880   9.920   2.506   2.024 -0.0495  0.0573  0.1070
 1830W        W 5881   2.561   3.479   9.902  0.1494 -0.0992 -0.1706
 1831W        W 5882   2.527   8.099   9.155 -0.1011 -0.0664 -0.2114
 1832W        W 5883   9.849   2.739   2.996 -0.0907 -0.1788 -0.1324
 1833W        W 5884   9.465   8.177  12.340 -0.0671  0.0194  0.0732
 1834W        W 5885   4.478   5.995   1.570 -0.2692  0.1976 -0.0710
 1835W        W 5886   1.994   2.587   1.057  0.1302 -0.2465 -0.5070
 1836W        W 5887   2.776   9.756   8.999 -0.0379 -0.2696  0.0446
 1837W        W 5888   7.094   6.043  12.864  0.1270  0.1715  0.1290
 1838W        W 5889   1.848   0.373   9.489 -0.1755  0.0892 -0.2208
 1839W        W 5890   4.260   8.910  11.101 -0.0754 -0.1150 -0.0040
 1840W        W 5891   5.542   8.059   0.014  0.0157 -0.4429 -0.2006
 1841W        W 5892   7.391   3.079  11.087  0.0803  0.0146 -0.0180
 1842W        W 5893  10.052   7.181   2.924 -0.1156  0.0558 -0.0390
 1843W        W 5894   7.361   7.882   0.324 -0.1396  0.1692  0.1276
 1844W        W 5895   4.899   2.315  10.160  0.1725 -0.2248  0.2447
 1845W        W 5896   8.575   5.452  10.544 -0.2102  0.0258  0.0590
 1846W        W 5897   0.749   6.978  13.415 -0.2307 -0.5019  0.0827
 1847W        W 5898   1.363   8.837   0.522 -0.0960 -0.1009  0.1829
 1848W        W 5899   5.991   4.650   0.307  0.1423  0.1447  0.3680
 1849W        W 5900   3.592   2.117   2.685  0.0474  0.1294  0.0846
 1850W        W 5901   2.102   7.496  10.938 -0.0350 -0.1348 -0.2691
 1851W        W 5902   7.473   7.104   2.965  0.0203  0.0231 -0.0592
 1852W        W 5903   2.287   0.981   1.675  0.0429  0.2425 -0.1069
 1853W        W 5904   2.710   4.672   5.219  0.0322  0.2230 -0.0939
 1854W        W 5905   4.434   0.468   0.047  0.0496  0.0153  0.1840
 1855W        W 5906   2.737   8.966  10.314  0.1457 -0.1596  0.0098
 1856W        W 5907   0.677   4.837   0.835 -0.0175  0.1237  0.1775
 1857W        W 5908   5.830   1.900  12.064 -0.0289 -0.5379 -0.0141
 1858W        W 5909   0.857   3.180  13.794  0.2424 -0.0054 -0.2092
 1859W        W 5910   6.139   2.518   9.989  0.1741  0.1047 -0.1557
 1860W        W 5911   0.161   5.740  10.982 -0.3311 -0.1639 -0.1751
 1861W        W 5912   3.536   6.056  12.227 -0.1480 -0.1518 -0.1980
 1862W        W 5913   8.961   9.458   0.657 -0.2413  0.2219 -0.0495
 1863W        W 5914   6.931   2.000  13.534  0.2117  0.0673 -0.2154
 1864W        W 5915   8.452   4.207   9.476 -0.0932  0.3373  0.0346
 1865W        W 5916   4.206   1.422  13.771  0.2185  0.3081 -0.0496
 1866W        W 5917  10.031   5.729   3.144  0.4237  0.0994  0.1606
 1867W        W 5918   6.546   2.290   9.903 -0.1956  0.1366 -0.0079
 1868W        W 5919   5.408   3.473  10.786 -0.0583 -0.2210 -0.5665
 1869W        W 5920   3.124   7.909   3.188  0.2591  0.0878  0.0273
 1870W        W 5921   2.964   5.845   4.450  0.2090 -0.0609  0.0327
 1871W        W 5922   1.945   0.357   3.828  0.3077 -0.1731  0.1108
 1872W        W 5923   8.054   0.680   2.889 -0.2955 -0.2088 -0.2227
 1873W        W 5924   3.145   6.013  11.226 -0.1510  0.0908 -0.2124
 1874W        W 5925   7.048   4.010  10.991  0.1966  0.0028 -0.2486
 1875W        W 5926   6.617   1.587   1.961  0.0959  0.1378 -0.1402
 1876W        W 5927   9.776   4.688   4.780  0.2589 -0.3038 -0.1378
 1877W        W 5928   4.746   7.214  13.078 -0.0820  0.4373  0.1030
 1878W        W 5929   1.485   0.576   4.549 -0.4370 -0.2718  0.0654
 1879W        W 5930   1.335   0.520   2.141  0.1791 -0.0880  0.0122
 1880W        W 5931   4.137   4.243   4.586 -0.2334  0.2771 -0.1612
 1881W        W 5932   8.852   2.803  10.343  0.0400  0.1774 -0.3471
 1882W        W 5933   6.555   5.901  10.040 -0.0313  0.1531 -0.2117
 1883W        W 5934   2.756   3.688  10.895  0.0286  0.1048  0.0309
 1884W        W 5935   4.693   0.756   9.808  0.1782  0.0817  0.0010
 1885W        W 5936   3.966   1.787  12.411  0.0997  0.1135  0.0033
 1886W        W 5937   3.829   5.566  12.817  0.0381 -0.0036  0.2324
 1887W        W 5938   3.449   8.689  11.092 -0.0713  0.0308  0.0204
 1888W        W 5939   3.001   6.141  11.676  0.3019 -0.1475 -0.2120
 1889W        W 5940   0.406   6.226   2.226  0.0196  0.4407  0.0812
 1890W        W 5941   7.281   2.825  13.327  0.0506 -0.0487 -0.1820
 1891W        W 5942   8.838   5.570   2.824 -0.2830  0.0287 -0.1468
 1892W        W 5943   4.092   5.797   1.862 -0.1010  0.2100 -0.1866
 1893W        W 5944   2.888   7.324  10.818  0.1584  0.1545 -0.0451
 1894W        W 5945   3.801   0.159   3.685  0.1752 -0.0773  0.2103
 1895W        W 5946   2.996   5.243   0.069  0.1130  0.0754 -0.1858
 1896W        W 5947   4.609   3.892   3.676  0.1287 -0.1052  0.1754
 1897W        W 5948   0.582   4.110  12.616 -0.1423 -0.0925  0.1220
 1898W        W 5949  10.003   9.271  13.701  0.1943 -0.0095  0.0254
 1899W        W 5950   6.477   2.791   3.705 -0.2472 -0.0065 -0.0124
 1900W        W 5951   2.560   5.324   0.458 -0.1206  0.1705  0.2808
 1901W        W 5952   9.829   6.459   0.813  0.1013  0.0389  0.0178
 1902W        W 5953   5.776   5.440  11.108  0.2686  0.2091  0.0398
 1903W        W 5954   6.936   4.622   3.178  0.0794  0.1585 -0.1682
 1904W        W 5955   5.256   7.719  12.603  0.2364 -0.1648  0.2264
 1905W        W 5956   9.920   9.762   3.961  0.0640 -0.1293 -0.2038
 1906W        W 5957   1.553   5.834  12.836 -0.0476  0.0056 -0.0550
 1907W        W 5958   3.619   3.120  11.214  0.0635  0.0557 -0.0261
 1908W        W 5959   9.068   0.277   1.160  0.1038 -0.0633  0.0105
 1909W        W 5960   0.023   9.046   2.097 -0.2067 -0.0721 -0.0687
 1910W        W 5961   7.799   0.950   4.096  0.3097 -0.0159  0.0304
 1911W        W 5962   9.301   7.420   4.286  0.4084 -0.0607  0.0508
 1912W        W 5963   6.396   9.454  11.901 -0.0865 -0.0442 -0.0659
 1913W        W 5964   4.415   6.409   2.759 -0.4306  0.0755 -0.2371
 1914W        W 5965   6.403   1.882   4.686  0.3162 -0.1394 -0.2805
 1915W        W 5966   7.124   6.597   9.131  0.0695  0.0943  0.1495
 1916W        W 5967   7.731   0.653  12.023 -0.2057 -0.2982  0.2552
 1917W        W 5968   1.226   4.534  11.876  0.0490 -0.2508 -0.0999
 1918W        W 5969   1.603   4.139   1.236 -0.3324 -0.1247 -0.3110
 1919W        W 5970   9.523   9.556   4.267 -0.1386  0.0217 -0.0792
 1920W        W 5971   5.454   4.731  10.608 -0.1376  0.3094  0.1391
 1921W        W 5972   4.294  10.082   2.161  0.2049  0.1469  0.1664
 1922W        W 5973   3.286   8.272   0.553 -0.0110  0.2451  0.0307
 1923W        W 5974   2.505   4.765  10.871 -0.1662 -0.1752 -0.0207
 1924W        W 5975   8.977   8.011   1.676 -0.0285 -0.1652 -0.0102
 1925W        W 5976   9.260   9.793   2.443  0.5199  0.1010 -0.0665
 1926W        W 5977   1.294   6.450   1.935  0.0221 -0.1324  0.1981
 1927W        W 5978   7.818   4.378   3.777 -0.2265  0.0984 -0.1594
 1928W        W 5979   9.470   5.346   5.669  0.0370 -0.0207 -0.0455
 1929W        W 5980   8.201   5.273   2.076  0.3091  0.2953 -0.0439
 1930W        W 5981   8.465   7.394  10.266 -0.0561  0.2823 -0.2543
 1931W        W 5982   9.401   7.493  10.013  0.2895  0.1906  0.1376
 1932W        W 5983   4.146   4.430  12.797  0.1592 -0.0182 -0.0399
 1933W        W 5984   1.991   7.812  13.195  0.2568  0.0423 -0.1764
 1934W        W 5985   4.395   5.544  11.593  0.0306  0.0995 -0.2538
 1935W        W 5986   9.971   6.563   1.866 -0.0646 -0.1863 -0.0802
 1936W        W 5987   0.603   6.407  10.011  0.1416  0.0794 -0.3303
 1937W        W 5988   6.157   7.091   3.856 -0.2004 -0.1326  0.1556
 1938W        W 5989   0.491   0.576   0.571  0.1711 -0.1310  0.1358
 1939W        W 5990   0.794   1.126   9.622 -0.0983  0.3408  0.0610
 1940W        W 5991  10.000   5.216   1.259 -0.1427  0.2123 -0.0415
 1941W        W 5992  10.140   8.583  13.610  0.1635  0.1472  0.0191
 1942W        W 5993   8.220   5.956   3.850 -0.1897 -0.3876 -0.0435
 1943W        W 5994   2.629   0.401  11.798  0.1474 -0.0952  0.0924
 1944W        W 5995   9.065   0.019  13.680  0.0831  0.0934  0.0222
 1945W        W 5996   6.659   0.750   1.741 -0.0224  0.0490  0.0090
 1946W        W 5997   2.864   0.261   3.759 -0.1469 -0.1723  0.1584
 1947W        W 5998   2.827   8.705   0.336 -0.1102 -0.0178  0.0325
 1948W        W 5999   6.029   7.818  10.663  0.1227 -0.0545  0.0273
 1949W        W 6000   6.749   5.918   2.629 -0.1396  0.0255  0.0653
 1950W        W 6001   3.209   4.081   1.413 -0.1042  0.3002 -0.2865
 1951W        W 6002   5.253   1.357   0.750 -0.4299 -0.0058 -0.3106
 1952W        W 6003   0.838   0.595   1.978 -0.0246  0.0426  0.2881
 1953W        W 6004   8.412   4.717   9.667 -0.2593 -0.0268  0.1288
 1954W        W 6005   2.161   2.832   3.941  0.2021  0.0504 -0.1509
 1955W        W 6006  10.032   2.385   0.152 -0.2303  0.0753 -0.0665
 1956W        W 6007   5.809   7.880  13.274 -0.1481  0.0686  0.1866
 1957W        W 6008   8.939   7.540  13.826 -0.0128  0.0487 -0.0414
 1958W        W 6009   5.581   9.573  11.790  0.2122 -0.2920 -0.0446
 1959W        W 6010   9.944   4.684  12.489  0.1423 -0.0691  0.0532
 1960W        W 6011   0.999   6.476   0.216  0.0533 -0.0100  0.0227
 1961W        W 6012   5.994   6.431  13.360  0.0837 -0.4063 -0.4458
 1962W        W 6013   1.375   9.724  10.373 -0.0342  0.2129  0.0591
 1963W        W 6014   9.876   4.607   4.204 -0.1727  0.1641  0.2986
 1964W        W 6015   2.295   6.652   2.959 -0.2349 -0.1126 -0.2409
 1965W        W 6016   7.938   5.012   1.415 -0.2724 -0.1129 -0.4665
 1966W        W 6017   6.239   0.458   3.600  0.2239  0.2413  0.0801
 1967W        W 6018   9.112   3.712   9.610 -0.1115  0.0016  0.2704
 1968W        W 6019   1.710   6.875  13.831  0.0778 -0.1896 -0.3510
 1969W        W 6020   0.622   9.744   5.053 -0.3050  0.0652  0.3975
 1970W        W 6021   4.592   2.412  12.141  0.0116  0.3103  0.2587
 1971W        W 6022   5.788   5.122  13.818 -0.2980 -0.2350  0.2253
 1972W        W 6023   2.618   3.537   1.669  0.1314 -0.1207 -0.3131
 1973W        W 6024   2.394   0.903   2.979  0.1796 -0.3290  0.2105
 1974W        W 6025   3.576   3.178  13.309 -0.1131  0.1802  0.0466
 1975W        W 6026   2.117   7.588  12.740  0.1514  0.1509 -0.1905
 1976W        W 6027   4.341   5.422   9.604 -0.4519 -0.1271 -0.5094
 1977W        W 6028   4.985   4.980   9.997  0.0039 -0.2232 -0.1506
 1978W        W 6029   4.532   8.357   2.889  0.0116  0.0542 -0.2878
 1979W        W 6030   5.185   3.254   1.947  0.1801  0.2237  0.1913
 1980W        W 6031   3.870   6.941  10.037 -0.2161 -0.0612  0.0325
 1981W        W 6032   8.464   9.070  13.329 -0.2056  0.0515  0.2013
 1982W        W 6033   9.660   4.366  13.053  0.2758 -0.0284  0.0494
 1983W        W 6034   0.455   6.161   4.153  0.3616  0.0263  0.2917
 1984W        W 6035   4.859   9.036   9.983  0.0878 -0.0419 -0.0689
 1985W        W 6036   2.471   9.359  13.062  0.0763  0.0322  0.0063
 1986W        W 6037   0.349   3.214  12.424  0.0262  0.3194  0.2856
 1987W        W 6038   9.045   0.249  12.364  0.1295 -0.0801  0.0422
 1988W        W 6039   3.434   4.984   9.813 -0.1221 -0.0779 -0.3168
 1989W        W 6040   4.676   5.662  13.213  0.0493 -0.0490  0.0929
 1990W        W 6041   0.923   0.250  13.159 -0.2243  0.0057 -0.0516
 1991W        W 6042   2.331   6.001   1.801  0.1924  0.1535  0.0543
 1992W        W 6043   5.893   2.228   0.053 -0.2207  0.1189  0.0324
 1993W        W 6044   3.048   9.040   2.719  0.0597 -0.0110 -0.1032
 1994W        W 6045   1.493   4.204   9.866  0.1619  0.2173 -0.2759
 1995W        W 6046   4.624   1.576   5.202  0.2569 -0.1313  0.1515
 1996W        W 6047   5.144   2.338   2.863 -0.1396  0.1176  0.2399
 1997W        W 6048   4.681   1.978   9.162 -0.0073 -0.0006 -0.2045
 1998W        W 6049   1.953   6.892   1.572 -0.1759  0.1995  0.3466
 1999W        W 6050   1.962   7.062   9.171 -0.1343  0.2317 -0.0902
 2000W        W 6051   4.312   9.126  13.582  0.2784  0.2135  0.1699
 2001W        W 6052  10.110   2.378   9.858 -0.1260  0.4176 -0.2331
 2002W        W 6053   4.205   7.094   0.025 -0.1082 -0.1458 -0.2342
 2003W        W 6054   9.698   6.788  11.125 -0.0707 -0.0324  0.0117
 2004W        W 6055   4.525   6.837   3.060  0.3375  0.1902 -0.5684
 2005W        W 6056   8.066   3.465  13.419 -0.0885  0.1743 -0.2483
 2006W        W 6057   3.134   2.145   3.517 -0.2659  0.0201  0.0662
 2007W        W 6058   6.554   4.485   0.091 -0.1624  0.0760 -0.1351
 2008W        W 6059   2.505   0.188   2.387  0.3014  0.2867 -0.1067
 2009W        W 6060   8.687   5.290   1.954  0.0444  0.2561 -0.1164
 2010W        W 6061   4.049   7.673  13.818 -0.2398 -0.1927  0.0107
 2011W        W 6062   5.686   0.679   8.505 -0.0744 -0.3770 -0.1525
 2012W        W 6063   4.153   3.163   3.114 -0.1903 -0.1737  0.0394
 2013W        W 6064   6.455   0.884   9.401 -0.0135 -0.3423  0.0990
 2014W        W 6065  10.193   7.798   3.778 -0.3256  0.1273  0.2681
 2015W        W 6066   7.230   5.514   0.671  0.3771  0.1188  0.1679
 2016W        W 6067   1.183   7.382  11.272 -0.0491  0.2540  0.3154
 2017W        W 6068   4.421   7.568  10.446 -0.0364  0.0505 -0.0787
 2018W        W 6069   5.591   5.066   1.040  0.2003 -0.0546 -0.0248
 2019W        W 6070   0.389   0.298   1.969  0.1508  0.0084 -0.0076
 2020W        W 6071   0.419   5.851  12.653 -0.0396  0.1488 -0.3319
 2021W        W 6072   0.696   7.654   3.263  0.4314 -0.0148  0.0816
 2022W        W 6073   9.919   9.056  12.513 -0.1677 -0.3002 -0.0379
 2023W        W 6074   9.039   2.638   1.633 -0.2083 -0.0638 -0.1052
 2024W        W 6075   2.581   4.223   3.627  0.2916  0.3032  0.0115
 2025W        W 6076   8.722   1.098  13.141 -0.0189  0.0411 -0.2538
 2026W        W 6077   3.161   1.779   0.907 -0.0803 -0.0259 -0.3326
 2027W        W 6078   7.853   8.475  10.044  0.0050 -0.1402 -0.0331
 2028W        W 6079   9.151   2.418   9.528  0.0051 -0.2159  0.3744
 2029W        W 6080   3.768   5.441  10.586  0.0166 -0.1359  0.1318
 2030W        W 6081   6.695   9.107   0.961  0.0578 -0.0503 -0.1590
 2031W        W 6082   0.829   8.864   9.811 -0.1411  0.2758 -0.0900
 2032W        W 6083   3.244   4.505   0.296  0.1755  0.0665  0.0586
 2033W        W 6084   5.955   0.863  10.641 -0.2266 -0.1987 -0.0360
 2034W        W 6085   0.245   0.902  11.653 -0.4215 -0.0652  0.0995
 2035W        W 6086   6.722   6.189   0.126 -0.1039  0.2041  0.0005
 2036W        W 6087   8.812   8.103   2.179  0.1783  0.3109 -0.1513
 2037W        W 6088   0.028   9.881  13.687  0.3059 -0.2545 -0.2504
 2038W        W 6089   9.272   5.520   1.517 -0.1449  0.0997  0.0451
 2039W        W 6090   0.955   3.505   0.379 -0.4049 -0.0264  0.1581
 2040W        W 6091   2.387   6.846   1.197  0.0159 -0.1695 -0.1198
 2041W        W 6092   1.921   1.627   0.147  0.1176  0.2112 -0.1604
 2042W        W 6093   5.595   6.125  13.582 -0.1194  0.1746  0.0213
 2043W        W 6094   6.092   9.107  12.841 -0.0074 -0.5226  0.0303
 2044W        W 6095   6.221   8.656   0.279 -0.1320 -0.0046 -0.0477
 2045W        W 6096   1.057   9.642   8.801 -0.0068 -0.0840 -0.0685
 2046W        W 6097   8.712   7.213   2.533  0.0876 -0.0300  0.2226
 2047W        W 6098   3.037   2.636  11.786  0.1769 -0.1593  0.5846
 2048W        W 6099   1.754   4.144   8.106  0.1875  0.1328  0.2884
 2049W        W 6100   3.314   5.378   2.844 -0.3322  0.1900  0.0679
 2050W        W 6101   2.133   4.807  10.199  0.1832 -0.1602 -0.0728
 2051W        W 6102   8.997   9.959   5.669  0.0142 -0.1921  0.0077
 2052W        W 6103   1.649   5.872   2.255  0.3628 -0.1774 -0.0426
 2053W        W 6104   7.484   0.025  10.257  0.0488 -0.0666  0.1055
 2054W        W 6105   3.079   4.045   2.906  0.1163  0.0530  0.1499
 2055W        W 6106   4.555   7.896   0.012 -0.0596 -0.2014 -0.3356
 2056W        W 6107   0.596   2.616   9.344 -0.0252 -0.1318  0.0397
 2057W        W 6108   1.241   8.007   9.945 -0.2520  0.0103 -0.0385
 2058W        W 6109   2.948   4.713  12.097 -0.0514  0.3358 -0.2293
 2059W        W 6110   5.247   1.622   3.856  0.0233  0.0015  0.1485
 2060W        W 6111   5.912   4.769  11.955 -0.0655 -0.0705 -0.2436
 2061W        W 6112   4.777   5.722  10.393 -0.1994  0.1332  0.0330
 2062W        W 6113   8.646  10.122   0.989 -0.2790  0.1856  0.0308
 2063W        W 6114   4.126   6.230  13.157 -0.4237 -0.1717  0.1208
 2064W        W 6115   8.945   2.444  11.068  0.1435  0.0128 -0.1817
 2065W        W 6116   2.664   5.454   9.582  0.1337 -0.1106 -0.4135
 2066W        W 6117   2.901   1.485   0.039 -0.0166 -0.1986  0.2959
 2067W        W 6118   8.529   7.024   2.962 -0.1368  0.0293 -0.2045
 2068W        W 6119   6.695   3.273  10.270 -0.1162 -0.2058 -0.1405
 2069W        W 6120   0.319   1.968   0.692 -0.2266  0.1798 -0.2049
 2070W        W 6121   7.815   6.840  13.174 -0.2721  0.2363 -0.0031
 2071W        W 6122   7.537   9.499   3.284 -0.0811 -0.0879  0.1112
 2072W        W 6123   3.115   5.418   9.431 -0.2550 -0.2906  0.5095
 2073W        W 6124   3.474   4.755  10.599  0.2786 -0.1826  0.0071
 2074W        W 6125   4.003   4.036   1.110 -0.2769 -0.0824 -0.5099
 2075W        W 6126   2.844   6.998   1.238 -0.1944  0.0036 -0.2685
 2076W        W 6127   0.972   2.303   3.135 -0.1528 -0.3531 -0.0675
 2077W        W 6128   4.698   4.182  11.444 -0.1603  0.4730 -0.7251
 2078W        W 6129   6.690   6.003  13.202  0.2323  0.2950 -0.3137
 2079W        W 6130   1.875  10.108   3.849 -0.2375 -0.4740 -0.2733
 2080W        W 6131   2.356   0.456   9.379 -0.1748 -0.0699  0.2662
 2081W        W 6132   4.602   2.428  12.652 -0.4924 -0.1436 -0.1410
 2082W        W 6133   0.016  10.169  12.098  0.0116 -0.4622 -0.3686
 2083W        W 6134   1.548   7.572   4.284 -0.1417 -0.0068 -0.0301
 2084W        W 6135   6.872  10.050  12.167  0.0343 -0.0942 -0.3406
 2085W        W 6136   6.791   9.589   0.644 -0.0052  0.0489  0.2396
 2086W        W 6137   8.432   5.814   9.268  0.3093  0.1524 -0.1079
 2087W        W 6138   0.982   8.702   9.269 -0.1420 -0.0048 -0.6051
 2088W        W 6139   3.227   7.427   9.497 -0.1601 -0.2149 -0.2916
 2089W        W 6140   3.347   4.557   1.153  0.1120 -0.1058 -0.1984
 2090W        W 6141   3.226   0.358   1.567 -0.3209 -0.1183 -0.0767
 2091W        W 6142   8.658   8.520   0.087 -0.2464  0.1096 -0.0965
 2092W        W 6143   7.054   2.930  10.320 -0.1115 -0.1773  0.2031
 2093W        W 6144   8.636   1.514   9.695 -0.1521 -0.1619  0.1703
 2094W        W 6145   5.830   2.046  11.604  0.2351 -0.1130 -0.2240
 2095W        W 6146   3.470   5.369   4.015 -0.2865  0.4893 -0.2405
 2096W        W 6147   6.271   6.554   3.542 -0.4109  0.2686  0.0580
 2097W        W 6148   4.871   5.669   1.526  0.3792 -0.3585  0.0496
 2098W        W 6149   0.477   7.235   0.351  0.3675 -0.2237 -0.2952
 2099W        W 6150   7.775   8.117   2.017  0.1778 -0.0234 -0.1170
 2100W        W 6151   8.966   2.327   3.938  0.1428 -0.0825  0.1725
 2101W        W 6152   7.433   9.521  11.735  0.2212 -0.1609 -0.1091
 2102W        W 6153   4.563   2.645   3.723 -0.1342  0.0992 -0.1971
 2103W        W 6154   1.116   9.670   4.086 -0.3983 -0.2310  0.2154
 2104W        W 6155   5.113   2.440  13.372  0.0237 -0.1357  0.0633
 2105W        W 6156  10.107   3.847   1.173  0.1279 -0.0132 -0.1557
 2106W        W 6157   1.349   8.304   2.168 -0.0577  0.0512  0.0038
 2107W        W 6158   6.490   5.015  10.086 -0.0132  0.2152 -0.0363
 2108W        W 6159   4.828   4.289   2.256 -0.1008 -0.1052  0.0931
 2109W        W 6160   3.916   0.806  10.030  0.0157  0.1807  0.0473
 2110W        W 6161   4.070   0.613   9.218  0.2472 -0.0200 -0.1597
 2111W        W 6162   6.727   6.868  13.462  0.0867  0.1627 -0.1800
 2112W        W 6163   0.607   3.556  13.622  0.1962 -0.0816 -0.2833
 2113W        W 6164   1.918   4.169   8.966  0.2467 -0.1740  0.1930
 2114W        W 6165   3.745   6.568   4.602  0.2112 -0.0150 -0.1278
 2115W        W 6166   7.862   5.254  11.466 -0.1305  0.0087 -0.1663
 2116W        W 6167   7.041   8.689   2.631 -0.0814 -0.0165 -0.3411
 2117W        W 6168   7.362   3.752  12.273 -0.0308 -0.2354  0.0335
 2118W        W 6169   8.074   9.721   1.649 -0.0200 -0.0359  0.0651
 2119W        W 6170   5.104   0.733   9.442 -0.0040 -0.0017 -0.0799
 2120W        W 6171   4.166  10.208   0.214  0.0046  0.0298 -0.1656
 2121W        W 6172   3.714   2.017   1.290 -0.0956 -0.2859 -0.0627
 2122W        W 6173   1.113   6.448  10.290 -0.1109  0.1347 -0.1960
 2123W        W 6174   7.709   5.293   3.287  0.2513 -0.6987  0.2002
 2124W        W 6175   4.147   0.115  12.690  0.0212  0.0287  0.0231
 2125W        W 6176   7.198   6.839  10.593  0.1699 -0.1161 -0.3262
 2126W        W 6177   2.021   3.663   0.643  0.0859 -0.3477  0.0242
 2127W        W 6178   9.383   8.681  11.467 -0.0538 -0.0498  0.0375
 2128W        W 6179   7.607   6.021  13.599 -0.1157 -0.1984 -0.2392
 2129W        W 6180   1.458   0.096   3.063 -0.3009 -0.1088  0.0962
 2130W        W 6181   7.605   3.395   3.973  0.4075  0.0808  0.1484
 2131W        W 6182   1.406   2.281   4.700 -0.1105 -0.1706 -0.0147
 2132W        W 6183   8.258   1.243   2.898  0.3392  0.2134 -0.0007
 2133W        W 6184   1.575   2.418  12.473  0.3076 -0.1660  0.2239
 2134W        W 6185   4.575   2.093   3.754  0.1567 -0.0052 -0.1845
 2135W        W 6186   5.495   5.501   2.691  0.1272  0.1005  0.2778
 2136W        W 6187   3.155   8.789  12.049 -0.0371 -0.1352 -0.0028
 2137W        W 6188   1.249   5.679   0.727  0.2384 -0.1391  0.0733
 2138W        W 6189   5.097   9.175   2.620 -0.1906 -0.1434 -0.1757
 2139W        W 6190   4.920   3.063   0.305 -0.0793 -0.0664  0.0379
 2140W        W 6191   3.449   3.398  12.292  0.0352  0.2888 -0.3023
 2141W        W 6192   1.176   2.337   1.029  0.1249  0.0235  0.0147
 2142W        W 6193   0.196   8.520  11.453 -0.2983 -0.2667 -0.2297
 2143W        W 6194   0.065   3.605   3.069 -0.0568 -0.2262 -0.1014
 2144W        W 6195   4.114   1.299  10.428 -0.3564  0.1751  0.0748
 2145W        W 6196   6.958  10.041   3.419 -0.0005  0.0306 -0.2138
 2146W        W 6197   9.652   4.568  12.041  0.0753 -0.0948 -0.2166
 2147W        W 6198   1.430   9.182   1.038  0.2917  0.0916 -0.2950
 2148W        W 6199   1.868   8.848   4.030  0.1019  0.0304  0.1646
 2149W        W 6200   0.702   9.910   3.767  0.1076 -0.3772  0.0247
 2150W        W 6201   8.927   5.902   9.996  0.2548  0.1399 -0.0055
 2151W        W 6202   1.304   1.530   4.320 -0.0979  0.1758 -0.1683
 2152W        W 6203   3.436   0.661   9.941  0.1185  0.3494 -0.1476
 2153W        W 6204   0.503   3.208  11.746 -0.1492  0.0859  0.1141
 2154W        W 6205   2.778   7.601   1.968  0.0106 -0.0561 -0.0779
 2155W        W 6206   2.874   7.529  13.778 -0.0801  0.2676 -0.2763
 2156W        W 6207   0.402   6.312   3.627  0.2515 -0.0932  0.2317
 2157W        W 6208   7.332   4.592   0.307 -0.1346 -0.1493  0.1508
 2158W        W 6209   1.287   3.330   9.699 -0.1823 -0.3495 -0.1337
 2159W        W 6210   8.995   4.986   4.458  0.0942  0.0462  0.1111
 2160W        W 6211   1.793   6.656  12.482  0.1943  0.2691 -0.0722
 2161W        W 6212   5.044   8.836   0.931  0.0955 -0.0724  0.1531
 2162W        W 6213   0.478   1.933  13.615 -0.0272 -0.0144 -0.2267
 2163W        W 6214   9.398   6.104  10.115 -0.0488 -0.0906 -0.4357
 2164W        W 6215   2.304   0.587  13.131 -0.1419 -0.1703 -0.1438
 2165W        W 6216   4.969   1.825  12.130  0.2273  0.1325 -0.0557
 2166W        W 6217   8.020   9.270   4.014  0.0762  0.1498  0.0876
 2167W        W 6218   5.896   9.718  10.777  0.1308 -0.2194 -0.2552
 2168W        W 6219   5.069   9.407   0.186  0.0951  0.1308  0.1654
 2169W        W 6220   5.899   3.901  11.821  0.0428  0.1109  0.0236
 2170W        W 6221   3.394   3.973   3.989 -0.0379 -0.0767  0.1683
 2171W        W 6222   9.535   1.875  11.630 -0.2111 -0.0608  0.0478
 2172W        W 6223   4.313   5.009   3.853  0.1889  0.1639  0.0565
 2173W        W 6224   9.436   9.037   3.012  0.1192  0.2777 -0.0862
 2174W        W 6225   4.412   4.842  12.603  0.2112  0.2146 -0.0188
 2175W        W 6226   6.370   7.722   3.334  0.0370  0.2701  0.0323
 2176W        W 6227   6.368   4.864   2.525  0.0757 -0.0393  0.0834
 2177W        W 6228   1.928   4.924   1.563  0.1688  0.0850  0.4400
 2178W        W 6229   4.851   2.941  13.295  0.1488 -0.3142  0.0790
 2179W        W 6230   6.793   7.917   3.083  0.1223  0.3681  0.1328
 2180W        W 6231   4.765   4.283  10.956  0.1346 -0.0491  0.0177
 2181W        W 6232   6.025   4.373   3.658  0.0742 -0.0019 -0.1732
 2182W        W 6233   4.408   3.989   2.107 -0.0396 -0.3141 -0.2242
 2183W        W 6234   1.947   7.924  10.085  0.0231 -0.0161  0.0541
 2184W        W 6235   1.985   4.959   4.791 -0.1501 -0.1183 -0.5470
 2185W        W 6236   3.944   0.613  11.961 -0.0062  0.1829  0.0551
 2186W        W 6237   5.010   9.481  10.174 -0.6476  0.0782 -0.1043
 2187W        W 6238   4.424   7.499   2.173  0.0310 -0.1521  0.0569
 2188W        W 6239   2.819   2.577   4.356  0.0168 -0.1664 -0.0225
 2189W        W 6240   8.669   1.880  11.356 -0.2430  0.1147  0.0426
 2190W        W 6241  10.102   3.286   9.956  0.2512 -0.2012 -0.1039
 2191W        W 6242   3.483   8.146   0.046  0.0883  0.0142 -0.2647
 2192W        W 6243   5.648   2.342  12.353  0.0144  0.2252  0.1516
 2193W        W 6244   7.512   7.111   1.832 -0.0759  0.2788 -0.4163
 2194W        W 6245   0.647   9.031  10.743  0.3738  0.2739  0.2630
 2195W        W 6246   1.694   2.884  12.282 -0.2789 -0.0141  0.0360
 2196W        W 6247   2.503   5.744   2.771  0.2710  0.1171 -0.1560
 2197W        W 6248   4.206   4.647  12.137  0.4316 -0.0742 -0.0525
 2198W        W 6249   7.900   0.342   0.497  0.1636 -0.0619  0.0555
 2199W        W 6250   3.923   3.616  12.086  0.3867 -0.0320  0.0356
 2200W        W 6251   0.933   7.550  10.769 -0.3606  0.0913 -0.1662
 2201W        W 6252   2.681   2.833   3.929  0.1202 -0.2029  0.1126
 2202W        W 6253   3.718   4.258  11.287 -0.1521  0.1818 -0.0455
 2203W        W 6254   0.847   2.903   3.140  0.3974 -0.0975 -0.1982
 2204W        W 6255   1.508   8.190   3.060  0.2855 -0.0770 -0.1239
 2205W        W 6256   1.316   5.881   1.708 -0.3678  0.1778 -0.2134
 2206W        W 6257   7.868   1.099  13.248 -0.1958  0.0123 -0.1208
 2207W        W 6258   8.534   0.423   2.890  0.2184 -0.2340  0.1650
 2208W        W 6259   4.384   5.235  13.234  0.1629 -0.0541 -0.1690
 2209W        W 6260   1.028   0.437   4.413 -0.1721  0.1913 -0.1253
 2210W        W 6261   2.644   9.326   0.503  0.1698 -0.0514 -0.0510
 2211W        W 6262   9.297   2.585   4.563 -0.0209 -0.0145 -0.2256
 2212W        W 6263   9.931   7.601  11.722  0.1045  0.1767  0.3853
 2213W        W 6264   5.620   4.613   9.698 -0.1312 -0.0729  0.1547
 2214W        W 6265   8.174   2.722  10.347 -0.1088 -0.1976 -0.0561
 2215W        W 6266   2.006   2.221  11.255 -0.3328  0.1650 -0.0833
 2216W        W 6267   8.326   6.934   9.327 -0.1739  0.1585  0.1386
 2217W        W 6268   0.682   7.436  10.002  0.1040 -0.4049 -0.1296
 2218W        W 6269   5.517   4.860   3.073  0.0093  0.4111 -0.0245
 2219W        W 6270   7.441   5.473  12.764  0.1968 -0.2670  0.3312
 2220W        W 6271   3.008   1.930  11.295 -0.2270 -0.1883 -0.0445
 2221W        W 6272   1.813   3.539  12.843 -0.1792 -0.0170 -0.1622
 2222W        W 6273   7.083   5.343   9.705 -0.0159 -0.1255  0.1418
 2223W        W 6274   0.164   2.475   2.316 -0.0161 -0.1101 -0.0889
 2224W        W 6275   1.527   2.349   2.723 -0.0381 -0.0282  0.2566
 2225W        W 6276   6.635   0.441   2.755 -0.1466  0.1019  0.1036
 2226W        W 6277   0.844   7.951  13.519 -0.1825  0.0342 -0.0380
 2227W        W 6278   9.232   8.434   4.351  0.1533  0.3154  0.0219
 2228W        W 6279   3.320   9.584   3.024  0.0932  0.2402  0.2501
 2229W        W 6280   9.596   9.639   4.796  0.0584  0.2982  0.0665
 2230W        W 6281   0.658   2.704   5.304  0.0469  0.1952 -0.0433
 2231W        W 6282   5.977   9.401  12.121  0.2330  0.2413  0.2802
 2232W        W 6283   4.408   2.126   3.270  0.3260 -0.0088  0.1428
 2233W        W 6284   3.261   3.273   2.721  0.1036  0.1738  0.3202
 2234W        W 6285   4.577   0.345   0.689 -0.0254  0.1230 -0.1909
 2235W        W 6286   6.948   3.654   0.575  0.0722  0.3402 -0.1134
 2236W        W 6287   6.791   6.890   3.567 -0.0520  0.1249  0.1028
 2237W        W 6288   4.684   6.562  11.519  0.0615  0.3912 -0.0885
 2238W        W 6289   1.565   5.111   1.188  0.0724  0.1619  0.3134
 2239W        W 6290   5.269   9.146   9.633 -0.1109 -0.3050 -0.1610
 2240W        W 6291   7.564   4.396   0.706 -0.0149 -0.0117  0.1303
 2241W        W 6292   0.488   9.363  13.097  0.4346 -0.0398 -0.0035
 2242W        W 6293   1.826   8.706  13.014 -0.1026 -0.0238 -0.3132
 2243W        W 6294   1.542   8.939   3.232 -0.0060 -0.4843  0.0264
 2244W        W 6295   3.853   7.665  11.840  0.0426  0.0089  0.3024
 2245W        W 6296   0.706   5.230  10.564  0.0937  0.2699 -0.2684
 2246W        W 6297   2.529   3.929   0.622 -0.4190  0.0475 -0.2768
 2247W        W 6298   1.330   0.197   4.746 -0.0382 -0.0020 -0.5859
 2248W        W 6299   4.778   0.402   1.139  0.0663 -0.0731 -0.0830
 2249W        W 6300   7.138   2.023   4.172 -0.2072 -0.1476 -0.1208
 2250W        W 6301   9.664   1.501   1.858  0.2209  0.0862  0.0903
 2251W        W 6302   7.426   5.934   1.629 -0.0074  0.1090  0.0391
 2252W        W 6303   0.016   7.166  10.620  0.1902 -0.0678  0.0922
 2253W        W 6304   7.922   9.692  13.650 -0.1360 -0.1298  0.0348
 2254W        W 6305   8.306   0.015  11.340  0.1040 -0.0039 -0.5309
 2255W        W 6306   1.701   5.691  12.134 -0.0756 -0.2239 -0.0173
 2256W        W 6307   1.369   4.588  10.516 -0.1519  0.1822 -0.1535
 2257W        W 6308   7.488   4.530   1.972  0.4024 -0.0656  0.1143
 2258W        W 6309   2.809   9.168   0.958  0.1524  0.2125  0.1933
 2259W        W 6310   9.387   0.470  13.815 -0.1653  0.0317  0.2547
 2260W        W 6311   4.806   6.057   0.242  0.0881  0.2184 -0.0170
 2261W        W 6312   5.431   9.292  12.176  0.3195 -0.0367  0.3293
 2262W        W 6313   3.884   3.517   1.202  0.2430  0.0270 -0.3513
 2263W        W 6314   8.943   0.076   2.637  0.0209  0.0642  0.2237
 2264W        W 6315   1.229   8.704   0.081  0.3841 -0.3745  0.2733
 2265W        W 6316   4.499   3.790   9.126 -0.1276  0.0808 -0.1449
 2266W        W 6317   3.540   6.947   0.396  0.1433 -0.0127  0.1537
 2267W        W 6318   7.788   5.165  12.607  0.2075  0.2426 -0.1250
 2268W        W 6319   8.569   8.345   1.816  0.0131  0.1558 -0.1566
 2269W        W 6320   4.534   6.077  11.460  0.1241  0.3540 -0.1239
 2270W        W 6321   3.741   1.852   9.116  0.1361  0.5051 -0.2211
 2271W        W 6322   6.626   6.466   1.671 -0.3610 -0.0612 -0.3186
 2272W        W 6323   0.416   2.732   1.315  0.0561  0.2015 -0.1245
 2273W        W 6324   0.241   9.142   8.763 -0.1718  0.0533 -0.1844
 2274W        W 6325   4.901   9.938   9.588  0.2992 -0.3491 -0.0149
 2275W        W 6326   4.902   3.354  10.395  0.2113 -0.0102  0.0931
 2276W        W 6327   0.266   5.813   9.785  0.0598  0.1365  0.1441
 2277W        W 6328   1.799   7.066   2.172  0.1431 -0.0581  0.0521
 2278W        W 6329   0.822   1.379   9.119 -0.0420 -0.1517  0.0079
 2279W        W 6330   1.437   3.847  12.990  0.0377  0.1822  0.2188
 2280W        W 6331   0.882   5.185   2.684  0.0808  0.1033  0.0331
 2281W        W 6332   1.246   5.442  12.556  0.1648  0.0392 -0.1168
 2282W        W 6333   0.375   6.299   1.648 -0.3736 -0.0532  0.1377
 2283W        W 6334   2.884   3.895  12.886 -0.1233 -0.0639  0.3081
 2284W        W 6335   2.886   1.556   0.516 -0.1387 -0.1329  0.1881
 2285W        W 6336   3.544   4.581  10.121  0.1105 -0.2924 -0.0088
 2286W        W 6337   9.132   4.396   8.921 -0.1026 -0.0926  0.2394
 2287W        W 6338   0.627   2.938   0.450 -0.0225  0.1602 -0.0021
 2288W        W 6339   6.975   2.693   9.595 -0.1430 -0.0639 -0.1045
 2289W        W 6340   0.808   2.686  12.937  0.1416 -0.0864 -0.2924
 2290W        W 6341   9.553   4.307   2.113  0.0831 -0.0656  0.1518
 2291W        W 6342   4.377   3.366  12.814  0.1087 -0.1509 -0.0686
 2292W        W 6343   4.985   3.638   4.579  0.2251 -0.2830 -0.1280
 2293W        W 6344   9.739   4.824  12.948 -0.0357  0.3593 -0.0994
 2294W        W 6345   8.978   6.110   3.852  0.0053  0.0858 -0.2355
 2295W        W 6346   2.189   8.612   2.681 -0.0490  0.2561  0.2747
 2296W        W 6347   6.560   7.296  13.257 -0.1324 -0.4118 -0.1026
 2297W        W 6348   9.049   8.855   4.165  0.3355 -0.3644 -0.3627
 2298W        W 6349   5.448   7.743   1.774  0.3569 -0.2012  0.1304
 2299W        W 6350   9.593   2.904  11.424 -0.2196 -0.1632  0.0178
 2300W        W 6351   0.049   5.619   2.731  0.1175  0.1111  0.0832
 2301W        W 6352   3.312   4.224  12.660  0.0796  0.0953  0.0813
 2302W        W 6353   8.805   3.971   4.365  0.3494  0.1660 -0.2761
 2303W        W 6354   8.176   1.670   1.960  0.1773  0.1870 -0.1273
 2304W        W 6355   3.028   1.860   9.502  0.2675  0.2225  0.0613
 2305W        W 6356   0.312   9.313   4.510  0.0487  0.0029 -0.4728
 2306W        W 6357   2.100   4.899  11.613  0.1120  0.0330 -0.2478
 2307W        W 6358   3.014   4.989   1.137  0.2390 -0.2806 -0.2907
 2308W        W 6359   3.134   1.135  12.005 -0.0055  0.0275 -0.1707
 2309W        W 6360   9.321   9.868   9.841 -0.0900 -0.1669  0.0840
 2310W        W 6361   6.572   1.381   1.406  0.1247  0.0427 -0.1154
 2311W        W 6362   7.142   3.315   9.903 -0.0918  0.0335 -0.1482
 2312W        W 6363   3.120   3.292   9.773  0.2208 -0.2401  0.0483
 2313W        W 6364   1.097   6.932   2.731  0.0841 -0.0381  0.1716
 2314W        W 6365   5.852   0.817  11.522  0.0769  0.1791 -0.0276
 2315W        W 6366   6.955   4.143   3.361  0.2880 -0.0485 -0.2582
 2316W        W 6367   9.474   0.627   0.482 -0.3499 -0.2928 -0.1278
 2317W        W 6368   3.179   2.994   4.272  0.2485 -0.2702  0.1739
 2318W        W 6369   1.098   3.958   1.172  0.3403 -0.0376  0.0854
 2319W        W 6370   0.475   0.589   3.633 -0.1153 -0.1219 -0.0322
 2320W        W 6371   3.569   5.106   1.120  0.0937  0.0878  0.0947
 2321W        W 6372   7.655   3.654  10.458 -0.1916  0.1180 -0.0024
 2322W        W 6373   1.416   9.343   0.547 -0.0057  0.1940 -0.2293
 2323W        W 6374   5.217   1.943  11.477 -0.1455 -0.1650 -0.0929
 2324W        W 6375   5.985   3.661   4.757 -0.2510  0.0792  0.1225
 2325W        W 6376   4.652   3.940  13.451  0.0940 -0.0132 -0.0972
 2326W        W 6377   8.350   1.493  13.081 -0.3095 -0.0355  0.0612
 2327W        W 6378   5.896   7.082   3.433 -0.1079 -0.3880  0.0808
 2328W        W 6379   2.069   9.968   2.857 -0.1741 -0.0082 -0.0627
 2329W        W 6380  10.023   5.602  13.478 -0.1954 -0.0314  0.2608
 2330W        W 6381   8.601   2.442  11.535  0.0582  0.5077 -0.0326
 2331W        W 6382   8.811   9.055  10.008 -0.1474  0.1044 -0.1631
 2332W        W 6383   5.477   1.959   0.946  0.0698  0.0110 -0.1846
 2333W        W 6384   5.073   1.254   9.458 -0.2972 -0.1214  0.0651
 2334W        W 6385   1.643   4.814  11.913 -0.1723  0.1672  0.0460
 2335W        W 6386   1.408   1.140   4.813  0.0255 -0.0323  0.0532
 2336W        W 6387   6.338   1.145   1.763 -0.1991 -0.0179  0.0946
 2337W        W 6388  10.132   4.987  11.303  0.0107  0.2307 -0.0837
 2338W        W 6389   9.574  10.174   9.185 -0.3789  0.1362  0.0300
 2339W        W 6390   3.881   7.832   2.516 -0.0878  0.2228 -0.2156
 2340W        W 6391   7.732   1.752   3.538  0.2587  0.1478 -0.3451
 2341W        W 6392   1.165   9.432   2.002  0.3976  0.0129  0.1428
 2342W        W 6393   5.899   8.127   1.771 -0.0224  0.2835 -0.2551
 2343W        W 6394   1.089   5.415  13.071  0.0435 -0.1440 -0.3043
 2344W        W 6395   0.978   3.582   2.107 -0.0740 -0.1369  0.0781
 2345W        W 6396   0.464   9.345   3.294  0.3019  0.1032 -0.1463
 2346W        W 6397   6.104   5.415   1.339  0.1927  0.0701 -0.2291
 2347W        W 6398   7.662   3.230   8.592  0.0421  0.0919 -0.0581
 2348W        W 6399   8.499   2.606  11.090  0.2463  0.0206  0.2775
 2349W        W 6400   7.355   0.153  10.813  0.1302  0.1735 -0.2021
 2350W        W 6401   7.273   6.200   9.893  0.1442 -0.1590  0.3142
 2351W        W 6402   7.752   3.647   1.574  0.1962  0.1663 -0.2162
 2352W        W 6403   3.613   2.504  10.670 -0.0748  0.0232  0.1442
 2353W        W 6404   4.376   4.525   0.371 -0.3086 -0.0940  0.0893
 2354W        W 6405   9.574   1.615   9.682 -0.0439 -0.0105 -0.1499
 2355W        W 6406   2.382   3.270   3.768 -0.1387 -0.0340  0.1732
 2356W        W 6407   1.990   5.554   3.514 -0.1060 -0.1209  0.1171
 2357W        W 6408   2.073   6.382   9.698 -0.1664  0.0681 -0.1754
 2358W        W 6409   4.965   1.136   3.812 -0.1667  0.0579  0.1522
 2359W        W 6410   2.792   0.390   4.790 -0.1000  0.0944  0.1971
 2360W        W 6411   7.747   7.431   9.067  0.1723  0.4798  0.1857
 2361W        W 6412   1.013   2.033  13.079 -0.0612 -0.3111 -0.3269
 2362W        W 6413   2.241   2.009   1.052  0.0923 -0.0083 -0.0028
 2363W        W 6414   6.840   3.129   1.485 -0.2190 -0.0167 -0.1147
 2364W        W 6415   5.292   2.369   4.261  0.0040 -0.1394 -0.0608
 2365W        W 6416   2.642  10.140  11.477 -0.2803  0.2892  0.1943
 2366W        W 6417   9.838   1.164   1.408  0.2903  0.3695 -0.0281
 2367W        W 6418   7.730   4.810  12.933 -0.0635 -0.2024 -0.2361
 2368W        W 6419   7.838   4.738  10.659 -0.4473  0.0038 -0.0020
 2369W        W 6420   7.207   3.515   1.932  0.2292  0.0443  0.4060
 2370W        W 6421   3.805   0.992   9.034  0.3091  0.0865  0.1973
 2371W        W 6422   1.031   4.969  11.791 -0.4459  0.0041 -0.1103
 2372W        W 6423   1.135   0.796   9.490 -0.3168 -0.1209  0.0588
 2373W        W 6424   9.516   7.536  10.554  0.1458 -0.2333 -0.1231
 2374W        W 6425   7.673   7.533   0.613 -0.2216 -0.0556 -0.1749
 2375W        W 6426   3.007   0.654   1.142  0.2828  0.2797 -0.2572
 2376W        W 6427   0.155   1.450  13.847 -0.2152 -0.0628 -0.2951
 2377W        W 6428   6.709   6.704   1.235  0.1282  0.1140  0.0707
 2378W        W 6429   0.879   0.950   0.820  0.0174  0.2815 -0.0266
 2379W        W 6430   1.053   9.663  10.764  0.1015  0.0049 -0.0253
 2380W        W 6431   0.998   8.597   4.746 -0.1842  0.1696  0.3022
 2381W        W 6432   1.255   4.335   3.897 -0.2618 -0.1245  0.0180
 2382W        W 6433   7.443   8.811  13.041 -0.0961 -0.1489 -0.1335
 2383W        W 6434   2.815   2.844   9.329  0.0199 -0.1704 -0.0751
 2384W        W 6435   7.687   3.263   9.551 -0.1041 -0.3497 -0.0312
 2385W        W 6436   3.923   5.327  11.167 -0.1427 -0.3063 -0.0430
 2386W        W 6437   3.718   5.288   2.434  0.1576  0.0774  0.0662
 2387W        W 6438   1.316   1.589  13.296 -0.1430  0.1302  0.1633
 2388W        W 6439   0.765   8.530   1.078  0.0951  0.1597 -0.1904
 2389W        W 6440   5.724   8.334  11.274  0.0199 -0.1648  0.0591
 2390W        W 6441   6.064   2.370   4.543  0.2111 -0.0985 -0.0089
 2391W        W 6442   3.423   4.697  13.328 -0.0396  0.0142 -0.2904
 2392W        W 6443   2.897   2.782  10.567  0.0310 -0.1194 -0.6080
 2393W        W 6444   4.788   7.858   0.504  0.0336 -0.0911  0.2787
 2394W        W 6445   1.777   4.312   4.005 -0.0033  0.0819 -0.1264
 2395W        W 6446   3.131   8.520  11.629 -0.1677 -0.1894  0.1227
 2396W        W 6447   6.051   2.471  13.427  0.1266 -0.0364  0.2649
 2397W        W 6448   6.598   1.462  11.028 -0.1143 -0.1059  0.3780
 2398W        W 6449   4.100   3.767   4.446  0.2191 -0.0962 -0.0177
 2399W        W 6450   9.423   1.470  12.463 -0.1659 -0.0765  0.2071
 2400W        W 6451   8.170   7.860  12.221  0.2048  0.0546  0.2798
 2401W        W 6452   2.369   0.378   3.538  0.2607  0.0183 -0.0497
 2402W        W 6453   3.002   5.535   3.947  0.3999  0.2074  0.1688
 2403W        W 6454   5.019   8.390   3.098  0.0189 -0.0068 -0.0019
 2404W        W 6455   8.280   1.471   1.037  0.0443  0.3161 -0.1189
 2405W        W 6456   6.025   7.413  13.269 -0.2095  0.1508  0.1348
 2406W        W 6457   1.336   1.665  11.331  0.1379  0.2770 -0.0337
 2407W        W 6458   8.838   6.673  11.455 -0.0552 -0.0233 -0.0841
 2408W        W 6459   8.009   9.747   2.257  0.0546 -0.1137 -0.2245
 2409W        W 6460   5.614   7.507  12.943 -0.2131 -0.3002  0.1681
 2410W        W 6461   0.342   8.154   4.872  0.0155  0.5063 -0.2048
 2411W        W 6462   8.925   4.376  12.742  0.2577  0.0332 -0.3042
 2412W        W 6463   4.216   9.733   2.583  0.0725  0.1037 -0.2389
 2413W        W 6464   5.583   1.596  12.839 -0.0089 -0.0784 -0.0509
 2414W        W 6465   5.710   0.903   0.216 -0.3741  0.2327  0.1742
 2415W        W 6466   9.650   3.872  10.478 -0.0214 -0.0857 -0.1591
 2416W        W 6467   7.901   4.228   9.546  0.0622  0.1411 -0.2950
 2417W        W 6468   7.525   5.319   2.788 -0.2155  0.0780  0.0643
 2418W        W 6469  10.086   8.146  11.522 -0.4346  0.1922 -0.0290
 2419W        W 6470   4.957   9.674   3.491 -0.0132  0.0421 -0.3348
 2420W        W 6471   1.330   8.224   5.005 -0.1199 -0.1358  0.2863
 2421W        W 6472   8.859   2.858   9.576  0.2332  0.1116  0.1013
 2422W        W 6473   1.518   7.002  11.588 -0.3094 -0.1337 -0.0133
 2423W        W 6474   6.317   4.402   0.699  0.2254 -0.3332  0.1432
 2424W        W 6475  10.078   5.635   4.467 -0.2081 -0.3590 -0.0994
 2425W        W 6476   1.552   7.026  11.037 -0.0776 -0.2034 -0.0772
 2426W        W 6477   7.688   1.630   9.367 -0.0764 -0.4850 -0.4203
 2427W        W 6478   6.177   0.258  12.351 -0.1322  0.1885 -0.4089
 2428W        W 6479   1.626   1.081   9.838 -0.2328  0.0595  0.2841
 2429W        W 6480   3.290   8.028   2.612  0.0874  0.4395  0.1454
 2430W        W 6481   2.707   3.467  11.608 -0.1062 -0.0093 -0.1649
 2431W        W 6482   5.121   1.840   2.171  0.2270  0.2489  0.0401
 2432W        W 6483  10.142   1.474  10.466 -0.0620 -0.0567  0.0038
 2433W        W 6484   1.671   0.665  10.555 -0.0405 -0.2271 -0.0408
 2434W        W 6485   3.931   3.693   2.088  0.0072 -0.2978 -0.1154
 2435W        W 6486   7.499   9.955  11.158 -0.1347  0.0155 -0.1213
 2436W        W 6487   2.738   2.347   9.141 -0.1899 -0.3754  0.1320
 2437W        W 6488   5.515   4.771   0.247  0.2334  0.0527 -0.0414
 2438W        W 6489   2.243   2.478   1.913  0.0657  0.2167 -0.0417
 2439W        W 6490   8.565   3.627   3.477  0.1580 -0.0527 -0.1022
 2440W        W 6491   1.985   9.041   2.465 -0.0560 -0.0780  0.0568
 2441W        W 6492   0.931   8.705   3.844 -0.0844  0.0373  0.0566
 2442W        W 6493   8.377   3.691   0.721 -0.2825 -0.1130 -0.2057
 2443W        W 6494   5.251   7.915  13.464  0.0616 -0.1105 -0.1529
 2444W        W 6495   3.881   4.667   4.434 -0.1848  0.3057 -0.1162
 2445W        W 6496   5.115   7.235   0.509 -0.2130  0.0336 -0.3799
 2446W        W 6497   1.397   1.057  10.547 -0.0573 -0.0463  0.1208
 2447W        W 6498   1.139   7.024   8.896  0.0812 -0.0085 -0.3363
 2448W        W 6499   0.500   3.792   9.086 -0.0473  0.4177  0.0885
 2449W        W 6500   4.764   6.272   4.052 -0.0607  0.0644  0.0892
 2450W        W 6501  10.198   3.152   0.015 -0.0836 -0.1855  0.1662
 2451W        W 6502   0.907   9.681  12.551  0.0905 -0.2356  0.2603
 2452W        W 6503   0.197   4.259   0.344  0.2112 -0.2492  0.2529
 2453W        W 6504   7.077   1.045  13.429  0.0211 -0.1747  0.1955
 2454W        W 6505   7.244   4.323  11.364 -0.0203 -0.2359  0.0730
 2455W        W 6506   7.141  10.214   9.488  0.0930 -0.3424  0.0447
 2456W        W 6507   9.595   8.933  13.699  0.0325 -0.1304 -0.2092
 2457W        W 6508   3.445   3.719  12.719  0.0616  0.2787  0.3936
 2458W        W 6509   9.032   6.486   9.874 -0.0142  0.1341  0.3018
 2459W        W 6510   9.505   0.832   5.275 -0.0040  0.1666 -0.2508
 2460W        W 6511   0.235   4.263   9.959  0.1579  0.2332  0.0735
 2461W        W 6512   7.322   5.138  13.213  0.1229 -0.1237  0.0441
 2462W        W 6513   2.383   0.959  12.289 -0.3358 -0.3271 -0.0515
 2463W        W 6514   3.455   3.657   9.691  0.0930  0.0503 -0.2096
 2464W        W 6515   7.579   3.213  13.614  0.0931  0.1421 -0.4841
 2465W        W 6516   4.692   6.312   1.902 -0.0369  0.1976 -0.1446
 2466W        W 6517   5.714   2.508   2.126 -0.0070 -0.1565 -0.2502
 2467W        W 6518   7.647   3.279  10.103  0.4514 -0.2930  0.0389
 2468W        W 6519   4.445   9.276  13.078 -0.4151 -0.0230 -0.2919
 2469W        W 6520   5.029   8.689  10.581  0.3218  0.1272  0.2426
 2470W        W 6521   3.967   0.007  10.027  0.0597 -0.2573  0.2169
 2471W        W 6522   5.063   2.344   9.121  0.0835 -0.1084  0.0134
 2472W        W 6523   4.481   0.463   9.070 -0.4197 -0.0939  0.1148
 2473W        W 6524   9.954   6.479   4.792  0.0198  0.0997 -0.4343
 2474W        W 6525   2.543   6.320   4.482  0.1903  0.2024 -0.0936
 2475W        W 6526   7.722   9.116  11.585 -0.4038 -0.2662 -0.1505
 2476W        W 6527   5.237   1.844   9.260 -0.1732 -0.4076  0.1159
 2477W        W 6528   3.762   7.117   2.823 -0.3425  0.4465  0.0520
 2478W        W 6529   7.018   7.974  12.355 -0.0581 -0.1696 -0.2043
 2479W        W 6530   4.054   4.655  11.268  0.0496 -0.0231 -0.2421
 2480W        W 6531   4.741   5.485   9.202  0.1961 -0.1142  0.3302
 2481W        W 6532   7.706   4.103  13.364 -0.5235 -0.0054  0.2172
 2482W        W 6533   2.733   6.724   2.859  0.1022  0.0647  0.0912
 2483W        W 6534   1.312   8.585  12.249 -0.0905  0.0082 -0.0031
 2484W        W 6535   3.478   2.407   2.304 -0.1386  0.2228 -0.1206
 2485W        W 6536   3.146   2.441  13.128  0.2037  0.0171 -0.2052
 2486W        W 6537   6.252   0.926  11.087 -0.0125 -0.1452 -0.0952
 2487W        W 6538   7.607   6.572  13.856 -0.0237 -0.0838  0.0481
 2488W        W 6539   9.606   5.100  12.550  0.0241  0.0261  0.0211
 2489W        W 6540   7.327   4.899  10.577  0.3265  0.2888 -0.1573
 2490W        W 6541   7.908   7.752   2.320  0.0066  0.1231 -0.2437
 2491W        W 6542   1.020   0.452  10.515  0.0475  0.5214  0.3089
 2492W        W 6543   0.487   6.047  13.407  0.1293  0.0585 -0.3545
 2493W        W 6544   8.110   5.568   4.410 -0.5019  0.0244 -0.2249
 2494W        W 6545   8.318   3.499  12.447 -0.1862  0.1370  0.0052
 2495W        W 6546   7.931   9.600  11.597  0.1121 -0.0415  0.1295
 2496W        W 6547   4.505   1.651   3.451 -0.0180 -0.0412 -0.0314
 2497W        W 6548   3.286   2.656   3.431 -0.4857 -0.2240 -0.0104
 2498W        W 6549   1.377   0.498  13.186 -0.2499  0.1002  0.3093
 2499W        W 6550   3.309   2.848  10.928 -0.0343  0.0922 -0.3750
 2500W        W 6551   8.945   0.717  11.339 -0.1014  0.1491 -0.0601
 2501W        W 6552   9.988   6.984  13.181  0.2642 -0.2055  0.1363
 2502W        W 6553   8.284   2.557   8.488  0.0396 -0.1632 -0.1356
 2503W        W 6554   6.798   4.633  11.086  0.1646  0.0805  0.0428
 2504W        W 6555   4.397   2.566   2.422 -0.2048 -0.2664  0.0135
 2505W        W 6556   1.008   6.172  11.958  0.4504 -0.3056 -0.0783
 2506W        W 6557   1.919   7.504   9.429  0.0502 -0.2325  0.1072
 2507W        W 6558   0.571   0.191   9.798 -0.1348  0.0234  0.0027
 2508W        W 6559   7.075   0.524   9.543 -0.5654  0.2646 -0.5102
 2509W        W 6560   7.750   2.253  13.860 -0.0485  0.1374  0.2876
 2510W        W 6561   6.687   4.036  13.190 -0.3071 -0.0565 -0.0707
 2511W        W 6562   8.633   1.913  13.278 -0.0925 -0.0159 -0.2538
 2512W        W 6563   1.333   8.829   4.247 -0.0034  0.1662 -0.0363
 2513W        W 6564   1.537   6.200   9.679 -0.0920  0.0452  0.0755
 2514W        W 6565   9.660   1.343   3.116  0.1775 -0.0474  0.1768
 2515W        W 6566   1.169   8.698   2.975  0.1533  0.2274  0.1911
 2516W        W 6567   7.361   9.462   2.700  0.1982  0.0274  0.0829
 2517W        W 6568   0.023   5.797   4.077 -0.1109 -0.0707 -0.0034
 2518W        W 6569   3.464   6.622   4.129  0.0835  0.4534 -0.0369
 2519W        W 6570   1.310   3.889   9.457  0.1649  0.2275  0.4130
 2520W        W 6571   0.692   6.760  11.071 -0.1813 -0.1515 -0.2649
 2521W        W 6572   1.244  10.094  11.009 -0.0441  0.0753  0.0899
 2522W        W 6573   7.107   3.339  11.584  0.1963  0.3579 -0.2377
 2523W        W 6574   9.455   1.879  10.266 -0.3293 -0.0615 -0.0548
 2524W        W 6575   5.731   6.524   0.037  0.0891 -0.0686 -0.0588
 2525W        W 6576   9.866   8.082  10.772 -0.0870  0.2260 -0.0994
 2526W        W 6577   6.156   1.600  11.827 -0.2739  0.1851 -0.0247
 2527W        W 6578   1.065   6.147   9.338  0.0482 -0.2623 -0.2018
 2528W        W 6579   9.851   5.411  13.033 -0.1394  0.0293 -0.2203
 2529W        W 6580   9.974   9.538   9.298  0.0867 -0.0468  0.2878
 2530W        W 6581   2.876   3.047   4.703 -0.0859  0.0476 -0.1110
 2531W        W 6582   4.494   6.194  12.385 -0.2815 -0.0235 -0.2381
 2532W        W 6583   7.188   9.854   2.998 -0.1232  0.0786 -0.0811
 2533W        W 6584   4.467   8.474   9.142  0.2606  0.3459 -0.2180
 2534W        W 6585   6.217   4.700   2.077 -0.3095 -0.3389 -0.0903
 2535W        W 6586   9.340   7.720   1.793 -0.0220  0.1346  0.1296
 2536W        W 6587   4.853   2.405   3.316 -0.0515  0.2398  0.0866
 2537W        W 6588   1.977   9.190  10.094 -0.3483 -0.0913  0.1525
 2538W        W 6589   3.098   2.142   1.433  0.1331 -0.4131  0.0545
 2539W        W 6590   8.496   6.188   2.552 -0.0322 -0.2745 -0.2092
 2540W        W 6591   0.980   3.084   8.979  0.0252  0.2819 -0.1133
 2541W        W 6592   7.404   2.630   3.123 -0.0353  0.3615 -0.1974
 2542W        W 6593   3.994   9.567   2.087  0.0506  0.1351  0.0808
 2543W        W 6594   4.498   4.543   3.188 -0.4178 -0.1248  0.3179
 2544W        W 6595   8.109   5.460  10.400  0.1624 -0.2873 -0.2980
 2545W        W 6596   7.332   4.348   3.120  0.0184 -0.1470 -0.0405
 2546W        W 6597   9.125   3.648  10.130  0.1753  0.2954  0.0593
 2547W        W 6598   6.066   2.263  11.139  0.0541 -0.0613  0.0786
 2548W        W 6599   7.260   2.604   1.606 -0.0587 -0.1487  0.1024
 2549W        W 6600   9.737   6.888   0.542  0.1973  0.1003 -0.2389
 2550W        W 6601   6.886   1.634   2.697 -0.1499 -0.3051  0.0342
 2551W        W 6602   2.909   2.897   2.667  0.2260  0.2077  0.0615
 2552W        W 6603   5.006   1.995   4.049  0.6630 -0.0850  0.2417
 2553W        W 6604   3.852   0.399   9.727 -0.2533 -0.0106  0.0682
 2554W        W 6605  10.154   0.526  10.216 -0.0995 -0.1166 -0.1060
 2555W        W 6606   9.909   6.467  12.432  0.0830  0.2343  0.1431
 2556W        W 6607   8.195   9.145  11.680 -0.1456  0.0463 -0.0539
 2557W        W 6608   7.219   9.833   4.060 -0.2138  0.0412  0.0400
 2558W        W 6609   0.104   7.871  11.925  0.0021  0.0076 -0.2339
 2559W        W 6610   7.830   4.701  11.824 -0.1237  0.0424  0.1268
 2560W        W 6611   0.144   1.605   1.884  0.1011 -0.0396  0.0611
 2561W        W 6612   8.322   2.790   4.989 -0.2555  0.1316  0.0344
 2562W        W 6613   5.378   9.822   3.776  0.1399  0.1236  0.0038
 2563W        W 6614   8.492   7.441   3.931 -0.2652 -0.2716  0.0783
 2564W        W 6615   2.722   9.292  10.705  0.0175 -0.0560 -0.0139
 2565W        W 6616   1.977   2.180   8.545 -0.1483 -0.0112  0.0056
 2566W        W 6617   1.156   6.402  11.493  0.0617 -0.1063  0.1630
 2567W        W 6618   4.820   1.901  12.633  0.0835  0.1448 -0.1146
 2568W        W 6619   4.405   0.821   3.740  0.0508  0.1872 -0.1354
 2569W        W 6620   4.119   0.161   1.775  0.1773  0.0845  0.0398
 2570W        W 6621   5.637   0.071   2.266  0.1723  0.1344 -0.0486
 2571W        W 6622   4.206   2.031  13.795  0.2190 -0.2667  0.0557
 2572W        W 6623   0.783   9.674  11.567  0.0497  0.1246 -0.2941
 2573W        W 6624   0.727   5.482   1.709  0.2556  0.3860  0.1605
 2574W        W 6625   7.924   5.976   1.508  0.0677 -0.0103 -0.1191
 2575W        W 6626   9.360   0.506   2.488 -0.0578  0.2165  0.0748
 2576W        W 6627   4.733   1.878   2.565  0.0976  0.0219  0.1345
 2577W        W 6628   9.100   1.821  13.570 -0.0716  0.1397 -0.2120
 2578W        W 6629   5.991   8.038  11.581  0.0456 -0.1538  0.0379
 2579W        W 6630   2.402   4.105  10.947  0.0606  0.1585 -0.1160
 2580W        W 6631   5.916   0.777   9.945  0.2590  0.1243 -0.0004
 2581W        W 6632   1.836   0.869   0.209 -0.2485 -0.0503  0.0791
 2582W        W 6633   5.900   2.763  12.435  0.3498 -0.0607 -0.0312
 2583W        W 6634   9.704   0.464  11.788  0.0983  0.0165  0.2007
 2584W        W 6635   1.131   3.145   4.661 -0.0795  0.3684  0.2317
 2585W        W 6636   9.833   2.729   3.534  0.0345  0.0787  0.0482
 2586W        W 6637   3.504   2.790  13.042 -0.1664  0.0105  0.1132
 2587W        W 6638   9.556   8.051  11.791 -0.0064  0.0974  0.0493
 2588W        W 6639   7.524   0.784   9.046 -0.2181  0.0013  0.1012
 2589W        W 6640   0.825   4.652   9.264  0.2712 -0.3290  0.0716
 2590W        W 6641  10.110   3.125   4.847 -0.1094  0.2180  0.3269
 2591W        W 6642   1.444   7.099   4.399  0.0967 -0.2171  0.0582
 2592W        W 6643   7.332   8.003  10.623  0.1939 -0.0130 -0.3206
 2593W        W 6644   7.107   7.185  13.517 -0.0144  0.2728 -0.0328
 2594W        W 6645   2.894   0.271  13.782 -0.0415 -0.0494  0.3417
 2595W        W 6646   1.220   2.218   0.183  0.1007  0.0966  0.4003
 2596W        W 6647   3.799   4.986  10.334  0.2340 -0.0149  0.1947
 2597W        W 6648   6.216   7.051  11.583 -0.2395 -0.1849 -0.2058
 2598W        W 6649   3.176   7.201   2.760  0.2602 -0.0419  0.0485
 2599W        W 6650   4.999  10.045  10.072 -0.0708  0.2695 -0.1136
 2600W        W 6651   2.240   3.462  10.305  0.1055  0.0909  0.3198
 2601W        W 6652   5.153   4.125   1.406  0.3804 -0.1530  0.0035
 2602W        W 6653   9.482   2.559  11.004  0.0045 -0.2352 -0.0703
 2603W        W 6654   6.302   6.544   2.096 -0.0780  0.0946 -0.0221
 2604W        W 6655   9.298   4.671   1.841 -0.0118  0.0808  0.1365
 2605W        W 6656   8.689  10.124  13.265  0.1949  0.0862 -0.0353
 2606W        W 6657   4.802  10.072   2.264  0.0963 -0.0938 -0.1675
 2607W        W 6658   9.624   5.861   1.693 -0.1378  0.1585 -0.0208
 2608W        W 6659   6.703   1.674   9.011 -0.0918 -0.0543 -0.2424
 2609W        W 6660   8.400   5.496  13.538  0.1461 -0.1026  0.0560
 2610W        W 6661   1.788   4.021   2.222  0.1824  0.1573  0.0044
 2611W        W 6662   3.657   1.099   2.692 -0.0525 -0.0135  0.0028
 2612W        W 6663   4.942   3.341   4.166 -0.2463  0.0933 -0.0077
 2613W        W 6664   1.180   0.932   4.364 -0.0946  0.0787  0.0533
 2614W        W 6665   9.639   4.386  10.390  0.3498 -0.0764 -0.1232
 2615W        W 6666   9.318   7.537  11.786  0.2463  0.1526 -0.2126
 2616W        W 6667   1.364   6.051  10.130  0.0133  0.1182  0.0411
 2617W        W 6668   8.403   8.991   3.545  0.2087 -0.0198  0.1408
 2618W        W 6669   6.423   7.293   1.016  0.1913 -0.0146 -0.1872
 2619W        W 6670   2.422   7.252  10.659  0.3472 -0.1277 -0.0770
 2620W        W 6671   9.650   0.580   3.887 -0.0221  0.0392 -0.0105
 2621W        W 6672   4.023   6.379  12.340  0.0554 -0.2834  0.0301
 2622W        W 6673   4.201   4.356  13.759  0.0103 -0.0633  0.1879
 2623W        W 6674   8.298   3.748   5.049  0.0989 -0.0086  0.1517
 2624W        W 6675   4.039   6.883  12.559 -0.1488  0.2777  0.0944
 2625W        W 6676   9.292   4.104   5.098  0.4159  0.3704 -0.1186
 2626W        W 6677   3.003   7.211   3.625 -0.2117 -0.1780 -0.3013
 2627W        W 6678   9.399   0.478   4.931 -0.3682 -0.1442  0.2636
 2628W        W 6679   9.356   4.671   8.547  0.1335 -0.2614  0.1986
 2629W        W 6680   8.499   1.831   3.366 -0.1922 -0.0491 -0.0448
 2630W        W 6681   4.303   4.542   8.945 -0.0254  0.0297 -0.2844
 2631W        W 6682   4.555   4.414   3.790 -0.0709 -0.0716 -0.0223
 2632W        W 6683   2.899   6.404   2.536  0.0583 -0.0958  0.1152
 2633W        W 6684   6.807   6.642   2.289 -0.0773 -0.1614  0.1613
 2634W        W 6685   8.395   0.855   4.578  0.0504 -0.0176 -0.2057
 2635W        W 6686   9.961  10.032  12.815  0.2119 -0.0224 -0.0137
 2636W        W 6687   9.211   9.345   4.626  0.0147 -0.0223  0.1919
 2637W        W 6688   9.064   1.263  12.781  0.3767  0.2480 -0.0799
 2638W        W 6689   2.527   6.020   0.458  0.2589 -0.0574 -0.3173
 2639W        W 6690   0.438   9.444   5.507 -0.1922 -0.1742 -0.0286
 2640W        W 6691   5.081   4.799  11.634 -0.1231 -0.3804  0.1355
 2641W        W 6692   1.811   2.499   5.175 -0.0401  0.1140  0.2663
 2642W        W 6693   4.844   0.304   9.641 -0.2984 -0.2849 -0.1630
 2643W        W 6694   6.880   9.699   2.678 -0.1428  0.0033 -0.2544
 2644W        W 6695   7.716   6.322   1.926  0.3223  0.3756 -0.0878
 2645W        W 6696   3.286   8.907  13.260  0.3151  0.1297 -0.2986
 2646W        W 6697   5.628   3.997   4.994 -0.0922 -0.0439  0.0610
 2647W        W 6698   4.646   3.480  11.872 -0.3486  0.1575  0.0664
 2648W        W 6699   3.994   4.984  12.733 -0.2192 -0.2683  0.0181
 2649W        W 6700   0.409   1.507   4.535  0.1126 -0.0495  0.1734
 2650W        W 6701   5.679   1.639  11.235  0.0221  0.2643 -0.0355
 2651W        W 6702   1.563   4.284   9.271 -0.0914  0.0329 -0.1850
 2652W        W 6703   8.200   4.414  10.402 -0.1299 -0.0993  0.1451
 2653W        W 6704   4.236   2.448   4.101 -0.1038 -0.0040 -0.1133
 2654W        W 6705   7.177   4.863   3.890 -0.1522  0.2279  0.2930
 2655W        W 6706   4.379   3.455   9.472 -0.0560 -0.1084  0.0161
 2656W        W 6707   3.395   5.454   0.668 -0.1281  0.0383  0.0433
 2657W        W 6708   2.801  10.015  11.951 -0.1228 -0.1003  0.1736
 2658W        W 6709   4.107   9.422  10.055  0.1597 -0.3915 -0.0456
 2659W        W 6710   4.622   3.412  10.917 -0.3688  0.3223 -0.0398
 2660W        W 6711   1.577   2.886   2.620 -0.1844 -0.3181  0.0652
 2661W        W 6712   6.541   8.208   3.397  0.2835  0.0197  0.1632
 2662W        W 6713   2.852   7.981  13.224 -0.2778  0.1071 -0.1929
 2663W        W 6714   0.463   0.317   4.056  0.1803  0.0454  0.0645
 2664W        W 6715   1.681   1.995  12.048 -0.1299 -0.0118  0.1821
 2665W        W 6716   0.646   8.313   9.076  0.1294 -0.0642  0.2487
 2666W        W 6717   9.490   7.428   3.818  0.0886 -0.3915  0.0086
 2667W        W 6718   3.906   2.211   3.060 -0.1933  0.2249 -0.3515
 2668W        W 6719   4.607   6.286   9.804 -0.1784  0.0156  0.1095
 2669W        W 6720   6.131  10.105   2.053  0.0467  0.0746 -0.0328
 2670W        W 6721   2.752   3.844   3.894  0.2487 -0.1224 -0.1805
 2671W        W 6722   6.167   0.385  11.213 -0.0448 -0.2611  0.0082
 2672W        W 6723   8.893   1.093   1.766 -0.0483  0.0516  0.1815
 2673W        W 6724   7.294  10.158  13.288  0.1231 -0.3345  0.0407
 2674W        W 6725   3.134  10.188  13.498  0.3244 -0.1730 -0.0725
 2675W        W 6726   9.066   3.421  13.147  0.0453 -0.3696 -0.2516
 2676W        W 6727   4.218   0.861   9.599  0.2267  0.1747  0.1064
 2677W        W 6728   4.537   0.632   4.369 -0.3753  0.0925 -0.1495
 2678W        W 6729   2.387   3.241   4.913 -0.1964 -0.0027  0.2522
 2679W        W 6730   0.784   1.644  11.828 -0.0344 -0.0453  0.0014
 2680W        W 6731   9.902   4.231  12.598 -0.0188 -0.0702 -0.3469
 2681W        W 6732   3.813   3.318  11.661  0.1424  0.1899 -0.0085
 2682W        W 6733   8.565   8.800   1.345  0.0909 -0.0765  0.1821
 2683W        W 6734   2.072   4.144   4.780  0.2258  0.0150  0.3189
 2684W        W 6735   0.728   6.533   3.935  0.3140  0.0096 -0.1018
 2685W        W 6736   2.392   8.792   4.803  0.0070 -0.1895  0.1971
 2686W        W 6737   3.061   0.141   1.155  0.1816 -0.1902  0.0991
 2687W        W 6738   7.443   4.182   4.129  0.0082 -0.0352 -0.0709
 2688W        W 6739   1.352   9.201   5.242 -0.4323  0.0262 -0.1143
 2689W        W 6740   9.032   9.236  13.095  0.2345  0.1325  0.2739
 2690W        W 6741   4.461   9.135  12.515  0.2391 -0.1514  0.0566
 2691W        W 6742   8.722   7.702   3.464 -0.1406 -0.2498  0.0268
 2692W        W 6743   0.858   3.723   0.815 -0.3666 -0.0477 -0.0980
 2693W        W 6744   7.599   9.487   3.838  0.0354 -0.4673 -0.1389
 2694W        W 6745   9.908   9.468   2.134 -0.1841  0.1668  0.0123
 2695W        W 6746   5.578   9.074  13.638 -0.0182 -0.1445  0.1779
 2696W        W 6747   2.583   7.739  10.726  0.2616  0.2474 -0.0415
 2697W        W 6748   2.295   4.216   3.178 -0.3333 -0.0756 -0.0937
 2698W        W 6749   1.696   1.351  11.940 -0.0079 -0.4233 -0.0560
 2699W        W 6750   1.025   5.445   2.141 -0.1739  0.1193 -0.1153
 2700W        W 6751   5.353   1.851   1.448  0.2636  0.2243 -0.3199
 2701W        W 6752   1.141   2.737   0.569  0.1220  0.0640  0.2093
 2702W        W 6753   3.396   0.803   0.832  0.1103  0.2947 -0.0319
 2703W        W 6754   4.891   8.979  11.970 -0.4223 -0.3210 -0.0809
 2704W        W 6755   4.213   9.559  12.738  0.0175  0.1563  0.2240
 2705W        W 6756   7.301   3.602   9.592 -0.1192 -0.2586  0.1782
 2706W        W 6757   9.154   7.481   4.853  0.1828  0.0122 -0.2313
 2707W        W 6758   6.804   4.895   9.697  0.2169  0.3361 -0.0106
 2708W        W 6759   3.761   2.681   9.481  0.0443  0.0206  0.0218
 2709W        W 6760   6.784   1.093  13.837  0.0629 -0.2678 -0.2967
 2710W        W 6761   4.008   0.610  13.414  0.0904  0.3288  0.0873
 2711W        W 6762   4.154   6.428   1.554  0.4556 -0.0313 -0.1829
 2712W        W 6763   7.714   1.808  10.460  0.3723  0.1100  0.0086
 2713W        W 6764   0.116   8.178   1.939 -0.1184 -0.1763  0.0174
 2714W        W 6765   7.047   3.329  13.812 -0.2048 -0.0486 -0.7317
 2715W        W 6766   3.817   4.562  10.810 -0.0514  0.3364 -0.0493
 2716W        W 6767   0.502   0.021   1.514 -0.0872  0.1869  0.2829
 2717W        W 6768   7.962   1.295   4.419  0.0223 -0.0285  0.3096
 2718W        W 6769   9.173   2.448   8.976 -0.0316 -0.0745 -0.0106
 2719W        W 6770   6.740   3.309   4.854 -0.3712 -0.0803  0.0404
 2720W        W 6771   7.094   7.005  12.492  0.2589  0.0133 -0.0206
 2721W        W 6772   1.111   3.488   1.224  0.0253 -0.3638 -0.1149
 2722W        W 6773   6.283   4.974  12.252  0.3553  0.1211  0.1027
 2723W        W 6774   3.817   6.380  11.857 -0.0970 -0.0319  0.2623
 2724W        W 6775   2.366   7.347  11.669  0.1962 -0.4206 -0.0972
 2725W        W 6776   3.254   9.680   9.806  0.4407  0.2748  0.0319
 2726W        W 6777   8.822   7.947   3.035  0.0364  0.1090  0.0425
 2727W        W 6778   4.343   2.936   4.711 -0.0614  0.3027 -0.1275
 2728W        W 6779   6.705   1.598  11.937 -0.0577 -0.0275  0.1046
 2729W        W 6780   3.417   5.098  11.097 -0.1055  0.0887  0.1605
 2730W        W 6781   5.874   8.339   2.865 -0.4194 -0.0608  0.0458
 2731W        W 6782   3.905   1.391  11.386 -0.0512  0.2306 -0.1508
 2732W        W 6783   5.690   2.559  11.884  0.0344  0.0569  0.1098
 2733W        W 6784   3.124   9.229   1.567  0.1956 -0.0192 -0.0958
 2734W        W 6785   1.931   7.108   4.325 -0.0458  0.0327  0.1067
 2735W        W 6786   2.246   2.115   0.242 -0.0886  0.0718 -0.1576
 2736W        W 6787   7.742   1.549   3.034 -0.3722  0.2116  0.3139
 2737W        W 6788   9.497   1.269   0.047 -0.0331  0.2003  0.2323
 2738W        W 6789   7.921   2.499   3.013 -0.0174 -0.1215 -0.1100
 2739W        W 6790  10.159   4.947   8.869  0.0417 -0.2545  0.1949
 2740W        W 6791   1.867   3.901   9.402  0.2815  0.1382  0.1051
 2741W        W 6792   4.734   3.826  12.819  0.1290 -0.3956  0.0885
 2742W        W 6793   5.838   5.728   0.004 -0.0778 -0.4209  0.0702
 2743W        W 6794   9.093   1.110  11.775  0.0303  0.0012 -0.0350
 2744W        W 6795   0.768   1.238   3.257  0.1350  0.0494 -0.1527
 2745W        W 6796   0.006   9.486  13.292 -0.0551 -0.0904  0.1502
 2746W        W 6797   9.138   1.571  11.519 -0.2704 -0.0733 -0.1089
 2747W        W 6798   7.679  10.040   3.104  0.0153  0.1561  0.1961
 2748W        W 6799   0.084   2.795  10.901  0.1545  0.0351 -0.2014
 2749W        W 6800   0.367   9.864   3.335  0.1783 -0.4166 -0.5240
 2750W        W 6801   4.649   9.411  13.729  0.0441  0.0251  0.2335
 2751W        W 6802   4.621   9.617   2.965 -0.1411 -0.4746 -0.1617
 2752W        W 6803   2.312   0.163  11.136 -0.0436  0.0186 -0.1137
 2753W        W 6804   0.368   8.386  13.693  0.3027  0.4529  0.3088
 2754W        W 6805   3.614   5.556   1.440 -0.0222  0.1423  0.2419
 2755W        W 6806   0.805   3.911  10.838  0.1422 -0.0739  0.1892
 2756W        W 6807   1.838   5.168   8.954  0.0817 -0.1107 -0.1061
 2757W        W 6808   7.207   0.057   4.254  0.1341  0.7881 -0.0119
 2758W        W 6809   9.611  10.166   1.873 -0.1168 -0.3611 -0.1808
 2759W        W 6810  10.000   4.431  10.732  0.0803 -0.0876  0.1107
 2760W        W 6811   2.984   0.031   9.895  0.4433  0.0360 -0.1712
 2761W        W 6812   0.717   5.341  12.649 -0.0520 -0.1855 -0.2320
 2762W        W 6813   7.634   5.560   1.336 -0.1758 -0.1039  0.3425
 2763W        W 6814   3.420   5.397  11.525  0.5061 -0.2376 -0.2215
 2764W        W 6815   7.126   0.932   9.293 -0.0501  0.1867 -0.2321
 2765W        W 6816   6.140   6.735  12.724 -0.2375 -0.0450 -0.1705
 2766W        W 6817   2.224  10.153   4.207 -0.3058 -0.1810 -0.1202
 2767W        W 6818   1.035   6.797   4.218 -0.0337 -0.0211 -0.0890
 2768W        W 6819   5.782   7.360   1.081 -0.0945  0.1411  0.0029
 2769W        W 6820   3.502   8.257   3.120 -0.5377 -0.0742 -0.0086
 2770W        W 6821   0.980   4.833   9.702  0.1841 -0.0144  0.1992
 2771W        W 6822   8.298   3.385   4.658  0.2094 -0.0198 -0.2712
 2772W        W 6823   0.702   0.137  10.294  0.0354  0.0073  0.0233
 2773W        W 6824   7.101   0.469   2.905 -0.1107 -0.2877 -0.1006
 2774W        W 6825   6.474   4.924   4.656  0.0870  0.2171 -0.1274
 2775W        W 6826   6.443   4.714  11.706 -0.0992  0.2438 -0.2607
 2776W        W 6827   8.834   9.003   0.513  0.4608 -0.1340 -0.0196
 2777W        W 6828   6.338   1.059   9.844  0.0518  0.0857 -0.0112
 2778W        W 6829   1.002   7.171   9.487 -0.1765 -0.1063  0.1232
 2779W        W 6830   1.553   8.120   3.574  0.1521 -0.0256  0.0913
 2780W        W 6831   6.846   7.385  12.734  0.2497 -0.1679  0.1360
 2781W        W 6832   4.346   5.964  13.558 -0.1652  0.1339  0.2369
 2782W        W 6833   0.672   3.436   4.413  0.5053  0.2218 -0.1759
 2783W        W 6834   1.325   9.523  11.616  0.1072 -0.0712  0.2695
 2784W        W 6835   5.162   5.401  10.272 -0.2189  0.0903  0.0041
 2785W        W 6836   7.981   8.522  10.803  0.0544  0.0594 -0.1930
 2786W        W 6837   1.716   7.289   3.407 -0.2566 -0.0926 -0.3295
 2787W        W 6838   5.087   4.556   3.065  0.0387 -0.0253 -0.1311
 2788W        W 6839   3.366   7.003   1.248 -0.2236  0.0053  0.0189
 2789W        W 6840   1.604   9.835  11.253 -0.0614  0.2307  0.1201
 2790W        W 6841   9.447   0.660  11.354  0.1026 -0.0916 -0.2232
 2791W        W 6842   1.751   2.933   0.000 -0.0503  0.3015 -0.0751
 2792W        W 6843   5.699   0.580  13.380 -0.0347 -0.1398 -0.0207
 2793W        W 6844   9.427   8.695   1.845 -0.1427 -0.2783  0.0407
 2794W        W 6845   2.247   9.937  13.743  0.2909  0.0096 -0.0918
 2795W        W 6846   0.113   0.326   1.457  0.4026  0.2050  0.1756
 2796W        W 6847   8.866   4.423   3.885 -0.0789  0.0899 -0.0483
 2797W        W 6848   6.126   3.373   1.735 -0.1600 -0.4417  0.0258
 2798W        W 6849   2.100   1.774   9.561  0.0108 -0.0961 -0.1176
 2799W        W 6850   3.566   2.528   9.963  0.0093  0.1549  0.2703
 2800W        W 6851   0.185   5.863  13.768  0.3142  0.2133 -0.1719
 2801W        W 6852   7.407   2.389   9.707 -0.1000  0.3815 -0.0194
 2802W        W 6853   4.273   4.172   3.409 -0.1539  0.0212 -0.1051
 2803W        W 6854   9.979   4.472   3.080 -0.2457  0.1132 -0.3227
 2804W        W 6855   9.115   1.122   3.041 -0.1047 -0.3003  0.3277
 2805W        W 6856   4.354   3.717   1.165 -0.1233  0.1473  0.1315
 2806W        W 6857   3.736   4.964  11.451  0.0430  0.0279  0.2878
 2807W        W 6858   2.375   6.790   9.491  0.1235  0.0511 -0.2039
 2808W        W 6859   5.817   6.670  12.316  0.1223  0.1295 -0.3072
 2809W        W 6860   6.537   8.568   1.798 -0.2499 -0.0759 -0.1071
 2810W        W 6861   9.605   5.865   2.975  0.1184  0.0480  0.1049
 2811W        W 6862   1.089   7.046   2.120 -0.1573 -0.4093 -0.0876
 2812W        W 6863   1.710   9.538  13.068  0.1289 -0.1789 -0.0891
 2813W        W 6864   2.018   2.261   9.508 -0.0427  0.0837  0.0866
 2814W        W 6865   5.884   0.440   2.840 -0.0158 -0.0020 -0.2192
 2815W        W 6866   4.937   6.434   0.543 -0.1542 -0.2559 -0.3438
 2816W        W 6867   3.391   1.281   1.734 -0.1966  0.0749  0.0557
 2817W        W 6868   0.983   3.214  10.096  0.2591 -0.2626 -0.1469
 2818W        W 6869   8.657   4.576   1.635  0.0780 -0.0641 -0.0726
 2819W        W 6870   3.121   6.685   1.499  0.0653  0.0526 -0.2065
 2820W        W 6871   4.067   2.396   1.402 -0.0874  0.1412 -0.0400
 2821W        W 6872   6.633   7.313   3.793  0.2249  0.1151  0.5321
 2822W        W 6873   0.643   4.121  13.386 -0.2734 -0.0925  0.0665
 2823W        W 6874   8.663   3.168   4.944  0.2505 -0.1946  0.3630
 2824W        W 6875   0.266   2.542   3.769 -0.2786 -0.1538 -0.0405
 2825W        W 6876   8.221   9.803  10.516 -0.2802  0.1751  0.0316
 2826W        W 6877   8.198   3.297   9.604 -0.3995 -0.0622  0.2323
 2827W        W 6878   4.094   0.065  13.579  0.4147 -0.1548 -0.1867
 2828W        W 6879   5.489   0.995  12.198 -0.1170  0.1598 -0.0507
 2829W        W 6880   2.522   5.081   5.497  0.2375 -0.0806  0.1592
 2830W        W 6881   0.182   7.409   8.943 -0.2267  0.3662  0.2421
 2831W        W 6882   8.114   0.147   3.119  0.0257  0.3152 -0.0354
 2832W        W 6883   2.312   6.980   2.520 -0.0263 -0.0916  0.1100
 2833W        W 6884   4.182   6.546   0.867 -0.2445  0.4685 -0.2385
 2834W        W 6885   7.091   0.437   0.430 -0.1370  0.2208  0.0187
 2835W        W 6886   9.885   9.073  10.083  0.0004  0.0493 -0.3498
 2836W        W 6887   4.949   0.180  13.085 -0.0674  0.1553 -0.1814
 2837W        W 6888   0.265   3.754   4.177 -0.1548 -0.2134 -0.1685
 2838W        W 6889   4.725   9.590   1.310 -0.1966 -0.1326 -0.1290
 2839W        W 6890   4.615   8.241   0.804 -0.0979  0.2128  0.3323
 2840W        W 6891   6.202   1.659  10.371 -0.0472 -0.2072 -0.0009
 2841W        W 6892   6.196   5.253   4.913  0.1650  0.4904 -0.0306
 2842W        W 6893   2.341   2.254   4.821  0.0142  0.1368  0.4581
 2843W        W 6894   0.884   6.826  10.074 -0.4239  0.2207 -0.0612
 2844W        W 6895   5.094   5.927   0.656 -0.0008 -0.3325  0.0895
 2845W        W 6896   4.277   1.643   9.967 -0.2008  0.2160  0.2116
 2846W        W 6897   3.111   6.837   2.371 -0.1849 -0.0490  0.0713
 2847W        W 6898   6.274   6.883  13.256 -0.0514  0.0580  0.0405
 2848W        W 6899   5.359   0.297  11.894 -0.0094  0.0045 -0.0340
 2849W        W 6900   8.888   2.246   4.549 -0.0134 -0.0787  0.0609
 2850W        W 6901   9.039   4.486   1.383 -0.0103 -0.2167 -0.0273
 2851W        W 6902   8.123   4.111   0.454 -0.2601 -0.1885 -0.0846
 2852W        W 6903   1.743   6.704   4.091 -0.0329  0.2783 -0.3733
 2853W        W 6904   9.949   6.390   5.344  0.0609  0.0620 -0.3303
 2854W        W 6905   7.428   2.320   0.868  0.1363  0.3480  0.0917
 2855W        W 6906   2.289  10.159   1.500 -0.0475 -0.1189 -0.1606
 2856W        W 6907   7.493   0.388  13.764  0.0555 -0.0232 -0.0179
 2857W        W 6908   1.789   0.797   1.785 -0.1449 -0.0484 -0.0589
 2858W        W 6909   8.438   4.598  11.922 -0.1809  0.1926  0.0023
 2859W        W 6910   9.778   5.709   3.649  0.0438  0.1581  0.2998
 2860W        W 6911   9.713   5.064   9.221 -0.2828 -0.1995  0.0035
 2861W        W 6912   3.287  10.026   2.395  0.1710  0.4765  0.0557
 2862W        W 6913   4.121   9.466  12.172 -0.1628  0.0207  0.0842
 2863W        W 6914   1.963   8.399   3.764  0.0055 -0.3118 -0.1011
 2864W        W 6915   0.912   8.206   3.770  0.2083  0.1276  0.2854
 2865W        W 6916   6.549   1.958   9.472 -0.0093 -0.2182 -0.1911
 2866W        W 6917   2.603   8.308   1.420 -0.2412  0.0895  0.0991
 2867W        W 6918   6.781   5.632   0.926  0.0877 -0.0421 -0.0864
 2868W        W 6919   7.421   1.284   3.833 -0.2617  0.2081 -0.2297
 2869W        W 6920   0.908   9.672   0.496  0.0931  0.1237  0.0334
 2870W        W 6921   6.752   4.744  12.620  0.0442 -0.0977 -0.1360
 2871W        W 6922   7.582   9.300   1.046 -0.1456 -0.3876 -0.0906
 2872W        W 6923   6.495   4.419   3.408  0.1657 -0.1444  0.3002
 2873W        W 6924   0.172   6.343  13.851 -0.0141 -0.0180 -0.3779
 2874W        W 6925   6.282   9.861   1.623  0.0483 -0.2557 -0.0770
 2875W        W 6926   6.363   7.624  12.430  0.0289  0.3354  0.4287
 2876W        W 6927   6.771   6.064  11.663 -0.0879 -0.2430  0.2884
 2877W        W 6928   0.554   8.904   3.100 -0.1109 -0.2089  0.1729
 2878W        W 6929   8.716   3.631   1.318 -0.0096  0.4567 -0.1111
 2879W        W 6930   6.367   7.183   3.270  0.0232  0.2173  0.0889
 2880W        W 6931   7.419   0.950   5.109 -0.2093 -0.1697 -0.1005
 2881W        W 6932   8.731   2.524   5.263 -0.2812 -0.2294  0.1784
 2882W        W 6933   9.921   9.425  10.563  0.2169  0.0917  0.0788
 2883W        W 6934   3.022   2.797   9.901 -0.3538  0.0386 -0.2738
 2884W        W 6935   3.400   1.247   4.558 -0.0173  0.2319  0.3920
 2885W        W 6936   6.418   5.866   1.353 -0.3703 -0.1115  0.0937
 2886W        W 6937   3.867   5.260  13.340 -0.0085 -0.0449 -0.1185
 2887W        W 6938   5.392   0.619   1.918 -0.0005  0.1090  0.0618
 2888W        W 6939   4.808   2.468  10.722  0.2066  0.3862 -0.0414
 2889W        W 6940   3.528   6.290  11.424  0.1452  0.0337  0.1063
 2890W        W 6941   7.342   1.253  12.467  0.0053  0.1459 -0.1083
 2891W        W 6942   2.319   2.331   3.207  0.2097 -0.0812 -0.2433
 2892W        W 6943   5.429   0.885   9.096  0.1380 -0.2725  0.0371
 2893W        W 6944   4.494   1.940  10.412 -0.1278  0.1821 -0.2567
 2894W        W 6945   4.890   5.936   9.977  0.0824  0.0723  0.0034
 2895W        W 6946   7.772   9.016  10.892  0.1222  0.0780  0.0151
 2896W        W 6947   8.385   9.273   0.494 -0.2582  0.0748 -0.1579
 2897W        W 6948   1.228   7.316   0.457 -0.1909 -0.2524  0.0590
 2898W        W 6949   1.866   4.342  12.448  0.0789 -0.0339  0.0472
 2899W        W 6950   5.969   5.625  11.846  0.1603  0.1530  0.4473
 2900W        W 6951   0.504   3.234   3.891  0.1090  0.2209  0.0490
 2901W        W 6952   3.353   8.522  10.576  0.1590  0.1773  0.3029
 2902W        W 6953   8.268   0.840   0.021  0.0013  0.1508  0.2925
 2903W        W 6954   6.885   6.379  11.253  0.1276 -0.1437  0.0866
 2904W        W 6955   7.274   7.544   3.159  0.1800  0.1998 -0.0931
 2905W        W 6956   5.676   7.954  12.753 -0.1458  0.1162 -0.1849
 2906W        W 6957   1.310   1.839   3.777 -0.2024  0.1929 -0.1059
 2907W        W 6958   3.400   6.292   2.385  0.1913 -0.0981 -0.1700
 2908W        W 6959   9.913   1.954  13.084  0.1828  0.0131 -0.1080
 2909W        W 6960   2.276   4.733   9.611 -0.1466  0.0851  0.1851
 2910W        W 6961   6.778   9.613  10.439 -0.1923  0.0172 -0.0098
 2911W        W 6962   0.144   8.553   3.097  0.0926  0.0254 -0.1531
 2912W        W 6963   6.502   2.992   2.638  0.2005 -0.1075  0.0128
 2913W        W 6964   5.137   4.328  11.302 -0.0506 -0.2086  0.1853
 2914W        W 6965   2.992   5.661  10.453 -0.0361  0.2140  0.0702
 2915W        W 6966   3.252   7.006  10.701 -0.3174 -0.3832  0.1632
 2916W        W 6967   3.078   8.397  13.859  0.3297  0.0629 -0.0576
 2917W        W 6968   7.887   7.273  11.429  0.1196 -0.2333  0.0482
 2918W        W 6969   8.940   0.611   8.902  0.1598  0.2162 -0.0175
 2919W        W 6970   7.201   8.543   9.565  0.3962  0.1075 -0.2259
 2920W        W 6971   0.024   9.459  12.566  0.2023  0.1561 -0.1094
 2921W        W 6972   2.672   9.285   3.970 -0.0191  0.1235  0.2944
 2922W        W 6973   4.960   4.375   0.873 -0.1181 -0.0792 -0.3942
 2923W        W 6974   7.987   7.322  12.301  0.0027  0.3141  0.1506
 2924W        W 6975   3.541   1.810  11.366  0.1018  0.2243  0.0204
 2925W        W 6976   0.153   8.635   4.947  0.1515  0.2076  0.1754
 2926W        W 6977   4.249   9.467  11.692  0.0379  0.0201  0.2010
 2927W        W 6978   3.870   8.954   1.888 -0.0004 -0.1069  0.1093
 2928W        W 6979   7.036   9.492   1.074  0.1359  0.0470  0.2353
 2929W        W 6980   5.828   6.121  12.641  0.2355 -0.3899  0.2281
 2930W        W 6981   6.843   9.827   0.063 -0.0295 -0.0734  0.1747
 2931W        W 6982   3.503   9.064  12.378  0.0035  0.1405 -0.2848
 2932W        W 6983   4.987   6.173   2.910  0.0716 -0.0980 -0.1573
 2933W        W 6984   0.654   5.346  11.926 -0.0041  0.1267  0.0481
 2934W        W 6985   1.092   5.139  10.268 -0.0386 -0.1562 -0.2094
 2935W        W 6986   5.999   3.153   1.321  0.2460  0.1648  0.2028
 2936W        W 6987   6.792   9.178   2.628 -0.1810 -0.0677  0.2173
 2937W        W 6988   7.272   0.922   3.083 -0.0537 -0.1522 -0.1012
 2938W        W 6989   7.703   1.326  12.806 -0.0679 -0.0667  0.1238
 2939W        W 6990   7.565   8.400   0.124 -0.0727 -0.0032 -0.3941
 2940W        W 6991   3.696   7.053  11.034  0.1455  0.0911  0.0339
 2941W        W 6992   1.362   0.085   5.227  0.0815 -0.2411  0.2040
 2942W        W 6993   2.855   5.129  11.785 -0.0063  0.3430  0.0807
 2943W        W 6994   4.396   1.220  13.253  0.1943  0.1368 -0.1035
 2944W        W 6995   9.833   1.663   5.087  0.1479  0.1155  0.0542
 2945W        W 6996   6.332   6.008  11.916 -0.2233 -0.0407 -0.1858
 2946W        W 6997   4.613   4.636  10.042 -0.0159 -0.1016  0.1406
 2947W        W 6998  10.039   6.145  13.599  0.1798  0.1488  0.2200
 2948W        W 6999   3.238   6.941  11.846 -0.2301 -0.0763 -0.2277
 2949W        W 7000   7.423   0.234   9.779  0.0568 -0.1969  0.1518
 2950W        W 7001   6.148   6.578   9.517 -0.0587  0.2318 -0.3958
 2951W        W 7002   6.277   0.403  13.383 -0.1056  0.0118  0.0268
 2952W        W 7003   8.179   0.679   3.796  0.0759  0.0732 -0.4377
 2953W        W 7004   6.597   9.024   1.423  0.0881  0.0051 -0.3174
 2954W        W 7005   0.014   9.529  10.160 -0.2204 -0.2265 -0.1434
 2955W        W 7006   9.833   7.979   0.595 -0.1775 -0.1592 -0.0697
 2956W        W 7007   4.520   5.916  12.800 -0.0825 -0.2158  0.1138
 2957W        W 7008   7.625   0.580  11.034 -0.3358 -0.2634 -0.0824
 2958W        W 7009   8.430   8.827   1.893  0.1187  0.1230 -0.1990
 2959W        W 7010   8.186   1.471  10.327 -0.0712 -0.6437 -0.1744
 2960W        W 7011   7.743   9.070   3.012 -0.1751  0.1303 -0.3378
 2961W        W 7012   3.653   8.504  12.527  0.0479  0.0515 -0.0672
 2962W        W 7013   2.034   5.491   3.016 -0.0426 -0.1133  0.2914
 2963W        W 7014   9.568   2.460   1.228 -0.1604 -0.0670  0.3000
 2964W        W 7015   2.505   8.318   3.820 -0.2899  0.0382  0.3943
 2965W        W 7016   1.025   9.061  11.447  0.1427 -0.0317 -0.0308
 2966W        W 7017   5.957   4.766  11.410  0.1642  0.1683  0.2284
 2967W        W 7018   1.825   3.855  11.955 -0.3281  0.1662  0.2025
 2968W        W 7019  10.110   2.412  13.010  0.1697 -0.0470  0.0144
 2969W        W 7020   9.288   0.626   4.261  0.0139  0.1383 -0.1523
 2970W        W 7021   6.765   5.214   0.577  0.0421 -0.2547 -0.2522
 2971W        W 7022   1.212   7.270   3.411 -0.0976  0.0130  0.2880
 2972W        W 7023  10.091   1.128   0.356  0.2514 -0.0521  0.0756
 2973W        W 7024   9.199   3.902   2.068  0.2468  0.2654 -0.3308
 2974W        W 7025   3.349   5.926   1.276  0.1219 -0.0648  0.0104
 2975W        W 7026   4.387   5.410   1.653 -0.0483 -0.2370 -0.1905
 2976W        W 7027   1.349   2.783  12.663  0.2674 -0.0146 -0.1499
 2977W        W 7028   7.803   0.700   0.081  0.1049  0.3926  0.0689
 2978W        W 7029   2.997   4.456   3.244 -0.0909  0.1589 -0.0317
 2979W        W 7030   2.872   3.425   2.343  0.1513  0.3930  0.1643
 2980W        W 7031   7.657   2.757  10.218  0.2302 -0.0874 -0.3339
 2981W        W 7032   8.168   2.124  12.603  0.0047  0.1452 -0.1291
 2982W        W 7033   3.807   8.958  13.445  0.2646  0.1674  0.1985
 2983W        W 7034   6.253   6.944  10.700  0.0756  0.0793 -0.0676
 2984W        W 7035   5.354   8.480  10.950  0.0462 -0.2468 -0.1820
 2985W        W 7036   6.746   1.155  10.213  0.0929  0.2420  0.5073
 2986W        W 7037   2.822   1.124   0.777 -0.4792 -0.1542 -0.1760
 2987W        W 7038   4.130   1.171   1.373 -0.2396  0.0795 -0.1025
 2988W        W 7039   6.816   7.759   1.693 -0.0036  0.1511 -0.0922
 2989W        W 7040   4.246   6.123   1.164 -0.0119 -0.2295 -0.1636
 2990W        W 7041  10.102   3.694  12.161 -0.0454  0.1350 -0.0199
 2991W        W 7042   9.404  10.140   4.881  0.2757 -0.1445  0.0380
 2992W        W 7043  10.158   3.740   2.556 -0.1562  0.2144 -0.0093
 2993W        W 7044   5.385   2.259   2.329  0.2936  0.0800  0.3255
 2994W        W 7045   7.429   1.814   1.036 -0.3809  0.1571  0.0896
 2995W        W 7046   4.363   4.963   9.799 -0.1121 -0.1737  0.1431
 2996W        W 7047   3.999   4.537   3.909 -0.4831 -0.0247  0.1491
 2997W        W 7048   7.475   7.137  12.148  0.0372 -0.2740  0.1209
 2998W        W 7049   1.852   8.045   4.547  0.1034 -0.0390  0.1333
 2999W        W 7050   6.031   9.207  13.358  0.1675 -0.1003  0.1620
 3000W        W 7051   8.454   4.557  13.583  0.0501 -0.1610  0.0200
 3001W        W 7052   6.988   2.257  11.052 -0.2001 -0.1198 -0.2169
 3002W        W 7053   4.193   7.773  12.229  0.5643 -0.0615 -0.2059
 3003W        W 7054   4.009   3.404   0.520  0.3062  0.1110  0.0979
 3004W        W 7055   1.169   2.472  11.716 -0.1723  0.1510 -0.1702
 3005W        W 7056   1.678   4.359  13.706 -0.0212 -0.3252 -0.0398
 3006W        W 7057   4.485   6.725  12.271  0.0703  0.1661 -0.0246
 3007W        W 7058   5.001   1.037  10.596  0.1414  0.1910 -0.0814
 3008W        W 7059   6.119   8.130  10.295  0.1938 -0.0528  0.3954
 3009W        W 7060   2.200   3.001   1.927  0.1791 -0.0363  0.1345
 3010W        W 7061   3.982   6.570   9.206 -0.0567 -0.0740 -0.3436
 3011W        W 7062   4.195   3.989   2.559  0.0300 -0.2562 -0.2118
 3012W        W 7063   9.695   5.118   0.864  0.0423  0.1505 -0.0919
 3013W        W 7064   8.020   2.444   0.363  0.0313  0.0010 -0.1624
 3014W        W 7065   5.506   6.933   3.072 -0.4528  0.1447  0.1867
 3015W        W 7066   3.233   1.135   0.319 -0.0706  0.2671  0.0807
 3016W        W 7067   8.133   3.515   1.209 -0.2624  0.3366 -0.3801
 3017W        W 7068   8.120   4.412  13.154 -0.1831 -0.1799  0.1521
 3018W        W 7069   3.258   0.274  13.117  0.0418  0.2318  0.3413
 3019W        W 7070   3.365   0.325   2.288  0.0182 -0.0721  0.3387
 3020W        W 7071   0.514   5.517   0.110  0.0683 -0.2635  0.0185
 3021W        W 7072   0.668   8.124   0.526  0.0737  0.0109  0.0203
 3022W        W 7073   4.261   7.046   2.106 -0.0911  0.2002 -0.0891
 3023W        W 7074   7.249   0.158   3.756  0.0326  0.1856  0.0533
 3024W        W 7075   9.797   9.860  10.229  0.0940 -0.0457 -0.2475
 3025W        W 7076   2.646   0.785   2.113 -0.0421  0.0066 -0.1635
 3026W        W 7077   2.039   8.038   2.439  0.0215  0.2321 -0.0599
 3027W        W 7078   3.759   6.731   9.643 -0.4260 -0.0960  0.0290
 3028W        W 7079   8.749   6.211  12.228  0.2653  0.1056 -0.2389
 3029W        W 7080   8.945   1.338  12.242  0.1976 -0.1426 -0.1634
 3030W        W 7081   0.178   0.054  10.146  0.1577 -0.1483  0.2151
 3031W        W 7082   5.754   2.635  11.305 -0.2415 -0.0321 -0.1225
 3032W        W 7083   6.594   3.623   1.557  0.0095 -0.0036  0.0787
 3033W        W 7084   6.606   9.348  12.799 -0.5049 -0.0553 -0.1638
 3034W        W 7085   1.177   4.402  11.385 -0.2432 -0.1391  0.3439
 3035W        W 7086   5.042   8.396   3.572 -0.1444 -0.1142 -0.0067
 3036W        W 7087   2.466   7.327   2.885  0.0390 -0.2944 -0.2189
 3037W        W 7088   1.392   5.059  10.714  0.1118 -0.2537 -0.0041
 3038W        W 7089   0.292   8.881  13.792  0.2825  0.1454 -0.2885
 3039W        W 7090   0.534   8.868  12.902  0.0792  0.1581 -0.1425
 3040W        W 7091   8.355   0.756  13.065 -0.1088  0.0422  0.1989
 3041W        W 7092   7.443   6.584   2.204  0.0941  0.0649  0.1245
 3042W        W 7093   6.918   2.725  10.831 -0.2976  0.2419 -0.5518
 3043W        W 7094   3.431   3.334   0.739  0.1503 -0.0919  0.0678
 3044W        W 7095   6.352   2.555   1.833 -0.1717  0.2987  0.0068
 3045W        W 7096   2.685   8.607   4.218 -0.0658  0.1557 -0.0780
 3046W        W 7097   8.070   8.175  12.659 -0.1616  0.1774  0.0875
 3047W        W 7098   5.505   7.289  12.320  0.0648  0.0966  0.0240
 3048W        W 7099   4.887   1.021  13.313 -0.0396 -0.2936  0.0547
 3049W        W 7100   5.102   1.223   1.313  0.0832  0.2293  0.1955
 3050W        W 7101   2.669   3.795   2.641  0.1746 -0.0522 -0.3852
 3051W        W 7102   3.874   5.647   4.074  0.0472  0.0094  0.0049
 3052W        W 7103   2.344   6.544  10.218 -0.1498  0.0991  0.0606
 3053W        W 7104   6.820   2.700  13.605 -0.1090 -0.3544  0.0733
 3054W        W 7105   0.341   2.419  10.019  0.1005  0.0827 -0.0992
 3055W        W 7106   6.610   5.912   3.531 -0.1306 -0.0078  0.0134
 3056W        W 7107   6.202   6.066  10.382  0.5239  0.2172  0.3027
 3057W        W 7108   8.801   6.259  10.333  0.0798 -0.2086 -0.3609
 3058W        W 7109   2.676   5.639   1.951  0.1760  0.3660  0.1839
 3059W        W 7110   4.900   4.175  10.133  0.2616 -0.2374 -0.1842
 3060W        W 7111   0.963  10.052   9.549  0.3411 -0.3813 -0.2114
 3061W        W 7112   1.672   5.496  13.182  0.0658 -0.0195 -0.0257
 3062W        W 7113   6.553   8.984  13.778  0.4345  0.4353 -0.0467
 3063W        W 7114   2.178   9.211   1.446 -0.2094 -0.0120 -0.0669
 3064W        W 7115   9.890   0.206  11.428 -0.0833  0.1340 -0.0848
 3065W        W 7116   5.135   9.714   1.087 -0.2673 -0.1586  0.2055
 3066W        W 7117   8.387   7.562  13.816 -0.2253  0.3643 -0.2986
 3067W        W 7118   2.580   7.052  13.681 -0.0581 -0.1066  0.0185
 3068W        W 7119   2.691   0.480   8.995  0.0924  0.0748 -0.0529
 3069W        W 7120   1.723   1.865   2.588  0.4816 -0.1079  0.0206
 3070W        W 7121   3.577   0.321  12.617  0.0195 -0.0111 -0.0241
 3071W        W 7122   1.951   8.825   9.759 -0.3708  0.1883  0.1644
 3072W        W 7123   8.634   0.113   0.129  0.1487 -0.0875  0.1051
 3073W        W 7124   0.515   6.411  12.764  0.2456 -0.3245 -0.3315
 3074W        W 7125   8.416   2.295   3.778 -0.1440  0.1611 -0.1421
 3075W        W 7126   5.061   4.092   4.742 -0.2826 -0.0804 -0.1590
 3076W        W 7127   4.670   0.887   0.324  0.1389  0.2594 -0.2226
 3077W        W 7128   5.944   0.186  13.685  0.1366  0.3003 -0.1011
 3078W        W 7129   0.202   0.771   1.992  0.0565 -0.0910  0.1559
 3079W        W 7130   2.015   4.180  11.476 -0.1504  0.1763 -0.0325
 3080W        W 7131   0.864   9.915  13.033 -0.0172 -0.0610 -0.2738
 3081W        W 7132   0.640   1.410  12.735  0.1019 -0.2306 -0.2458
 3082W        W 7133   8.487   8.403  12.327  0.0995 -0.0134 -0.1561
 3083W        W 7134   0.306   3.514   9.522  0.1936 -0.0348  0.2729
 3084W        W 7135   6.595   5.347  10.443  0.0787  0.1239  0.1891
 3085W        W 7136   3.969   6.578   2.066 -0.1203  0.0471 -0.3359
 3086W        W 7137   3.770   1.334   0.083  0.2589  0.1011 -0.2093
 3087W        W 7138   3.624   1.338   2.146 -0.1544  0.0608 -0.0674
 3088W        W 7139   0.139   4.056  12.449 -0.0084 -0.3147  0.0414
 3089W        W 7140   9.880   6.123  12.851  0.1003  0.3221 -0.1424
 3090W        W 7141   1.784   1.571   1.018 -0.1375 -0.1357 -0.0571
 3091W        W 7142  10.134   0.743   3.606  0.0016 -0.1192  0.1386
 3092W        W 7143   6.768   1.888   0.394 -0.0339  0.1061  0.2464
 3093W        W 7144   1.422   2.063   3.305  0.0359 -0.3444  0.3073
 3094W        W 7145   9.765   7.730   3.498 -0.1461  0.0202 -0.2674
 3095W        W 7146   1.566   1.298   1.875  0.0857 -0.0536 -0.0214
 3096W        W 7147   8.666   6.331   0.081 -0.0169 -0.0620 -0.1723
 3097W        W 7148   2.104   1.606  11.953 -0.0799  0.1358 -0.2358
 3098W        W 7149   9.662   1.430  10.180 -0.0326  0.1873 -0.1040
 3099W        W 7150   6.993   3.213  10.709 -0.1895  0.0232 -0.2470
 3100W        W 7151   6.574   9.982  11.714 -0.0920 -0.2669  0.1257
 3101W        W 7152   4.519   8.669  10.647  0.1222  0.0608  0.0603
 3102W        W 7153   5.644   7.453   0.601 -0.2652  0.0900  0.0212
 3103W        W 7154   7.665   1.520   0.595  0.1710 -0.2062 -0.1785
 3104W        W 7155   7.416   2.590  11.050  0.1542 -0.0950 -0.0792
 3105W        W 7156   6.491   2.846   4.611 -0.2215 -0.0800 -0.1794
 3106W        W 7157   1.426   9.931   0.577  0.0271  0.0488 -0.0118
 3107W        W 7158   6.505   9.339  10.188 -0.1279 -0.1778  0.4201
 3108W        W 7159   8.418   4.213   4.029 -0.0155 -0.0660  0.1333
 3109W        W 7160   9.177   0.080   2.197  0.3341 -0.3154 -0.0660
 3110W        W 7161   3.067   1.866   4.347  0.2294  0.0887 -0.1447
 3111W        W 7162   8.048   8.740   3.332 -0.2063 -0.1516  0.1807
 3112W        W 7163   6.548   7.941  10.573 -0.2762  0.2767 -0.0996
 3113W        W 7164   4.919   0.620  12.972 -0.0240  0.0451 -0.1285
 3114W        W 7165   0.550   1.085   3.749  0.1442  0.2040  0.2891
 3115W        W 7166   0.070   3.190  11.932  0.0894 -0.2075  0.1406
 3116W        W 7167   9.911   9.340  12.934  0.0122  0.1166  0.0507
 3117W        W 7168   2.274   9.017   9.404  0.2688  0.0722  0.0561
 3118W        W 7169   8.735   0.682   4.267  0.2795  0.0920 -0.0166
 3119W        W 7170   0.197   5.483   0.970 -0.2632 -0.1092  0.0420
 3120W        W 7171   1.008   3.789   9.923 -0.1865  0.2296 -0.4132
 3121W        W 7172  10.175   3.189   9.401 -0.0205 -0.1682  0.0414
 3122W        W 7173   2.982   3.540   4.533 -0.2029 -0.1313 -0.0684
 3123W        W 7174   6.671   4.590   1.786  0.2571 -0.0294 -0.0368
 3124W        W 7175   4.802   3.596   0.466  0.0287  0.2218 -0.0743
 3125W        W 7176   1.447   6.517  11.095  0.4598  0.1339  0.0050
 3126W        W 7177   1.054   1.875  10.232  0.0858  0.2324 -0.0743
 3127W        W 7178   2.152   1.180   2.623  0.1212 -0.2493 -0.2902
 3128W        W 7179   1.914   4.662   9.235 -0.2654  0.0762 -0.1615
 3129W        W 7180   3.262  10.158   0.681  0.0772  0.3154 -0.0434
 3130W        W 7181  10.090   1.305  11.486 -0.2103 -0.1162  0.1232
 3131W        W 7182   3.093   5.957   0.425  0.0022 -0.4249  0.0783
 3132W        W 7183   4.086   2.232  10.640  0.1336 -0.0547 -0.0221
 3133W        W 7184   4.577  10.081  12.853 -0.1289  0.1486 -0.3293
 3134W        W 7185   9.545   6.324   9.670 -0.3454  0.0754 -0.0035
 3135W        W 7186   9.629   3.279   4.006 -0.0393 -0.1510  0.4513
 3136W        W 7187   4.188   3.195   3.597 -0.1246  0.1799 -0.1072
 3137W        W 7188   8.731   1.828   0.045  0.0219  0.0408  0.0818
 3138W        W 7189   3.067   6.285   9.521  0.1046 -0.2811 -0.0717
 3139W        W 7190   0.581   1.920   3.825 -0.3890 -0.3120  0.0341
 3140W        W 7191   4.336  10.122  12.278  0.0653 -0.0792  0.2840
 3141W        W 7192   6.087   6.057   1.023  0.0451  0.0699 -0.0401
 3142W        W 7193   0.659   5.692  11.204  0.5174  0.1975  0.0058
 3143W        W 7194   0.697   6.011   0.110  0.1443  0.0856  0.0362
 3144W        W 7195   3.565   8.027   1.648 -0.2033 -0.0695 -0.0324
 3145W        W 7196   5.672   4.047  12.568  0.0781 -0.1525  0.0511
 3146W        W 7197   7.009   8.619  11.441  0.2065  0.0710 -0.5326
 3147W        W 7198   9.470   4.567   1.141  0.3041 -0.1617  0.1768
 3148W        W 7199   2.265   4.013  12.221  0.0577 -0.0891  0.0729
 3149W        W 7200   2.832   5.185  10.847 -0.3042  0.2328  0.2139
 3150W        W 7201   8.393   2.745   0.992  0.1723 -0.1615  0.0903
 3151W        W 7202   0.303   5.009   8.529 -0.4523  0.0526 -0.1194
 3152W        W 7203   1.270   4.089  13.448  0.1794  0.3275  0.2474
 3153W        W 7204   4.421   7.286   1.714  0.0276 -0.2031 -0.0654
 3154W        W 7205   9.956   2.026   4.039  0.0336 -0.3715 -0.3030
 3155W        W 7206   7.986   8.749   1.587  0.2268  0.0216 -0.2578
 3156W        W 7207   3.053   1.020  10.081 -0.2548 -0.0743 -0.1755
 3157W        W 7208   1.434   6.441  13.734 -0.1334  0.0844  0.0587
 3158W        W 7209   2.990   7.714   9.919  0.2037  0.3910  0.2349
 3159W        W 7210   7.650   7.735  12.156  0.0268 -0.0484 -0.1846
 3160W        W 7211   4.419   0.335  11.998 -0.1656 -0.1279  0.1630
 3161W        W 7212   0.151   3.878   1.694 -0.0195 -0.1560  0.0954
 3162W        W 7213   2.618   3.263   3.291  0.0023 -0.2591  0.2118
 3163W        W 7214   8.546   1.877  12.791 -0.0981 -0.1830  0.1065
 3164W        W 7215   2.026   6.877   3.688  0.2876  0.1105  0.0651
 3165W        W 7216   8.360   2.866   2.824 -0.0011 -0.0204  0.0881
 3166W        W 7217   9.113   3.908  12.948  0.1275  0.1378  0.0857
 3167W        W 7218   2.812   6.166   1.785  0.0682 -0.2312 -0.1156
 3168W        W 7219   7.218   7.746  11.047  0.0014  0.1232  0.0449
 3169W        W 7220   2.335   9.172   0.926  0.2141  0.0930 -0.0814
 3170W        W 7221   0.174   5.311   9.806 -0.1887 -0.2480  0.0131
 3171W        W 7222   6.664   3.246   3.581  0.4942 -0.2590  0.3650
 3172W        W 7223   6.879   7.733   0.295 -0.1309  0.0892  0.0132
 3173W        W 7224   7.280   8.921   3.034 -0.3003 -0.1073 -0.0851
 3174W        W 7225   6.671   0.248   0.697 -0.0954  0.2712 -0.2652
 3175W        W 7226   8.748   2.187  12.438 -0.1629  0.1572  0.0208
 3176W        W 7227   9.915   1.592   0.180  0.1985 -0.2271  0.0831
 3177W        W 7228   5.391   7.726   2.301 -0.0870  0.0991 -0.0626
 3178W        W 7229   7.306   4.924   9.867 -0.1786  0.1687 -0.0484
 3179W        W 7230   2.463   1.487  13.184  0.0400  0.0463 -0.1713
 3180W        W 7231   2.610   5.756   1.441  0.0228 -0.3185  0.0048
 3181W        W 7232   8.548   9.198  11.288  0.2425  0.0021 -0.0258
 3182W        W 7233   0.399   7.873   9.917 -0.0632 -0.3674 -0.0077
 3183W        W 7234   5.362   5.416  13.078  0.0540 -0.3274 -0.0043
 3184W        W 7235   8.724   8.293  13.444 -0.0067 -0.1776  0.3453
 3185W        W 7236   3.027   0.912  13.738  0.0538  0.0409  0.0274
 3186W        W 7237   9.080   5.893   3.204 -0.0063  0.4217 -0.0855
 3187W        W 7238   3.734   9.331  10.490  0.2480  0.0615  0.0886
 3188W        W 7239   3.404   6.690   2.742 -0.2836  0.1257 -0.1327
 3189W        W 7240   3.864   4.035  10.845 -0.0655  0.1485 -0.0425
 3190W        W 7241   4.325   0.659   1.111 -0.1709  0.6181 -0.0188
 3191W        W 7242   4.983   2.721  13.766  0.0002 -0.2529 -0.4617
 3192W        W 7243   0.126   0.401  13.223 -0.1243 -0.2341  0.0014
 3193W        W 7244   5.267   3.732   1.097  0.0116  0.2264  0.1282
 3194W        W 7245   6.275   9.279   2.633  0.1336 -0.1492  0.0333
 3195W        W 7246   0.172   4.465  10.419 -0.5547 -0.1388 -0.2215
 3196W        W 7247   0.859   0.368  12.296 -0.0724  0.0800 -0.0026
 3197W        W 7248   8.529   4.358   8.992 -0.1860  0.2221 -0.0210
 3198W        W 7249  10.063   8.250   1.437  0.1623  0.0499 -0.0664
 3199W        W 7250   3.012   9.678   1.637  0.0642 -0.1782  0.1620
 3200W        W 7251   9.576   3.004   2.180 -0.0982 -0.4641  0.2665
 3201W        W 7252   7.233   9.655   9.500 -0.1164 -0.1418 -0.2114
 3202W        W 7253   6.049   1.616   9.490  0.2670 -0.0488  0.0333
 3203W        W 7254   1.611   1.821   9.429 -0.0624 -0.1610  0.0570
 3204W        W 7255   2.634   0.643   0.747  0.0583 -0.0697  0.1139
 3205W        W 7256   5.499   8.065   1.380  0.0487 -0.0835  0.0526
 3206W        W 7257   8.704   6.211   4.300  0.0754  0.2100 -0.0410
 3207W        W 7258   0.073   5.279   4.189 -0.1334  0.1363 -0.0856
 3208W        W 7259   0.890   1.694  10.845  0.0092 -0.1588 -0.1657
 3209W        W 7260   5.815   4.099   4.520  0.2036  0.0793 -0.1450
 3210W        W 7261   3.427   2.256   0.894 -0.3281  0.1556 -0.1097
 3211W        W 7262   0.451   0.701  12.031 -0.1951 -0.0989  0.1136
 3212W        W 7263   9.487   1.783  12.960  0.2549 -0.0922 -0.3629
 3213W        W 7264   5.787  10.004   0.021  0.0122  0.0792 -0.4669
 3214W        W 7265   4.824   5.111   1.709  0.3057  0.1862 -0.1286
 3215W        W 7266   1.478   1.756  13.801  0.0030 -0.0699  0.1446
 3216W        W 7267   3.969   8.747   9.417 -0.1434 -0.1274  0.0452
 3217W        W 7268   0.313   6.699   2.119 -0.1386 -0.0383 -0.1142
 3218W        W 7269   5.370   6.801  12.102 -0.1196  0.1205 -0.0786
 3219W        W 7270   2.531   4.834   4.034  0.2154  0.0598 -0.0548
 3220W        W 7271   0.469   7.679   0.557 -0.0141 -0.2483  0.0949
 3221W        W 7272   3.147   1.876  10.428 -0.2923  0.1634  0.0955
 3222W        W 7273   3.468   8.908  11.659 -0.1254 -0.2046  0.1899
 3223W        W 7274   0.802   3.081  12.143  0.1340 -0.0476 -0.0886
 3224W        W 7275   4.303   3.545  13.472  0.0987  0.0942  0.2924
 3225W        W 7276   8.077   9.277  10.393  0.2396  0.0337  0.1390
 3226W        W 7277   8.635   5.980   0.441 -0.3952  0.2663  0.2921
 3227W        W 7278   4.310   7.125   1.282  0.1126  0.0344 -0.1385
 3228W        W 7279   1.309   8.698   2.508  0.0469  0.0572 -0.3303
 3229W        W 7280   2.747   5.186  10.298  0.1581 -0.2031  0.0264
 3230W        W 7281   8.639   0.455  10.062 -0.2660 -0.1952 -0.0175
 3231W        W 7282   8.190   1.488  11.517 -0.1773 -0.0541  0.1996
 3232W        W 7283   1.300   6.889  10.459  0.1261 -0.1381  0.0567
 3233W        W 7284   1.562   7.613  11.891 -0.0059 -0.4357 -0.0151
 3234W        W 7285   0.948   9.077   0.735 -0.5275 -0.1596 -0.0171
 3235W        W 7286   8.197   3.931   3.613  0.1578  0.1816 -0.2362
 3236W        W 7287   6.073   4.943   4.208  0.0043 -0.0374  0.1496
 3237W        W 7288   8.052   3.597   8.477  0.2063 -0.1771 -0.0192
 3238W        W 7289   6.277   0.754   2.682  0.1433 -0.3133  0.0941
 3239W        W 7290   1.247   3.378  13.063  0.0737  0.0410 -0.0311
 3240W        W 7291   3.774   7.387   0.383  0.2224 -0.0893 -0.0680
 3241W        W 7292   0.999   8.971   3.412 -0.0213 -0.3164  0.1937
 3242W        W 7293   7.068   1.589  13.331 -0.3353  0.0087  0.2420
 3243W        W 7294   6.759   5.435   2.038 -0.2062 -0.3153  0.2610
 3244W        W 7295   3.664  10.010   9.696 -0.2082 -0.0177  0.2532
 3245W        W 7296   8.339   3.761   2.992  0.1328  0.1277 -0.0449
 3246W        W 7297   1.923   2.658  12.738  0.1709  0.2638 -0.1308
 3247W        W 7298   4.095   8.701   0.141 -0.2201 -0.2274 -0.1393
 3248W        W 7299   5.965   5.541   2.046  0.0707 -0.0478  0.0007
 3249W        W 7300   3.580   7.465   2.470  0.0309 -0.0246  0.1801
 3250W        W 7301   1.598   0.995   2.294  0.2945 -0.5370  0.0757
 3251W        W 7302   1.468   6.364  12.155  0.0927 -0.1322 -0.0224
 3252W        W 7303   1.738   7.928   4.020 -0.2736  0.2064  0.2232
 3253W        W 7304   7.612   1.350  10.422 -0.0111  0.0696 -0.0423
 3254W        W 7305   7.864   8.847  13.421  0.0303  0.1498 -0.2899
 3255W        W 7306   3.094   7.082  11.234  0.2322  0.0881 -0.0186
 3256W        W 7307   0.178   1.462  12.813  0.2561 -0.1284  0.1619
 3257W        W 7308   1.414  10.211   9.521 -0.3835 -0.0891  0.0666
 3258W        W 7309   7.643   7.181  10.353 -0.2698  0.3305 -0.5428
 3259W        W 7310   5.084   0.274   0.398  0.2894 -0.0561  0.0841
 3260W        W 7311   9.481   5.892   0.398 -0.0717 -0.0695  0.1037
 3261W        W 7312   1.549   8.216   2.591 -0.4468  0.0283  0.5105
 3262W        W 7313   1.704   2.835  13.287  0.0638 -0.2460 -0.0659
 3263W        W 7314   3.595   2.594   3.072  0.1801 -0.2201  0.1820
 3264W        W 7315   0.902   1.340  12.355  0.2889 -0.0827  0.2879
 3265W        W 7316   7.671   1.492   9.879 -0.1896  0.0883 -0.2078
 3266W        W 7317   9.422   4.786  13.383 -0.1704  0.1774 -0.0579
 3267W        W 7318   7.101   0.656   1.974  0.0061  0.1281 -0.0327
 3268W        W 7319   9.739   3.432  11.249 -0.1433  0.1495 -0.1529
 3269W        W 7320   6.265   5.443  13.662 -0.0577 -0.0271 -0.0351
 3270W        W 7321   8.536   7.690  11.079  0.0659  0.1213 -0.1438
 3271W        W 7322   9.117   2.737  13.302  0.0978  0.1695  0.1331
 3272W        W 7323   1.410   5.838  11.772  0.3267  0.0733  0.1529
 3273W        W 7324   0.572   7.165  10.854 -0.0864 -0.1785  0.1084
 3274W        W 7325   1.764  10.030   1.458 -0.4711  0.2946  0.4598
 3275W        W 7326   9.304   8.961   2.330  0.1751 -0.1065  0.0806
 3276W        W 7327   1.375   4.747   9.280  0.3328 -0.0126 -0.1263
 3277W        W 7328   1.338   2.726   4.424 -0.0129  0.2063 -0.0556
 3278W        W 7329   9.878   2.706   2.485  0.0604 -0.0908 -0.0460
 3279W        W 7330   2.465   5.612   3.247  0.0289 -0.0932  0.0171
 3280W        W 7331   4.530   0.282   2.015 -0.0765  0.2408 -0.0491
 3281W        W 7332   8.607   8.962  12.856 -0.1747 -0.2708  0.0985
 3282W        W 7333   1.535   5.919   2.770  0.2369  0.1243  0.1153
 3283W        W 7334   8.982   9.499   3.489 -0.1500 -0.0620  0.0308
 3284W        W 7335   8.938   0.008  10.668 -0.0669  0.5044  0.3348
 3285W        W 7336   1.432   1.502   9.102 -0.2694  0.0437  0.0787
 3286W        W 7337   8.408   3.099   3.544  0.1942  0.0304 -0.0893
 3287W        W 7338   5.190   7.983  11.024  0.2071 -0.0534  0.0334
 3288W        W 7339   7.929   6.671   0.390  0.2392  0.0606  0.0426
 3289W        W 7340   7.458   0.328   0.761  0.1313 -0.4249 -0.1489
 3290W        W 7341   8.207   5.035  11.753  0.2460  0.1656  0.0504
 3291W        W 7342   0.775   0.152   2.944 -0.1570 -0.3518 -0.0840
 3292W        W 7343   5.421   0.792  10.681 -0.1121  0.0725 -0.2205
 3293W        W 7344   0.974   3.536   3.913  0.0656  0.0050  0.1868
 3294W        W 7345   3.051   3.709  10.116 -0.2264  0.2854  0.1191
 3295W        W 7346   8.707   1.077   2.756  0.0903  0.1264  0.2020
 3296W        W 7347   6.606   7.190  12.316 -0.3623  0.0904 -0.1053
 3297W        W 7348   3.219   2.728  13.577  0.0913 -0.0305  0.1127
 3298W        W 7349   0.086   3.787   0.420 -0.0683 -0.0580  0.0652
 3299W        W 7350   6.628   2.120   4.197  0.1377  0.0451  0.1085
 3300W        W 7351   3.237   7.508  10.508  0.3271  0.1509 -0.2242
 3301W        W 7352   1.005   8.843  13.009  0.2770  0.1687  0.0566
 3302W        W 7353   5.864   8.809   3.154  0.0237 -0.1105 -0.2515
 3303W        W 7354   9.711   6.463   3.741 -0.2427 -0.1354  0.1163
 3304W        W 7355   6.884   3.225   4.377  0.5457  0.2477  0.1546
 3305W        W 7356  10.160   4.986   0.661  0.3751  0.2898 -0.0911
 3306W        W 7357   8.890   3.406   8.826 -0.2982 -0.0307  0.0278
 3307W        W 7358   5.704   4.455   9.177 -0.0824  0.3270 -0.3337
 3308W        W 7359   7.586   3.457   3.403 -0.0453  0.1304  0.1912
 3309W        W 7360   1.815   5.290  10.603  0.0019  0.0546  0.0226
 3310W        W 7361   2.972   9.831   3.328  0.1844  0.0529 -0.1318
 3311W        W 7362   0.471   9.263   2.746  0.1790 -0.2417  0.0412
 3312W        W 7363   6.532   2.244  11.311  0.0760 -0.0395 -0.4026
 3313W        W 7364   2.686   1.062   0.300  0.1887 -0.0313  0.0605
 3314W        W 7365   1.214   2.634   3.946 -0.1512  0.0822 -0.0842
 3315W        W 7366   4.940   2.820   8.975 -0.1317 -0.0965  0.3524
 3316W        W 7367   2.684   6.205   2.908  0.4454  0.1391 -0.0855
 3317W        W 7368   8.484   0.879   8.892 -0.1494  0.2093  0.3407
 3318W        W 7369   2.792   0.138   0.343  0.5216 -0.0488 -0.0578
 3319W        W 7370   1.319   6.575   3.812  0.1620 -0.1233 -0.2810
 3320W        W 7371   8.273   4.291  11.387  0.0649  0.0401 -0.0730
 3321W        W 7372   7.613  10.044   9.355 -0.2110  0.1635  0.1035
 3322W        W 7373   9.482   2.834   8.284 -0.0782 -0.0058  0.1599
 3323W        W 7374   8.287   5.406  12.102  0.1920  0.0290  0.0775
 3324W        W 7375   7.462   8.486   2.270  0.0366  0.0169 -0.1331
 3325W        W 7376   4.376   6.016   4.136  0.0256  0.0721  0.0307
 3326W        W 7377   7.974   0.830   1.746 -0.1565 -0.2799 -0.1012
 3327W        W 7378   1.785   0.336  12.428 -0.0434 -0.1738  0.0553
 3328W        W 7379   0.999   2.725   0.089  0.0335 -0.0232 -0.3409
 3329W        W 7380   0.596   5.672   2.438  0.1772  0.1435  0.2444
 3330W        W 7381   1.878   0.112   9.924 -0.2927  0.2295 -0.0966
 3331W        W 7382   1.126   4.569  10.082 -0.3410 -0.1109 -0.2948
 3332W        W 7383   1.583   5.109  12.738  0.0194  0.0574  0.0862
 3333W        W 7384   3.055   6.001  12.171  0.1978  0.1871  0.2695
 3334W        W 7385   2.213   0.920  10.571  0.3780 -0.2069 -0.0220
 3335W        W 7386   2.793   8.884  12.967 -0.2591 -0.1116 -0.0358
 3336W        W 7387   5.935   0.871  12.411 -0.1024 -0.1404 -0.1730
 3337W        W 7388   0.618   4.886   3.613  0.0238 -0.2848 -0.0167
 3338W        W 7389   4.786   6.935   1.464 -0.1479  0.1332 -0.1954
 3339W        W 7390   6.032   4.251  13.239  0.0565 -0.4515  0.1461
 3340W        W 7391   4.974   4.386   1.751 -0.1004 -0.1885 -0.3266
 3341W        W 7392   7.818   9.683  10.251  0.0005  0.2211  0.1047
 3342W        W 7393   7.469   3.139   4.970 -0.1624 -0.0732  0.1026
 3343W        W 7394   2.925   1.633  10.822 -0.1265 -0.0541 -0.1788
 3344W        W 7395  10.049   1.468  13.166 -0.5141 -0.3607 -0.0501
 3345W        W 7396   5.054   0.177  13.709  0.0738  0.1023 -0.0306
 3346W        W 7397   5.517   8.744  11.464 -0.0810 -0.1613  0.0343
 3347W        W 7398   6.360   2.914   0.466 -0.2725 -0.1752 -0.2099
 3348W        W 7399   2.023   0.017   2.229  0.0516  0.3937  0.1592
 3349W        W 7400   1.340   5.347   9.048 -0.1067 -0.1279 -0.0103
 3350W        W 7401   0.552   4.891  13.858 -0.2172 -0.0944 -0.2959
 3351W        W 7402   7.297   5.225   0.258  0.3240  0.2664  0.0139
 3352W        W 7403   3.696   3.143   2.913 -0.3089  0.2843  0.3913
 3353W        W 7404   5.031   7.354  13.537 -0.1330  0.2444 -0.1067
 3354W        W 7405   4.808   4.322   4.233 -0.4001  0.1921  0.1197
 3355W        W 7406   0.012   6.865   0.948  0.1970 -0.3184 -0.1358
 3356W        W 7407   7.875   5.673   1.953 -0.0703  0.2186  0.0086
 3357W        W 7408   9.622   5.913  13.312 -0.3649  0.1167  0.3168
 3358W        W 7409   3.184   4.356  13.699  0.2388  0.0413  0.2237
 3359W        W 7410   6.325   9.356   1.688  0.0790 -0.2746 -0.0217
 3360W        W 7411   3.550   1.556   4.073 -0.0230 -0.0102 -0.1388
 3361W        W 7412   0.079   0.674   9.272  0.2498  0.0584  0.1245
 3362W        W 7413   2.382   6.050   9.464  0.1821  0.2483  0.2481
 3363W        W 7414   2.560   0.088  12.442 -0.0089 -0.1257  0.3227
 3364W        W 7415   7.736   2.512   3.501  0.0158  0.1805 -0.2672
 3365W        W 7416   5.885   0.028   1.506 -0.1131 -0.1368  0.1643
 3366W        W 7417   7.603   0.520  10.123  0.1268 -0.0330  0.1002
 3367W        W 7418   0.043   6.596   3.529  0.1898 -0.1054  0.0502
 3368W        W 7419   6.589   9.846  12.753  0.2043 -0.2953 -0.1007
 3369W        W 7420   0.151   9.166   3.968 -0.0681  0.1523 -0.1354
 3370W        W 7421   1.829   6.176  11.868  0.1681  0.0506  0.0194
 3371W        W 7422   4.619   6.737  10.622  0.1735 -0.0284 -0.3410
 3372W        W 7423   9.760   9.614  12.528  0.0526  0.0310 -0.0794
 3373W        W 7424   0.773   9.008   4.298 -0.2608 -0.0305  0.0487
 3374W        W 7425   7.834   9.578   2.939  0.1363 -0.1275  0.3615
 3375W        W 7426   2.045   7.969   1.392 -0.0938 -0.1629 -0.0428
 3376W        W 7427   0.039   9.064   3.113 -0.0510 -0.4535  0.2464
 3377W        W 7428   0.395   9.308  11.571 -0.0445 -0.1122 -0.0286
 3378W        W 7429   7.603   3.377  12.503  0.5752 -0.1361 -0.0961
 3379W        W 7430   7.718   9.963   9.819 -0.0493  0.1606 -0.2705
 3380W        W 7431   9.270   6.555  13.392 -0.3209  0.3010 -0.0713
 3381W        W 7432   0.366   4.837  13.401 -0.2673  0.2195  0.2755
 3382W        W 7433   9.717   2.819  12.698 -0.0787 -0.0677 -0.1695
 3383W        W 7434   0.406   7.352   4.439 -0.2822 -0.1495 -0.0691
 3384W        W 7435   2.132   4.909   0.782  0.0790  0.1177  0.2297
 3385W        W 7436   5.249   4.197  12.801 -0.1686 -0.1663 -0.0043
 3386W        W 7437   6.001   9.079   0.560  0.1902  0.2574  0.0887
 3387W        W 7438   9.978   1.299   0.957  0.0005  0.2301  0.0382
 3388W        W 7439   2.666   0.445  11.296  0.0655  0.0555 -0.1922
 3389W        W 7440   3.267   7.936  13.463 -0.1155  0.0620  0.3639
 3390W        W 7441   8.168   6.637   2.877  0.0073 -0.0316 -0.2134
 3391W        W 7442   9.206   6.214   4.343  0.0571 -0.0272  0.1460
 3392W        W 7443   5.106   6.814  10.430  0.1447 -0.1722 -0.1660
 3393W        W 7444   7.711   7.495  13.503 -0.0335  0.0048 -0.2947
 3394W        W 7445   2.632   8.102   9.787 -0.2884 -0.0623  0.2082
 3395W        W 7446   7.729   1.628  12.416 -0.2591 -0.0150 -0.0973
 3396W        W 7447   8.973   6.314   3.396 -0.2635 -0.0647 -0.1827
 3397W        W 7448   2.004   7.396   3.870  0.1832  0.0080 -0.1827
 3398W        W 7449   6.484   5.990   0.693 -0.3059 -0.0771 -0.2708
 3399W        W 7450   9.470   8.905   3.737 -0.2435  0.1786  0.0416
 3400W        W 7451   7.005   7.067   4.065 -0.1724  0.1491 -0.2908
 3401W        W 7452   3.137   2.214  12.227  0.0944  0.2094  0.3338
 3402W        W 7453   5.846   6.819  10.924 -0.1639 -0.4832 -0.2260
 3403W        W 7454   1.463   8.158  11.417 -0.2384  0.2290 -0.4372
 3404W        W 7455   5.547   2.681   2.588  0.1343  0.2011  0.0663
 3405W        W 7456   9.351   4.355  13.782 -0.3544 -0.0889  0.2371
 3406W        W 7457   2.189   1.100   8.606 -0.0162  0.1998 -0.2121
 3407W        W 7458   2.981   5.621  11.760  0.0761  0.2582  0.1195
 3408W        W 7459   1.438   3.546  11.045 -0.1686 -0.1549  0.1300
 3409W        W 7460   6.148   1.478  13.402 -0.1806  0.1541 -0.1719
 3410W        W 7461   5.491   6.444   0.521 -0.2187 -0.3691  0.2580
 3411W        W 7462   4.766   4.118   0.511 -0.0107 -0.1793  0.0137
 3412W        W 7463   3.717   8.256   2.264  0.1072 -0.1732 -0.1359
 3413W        W 7464   8.935   2.576  12.784 -0.2838  0.0282 -0.2105
 3414W        W 7465   5.124   1.510   2.990  0.3136  0.0298 -0.1895
 3415W        W 7466   6.035   2.878  10.961 -0.0136  0.1014  0.1850
 3416W        W 7467   2.980   4.679   2.124  0.0331 -0.0974  0.0464
 3417W        W 7468   0.163   4.696   2.899 -0.1346 -0.0503 -0.2692
 3418W        W 7469   7.196   6.044   1.159 -0.0695  0.1039  0.0710
 3419W        W 7470   0.008   0.672  13.769  0.0679 -0.2614 -0.2302
 3420W        W 7471   8.519   3.928  13.844 -0.0268  0.1490  0.1873
 3421W        W 7472   9.963   1.212  13.623 -0.0722 -0.0618  0.0963
 3422W        W 7473   2.808   4.837   0.303  0.0611  0.3103 -0.1842
 3423W        W 7474   5.826   2.383   3.666  0.3088  0.3027 -0.0995
 3424W        W 7475   0.481   2.328   4.144  0.1537 -0.1273 -0.2074
 3425W        W 7476   4.767   0.699  12.258 -0.0026 -0.1689 -0.1224
 3426W        W 7477   5.207   3.158  13.581  0.1594 -0.1633 -0.1681
 3427W        W 7478   2.298   3.397  12.976  0.3013 -0.0241 -0.3203
 3428W        W 7479   4.191   3.950  10.428  0.0575 -0.0708  0.0231
 3429W        W 7480   9.459   6.163  12.346  0.1316 -0.1014  0.2026
 3430W        W 7481   3.133   2.648   9.004 -0.1926  0.0176 -0.3465
 3431W        W 7482   1.175   2.828  13.198  0.1719 -0.0060 -0.1942
 3432W        W 7483   3.859   3.079   0.904 -0.1823 -0.0467 -0.1432
 3433W        W 7484   3.533   4.679   2.081  0.0712  0.0759  0.2657
 3434W        W 7485   8.032   9.309   2.595  0.1518 -0.0907 -0.0458
 3435W        W 7486   2.951   9.942  12.490 -0.3343 -0.0592  0.0142
 3436W        W 7487   9.059   7.199   9.045  0.2045  0.2345 -0.0165
 3437W        W 7488   1.137   4.831   3.576 -0.0998  0.0155 -0.1907
 3438W        W 7489   5.785   1.743   9.049  0.0782  0.0571  0.2485
 3439W        W 7490   9.680   4.784   3.498 -0.0928  0.3125 -0.1514
 3440W        W 7491   5.979   5.107   1.795 -0.0533  0.0088 -0.0186
 3441W        W 7492   1.104   9.986   2.811  0.0952  0.1655 -0.1839
 3442W        W 7493   7.315   1.584   2.393 -0.0022 -0.0031 -0.1639
 3443W        W 7494   0.366   8.191   3.988  0.2196 -0.1412  0.0443
 3444W        W 7495   0.496   9.913   9.729 -0.0323  0.2872 -0.2324
 3445W        W 7496   1.007   5.396   9.776 -0.0316 -0.0014  0.0109
 3446W        W 7497   6.050   2.735   4.949  0.1949 -0.0162  0.2571
 3447W        W 7498   1.742   3.345  13.301  0.2368 -0.0167  0.0729
 3448W        W 7499   3.333   1.567  12.733  0.0298 -0.3241 -0.2115
 3449W        W 7500   2.810   3.108   1.349  0.1907 -0.2249 -0.0323
 3450W        W 7501   3.604   3.201   9.409  0.0613 -0.3579 -0.0134
 3451W        W 7502   5.174   7.202   1.852  0.1161 -0.2314  0.1554
 3452W        W 7503   5.518  10.108  11.771  0.1325  0.0813 -0.1956
 3453W        W 7504   3.698   6.136   2.050 -0.0443 -0.2878  0.1408
 3454W        W 7505   1.054   1.057   2.333 -0.0626 -0.1266 -0.0611
 3455W        W 7506   3.493   9.302  10.042  0.0007  0.1523  0.0806
 3456W        W 7507   7.010   8.405  10.473 -0.3488  0.0829 -0.2903
 3457W        W 7508   7.703  10.013   0.612 -0.2005  0.0614 -0.1200
 3458W        W 7509   4.060   8.146   3.336  0.2075 -0.0555  0.1047
 3459W        W 7510   5.242   1.544  10.450  0.1356  0.2155 -0.2783
 3460W        W 7511   8.517   6.383   9.968 -0.1675  0.2619  0.1923
 3461W        W 7512   6.972   2.306   0.097  0.1885 -0.2537  0.2951
 3462W        W 7513   9.520   0.917  12.139 -0.4159  0.2456 -0.0459
 3463W        W 7514   4.825   0.251   3.189  0.0061  0.0552  0.0046
 3464W        W 7515   0.872   9.162   2.272 -0.2433 -0.0816  0.1079
 3465W        W 7516   2.696   5.677   0.137 -0.1335  0.3148 -0.2486
 3466W        W 7517   1.890   1.996   4.955  0.1141 -0.0836  0.4996
 3467W        W 7518   8.668   1.350   3.251 -0.0991  0.0690  0.0171
 3468W        W 7519   9.058   4.177   2.721  0.0061 -0.0216 -0.2308
 3469W        W 7520   6.669   2.901  12.174 -0.2422  0.1471 -0.2344
 3470W        W 7521   2.848   6.824   9.956  0.0035 -0.1631  0.0671
 3471W        W 7522   0.276   8.999   9.723  0.0808  0.0006  0.1441
 3472W        W 7523   1.289  10.016   3.760  0.1649 -0.1888 -0.2381
 3473W        W 7524   8.721   7.378   9.425  0.2240 -0.0760  0.1245
 3474W        W 7525   1.694   3.078  12.871 -0.0104  0.1137  0.0198
 3475W        W 7526   2.580   2.579   2.601 -0.1513 -0.0957  0.2681
 3476W        W 7527   5.840   6.677   3.908 -0.1481 -0.2160 -0.0353
 3477W        W 7528   8.720   3.811  10.785  0.2136  0.1711 -0.0606
 3478W        W 7529   1.695   5.115  11.084  0.0696  0.2904  0.0973
 3479W        W 7530   8.053   4.099   9.106 -0.3051 -0.2904  0.1249
 3480W        W 7531   5.411   1.309   2.231 -0.0939  0.0526  0.4992
 3481W        W 7532   4.525   2.660  13.595  0.0599  0.0292  0.1464
 3482W        W 7533   6.064   2.644   1.399 -0.0396  0.1642  0.2460
 3483W        W 7534   9.514   1.078   5.712 -0.1135 -0.1049  0.1563
 3484W        W 7535   4.316   3.758   0.685  0.1242  0.2808  0.2345
 3485W        W 7536   0.209   3.486   1.352  0.1476 -0.2103 -0.1754
 3486W        W 7537   3.550   5.669   1.905 -0.0555 -0.0639  0.0013
 3487W        W 7538   9.016   3.285   9.396 -0.1672  0.1425  0.3639
 3488W        W 7539   3.323   6.320  13.447 -0.1947 -0.0350 -0.1577
 3489W        W 7540   4.190   5.121  10.784  0.1537  0.0185 -0.0762
 3490W        W 7541   0.099   8.827  11.003 -0.2881  0.1375  0.2606
 3491W        W 7542   3.300   2.733   4.837  0.1746 -0.1355  0.3076
 3492W        W 7543   0.282   6.523  10.419  0.3707  0.0598 -0.1002
 3493W        W 7544   3.702   9.739  10.118 -0.2087  0.1397  0.1246
 3494W        W 7545   7.991   2.887   5.664 -0.0907  0.1612 -0.0960
 3495W        W 7546   3.854   7.804  10.380 -0.3439  0.0396  0.2632
 3496W        W 7547   8.203   8.257  10.386 -0.3236  0.1821 -0.0831
 3497W        W 7548   1.061   2.628  11.228  0.1144 -0.0231 -0.0379
 3498W        W 7549   1.079   5.370  10.926  0.0659  0.0040 -0.0099
 3499W        W 7550   1.884   6.402   3.129  0.1242  0.1113 -0.3467
 3500W        W 7551   5.025   6.637   1.835 -0.1126  0.1581  0.3150
 3501W        W 7552   5.793   7.352  10.736  0.0196 -0.1041  0.2864
 3502W        W 7553   9.840   5.446  11.711  0.0666 -0.1646 -0.2918
 3503W        W 7554   5.812   9.494   0.684 -0.0985 -0.1376 -0.1578
 3504W        W 7555   5.533   8.341  13.074 -0.3806 -0.1332 -0.0736
 3505W        W 7556   0.496   5.502  10.217  0.2546  0.1036 -0.0813
 3506W        W 7557   6.341   8.385  11.591 -0.1517  0.1192  0.0086
 3507W        W 7558   9.704   8.642   9.761  0.0346 -0.1562 -0.0173
 3508W        W 7559   6.788   3.035  13.225 -0.2557 -0.3435  0.0501
 3509W        W 7560   2.664   1.794   2.070  0.2775  0.0847  0.2914
 3510W        W 7561   3.422   2.143  12.805  0.1509 -0.0878  0.0596
 3511W        W 7562   4.112   7.077  10.554 -0.2335 -0.2232 -0.4704
 3512W        W 7563   2.933   0.880   3.040 -0.1822 -0.0723 -0.1802
 3513W        W 7564   8.290   9.172   1.554  0.1481  0.0777 -0.1295
 3514W        W 7565   8.296   1.133  13.454 -0.0000  0.1330  0.1471
 3515W        W 7566   4.627   5.160  11.666 -0.0385 -0.0249  0.0201
 3516W        W 7567   9.192   3.536  11.208  0.0360  0.0810 -0.0153
 3517W        W 7568   2.555   9.303   2.375 -0.0495  0.2251  0.0581
 3518W        W 7569   0.341   7.462   3.614  0.1852 -0.1291  0.0569
 3519W        W 7570   2.070   2.787  11.704 -0.0683 -0.2710 -0.1665
 3520W        W 7571   9.023   7.654   3.905 -0.1385 -0.1621 -0.1284
 3521W        W 7572   6.502  10.118  11.184  0.0954  0.1725 -0.0364
 3522W        W 7573   6.022   2.010  10.710  0.0913  0.1483 -0.3829
 3523W        W 7574   2.949   7.921   1.264  0.3230 -0.0625 -0.0050
 3524W        W 7575   5.504   2.738   1.582 -0.0977  0.1660  0.0651
 3525W        W 7576   4.814   5.799   3.885  0.0720  0.1256 -0.0406
 3526W        W 7577   4.613  10.071   2.712  0.0156  0.0232 -0.1015
 3527W        W 7578   1.513   3.997   0.148 -0.0004  0.1794 -0.0986
 3528W        W 7579   4.440   2.630  11.123 -0.1620 -0.2797 -0.3757
 3529W        W 7580   0.076   6.537   0.601 -0.1076 -0.0029 -0.0580
 3530W        W 7581   1.140   0.114   2.420 -0.0101  0.1077 -0.0109
 3531W        W 7582   2.473   0.542  10.768  0.3239  0.0952  0.1312
 3532W        W 7583   7.145   9.871   1.887 -0.1092  0.0275 -0.2276
 3533W        W 7584   1.375   5.332  13.601 -0.0756 -0.1020 -0.1659
 3534W        W 7585   9.715   5.796  13.813  0.0082 -0.0006  0.2330
 3535W        W 7586   2.005   3.598  12.326  0.0932  0.0103  0.0122
 3536W        W 7587   6.680   2.395   2.201 -0.1500  0.5414 -0.1312
 3537W        W 7588   0.692   3.018  11.210  0.2562 -0.0222  0.1628
 3538W        W 7589   2.348   2.603   9.361 -0.1159 -0.1452 -0.1390
 3539W        W 7590   0.072   1.689   9.485  0.1575  0.0236 -0.4064
 3540W        W 7591   9.317   6.961   4.148 -0.2076 -0.1048  0.2199
 3541W        W 7592   5.539   0.032   3.432  0.3266  0.4279 -0.1003
 3542W        W 7593   5.508   2.794   4.606  0.1103 -0.0850 -0.0362
 3543W        W 7594   7.629   8.826   1.245 -0.0262  0.0365  0.2233
 3544W        W 7595   1.032   3.367  11.804 -0.0945  0.3379 -0.2311
 3545W        W 7596   6.129   9.054   1.063  0.0036 -0.2105  0.0122
 3546W        W 7597   5.509   1.499  12.214  0.0626  0.1023 -0.0599
 3547W        W 7598   1.280   3.335   2.725 -0.0361 -0.1524 -0.0796
 3548W        W 7599   0.105   2.223  11.134 -0.1659  0.3888 -0.0394
 3549W        W 7600   4.472   0.383  10.500  0.0300 -0.0166 -0.2460
 3550W        W 7601   9.202   7.893   9.703  0.0656 -0.0044 -0.3211
 3551W        W 7602   6.690   6.361  12.138 -0.2554 -0.2023 -0.2530
 3552W        W 7603   6.961   7.265  11.088  0.1614 -0.0041  0.0130
 3553W        W 7604   0.198   3.275   2.516 -0.0089 -0.1813 -0.1404
 3554W        W 7605   9.510   6.834  12.303  0.3652  0.1640 -0.3086
 3555W        W 7606   8.266  10.206   0.565 -0.0467  0.0817 -0.0361
 3556W        W 7607   0.874   7.446   2.431 -0.1234  0.0148  0.0208
 3557W        W 7608   1.078   9.332   0.104 -0.0753 -0.0586 -0.0066
 3558W        W 7609   8.496  10.000  10.884  0.1049 -0.1175 -0.3083
 3559W        W 7610   5.885   1.614   3.250  0.0184  0.0491  0.1951
 3560W        W 7611   4.593   5.952   3.068 -0.1662 -0.3484  0.0594
 3561W        W 7612   5.462   0.592   4.160 -0.0959  0.1608 -0.0744
 3562W        W 7613   4.198   8.247   1.104  0.1249  0.4748 -0.0975
 3563W        W 7614   6.485   2.766  11.207  0.0512 -0.1317 -0.2331
 3564W        W 7615   3.531   6.103   3.272 -0.3821 -0.1774  0.0683
 3565W        W 7616   0.514   8.514  10.973 -0.1764 -0.1105  0.1495
 3566W        W 7617   2.428   6.221   1.389 -0.1049  0.0113 -0.2122
 3567W        W 7618   3.299   4.990   3.178 -0.2938  0.0980  0.0281
 3568W        W 7619   1.175   4.863   2.198 -0.3958  0.2609 -0.0565
 3569W        W 7620   8.911   6.751   3.628 -0.1816 -0.2229 -0.1153
 3570W        W 7621   1.037   7.771   3.571 -0.0003  0.0313 -0.1368
 3571W        W 7622   7.571   7.988  13.740  0.3200 -0.0232 -0.0001
 3572W        W 7623   3.982   0.111   4.359  0.2670  0.1376  0.5560
 3573W        W 7624   2.941   3.566   2.976 -0.0583 -0.0071  0.1163
 3574W        W 7625   4.558   1.586   2.924 -0.1446  0.0946 -0.3752
 3575W        W 7626   4.079   5.048   1.122 -0.1263  0.0267 -0.2533
 3576W        W 7627   1.520   4.597   2.983 -0.1521 -0.0655 -0.1727
 3577W        W 7628   5.067   1.135   1.892 -0.2144 -0.2940 -0.1984
 3578W        W 7629   8.712   9.898   2.316  0.1298  0.0503  0.1666
 3579W        W 7630   3.784   3.339   3.865 -0.1548 -0.2681  0.0703
 3580W        W 7631   8.136   2.582   1.998 -0.0801  0.2608 -0.0333
 3581W        W 7632   8.498   6.472  10.757 -0.1726  0.1581  0.2215
 3582W        W 7633   8.142   7.156  10.490  0.1075  0.0979  0.2991
 3583W        W 7634   7.763   7.885  10.427 -0.0950 -0.0238 -0.0210
 3584W        W 7635   7.356   4.323   3.639  0.2328  0.1994 -0.0629
 3585W        W 7636   8.996   3.745  12.460 -0.3657  0.0116 -0.2030
 3586W        W 7637   2.189   3.032  13.372  0.2644 -0.1333  0.0171
 3587W        W 7638   1.927   7.705   3.359  0.2864 -0.1581 -0.0616
 3588W        W 7639   4.267   2.999   0.611  0.2149 -0.0331 -0.0533
 3589W        W 7640  10.212   0.919   4.473 -0.1080  0.2875 -0.2145
 3590W        W 7641   6.893   8.589   0.793 -0.1871  0.0555  0.0709
 3591W        W 7642   7.113   6.557  12.730  0.1992 -0.1885 -0.0127
 3592W        W 7643   9.675   3.321   1.377  0.1549 -0.2462 -0.0656
 3593W        W 7644   0.142   2.920   8.611  0.1502 -0.1061  0.0221
 3594W        W 7645   2.487   7.827   4.629 -0.4303  0.1626  0.0368
 3595W        W 7646   0.995   5.380   4.288 -0.0257 -0.2049 -0.2544
 3596W        W 7647   5.885   2.298   1.678  0.0347  0.0818 -0.2177
 3597W        W 7648   4.517   3.822   0.107 -0.3699 -0.0539 -0.3494
 3598W        W 7649   4.489   3.473   5.403  0.0130  0.3161  0.0595
 3599W        W 7650   5.525   6.602  13.411  0.3231 -0.0724  0.0512
 3600W        W 7651   1.977   4.762   3.825  0.0175 -0.0013  0.0010
 3601W        W 7652   9.960   5.983  12.317  0.3836  0.4374  0.1740
 3602W        W 7653   4.777   8.809   3.380  0.3101 -0.0507  0.0573
 3603W        W 7654   6.439   5.019   1.625 -0.3374  0.0363 -0.4751
 3604W        W 7655   5.355   0.867   3.739  0.1732 -0.0739 -0.0894
 3605W        W 7656   0.750   9.330  11.937  0.1842 -0.0985  0.1189
 3606W        W 7657   0.659   6.943   2.367  0.0738  0.3777  0.2146
 3607W        W 7658   7.981  10.204  10.404  0.3108 -0.0218 -0.3921
 3608W        W 7659   3.709   4.763   1.603 -0.1523 -0.0499  0.2294
 3609W        W 7660   8.442   3.159  10.413  0.1563  0.2047  0.1347
 3610W        W 7661   8.192   6.370   1.791 -0.2928 -0.3783 -0.2010
 3611W        W 7662   3.232   4.707  11.695 -0.1943 -0.2184 -0.3799
 3612W        W 7663   9.850   8.304   1.872 -0.2204  0.0860 -0.0838
 3613W        W 7664   3.012   3.752   1.861 -0.1860  0.0712 -0.2389
 3614W        W 7665   2.292   3.993   1.128  0.0964 -0.0476  0.0648
 3615W        W 7666   5.052   8.143  12.336  0.0394  0.0943 -0.1391
 3616W        W 7667   6.335   0.110   2.924 -0.0797 -0.2490  0.0515
 3617W        W 7668   6.613   4.178  12.624  0.1627 -0.0159  0.2662
 3618W        W 7669   4.860   7.409   1.430 -0.0617 -0.1994  0.1707
 3619W        W 7670   8.776   3.389  12.761  0.1275 -0.2366 -0.0845
 3620W        W 7671   3.530   5.421   3.291 -0.2628  0.0709  0.0064
 3621W        W 7672   5.509   5.901  12.031  0.0472 -0.3295 -0.2415
 3622W        W 7673   1.326   3.115  13.559  0.3222 -0.0039 -0.1786
 3623W        W 7674   1.722   2.061   1.100  0.0900  0.0685  0.2668
 3624W        W 7675   9.849   9.972   4.418 -0.4362 -0.1124 -0.0844
 3625W        W 7676   1.468   0.377   9.800  0.1010  0.1888 -0.2913
 3626W        W 7677   7.981   8.355  12.226  0.3127  0.0551  0.0441
 3627W        W 7678   1.600   0.651   8.786 -0.3824  0.1619 -0.0941
 3628W        W 7679   6.200   7.693  12.901 -0.5166 -0.3768  0.0473
 3629W        W 7680   6.473   4.163  10.899 -0.1111 -0.1347  0.0535
 3630W        W 7681   4.539   7.095   3.512  0.0682 -0.1289  0.0315
 3631W        W 7682   0.036   8.300   3.572 -0.1506  0.1169  0.0203
 3632W        W 7683   1.770   7.570   4.717  0.2341  0.1362  0.4021
 3633W        W 7684   6.128   3.739   2.960 -0.2387 -0.0135 -0.1507
 3634W        W 7685   8.727   1.802   4.559 -0.0985 -0.2592 -0.0197
 3635W        W 7686   4.977   8.944   0.379  0.0017  0.0798  0.1607
 3636W        W 7687   8.829   7.201  11.508 -0.2268  0.1014  0.0204
 3637W        W 7688   0.080   2.747  12.614 -0.4418  0.1562 -0.2792
 3638W        W 7689   5.735   2.315  10.309 -0.2381 -0.1861  0.0998
 3639W        W 7690   6.653   7.253  11.744 -0.4248  0.0065  0.2050
 3640W        W 7691   5.634   7.832   0.925  0.0849  0.0476  0.2016
 3641W        W 7692   7.138   0.785   9.974 -0.0841  0.0873 -0.3765
 3642W        W 7693   7.110   6.466   1.486  0.0037 -0.2381 -0.2491
 3643W        W 7694   3.566   5.898   0.661  0.0090 -0.1218  0.2792
 3644W        W 7695   2.353   1.635  13.662 -0.0549  0.0754 -0.0058
 3645W        W 7696   3.493   4.282   0.756  0.1412 -0.0665 -0.1242
 3646W        W 7697   6.820   0.978  11.134  0.0149  0.0740  0.2511
 3647W        W 7698   1.571   0.970  11.028  0.1300  0.1686  0.2842
 3648W        W 7699   9.620   2.371   3.251 -0.1160  0.1168 -0.1708
 3649W        W 7700   9.262   3.132   3.701  0.3417  0.2886  0.2585
 3650W        W 7701   2.107   3.393   9.631 -0.1744 -0.2265  0.0750
 3651W        W 7702   8.671   1.491  13.529 -0.0336  0.2673 -0.0630
 3652W        W 7703   9.781   7.364   1.961 -0.1573  0.1123  0.0660
 3653W        W 7704   1.573   9.158   2.172  0.0974 -0.2426 -0.1330
 3654W        W 7705   1.050   5.058  12.365 -0.0996 -0.1959  0.0723
 3655W        W 7706   4.666   9.835  11.360  0.0213  0.1292 -0.1173
 3656W        W 7707   7.306   3.239   1.465 -0.1938  0.1130 -0.0045
 3657W        W 7708   6.845   2.247  10.478  0.0707  0.0228 -0.0034
 3658W        W 7709   2.879   4.044  13.430  0.0565 -0.0331  0.0736
 3659W        W 7710   3.613   1.857  11.912  0.0817 -0.2416  0.2353
 3660W        W 7711   5.012   6.386   2.368  0.0746 -0.0146  0.0459
 3661W        W 7712   9.617   3.626  12.237 -0.0148 -0.0979  0.2932
 3662W        W 7713   1.455   6.556   1.039 -0.1871  0.0429  0.0123
 3663W        W 7714   1.173   7.002   0.044  0.1800 -0.0711 -0.2383
 3664W        W 7715   2.743   7.776   2.848 -0.0600 -0.3394 -0.0158
 3665W        W 7716   8.200   7.145   0.260  0.2362  0.1921 -0.2404
 3666W        W 7717   5.278   3.630  12.704 -0.1878  0.1096  0.0412
 3667W        W 7718   6.646   4.080   4.755 -0.4321  0.0649 -0.4958
 3668W        W 7719   6.350   1.824  12.243  0.0428 -0.1835 -0.1354
 3669W        W 7720   8.647   9.466   3.069  0.2425 -0.0726  0.1053
 3670W        W 7721   5.456   2.761   3.686  0.0316 -0.1781 -0.1895
 3671W        W 7722   3.531   0.987   1.406  0.1474  0.0411 -0.0139
 3672W        W 7723   4.275   0.480  10.046  0.1976  0.1366 -0.0398
 3673W        W 7724   0.614   9.981   1.977 -0.1104 -0.2868 -0.4234
 3674W        W 7725   0.292   2.903   4.184  0.2351  0.0975 -0.0439
 3675W        W 7726   1.187   4.077   4.794  0.1126 -0.2402  0.0131
 3676W        W 7727   5.866   0.392   1.901 -0.6045  0.3205  0.0519
 3677W        W 7728   9.987   3.933   8.504 -0.2845  0.2249 -0.1608
 3678W        W 7729   8.254   5.848  10.710  0.2693  0.1972  0.2224
 3679W        W 7730   2.725   7.237   2.348  0.0658 -0.0391 -0.0930
 3680W        W 7731   6.651   3.158  12.711  0.1451 -0.0013  0.1164
 3681W        W 7732   3.852   6.671   1.229 -0.0138  0.2373 -0.3592
 3682W        W 7733   5.031   2.836   3.502  0.1181 -0.1226  0.1483
 3683W        W 7734   9.738   6.454   2.708  0.2651  0.4668  0.1031
 3684W        W 7735   8.892   8.290   2.674 -0.0017  0.0533 -0.1615
 3685W        W 7736   8.134   8.687   4.397  0.1703  0.1064  0.0249
 3686W        W 7737   3.283   2.906   0.376 -0.0009  0.2148 -0.1404
 3687W        W 7738   4.884   0.012   1.787  0.3154 -0.1974 -0.2812
 3688W        W 7739   0.146   9.205   1.625  0.1275 -0.0258 -0.1466
 3689W        W 7740   7.606   2.577   5.690 -0.2759  0.1584 -0.1764
 3690W        W 7741   2.388   4.862  13.493 -0.0630 -0.3324  0.3124
 3691W        W 7742   9.637   5.606  10.099  0.1252 -0.3033  0.0757
 3692W        W 7743   6.244   3.594  10.209  0.0958  0.0702  0.1348
 3693W        W 7744   1.565   7.942   1.770  0.0242 -0.0611  0.0308
 3694W        W 7745   5.922   4.627  10.444 -0.0646 -0.0232 -0.3502
 3695W        W 7746   8.811   8.603  10.121  0.3466 -0.1089 -0.2651
 3696W        W 7747   9.322   1.123   3.994  0.1336  0.1806 -0.0424
 3697W        W 7748   3.565   0.881  13.329  0.3703  0.0702 -0.2719
 3698W        W 7749   1.700   7.421   0.764 -0.1967  0.1349  0.0229
 3699W        W 7750   0.183   2.876  10.143  0.2082  0.0519  0.4123
 3700W        W 7751   1.105   6.555  13.382 -0.0315 -0.3041 -0.0168
 3701W        W 7752   2.613   8.512   0.870  0.0087 -0.0293  0.0021
 3702W        W 7753  10.181   8.126   0.912 -0.0113 -0.1647 -0.0865
 3703W        W 7754   9.535   1.030  12.681 -0.0349 -0.2657 -0.0275
 3704W        W 7755   5.533   4.578  11.581  0.3266 -0.1898  0.0598
 3705W        W 7756   9.918   1.667  12.691 -0.1453 -0.0508 -0.4612
 3706W        W 7757   9.347   1.412   3.462  0.3756 -0.1073 -0.1932
 3707W        W 7758   6.806  10.196   2.804 -0.1170 -0.2896  0.3670
 3708W        W 7759   5.059   7.882   0.934  0.0258 -0.2499  0.0277
 3709W        W 7760   6.356   5.492  12.089  0.4632 -0.2745 -0.0330
 3710W        W 7761   0.681   2.714  13.492  0.2248  0.0008 -0.1897
 3711W        W 7762   0.132   2.821   9.090 -0.0644 -0.2829  0.0731
 3712W        W 7763   6.425   3.687   5.061 -0.3982 -0.1397  0.2239
 3713W        W 7764   0.592   2.268  13.268 -0.2118  0.0290  0.1976
 3714W        W 7765   1.432   8.899   3.713 -0.0102  0.0619  0.2177
 3715W        W 7766   5.137   8.160  10.563  0.0003  0.0430 -0.1306
 3716W        W 7767   6.483   3.192   1.139  0.0490  0.0354 -0.0938
 3717W        W 7768   9.651   8.026  12.848 -0.1857  0.1383 -0.1538
 3718W        W 7769   4.506   5.985  10.740  0.2556 -0.1991 -0.0545
 3719W        W 7770   8.736   0.172   3.537  0.1306  0.0425  0.2204
 3720W        W 7771   2.551   3.567  13.339 -0.1585 -0.3912 -0.1140
 3721W        W 7772   7.260   6.968  11.622 -0.2654 -0.2493 -0.0224
 3722W        W 7773   0.270   4.748   4.833  0.1645  0.2908 -0.1265
 3723W        W 7774   7.784   1.884  11.540 -0.1087 -0.1007 -0.1177
 3724W        W 7775   1.441   1.269   0.879 -0.1340  0.2667  0.3446
 3725W        W 7776   9.934   4.132   9.315  0.0206 -0.1627  0.2064
 3726W        W 7777  10.042   5.964  11.776 -0.1653 -0.2346  0.0281
 3727W        W 7778   2.928   7.791  12.784  0.0713  0.0272 -0.1035
 3728W        W 7779   3.934   5.851   3.270 -0.1336  0.2390 -0.0237
 3729W        W 7780   1.565   2.598   1.314  0.1463  0.0042  0.2403
 3730W        W 7781   4.496   2.670   9.844 -0.1697  0.4171 -0.0925
 3731W        W 7782   0.797   4.954  11.099 -0.1378  0.0178  0.3502
 3732W        W 7783   5.458   5.531   0.808  0.0084  0.0957  0.1233
 3733W        W 7784   4.340   4.786  13.539 -0.2176 -0.1187 -0.3332
 3734W        W 7785   2.161   3.298   3.124 -0.0276  0.0882 -0.1505
 3735W        W 7786   2.850   6.731   9.349 -0.1045 -0.0649 -0.0281
 3736W        W 7787   9.990   2.779  12.260  0.1111  0.2198  0.1909
 3737W        W 7788   8.857   8.769  13.266 -0.0264 -0.2266  0.0588
 3738W        W 7789   2.757  10.140   0.815 -0.0776  0.1053  0.1443
 3739W        W 7790   8.669   7.686  10.620  0.0275 -0.0318 -0.4131
 3740W        W 7791   0.665   1.628   1.479  0.4935 -0.1257  0.1156
 3741W        W 7792   0.860   6.946   3.758 -0.2000  0.0111  0.2161
 3742W        W 7793   6.183   9.183  11.121  0.3734  0.0770  0.1066
 3743W        W 7794   2.265   0.974   4.250 -0.1102  0.0704 -0.2704
 3744W        W 7795   1.032   4.842   4.322  0.0467 -0.0852 -0.0187
 3745W        W 7796   9.633   1.857  12.232 -0.2714  0.2143 -0.1085
 3746W        W 7797   5.863   8.903  12.329 -0.2138 -0.0795  0.0183
 3747W        W 7798   2.570   9.645   0.936  0.2007  0.0601  0.2833
 3748W        W 7799   6.508   8.102   1.048  0.0872  0.0194 -0.0776
 3749W        W 7800   3.870   3.843   3.871  0.0880  0.3210 -0.2342
 3750W        W 7801   9.628   1.707   4.297 -0.0709  0.0062  0.2594
 3751W        W 7802   0.241   2.815  11.362 -0.0807  0.1993 -0.0022
 3752W        W 7803   8.518   5.237  13.109 -0.2130 -0.4719 -0.2464
 3753W        W 7804   9.087   5.582   2.006  0.3380 -0.0897  0.0638
 3754W        W 7805   8.283   0.914  10.379 -0.0304 -0.2914  0.2860
 3755W        W 7806  10.163   2.310   2.796  0.0824 -0.0150  0.0707
 3756W        W 7807   8.793   5.113   9.821  0.2346  0.1096  0.1687
 3757W        W 7808   1.160   9.118   9.027 -0.3140 -0.1760 -0.1571
 3758W        W 7809   8.877   4.811   2.228 -0.0741  0.3542 -0.2053
 3759W        W 7810   9.999   4.259   2.513  0.3795  0.0024  0.0710
 3760W        W 7811   2.045   7.057  12.457  0.0352  0.2275 -0.0008
 3761W        W 7812   2.108   6.066   2.242 -0.0077 -0.1467  0.0854
 3762W        W 7813   3.484   7.526   1.686 -0.1885  0.3110 -0.1573
 3763W        W 7814   7.387   1.070  11.830  0.0222  0.2229 -0.2154
 3764W        W 7815   2.324   0.410   1.991  0.3459 -0.2361  0.0092
 3765W        W 7816   4.177   1.172   4.083 -0.0841  0.2933 -0.0620
 3766W        W 7817   2.626   5.130   1.964  0.1368 -0.0532 -0.0960
 3767W        W 7818   0.560   2.476  11.335  0.4301  0.0975 -0.3519
 3768W        W 7819   7.055   9.654  13.081 -0.0128 -0.1806  0.1551
 3769W        W 7820   2.381   9.864  12.336  0.3315  0.0085  0.0539
 3770W        W 7821   9.163   7.081  11.831  0.1433  0.3581  0.1410
 3771W        W 7822   1.337   3.770   3.086  0.0031 -0.2602 -0.2416
 3772W        W 7823   6.719   6.233   1.157  0.0489  0.0559  0.0068
 3773W        W 7824   3.861   9.014   9.792  0.0343 -0.0627 -0.1367
 3774W        W 7825   8.366   9.705  13.315  0.0656 -0.1228  0.0239
 3775W        W 7826   0.242   6.689  11.783 -0.0344  0.2953  0.0581
 3776W        W 7827   8.752   1.856   3.840  0.0847 -0.2519 -0.0767
 3777W        W 7828   0.390   9.824   4.597  0.1956 -0.0526  0.1867
 3778W        W 7829   7.662   9.557  12.438  0.0286  0.0522  0.2941
 3779W        W 7830   2.267   6.546  12.652 -0.2823 -0.2066 -0.1644
 3780W        W 7831   4.825   9.233   1.751  0.1666 -0.0538 -0.1733
 3781W        W 7832   4.789   8.677  12.371  0.0200  0.1042  0.1700
 3782W        W 7833   7.472   3.564   0.621 -0.3323 -0.1147  0.1803
 3783W        W 7834   9.635   0.922   1.867 -0.1823  0.1222 -0.3171
 3784W        W 7835   1.354   7.431   5.425  0.2421  0.0460 -0.0118
 3785W        W 7836   2.591   0.694  13.562  0.2766  0.2394  0.0032
 3786W        W 7837   5.670   3.611   3.141  0.1686 -0.2019  0.1921
 3787W        W 7838   3.851   5.620   0.323 -0.0236  0.0347 -0.0410
 3788W        W 7839   9.119   1.138   0.544  0.0196  0.2053 -0.2995
 3789W        W 7840   4.684   0.531  13.408  0.0341 -0.1263  0.2807
 3790W        W 7841   0.680   2.618  10.871  0.0913 -0.1125 -0.2071
 3791W        W 7842   2.172   5.185   3.865 -0.3715 -0.3536  0.2141
 3792W        W 7843   1.581   8.434  12.664  0.0043 -0.1118  0.1848
 3793W        W 7844   6.966   6.453  13.199  0.3659 -0.0586 -0.1205
 3794W        W 7845   4.801   7.924   3.120  0.3446 -0.3725  0.1269
 3795W        W 7846   2.755   8.537   9.973  0.0507 -0.0092 -0.0164
 3796W        W 7847   0.101   9.800   5.145  0.0687  0.1475  0.0803
 3797W        W 7848   0.663   6.711   3.344  0.1136 -0.1809  0.1124
 3798W        W 7849   5.145   5.821   1.137  0.0905 -0.1565 -0.0289
 3799W        W 7850   1.060   7.834   0.532 -0.3571  0.0052 -0.1071
 3800W        W 7851   9.944   4.512   9.630 -0.0337  0.1560 -0.1477
 3801W        W 7852   3.956   2.193   2.254 -0.3450 -0.2185  0.1327
 3802W        W 7853   5.172   3.330   3.246 -0.0745 -0.0486 -0.0399
 3803W        W 7854   1.583   4.128   0.679 -0.3207  0.0861  0.0678
 3804W        W 7855   7.639   5.115  10.931  0.1465  0.1938  0.0312
 3805W        W 7856   5.454   8.699   2.832 -0.0079  0.4834 -0.0815
 3806W        W 7857   1.630   3.450   9.368  0.0363 -0.1666  0.2823
 3807W        W 7858   3.861   9.029   3.605 -0.2774 -0.0745  0.0862
 3808W        W 7859   5.475   6.021   0.298 -0.3458  0.1653 -0.0029
 3809W        W 7860   6.450   8.016   0.069 -0.4139  0.3623 -0.3427
 3810W        W 7861   6.212   0.090   0.284 -0.0799 -0.1855 -0.2557
 3811W        W 7862   9.070   4.922  12.286  0.2990 -0.1667 -0.1949
 3812W        W 7863   9.916   8.558   9.063 -0.2734  0.2797 -0.1557
 3813W        W 7864   9.141   5.569  10.980 -0.3070  0.1534  0.0847
 3814W        W 7865   3.433   5.852  10.505 -0.1909 -0.0134 -0.3522
 3815W        W 7866   9.411   9.177  12.826 -0.0276 -0.0997  0.2891
 3816W        W 7867   6.828   1.748  12.440 -0.2468 -0.1807 -0.2693
 3817W        W 7868   0.556   7.444  12.208 -0.0289 -0.2316 -0.2186
 3818W        W 7869   7.792   3.896   2.732 -0.0931 -0.0088 -0.2286
 3819W        W 7870   8.373   8.155  13.081 -0.1332 -0.1745  0.2737
 3820W        W 7871   8.348   2.998  11.964  0.1505 -0.0034  0.1648
 3821W        W 7872   9.046   8.495   0.501  0.2567 -0.1884  0.0469
 3822W        W 7873   2.711   0.891   9.259 -0.2574 -0.0020 -0.0371
 3823W        W 7874   1.464   3.586   0.456 -0.0467  0.3621 -0.1199
 3824W        W 7875   3.384   0.204   9.693  0.0500 -0.1995 -0.1879
 3825W        W 7876   0.158   7.442   9.996 -0.3238 -0.1147 -0.4131
 3826W        W 7877   1.605   9.685   2.303  0.1598  0.1168 -0.1340
 3827W        W 7878   4.541   5.088  10.323 -0.0139 -0.0463 -0.1731
 3828W        W 7879   6.325   2.967  13.484 -0.0133  0.1013 -0.1538
 3829W        W 7880   5.982   6.928   2.948 -0.0136  0.2177 -0.2247
 3830W        W 7881   5.716   5.225  10.414  0.2413 -0.1320 -0.0523
 3831W        W 7882   6.170   3.706   0.538  0.3382  0.3010  0.2451
 3832W        W 7883   6.089   9.173   9.999 -0.3878  0.0524  0.1987
 3833W        W 7884   8.704   7.868   9.629  0.2608 -0.0981  0.1327
 3834W        W 7885   2.950   4.793  13.581  0.5334 -0.1997 -0.0568
 3835W        W 7886   0.083   8.644   1.199  0.0494  0.0830  0.0807
 3836W        W 7887   5.527   3.082   4.162  0.1550 -0.1489 -0.1286
 3837W        W 7888   1.652   4.736   4.370  0.0689 -0.2424  0.2520
 3838W        W 7889   6.515   0.697  13.692 -0.1936  0.1332  0.0164
 3839W        W 7890   9.423   6.547  10.801  0.0663 -0.0466 -0.0065
 3840W        W 7891   4.944   2.540   0.457  0.1309 -0.0544 -0.0848
 3841W        W 7892   1.643   1.917  13.002 -0.0575 -0.0275  0.3598
 3842W        W 7893   4.266   3.623   3.331 -0.0146  0.0732  0.3117
 3843W        W 7894   7.933   4.982   9.620 -0.0006  0.0708 -0.1702
 3844W        W 7895   8.687   7.763  13.426 -0.0195 -0.0674 -0.0088
 3845W        W 7896   3.715   9.189   1.485 -0.2828 -0.3371  0.1436
 3846W        W 7897   0.297   3.972  13.845 -0.2385  0.1980  0.4773
 3847W        W 7898   1.938   2.964   4.682 -0.1319 -0.0099 -0.1429
 3848W        W 7899   4.671   7.717   2.612  0.1026  0.0129 -0.3996
 3849W        W 7900   1.524   1.713   0.537  0.0523  0.0654  0.0367
 3850W        W 7901   7.261   1.610  12.140  0.1025 -0.3115 -0.1294
 3851W        W 7902   0.551   0.713   4.631  0.1895 -0.1848 -0.0222
 3852W        W 7903   9.862   8.111  13.515  0.3362  0.0093 -0.0415
 3853W        W 7904   6.283   3.485   5.519 -0.0322 -0.1703  0.0300
 3854W        W 7905   1.233   7.636   9.582  0.1078  0.3869  0.3236
 3855W        W 7906   4.214   4.270   0.740 -0.0846 -0.0208 -0.1386
 3856W        W 7907   9.055   5.185  13.102  0.0413  0.0499 -0.0003
 3857W        W 7908   1.562   6.049   0.187 -0.0647 -0.1690 -0.3085
 3858W        W 7909   6.754   7.798  11.063  0.2302 -0.0794 -0.1687
 3859W        W 7910   4.561   2.355   4.713 -0.0443  0.0809  0.0548
 3860W        W 7911   5.908   3.133   3.858  0.6629  0.0338 -0.2284
 3861W        W 7912   1.856   5.164  13.813  0.1301  0.1081  0.0580
 3862W        W 7913   8.060   6.233   9.278  0.1881 -0.1622 -0.1641
 3863W        W 7914   4.085   2.484   5.064 -0.0848  0.0421  0.1124
 3864W        W 7915   9.149   0.225   0.372 -0.1428 -0.3565 -0.0312
 3865W        W 7916   1.184   3.135   2.263  0.3347 -0.1668 -0.0257
 3866W        W 7917   2.163   5.993   4.567  0.1097  0.2548  0.0362
 3867W        W 7918  10.169   7.339   4.608 -0.2600 -0.0616 -0.0157
 3868W        W 7919   7.236   1.667  10.403  0.0646  0.1936  0.2968
 3869W        W 7920   5.977   0.519   0.454 -0.0644 -0.1993 -0.0589
 3870W        W 7921   6.290   7.194  13.676 -0.2041 -0.0715  0.0885
 3871W        W 7922   7.541   0.558   4.341 -0.2805  0.1068  0.3173
 3872W        W 7923   3.518   7.025   1.700  0.4111  0.1081 -0.0761
 3873W        W 7924   6.029   2.624   8.647  0.1618  0.0182 -0.1410
 3874W        W 7925   3.384   7.430   3.262  0.2732 -0.0857 -0.0549
 3875W        W 7926   3.165   6.792   0.018 -0.0075 -0.0236  0.2268
 3876W        W 7927   6.959   7.149   2.878 -0.0007 -0.1497  0.0131
 3877W        W 7928   6.390   7.489  10.744 -0.0617 -0.1651 -0.0833
 3878W        W 7929   9.305   5.656   3.797  0.1925  0.2730 -0.0743
 3879W        W 7930   9.628   3.262  13.059 -0.4165  0.1328 -0.0317
 3880W        W 7931   2.535   4.998  11.436 -0.1260  0.0760 -0.2430
 3881W        W 7932   9.996   8.586  10.660  0.1142  0.0543 -0.2362
 3882W        W 7933   6.550   9.635   1.219 -0.1800 -0.0942  0.0578
 3883W        W 7934   9.610   3.807  10.974  0.0227 -0.2488  0.0113
 3884W        W 7935   5.920   1.017   9.436 -0.0175  0.0227  0.0570
 3885W        W 7936   1.400   7.923  13.401 -0.1630 -0.2094  0.0215
 3886W        W 7937   0.108   7.759   4.263 -0.0591  0.1486 -0.1763
 3887W        W 7938  10.168  10.104  13.253  0.0119 -0.2333  0.3120
 3888W        W 7939   7.203   1.635   4.615  0.0359  0.0225 -0.1856
 3889W        W 7940   0.295   5.383   2.073 -0.0171  0.0837  0.4863
 3890W        W 7941   5.717   0.485  10.955 -0.0040 -0.2444 -0.0695
 3891W        W 7942   8.765   6.064   9.585 -0.2471  0.2498  0.3053
 3892W        W 7943   8.496   6.201  13.311  0.0154  0.2817 -0.3854
 3893W        W 7944   7.230   2.511   4.136 -0.0834  0.0240  0.1669
 3894W        W 7945   0.390   6.533   2.620  0.1813  0.1075  0.1127
 3895W        W 7946   1.427   9.480   3.574  0.6068  0.2162 -0.0804
 3896W        W 7947   4.910   1.133  11.594 -0.0647 -0.1536 -0.1833
 3897W        W 7948   2.910  10.142  13.002  0.1206  0.0506  0.1027
 3898W        W 7949   1.559   3.317   4.838  0.0734  0.1999  0.0410
 3899W        W 7950   0.602   2.390   4.893  0.0780  0.1837 -0.1178
 3900W        W 7951   4.277   1.449   1.779 -0.0375 -0.0778  0.2921
 3901W        W 7952   6.517   7.461   2.885  0.0081 -0.1495  0.2224
 3902W        W 7953   5.458   6.936   0.325  0.1242 -0.2025  0.0400
 3903W        W 7954   2.399   8.034  10.357 -0.0646  0.2229 -0.1559
 3904W        W 7955   1.782   0.947   5.216 -0.3370  0.1915  0.1798
 3905W        W 7956   5.523   6.452   2.313  0.0408 -0.0362  0.1585
 3906W        W 7957   5.269   7.861   0.452  0.2938  0.0371  0.1772
 3907W        W 7958   7.053   9.206   0.049 -0.2146 -0.0856  0.0237
 3908W        W 7959   7.313   8.405  13.594  0.0299 -0.0390  0.2872
 3909W        W 7960   6.936   1.297   3.085 -0.0010 -0.0343  0.0714
 3910W        W 7961   1.117   5.628   3.124 -0.0588 -0.0006  0.0036
 3911W        W 7962   5.069   4.859   0.972 -0.0862 -0.2030  0.0703
 3912W        W 7963   7.316   6.512   0.422 -0.0335 -0.0905 -0.0877
 3913W        W 7964   5.229   5.160   0.553  0.2119 -0.0085 -0.2508
 3914W        W 7965   3.021   4.632   0.780  0.0124  0.0862  0.0472
 3915W        W 7966   0.865   1.632   4.684  0.2415 -0.1679  0.1627
 3916W        W 7967   2.480   2.001  11.095 -0.0668  0.1235  0.0365
 3917W        W 7968   3.044   3.026   3.619 -0.3935 -0.2287 -0.3925
 3918W        W 7969   3.453   6.714  10.079  0.1271  0.0775 -0.0945
 3919W        W 7970   2.065   9.617   0.807 -0.0146  0.0140 -0.3208
 3920W        W 7971   0.478   9.337   0.624  0.1154 -0.0583 -0.1045
 3921W        W 7972   6.180   3.027  10.027 -0.0053 -0.1237  0.1243
 3922W        W 7973   0.333   3.739   0.894 -0.1675 -0.1081 -0.3385
 3923W        W 7974   5.434   8.724   0.592  0.2167  0.1652  0.2144
 3924W        W 7975   0.353   3.369   0.197  0.0894  0.2381 -0.0131
 3925W        W 7976   9.773   6.027   4.571  0.0091  0.3590  0.0186
 3926W        W 7977   2.357   2.914  12.918 -0.0590  0.0895  0.1666
 3927W        W 7978   6.627   2.594   1.402 -0.1017  0.1707 -0.0633
 3928W        W 7979   0.475   3.751   9.932  0.1457  0.2610  0.1434
 3929W        W 7980   7.942   0.981  11.191 -0.0179 -0.0671 -0.0681
 3930W        W 7981   4.024   1.394   3.643  0.0954 -0.0997  0.2068
 3931W        W 7982   9.371   0.979  10.334 -0.2004  0.1361  0.1365
 3932W        W 7983   9.354   8.682   3.356 -0.2173 -0.0535  0.2696
 3933W        W 7984   3.063   8.378   1.088 -0.3016  0.1382 -0.1706
 3934W        W 7985  10.108   5.582   4.950 -0.3096 -0.3918 -0.2486
 3935W        W 7986   2.581   8.141   0.436  0.3636  0.0073 -0.1792
 3936W        W 7987   1.826   0.152  13.385 -0.2147 -0.2935 -0.0027
 3937W        W 7988   7.173   6.089  13.462 -0.1224 -0.4319  0.1585
 3938W        W 7989   9.113   3.053  12.872  0.1106  0.0807 -0.1784
 3939W        W 7990   7.338   3.834   3.193  0.1626 -0.1008 -0.0797
 3940W        W 7991   4.473   0.037  11.581  0.0264 -0.0430 -0.0178
 3941W        W 7992   3.967   1.059  11.783  0.2494 -0.1368  0.0004
 3942W        W 7993   9.796   6.368  11.428 -0.2320 -0.3582  0.1336
 3943W        W 7994   9.373   1.213   1.001  0.1134  0.0543  0.0102
 3944W        W 7995   2.239   6.100   3.041 -0.2594 -0.0478 -0.2309
 3945W        W 7996   4.992   6.162   9.526 -0.0796 -0.1470 -0.2006
 3946W        W 7997   0.340   5.463  13.502 -0.0064  0.1862 -0.0666
 3947W        W 7998   0.182   9.657   2.317 -0.0342 -0.1882 -0.0476
 3948W        W 7999   3.791   6.855   3.820  0.2185 -0.1018 -0.1564
 3949W        W 8000   4.863   9.660  13.240  0.1147 -0.0500  0.3820
 3950W        W 8001   4.802   0.375  11.220 -0.1080  0.2667 -0.2024
 3951W        W 8002   0.585   3.214   2.102 -0.1293 -0.0699 -0.0418
 3952W        W 8003   9.971   2.715  10.202  0.2968  0.1879 -0.1066
 3953W        W 8004   9.381   2.075   9.841 -0.3014  0.0804 -0.0361
 3954W        W 8005   4.108   4.133  12.229 -0.2796  0.1974 -0.2018
 3955W        W 8006   8.278   7.090   1.155 -0.3682 -0.0334 -0.0683
 3956W        W 8007   9.019   1.585  13.146  0.0342 -0.0140  0.0307
 3957W        W 8008   7.673   0.920   1.313 -0.0525 -0.1546  0.3053
 3958W        W 8009   7.795   3.021   3.081  0.0770 -0.2641  0.0353
 3959W        W 8010   2.758   9.923   2.382 -0.0480 -0.0153  0.0293
 3960W        W 8011   6.676   9.980   9.587  0.2755 -0.1707  0.0904
 3961W        W 8012   7.944   6.378  13.479 -0.2650  0.1595  0.0875
 3962W        W 8013   4.992   8.761  11.495  0.0033 -0.1708  0.1975
 3963W        W 8014   3.976   3.647   2.925  0.3233  0.0854  0.1435
 3964W        W 8015  10.129   6.194   3.840  0.2040  0.2035 -0.2587
 3965W        W 8016   2.699   1.455  11.801 -0.1105  0.2493  0.0491
 3966W        W 8017   3.257   8.285   2.031 -0.1722 -0.0124  0.4269
 3967W        W 8018   7.746   9.767   1.292 -0.4041  0.1283 -0.3343
 3968W        W 8019   4.489   6.200  10.315 -0.1501  0.2070  0.3900
 3969W        W 8020   3.280  10.200   3.691  0.2364  0.3969  0.1823
 3970W        W 8021   9.736   7.531  12.648 -0.0630  0.1493  0.0500
 3971W        W 8022   1.746   5.366   3.974  0.3028  0.3147 -0.1276
 3972W        W 8023   6.699   5.362   9.338  0.0855 -0.0516 -0.4013
 3973W        W 8024   9.214   6.868   3.196 -0.2309 -0.2428  0.0927
 3974W        W 8025   4.688   9.760  12.310 -0.1410  0.2691  0.0366
 3975W        W 8026   7.319   3.872   2.523 -0.0804 -0.1192 -0.3181
 3976W        W 8027   1.266   6.772   9.335 -0.0352 -0.2120  0.0281
 3977W        W 8028   7.885   1.667   2.430 -0.1930  0.0221  0.1528
 3978W        W 8029   3.774   1.679  10.578 -0.0278  0.0293 -0.3451
 3979W        W 8030   5.768   4.443   1.186 -0.1198 -0.0638  0.2819
 3980W        W 8031   8.043   3.281   2.337  0.0978  0.1521  0.2596
 3981W        W 8032   9.840   8.063   3.878  0.1065 -0.0549 -0.0108
 3982W        W 8033   1.376   3.588  11.519 -0.0830  0.1237 -0.0781
 3983W        W 8034   3.246   0.699  12.418 -0.0320  0.1614 -0.0059
 3984W        W 8035   4.506   6.135   3.641  0.0101  0.0853 -0.2102
 3985W        W 8036   9.731  10.049   9.698  0.3173  0.0400  0.1678
 3986W        W 8037   1.810   3.706   3.339  0.0105 -0.5855 -0.1380
 3987W        W 8038   7.522   9.364  12.878 -0.1270 -0.1814 -0.1964
 3988W        W 8039   9.828   0.435  13.509  0.3040 -0.0622  0.3079
 3989W        W 8040   5.682   3.540   1.329  0.0724 -0.0396 -0.0049
 3990W        W 8041   2.045   3.069   2.640 -0.1165 -0.1630 -0.0063
 3991W        W 8042   9.972   9.667   1.628 -0.2328 -0.2480 -0.2879
 3992W        W 8043   9.527   8.978   1.297 -0.1414 -0.0489 -0.3389
 3993W        W 8044   4.673   6.480   0.116 -0.1694  0.0035  0.0726
 3994W        W 8045   9.393   4.233  11.678  0.1649 -0.1974  0.0316
 3995W        W 8046   8.629   4.588  12.352 -0.2111  0.1004  0.2704
 3996W        W 8047   2.959   4.788  11.180 -0.1697 -0.0253 -0.2360
 3997W        W 8048   1.139   6.861  11.336  0.0318 -0.0879 -0.2053
 3998W        W 8049   7.329   0.904   0.010 -0.0059  0.0955  0.2354
 3999W        W 8050   3.544   7.673  13.846 -0.0950  0.1864 -0.2930
 4000W        W 8051   2.251   7.261   3.390  0.1736 -0.0084 -0.1404
 4001W        W 8052   5.037   3.344   5.374 -0.0599  0.0946 -0.0392
 4002W        W 8053   5.599   5.326  12.022 -0.3632  0.1921  0.0695
 4003W        W 8054   5.539   1.392   0.256 -0.3668 -0.0865  0.2721
 4004W        W 8055   9.962   3.008   5.322  0.1711 -0.1549  0.2414
 4005W        W 8056   1.626   8.840   5.451 -0.1435  0.0878 -0.0401
 4006W        W 8057   8.691   6.752   9.007 -0.0752  0.0300  0.3807
 4007W        W 8058   6.655   5.873  11.216  0.3202 -0.0071 -0.0173
 4008W        W 8059   9.433   5.361  13.427  0.2049  0.1001  0.0128
 4009W        W 8060   2.308   4.120   0.216  0.0978  0.0028 -0.1412
 4010W        W 8061   1.547   8.503   1.720  0.2091  0.2554  0.3470
 4011W        W 8062   1.207   5.833   9.721  0.0913  0.0039 -0.0343
 4012W        W 8063   2.942   1.241   9.576 -0.5634 -0.0847 -0.1861
 4013W        W 8064   5.520   0.951   4.568  0.3658 -0.1554 -0.2235
 4014W        W 8065   4.058   0.274   0.567  0.0283 -0.4706  0.0527
 4015W        W 8066   2.757   4.141  10.567  0.1394 -0.0478  0.0560
 4016W        W 8067   0.923   7.516  12.664  0.1400 -0.1068  0.2841
 4017W        W 8068   8.338   6.860   1.813  0.0479 -0.0149  0.0173
 4018W        W 8069   0.957   5.842  12.631  0.0186  0.0973  0.3902
 4019W        W 8070   4.639   7.533   0.836 -0.0345 -0.0396 -0.2175
 4020W        W 8071   7.298   2.029   0.488  0.0404  0.0398 -0.1464
 4021W        W 8072   2.357   4.512  11.317  0.1566 -0.2127 -0.1922
 4022W        W 8073   7.868   3.411  10.915  0.0080 -0.4169  0.0959
 4023W        W 8074   1.192   7.662   1.488 -0.1653 -0.1627 -0.0932
 4024W        W 8075   2.526   8.905   5.277 -0.0977 -0.0786  0.1012
 4025W        W 8076   0.840   0.930  10.410 -0.1899 -0.0873 -0.0144
 4026W        W 8077   7.456   3.486   2.888  0.0685 -0.0486 -0.0148
 4027W        W 8078   2.727   1.607   9.838  0.0612  0.1413 -0.3826
 4028W        W 8079  10.120   7.358   8.552 -0.1512 -0.1938  0.1561
 4029W        W 8080   7.779   9.072  12.474 -0.0941 -0.0318 -0.0214
 4030W        W 8081   5.025   1.218  12.200  0.0242 -0.0442  0.0214
 4031W        W 8082   5.001   2.649  12.887  0.2445 -0.2530 -0.1029
 4032W        W 8083   3.611   2.156  12.364 -0.0751 -0.1773 -0.1102
 4033W        W 8084   1.360   6.217   0.603 -0.1658  0.7924 -0.3744
 4034W        W 8085   7.309  10.013  11.668 -0.1365 -0.2213  0.1297
 4035W        W 8086   6.903   1.188   1.833 -0.3380  0.1499 -0.2124
 4036W        W 8087   1.051   4.333   9.589 -0.0199  0.1964 -0.0187
 4037W        W 8088  10.150   7.284  12.774 -0.2691  0.2785 -0.0436
 4038W        W 8089   5.437   6.008  10.993  0.1615 -0.0347  0.1625
 4039W        W 8090   6.550   4.514  12.167 -0.1241 -0.3100  0.1175
 4040W        W 8091   7.450   8.859  13.739  0.1751 -0.0767  0.0936
 4041W        W 8092   5.358   5.604   3.165 -0.3746  0.3205 -0.1192
 4042W        W 8093   2.563   7.441   3.773  0.0660 -0.1396  0.2577
 4043W        W 8094   9.734   4.774   1.569 -0.2239  0.0080  0.0518
 4044W        W 8095   7.553   1.673   4.202  0.0176 -0.1837 -0.1302
 4045W        W 8096   0.226   3.628  11.699  0.2155 -0.1547 -0.0019
 4046W        W 8097   9.467   0.256   0.821 -0.2069  0.1121 -0.0224
 4047W        W 8098   6.299  10.002  13.705 -0.1222 -0.1208 -0.1592
 4048W        W 8099   8.293   0.247   1.091 -0.2481  0.0481 -0.2652
 4049W        W 8100  10.185   4.483  12.030  0.0922  0.1319  0.0742
 4050W        W 8101   6.095   3.258   0.184  0.1293  0.0849  0.3438
 4051W        W 8102   9.982   2.151  11.657 -0.2645 -0.2050 -0.0923
 4052W        W 8103   1.148   3.209  11.345 -0.0809 -0.0224  0.1142
 4053W        W 8104   8.785   5.520   9.553 -0.0230 -0.0274  0.1514
 4054W        W 8105   6.393   0.613   4.076  0.0619 -0.0222  0.2244
 4055W        W 8106   3.546   2.485  11.979 -0.1891  0.0993  0.1606
 4056W        W 8107   9.831   1.833   2.725 -0.3297  0.0964  0.5231
 4057W        W 8108   1.367   3.370   3.411 -0.3319 -0.2509  0.4181
 4058W        W 8109   1.697   0.437  11.891 -0.4081  0.0566 -0.1820
 4059W        W 8110   1.457   1.622   9.871  0.1894 -0.2914  0.0414
 4060W        W 8111   9.252   8.373  12.905 -0.2179 -0.1173  0.2718
 4061W        W 8112   1.900   7.531   8.900 -0.1993  0.3466 -0.1834
 4062W        W 8113   2.673   2.150  13.125 -0.0847  0.0930 -0.1623
 4063W        W 8114   6.417   4.684   1.220 -0.0675 -0.1469 -0.1051
 4064W        W 8115   0.260   3.054   0.981  0.1564 -0.0631  0.2150
 4065W        W 8116   0.643   8.427   1.794 -0.0937  0.0620  0.1273
 4066W        W 8117   0.781   9.663   2.983 -0.0310 -0.2708  0.1600
 4067W        W 8118   5.936   9.951   0.514 -0.0185 -0.2764  0.0095
 4068W        W 8119   1.429   9.724   1.104  0.0958 -0.1237  0.0043
 4069W        W 8120   0.401   7.460   1.010 -0.3239 -0.0343 -0.4201
 4070W        W 8121   8.161   7.637  10.674 -0.0581 -0.2869 -0.0700
 4071W        W 8122   1.438   2.387   8.771  0.4203 -0.0973 -0.3139
 4072W        W 8123   0.272   2.373   0.338  0.1126  0.1224 -0.1041
 4073W        W 8124   7.373   5.752   9.695 -0.1360 -0.2644  0.1827
 4074W        W 8125   4.023   4.349  10.037  0.0431 -0.1013  0.3459
 4075W        W 8126   6.909   3.151   2.853  0.1791 -0.2933 -0.2499
 4076W        W 8127   3.738   5.709   8.873  0.0270  0.1094 -0.0843
 4077W        W 8128   5.945   9.567   0.229  0.1488  0.1226  0.2519
 4078W        W 8129   1.367   2.202   4.168 -0.2508  0.2372 -0.0044
 4079W        W 8130   7.564   2.514  12.171 -0.1792 -0.1773  0.0984
 4080W        W 8131   6.987   8.679   0.014  0.2754 -0.2461  0.1117
 4081W        W 8132   4.431   3.046   4.135 -0.2104 -0.0299 -0.0751
 4082W        W 8133   4.166   0.137   1.139  0.2962 -0.0559 -0.1426
 4083W        W 8134   8.437   5.819  12.473  0.1877  0.0742 -0.1887
 4084W        W 8135   9.024   2.316   2.038 -0.1925 -0.1039 -0.2380
 4085W        W 8136   8.393   8.691   2.866  0.1117  0.1833 -0.2820
 4086W        W 8137   2.342   5.633   9.158  0.0072 -0.3725  0.1205
 4087W        W 8138   5.170   9.766  11.453 -0.1494  0.0545 -0.0529
 4088W        W 8139   8.774   8.908  12.261  0.0462  0.0804 -0.0760
 4089W        W 8140   3.673   2.484   4.176  0.1371  0.2139  0.1244
 4090W        W 8141   8.004   0.594   1.014  0.3555  0.0097 -0.1007
 4091W        W 8142   2.754   0.722  12.717 -0.1823  0.1253 -0.0771
 4092W        W 8143   1.550   1.389   3.766  0.0932  0.3111 -0.0030
 4093W        W 8144   3.346   0.316   0.266  0.1780  0.0213 -0.0510
 4094W        W 8145   9.825   8.963   3.421  0.1607  0.0936 -0.1536
 4095W        W 8146   6.529   2.624  13.065  0.2275  0.1835  0.1214
 4096W        W 8147   3.044   2.499   0.163  0.0017 -0.2168 -0.1184
 4097W        W 8148   7.638   0.403   1.826 -0.4443  0.2837  0.0800
 4098W        W 8149   3.488   9.678   0.647 -0.2959 -0.2463 -0.0417
 4099W        W 8150   3.527   0.486   1.190 -0.1179 -0.2678 -0.1020
 4100W        W 8151   3.026   7.066  13.051 -0.0675  0.0951  0.0752
 4101W        W 8152   7.373   4.325   9.897  0.1513 -0.0077 -0.2412
 4102W        W 8153   3.489   2.832   2.512  0.2874  0.0713 -0.2376
 4103W        W 8154   6.997   1.871   1.373  0.0279  0.1415  0.1200
 4104W        W 8155   1.535   3.399   5.328 -0.1553  0.0116 -0.1632
 4105W        W 8156   3.962   2.688   2.259  0.1928  0.0675  0.0520
 4106W        W 8157   9.388   4.747   2.310  0.0376 -0.0660 -0.0508
 4107W        W 8158   7.719   3.438   0.193  0.1186 -0.0853 -0.2417
 4108W        W 8159   0.565   3.356   0.666  0.1828 -0.0292  0.0389
 4109W        W 8160   9.528   9.141   9.682 -0.1293 -0.1511  0.3272
 4110W        W 8161   8.241   3.814   2.431 -0.1371  0.1441  0.0021
 4111W        W 8162   7.694   5.231   1.786  0.0606  0.0010 -0.0213
 4112W        W 8163   2.147   3.976  10.463 -0.0397 -0.0454 -0.0446
 4113W        W 8164   7.475   2.888  11.572 -0.0608 -0.4450  0.1871
 4114W        W 8165   9.239   1.079   2.559 -0.3856  0.0557  0.0523
 4115W        W 8166   8.400   7.754   2.054 -0.1473 -0.0927  0.0460
 4116W        W 8167   3.822   5.198   0.591  0.0516  0.0845 -0.0786
 4117W        W 8168   9.299   2.098   3.496 -0.0063  0.1824  0.3096
 4118W        W 8169   9.891   5.828  11.123  0.0086 -0.1388  0.1864
 4119W        W 8170   3.979   8.805   4.039  0.0973 -0.1284 -0.2788
 4120W        W 8171   6.360   4.545  12.877 -0.2656 -0.0476  0.4297
 4121W        W 8172   6.097   7.901  12.023 -0.4934  0.3206  0.0655
 4122W        W 8173   1.058   4.902  12.824  0.1622 -0.0083  0.0182
 4123W        W 8174   4.488   3.476   2.858 -0.1905  0.2523  0.0708
 4124W        W 8175   9.466   0.084  10.653 -0.1918  0.0487 -0.0615
 4125W        W 8176   2.103   3.521   9.141  0.0303 -0.0870  0.1351
 4126W        W 8177   2.609   1.960  12.014  0.0261 -0.1359  0.0306
 4127W        W 8178   7.148   1.394   9.945 -0.0573  0.1881 -0.1117
 4128W        W 8179   7.427   7.280  11.277 -0.0310  0.4192 -0.3745
 4129W        W 8180   5.467   0.675   0.548  0.0295  0.0091 -0.3513
 4130W        W 8181   7.475   3.198  10.596  0.2253  0.1678  0.0115
 4131W        W 8182   6.464   2.986   9.394 -0.1717 -0.0997 -0.0689
 4132W        W 8183   6.377   5.730   2.293  0.1631 -0.2951 -0.1180
 4133W        W 8184   0.941   4.706  10.673  0.0021 -0.3321 -0.2454
 4134W        W 8185   5.749   8.528  13.560 -0.0236  0.0147  0.0808
 4135W        W 8186   3.797   3.048  12.064 -0.0494 -0.0009 -0.0414
 4136W        W 8187   4.578   2.390   2.819 -0.0156  0.1610 -0.3405
 4137W        W 8188   3.638   7.178  10.368 -0.1916  0.2525  0.1272
 4138W        W 8189   1.006   7.717   5.180 -0.0236  0.1904 -0.0416
 4139W        W 8190   3.074   6.111  10.719  0.0642  0.1420  0.1055
 4140W        W 8191   7.081   6.155  12.320 -0.0902  0.2292 -0.0706
 4141W        W 8192   7.244   2.826   2.709 -0.0967  0.1025 -0.0567
 4142W        W 8193   8.285   6.124  13.700  0.3761 -0.1005 -0.1907
 4143W        W 8194   9.593   2.188   5.282  0.3017  0.0157 -0.1619
 4144W        W 8195   0.019   2.074  12.682  0.0576 -0.0698  0.1552
 4145W        W 8196   2.891   8.237   2.351  0.2499  0.2770 -0.0591
 4146W        W 8197   2.755  10.191  10.891  0.0962  0.1457  0.2116
 4147W        W 8198   2.495   1.860  12.683 -0.0185  0.3872  0.1208
 4148W        W 8199   9.932   3.308   2.359  0.2019 -0.0006  0.0219
 4149W        W 8200   2.991   2.461   2.341 -0.3603  0.2701 -0.0068
 4150W        W 8201   9.036   7.686   2.168 -0.1041  0.1303 -0.2975
 4151W        W 8202   3.759   4.955   3.728 -0.0457 -0.2805 -0.0868
 4152W        W 8203   3.327   5.560   0.186  0.1352  0.0722 -0.2275
 4153W        W 8204   2.205   3.372   8.267  0.2527  0.2535 -0.0230
 4154W        W 8205   0.176   3.629  12.677 -0.1366  0.1009  0.1694
 4155W        W 8206   8.659   0.852   3.729 -0.1114 -0.1874 -0.0367
 4156W        W 8207   6.828   8.140   2.574 -0.4081  0.4090  0.2712
 4157W        W 8208   4.090  10.213  10.610 -0.1064  0.1734 -0.0212
 4158W        W 8209   2.810   1.736   3.194 -0.1951 -0.1096  0.2756
 4159W        W 8210   8.611   3.652  10.164  0.1807 -0.1559 -0.1084
 4160W        W 8211   0.916   5.222  13.823 -0.2700 -0.1158  0.0915
 4161W        W 8212   1.585   7.366   0.045  0.1071  0.2321  0.1925
 4162W        W 8213   9.311   5.665  12.984  0.2790 -0.1000 -0.1209
 4163W        W 8214   8.932   8.800   2.671  0.0545 -0.3050 -0.0866
 4164W        W 8215   0.827   1.141   4.685 -0.1130  0.0969  0.1473
 4165W        W 8216   4.384   2.961  10.305  0.1959 -0.0443 -0.1468
 4166W        W 8217   6.279   8.672   0.812 -0.2912 -0.2547  0.5071
 4167W        W 8218   0.836   0.672   3.994  0.0106 -0.1669 -0.3289
 4168W        W 8219   6.870   3.998   1.336 -0.0657  0.1672  0.0117
 4169W        W 8220  10.039   6.061   0.356  0.2865 -0.3270  0.2569
 4170W        W 8221   8.460   2.456   4.645 -0.0321 -0.0832  0.2006
 4171W        W 8222   3.559   1.089   3.653 -0.0244 -0.0094 -0.1916
 4172W        W 8223   0.359   2.398  12.824 -0.0500 -0.0453 -0.1561
 4173W        W 8224   2.383   3.127   4.282 -0.1517  0.1665 -0.3587
 4174W        W 8225   8.748   6.612   0.769  0.0988 -0.1869 -0.3199
 4175W        W 8226   2.442   0.385   3.028  0.0900 -0.1175 -0.0028
 4176W        W 8227   0.741   6.660   9.332  0.0312 -0.0313  0.4046
 4177W        W 8228   2.556   0.279   1.130 -0.1163 -0.0100  0.2208
 4178W        W 8229   1.674   2.666  11.408 -0.2699  0.2187  0.1360
 4179W        W 8230   8.734   3.325   2.913  0.2229  0.0815  0.2322
 4180W        W 8231   2.977   4.437   4.759 -0.1551 -0.0185  0.2512
 4181W        W 8232   1.620   7.670  11.410  0.2135 -0.2520 -0.1717
 4182W        W 8233   5.824   8.772  10.939  0.2617  0.3317 -0.1342
 4183W        W 8234   2.686   9.372   9.303 -0.1381  0.1618 -0.1561
 4184W        W 8235   0.812   0.931   2.795  0.2127  0.1866  0.1133
 4185W        W 8236   1.669   4.595   0.830  0.2555  0.1077  0.0851
 4186W        W 8237   0.157   0.411   0.923 -0.2648  0.1906  0.1278
 4187W        W 8238   0.986   3.758   3.497  0.0886 -0.0696 -0.0543
 4188W        W 8239   5.501   4.682   0.764 -0.0433 -0.0423  0.1171
 4189W        W 8240   5.042  10.065  10.993 -0.0751  0.0338 -0.2444
 4190W        W 8241  10.199   4.594   1.516  0.0097  0.0246 -0.1435
 4191W        W 8242   8.272   7.567   9.777 -0.1584 -0.4048 -0.0661
 4192W        W 8243   4.601   5.001   0.538 -0.3582  0.2009  0.1261
 4193W        W 8244   2.508   4.113  13.043  0.3029  0.0952 -0.2317
 4194W        W 8245   8.453   9.670   1.354  0.0399 -0.2113  0.2868
 4195W        W 8246   7.248   0.576  11.857  0.1419  0.2011 -0.1311
 4196W        W 8247   2.452   6.477   3.391  0.1785 -0.2217  0.0672
 4197W        W 8248   2.818   4.288   0.447 -0.2345 -0.1153  0.1726
 4198W        W 8249   2.369   4.527  12.685  0.0175  0.1346  0.2138
 4199W        W 8250   6.531   6.567  12.941  0.0059  0.0027  0.1682
 4200W        W 8251   4.826   1.206  12.777  0.0810  0.1116 -0.1399
 4201W        W 8252   9.389   9.950   1.506 -0.1001 -0.4925  0.0083
 4202W        W 8253   8.981   4.680   0.334  0.1131  0.2050 -0.2664
 4203W        W 8254   3.407   1.566   0.374 -0.0518  0.0230 -0.0703
 4204W        W 8255   0.997   4.836   1.228  0.0391  0.1373 -0.3321
 4205W        W 8256   8.649   4.123  12.289  0.0770  0.0066  0.0458
 4206W        W 8257   8.700   7.365   4.830  0.4173 -0.0567  0.1712
 4207W        W 8258   9.337   2.123   4.266 -0.2977 -0.2349 -0.0750
 4208W        W 8259   0.524   4.454   9.601 -0.3458 -0.0089 -0.0246
 4209W        W 8260   5.138   5.663  11.860 -0.1276  0.0467 -0.1562
 4210W        W 8261   2.140   2.611   0.298  0.0885 -0.1392  0.2425
 4211W        W 8262   4.842   9.708   0.498 -0.1734  0.1822  0.0273
 4212W        W 8263   0.562   1.674   9.485  0.1168  0.2601  0.0281
 4213W        W 8264   4.590   6.637   3.763 -0.1718  0.2891 -0.3252
 4214W        W 8265   5.108   3.911   0.053  0.1770 -0.0828  0.0114
 4215W        W 8266   2.364   7.717   0.615 -0.1463 -0.3505  0.0448
 4216W        W 8267   3.669   5.728  11.275 -0.3053 -0.1425 -0.0694
 4217W        W 8268   8.912   8.433   1.425 -0.1367 -0.3054  0.0795
 4218W        W 8269   0.973   2.440  12.551 -0.1785  0.1203 -0.1390
 4219W        W 8270   2.304   5.053   2.823 -0.0338  0.0564 -0.1430
 4220W        W 8271   1.414   3.834   4.148 -0.1843 -0.0189  0.3263
 4221W        W 8272   9.717   8.470   2.355  0.1074 -0.2310  0.1315
 4222W        W 8273   6.489   4.543  10.416 -0.0792 -0.0628 -0.0405
 4223W        W 8274   2.160   9.062  11.146 -0.0379 -0.0173  0.1901
 4224W        W 8275   7.752   4.096   3.380 -0.2909 -0.1267 -0.0383
 4225W        W 8276   6.126   1.899   0.571 -0.0875  0.0059 -0.0237
 4226W        W 8277   6.689   6.846   9.537 -0.1344  0.0001 -0.0764
 4227W        W 8278   7.609   7.813   1.190 -0.0652 -0.0460 -0.1080
 4228W        W 8279   8.462   7.864  10.193  0.0622  0.0399  0.0177
 4229W        W 8280   6.497   6.397  13.500 -0.0416  0.3415  0.1517
 4230W        W 8281   7.483   3.116   0.884 -0.0637  0.1867 -0.0187
 4231W        W 8282   5.220   8.379  13.563  0.0432 -0.1320 -0.1671
 4232W        W 8283   8.210   1.716   2.965 -0.1797  0.1883  0.1509
 4233W        W 8284   5.154   2.015   0.544  0.4078  0.2983 -0.0197
 4234W        W 8285   3.284   4.259  10.610  0.2741 -0.0147 -0.2981
 4235W        W 8286   7.050   5.229   1.021  0.0985 -0.2290 -0.2018
 4236W        W 8287   0.313   7.174   5.530  0.4202  0.2779 -0.2588
 4237W        W 8288   7.567   6.255   0.792 -0.0844  0.4469 -0.0674
 4238W        W 8289  10.003   1.831  10.005  0.4234  0.0933  0.2142
 4239W        W 8290   8.012   6.166   2.827  0.0864 -0.0214  0.0169
 4240W        W 8291   8.289   5.377  12.665 -0.2135  0.1070  0.2964
 4241W        W 8292   3.854   8.969  11.982  0.0580  0.2727  0.0716
 4242W        W 8293   7.629   4.807  12.281  0.0712 -0.2429 -0.2853
 4243W        W 8294   6.509   0.110  12.679 -0.2588 -0.2562  0.1788
 4244W        W 8295   9.635   0.724  13.031 -0.4364  0.0209  0.0296
 4245W        W 8296   5.957   1.124  11.972  0.1242 -0.1222 -0.2039
 4246W        W 8297   2.929   2.459  11.226 -0.2149 -0.1462 -0.1280
 4247W        W 8298   8.353   0.756   2.525  0.0486  0.1544  0.0602
 4248W        W 8299   9.710   2.373  12.103  0.3459  0.1161 -0.0335
 4249W        W 8300   1.983   3.514   1.283  0.1129 -0.1838 -0.0919
 4250W        W 8301   0.855   9.999  10.056 -0.1283  0.2067  0.1427
 4251W        W 8302   2.856   4.367  11.547 -0.1328  0.2261 -0.1753
 4252W        W 8303   8.143   3.894  10.994 -0.0309 -0.3458  0.2401
 4253W        W 8304   5.046   8.987  12.736 -0.3558 -0.3339  0.3704
 4254W        W 8305   3.432   1.853   1.653  0.3155  0.1142  0.0390
 4255W        W 8306   5.248   7.984   3.337 -0.2807  0.0762  0.0795
 4256W        W 8307   3.165   9.494  12.500 -0.0642  0.0133  0.0821
 4257W        W 8308   8.588   0.422  11.526  0.0018 -0.3598  0.2374
 4258W        W 8309   1.268   2.025  12.617  0.0730  0.2283 -0.3437
 4259W        W 8310   8.467   0.290   4.516 -0.0904 -0.1555  0.0502
 4260W        W 8311   8.832   2.400   0.781  0.0459  0.0586  0.0063
 4261W        W 8312   3.069   9.616  11.208 -0.4905 -0.1764 -0.0033
 4262W        W 8313   6.827   5.729   0.403 -0.0150  0.0990  0.5493
 4263W        W 8314   4.545   3.095   1.793 -0.1835 -0.3087 -0.1486
 4264W        W 8315   9.127   1.232  13.499  0.1928  0.1040 -0.1629
 4265W        W 8316   9.479   6.354   0.519 -0.2547  0.0524 -0.2446
 4266W        W 8317   0.280   7.146   1.380  0.0354  0.0978  0.3161
 4267W        W 8318   1.302   9.752   9.618 -0.4269  0.1952 -0.1743
 4268W        W 8319   9.957   7.972   2.257 -0.0117 -0.0095  0.3465
 4269W        W 8320   9.969   0.191   0.653  0.1654  0.0905 -0.1120
 4270W        W 8321   0.101   0.500   3.140 -0.1372 -0.0316  0.0645
 4271W        W 8322   5.489  10.182  10.600 -0.1496  0.2950  0.1337
 4272W        W 8323   4.695   4.770   0.042  0.2721 -0.5090 -0.0188
 4273W        W 8324   5.730   2.444  10.808  0.1624 -0.1576 -0.0546
 4274W        W 8325   5.225   3.193   4.575 -0.1434  0.5352 -0.0106
 4275W        W 8326   5.235   3.809  10.474  0.0668  0.0545 -0.0027
 4276W        W 8327   4.743   4.316  12.986  0.2272  0.3262  0.2044
 4277W        W 8328   8.892   7.462   9.930  0.1737 -0.1173  0.2539
 4278W        W 8329   8.083   0.620  10.797  0.4926  0.0570  0.0338
 4279W        W 8330   2.104   5.905  11.291 -0.0887 -0.0941 -0.0009
 4280W        W 8331   8.182   9.355   1.094  0.2067  0.0433  0.1711
 4281W        W 8332   0.218   5.414  12.472 -0.1067  0.0210 -0.0029
 4282W        W 8333   7.179   9.255   1.804  0.3345 -0.1572  0.1429
 4283W        W 8334   7.312   0.473   8.698 -0.0770  0.0947  0.0468
 4284W        W 8335   2.025   1.079  12.872  0.0339  0.2313  0.1057
 4285W        W 8336   8.827   2.917  11.270 -0.1516  0.2296  0.1210
 4286W        W 8337   9.801   7.881   4.362 -0.0158 -0.4343 -0.0530
 4287W        W 8338   7.301   2.359  13.578 -0.0721  0.0722 -0.2750
 4288W        W 8339   2.810   6.609  12.934 -0.0869 -0.0777  0.0590
 4289W        W 8340   7.336   8.830  11.768  0.0388  0.0363 -0.1496
 4290W        W 8341   7.568   0.744   2.743  0.3725 -0.4591 -0.0778
 4291W        W 8342   0.689   7.188   3.395 -0.0110 -0.0214 -0.0568
 4292W        W 8343   9.600   6.553   4.298  0.2038 -0.4577 -0.4045
 4293W        W 8344   1.825   3.727  11.452 -0.0261  0.0223  0.0033
 4294W        W 8345   9.023   5.806  12.443  0.0764  0.0342 -0.0308
 4295W        W 8346   4.811   1.316  11.068 -0.3920 -0.2615 -0.1683
 4296W        W 8347   4.581   4.347   2.690 -0.1119 -0.2077  0.0265
 4297W        W 8348   3.778   4.236   4.258  0.1779  0.1176  0.2494
 4298W        W 8349   9.161   0.776  12.474  0.3036  0.1264  0.0648
 4299W        W 8350   9.674   1.675  13.434 -0.0689 -0.3611 -0.5218
 4300W        W 8351   4.209   9.758   9.301  0.1518  0.0177  0.3038
 4301W        W 8352   3.903   9.850  12.440 -0.0968  0.1155 -0.1759
 4302W        W 8353   7.473   3.696   8.424 -0.1342  0.0015  0.1175
 4303W        W 8354   3.389   7.968   0.936  0.1002  0.1769  0.1343
 4304W        W 8355   7.346   9.608   1.523  0.2842 -0.3393  0.1299
 4305W        W 8356   9.405   0.347  13.329 -0.2075  0.2591  0.1607
 4306W        W 8357   1.131   4.172   8.413  0.1885 -0.2207  0.1696
 4307W        W 8358   8.388   7.409  11.492 -0.0196 -0.0562 -0.1384
 4308W        W 8359   1.207   9.461   1.523  0.0071 -0.0372 -0.0862
 4309W        W 8360   4.315   6.110   2.177  0.3805  0.3561 -0.0426
 4310W        W 8361   5.542   6.529  10.333  0.1051 -0.2266 -0.2011
 4311W        W 8362   6.765   8.063  13.326 -0.1575  0.0467 -0.1466
 4312W        W 8363   1.682   7.734   2.666  0.0141  0.0355 -0.1390
 4313W        W 8364   2.128   2.982  11.106 -0.0005 -0.1977  0.0341
 4314W        W 8365   4.338   8.538  12.624  0.0771  0.1376  0.0942
 4315W        W 8366   9.758   8.628  12.237  0.3070  0.0960  0.0160
 4316W        W 8367  10.123   8.766  12.890 -0.3226  0.0501 -0.2798
 4317W        W 8368   9.907   8.723   1.518  0.1822  0.3161 -0.0038
 4318W        W 8369   9.076   2.005   2.806  0.3054 -0.2262 -0.2309
 4319W        W 8370   2.462   2.556  11.998  0.1207  0.1691  0.2030
 4320W        W 8371   9.509   3.362   0.844 -0.0022 -0.0604  0.1526
 4321W        W 8372   6.443   2.400   4.856  0.0778  0.0213 -0.0646
 4322W        W 8373   3.367   4.459   4.447 -0.1301 -0.0717  0.1496
 4323W        W 8374   3.050   1.236  11.520 -0.2739 -0.0229  0.1117
 4324W        W 8375   6.753   0.302   3.271 -0.1414  0.0625 -0.2152
 4325W        W 8376   6.202   0.974   0.460  0.2131 -0.1787  0.0793
 4326W        W 8377   0.254   9.420  13.717  0.0936  0.0942  0.0432
 4327W        W 8378   0.688   4.749  11.517 -0.0718  0.1279 -0.1411
 4328W        W 8379   4.039   3.962  13.477  0.1900  0.1092 -0.1417
 4329W        W 8380   2.168   4.509  13.783 -0.1521 -0.3899 -0.2573
 4330W        W 8381   4.832   3.693   3.187  0.3574 -0.2974 -0.0354
 4331W        W 8382   1.934   6.623   4.584 -0.0704 -0.0724  0.0661
 4332W        W 8383   9.692   7.472   1.459 -0.0114 -0.1684 -0.2820
 4333W        W 8384   0.916   5.762   1.298  0.0451  0.5584  0.0874
 4334W        W 8385   9.449   5.444   0.148 -0.1092 -0.1077 -0.0303
 4335W        W 8386  10.180   6.124   2.819  0.0367 -0.1294 -0.0585
 4336W        W 8387   5.408   4.826  12.001  0.1956 -0.2335  0.1703
 4337W        W 8388   2.422   6.089  10.869 -0.1003 -0.1567  0.0207
 4338W        W 8389   6.621   9.672   3.301 -0.0847  0.2077 -0.1489
 4339W        W 8390   0.524   7.894   0.068 -0.3155 -0.1795 -0.1037
 4340W        W 8391   8.928   7.287   3.096 -0.2213  0.0095  0.3311
 4341W        W 8392   6.662   3.443   2.428 -0.2081  0.0162  0.0889
 4342W        W 8393   6.369   5.533   1.744 -0.1815 -0.1726  0.2753
 4343W        W 8394   4.355   0.373   9.589  0.1826 -0.2349 -0.1459
 4344W        W 8395   2.592   6.435   9.715  0.1381  0.3597  0.1074
 4345W        W 8396   6.173   8.298   2.465  0.1897 -0.0428  0.0856
 4346W        W 8397   7.182   3.098  12.923 -0.0624  0.0380 -0.0609
 4347W        W 8398   5.156   1.527   0.021  0.0447  0.0981  0.0514
 4348W        W 8399   7.615   2.903   0.290  0.0401 -0.4434  0.0000
 4349W        W 8400   6.989   0.188   9.970  0.2808 -0.0480 -0.0399
 4350W        W 8401   9.175  10.140  13.071  0.3187  0.0447 -0.2337
 4351W        W 8402   8.541   6.675   1.218 -0.2308 -0.1067  0.0446
 4352W        W 8403   4.013   3.139   4.329 -0.0617 -0.2016 -0.3290
 4353W        W 8404   1.854   8.774   1.252  0.0249  0.1529 -0.0019
 4354W        W 8405   8.210   7.484  13.323 -0.3694  0.1629  0.1946
 4355W        W 8406   4.574  10.113  10.389 -0.0918  0.3461 -0.0106
 4356W        W 8407   4.329   2.035  12.792  0.1014  0.1923 -0.0131
 4357W        W 8408   4.257   1.077   9.104 -0.0028 -0.0124  0.2097
 4358W        W 8409   7.741   1.922  12.831  0.0121  0.1519 -0.1390
 4359W        W 8410   9.400   2.853  11.918 -0.0253 -0.2329 -0.3081
 4360W        W 8411   8.526   3.792  11.316 -0.1078 -0.4851  0.2554
 4361W        W 8412   9.308   8.834   4.615  0.0201 -0.0838  0.0350
 4362W        W 8413   0.982   0.284  11.784 -0.1596  0.0758 -0.1761
 4363W        W 8414   3.951   9.161   2.374  0.0526  0.0400  0.0292
 4364W        W 8415   0.545   4.503   3.153  0.1133 -0.0509  0.0993
 4365W        W 8416   0.292   0.868   2.815  0.1509 -0.2576 -0.2802
 4366W        W 8417   5.941   4.305  10.085 -0.1206 -0.3569  0.3260
 4367W        W 8418   0.000   9.321   2.611  0.3128  0.0252 -0.0533
 4368W        W 8419   3.118   3.028  13.158  0.0890  0.1379 -0.0012
 4369W        W 8420   5.489   1.085  10.208 -0.3406 -0.1951  0.1485
 4370W        W 8421   4.342   3.765   4.938  0.1735  0.0609  0.0085
 4371W        W 8422   1.879   5.965   9.384 -0.0734 -0.3664  0.1080
 4372W        W 8423   5.130   4.182  13.446  0.1323  0.2735 -0.1176
 4373W        W 8424   5.080   2.249  13.802  0.0996 -0.2709  0.1414
 4374W        W 8425   0.624   7.311   3.992  0.2304  0.0927 -0.2544
 4375W        W 8426   0.991   0.338   9.550 -0.1104 -0.0152 -0.1150
 4376W        W 8427  10.207   9.049   4.786  0.0281 -0.0916  0.1731
 4377W        W 8428   5.583   9.490   1.245  0.5001 -0.0730 -0.0139
 4378W        W 8429   3.324   2.937  12.185 -0.0240 -0.0458 -0.1427
 4379W        W 8430   1.389   5.510  11.358  0.0128 -0.0551 -0.0532
 4380W        W 8431   9.386   2.650   2.492  0.2827  0.2762 -0.0748
 4381W        W 8432   2.365   1.434   1.339 -0.0706 -0.1804  0.2158
 4382W        W 8433   0.745   4.875   4.806  0.4279 -0.0048 -0.0497
 4383W        W 8434   3.662   6.575   0.676 -0.0859 -0.0876  0.2863
 4384W        W 8435   9.356   9.036  12.330  0.2014  0.2250 -0.1941
 4385W        W 8436   2.845   7.428   3.232 -0.3885  0.2134 -0.2230
 4386W        W 8437   7.069   0.054  13.825 -0.1668 -0.0820 -0.0197
 4387W        W 8438   7.949   5.364  13.809 -0.1180  0.1105 -0.2107
 4388W        W 8439   2.412   8.671   3.236  0.0032 -0.0446 -0.0195
 4389W        W 8440   2.565  10.170   2.870 -0.2322  0.2557 -0.1181
 4390W        W 8441   0.848   2.743   2.177  0.0991 -0.1310 -0.2572
 4391W        W 8442   2.951   6.626  11.541 -0.3329  0.0396  0.1130
 4392W        W 8443   7.777   3.659   8.872  0.1093 -0.0493 -0.2864
 4393W        W 8444   3.834   4.513  12.383 -0.1562  0.1060  0.2250
 4394W        W 8445   8.219   8.141   8.951  0.0312  0.0726 -0.0977
 4395W        W 8446   4.455   4.408   1.811 -0.0603  0.2675 -0.3181
 4396W        W 8447   1.884   8.927   1.768  0.1145 -0.0520  0.2560
 4397W        W 8448   0.434   8.015   0.970 -0.0498  0.0038 -0.0989
 4398W        W 8449   3.368   3.191   4.725  0.2474  0.0245  0.0991
 4399W        W 8450   6.468   2.959   3.181  0.3318 -0.2337  0.1692
 4400W        W 8451   3.915   5.503  12.335 -0.2470 -0.0352 -0.0296
 4401W        W 8452   5.072   4.087   9.662  0.0442 -0.1333 -0.0331
 4402W        W 8453   6.516   6.006   3.014  0.1868  0.0515 -0.1353
 4403W        W 8454   1.859   8.965  12.394 -0.1448 -0.1685  0.3281
 4404W        W 8455   2.679   5.180   3.661  0.1262  0.1579  0.2543
 4405W        W 8456   1.156   4.467  13.779 -0.0158  0.3658 -0.0073
 4406W        W 8457   9.668   0.847   2.689  0.0761  0.0557 -0.1498
 4407W        W 8458   8.484   3.259   0.955 -0.0369  0.2099  0.0819
 4408W        W 8459   0.868   1.492   3.736  0.1184  0.0797  0.1811
 4409W        W 8460   6.902   1.934  13.007 -0.3270  0.1887  0.0775
 4410W        W 8461   0.177   0.055  12.804 -0.3764  0.1104  0.0267
 4411W        W 8462   8.823   4.683   3.402  0.4649 -0.3101  0.0024
 4412W        W 8463   2.700   6.569   2.143 -0.0710  0.1804  0.0849
 4413W        W 8464   1.877   1.219   5.622 -0.1378 -0.2927 -0.3699
 4414W        W 8465   9.381   6.391   1.514  0.0101 -0.2918 -0.2399
 4415W        W 8466   6.371   6.493   0.323 -0.4207  0.0026  0.2548
 4416W        W 8467   4.879   1.857   9.623 -0.2725 -0.1048 -0.1451
 4417W        W 8468   0.586   1.951   0.294  0.2862 -0.0453  0.2221
 4418W        W 8469   5.131   9.303   0.693 -0.0458 -0.0573  0.1235
 4419W        W 8470   3.371   0.258  10.625 -0.1478 -0.1850 -0.3203
 4420W        W 8471   0.634   4.132   1.616 -0.0705  0.1322 -0.0173
 4421W        W 8472   3.250   2.354   4.434 -0.4429 -0.2107 -0.2933
 4422W        W 8473   9.778   8.935   2.198 -0.1505  0.2592 -0.2076
 4423W        W 8474   9.502   9.461   1.414  0.4702  0.0323 -0.3394
 4424W        W 8475   5.876   3.040   2.520  0.0376  0.0591  0.0692
 4425W        W 8476   3.782   9.109  12.969 -0.2225  0.3545 -0.0577
 4426W        W 8477   0.985   1.935   4.250  0.3451 -0.3572  0.1990
 4427W        W 8478   5.267   2.764   2.001 -0.1101  0.1229 -0.1577
 4428W        W 8479   9.511   7.795  13.355 -0.1995  0.2803 -0.0464
 4429W        W 8480   6.008   8.754  11.448 -0.1426  0.0717  0.2191
 4430W        W 8481   6.681   3.583  11.495  0.0398  0.1294  0.0536
 4431W        W 8482   7.907   7.733   1.738  0.1025  0.4678  0.2646
 4432W        W 8483   4.140   2.372   3.627 -0.0510  0.1496  0.0006
 4433W        W 8484   2.500   5.759  13.515 -0.0915 -0.1849 -0.3247
 4434W        W 8485   5.559  10.046  12.733 -0.1677 -0.4016 -0.2582
 4435W        W 8486   2.536   1.263   3.950  0.3460 -0.3127  0.0250
 4436W        W 8487   0.992   0.579   2.477  0.0167 -0.2568 -0.1261
 4437W        W 8488   3.870   2.735  13.406 -0.1392 -0.4592  0.0890
 4438W        W 8489   8.927   1.311   3.675  0.0015  0.0254  0.0612
 4439W        W 8490   1.959   3.912   4.324  0.1539  0.0161 -0.3723
 4440W        W 8491   9.364   8.191   3.568 -0.0101 -0.0025 -0.1130
 4441W        W 8492   6.264   6.449   3.038  0.0733  0.1913 -0.0767
 4442W        W 8493   4.809   7.085  10.946  0.1008 -0.1446  0.0107
 4443W        W 8494   1.529   3.177  10.508 -0.1175 -0.0404 -0.2961
 4444W        W 8495   9.635   1.073  11.601  0.0515  0.1440  0.4181
 4445W        W 8496   5.330   8.257   2.528  0.2246 -0.2785 -0.0253
 4446W        W 8497   3.415  10.067  12.409 -0.0465 -0.2314 -0.3234
 4447W        W 8498   8.602   2.064  11.942  0.0460 -0.0524  0.0207
 4448W        W 8499   8.348   7.785   4.390 -0.1097 -0.1568  0.1300
 4449W        W 8500   6.426   4.054  10.090 -0.0393 -0.0224 -0.1218
 4450W        W 8501   9.550   9.717  13.843  0.1007 -0.0653  0.0683
 4451W        W 8502   3.312   8.288   9.103 -0.0206 -0.0902 -0.0435
 4452W        W 8503   2.464   6.292   3.994 -0.0894 -0.1723 -0.0494
 4453W        W 8504   6.000   2.681  10.471 -0.3733  0.5280  0.1076
 4454W        W 8505   6.738   0.743  13.173 -0.3148  0.0983 -0.2294
 4455W        W 8506   5.694   6.863  11.387 -0.0500 -0.2427  0.3481
 4456W        W 8507   2.641   2.859  11.061 -0.1239  0.1019  0.2059
 4457W        W 8508   2.569   2.028   9.511 -0.0365  0.0138 -0.1191
 4458W        W 8509   0.519   3.821   3.758  0.1289  0.2989  0.2320
 4459W        W 8510   6.655   6.993   1.981 -0.0425 -0.3457  0.0758
 4460W        W 8511   4.297   3.857  13.046  0.1626  0.0546 -0.0147
 4461W        W 8512   5.736   9.064  10.345  0.0954 -0.2832  0.1770
 4462W        W 8513   9.101   4.369   2.213  0.4064  0.2294 -0.1686
 4463W        W 8514   5.325   0.366   8.770  0.0137 -0.1617 -0.1119
 4464W        W 8515   1.510   2.133  11.364 -0.2433  0.1785  0.0547
 4465W        W 8516   0.778   3.305   2.550 -0.2279 -0.2490  0.0503
 4466W        W 8517   2.676   9.860  10.204  0.2007  0.0142 -0.0378
 4467W        W 8518   0.739   1.155  10.878  0.1200 -0.3536 -0.0802
 4468W        W 8519   1.922   6.350  13.592  0.2103 -0.0565  0.2108
 4469W        W 8520   9.254   2.710  10.069  0.2112 -0.0398  0.1028
 4470W        W 8521   0.750   6.717  11.553 -0.1211  0.0923 -0.1074
 4471W        W 8522   1.799   8.534   3.308  0.0174  0.0915  0.1939
 4472W        W 8523   7.786   0.945   3.621 -0.0104 -0.1067  0.0185
 4473W        W 8524   8.261   9.898  10.036 -0.0999  0.1314  0.1487
 4474W        W 8525   5.009   5.667   2.794 -0.1988  0.4888 -0.1976
 4475W        W 8526   6.955   1.760  10.866  0.0359 -0.0573  0.1096
 4476W        W 8527   8.214   7.307  11.051 -0.0509  0.0772 -0.1032
 4477W        W 8528   9.343   1.796   3.853  0.1268  0.0070  0.0483
 4478W        W 8529   8.843   2.029   9.646  0.0374 -0.0605  0.0272
 4479W        W 8530   9.929   1.051   5.091  0.4822 -0.3866  0.1209
 4480W        W 8531   8.037   6.466   2.407 -0.0651  0.0886  0.0101
 4481W        W 8532   1.162   2.499  10.206 -0.2224 -0.1681  0.0773
 4482W        W 8533   7.768   6.059   3.656  0.1517 -0.3764  0.2841
 4483W        W 8534   8.791   8.807  10.839 -0.0572 -0.0114 -0.2966
 4484W        W 8535   9.376   1.995   9.333 -0.1135  0.0305  0.1755
 4485W        W 8536   2.563   9.851  12.781 -0.1717  0.0693 -0.2599
 4486W        W 8537   8.685   0.912  12.421 -0.2190  0.0589  0.1791
 4487W        W 8538   8.991   9.436   2.187  0.0100 -0.0796  0.1025
 4488W        W 8539   1.422   6.625   4.533  0.0225 -0.0986 -0.0358
 4489W        W 8540  10.128   9.872   0.683 -0.0239  0.0725 -0.0288
 4490W        W 8541   9.173   5.580  11.498 -0.0895  0.0349  0.1914
 4491W        W 8542   2.869   6.957  10.416  0.1156 -0.0472  0.0507
 4492W        W 8543   6.991   7.155   9.227  0.1330 -0.3694  0.1878
 4493W        W 8544   8.297   8.068  13.610 -0.1337  0.0024  0.1452
 4494W        W 8545   6.021   0.667  13.777  0.1986  0.1748  0.0113
 4495W        W 8546   2.361   9.838   8.719  0.1499 -0.1636  0.1755
 4496W        W 8547   1.712   8.745  11.931 -0.1464 -0.1201 -0.1173
 4497W        W 8548   6.169   4.145  12.250 -0.1825  0.4800  0.0263
 4498W        W 8549   2.397   3.089   0.057  0.1726 -0.1628  0.1443
 4499W        W 8550   8.825   4.350  13.787 -0.0640  0.0645 -0.2787
 4500W        W 8551   1.710   7.951  10.887  0.0903 -0.1495 -0.1631
 4501W        W 8552   7.468   0.088   0.309  0.1504 -0.1689  0.0480
 4502W        W 8553   4.208   9.726  10.418 -0.1360  0.1304 -0.1429
 4503W        W 8554   8.857   7.203   0.396  0.2237 -0.2969 -0.1542
 4504W        W 8555   5.884   5.650  12.342 -0.0608 -0.0706  0.2830
 4505W        W 8556   4.248   3.197  11.858 -0.1614  0.2125  0.0817
 4506W        W 8557   2.681   8.801  10.823 -0.1097  0.3027  0.2685
 4507W        W 8558   4.947   4.630  12.200  0.0638  0.1067 -0.2526
 4508W        W 8559   5.772   2.571   4.134  0.0446  0.1602  0.1877
 4509W        W 8560   4.051   8.537  13.432 -0.0901 -0.1932 -0.3322
 4510W        W 8561   1.719   3.839  13.591  0.2132  0.0429  0.2134
 4511W        W 8562   5.423   2.820  12.482  0.0798 -0.1853  0.0825
 4512W        W 8563   1.091   0.479   2.974 -0.0210  0.0516  0.3311
 4513W        W 8564   5.624   8.286  10.203  0.1490 -0.0919 -0.0156
 4514W        W 8565  10.043   9.640  12.121 -0.1653 -0.1012  0.3090
 4515W        W 8566   5.455   4.162   0.937  0.4323 -0.0397  0.0039
 4516W        W 8567   1.520   8.282  13.822  0.2955  0.2458 -0.0037
 4517W        W 8568   4.032   2.735   2.840  0.0985 -0.0862 -0.1163
 4518W        W 8569   4.433   8.559   9.617 -0.1198 -0.1363 -0.4683
 4519W        W 8570   2.157   3.513  13.643  0.2119  0.0302  0.3016
 4520W        W 8571   2.731   1.843   4.839 -0.0445 -0.0264  0.1223
 4521W        W 8572  10.173   4.883  10.699 -0.3265 -0.2940 -0.3561
 4522W        W 8573   9.454   4.574   3.937  0.1460 -0.0029 -0.2477
 4523W        W 8574   9.679   5.254   1.660 -0.0073  0.5736 -0.3700
 4524W        W 8575   7.469   0.478   2.274  0.2104 -0.3516 -0.0779
 4525W        W 8576   3.694   2.957   3.399  0.2802 -0.1194  0.2266
 4526W        W 8577   3.839   5.562   0.941 -0.4148  0.0946 -0.0368
 4527W        W 8578   8.478   1.969   9.965  0.1952  0.2613 -0.0556
 4528W        W 8579   9.930   3.680  12.613 -0.2791 -0.0224  0.0635
 4529W        W 8580   1.638   2.522  11.937  0.1377 -0.0009 -0.1255
 4530W        W 8581   8.361   1.401   0.015  0.0442  0.1664  0.1438
 4531W        W 8582   0.867   5.921   2.073 -0.2038  0.3220  0.2248
 4532W        W 8583   2.410   9.968   0.483  0.0330 -0.4499  0.0706
 4533W        W 8584   9.831   3.953   2.924  0.1513  0.0752 -0.0216
 4534W        W 8585   5.734   4.733   3.781 -0.2204 -0.1028  0.1259
 4535W        W 8586   1.735   6.755   9.484  0.1871 -0.0878 -0.1677
 4536W        W 8587   1.767   7.085   4.869  0.1050  0.0905 -0.0630
 4537W        W 8588   0.718   5.698  13.097 -0.1710  0.0445 -0.1047
 4538W        W 8589   2.032   4.404  11.929 -0.2430 -0.0802 -0.0617
 4539W        W 8590   1.017   5.375   0.431 -0.1566 -0.0916 -0.2617
 4540W        W 8591   1.195   0.941   3.260 -0.0658 -0.2654  0.1338
 4541W        W 8592   5.170   5.202   2.872  0.3040 -0.1108  0.0222
 4542W        W 8593   8.781   1.117   2.253  0.3636  0.1699  0.2749
 4543W        W 8594   2.443   4.131  11.767 -0.1577 -0.2382  0.0402
 4544W        W 8595   4.876   0.588  10.716 -0.5074  0.2592  0.2040
 4545W        W 8596   7.841   4.138   4.988  0.2357  0.1905 -0.3896
 4546W        W 8597   7.087   7.712   2.704  0.5347 -0.1421  0.0649
 4547W        W 8598   0.165   0.991  12.394 -0.1660  0.0347  0.0315
 4548W        W 8599   1.111   4.235   9.074  0.2095 -0.1221 -0.0193
 4549W        W 8600   2.174   9.978  11.632 -0.0435  0.2181  0.2518
 4550W        W 8601   3.098   5.329   1.973 -0.3375  0.3637  0.0285
 4551W        W 8602   7.668   3.596   2.236  0.0680  0.2667 -0.0183
 4552W        W 8603   7.622   3.919   4.579  0.0389 -0.3144  0.1238
 4553W        W 8604   2.236   7.016  11.056 -0.4007 -0.2730 -0.0864
 4554W        W 8605  10.166   6.601  12.823  0.1415  0.0300 -0.1049
 4555W        W 8606   5.184   8.316  11.395 -0.0199 -0.1733  0.0023
 4556W        W 8607   4.226   8.924   9.038 -0.2210 -0.4660 -0.0128
 4557W        W 8608   4.398   4.084   4.115 -0.0845 -0.3138  0.0671
 4558W        W 8609   7.178   6.564   0.962 -0.2233  0.0608 -0.1161
 4559W        W 8610   6.846   5.069   3.012  0.1750 -0.0614 -0.1106
 4560W        W 8611   4.421   8.343  13.107 -0.0691 -0.0009 -0.0341
 4561W        W 8612   1.473   3.661   1.475  0.2484 -0.2513  0.0858
 4562W        W 8613   0.339   7.558  10.928 -0.2515  0.1340 -0.0253
 4563W        W 8614   4.048   2.845   1.784  0.1282 -0.1337  0.0774
 4564W        W 8615   2.680   2.714   2.072  0.2055  0.3877 -0.1383
 4565W        W 8616   0.651  10.197  12.562 -0.0230  0.1200  0.3216
 4566W        W 8617   4.011  10.155   2.743  0.2386  0.1514 -0.2332
 4567W        W 8618   8.094   2.386   9.933  0.0747  0.0766  0.1286
 4568W        W 8619   7.571   2.423   2.713 -0.0170  0.3088 -0.0760
 4569W        W 8620   4.722   7.093   2.058 -0.1485 -0.0574 -0.1666
 4570W        W 8621   1.263   3.134   0.243  0.1354 -0.0784  0.1412
 4571W        W 8622   5.930   4.927   4.722  0.0492 -0.2098  0.0707
 4572W        W 8623   2.720   2.142   5.274 -0.2604  0.0775  0.2883
 4573W        W 8624   0.421   0.113  11.207 -0.1546 -0.0024 -0.2282
 4574W        W 8625  10.079   6.929   5.368  0.4457 -0.1664  0.1330
 4575W        W 8626   3.822   7.185  12.908 -0.1322  0.0057  0.0511
 4576W        W 8627   2.684   4.688   9.877 -0.3680  0.0060  0.1365
 4577W        W 8628   8.107   3.519  10.103  0.2766 -0.0720  0.1000
 4578W        W 8629   4.270   3.134  11.050 -0.0881  0.2924  0.1114
 4579W        W 8630   7.685   9.979   1.898  0.1053  0.0873 -0.0041
 4580W        W 8631   5.686   8.602   2.389  0.0683  0.0676 -0.1072
 4581W        W 8632   5.678   8.625   0.162  0.0117  0.1192  0.1886
 4582W        W 8633   0.707   5.944   3.283  0.1989  0.0275  0.2379
 4583W        W 8634   5.821   5.782   3.053  0.1509  0.1929 -0.1619
 4584W        W 8635   4.225   1.684   9.088  0.3455  0.0986 -0.0942
 4585W        W 8636   3.667   9.149   0.807  0.0608 -0.2596  0.1342
 4586W        W 8637   1.192   3.601   4.523 -0.2517 -0.0381  0.1132
 4587W        W 8638   9.348   2.949   3.136 -0.2240 -0.0180 -0.0670
 4588W        W 8639   7.983   7.794  11.311  0.1788  0.3412 -0.0638
 4589W        W 8640   6.822   2.905   4.005 -0.1626 -0.3548  0.2078
 4590W        W 8641   2.047   5.306  12.062  0.1368 -0.1092 -0.2817
 4591W        W 8642   2.016   5.265   0.454  0.1201 -0.1679 -0.1594
 4592W        W 8643   5.210   5.772   0.027 -0.2170  0.1310  0.1327
 4593W        W 8644   3.510   4.777   0.730  0.1272 -0.0390 -0.3496
 4594W        W 8645   1.182   5.850   3.537  0.1585 -0.2427  0.1118
 4595W        W 8646   0.393   5.207   2.531 -0.1576 -0.1640  0.2708
 4596W        W 8647   4.306   4.350  10.956 -0.1815 -0.2503 -0.1805
 4597W        W 8648   1.113   7.764  11.576  0.0170  0.2605 -0.2592
 4598W        W 8649   4.062   0.695   4.304  0.0615 -0.0888  0.1388
 4599W        W 8650   8.393   9.368  12.923  0.1612 -0.1164 -0.0467
 4600W        W 8651   7.211   9.070  12.560  0.2262  0.1199 -0.0041
 4601W        W 8652   9.623   2.335   3.791  0.0802  0.0268 -0.0292
 4602W        W 8653   7.746   1.870  13.546 -0.1852 -0.0264  0.1075
 4603W        W 8654   2.552   1.186  13.657  0.0371  0.2058 -0.1595
 4604W        W 8655   2.924   7.924  10.417  0.2653  0.2781  0.0665
 4605W        W 8656   6.417   1.124   2.255  0.4564  0.3005  0.1424
 4606W        W 8657   7.337   1.948  11.294  0.1163 -0.1235  0.2475
 4607W        W 8658   3.595   8.285  11.404 -0.0824  0.1732  0.2191
 4608W        W 8659   8.532   5.251   4.292  0.0064  0.0470  0.2620
 4609W        W 8660   6.389   6.761   2.593 -0.1933 -0.0792 -0.1693
 4610W        W 8661   1.979   5.011   7.859  0.2006  0.1348  0.1239
 4611W        W 8662   5.955   6.388  11.183 -0.0092  0.0928  0.2471
 4612W        W 8663   1.417   0.227  11.431 -0.0240  0.1942 -0.1522
 4613W        W 8664   9.739   1.479   3.882 -0.1350  0.0381 -0.1469
 4614W        W 8665   7.936   2.792   2.588 -0.1670 -0.3463 -0.0464
 4615W        W 8666   1.400   5.830   9.293 -0.4019 -0.0862 -0.2038
 4616W        W 8667   0.454   9.313   2.081  0.0379  0.1696 -0.2739
 4617W        W 8668   5.141   2.364  12.385 -0.3653 -0.1461  0.2925
 4618W        W 8669   2.026   7.449   9.926 -0.0318 -0.0846  0.0725
 4619W        W 8670  10.065   9.943  11.430 -0.0289  0.0590 -0.3716
 4620W        W 8671   6.296   3.833   4.316 -0.1551 -0.1360  0.0787
 4621W        W 8672   8.695   9.993   9.273 -0.0073  0.3072 -0.0761
 4622W        W 8673   7.905   2.096  12.164  0.2486  0.1932  0.0381
 4623W        W 8674   9.698   5.907   9.407  0.1577  0.2202  0.0109
 4624W        W 8675   2.009   3.508   1.907 -0.0765 -0.2462  0.0524
 4625W        W 8676   1.992   8.194   2.975  0.2025 -0.0341  0.3245
 4626W        W 8677   5.145   0.388  12.552 -0.0765  0.3564 -0.1646
 4627W        W 8678   7.320   8.424   1.176 -0.1904 -0.0496  0.0386
 4628W        W 8679   9.134   8.303   0.046  0.2847 -0.1804  0.1521
 4629W        W 8680   1.989   8.275  11.729  0.3668  0.1715  0.1495
 4630W        W 8681   7.009   2.901   5.183  0.1989  0.2772  0.1148
 4631W        W 8682   6.649   4.221   4.284  0.0835  0.1361 -0.1292
 4632W        W 8683   9.490   0.475   1.930 -0.0979  0.1915 -0.1658
 4633W        W 8684   7.349   3.897   8.934  0.0730 -0.0008  0.1098
 4634W        W 8685   9.340   3.036   9.707  0.0872 -0.2866 -0.4355
 4635W        W 8686   8.801   5.029  10.308  0.0500 -0.1769 -0.0355
 4636W        W 8687   0.544   1.165  10.092  0.0104 -0.0800  0.1425
 4637W        W 8688   8.670   1.834   1.577 -0.1271 -0.4305 -0.1666
 4638W        W 8689   8.719   7.055   1.542  0.1424 -0.2231 -0.0953
 4639W        W 8690   4.208   6.272   3.166  0.2951  0.0358  0.0050
 4640W        W 8691   3.717   6.003  13.246 -0.2731 -0.1104  0.1421
 4641W        W 8692   8.524   3.236   9.203 -0.0172  0.1083  0.0459
 4642W        W 8693   6.107   8.078  12.507 -0.2097 -0.2419 -0.1275
 4643W        W 8694   8.912   2.905   9.035  0.2536  0.3024 -0.1194
 4644W        W 8695   6.432   6.971   0.241 -0.0154 -0.0605 -0.0441
 4645W        W 8696   0.424   7.961  12.300 -0.1290  0.0682 -0.1711
 4646W        W 8697   0.849   1.534  11.326 -0.3069 -0.0150 -0.0469
 4647W        W 8698   5.980   5.200   2.472 -0.0238  0.1254 -0.3672
 4648W        W 8699   6.770   6.922  11.419  0.3117 -0.1369  0.0739
 4649W        W 8700   0.594   3.658   2.866 -0.0260 -0.0394 -0.1218
 4650W        W 8701   7.599   0.428   1.292  0.2119 -0.0174  0.0635
 4651W        W 8702   0.366   8.486   0.795 -0.3210 -0.0058 -0.0133
 4652W        W 8703   3.932   1.959  11.109 -0.4241  0.2154  0.0875
 4653W        W 8704   5.296   2.412  10.522 -0.2722 -0.2220  0.2544
 4654W        W 8705   5.081   7.194  11.359  0.0128 -0.2322 -0.0274
 4655W        W 8706   3.645   6.536   1.681 -0.2616 -0.3963 -0.2260
 4656W        W 8707   7.113   6.243   1.908  0.0673  0.1587 -0.0492
 4657W        W 8708   0.768   6.628  12.113  0.0756 -0.1843  0.0295
 4658W        W 8709  10.089   5.530   1.844  0.1507  0.2401  0.1753
 4659W        W 8710  10.200   7.764  12.558 -0.0157  0.2706  0.0426
 4660W        W 8711   8.972   6.913   9.423 -0.1287 -0.0346  0.1978
 4661W        W 8712   3.051   8.360   2.870  0.0340  0.1463  0.0328
 4662W        W 8713   8.230   9.720   0.206 -0.1460  0.0940  0.1939
 4663W        W 8714   1.502   7.676   3.171  0.3203  0.0846  0.2902
 4664W        W 8715   7.876   5.760  12.888 -0.1211 -0.1320 -0.0352
 4665W        W 8716   0.127   9.017  13.318 -0.1517  0.0612  0.1129
 4666W        W 8717   5.276   9.160  11.671 -0.2726  0.2545  0.0457
 4667W        W 8718   0.693   3.548  11.412  0.1746 -0.3722  0.2977
 4668W        W 8719   9.466   3.808   0.014  0.4877  0.0527  0.2641
 4669W        W 8720   4.287   3.101   2.168  0.0426 -0.1083  0.0025
 4670W        W 8721   0.881   9.078   1.774  0.1178 -0.1784 -0.0015
 4671W        W 8722   9.237   0.352  11.029  0.4987  0.0004  0.0312
 4672W        W 8723   6.393   2.071   0.141 -0.1721 -0.0411  0.1234
 4673W        W 8724   5.999   3.907   2.291 -0.0012 -0.1029  0.0187
 4674W        W 8725   9.914   8.245   9.521 -0.0402 -0.0790  0.2974
 4675W        W 8726   6.939   8.518   2.167 -0.0667  0.0276  0.3114
 4676W        W 8727   8.795   2.914  11.754 -0.0665  0.1432  0.1921
 4677W        W 8728   8.080   8.558   0.694 -0.0108 -0.3461 -0.0307
 4678W        W 8729   0.486   7.083  11.819  0.0716  0.0279 -0.1530
 4679W        W 8730   6.051   2.830   9.609  0.0474 -0.0747  0.2117
 4680W        W 8731   9.744   8.465  13.160  0.2973 -0.2933 -0.0491
 4681W        W 8732   7.586   9.241   2.287  0.2277  0.0113 -0.1325
 4682W        W 8733   5.568   8.112  12.291 -0.2126  0.0220  0.2096
 4683W        W 8734   1.636   3.430  13.842  0.2679  0.0772 -0.0137
 4684W        W 8735   0.186   1.189   9.618  0.0178 -0.0766  0.1925
 4685W        W 8736   9.595  10.084   0.400 -0.0201  0.3406 -0.1494
 4686W        W 8737   9.081   0.295  11.526 -0.0269  0.0459 -0.3843
 4687W        W 8738   8.934   3.855  11.500 -0.1907  0.0617  0.0734
 4688W        W 8739   9.538   8.480  10.824 -0.2238  0.1350 -0.2997
 4689W        W 8740   3.410   7.871  11.748 -0.1210  0.0209  0.0703
 4690W        W 8741  10.127   5.585  10.109 -0.0246  0.0894  0.0100
 4691W        W 8742   6.672   9.632  12.280  0.1167 -0.1206 -0.0274
 4692W        W 8743   8.672   9.884  13.702  0.1693  0.1743  0.1264
 4693W        W 8744   7.164   3.682   1.052 -0.2242 -0.0589  0.0107
 4694W        W 8745   3.939   1.803   9.617 -0.2206 -0.0731 -0.1860
 4695W        W 8746   6.475   9.056  13.219  0.0381  0.0860  0.4091
 4696W        W 8747   0.469   3.119   9.255  0.1685 -0.0160 -0.0576
 4697W        W 8748   8.026   7.518  10.164  0.0768  0.3967 -0.0790
 4698W        W 8749   5.981   4.710   2.766 -0.1268  0.3715 -0.3097
 4699W        W 8750   4.835   0.637   1.888  0.0934 -0.2786  0.4125
 4700W        W 8751   7.515   6.035  13.070 -0.6634 -0.2899  0.2338
 4701W        W 8752   7.590   5.541  13.417 -0.1255 -0.0708 -0.0392
 4702W        W 8753   0.791   0.946  13.793  0.1124  0.1305 -0.0308
 4703W        W 8754   1.742   2.544   9.880  0.0530  0.1006 -0.0536
 4704W        W 8755   6.908   1.952   2.190  0.0051 -0.1113 -0.1288
 4705W        W 8756   7.313   6.892  10.107 -0.2558 -0.2233  0.1443
 4706W        W 8757   1.461   6.601   2.876 -0.2022  0.2452 -0.0408
 4707W        W 8758   1.013   9.200   3.915  0.0230  0.1981  0.0172
 4708W        W 8759   9.181   5.466   9.890 -0.1506 -0.0718 -0.1211
 4709W        W 8760   6.599   8.658  12.260 -0.0702 -0.3121 -0.0737
 4710W        W 8761   3.467   3.417  10.195  0.1015 -0.0189 -0.0463
 4711W        W 8762   0.174   4.186   2.920  0.1838 -0.0393  0.0856
 4712W        W 8763   2.258   0.741  11.458  0.0848  0.0345  0.1631
 4713W        W 8764   9.664   6.893   1.063 -0.0960 -0.1842  0.0459
 4714W        W 8765   6.768   0.688  11.932 -0.3464  0.1496 -0.0491
 4715W        W 8766   5.842   4.180  11.305 -0.1826 -0.1920  0.0001
 4716W        W 8767   4.842   0.197   8.733 -0.2867  0.1211  0.0874
 4717W        W 8768   9.107   8.857   0.958  0.4726  0.0370  0.0022
 4718W        W 8769   7.958   2.708  11.728 -0.0953  0.1731 -0.0677
 4719W        W 8770   7.217   5.941  11.921  0.1591  0.0136  0.1853
 4720W        W 8771   4.500   4.184   1.223 -0.0878  0.0550 -0.2278
 4721W        W 8772   9.383   0.072   4.051  0.2222  0.0292  0.0966
 4722W        W 8773   9.799   5.072   4.464  0.0348  0.1214  0.1095
 4723W        W 8774   5.633   4.315  12.055  0.0020 -0.3058  0.0715
 4724W        W 8775   7.223   2.873   0.012  0.0319  0.0831 -0.1267
 4725W        W 8776   9.963   4.747   2.586  0.0659 -0.1357 -0.3888
 4726W        W 8777   9.363   7.981   4.021 -0.0373 -0.0978  0.0623
 4727W        W 8778   7.597   6.758   4.118 -0.0089  0.1624 -0.0343
 4728W        W 8779   1.086   4.029   0.493  0.3787  0.1346 -0.1844
 4729W        W 8780   3.675   8.580   0.401  0.3082 -0.1479 -0.2418
 4730W        W 8781   7.240   4.571   1.077  0.0754  0.0625  0.1733
 4731W        W 8782   3.780   3.895   0.650 -0.1724  0.2420  0.0059
 4732W        W 8783  10.123   6.875  10.198 -0.5079 -0.2539 -0.2522
 4733W        W 8784   5.236   4.605   3.574 -0.1142  0.2397 -0.3261
 4734W        W 8785   3.602   0.040  13.738  0.0225 -0.0142 -0.2417
 4735W        W 8786   3.825   3.190   2.158 -0.1559  0.0945 -0.1157
 4736W        W 8787   2.933   6.167   1.319  0.0948 -0.2373  0.2552
 4737W        W 8788   0.490   6.857   0.854  0.2390  0.1114  0.1065
 4738W        W 8789   1.883   6.431   0.188 -0.0906  0.1923 -0.3622
 4739W        W 8790   6.323   5.213   2.119  0.1854  0.3990  0.2568
 4740W        W 8791   2.527   7.270   1.599  0.0262 -0.1178  0.0156
 4741W        W 8792   9.109   4.046   0.218  0.2369 -0.1490  0.1730
 4742W        W 8793   3.208   7.165  10.031  0.0405  0.1309 -0.4640
 4743W        W 8794   8.369   8.625  13.519  0.1187 -0.2169 -0.2680
 4744W        W 8795   9.939   8.886   3.956 -0.1180 -0.0012  0.2393
 4745W        W 8796   0.410   9.892  10.794 -0.2260 -0.0099  0.2766
 4746W        W 8797   3.643   1.036   4.123 -0.0356 -0.0990 -0.1698
 4747W        W 8798   6.895   8.283  11.957 -0.0906 -0.0992  0.0337
 4748W        W 8799   7.530   9.990  13.697 -0.2432  0.0935 -0.0580
 4749W        W 8800   6.549   4.391   2.332 -0.1317  0.2367 -0.2826
 4750W        W 8801   5.135   4.517   9.856  0.1132 -0.1920 -0.0968
 4751W        W 8802   6.876   9.979   0.920  0.2723 -0.3069  0.0868
 4752W        W 8803   8.761   8.135   4.660 -0.2513  0.1441 -0.1866
 4753W        W 8804   6.953   2.219   9.632  0.0848  0.0145 -0.0509
 4754W        W 8805   4.870   8.198   2.630 -0.0463  0.0341  0.0913
 4755W        W 8806   9.622   8.211  11.320 -0.3750 -0.0310  0.0908
 4756W        W 8807   5.597   9.151   2.884 -0.1592  0.0590  0.1966
 4757W        W 8808   1.140   5.418  12.021 -0.3877  0.3708 -0.0002
 4758W        W 8809   5.319   4.114   4.283 -0.0103 -0.0664  0.2605
 4759W        W 8810  10.069   3.216   3.419  0.1546 -0.0130 -0.1274
 4760W        W 8811   7.633   4.607   4.218 -0.0491 -0.0999 -0.2235
 4761W        W 8812   1.875   0.885  12.409 -0.1886  0.0440  0.1154
 4762W        W 8813   9.751   7.861   1.092  0.0581  0.1516  0.0762
 4763W        W 8814   6.781   0.805   3.149  0.0024 -0.3136 -0.1227
 4764W        W 8815   0.572   4.158   0.809 -0.0759  0.0939  0.2107
 4765W        W 8816   9.203   7.946   2.534 -0.2809  0.1468  0.0098
 4766W        W 8817   5.998   4.877   3.313 -0.1810  0.0578 -0.1411
 4767W        W 8818   9.087   7.898  10.619 -0.2440  0.0462  0.2814
 4768W        W 8819   6.496   8.412  10.525  0.0087  0.4313  0.0923
 4769W        W 8820   7.900   1.237   2.089  0.0109  0.0489 -0.0032
 4770W        W 8821   9.351   3.689   3.671 -0.0121 -0.0922  0.0759
 4771W        W 8822   8.555   2.916   9.949  0.2108 -0.3280 -0.2560
 4772W        W 8823   6.512   3.426   2.991 -0.2530  0.1063  0.1121
 4773W        W 8824   7.772   7.338   0.121  0.4686  0.0618  0.0966
 4774W        W 8825   3.817   7.730  13.048  0.0815 -0.0472  0.2115
 4775W        W 8826   5.853   1.233   8.954  0.1043 -0.0715 -0.2391
 4776W        W 8827   6.944   3.282   0.922  0.1023 -0.0384 -0.3466
 4777W        W 8828   6.495   8.841  10.282 -0.0250  0.2089  0.1697
 4778W        W 8829   4.189   6.777   3.472  0.2062 -0.1050  0.2143
 4779W        W 8830   6.096   1.316   2.648  0.1099  0.0866  0.2831
 4780W        W 8831   3.189   3.550  11.308  0.0996 -0.1057 -0.0861
 4781W        W 8832   5.335   7.290  11.803  0.0538 -0.0320  0.0452
 4782W        W 8833   9.940   9.471   5.208 -0.2488 -0.0116  0.1491
 4783W        W 8834   5.051   0.678   2.853  0.2772 -0.0004 -0.0279
 4784W        W 8835   9.106   1.695   1.320 -0.2619 -0.0503  0.1680
 4785W        W 8836   1.094   3.220   0.793  0.0905 -0.1678  0.1919
 4786W        W 8837   1.940   5.428  11.487 -0.0988  0.0353 -0.1228
 4787W        W 8838   7.842   5.744  11.137 -0.2600  0.1954  0.0189
 4788W        W 8839   6.725   1.597  10.348 -0.0598 -0.1036 -0.0412
 4789W        W 8840  10.037   0.955  11.924 -0.0301  0.1897 -0.0774
 4790W        W 8841   3.494   1.652   9.619  0.0309  0.2878  0.1373
 4791W        W 8842   9.595   3.610  10.041  0.2900  0.2255  0.1732
 4792W        W 8843   6.252   1.770  11.310 -0.0091 -0.0250 -0.1753
 4793W        W 8844   7.875   9.294  12.014 -0.2369 -0.0330  0.0639
 4794W        W 8845   3.184   7.243  13.546 -0.2492  0.2297  0.0740
 4795W        W 8846   8.041   3.635   9.280 -0.0812  0.1835 -0.1005
 4796W        W 8847   9.060   3.146   2.569  0.0012 -0.2487 -0.0278
 4797W        W 8848   7.963   3.204  10.442 -0.0435 -0.2127 -0.0800
 4798W        W 8849   8.747   6.634   2.706  0.0354  0.2523 -0.0368
 4799W        W 8850   1.047   6.163   3.993  0.0030 -0.2177  0.1391
 4800W        W 8851   1.812   1.835   3.950 -0.1423 -0.2842 -0.2057
 4801W        W 8852   5.450   0.463  12.978  0.1679 -0.1240 -0.2096
 4802W        W 8853   9.772   6.506  13.219 -0.0623 -0.1454  0.0024
 4803W        W 8854   6.011   1.958  13.037  0.1027 -0.3079  0.1015
 4804W        W 8855   2.255   5.185   9.364 -0.4499 -0.1185  0.1657
 4805W        W 8856   9.779   4.076  11.963 -0.0185  0.2906 -0.0129
 4806W        W 8857   8.302   4.674   1.090  0.1554  0.2166 -0.0093
 4807W        W 8858   0.529   8.495   4.473  0.0022  0.2266 -0.0109
 4808W        W 8859   3.029   6.584   5.334  0.1738  0.0329  0.0330
 4809W        W 8860   2.667   7.367   4.939 -0.1898  0.1316  0.0830
 4810W        W 8861   3.947   1.539   2.684 -0.2591 -0.2258  0.1222
 4811W        W 8862   0.775   3.615  10.390 -0.0292 -0.1276  0.6896
 4812W        W 8863   9.913   9.971   2.255 -0.2374  0.3244  0.2763
 4813W        W 8864   2.790   9.747   9.711  0.0853  0.0406 -0.0428
 4814W        W 8865   0.488   8.374   2.398 -0.1448 -0.3510 -0.0130
 4815W        W 8866   4.943   1.413   3.400  0.0245  0.3454  0.0509
 4816W        W 8867  10.098   8.289   2.670 -0.0368  0.1544  0.2100
 4817W        W 8868   1.857  10.143  12.808  0.1859 -0.2504  0.0985
 4818W        W 8869   8.703   0.472  10.589  0.2867 -0.3496  0.2211
 4819W        W 8870   2.898   8.847  13.684 -0.1495  0.0614 -0.2096
 4820W        W 8871   6.864   1.385   1.023 -0.3821  0.1058  0.0796
 4821W        W 8872   3.848   4.082  11.809 -0.1571  0.1417  0.0529
 4822W        W 8873   1.072   8.158   5.396 -0.0249  0.2395  0.2377
 4823W        W 8874   3.032   2.312  13.598  0.1016  0.5128  0.1359
 4824W        W 8875   2.417   1.418   0.759 -0.1532 -0.2410  0.5255
 4825W        W 8876   1.498   4.521   1.977 -0.1564 -0.0892  0.3050
 4826W        W 8877   7.467   4.582   4.688 -0.1174 -0.0414  0.0505
 4827W        W 8878   1.995   3.239   0.349 -0.0397  0.1565  0.2176
 4828W        W 8879  10.123   6.057   1.600  0.3546  0.0305  0.1209
 4829W        W 8880   0.943   1.416  10.442 -0.4345  0.4720 -0.2679
 4830W        W 8881   8.086   2.461   9.186  0.0604 -0.0973  0.0082
 4831W        W 8882   8.824   7.070   1.066  0.1698 -0.0879  0.3920
 4832W        W 8883   0.122   0.211  11.646 -0.3406 -0.1007  0.1182
 4833W        W 8884   6.318   0.930   1.290  0.2392  0.2698 -0.1701
 4834W        W 8885   3.757   3.657  10.500  0.1880  0.1154  0.2881
 4835W        W 8886   7.255   0.145   2.002 -0.1030 -0.0818 -0.0239
 4836W        W 8887   1.551   2.677   0.835  0.0805  0.1733 -0.0726
 4837W        W 8888   3.697   9.570  11.698  0.1000 -0.0044 -0.1059
 4838W        W 8889   4.995   7.667  10.603  0.2815 -0.1241 -0.1017
 4839W        W 8890   4.743   1.386   4.770 -0.2798 -0.2488  0.0528
 4840W        W 8891   7.779   2.215   1.844 -0.0470 -0.0938 -0.3239
 4841W        W 8892   9.162   1.723   1.858  0.4285  0.0795 -0.3266
 4842W        W 8893   1.677   5.864  13.580 -0.1119 -0.1282  0.0784
 4843W        W 8894   2.488   2.759   1.559 -0.2262  0.0319  0.0101
 4844W        W 8895   4.160   8.893  10.366 -0.0861  0.2710  0.1051
 4845W        W 8896   0.966   8.570   0.611 -0.0947 -0.2992  0.0146
 4846W        W 8897   2.295   3.760  11.305 -0.0622  0.2620  0.2757
 4847W        W 8898   0.927   8.261   0.104  0.3108  0.2572  0.2431
 4848W        W 8899   8.314   6.706  10.329 -0.0747 -0.0640 -0.0979
 4849W        W 8900   3.139   8.622   2.427  0.2428  0.1181  0.1197
 4850W        W 8901   5.064   9.682  11.969  0.2598  0.1904  0.0972
 4851W        W 8902   7.358   2.125  10.132 -0.2031  0.0844  0.0980
 4852W        W 8903   3.920   9.600   1.128 -0.1715 -0.1450 -0.0523
 4853W        W 8904   4.424   1.296  11.533 -0.0214 -0.0094  0.1964
 4854W        W 8905   7.459   4.452  10.448  0.0775 -0.1958  0.1141
 4855W        W 8906   5.028   8.561   2.152  0.0808  0.0807 -0.2983
 4856W        W 8907   7.866   5.721   9.527 -0.1066 -0.0954  0.1770
 4857W        W 8908   2.108   7.362  13.705  0.1600  0.2434  0.0312
 4858W        W 8909   7.972   3.657   4.249  0.0528  0.0967 -0.0962
 4859W        W 8910   1.699   3.476   2.948 -0.1208  0.3547  0.0016
 4860W        W 8911   6.118   3.371   3.398 -0.3835 -0.0144  0.0760
 4861W        W 8912   0.238   6.927  13.033 -0.0222 -0.4426  0.1781
 4862W        W 8913   4.744   7.765  12.168 -0.2181 -0.2341 -0.0475
 4863W        W 8914   1.580   5.501   3.079  0.0957 -0.0322  0.3394
 4864W        W 8915   9.822   8.504   3.609  0.3436  0.1100  0.0397
 4865W        W 8916   4.830   8.801   2.904 -0.0085  0.1150 -0.2845
 4866W        W 8917   8.221   5.231   3.457 -0.1372 -0.0045  0.0495
 4867W        W 8918   9.750   2.774   1.555 -0.0712 -0.1737 -0.0413
 4868W        W 8919   5.064   4.301  11.824 -0.0959  0.1936 -0.1865
 4869W        W 8920   8.795   3.117   1.332 -0.1015 -0.0175 -0.0853
 4870W        W 8921   2.030   6.874   8.617  0.1010 -0.1847 -0.1240
 4871W        W 8922   1.150   6.558   1.440 -0.0706 -0.0711 -0.0279
 4872W        W 8923   5.051   2.824   4.047  0.0487 -0.3335  0.1151
 4873W        W 8924   8.200   6.426  12.076 -0.1161  0.0365 -0.1298
 4874W        W 8925   4.251   6.983  11.870 -0.2446 -0.1365  0.0061
 4875W        W 8926   4.723   7.403   0.137 -0.0122 -0.0419 -0.1116
 4876W        W 8927   9.957   0.311   9.489 -0.0153 -0.0473 -0.0283
 4877W        W 8928   5.684   4.184  10.654  0.1367  0.0263 -0.0799
 4878W        W 8929   2.336   9.580  11.908  0.0319 -0.1291 -0.1832
 4879W        W 8930   1.294   7.401  10.481 -0.0518 -0.1488 -0.4896
 4880W        W 8931   5.290   2.371   0.811  0.1180 -0.0301 -0.0684
 4881W        W 8932   7.017   9.492   2.221  0.1008 -0.2076  0.0484
 4882W        W 8933   1.344   5.711   4.132 -0.0859  0.1116  0.0497
 4883W        W 8934  10.072   2.571   4.141  0.1088  0.0081  0.1464
 4884W        W 8935   9.820   2.925  10.965 -0.2585  0.0385 -0.0684
 4885W        W 8936   4.466   9.990   1.718 -0.0359  0.2807 -0.1156
 4886W        W 8937   6.200   2.712   0.878  0.0877  0.0153  0.0856
 4887W        W 8938   7.877   9.781   3.564  0.0409 -0.3309  0.2021
 4888W        W 8939   9.646   3.099  10.092 -0.0318  0.1531  0.0864
 4889W        W 8940   2.296   9.767   2.413  0.0855 -0.0796 -0.0221
 4890W        W 8941   7.018   4.448  10.635 -0.0529 -0.1946 -0.0454
 4891W        W 8942  10.094   9.410   8.871  0.2990 -0.0234  0.0860
 4892W        W 8943   4.597   2.005   1.336 -0.1478 -0.1076  0.1061
 4893W        W 8944   0.766   9.617   1.724  0.0648 -0.3523 -0.0777
 4894W        W 8945   2.533   1.275  10.790 -0.0353 -0.0786  0.0589
 4895W        W 8946   0.070   0.417  10.970  0.2620  0.0526 -0.1301
 4896W        W 8947   7.715   0.204  13.322 -0.1292 -0.0249  0.0557
 4897W        W 8948   7.610   3.987   0.362  0.2516  0.1539 -0.0069
 4898W        W 8949   9.152   3.458   5.563 -0.0934  0.1792 -0.1281
 4899W        W 8950   2.294   6.804  11.996  0.2684 -0.0995  0.3095
 4900W        W 8951   2.713   6.481  12.042  0.1625 -0.1427 -0.1364
 4901W        W 8952   3.802   5.248  13.852  0.1088 -0.0971 -0.4250
 4902W        W 8953   9.682   7.414  10.997  0.2701  0.2319 -0.4384
 4903W        W 8954   9.020   2.128  12.982  0.3695  0.1129 -0.0946
 4904W        W 8955   8.520   6.742   0.328  0.1819 -0.1980  0.2877
 4905W        W 8956   6.024   3.620  12.270  0.2646  0.1664  0.5297
 4906W        W 8957   0.913   6.179  13.041 -0.0753  0.1280 -0.5330
 4907W        W 8958   8.620   1.079   5.095  0.0585 -0.2560 -0.1141
 4908W        W 8959   5.030   4.735   0.407  0.0290 -0.2414  0.1137
 4909W        W 8960   3.031   9.121  11.547 -0.0297  0.1943 -0.0035
 4910W        W 8961   4.115   4.406   9.499 -0.3375  0.2233  0.2998
 4911W        W 8962   0.497   1.912  12.814 -0.0336  0.1983  0.1811
 4912W        W 8963   9.060   8.437  12.363 -0.0952 -0.0222 -0.2124
 4913W        W 8964   2.402   2.843   3.474 -0.3335 -0.0814 -0.0445
 4914W        W 8965   3.461   8.149  12.962  0.0215  0.0802  0.0814
 4915W        W 8966   6.309   5.319  12.683  0.1908  0.0219  0.0083
 4916W        W 8967   9.730   4.035  11.386 -0.0623  0.1146 -0.0833
 4917W        W 8968   6.844   4.566   3.763  0.2086 -0.1404 -0.0151
 4918W        W 8969   6.484   0.768  12.392  0.2832 -0.1944 -0.0894
 4919W        W 8970   9.195   7.288   1.487 -0.1189 -0.1138 -0.1817
 4920W        W 8971   1.805   2.345   5.645 -0.4048  0.1737  0.1602
 4921W        W 8972   4.067   9.375   2.891  0.3089 -0.1473  0.0249
 4922W        W 8973   3.330   4.007  13.260 -0.2242  0.0136 -0.3039
 4923W        W 8974   8.775   0.656  12.832  0.1252 -0.0298  0.0534
 4924W        W 8975   4.274   2.026   2.715  0.3571  0.1837 -0.3212
 4925W        W 8976   6.607   3.485  13.420 -0.0382  0.1171  0.1782
 4926W        W 8977   9.297   3.020   8.705 -0.2215  0.0636 -0.0182
 4927W        W 8978   8.783   8.452  11.894 -0.0759 -0.5486  0.5568
 4928W        W 8979   5.522   4.480   2.767  0.2200  0.1536 -0.2226
 4929W        W 8980   5.200   0.097  11.408 -0.0972  0.2645  0.3330
 4930W        W 8981   7.210   9.081   0.803 -0.0980 -0.0377  0.1092
 4931W        W 8982  10.065   6.201  10.269 -0.0931  0.2342  0.2557
 4932W        W 8983   8.030   8.092   0.897  0.1272 -0.1978  0.0300
 4933W        W 8984   0.287   1.895   2.270 -0.0969 -0.2166 -0.0809
 4934W        W 8985   7.454   4.817  13.745 -0.1358  0.1238  0.0866
 4935W        W 8986   8.749   9.002   2.269 -0.1099  0.0618 -0.1187
 4936W        W 8987   9.618   0.854   4.681  0.0043  0.1194 -0.0024
 4937W        W 8988   9.800   2.064  11.178 -0.0831 -0.0994  0.0253
 4938W        W 8989   8.859   3.368   3.901  0.0377 -0.0047 -0.0559
 4939W        W 8990   5.199   2.280   9.653  0.1443  0.0932  0.1607
 4940W        W 8991   9.221   7.746   3.426  0.0402  0.0429  0.2493
 4941W        W 8992   8.838   3.962  13.471  0.0510 -0.1091  0.0968
 4942W        W 8993   1.216   9.400  11.143 -0.0378  0.1772 -0.1794
 4943W        W 8994   1.854   6.963   0.484  0.1564  0.0003 -0.1255
 4944W        W 8995   6.928   9.942   1.429  0.0383  0.2341  0.2682
 4945W        W 8996   9.578   4.447   2.792 -0.2315  0.1496 -0.0338
 4946W        W 8997   7.928   5.712  11.935 -0.1854 -0.1303  0.0788
 4947W        W 8998   3.404   9.537   0.176  0.0512 -0.1944  0.0793
 4948W        W 8999   1.855   0.053  11.299 -0.0039  0.3378  0.0205
 4949W        W 9000   9.354   8.947  10.995 -0.0103  0.3534 -0.0561
 4950W        W 9001   2.774   0.466   9.734 -0.0216 -0.0302 -0.1722
 4951W        W 9002   9.053   1.614   9.267  0.1566  0.0119 -0.1168
 4952W        W 9003   1.178   6.690  12.446  0.0964  0.0606 -0.2782
 4953W        W 9004   2.792   1.204   1.842 -0.0087 -0.0869  0.0109
 4954W        W 9005   3.420   3.907  10.977 -0.0726  0.0202 -0.1832
 4955W        W 9006   2.436   5.473  11.270  0.0940 -0.4115 -0.0777
 4956W        W 9007   4.674   1.462  11.903  0.2293  0.2615 -0.1094
 4957W        W 9008   0.337   0.265  10.609 -0.1558  0.4148 -0.1052
 4958W        W 9009   0.864   4.092   5.205 -0.1715  0.2425  0.1549
 4959W        W 9010   2.083   1.046   2.098  0.0123 -0.2931 -0.2659
 4960W        W 9011   1.916   9.297   4.346  0.1012  0.0736  0.0220
 4961W        W 9012   6.171   4.414   1.543  0.2370  0.2098 -0.1413
 4962W        W 9013   5.214   4.555  13.111 -0.0065 -0.0448  0.0563
 4963W        W 9014   2.230   3.243   0.899 -0.2605 -0.0115 -0.1001
 4964W        W 9015   7.611   6.150  12.082  0.1864  0.3711  0.0384
 4965W        W 9016   2.135   5.875   5.054  0.1829  0.3241  0.0149
 4966W        W 9017   9.153   3.709   9.099 -0.0293  0.0656 -0.2067
 4967W        W 9018   6.209   4.419   4.111  0.1244  0.0033 -0.0482
 4968W        W 9019   5.375   2.842  13.184 -0.0135 -0.0026  0.1021
 4969W        W 9020   8.795   0.213  11.937  0.0784  0.2252 -0.3275
 4970W        W 9021   9.915   5.406  12.229 -0.3024  0.0801 -0.1703
 4971W        W 9022   7.721   2.296  10.460  0.2061  0.0469 -0.1240
 4972W        W 9023   6.253   3.076   2.197 -0.2650 -0.0777 -0.0226
 4973W        W 9024   6.530   8.139  12.253 -0.1394  0.2065  0.2202
 4974W        W 9025   4.571   0.017  10.871 -0.0601 -0.1783  0.3469
 4975W        W 9026   7.973   1.219  10.694 -0.2463 -0.1356  0.0167
 4976W        W 9027   7.755   4.088  12.090  0.0823  0.1048 -0.0201
 4977W        W 9028   9.895   3.176  13.480  0.0007  0.0874 -0.0243
 4978W        W 9029   8.081   5.825  13.367  0.2899  0.1106  0.2936
 4979W        W 9030   0.677   9.380  11.167  0.0898  0.2535  0.3199
 4980W        W 9031   6.740   4.800   0.869 -0.1589 -0.1902 -0.0634
 4981W        W 9032   3.375   5.950   4.158 -0.0069  0.1473 -0.0743
 4982W        W 9033   9.436   5.063   1.303 -0.1148 -0.0114  0.0786
 4983W        W 9034   9.223   9.870  10.331  0.0404 -0.2634 -0.0691
 4984W        W 9035   3.820   0.145   3.206  0.2686 -0.0384  0.0479
 4985W        W 9036   4.997   5.939   1.918 -0.0487  0.3614  0.0786
 4986W        W 9037   0.665   9.465   4.094 -0.0807  0.0265  0.1028
 4987W        W 9038   6.058   7.105  12.392 -0.0841  0.0552  0.0288
 4988W        W 9039   3.968   3.700   5.314  0.1120 -0.2323  0.0672
 4989W        W 9040   9.558   7.707  11.421 -0.2603 -0.0020 -0.0144
 4990W        W 9041   5.966   0.007   0.925  0.0995  0.0724  0.1482
 4991W        W 9042   3.826   1.328  12.158 -0.0739  0.1744  0.0963
 4992W        W 9043   5.282   1.471   9.876 -0.1768 -0.1471  0.2766
 4993W        W 9044   8.292   0.614   0.643 -0.1267 -0.0105 -0.1489
 4994W        W 9045   5.938   4.746  13.288 -0.0572 -0.0578  0.0157
 4995W        W 9046   9.576   9.412  12.109  0.1811 -0.1630 -0.0833
 4996W        W 9047   7.224   7.670   0.839 -0.1161  0.1394 -0.0514
 4997W        W 9048   4.101   8.154  11.474 -0.2280  0.0159 -0.0006
 4998W        W 9049   3.745   1.858   0.703 -0.0731  0.0188 -0.1319
 4999W        W 9050   2.402   8.456  12.516 -0.0462  0.0595  0.1690
 5000W        W 9051   5.822   7.722   1.444  0.3666 -0.1735 -0.0148
 5001W        W 9052   1.270   5.498   2.620 -0.0652  0.1661  0.1267
 5002W        W 9053   0.438   3.103  10.748 -0.2175 -0.1083  0.1097
 5003W        W 9054   4.510   3.207  12.279 -0.0287 -0.0132 -0.1682
 5004W        W 9055   9.872   6.936  12.590  0.0585 -0.0522 -0.0266
 5005W        W 9056   2.166   9.211   3.926 -0.1989 -0.0207 -0.2183
 5006W        W 9057   0.612   0.914  12.615 -0.2775 -0.0736 -0.0698
 5007W        W 9058   5.187   0.559  13.403  0.1041 -0.1955 -0.0722
 5008W        W 9059   0.435   5.794  11.779 -0.1156  0.0893 -0.2238
 5009W        W 9060   2.880   5.765  13.132  0.0519 -0.2895 -0.4378
 5010W        W 9061   3.393   3.414   2.171  0.1653 -0.4470 -0.1962
 5011W        W 9062   4.693   0.388   3.692  0.1986  0.1404 -0.0202
 5012W        W 9063   2.257   6.332  12.149  0.3300  0.1364 -0.0055
 5013W        W 9064   3.657   0.822   2.291 -0.0357 -0.1855 -0.0503
 5014W        W 9065   4.549   7.028  12.652  0.1603  0.1689  0.0590
 5015W        W 9066   7.746   6.746  11.279 -0.1257  0.1630  0.0068
 5016W        W 9067   3.617   6.844   2.284 -0.0001 -0.0973  0.1042
 5017W        W 9068   7.636   7.825  12.795  0.1458 -0.1914 -0.0700
 5018W        W 9069   0.526   0.478   0.077  0.1852  0.2565  0.0488
 5019W        W 9070   7.189   5.630   9.249  0.2331  0.2441 -0.1865
 5020W        W 9071   9.338   2.640  12.472  0.3102 -0.0553  0.0473
 5021W        W 9072   0.885   6.497   2.897  0.1638 -0.3456 -0.0364
 5022W        W 9073   0.588   0.103   1.016 -0.0428 -0.1349 -0.2437
 5023W        W 9074   7.514   8.424   1.695  0.3241  0.0907  0.1658
 5024W        W 9075   4.417   0.686   1.592  0.1694 -0.0175  0.4116
 5025W        W 9076   5.308   4.827   1.834  0.1040 -0.2857 -0.1651
 5026W        W 9077   8.475   0.901  10.907 -0.0359 -0.1832  0.1376
 5027W        W 9078   0.951   3.127   3.588 -0.0215  0.2898  0.2718
 5028W        W 9079   8.168   6.846   3.485  0.0319  0.0396  0.2699
 5029W        W 9080   6.650   4.017   0.556 -0.1527  0.0784  0.5143
 5030W        W 9081   6.039   5.532  10.675  0.1106  0.0620 -0.1058
 5031W        W 9082   3.737   8.238  10.871 -0.0112  0.1374 -0.0878
 5032W        W 9083   8.298   8.351  11.885  0.1855  0.1143  0.0240
 5033W        W 9084   9.169   2.114   1.014  0.1997 -0.0250  0.1029
 5034W        W 9085   9.153   8.730   9.696 -0.2642 -0.0424 -0.1093
 5035W        W 9086   5.102   9.829  10.542 -0.0844 -0.1041 -0.4438
 5036W        W 9087   7.149   5.920  11.400 -0.0746  0.1059  0.2442
 5037W        W 9088   4.045   7.855  10.942  0.3572  0.0255 -0.2885
 5038W        W 9089   2.719   0.758   3.870  0.2234 -0.1299  0.0407
 5039W        W 9090   4.329   4.629   4.254  0.0937  0.0087 -0.1813
 5040W        W 9091   7.592   8.608   3.213 -0.0984 -0.0745 -0.0311
 5041W        W 9092   1.171   1.546  12.757 -0.0665 -0.0036 -0.0598
 5042W        W 9093   6.864   4.516  13.057  0.0358  0.0935  0.1656
 5043W        W 9094   1.492   6.344  10.629  0.0342  0.2468 -0.1243
 5044W        W 9095   3.938   8.641  10.731 -0.2176 -0.1309  0.2217
 5045W        W 9096   0.502   7.067   1.813  0.2914 -0.1218  0.0914
 5046W        W 9097   5.670   6.238   3.704 -0.1579 -0.4444  0.0049
 5047W        W 9098   7.864   1.082   3.134  0.1106  0.1416 -0.0825
 5048W        W 9099   3.874   6.234   0.369 -0.1802 -0.1025  0.0972
 5049W        W 9100   3.974   7.625   1.710  0.3501 -0.2887 -0.2354
 5050W        W 9101   0.969   9.145   2.814 -0.1221  0.0344 -0.1448
 5051W        W 9102   9.303   6.657   2.577 -0.0213 -0.2478 -0.2607
 5052W        W 9103   2.970   0.152   2.538 -0.0017 -0.0204 -0.0678
 5053W        W 9104   6.109   7.546  11.542  0.1839 -0.1877  0.1201
 5054W        W 9105   6.368   2.141   1.456  0.4156 -0.0670  0.0169
 5055W        W 9106   9.298   8.280  13.379  0.0157 -0.3094  0.0239
 5056W        W 9107   8.202   0.256  13.194 -0.1498 -0.1167 -0.6312
 5057W        W 9108   7.910   1.171  13.734  0.1311  0.0745  0.1386
 5058W        W 9109   2.831   8.523  12.294  0.0084 -0.0049 -0.0058
 5059W        W 9110   1.042   4.517   2.968 -0.0648  0.0304 -0.0379
 5060W        W 9111   0.941   5.043   1.798  0.0932  0.0337  0.0484
 5061W        W 9112   1.021   0.558  12.736  0.0427 -0.1413  0.3157
 5062W        W 9113  10.151   3.023  13.076  0.1835  0.2381 -0.0197
 5063W        W 9114   2.168   1.043  10.081  0.2301  0.4455  0.1339
 5064W        W 9115   9.542   3.333   3.316 -0.0726  0.0095 -0.0297
 5065W        W 9116   7.884   9.203   3.525 -0.0667  0.0896  0.1967
 5066W        W 9117   2.898   6.041   3.915 -0.1830  0.1015 -0.0945
 5067W        W 9118   6.771   0.496  10.251 -0.1123  0.2613  0.0322
 5068W        W 9119   2.280   5.256   1.590  0.0087 -0.0378 -0.0054
 5069W        W 9120   4.396   6.761   9.650  0.3830 -0.3302  0.0097
 5070W        W 9121   3.314   1.932  13.241 -0.2559 -0.3208  0.0376
 5071W        W 9122   7.414   5.264   3.707  0.2372 -0.3519 -0.3299
 5072W        W 9123   9.000   6.568  12.432 -0.1880 -0.0692  0.0383
 5073W        W 9124   5.283   3.536  11.298  0.0265  0.0370  0.1899
 5074W        W 9125   3.120   9.684   2.093 -0.0662 -0.3666  0.0739
 5075W        W 9126   1.714   4.270  13.199  0.0109  0.0772  0.2717
 5076W        W 9127   5.803   6.287   2.894  0.0028  0.2693  0.1537
 5077W        W 9128   6.601   1.614  13.845 -0.1200  0.0931  0.1667
 5078W        W 9129   8.823   3.848   0.894 -0.1535  0.2228  0.1419
 5079W        W 9130   7.055   7.526  11.504  0.1087 -0.1951 -0.0058
 5080W        W 9131   6.753   4.916  13.475 -0.4589  0.1764 -0.1408
 5081W        W 9132   1.188   8.503  10.182 -0.0684 -0.1737  0.2089
 5082W        W 9133   1.683   8.633   2.826  0.0008  0.1731  0.1061
 5083W        W 9134   8.340   1.235  12.137  0.1677  0.1316  0.3442
 5084W        W 9135   8.003   6.778  12.737 -0.2100 -0.1350  0.0789
 5085W        W 9136   8.566   5.458   0.178  0.0868  0.1834 -0.1581
 5086W        W 9137   9.455   9.740  12.908 -0.2205  0.0608  0.2244
 5087W        W 9138   9.090   6.173   2.784 -0.1309  0.0561  0.2093
 5088W        W 9139   7.471   5.583  11.694  0.0496 -0.2960 -0.1811
 5089W        W 9140   5.466   3.873  12.142  0.0397  0.1475  0.1244
 5090W        W 9141   6.888   4.308  11.747  0.2734  0.2363  0.0903
 5091W        W 9142   4.768   0.955   1.123  0.1351  0.1831  0.1612
 5092W        W 9143   8.622   7.147   3.438  0.2622 -0.0357  0.1305
 5093W        W 9144   0.039   8.689  11.981  0.0823 -0.3320 -0.0383
 5094W        W 9145   9.081   2.323  10.229  0.2244  0.0699 -0.0049
 5095W        W 9146   3.404   8.007  10.511 -0.0645 -0.2955 -0.4616
 5096W        W 9147   0.290   7.633   8.417 -0.1343  0.2365  0.0812
 5097W        W 9148   9.781   4.577  13.842 -0.0723  0.1708  0.0590
 5098W        W 9149   0.820   5.919   9.996  0.2570  0.0279  0.0723
 5099W        W 9150   1.334   8.466  13.067  0.1893  0.0274 -0.0701
 5100W        W 9151   8.896   8.049  11.096 -0.1568  0.0795 -0.2571
 5101W        W 9152   5.905   2.778   0.069  0.2063  0.1373  0.1422
 5102W        W 9153   7.904   9.636   9.293 -0.2581  0.0658  0.0076
 5103W        W 9154   6.089   9.872   3.150 -0.0938 -0.0527 -0.0610
 5104W        W 9155   4.098   6.850   2.494 -0.1341  0.0426 -0.1612
 5105W        W 9156   6.283   6.778  11.160  0.0545  0.0664  0.3319
 5106W        W 9157   1.808   2.947   3.116 -0.2765 -0.1746 -0.2121
 5107W        W 9158   1.747   0.931   0.748 -0.1022  0.1955  0.1133
 5108W        W 9159   2.702   1.699   1.079  0.3879 -0.1020 -0.1067
 5109W        W 9160   4.293   1.027  12.179  0.2490 -0.0807  0.0699
 5110W        W 9161   2.155   5.658   0.179 -0.2041 -0.0149 -0.1010
 5111W        W 9162   6.819   6.926  12.998 -0.0538 -0.0225  0.0347
 5112W        W 9163   5.698   0.452  10.394 -0.0603 -0.2036 -0.0892
 5113W        W 9164   0.997   8.437  13.527  0.1912 -0.0734 -0.1451
 5114W        W 9165   2.065   9.929  13.291 -0.0165  0.2927 -0.0772
 5115W        W 9166   8.663   3.433   9.686  0.2634 -0.0934 -0.0528
 5116W        W 9167   3.164   2.555   4.008  0.0959  0.2853 -0.0665
 5117W        W 9168   2.547   4.770   4.573 -0.3820 -0.0201  0.0749
 5118W        W 9169   3.912   8.765   2.604  0.1410  0.2238 -0.0412
 5119W        W 9170   2.086   5.238   5.250  0.0253 -0.1500 -0.0761
 5120W        W 9171   7.863   5.578   3.734  0.1064 -0.1121  0.1423
 5121W        W 9172   2.114   6.314  10.581  0.3241 -0.2527 -0.1106
 5122W        W 9173   4.158   4.067   0.331 -0.0599 -0.3390  0.1231
 5123W        W 9174   8.417   6.943   3.926 -0.0491  0.3523  0.2779
 5124W        W 9175   9.521   1.780  10.862 -0.0775  0.0567 -0.2646
 5125W        W 9176   7.351   1.017   2.261 -0.2936 -0.1295 -0.0269
 5126W        W 9177   0.078   9.549   3.097 -0.3203  0.1042  0.0638
 5127W        W 9178   7.649   9.518   1.905  0.2461  0.0504  0.2099
 5128W        W 9179   2.881   8.770   1.382  0.2480  0.1352 -0.0346
 5129W        W 9180  10.182   4.674   0.218  0.3653 -0.2159 -0.1280
 5130W        W 9181   0.481   7.625   4.867  0.0107 -0.1512 -0.0606
 5131W        W 9182   6.856   0.330  10.740  0.0463  0.1123  0.0658
 5132W        W 9183   7.400   8.940  11.248  0.1769  0.1496 -0.0599
 5133W        W 9184   3.579   0.935  12.034 -0.1710  0.2198  0.0838
 5134W        W 9185   7.148   1.908   9.252  0.1257 -0.2556 -0.2572
 5135W        W 9186   9.197   4.550  11.282  0.0384  0.2989 -0.2612
 5136W        W 9187   6.662   2.509  11.798 -0.4080 -0.1424 -0.0379
 5137W        W 9188   6.200   4.179   0.246 -0.0391 -0.0743  0.1712
 5138W        W 9189   9.562   1.344  13.081 -0.2458  0.0138 -0.0130
 5139W        W 9190   0.687   3.979   9.517  0.0666  0.0268 -0.2522
 5140W        W 9191   8.648   6.949  12.620 -0.1329 -0.0356 -0.2279
 5141W        W 9192   0.728   4.666  12.029 -0.0161 -0.0025  0.1934
 5142W        W 9193   0.399   4.426   5.298  0.1052 -0.2623  0.1002
 5143W        W 9194   7.567   2.406  11.475 -0.2466 -0.0635 -0.0454
 5144W        W 9195   2.526   4.104   4.467 -0.2415 -0.2375  0.2149
 5145W        W 9196   5.746   4.528   4.266 -0.2194 -0.1379 -0.2003
 5146W        W 9197   0.522   3.695   2.337 -0.0223  0.0804 -0.2380
 5147W        W 9198   0.705   9.665   0.067  0.0537 -0.1815  0.1037
 5148W        W 9199   7.259   6.050  10.379 -0.0651  0.0576 -0.1212
 5149W        W 9200   9.866   7.859   1.682  0.1586  0.1251  0.2539
 5150W        W 9201   2.654   6.804  12.411  0.0870  0.0087  0.2898
 5151W        W 9202   9.186   7.162   2.630 -0.3360 -0.3227  0.3273
 5152W        W 9203   5.446   1.923   4.402  0.1803  0.4776  0.1672
 5153W        W 9204   9.587   5.750  12.019 -0.0685  0.2099  0.1683
 5154W        W 9205   0.850   2.058   9.757 -0.1937 -0.0508  0.1824
 5155W        W 9206   0.514   8.914  11.263  0.0302  0.0940 -0.0318
 5156W        W 9207   7.007   2.317   3.188 -0.1611 -0.1826  0.0236
 5157W        W 9208   0.371   1.300  10.560 -0.0549 -0.2097  0.0998
 5158W        W 9209   4.380   1.960   5.592  0.2009 -0.1307  0.0042
 5159W        W 9210   1.908   9.111   3.547 -0.1721 -0.1459  0.1056
 5160W        W 9211   2.791   1.595   2.555 -0.2367 -0.2095  0.1034
 5161W        W 9212   6.605   7.156  10.441  0.2635  0.2299  0.0568
 5162W        W 9213   2.032   7.783  11.735  0.1405 -0.0313  0.2197
 5163W        W 9214   7.162   3.140   9.397 -0.0343 -0.1825  0.1020
 5164W        W 9215   3.699   0.146   1.520 -0.1084 -0.1464  0.0907
 5165W        W 9216   3.201   7.914   9.479 -0.0915 -0.0860 -0.1663
 5166W        W 9217   3.761   6.212   4.088  0.2990  0.0625 -0.1594
 5167W        W 9218   5.144   5.422   1.904  0.0571  0.1616  0.0322
 5168W        W 9219   3.030   9.740   3.806  0.0893 -0.1295  0.0279
 5169W        W 9220   1.106   7.359   3.879  0.0536 -0.1906 -0.2888
 5170W        W 9221   7.362   1.792   9.731  0.2687 -0.2886 -0.0167
 5171W        W 9222   2.645   1.544  11.256 -0.1386 -0.0306  0.0928
 5172W        W 9223   9.669   6.062   4.058  0.0526 -0.5773  0.1558
 5173W        W 9224   3.428  10.000  13.088  0.1201 -0.1088  0.0014
 5174W        W 9225   1.768   6.034   1.818 -0.1253  0.1484  0.0131
 5175W        W 9226   0.844   9.469   3.522 -0.1492 -0.0588  0.0445
 5176W        W 9227   6.234   0.655  11.936  0.0032 -0.0420  0.2551
 5177W        W 9228   9.849   2.010   9.566  0.2458  0.0586 -0.0040
 5178W        W 9229   0.877   5.321   3.442 -0.0930 -0.0141  0.1863
 5179W        W 9230   3.091   4.051   4.417 -0.1389 -0.1058  0.0806
 5180W        W 9231   7.233   0.520  10.454 -0.1139 -0.1605 -0.0113
 5181W        W 9232   3.004   0.707  13.170  0.2702  0.2935 -0.1474
 5182W        W 9233   2.299   7.198   0.568  0.1202 -0.1996  0.1208
 5183W        W 9234   2.357   6.970   1.940 -0.0371  0.0245 -0.0642
 5184W        W 9235   0.218   9.810  11.755  0.0026 -0.1486 -0.3000
 5185W        W 9236   4.802   1.603  11.452 -0.1999  0.1352  0.2209
 5186W        W 9237   9.846   3.754   0.758  0.4494  0.0026 -0.2693
 5187W        W 9238   5.078   2.350   1.480  0.2346  0.0304  0.2016
 5188W        W 9239   8.501   3.432  13.744 -0.0565  0.0350  0.0066
 5189W        W 9240   4.399   8.387  13.783 -0.0472  0.0601 -0.2201
 5190W        W 9241   9.710   7.577   0.310  0.0021  0.1945  0.1262
 5191W        W 9242   9.705   1.353   4.679 -0.0943  0.2228 -0.2402
 5192W        W 9243   3.422   3.250   1.240  0.2124 -0.1928  0.0836
 5193W        W 9244   8.004   6.407  11.045 -0.2070 -0.4040  0.2218
 5194W        W 9245   9.432   6.490   2.032  0.0385  0.0246 -0.1987
 5195W        W 9246   7.713   7.140  10.872 -0.1756 -0.2600  0.0802
 5196W        W 9247  10.129   9.450  11.575  0.1097  0.2547  0.1615
 5197W        W 9248   5.616   4.021  13.078 -0.4601 -0.1765 -0.3048
 5198W        W 9249   3.628   8.571  11.955 -0.2764  0.0630  0.0842
 5199W        W 9250   1.807   9.178   9.053 -0.0929 -0.1505 -0.1695
 5200W        W 9251   9.488   9.205   0.823  0.1660 -0.0021  0.2689
 5201W        W 9252   4.511   2.785   0.209 -0.0019 -0.1347  0.1801
 5202W        W 9253   4.318   2.434   1.844  0.1029  0.0042 -0.2779
 5203W        W 9254   1.339   2.129   9.884  0.0266 -0.1021 -0.4032
 5204W        W 9255   1.030   2.608   9.124  0.3696 -0.2970 -0.1592
 5205W        W 9256   2.475   9.091  13.862 -0.3687 -0.0586  0.0237
 5206W        W 9257   5.759   3.218  11.917 -0.1584 -0.0288  0.1616
 5207W        W 9258   9.995   2.012   0.491  0.1457 -0.2643 -0.0700
 5208W        W 9259   4.873   7.423   3.092 -0.0188  0.1501 -0.0944
 5209W        W 9260   7.220   7.365   0.464 -0.1243 -0.0722  0.1559
 5210W        W 9261   6.161  10.192   9.585  0.1585  0.0748 -0.1032
 5211W        W 9262   0.177   6.934   9.113 -0.1292  0.1693  0.0512
 5212W        W 9263   3.411   1.137  12.482  0.0136  0.2472  0.0179
 5213W        W 9264   3.041   7.664   2.445 -0.5468  0.0870  0.2479
 5214W        W 9265   3.028   9.964   2.866  0.0701  0.0071 -0.0138
 5215W        W 9266   8.697   1.262   4.635 -0.2880  0.2873  0.0221
 5216W        W 9267   8.310   6.914   4.941 -0.1379  0.2810  0.3008
 5217W        W 9268   9.162   5.307  12.584 -0.0628  0.1728 -0.0577
 5218W        W 9269   8.739   4.927   1.217  0.1368 -0.0526 -0.0237
 5219W        W 9270  10.220   4.114   0.787  0.0965  0.0650  0.1040
 5220W        W 9271   3.434   0.591   2.792  0.2475 -0.1181  0.2211
 5221W        W 9272   6.012   4.935   1.254 -0.0591  0.2535 -0.2117
 5222W        W 9273   1.814   6.510   0.663  0.1790  0.0446 -0.0111
 5223W        W 9274   9.728   9.666  11.724  0.0240  0.1318  0.0809
 5224W        W 9275   5.587   3.225   1.708  0.0650 -0.2136 -0.1752
 5225W        W 9276   6.492   7.821   0.622  0.1801 -0.1800 -0.0487
 5226W        W 9277   4.439   7.359  12.266 -0.1230 -0.1096  0.1671
 5227W        W 9278   9.732   5.552   4.113 -0.3284 -0.2286  0.0470
 5228W        W 9279   6.009   0.785   1.671  0.0223 -0.1520  0.1649
 5229W        W 9280   9.461   5.224   2.459  0.0189  0.0778 -0.0402
 5230W        W 9281   4.234   9.307  10.726  0.1401  0.4910 -0.1144
 5231W        W 9282   0.341   6.098   0.408 -0.0387  0.1885 -0.1177
 5232W        W 9283   7.853   0.116   3.505  0.2345  0.3287 -0.0037
 5233W        W 9284   4.909   9.154  13.194  0.1338  0.1090  0.2172
 5234W        W 9285   4.643   8.896   0.034 -0.0124 -0.0161  0.0714
 5235W        W 9286   9.000   1.810  10.089  0.2335 -0.2085 -0.1706
 5236W        W 9287   9.411   7.635   9.075  0.2208  0.1177 -0.0101
 5237W        W 9288   7.814  10.090  11.512 -0.1496 -0.1214 -0.0324
 5238W        W 9289   4.738   2.922  11.940 -0.1072 -0.2938 -0.0696
 5239W        W 9290   6.389   2.718  12.587  0.0400 -0.1539 -0.2988
 5240W        W 9291   2.595   4.940   0.810  0.1975  0.2638  0.2046
 5241W        W 9292   5.534   0.483   9.443  0.0525 -0.2319  0.2730
 5242W        W 9293   4.708   5.198  12.576  0.0198 -0.1095  0.2842
 5243W        W 9294   9.928   4.515  11.567 -0.4772  0.1057  0.3832
 5244W        W 9295   7.497   3.318   9.037  0.0276 -0.1054 -0.0291
 5245W        W 9296   5.237   6.532   3.212 -0.2151  0.1816 -0.1408
 5246W        W 9297   3.834   9.902  13.422 -0.0460  0.0727  0.2270
 5247W        W 9298   5.169   8.463  12.722  0.1641 -0.4793  0.0121
 5248W        W 9299   1.233   4.371   0.941 -0.0622  0.1698 -0.0018
 5249W        W 9300   6.073   0.470   9.530  0.3724 -0.2034 -0.2915
 5250W        W 9301   7.828   3.164   1.476 -0.3476 -0.2717  0.0805
 5251W        W 9302   4.316   9.103   2.042 -0.1553  0.0496  0.1539
 5252W        W 9303   7.052   7.376   1.862 -0.0071 -0.1823 -0.2765
 5253W        W 9304   8.962   0.032  10.130  0.2154 -0.4532  0.1588
 5254W        W 9305   9.540   9.475  10.170 -0.2181  0.0256  0.1712
 5255W        W 9306   4.623   2.950  12.877  0.2014  0.0038  0.1698
 5256W        W 9307   7.999   2.550  11.179  0.1932  0.1119  0.1268
 5257W        W 9308   2.627   2.569  10.174  0.2220 -0.2765 -0.0453
 5258W        W 9309   7.426   7.984   2.480 -0.3032 -0.0881 -0.1287
 5259W        W 9310   6.650   0.278   9.453  0.2517  0.3079 -0.0920
 5260W        W 9311   1.194   2.236  12.160  0.2485 -0.0763 -0.0065
 5261W        W 9312   6.670   5.536  11.700 -0.1217 -0.3046  0.0298
 5262W        W 9313   7.286   3.003   1.973 -0.0568 -0.0397 -0.0913
 5263W        W 9314   4.394   6.380  11.935  0.3148  0.0628  0.2489
 5264W        W 9315   8.618   1.340  12.664 -0.0735 -0.3683  0.1294
 5265W        W 9316   9.220   0.762   9.307  0.3483  0.2090 -0.0216
 5266W        W 9317   0.855   9.587   4.603  0.1174  0.1139  0.2012
 5267W        W 9318   0.745   7.250  11.434 -0.0945  0.1775  0.0409
 5268W        W 9319   7.578   7.102  12.653 -0.2750  0.2067 -0.3056
 5269W        W 9320   1.644   2.531   0.331  0.4359 -0.1009  0.0378
 5270W        W 9321   2.052   8.320   9.506  0.4356 -0.1366 -0.1856
 5271W        W 9322   2.825   6.541   3.773 -0.5332 -0.2504  0.1935
 5272W        W 9323   4.238   1.763   3.904 -0.0424  0.2437  0.3033
 5273W        W 9324   6.205   8.954   3.568  0.3066 -0.2477  0.0673
 5274W        W 9325   2.008   6.843  11.488 -0.1510  0.0546  0.1013
 5275W        W 9326   6.864   3.945   2.193 -0.2262  0.0861 -0.1284
 5276W        W 9327   6.796   7.640   2.291  0.0759  0.2683 -0.2158
 5277W        W 9328   3.226   3.410   3.908  0.0631 -0.0768 -0.1207
 5278W        W 9329   8.003   5.895   0.661  0.0946  0.0066  0.2889
 5279W        W 9330   9.956   4.145   1.779 -0.3047 -0.1271  0.1567
 5280W        W 9331   0.622   5.034   3.119 -0.2535  0.0497 -0.0950
 5281W        W 9332   4.884   2.274  11.223 -0.3787  0.1149  0.1226
 5282W        W 9333   5.445   4.006  11.529 -0.0296  0.1464 -0.1343
 5283W        W 9334   3.379   7.762   0.497  0.0201  0.4368  0.4652
 5284W        W 9335   2.300   8.789   3.721  0.0448 -0.1235 -0.0518
 5285W        W 9336   6.959   2.481  10.060 -0.1149 -0.2732 -0.2295
 5286W        W 9337  10.199   2.208   0.953  0.0162 -0.0487  0.2699
 5287W        W 9338   0.604   4.661  10.143 -0.0990  0.1632 -0.1888
 5288W        W 9339   2.115   1.135   3.286  0.0262 -0.0851  0.1626
 5289W        W 9340   2.696   4.621   9.327 -0.1650  0.0031  0.1626
 5290W        W 9341   2.407   1.866   3.930  0.0283  0.1543 -0.0100
 5291W        W 9342   5.393   6.028   2.595  0.0489  0.0762  0.1215
 5292W        W 9343   3.510  10.099  11.776  0.0026 -0.0465  0.3455
 5293W        W 9344   7.838   6.112  10.574 -0.0087 -0.1689 -0.3179
 5294W        W 9345   4.027   9.416  13.268  0.1757 -0.1143 -0.1417
 5295W        W 9346   7.821   2.652   9.567  0.4341 -0.1432  0.0836
 5296W        W 9347   8.785   2.760   3.674 -0.0221  0.0646 -0.3028
 5297W        W 9348   1.465   8.989   1.552  0.1788 -0.1773 -0.1813
 5298W        W 9349   7.608   2.640   2.244 -0.1174 -0.0094  0.0847
 5299W        W 9350   7.812   1.081  12.325 -0.1036  0.2682  0.3326
 5300W        W 9351   6.762   1.442  12.874  0.1898 -0.0408 -0.0913
 5301W        W 9352   9.014   3.197   0.116  0.0477  0.1938 -0.0864
 5302W        W 9353  10.039   8.226  12.020  0.0765  0.0676 -0.2163
 5303W        W 9354   7.434   0.296   9.205 -0.0018 -0.0400 -0.1346
 5304W        W 9355   6.872   9.111   3.479 -0.2472 -0.0102  0.0897
 5305W        W 9356  10.114   4.081  10.300 -0.0172  0.1398 -0.1201
 5306W        W 9357   6.957   5.283   5.416  0.0370  0.1089  0.1007
 5307W        W 9358   7.321   0.141   3.232  0.0066  0.0121 -0.0289
 5308W        W 9359   4.404   0.720  13.013 -0.2210  0.3463  0.3927
 5309W        W 9360   4.891   6.398  12.684 -0.0673 -0.1654  0.2025
 5310W        W 9361   6.812  10.004  10.849  0.1264 -0.1505 -0.0310
 5311W        W 9362   7.510   8.167   0.740 -0.0246  0.0192  0.0584
 5312W        W 9363   1.321   3.720  12.112  0.0178 -0.4107  0.1210
 5313W        W 9364   4.185   4.749   2.878 -0.0641 -0.3152 -0.2164
 5314W        W 9365   9.947   0.768  12.394  0.2617  0.1960  0.2149
 5315W        W 9366   4.990   8.088  11.765 -0.2616  0.5350  0.0287
 5316W        W 9367   5.596   6.017   0.793 -0.1225 -0.3527 -0.0181
 5317W        W 9368   6.016   2.130   3.243  0.1593 -0.0275 -0.1869
 5318W        W 9369   8.023   9.334  13.346  0.2173 -0.0366  0.1254
 5319W        W 9370   3.732   4.346  13.411 -0.2229  0.3418  0.1298
 5320W        W 9371   0.741   1.052  11.450  0.1542 -0.0025  0.0719
 5321W        W 9372   8.879   7.695  11.511  0.1869  0.1785  0.2609
 5322W        W 9373   6.062   7.554   3.019 -0.2874  0.3928 -0.0465
 5323W        W 9374  10.217   5.524  11.437 -0.1775 -0.1063  0.0352
 5324W        W 9375   6.451   1.440   9.392 -0.0632  0.2041 -0.1108
 5325W        W 9376   7.000   0.575  13.769  0.1766  0.1604  0.2249
 5326W        W 9377   2.472   8.924  12.586 -0.0344  0.1310  0.0742
 5327W        W 9378   1.669   5.084   3.476  0.2222  0.1647 -0.3972
 5328W        W 9379   8.121   4.706   4.165 -0.2403  0.1522 -0.1774
 5329W        W 9380   0.770   9.370  13.527 -0.0420 -0.1271  0.0870
 5330W        W 9381   6.376   0.962   4.423  0.0288  0.0589 -0.3376
 5331W        W 9382   6.330   0.771  10.308  0.0017  0.2146  0.1213
 5332W        W 9383   2.915   8.756   3.219 -0.1670 -0.2505  0.0926
 5333W        W 9384   8.070   4.302  13.833 -0.4274  0.0896  0.0157
 5334W        W 9385   3.362   3.155  11.742 -0.3557  0.0642  0.1043
 5335W        W 9386   6.257   9.984  12.190  0.2102 -0.1038  0.4019
 5336W        W 9387   1.912   3.423  11.039  0.0382 -0.2133 -0.0715
 5337W        W 9388   6.044   2.237   1.014  0.2247 -0.1462  0.1466
 5338W        W 9389   3.255   3.219   3.212  0.0699  0.0029 -0.2904
 5339W        W 9390   1.098   1.314   2.895 -0.0664 -0.2274  0.2272
 5340W        W 9391   4.732   1.593   3.902  0.0539 -0.1314 -0.0949
 5341W        W 9392   7.260   8.696   3.912  0.0375 -0.0173  0.2660
 5342W        W 9393   3.699   4.304   1.410  0.0350  0.0006 -0.2907
 5343W        W 9394   8.633   4.649  11.443  0.1879 -0.3317 -0.0511
 5344W        W 9395   2.953   3.825   9.622  0.1567 -0.2326 -0.1531
 5345W        W 9396   0.779   1.585   9.958 -0.0804  0.1091  0.2285
 5346W        W 9397   1.783   6.495   2.104 -0.0569  0.0316 -0.1634
 5347W        W 9398   3.577   4.103   2.703 -0.2910 -0.0795  0.2910
 5348W        W 9399   2.715   9.938   1.374  0.0101  0.0571  0.1128
 5349W        W 9400   8.206   1.822   3.751 -0.1006  0.0278 -0.1940
 5350W        W 9401   2.169  10.220   9.455  0.0908  0.0470 -0.4112
 5351W        W 9402   4.528   6.579   2.320  0.0170 -0.2636 -0.2275
 5352W        W 9403   5.561   1.115  12.650  0.2343 -0.0911  0.0206
 5353W        W 9404   4.969   4.712   2.596  0.0211 -0.0314 -0.2215
 5354W        W 9405   9.065   4.999   1.568  0.0676 -0.3475 -0.0213
 5355W        W 9406   7.930   3.644  12.141  0.2635  0.1358  0.0456
 5356W        W 9407   9.539   2.546  13.586 -0.0514 -0.1953 -0.1296
 5357W        W 9408   1.916   7.502   0.326 -0.2178 -0.0313 -0.1974
 5358W        W 9409   1.676   2.008   8.966  0.1443  0.0361  0.2434
 5359W        W 9410   9.132   9.272   3.910 -0.1388  0.0873  0.1739
 5360W        W 9411   9.011   6.490   8.766  0.2461 -0.2009 -0.2986
 5361W        W 9412   5.690   8.935   1.931  0.1278  0.2997 -0.1677
 5362W        W 9413   8.906   3.859   3.837 -0.1486 -0.1994 -0.6288
 5363W        W 9414   8.182   5.298   2.953 -0.0678 -0.0255 -0.1133
 5364W        W 9415  10.018   0.212   8.962 -0.1674  0.0966  0.0279
 5365W        W 9416  10.156   2.717  13.590  0.2764  0.2075 -0.1390
 5366W        W 9417   1.476   5.540  10.337  0.0644  0.0833  0.0538
 5367W        W 9418   6.995   1.719   5.416 -0.2750 -0.1244 -0.0857
 5368W        W 9419   2.018   1.561  12.935  0.3384 -0.3632 -0.3139
 5369W        W 9420   0.235   8.566   0.283  0.3914  0.2385 -0.1200
 5370W        W 9421   5.187   2.676  11.059 -0.0923  0.1392 -0.0789
 5371W        W 9422   9.618   1.506  11.308 -0.1320 -0.1127 -0.3241
 5372W        W 9423   0.002   6.069   9.340  0.2117 -0.1899 -0.0942
 5373W        W 9424   4.150   4.074  11.382 -0.0594  0.0156  0.1995
 5374W        W 9425   9.225   3.526   4.243 -0.1040 -0.0024  0.4214
 5375W        W 9426   6.597   2.059   3.126 -0.3853  0.0980 -0.0414
 5376W        W 9427   8.229  10.162  13.588 -0.0999 -0.2959 -0.2121
 5377W        W 9428   3.285   9.295   1.046  0.1817 -0.2208  0.0811
 5378W        W 9429   7.704   0.045   2.331  0.1526 -0.0179  0.0394
 5379W        W 9430   2.247   9.680   1.360  0.0905 -0.0124  0.2209
 5380W        W 9431   3.140   6.192   0.865 -0.1482 -0.4133  0.2410
 5381W        W 9432   9.350   3.722  13.414 -0.3694  0.0228  0.1962
 5382W        W 9433   2.313   4.116   1.983  0.1353 -0.0104 -0.2315
 5383W        W 9434   4.224   3.507  11.479 -0.1495 -0.0356  0.2171
 5384W        W 9435   3.264   6.890   9.597  0.1185 -0.2076  0.1239
 5385W        W 9436   1.079   6.086  11.167 -0.0815  0.0090 -0.0026
 5386W        W 9437   8.083   5.797   3.361  0.1304 -0.0684 -0.4273
 5387W        W 9438   1.555   3.681   2.526 -0.1415  0.0408 -0.2181
 5388W        W 9439   5.166   0.660  10.301  0.0783  0.0839  0.0132
 5389W        W 9440   2.877   9.251  13.384  0.0921  0.2398 -0.0236
 5390W        W 9441   0.369   7.391   2.929 -0.2926 -0.0575  0.4303
 5391W        W 9442   8.787   6.187  12.703 -0.0540  0.0777 -0.2293
 5392W        W 9443   9.454   8.293   0.495 -0.1029 -0.0592  0.2178
 5393W        W 9444   5.807   6.819   9.840  0.3192  0.2731  0.0665
 5394W        W 9445   9.706   2.096   0.938  0.1334  0.0876 -0.1103
 5395W        W 9446   3.857   0.982   1.818 -0.4434 -0.0424  0.0133
 5396W        W 9447   6.027   9.744   1.179  0.0932  0.1323 -0.1354
 5397W        W 9448   4.891   9.447   9.671  0.1740  0.0982 -0.0609
 5398W        W 9449   7.486   1.124  10.885 -0.0391  0.0358 -0.0246
 5399W        W 9450   3.553   9.834   1.866  0.3743  0.1375  0.1722
 5400W        W 9451   8.551   1.466   0.470 -0.1655  0.2107  0.0114
 5401W        W 9452   0.961   5.625  10.390  0.0401  0.0766  0.1135
 5402W        W 9453   5.272   0.330  10.941  0.1759 -0.0703  0.0501
 5403W        W 9454   7.048   8.034   2.158  0.0927  0.0129  0.0928
 5404W        W 9455   1.927   9.525  13.742  0.0263 -0.0309  0.0002
 5405W        W 9456   8.144   9.434  12.436  0.1128  0.3319 -0.0846
 5406W        W 9457   1.040   8.901  11.981  0.1502  0.0426 -0.1796
 5407W        W 9458   2.714   5.670  10.843 -0.0675  0.0463  0.1341
 5408W        W 9459   7.163   5.539  10.540  0.0759 -0.0074  0.0075
 5409W        W 9460   7.835   2.042   0.950  0.1806 -0.0636  0.0530
 5410W        W 9461   3.279   9.088  10.486 -0.1174  0.1327  0.1098
 5411W        W 9462   3.505   6.558   3.258  0.0126 -0.1245  0.2175
 5412W        W 9463   2.296   7.780  11.311  0.0705 -0.0945 -0.0247
 5413W        W 9464   0.515   6.219  12.040 -0.1442  0.1666 -0.0892
 5414W        W 9465   6.890   1.011  12.680 -0.1405 -0.2549  0.2553
 5415W        W 9466   0.273   0.406  12.426  0.0490  0.2257 -0.2235
 5416W        W 9467   2.723   0.317  13.205 -0.1603 -0.0328 -0.1391
 5417W        W 9468   5.901   8.703  13.135  0.1380 -0.0281  0.3971
 5418W        W 9469   2.217   5.776  10.533 -0.0726 -0.2828 -0.3951
 5419W        W 9470   5.550   2.155  13.307  0.1230 -0.3119  0.2956
 5420W        W 9471   7.746   3.873   3.861 -0.3999 -0.1949  0.1144
 5421W        W 9472   6.279   2.404  12.185 -0.1602 -0.3703  0.1244
 5422W        W 9473   7.921   4.378  11.043 -0.0895  0.0350  0.2083
 5423W        W 9474   8.153   1.022   1.266  0.1496 -0.1453  0.3726
 5424W        W 9475   6.135   2.644   2.931  0.1249  0.2449  0.1249
 5425W        W 9476   1.913   0.953   4.628 -0.1218  0.2501  0.4913
 5426W        W 9477   8.589   1.276  10.621  0.0484 -0.0694 -0.2850
 5427W        W 9478   0.695   2.710  10.381  0.0389  0.0864  0.1535
 5428W        W 9479   5.178   3.998   2.035 -0.1065  0.2465  0.0688
 5429W        W 9480   9.457   9.571   0.494 -0.0496 -0.1198  0.0860
 5430W        W 9481   4.859   9.070   2.209  0.2695  0.0156 -0.1516
 5431W        W 9482   7.511   1.340  13.528  0.1087 -0.3752 -0.2170
 5432W        W 9483   4.537   3.092  11.454 -0.0964 -0.0033 -0.1163
 5433W        W 9484   8.311  10.115   1.499 -0.0513  0.0290  0.3110
 5434W        W 9485   2.506   1.533   3.524 -0.1731  0.1539  0.1227
 5435W        W 9486   3.060   3.237  10.403 -0.0670  0.1663 -0.1087
 5436W        W 9487   9.825   3.471   4.585 -0.0209 -0.0025  0.0737
 5437W        W 9488   7.587   4.186   8.598 -0.1945  0.0605  0.0549
 5438W        W 9489   1.696   5.395   1.576 -0.0668  0.2194  0.2730
 5439W        W 9490   1.385   5.418   5.070  0.2416 -0.1274 -0.2270
 5440W        W 9491   0.035   6.831   0.136 -0.3375  0.1614  0.1193
 5441W        W 9492   3.715   6.679  10.651 -0.3686  0.0873  0.0939
 5442W        W 9493   1.883   4.656  12.855  0.0526  0.0844 -0.1317
 5443W        W 9494   7.000   5.954   4.242  0.0601  0.0501  0.1768
 5444W        W 9495   4.128   9.130   1.088 -0.2868 -0.0622 -0.0001
 5445W        W 9496   0.704   3.587  12.727  0.0446 -0.0285 -0.1418
 5446W        W 9497   9.780   2.262  12.671  0.0154  0.1475  0.0850
 5447W        W 9498   4.726   2.470   4.163 -0.0433 -0.1476  0.0984
 5448W        W 9499   9.982   9.593  11.099 -0.0196 -0.1820 -0.3298
 5449W        W 9500   1.278   2.670   9.693  0.0113  0.0763  0.2641
 5450W        W 9501   7.081  10.180  12.740 -0.2038  0.0675  0.1483
 5451W        W 9502   1.052  10.043   1.403  0.1666  0.3093  0.0322
 5452W        W 9503   8.056   4.705   2.476 -0.0769  0.0168 -0.4235
 5453W        W 9504   4.680   4.639  11.340 -0.1387  0.0841  0.1917
 5454W        W 9505   3.805   7.952   0.486  0.0261 -0.0496 -0.2820
 5455W        W 9506   2.002   8.694   9.205 -0.2483 -0.1062  0.5704
 5456W        W 9507   9.546   2.755  10.492  0.2701 -0.2126  0.0714
 5457W        W 9508   4.116   1.969   1.751  0.1000  0.1635 -0.0690
 5458W        W 9509   3.760   0.385  10.308  0.2162 -0.1394 -0.0488
 5459W        W 9510   2.114   3.778  13.246  0.1010  0.1591 -0.1052
 5460W        W 9511   4.623   0.043  13.565  0.2284  0.0525  0.0303
 5461W        W 9512   7.547   8.112  12.432 -0.1132 -0.1479  0.1684
 5462W        W 9513   9.472   4.615   9.446 -0.1181 -0.4830 -0.1456
 5463W        W 9514   6.631   5.311   2.517 -0.0008 -0.1297 -0.0482
 5464W        W 9515   8.280   6.883  12.287 -0.2902 -0.2538 -0.0515
 5465W        W 9516   6.891   5.158   3.655 -0.0916  0.1974 -0.0984
 5466W        W 9517   2.133   0.268  11.624  0.5194 -0.2869  0.0823
 5467W        W 9518   7.239   1.267  12.968  0.1857 -0.0087  0.0100
 5468W        W 9519   7.580   6.261   2.606 -0.2033  0.2057  0.1784
 5469W        W 9520   9.412   2.423  12.925 -0.0025 -0.1122 -0.1042
 5470W        W 9521   2.810   1.651   1.607  0.3244  0.1329  0.2794
 5471W        W 9522   1.426   6.668   0.345 -0.1692  0.1950 -0.1675
 5472W        W 9523   8.030   2.370   1.296  0.0578  0.2895 -0.0470
 5473W        W 9524   2.894   1.184   4.531 -0.0043 -0.1656  0.1095
 5474W        W 9525   4.688   1.405  13.698  0.0735  0.2467 -0.2308
 5475W        W 9526   4.753   0.573   2.418  0.0345  0.0258  0.2015
 5476W        W 9527   7.800   4.909   9.108 -0.1411  0.0702 -0.2175
 5477W        W 9528   8.020   1.361   1.622 -0.2029 -0.1138  0.1332
 5478W        W 9529   1.788   0.710   1.238  0.0620  0.2058  0.0013
 5479W        W 9530   4.398   5.146  12.163  0.1635  0.2058 -0.3387
 5480W        W 9531   8.381   8.114  10.848 -0.2680 -0.3729  0.1551
 5481W        W 9532   4.803   2.920   4.446 -0.0877  0.1946 -0.1305
 5482W        W 9533   0.841   6.347   4.388  0.2342  0.0543 -0.0325
 5483W        W 9534   4.528   4.159   9.857  0.0361  0.1406  0.2578
 5484W        W 9535   9.834   5.570   0.511 -0.0043 -0.0107  0.0799
 5485W        W 9536   1.951   6.545   1.163 -0.1519  0.0492 -0.3196
 5486W        W 9537   8.069   6.935   4.398  0.0763  0.4593 -0.0781
 5487W        W 9538   0.392   8.323  11.850  0.2165  0.0136  0.0962
 5488W        W 9539   9.408   5.024   4.772  0.0698 -0.0094 -0.1570
 5489W        W 9540   8.168   1.057  12.725  0.0606 -0.1601  0.1856
 5490W        W 9541   8.382   9.800  11.537 -0.0825  0.1225 -0.0935
 5491W        W 9542   1.417   8.904  11.152  0.0745  0.0468  0.3209
 5492W        W 9543   8.601   2.051   2.022  0.2092 -0.0420 -0.0321
 5493W        W 9544   3.226   2.295   1.930  0.0021  0.1946  0.2945
 5494W        W 9545   9.728   2.951   0.981 -0.0021 -0.0210 -0.0593
 5495W        W 9546   3.576   8.564   9.763 -0.0188  0.0239  0.0659
 5496W        W 9547   7.847   9.020   9.989 -0.0147 -0.1806  0.0848
 5497W        W 9548   4.511   6.563   1.277 -0.1773 -0.0180 -0.0173
 5498W        W 9549   1.611   7.873  12.782  0.0153  0.0842 -0.3213
 5499W        W 9550   0.513   0.620   1.545 -0.0836 -0.0944 -0.1009
 5500W        W 9551   0.758   2.808   3.968  0.0323 -0.0940  0.0091
 5501W        W 9552   8.175   7.595   0.449  0.1882  0.5129 -0.2651
 5502W        W 9553   9.472   4.521  12.540 -0.1843  0.0871  0.1065
 5503W        W 9554   9.908   4.990   3.912 -0.2766 -0.2384  0.1040
 5504W        W 9555  10.000   3.570   1.697  0.1517 -0.3018  0.1982
 5505W        W 9556   7.706   5.045  10.198  0.0007 -0.3094 -0.3110
 5506W        W 9557   5.219   6.477   0.051  0.0275  0.0160  0.1327
 5507W        W 9558   2.936   3.178  11.979 -0.1729 -0.1319  0.2999
 5508W        W 9559   1.483   6.929   1.845  0.0670 -0.0125  0.0408
 5509W        W 9560   5.119   2.623  11.975 -0.2273  0.0622 -0.1571
 5510W        W 9561   2.653   7.032   4.534 -0.0767  0.0210  0.3655
 5511W        W 9562   5.387   7.052  10.748 -0.2403 -0.1817 -0.4624
 5512W        W 9563   0.005   8.549   2.237  0.3775 -0.2773 -0.3332
 5513W        W 9564   7.299  10.201   2.675  0.0974  0.2197  0.3303
 5514W        W 9565   8.386   3.971   1.821  0.0778  0.0753 -0.0646
 5515W        W 9566   4.327   2.217  11.397 -0.0537 -0.0815 -0.0130
 5516W        W 9567   8.290   5.560   1.678  0.0680 -0.3020  0.0298
 5517W        W 9568   2.325   0.081   4.682 -0.0256 -0.1702  0.0690
 5518W        W 9569   1.145   4.145  10.347  0.0381 -0.2573  0.0288
 5519W        W 9570   1.039   1.118  12.850  0.4143 -0.1424  0.1973
 5520W        W 9571   8.102   0.332   2.508  0.0820  0.2885  0.1332
 5521W        W 9572   2.516   0.098  10.376  0.0183  0.0577  0.4189
 5522W        W 9573   6.068   2.175   9.465 -0.2975 -0.1904 -0.0912
 5523W        W 9574   1.866   3.796   3.854  0.1593 -0.2228 -0.2738
 5524W        W 9575   3.205   9.277   0.533 -0.0157 -0.3470  0.0569
 5525W        W 9576   6.000   4.477  10.899  0.0716 -0.0039  0.0550
 5526W        W 9577   4.978   9.830  13.723  0.3252  0.1841  0.2638
 5527W        W 9578   3.081   2.355   9.587  0.1187 -0.3039 -0.0577
 5528W        W 9579   3.232   5.204  10.525  0.0056 -0.0982 -0.0446
 5529W        W 9580   8.112   1.657  12.701  0.0823  0.0746 -0.0716
 5530W        W 9581   9.637   7.500   4.713  0.1464  0.0027  0.2850
 5531W        W 9582   9.125   0.485  10.260  0.1509  0.1232  0.1985
 5532W        W 9583   9.221   1.280   2.062  0.0050  0.1461 -0.0616
 5533W        W 9584   3.408   7.519   1.131 -0.1277 -0.2578 -0.1850
 5534W        W 9585   6.579   0.297   2.110 -0.1381 -0.0810 -0.2916
 5535W        W 9586   5.209   4.157   5.331  0.0749  0.1897  0.2064
 5536W        W 9587   4.127   5.948  12.136  0.1333  0.1787  0.0958
 5537W        W 9588   4.379   9.011   1.529  0.0450 -0.2451  0.0194
 5538W        W 9589   8.517   2.144   4.220  0.3114  0.1910  0.1581
 5539W        W 9590   0.749   0.508  10.919  0.0089  0.0010  0.1519
 5540W        W 9591   2.656   4.458   0.003 -0.1072  0.3923 -0.1962
 5541W        W 9592   2.193   5.593   9.737  0.0260  0.3115 -0.1064
 5542W        W 9593   1.745   9.676  10.040 -0.0227 -0.1690  0.0475
 5543W        W 9594   7.578   9.487  11.241 -0.2769 -0.0143  0.1233
 5544W        W 9595   7.287   2.567  10.542 -0.0611  0.0584  0.2204
 5545W        W 9596   6.118   7.240   0.637  0.0304 -0.1051  0.2568
 5546W        W 9597   1.656   7.469   1.293 -0.1613  0.0933 -0.1329
 5547W        W 9598   1.872   5.488  12.646 -0.3304  0.0966  0.0511
 5548W        W 9599   0.735   8.783   2.614  0.2321 -0.2126 -0.0082
 5549W        W 9600   0.579   5.922   9.393 -0.0630 -0.0088  0.0943
 5550W        W 9601   5.855   7.583  12.409 -0.1373 -0.2998 -0.0251
 5551W        W 9602   7.258   9.606   0.212 -0.3249 -0.1424 -0.5628
 5552W        W 9603   4.294   3.899   9.533  0.3432 -0.3037 -0.2955
 5553W        W 9604   2.803   3.490  13.764 -0.0103 -0.3790 -0.3883
 5554W        W 9605   8.104   1.466   3.393 -0.1654 -0.3280 -0.3903
 5555W        W 9606   6.424   9.579  13.162 -0.0876  0.1776  0.0146
 5556W        W 9607   9.756   7.619   3.004 -0.2303  0.1560  0.1528
 5557W        W 9608   5.628   4.026   1.453 -0.0168 -0.0286 -0.0515
 5558W        W 9609   5.540   1.899  13.837  0.2095 -0.2451 -0.0482
 5559W        W 9610   3.897   7.601  12.582  0.3112  0.0556 -0.0956
 5560W        W 9611   6.505   1.501   0.562 -0.1520  0.0375  0.0633
 5561W        W 9612   1.245   0.932   1.872 -0.2654  0.1658 -0.0654
 5562W        W 9613   2.273   8.860  12.095 -0.2822  0.2799  0.1219
 5563W        W 9614   4.439   2.520   0.655  0.4075 -0.1981 -0.0399
 5564W        W 9615   8.762   5.088   3.136 -0.3471  0.1364  0.1808
 5565W        W 9616   3.282   4.769  12.641 -0.2448  0.1514  0.3719
 5566W        W 9617   2.299   3.205   1.456 -0.5115 -0.2118  0.2046
 5567W        W 9618   6.219   9.597  12.571  0.0130  0.1876 -0.0688
 5568W        W 9619   9.973   9.289   4.338  0.1136  0.2419 -0.1166
 5569W        W 9620   1.712   1.353  11.468  0.1343  0.1804 -0.1519
 5570W        W 9621   7.827   2.482  12.693 -0.0317  0.0426  0.1811
 5571W        W 9622  10.060   4.565   2.035  0.1501 -0.2571  0.3479
 5572W        W 9623   7.457   1.881   2.734 -0.2222 -0.0528 -0.0474
 5573W        W 9624   1.874   6.885   2.665 -0.0543 -0.3546  0.0345
 5574W        W 9625   1.830   8.668  10.902  0.1968 -0.0450 -0.0603
 5575W        W 9626  10.129   1.771   1.081 -0.0926  0.0359  0.2555
 5576W        W 9627   8.591   4.149   1.335 -0.4727  0.1911 -0.1786
 5577W        W 9628   5.026   2.574   4.692 -0.0269  0.2525 -0.0913
 5578W        W 9629   7.865   3.009  11.267  0.3004  0.3970 -0.1462
 5579W        W 9630   9.566   6.266  13.697  0.6083  0.2256 -0.0974
 5580W        W 9631   5.884   0.767  12.905 -0.0715  0.2883  0.0446
 5581W        W 9632   0.590   0.468  12.886 -0.2567 -0.1081  0.0380
 5582W        W 9633   9.178   0.793   2.123 -0.1360  0.2215  0.0936
 5583W        W 9634   8.073   8.819  11.284  0.2780  0.1643 -0.2286
 5584W        W 9635   5.911   7.129   0.087 -0.0764 -0.1667  0.0676
 5585W        W 9636   9.889   9.152  10.976 -0.0286 -0.0421  0.2544
 5586W        W 9637   7.213   3.743  11.371 -0.4124 -0.0568 -0.0675
 5587W        W 9638   4.324   8.142  10.008 -0.0942 -0.1716  0.0468
 5588W        W 9639   2.156   8.259   8.797 -0.1089 -0.1395  0.0768
 5589W        W 9640   4.348   7.541   0.387  0.3062 -0.1301 -0.3094
 5590W        W 9641   5.520   3.299   5.457 -0.1208 -0.2177 -0.2358
 5591W        W 9642   4.777   2.373   0.932 -0.0328 -0.0720 -0.0706
 5592W        W 9643   1.818   0.486  12.969  0.0848 -0.0180 -0.0977
 5593W        W 9644   1.490   9.106   2.730  0.0555  0.0865  0.0443
 5594W        W 9645   2.004   4.528   1.243 -0.1369  0.1227  0.3018
 5595W        W 9646   3.019   5.162   0.634  0.0519  0.0300 -0.0797
 5596W        W 9647   8.021   9.209   2.032  0.3782 -0.0870 -0.0754
 5597W        W 9648   7.586   4.872   2.389  0.0278 -0.0793  0.0758
 5598W        W 9649   1.981   6.140   4.094 -0.3294 -0.1820 -0.2932
 5599W        W 9650   0.151   8.651   1.751  0.1481 -0.2045 -0.1429
 5600W        W 9651   7.023   5.785  10.071  0.0401 -0.1610  0.0286
 5601W        W 9652   7.760   2.003   0.426 -0.2419  0.0387  0.3126
 5602W        W 9653   1.830   8.805  10.396  0.2759 -0.2052  0.2819
 5603W        W 9654   9.525   3.564   1.815 -0.0246 -0.2075  0.3004
 5604W        W 9655   2.537   0.555   0.239  0.0603  0.0812  0.4058
 5605W        W 9656   1.788   0.663   9.974 -0.1024  0.1587 -0.3215
 5606W        W 9657   0.938   5.287  11.468 -0.3537 -0.1157  0.0054
 5607W        W 9658   4.693   3.425  13.196  0.0756  0.4366 -0.0946
 5608W        W 9659   5.176   3.360   9.785  0.0124  0.1727 -0.2490
 5609W        W 9660   1.175   1.286  13.683  0.1310 -0.1028  0.1620
 5610W        W 9661   9.044   0.499   3.847  0.1692  0.2217  0.0703
 5611W        W 9662   1.091   9.239  12.738 -0.1460  0.1034  0.2498
 5612W        W 9663   7.882   0.139  11.079  0.4268 -0.1970 -0.0707
 5613W        W 9664   4.364   5.510   3.934 -0.0334 -0.3328  0.1101
 5614W        W 9665   2.667   3.692   9.023 -0.0612  0.2145  0.0840
 5615W        W 9666   9.408   4.074   1.696 -0.1797 -0.0557 -0.1222
 5616W        W 9667   8.968   6.364  10.943  0.3230 -0.4370  0.3985
 5617W        W 9668   3.777   5.493   4.547  0.0355 -0.1487  0.1219
 5618W        W 9669   2.737   8.705  11.344  0.2461  0.0221 -0.0850
 5619W        W 9670   3.872   6.370   3.503 -0.2077 -0.0013 -0.5046
 5620W        W 9671   6.063   1.535  10.929  0.1629  0.1478  0.3126
 5621W        W 9672   8.862   2.791   3.181  0.2227 -0.2442  0.0072
 5622W        W 9673   3.549   0.556   9.258 -0.0830 -0.4668  0.0973
 5623W        W 9674   0.735   7.999  12.659  0.0126  0.0300 -0.0378
 5624W        W 9675   8.383   2.136  13.645  0.1531 -0.1530  0.3689
 5625W        W 9676   9.615   5.492   4.650 -0.2325 -0.1869  0.1700
 5626W        W 9677   0.085   1.949   0.103 -0.1231 -0.3186 -0.0842
 5627W        W 9678   8.349   7.896   1.360 -0.2195  0.0282  0.3648
 5628W        W 9679   9.624   2.412  11.561 -0.1028  0.0434 -0.2061
 5629W        W 9680   9.324   2.100  12.552  0.1406 -0.1478 -0.2706
 5630W        W 9681   0.806   1.905  12.431  0.0555 -0.0795  0.0358
 5631W        W 9682   0.679   6.940   0.020 -0.2768  0.1997 -0.1166
 5632W        W 9683   2.558   5.625  10.157  0.1361 -0.3845  0.1663
 5633W        W 9684   9.911   7.433   4.174  0.0389 -0.3709  0.2598
 5634W        W 9685   7.154   0.697  10.931  0.0655  0.0490  0.0320
 5635W        W 9686   7.230   5.336   3.189 -0.4816  0.0854  0.0018
 5636W        W 9687   2.800   3.326  12.966  0.5572  0.1707 -0.0308
 5637W        W 9688   6.598   1.088   2.723 -0.0399  0.1600 -0.2013
 5638W        W 9689   7.282   3.750   1.522  0.0624 -0.1379  0.1597
 5639W        W 9690   1.754   5.378   2.517  0.3190  0.2900 -0.1071
 5640W        W 9691   3.828   2.832   1.333  0.0615 -0.0181  0.1592
 5641W        W 9692   8.551   1.687  12.333 -0.1422  0.1166  0.2314
 5642W        W 9693   6.677   5.476   3.275 -0.1124 -0.2744  0.2876
 5643W        W 9694   2.710   6.091   3.426  0.0947 -0.1925 -0.1192
 5644W        W 9695   6.397   1.667   3.313  0.5410  0.0240  0.1122
 5645W        W 9696   0.551   6.088   0.900 -0.3021  0.1691  0.1129
 5646W        W 9697   0.195   6.649  12.306 -0.1695  0.2168 -0.2995
 5647W        W 9698   5.526   5.191   1.556  0.0464  0.0321  0.1613
 5648W        W 9699   9.296   1.554   2.786 -0.1330 -0.0581 -0.0172
 5649W        W 9700   2.339   0.221  13.511 -0.0607  0.0163  0.2206
 5650W        W 9701   8.589   3.744   9.286  0.0177  0.0049  0.2194
 5651W        W 9702   3.050   1.275   3.919  0.0886 -0.2680 -0.2895
 5652W        W 9703   6.142   5.135  11.645 -0.0464 -0.0884  0.1472
 5653W        W 9704   7.835   3.581   4.873  0.0681 -0.1121  0.1005
 5654W        W 9705   8.691   7.092  13.106 -0.0612 -0.0812 -0.1268
 5655W        W 9706   0.861   2.311   8.765  0.0347 -0.0997 -0.0082
 5656W        W 9707   6.944   2.707  12.698 -0.0901 -0.1738  0.2869
 5657W        W 9708   0.490   1.778  10.381 -0.1307  0.1968 -0.0104
 5658W        W 9709   2.704   0.012   3.328 -0.2807  0.0747  0.0109
 5659W        W 9710   7.186   3.264   3.705 -0.1938  0.0875 -0.1067
 5660W        W 9711   1.366   8.323   0.396  0.1926  0.3277 -0.4853
 5661W        W 9712   1.422   0.947  11.813  0.0428  0.1148 -0.1025
 5662W        W 9713   2.029   0.526   0.487  0.1875  0.0674  0.2375
 5663W        W 9714   6.520   4.565   2.939  0.0889  0.2352 -0.2466
 5664W        W 9715   0.437   5.275   3.849  0.1616 -0.0832  0.0177
 5665W        W 9716   5.635   1.301   3.743  0.0725 -0.0692 -0.0298
 5666W        W 9717   6.684   5.815  13.705  0.1491  0.0510 -0.1305
 5667W        W 9718   9.443   7.413  13.723 -0.3112  0.0828  0.2155
 5668W        W 9719   5.425   8.287   0.962  0.1431 -0.0856  0.0070
 5669W        W 9720   9.705   2.355   9.134  0.1785 -0.0543  0.0087
 5670W        W 9721   9.520   5.208   3.725 -0.0129  0.1029 -0.0429
 5671W        W 9722   4.359   1.087   4.559 -0.1096 -0.0842  0.0579
 5672W        W 9723   8.207   8.622  13.038  0.0271 -0.0926 -0.1927
 5673W        W 9724   5.990   3.820  10.955  0.0260 -0.0719  0.1762
 5674W        W 9725   3.243   1.205   2.438  0.1198 -0.2014 -0.0796
 5675W        W 9726   9.482   8.773   9.314  0.0976 -0.2009 -0.2071
 5676W        W 9727   5.142   3.778  13.136 -0.0943  0.2052 -0.2387
 5677W        W 9728   4.964   3.574  13.570  0.1065  0.2186  0.2873
 5678W        W 9729   6.549   0.172  13.762  0.1954 -0.4406 -0.0690
 5679W        W 9730   5.627   2.209   9.243  0.2152  0.3903 -0.2887
 5680W        W 9731   1.651   3.891  12.490 -0.1241 -0.0383 -0.2998
 5681W        W 9732   5.621   3.113   3.247 -0.2304 -0.2115  0.0109
 5682W        W 9733   6.331   4.980  13.790  0.2792  0.3396  0.1877
 5683W        W 9734   8.530   5.583   3.733 -0.0624  0.1637 -0.2851
 5684W        W 9735   4.462   6.304   0.535 -0.2257  0.1398 -0.1195
 5685W        W 9736   5.772   8.228  10.779 -0.1173  0.3031 -0.3027
 5686W        W 9737   7.696   0.302   2.844  0.4258 -0.0716 -0.2711
 5687W        W 9738   1.577   3.310   4.370  0.4518  0.1548 -0.1148
 5688W        W 9739   8.115   3.850  10.460 -0.1837  0.1836 -0.5022
 5689W        W 9740   4.578   8.305   3.461  0.2012  0.0006 -0.1628
 5690W        W 9741   3.258   7.318   2.135  0.0772  0.2517  0.1940
 5691W        W 9742   4.228   7.911  13.362 -0.0489  0.4053  0.0945
 5692W        W 9743   5.818   0.234  12.721 -0.1488 -0.2761  0.1806
 5693W        W 9744   5.387   4.581  12.500 -0.2746  0.3160 -0.1732
 5694W        W 9745   8.778   6.122   8.519 -0.0562 -0.2283  0.1709
 5695W        W 9746   1.121   9.037  13.554  0.2634 -0.0781 -0.2802
 5696W        W 9747   6.805   1.154   9.627  0.2097 -0.2741 -0.4083
 5697W        W 9748   4.105   6.363  10.679 -0.2927  0.0134  0.1022
 5698W        W 9749   1.089   2.404  13.435  0.0132 -0.1357 -0.0907
 5699W        W 9750   4.213   8.568  11.781  0.1039  0.0930  0.1409
 5700W        W 9751   3.382   1.661   2.502 -0.3095  0.0541  0.1038
 5701W        W 9752   4.741   1.399   9.852 -0.1864 -0.1148  0.0055
 5702W        W 9753   8.777   9.457  11.694  0.1044  0.0243  0.5734
 5703W        W 9754   5.056   1.027  10.001  0.0944 -0.3446  0.2725
 5704W        W 9755   1.404   2.551   2.275  0.0870 -0.1111  0.1028
 5705W        W 9756   1.979   4.690   3.295 -0.1521  0.2351  0.0863
 5706W        W 9757   0.098   4.396   8.679 -0.0299  0.1131  0.0349
 5707W        W 9758   3.466   9.708   3.572  0.2674 -0.4167 -0.0329
 5708W        W 9759   4.717   4.982   2.980 -0.0106  0.1227 -0.3219
 5709W        W 9760   4.322   3.442  10.498  0.0912  0.3201 -0.1966
 5710W        W 9761   3.710   6.008   2.808 -0.0638 -0.1865 -0.1426
 5711W        W 9762  10.115   2.648   1.163  0.2174  0.0917 -0.0057
 5712W        W 9763   2.048   0.661   3.201  0.1369  0.1105 -0.0140
 5713W        W 9764   7.588   3.280   4.460 -0.0595  0.1076 -0.3505
 5714W        W 9765   3.919   0.602   1.488  0.2459 -0.1291 -0.3567
 5715W        W 9766   3.506   2.429   0.407 -0.0568  0.0098 -0.1854
 5716W        W 9767   4.985   3.802  11.714 -0.0179  0.2197  0.0399
 5717W        W 9768   0.365   6.454   4.543  0.1285 -0.0788 -0.3908
 5718W        W 9769   6.622   8.352   0.340 -0.0070  0.0579  0.1265
 5719W        W 9770  10.100   6.438  11.956  0.3428 -0.1037 -0.0444
 5720W        W 9771   5.581   4.979   4.210  0.0266 -0.1325 -0.0888
 5721W        W 9772   5.367   5.545  12.459  0.0891  0.0300 -0.1294
 5722W        W 9773   1.559   5.413   2.034  0.0707 -0.0132  0.2753
 5723W        W 9774   6.307   9.559   0.756 -0.1307  0.1264  0.2078
 5724W        W 9775   9.367   5.200  10.746 -0.5016 -0.0168  0.3018
 5725W        W 9776   6.687   6.712  12.503 -0.2173 -0.2814  0.3725
 5726W        W 9777   2.526   9.142  11.671 -0.0193 -0.4261 -0.3299
 5727W        W 9778   9.896   6.684   9.819  0.2495 -0.0174  0.1627
 5728W        W 9779   0.874   1.281   4.203 -0.0664 -0.2671  0.0300
 5729W        W 9780   6.041   7.218   2.555  0.1351  0.0061  0.2002
 5730W        W 9781   0.213   3.445   5.198 -0.1749  0.2502  0.0237
 5731W        W 9782   2.795   7.503   0.959  0.1254  0.1892  0.0822
 5732W        W 9783   6.339   4.571   9.791 -0.0184 -0.0133  0.1917
 5733W        W 9784   2.035   5.549  13.542 -0.1448 -0.2140 -0.2383
 5734W        W 9785   9.203   9.802  13.468 -0.0693 -0.4425  0.1434
 5735W        W 9786   1.203   8.366   8.907  0.2674 -0.1357 -0.1332
 5736W        W 9787   5.818   5.616  12.864  0.4289 -0.1543 -0.1241
 5737W        W 9788   2.687   8.639  11.846  0.0219  0.1242  0.0788
 5738W        W 9789   4.811   3.662   2.134  0.0747 -0.0619 -0.1766
 5739W        W 9790   4.773   6.711  13.063  0.1930 -0.1504 -0.0879
 5740W        W 9791   8.912   0.350  13.170  0.0445  0.3912  0.2388
 5741W        W 9792   9.859   1.878  10.513  0.1036 -0.0878 -0.0331
 5742W        W 9793   0.438   0.202  12.037 -0.0837  0.0388  0.1096
 5743W        W 9794   6.954   5.190   1.658  0.0554 -0.1687 -0.3034
 5744W        W 9795   7.489   8.419   2.737 -0.4813  0.5017  0.1177
 5745W        W 9796   4.527   5.059   4.425  0.0622  0.1253 -0.1014
 5746W        W 9797   9.274   4.099   4.095  0.1062 -0.2377  0.1092
 5747W        W 9798   3.452   9.301  11.322  0.2215 -0.1346  0.0407
 5748W        W 9799   7.228   3.626  12.740  0.3669 -0.1659  0.0990
 5749W        W 9800   3.281  10.049  10.886  0.1484  0.1217  0.2011
 5750W        W 9801   7.432   4.208  13.790  0.0700 -0.1478 -0.5584
 5751W        W 9802   8.891   0.957   1.258  0.1024  0.1993 -0.1423
 5752W        W 9803   4.246   0.978  12.653 -0.1966 -0.1451  0.4577
 5753W        W 9804   8.214   3.654   0.282 -0.2173 -0.1398  0.0620
 5754W        W 9805   8.890   3.623   2.509 -0.0480 -0.0042  0.0600
 5755W        W 9806   9.590   5.480   2.110 -0.0969  0.0250  0.1324
 5756W        W 9807   0.084   6.878   9.682  0.0497  0.0084 -0.0303
 5757W        W 9808   5.324   9.936   1.471  0.1611 -0.3297  0.0446
 5758W        W 9809   7.644   0.749   0.594 -0.0978  0.1896  0.2163
 5759W        W 9810   0.072   8.761   3.571  0.2953  0.0969 -0.0658
 5760W        W 9811   6.990   1.275  10.727 -0.1363  0.1249  0.0331
 5761W        W 9812   7.727   1.566   0.052 -0.3644 -0.1790 -0.2749
 5762W        W 9813   1.790   3.155   2.209  0.1797 -0.1454  0.3973
 5763W        W 9814   3.176   2.496   2.790  0.0259  0.1097  0.0029
 5764W        W 9815   7.550   2.066   3.214 -0.0365 -0.1546 -0.0003
 5765W        W 9816   7.183   1.055   8.725  0.0099 -0.0217 -0.2118
 5766W        W 9817   4.152   7.147   3.146  0.0502  0.0346 -0.0926
 5767W        W 9818   3.295   6.171   1.711 -0.0641 -0.1984 -0.1178
 5768W        W 9819   0.568   8.922   0.450  0.1387  0.1143  0.1643
 5769W        W 9820   8.638   7.526   1.253  0.1085 -0.2148  0.0145
 5770W        W 9821   6.540   6.495  11.709 -0.1338  0.3678  0.0179
 5771W        W 9822   1.138   3.565  13.575  0.2519 -0.1106  0.4907
 5772W        W 9823   4.367   3.560   1.785  0.2823 -0.1025  0.1698
 5773W        W 9824   8.529   3.298   0.377  0.0634  0.1096  0.0859
 5774W        W 9825   0.856   5.930   0.560  0.1710 -0.0862 -0.2758
 5775W        W 9826   2.382   2.438   0.809  0.2813  0.0926  0.0349
 5776W        W 9827   6.051   6.529  10.484  0.1568 -0.3709 -0.1065
 5777W        W 9828   5.170  10.022   3.120  0.0148  0.0059  0.3583
 5778W        W 9829   1.964   3.922  10.985  0.0024 -0.1402  0.2215
 5779W        W 9830   2.055   1.557   4.264  0.2317 -0.0297  0.0634
 5780W        W 9831   4.241   2.795  12.531 -0.2382  0.0004  0.1301
 5781W        W 9832   4.563   9.301   0.427 -0.2148  0.0974  0.1662
 5782W        W 9833   3.636   6.698  12.231  0.4117 -0.4552  0.0621
 5783W        W 9834   6.249   0.448  10.760 -0.1912 -0.0617 -0.1157
 5784W        W 9835   5.859   5.395   4.449  0.0684  0.0576 -0.0891
 5785W        W 9836   3.409   5.777  12.636  0.2129  0.1061 -0.0273
 5786W        W 9837   3.581   9.875  11.259  0.3008 -0.1117  0.3523
 5787W        W 9838   4.473   4.611   0.937  0.0977  0.0793  0.2240
 5788W        W 9839   5.692   2.764   1.038 -0.3137 -0.0914  0.2327
 5789W        W 9840   3.635   8.606  13.784  0.2326 -0.1478 -0.0578
 5790W        W 9841   5.491   7.777  10.628  0.0527 -0.0926  0.0218
 5791W        W 9842   7.165   6.790   2.625 -0.0233  0.1441 -0.1517
 5792W        W 9843   6.765   9.579   1.730 -0.0392 -0.1994  0.0123
 5793W        W 9844   7.393  10.063   1.070 -0.2594  0.2313 -0.0983
 5794W        W 9845   1.379   3.547  10.248  0.2453 -0.0690  0.5660
 5795W        W 9846   8.283   6.736  13.271  0.0901 -0.3241 -0.0380
 5796W        W 9847   1.027  10.001   0.868 -0.0288 -0.0125 -0.0746
 5797W        W 9848   2.507   4.701  11.803  0.0183 -0.1648  0.1171
 5798W        W 9849   9.072   0.631   1.558 -0.2808 -0.2041  0.1456
 5799W        W 9850   7.647   6.184   3.157  0.2289  0.1174  0.0987
 5800W        W 9851   5.393   6.326  12.388  0.2830 -0.0210  0.0067
 5801W        W 9852   4.842   0.428  11.736 -0.0405 -0.1714 -0.1701
 5802W        W 9853   1.712   3.900  10.257 -0.1415 -0.1978  0.0992
 5803W        W 9854   6.406   2.432   3.329  0.0890 -0.0179 -0.0412
 5804W        W 9855   5.587   1.467   1.101  0.3223  0.1137  0.0983
 5805W        W 9856   4.467   9.397  11.186  0.1635  0.1895  0.0766
 5806W        W 9857   9.482   1.405  11.918 -0.1276 -0.0630 -0.3785
 5807W        W 9858   1.259   2.959   1.155 -0.1508  0.1788 -0.1379
 5808W        W 9859   4.935   2.679  11.514 -0.1769  0.2749 -0.0565
 5809W        W 9860   7.812   3.761   9.746  0.2735 -0.0781  0.1396
 5810W        W 9861   5.675   3.808   1.908 -0.0375  0.3543  0.3493
 5811W        W 9862   2.368   1.281   4.627  0.0148 -0.2198  0.0207
 5812W        W 9863   9.070   5.603  10.455 -0.0946 -0.0766  0.0651
 5813W        W 9864   1.822   6.703  10.421 -0.1381  0.1384  0.1468
 5814W        W 9865   2.413  10.122   3.715 -0.1877  0.0671  0.4266
 5815W        W 9866   5.081   1.768  11.016  0.2530  0.2581 -0.1843
 5816W        W 9867   4.561   5.743   2.035  0.3548  0.1964  0.2530
 5817W        W 9868   3.769   5.453  11.864 -0.0414  0.1050  0.4780
 5818W        W 9869   6.880   0.719   8.459  0.4184  0.0203 -0.1923
 5819W        W 9870   9.599   7.312  13.064 -0.2725  0.0329 -0.1809
 5820W        W 9871   3.060   2.728   1.700  0.2766  0.3000  0.0691
 5821W        W 9872   9.642   6.511  10.268  0.0996  0.1360  0.2906
 5822W        W 9873   0.707   4.427  11.077  0.3080 -0.1370 -0.2758
 5823W        W 9874   6.826   2.432   3.844  0.1735  0.0025  0.0879
 5824W        W 9875   1.470   3.418   3.905 -0.1992 -0.0640  0.2589
 5825W        W 9876   4.927   2.764   2.520  0.4846  0.0278  0.0492
 5826W        W 9877   1.646   4.185   3.216 -0.0139 -0.1545  0.4390
 5827W        W 9878   3.454   3.759   3.530 -0.0087  0.1045 -0.2370
 5828W        W 9879   0.887   7.156   4.568 -0.1474  0.0403  0.2567
 5829W        W 9880   0.581   2.330   3.472 -0.1909  0.2280  0.1150
 5830W        W 9881   1.039   8.157   0.919 -0.1867 -0.1988  0.1813
 5831W        W 9882   7.017  10.148  10.413  0.1361  0.2828  0.0418
 5832W        W 9883   0.101   6.501  13.299 -0.2331  0.2680 -0.3479
 5833W        W 9884   6.011   7.819   0.516 -0.0698 -0.2852 -0.2428
 5834W        W 9885   7.878   1.158   2.589  0.0394  0.0522 -0.1760
 5835W        W 9886   5.180   0.865   2.320 -0.0098 -0.1760 -0.4160
 5836W        W 9887   7.430   3.422  11.922  0.5801  0.3109 -0.0777
 5837W        W 9888   5.512   0.423   0.074 -0.1135  0.1203 -0.0473
 5838W        W 9889   1.564   9.140   0.127 -0.1644 -0.1163  0.0307
 5839W        W 9890   8.682   1.540   1.980  0.1675  0.1208 -0.0684
 5840W        W 9891   7.057   9.203  11.623 -0.1331 -0.0212 -0.1446
 5841W        W 9892   8.114   2.624  13.078  0.1327 -0.2047  0.3242
 5842W        W 9893   2.553   9.630   2.901  0.2812 -0.0697  0.1339
 5843W        W 9894   6.219   8.731  13.539 -0.0602  0.1800 -0.0798
 5844W        W 9895   1.874   2.981   9.541  0.0711 -0.0575  0.1467
 5845W        W 9896   4.897   6.672   2.812 -0.0073  0.1641  0.2215
 5846W        W 9897   1.450   9.720  12.034 -0.1594  0.1983  0.1860
 5847W        W 9898   0.218   2.301  11.649 -0.0766 -0.0627  0.0040
 5848W        W 9899   7.461   1.624  10.879  0.1121 -0.1821  0.2503
 5849W        W 9900   6.333   5.127   0.893 -0.1834 -0.2870 -0.0258
 5850W        W 9901   7.547   2.219   1.364 -0.2527 -0.1305 -0.4285
 5851W        W 9902   2.300   3.665  11.830  0.3074  0.0362  0.0904
 5852W        W 9903   8.577   4.989  13.799 -0.0093 -0.0715 -0.0965
 5853W        W 9904   7.536   8.899   1.890 -0.0001 -0.3389 -0.1264
 5854W        W 9905   1.939   7.343   2.987  0.0681 -0.2218 -0.1559
 5855W        W 9906   8.689   8.479  12.840 -0.1349  0.3560  0.3698
 5856W        W 9907   6.179   8.268   0.623  0.2223 -0.4845  0.0128
 5857W        W 9908   0.480   3.153   9.846 -0.0750 -0.1402  0.1448
 5858W        W 9909   4.190   8.319   2.483 -0.4295 -0.3258  0.0207
 5859W        W 9910   6.535   8.820  11.288  0.2050  0.3539 -0.2249
 5860W        W 9911   0.333   6.811  13.591  0.3602  0.4245 -0.2953
 5861W        W 9912   5.944   6.564   2.506  0.1409 -0.0617  0.1600
 5862W        W 9913   1.517   7.605   3.701 -0.0977  0.1234  0.0783
 5863W        W 9914   0.089   3.297   0.588 -0.0219 -0.0474 -0.1910
 5864W        W 9915   2.098   9.623  12.738  0.1877 -0.1123 -0.2299
 5865W        W 9916   5.355   1.114   2.724  0.0765 -0.0063  0.0157
 5866W        W 9917   9.955   8.876   2.640 -0.1942  0.2384  0.3251
 5867W        W 9918   2.206   8.386   9.965 -0.1209  0.1719  0.0324
 5868W        W 9919   3.025   0.673   0.339 -0.1754  0.4093 -0.3192
 5869W        W 9920   9.041   1.361  10.482  0.0900  0.0061 -0.0742
 5870W        W 9921   6.211   3.732   0.062 -0.2203  0.2074 -0.6137
 5871W        W 9922   0.903   9.503   1.011  0.1884 -0.3557 -0.2190
 5872W        W 9923   1.846  10.050   0.861  0.1975 -0.2132  0.1931
 5873W        W 9924   7.469   5.987   2.211  0.1335 -0.0423 -0.0835
 5874W        W 9925   6.188   0.899  13.280  0.1071  0.2035  0.0319
 5875W        W 9926   4.267   2.749   1.038  0.1709  0.0152 -0.0833
 5876W        W 9927   0.105   1.707   3.766 -0.1370  0.0774  0.1834
 5877W        W 9928   5.717   7.059  12.826  0.1695  0.2058 -0.0327
 5878W        W 9929   3.937   5.906  10.722  0.2370  0.2708  0.1152
 5879W        W 9930   5.381   3.674   9.399  0.2288  0.1228  0.1265
 5880W        W 9931   0.506   7.819   9.063 -0.0096 -0.2698 -0.1820
 5881W        W 9932  10.120   6.742  11.345 -0.0563  0.2249 -0.0316
 5882W        W 9933   8.468   3.024  12.465 -0.1100 -0.2964  0.1005
 5883W        W 9934   8.505   4.398   4.457  0.1701 -0.0267 -0.2144
 5884W        W 9935   8.687   4.289  13.174  0.0950 -0.0581  0.1150
 5885W        W 9936   2.425   4.944   8.972  0.3512 -0.0591 -0.4055
 5886W        W 9937   8.449   8.636  10.543 -0.0161 -0.0178  0.0756
 5887W        W 9938   7.667   0.663  11.539 -0.0444 -0.3847  0.0318
 5888W        W 9939   8.560   9.210  10.431  0.2439  0.1170  0.0997
 5889W        W 9940   8.428   1.502   4.248  0.1315  0.0728 -0.2008
 5890W        W 9941   8.315   8.828   0.266 -0.2853  0.0273  0.0720
 5891W        W 9942   4.989   9.279  12.371 -0.1543 -0.0870  0.3354
 5892W        W 9943   8.757   3.103   1.857 -0.0277 -0.0772 -0.1108
 5893W        W 9944   0.736   2.127  11.802 -0.1171 -0.1893 -0.0347
 5894W        W 9945   9.251   2.010  11.226 -0.2238 -0.2995  0.1434
 5895W        W 9946   5.860   3.573   4.192  0.0352  0.3076 -0.1886
 5896W        W 9947   8.636   7.791   2.550 -0.1113  0.1029 -0.2129
 5897W        W 9948   4.301   3.590   3.945 -0.4235  0.1147  0.0607
 5898W        W 9949   2.480   3.639   2.166  0.0661 -0.0992 -0.0077
 5899W        W 9950   9.702   8.290   4.623  0.4329 -0.2994 -0.0937
 5900W        W 9951   8.779   9.171   1.809  0.2750  0.0206  0.0708
 5901W        W 9952   1.558   7.595   9.933 -0.2400 -0.1749 -0.2321
 5902W        W 9953   1.612   0.841   9.408 -0.0368 -0.0954  0.2247
 5903W        W 9954   2.202   7.860   9.596  0.4250 -0.0122  0.1031
 5904W        W 9955   0.893   8.528   2.191 -0.3759  0.2247 -0.3407
 5905W        W 9956   6.724   7.115   2.446 -0.2730 -0.1017  0.1131
 5906W        W 9957   9.170   3.443  12.033 -0.0731 -0.1576 -0.2825
 5907W        W 9958   0.790   9.885  11.103 -0.3498  0.0873  0.0516
 5908W        W 9959   6.808   9.280  13.453 -0.2571 -0.0724 -0.2532
 5909W        W 9960   0.064   5.965  13.083  0.1388  0.1563 -0.2669
 5910W        W 9961   5.739   0.163  12.201 -0.0626 -0.0537  0.1581
 5911W        W 9962   1.841   0.107   0.373 -0.3555  0.0175  0.1479
 5912W        W 9963   9.019   5.709   0.342  0.1333  0.0495  0.0263
 5913W        W 9964   5.988   4.012  13.647  0.2832  0.0392  0.2691
 5914W        W 9965   8.758   2.262   3.428 -0.0396 -0.0135  0.2225
 5915W        W 9966   5.744   4.718   2.254  0.0478 -0.0518  0.2278
 5916W        W 9967   4.604   8.731   0.579  0.0399 -0.1840  0.2687
 5917W        W 9968   5.351   1.040  13.636 -0.4022  0.0964  0.1501
 5918W        W 9969   7.312   7.350  10.732 -0.1384 -0.0341  0.1512
 5919W        W 9970   9.228   8.421   4.862  0.0657 -0.0335  0.1176
 5920W        W 9971   7.556   2.119   2.308 -0.0529  0.0882  0.2734
 5921W        W 9972   9.916   3.131   1.873 -0.0428 -0.0861 -0.0188
 5922W        W 9973   6.439   3.286  12.305  0.2646 -0.1055  0.0010
 5923W        W 9974   0.108   9.770   4.203  0.0760 -0.1027 -0.4092
 5924W        W 9975   8.719   9.667   4.787 -0.0570  0.0407 -0.0456
 5925W        W 9976   8.272   1.934   4.680  0.1445  0.0135  0.1911
 5926W        W 9977   4.302   0.567  10.951 -0.1745 -0.3862  0.0786
 5927W        W 9978   3.998   8.668   1.408 -0.0477  0.0671 -0.2149
 5928W        W 9979   0.830   7.193  10.418 -0.0878  0.0211  0.0172
 5929W        W 9980   3.473   0.361  12.091  0.0155 -0.1430  0.1040
 5930W        W 9981   0.585   5.706  10.699 -0.1300  0.0524  0.1898
 5931W        W 9982   4.929   3.796  10.929 -0.0964 -0.1763 -0.0724
 5932W        W 9983   4.785   3.439   1.490  0.2255 -0.2740 -0.1364
 5933W        W 9984   3.837   0.840   0.965 -0.2743 -0.1436 -0.2670
 5934W        W 9985   8.138   6.837  10.895  0.1153 -0.3035 -0.1332
 5935W        W 9986   9.833   8.640   4.941 -0.2965 -0.0254  0.1944
 5936W        W 9987   5.425   9.696   0.448  0.1697  0.0077 -0.0390
 5937W        W 9988   7.898   4.594   3.274  0.1301 -0.3394 -0.1096
 5938W        W 9989   3.900   9.503  11.175  0.0305  0.1526 -0.1353
 5939W        W 9990   4.169   6.450   3.938 -0.0550  0.0652  0.0484
 5940W        W 9991   8.752   1.210  11.414 -0.4203  0.0533 -0.1275
 5941W        W 9992   6.142   2.032  13.558  0.3826  0.0554  0.1029
 5942W        W 9993   4.092   1.546   3.139 -0.0022 -0.2285 -0.1978
 5943W        W 9994   5.827   6.533   0.928  0.1149  0.2929  0.0194
 5944W        W 9995   0.561   0.963   2.307 -0.1222 -0.1766 -0.0416
 5945W        W 9996   6.198   5.594   0.899  0.1134 -0.0891 -0.1023
 5946W        W 9997   7.353   1.441   3.317  0.1933 -0.0854  0.1883
 5947W        W 9998   6.200   9.185  10.578  0.0648 -0.0652 -0.0785
 5948W        W 9999   2.976   9.754   0.554 -0.3229  0.4045 -0.2836
 5949W        W10000   7.441   5.026   4.844  0.0522  0.0812  0.0774
 5950W        W10001   8.480   5.350   1.130  0.2050 -0.0095 -0.4200
 5951W        W10002   4.233   7.582   1.264  0.3380  0.2291 -0.0748
 5952W        W10003   1.457   0.410   2.634 -0.1252 -0.2408 -0.4230
 5953W        W10004   1.275   1.465   3.345  0.0516  0.1599 -0.0135
 5954W        W10005   2.451   3.024   2.386  0.0052  0.0499 -0.0209
 5955W        W10006   8.968   1.034  10.873 -0.4535  0.1349 -0.2856
 5956W        W10007   7.650   8.358  13.101  0.4332  0.0635  0.0161
 5957W        W10008   9.575   3.156   4.925 -0.0339 -0.1219 -0.1635
 5958W        W10009   0.200   4.448   2.396 -0.0678 -0.2978 -0.0876
 5959W        W10010   3.499   5.900  11.762 -0.1306  0.2253 -0.0589
 5960W        W10011  10.208   5.135   2.823 -0.2247  0.1347 -0.0884
 5961W        W10012   0.333   7.017  11.346  0.1011 -0.0777 -0.2584
 5962W        W10013   6.389   1.191   0.876 -0.2985  0.4923 -0.1832
 5963W        W10014   2.388   2.656  10.620  0.0069 -0.0656  0.2399
 5964W        W10015   3.582   3.794   4.399 -0.0076 -0.0773  0.0673
 5965W        W10016   1.882   4.750  10.678 -0.0601  0.0079  0.1990
 5966W        W10017   3.195   9.665  11.814  0.1494 -0.3394  0.1193
 5967W        W10018   7.175   4.917   0.670  0.0834  0.4850 -0.0512
 5968W        W10019   4.328   5.012   3.369 -0.1009  0.5039 -0.1577
 5969W        W10020   3.626   6.583   0.028  0.2099 -0.0610 -0.2672
 5970W        W10021   1.146   6.708   3.251 -0.0032  0.1391  0.0521
 5971W        W10022   3.294   4.291  12.055 -0.0135 -0.0946  0.2259
 5972W        W10023   7.799   5.725   2.967 -0.1339  0.1805 -0.0184
 5973W        W10024   3.723   4.568  11.821  0.0256  0.3001 -0.1154
 5974W        W10025  10.158   6.435   2.408 -0.1547  0.0955  0.0626
 5975W        W10026   7.124   4.520   4.244 -0.2938  0.0783 -0.0243
 5976W        W10027   1.624   9.283   3.956 -0.0976  0.1807 -0.0551
 5977W        W10028   9.598   0.722   1.411  0.0972 -0.1816 -0.0185
 5978W        W10029   9.082   5.969  11.929  0.1321  0.0445  0.0703
 5979W        W10030   2.235   4.450  10.586  0.1093  0.2396  0.2101
 5980W        W10031  10.062   4.959  11.796  0.2236  0.1113 -0.0910
 5981W        W10032   1.756   4.449  10.234 -0.0548 -0.1035 -0.0149
 5982W        W10033   4.031   2.042  10.129 -0.0843  0.1837  0.0604
 5983W        W10034   9.174   0.157   1.722  0.1394 -0.2991 -0.1951
 5984W        W10035   0.597   6.668   1.331  0.3105  0.2434  0.2055
 5985W        W10036   5.835   4.171   0.619 -0.0043 -0.0294  0.0755
 5986W        W10037   3.444   2.021  10.832  0.4046 -0.1870  0.0041
 5987W        W10038   9.359   6.792  11.468  0.0695  0.1976  0.2928
 5988W        W10039   9.796   8.719  11.162 -0.3040  0.2450 -0.2223
 5989W        W10040   2.644   9.072   1.788  0.3554 -0.2173 -0.2737
 5990W        W10041   0.014   7.120   2.037 -0.1906  0.3300  0.1810
 5991W        W10042   6.962   3.820  13.553 -0.0141 -0.2431  0.2290
 5992W        W10043   3.882   7.564   3.220  0.0514  0.1231  0.1245
 5993W        W10044   4.572   1.474  12.379  0.0846  0.2532 -0.0340
 5994W        W10045   4.248   9.526   1.596 -0.0516  0.1322  0.3927
 5995W        W10046   8.328   0.671   2.045  0.1386  0.2593  0.0428
 5996W        W10047   8.020   0.647  13.478 -0.1582 -0.3553 -0.3086
 5997W        W10048   9.082   8.801  12.706 -0.1993  0.0953  0.1135
 5998W        W10049   8.236   7.187  12.785  0.1199  0.0878  0.0720
 5999W        W10050   5.089   8.934  13.617  0.1894  0.2041 -0.2490
 6000W        W10051   3.552   5.248  12.553 -0.0303  0.0332 -0.1709
 6001W        W10052   2.880   4.542   8.856 -0.0453  0.3917 -0.0692
 6002W        W10053   0.448   1.573  12.237 -0.4261 -0.2374  0.1666
 6003W        W10054   3.792   9.365  13.699  0.3261 -0.2555  0.0856
 6004W        W10055   9.898   7.316   9.795  0.0877  0.0318 -0.0814
 6005W        W10056   2.996   5.366   3.366 -0.0272 -0.2705  0.1195
 6006W        W10057   5.513   6.196   1.837 -0.1516  0.1148 -0.1109
 6007W        W10058   7.747   6.222   9.707 -0.1081  0.1784 -0.2953
 6008W        W10059   2.420   4.715   3.566  0.0987 -0.0455 -0.0799
 6009W        W10060   7.019   3.769  11.813 -0.1255 -0.0189  0.0759
 6010W        W10061   9.029   8.942  11.785  0.1050  0.3109 -0.0677
 6011W        W10062   4.560   6.709   4.281 -0.1396 -0.0891 -0.2501
 6012W        W10063   2.295   4.344  10.062  0.0530 -0.0784 -0.0125
 6013W        W10064   3.027   7.748  12.188  0.0181  0.0264 -0.0416
 6014W        W10065   5.768   6.019  13.140 -0.1389 -0.1571 -0.0425
 6015W        W10066   9.117   4.948   3.891 -0.5014  0.0090  0.0832
 6016W        W10067   5.522   3.051   9.660 -0.1721 -0.0104 -0.1646
 6017W        W10068   0.144   8.093   0.432  0.1610 -0.3360  0.2258
 6018W        W10069   7.114   2.851   4.638 -0.2256  0.0491 -0.1770
 6019W        W10070   6.685   0.711   3.611 -0.0381 -0.0166 -0.1784
 6020W        W10071   6.625   5.333   1.282 -0.3545  0.1883  0.3182
 6021W        W10072   7.081   5.621  13.129  0.3161  0.2498 -0.1991
 6022W        W10073   7.362   4.998   4.337  0.2244 -0.2714  0.1986
 6023W        W10074   7.984   5.258  13.038 -0.1418  0.1341 -0.1626
 6024W        W10075   5.032   7.314  12.204  0.3238  0.2225  0.2151
 6025W        W10076   7.894   4.374   1.118 -0.0057 -0.1147  0.5071
 6026W        W10077   8.044   3.885  11.570  0.1499 -0.1185  0.3411
 6027W        W10078   9.478   3.972  12.571 -0.1818 -0.3790 -0.0295
 6028W        W10079   5.400   3.752   5.544 -0.0347 -0.1869 -0.4381
 6029W        W10080   6.942   9.188  11.134  0.1372  0.0253 -0.0016
 6030W        W10081   6.129   8.002   3.699  0.0027  0.2300  0.0403
 6031W        W10082   1.578   5.172  12.260  0.1086 -0.0464  0.0090
 6032W        W10083   8.456   9.887  12.813  0.2802 -0.0220  0.0383
 6033W        W10084   1.184   5.346   1.463 -0.3745 -0.1527  0.1716
 6034W        W10085   4.988   3.148  11.132  0.2198 -0.1110 -0.1531
 6035W        W10086   8.192   4.194   3.171  0.0968  0.0703 -0.0409
 6036W        W10087   1.478   8.248  11.950  0.3676 -0.0627  0.1043
 6037W        W10088   4.673   4.571   4.633  0.5203  0.0859  0.1746
 6038W        W10089   1.711   2.686  10.417 -0.2593 -0.1126  0.0590
 6039W        W10090   7.224   1.021  10.407  0.1929 -0.0036  0.1341
 6040W        W10091   3.365   5.534  12.156  0.2409  0.0061 -0.0243
 6041W        W10092   2.305   6.748  10.657  0.2452  0.0010 -0.2843
 6042W        W10093   0.201   5.940   3.290  0.1021 -0.3549 -0.1183
 6043W        W10094   1.168   4.294   3.420 -0.1386 -0.0555  0.0723
 6044W        W10095   6.579   2.755   9.878 -0.0472  0.0804 -0.0752
 6045W        W10096   8.885   7.426  12.604 -0.1576 -0.0719  0.0483
 6046W        W10097   0.521   8.519   9.526  0.0048  0.3045  0.3812
 6047W        W10098   9.592   3.901   5.428  0.0041  0.1180  0.1275
 6048W        W10099   2.561   9.997  13.297 -0.0182 -0.1713 -0.0707
 6049W        W10100   8.476   7.195   2.112  0.0763 -0.1197 -0.0340
 6050W        W10101   2.623   3.208  12.500 -0.0074  0.3443  0.0493
 6051W        W10102   3.612   2.861   4.463 -0.0772 -0.2387 -0.2007
 6052W        W10103   5.168   1.495  12.573 -0.1235  0.0918  0.0152
 6053W        W10104   1.007   9.155   4.798  0.3129  0.0815  0.1523
 6054W        W10105   8.512  10.139   2.859  0.2651  0.0142  0.2339
 6055W        W10106   7.833   4.073   1.798 -0.0737  0.1604 -0.0299
 6056W        W10107   0.646   8.885  13.378  0.0445 -0.2966 -0.0587
 6057W        W10108   0.937   6.284  12.444  0.0910  0.0227 -0.0830
 6058W        W10109   0.292   1.369   3.008  0.2186 -0.1675 -0.1798
 6059W        W10110   7.396   6.965   9.381 -0.1781  0.1286 -0.3599
 6060W        W10111   0.300   1.945   1.329  0.0438  0.1172  0.1567
 6061W        W10112   2.922   1.687  12.962  0.2655 -0.0560 -0.0677
 6062W        W10113   1.352   4.085   2.706 -0.2368 -0.4602 -0.1168
 6063W        W10114  10.000   0.717  11.469 -0.2485  0.4214 -0.0523
 6064W        W10115   9.386   2.115   2.345 -0.2520  0.0647 -0.1452
 6065W        W10116   2.984   4.676  10.716 -0.1001 -0.0881  0.1528
 6066W        W10117   6.693   7.204   1.494 -0.1350 -0.1211  0.1438
 6067W        W10118   7.965   3.381   2.829 -0.1660 -0.0460 -0.0677
 6068W        W10119   2.245   6.467  13.144  0.0083  0.0192 -0.1757
 6069W        W10120   9.741   8.504   2.993 -0.1812 -0.0990 -0.3176
 6070W        W10121   0.446   3.074  12.923  0.0253 -0.0842  0.0533
 6071W        W10122   1.431   4.984   1.745  0.0864 -0.0932  0.1139
 6072W        W10123   0.098   4.052   2.147  0.0833  0.0007 -0.0393
 6073W        W10124   6.373  10.112   3.575 -0.0372 -0.1263  0.0986
 6074W        W10125   0.610   0.656   3.174 -0.1936  0.0849  0.0679
 6075W        W10126   1.825   1.429   2.333  0.1085 -0.3923  0.0207
 6076W        W10127   3.629   1.236  10.263  0.2422 -0.0111 -0.2003
 6077W        W10128   2.466   3.596   0.223 -0.0161  0.0952 -0.4172
 6078W        W10129   0.907   6.285   3.543 -0.0771 -0.0400 -0.3029
 6079W        W10130   2.795   3.935   0.109 -0.1114 -0.1951 -0.3111
 6080W        W10131   2.529   4.476   0.911 -0.1331 -0.1805  0.0462
 6081W        W10132   2.227   2.180  10.699 -0.0343 -0.0465 -0.0658
 6082W        W10133   5.399   0.334   3.099 -0.0980 -0.0557  0.0985
 6083W        W10134  10.022   9.134   1.232 -0.0884  0.0713  0.1186
 6084W        W10135   5.719   4.495   4.849 -0.0139  0.1659  0.0447
 6085W        W10136   9.033   9.869   1.933  0.2683  0.0303  0.0203
 6086W        W10137   5.227   6.041  10.421 -0.3880 -0.2953  0.1543
 6087W        W10138   9.709   8.500   0.012 -0.2087 -0.1492  0.3332
 6088W        W10139   2.394   7.230   4.149 -0.0240  0.2811  0.1619
 6089W        W10140   2.984   8.235   3.963  0.0634 -0.1202 -0.2157
 6090W        W10141   6.512   5.448   3.700  0.1575  0.1643 -0.2145
 6091W        W10142   3.230   6.223   2.912 -0.0781  0.2054 -0.0332
 6092W        W10143   2.354   1.944   1.594  0.0078 -0.1522  0.0215
 6093W        W10144   7.895   5.830   2.441  0.0173 -0.2623  0.0051
 6094W        W10145   0.179   5.319  10.554  0.2249  0.3696 -0.2016
 6095W        W10146   8.050   5.344  10.914  0.2537  0.0156  0.0744
 6096W        W10147   1.435   2.214   0.649 -0.0461 -0.3572  0.3973
 6097W        W10148   2.687   8.153   1.867  0.0110  0.0686 -0.3773
 6098W        W10149   7.096   3.167   0.457 -0.2131  0.0236  0.0722
 6099W        W10150   6.995   3.997   9.639 -0.0430 -0.0333 -0.2196
 6100W        W10151  10.090   2.545   9.384 -0.1498 -0.2254  0.2184
 6101W        W10152   2.288   3.616  10.757 -0.1619 -0.0538  0.1768
 6102W        W10153   9.083   7.936  11.940 -0.6239 -0.1661  0.0176
 6103W        W10154   6.262   6.115   2.637 -0.0894 -0.1817  0.0006
 6104W        W10155   1.578   8.724  13.647  0.0881  0.0581  0.0658
 6105W        W10156   1.477   6.691   9.904  0.0137  0.1248 -0.0085
 6106W        W10157   5.658   6.994   0.776 -0.0118  0.0242 -0.3281
 6107W        W10158  10.199   3.814  11.269  0.0816  0.1545  0.1395
 6108W        W10159   6.228   1.139   3.106 -0.0136  0.1408 -0.1554
 6109W        W10160   3.381   1.363   5.377 -0.2856  0.0170  0.0865
 6110W        W10161   3.229  10.014   9.438 -0.0131 -0.0229  0.1565
 6111W        W10162   0.487   0.147   3.466 -0.0405 -0.2675  0.0478
 6112W        W10163   1.969   1.309   0.530 -0.0645  0.0940  0.0951
 6113W        W10164   4.988   5.940  12.388  0.0815  0.1341  0.1521
 6114W        W10165   2.324   1.686   2.549 -0.2215 -0.0978 -0.2624
 6115W        W10166   7.849   0.095   0.943 -0.1961 -0.0944 -0.2755
 6116W        W10167   5.242   1.878   2.686 -0.1976 -0.1655  0.1370
 6117W        W10168   1.493   9.072  13.152  0.2077  0.2287 -0.1210
 6118W        W10169   5.007   5.942   3.394  0.1525 -0.2945 -0.1164
 6119W        W10170   2.533   0.982   1.129  0.2186 -0.3047 -0.0558
 6120W        W10171   8.250   3.990   4.590  0.2203  0.0130  0.2137
 6121W        W10172   1.416   0.002  13.081  0.1434  0.0252  0.0060
 6122W        W10173   7.325   2.089  10.684 -0.0702  0.2204 -0.3130
 6123W        W10174   8.456   1.620  10.936  0.0949  0.1235 -0.1216
 6124W        W10175  10.190   8.743   9.993 -0.2531  0.3405 -0.0273
 6125W        W10176   0.991   4.794   0.230 -0.1025  0.1017 -0.3741
 6126W        W10177   6.703   7.312   0.535 -0.2052 -0.0232  0.0709
 6127W        W10178   3.827   5.530   2.859  0.1128  0.0998  0.1406
 6128W        W10179   4.215   1.312  10.967 -0.4026 -0.1289  0.0541
 6129W        W10180   5.241  10.196  12.283  0.0980  0.0045  0.1132
 6130W        W10181   8.161   0.524  11.292  0.1778  0.1120 -0.6009
 6131W        W10182   4.689   2.203  13.169  0.1443 -0.1520  0.0409
 6132W        W10183   3.965   2.860  11.493 -0.0497 -0.1824  0.0594
 6133W        W10184   9.461   9.421   5.191 -0.0455 -0.0778  0.0040
 6134W        W10185   5.253   5.041  12.422 -0.1180  0.0599 -0.0306
 6135W        W10186   4.660   8.126   1.993 -0.1082  0.0546 -0.0964
 6136W        W10187   5.221   2.005   8.818  0.3258 -0.0133  0.0776
 6137W        W10188   4.793   6.964  11.861 -0.0806  0.4061  0.1572
 6138W        W10189   6.798   3.594  10.971  0.1876 -0.1686  0.0155
 6139W        W10190   7.862   3.858  13.821 -0.0923  0.2806  0.0735
 6140W        W10191   7.051   2.351   1.209 -0.0306  0.0663  0.2217
 6141W        W10192   7.980   0.157   9.971  0.1173 -0.3455  0.0700
 6142W        W10193   5.571   1.791  10.722  0.0588 -0.0103 -0.0540
 6143W        W10194   5.415   9.685  10.925  0.1067 -0.0512 -0.1345
 6144W        W10195   0.708   5.214  13.255  0.0473 -0.0463 -0.1821
 6145W        W10196   8.356   2.590   3.251 -0.0397  0.3962  0.3698
 6146W        W10197   0.274   4.212  10.846  0.1137  0.0950  0.2614
 6147W        W10198   8.805   5.514  12.828  0.3498  0.4011 -0.1555
 6148W        W10199   3.094   5.912   2.101 -0.1544  0.0681 -0.1013
 6149W        W10200   3.808   6.036   1.570 -0.1855  0.1044  0.1875
 6150W        W10201   9.030   7.456  10.937 -0.2051  0.1049 -0.2496
 6151W        W10202   3.961   4.508   1.884 -0.0589 -0.1954  0.2044
 6152W        W10203   2.981   8.624   4.803 -0.2554 -0.0870  0.0214
 6153W        W10204   9.499   2.129   0.503 -0.0828  0.1986 -0.0019
 6154W        W10205  10.011   8.525   0.583  0.1727  0.1880  0.2949
 6155W        W10206   3.265   5.385   4.470 -0.2603  0.0409  0.2283
 6156W        W10207   3.319   6.107  10.104 -0.2485 -0.1054  0.1119
 6157W        W10208   7.029   0.868   2.634 -0.1993 -0.0693  0.1198
 6158W        W10209   7.800   8.383   1.253  0.2116  0.1379  0.0323
 6159W        W10210   9.389   5.947  11.108 -0.0019 -0.4858  0.2185
 6160W        W10211   8.024   2.937   9.924 -0.0848 -0.4568 -0.3280
 6161W        W10212   0.210   2.950   5.208  0.0114  0.0675  0.0730
 6162W        W10213   8.946   5.444   4.078 -0.0371 -0.1710  0.2817
 6163W        W10214   1.095   1.189  10.009  0.2020 -0.0945  0.0257
 6164W        W10215   9.309   2.655   3.617  0.2307 -0.1546 -0.0510
 6165W        W10216  10.019   5.366  10.888  0.1799 -0.0029  0.2208
 6166W        W10217   9.085   9.397  10.325 -0.0668  0.1109  0.1794
 6167W        W10218   8.302   6.322   0.376 -0.1903  0.0377 -0.1882
 6168W        W10219   0.781   3.001   1.679 -0.0147  0.0898  0.1192
 6169W        W10220   1.341   1.916  10.840 -0.1273  0.3757 -0.0165
 6170W        W10221   4.227   0.303   3.959  0.2379 -0.2411 -0.2365
 6171W        W10222   3.797   3.639   8.473  0.2408 -0.1978  0.2726
 6172W        W10223   5.295   1.263   4.185  0.1359 -0.0788 -0.2429
 6173W        W10224   8.927   4.163   1.750  0.0193 -0.1385  0.1945
 6174W        W10225   3.518   9.647  12.187 -0.0217 -0.0003  0.0412
 6175W        W10226   3.931   6.283  13.603 -0.1148  0.0015  0.0079
 6176W        W10227   4.627   3.016   9.461  0.1562 -0.3755  0.3337
 6177W        W10228   2.464   7.952  12.857  0.1503  0.2234 -0.4914
 6178W        W10229   8.420   3.335   1.583 -0.2777  0.1447  0.1283
 6179W        W10230  10.149   6.687   2.839  0.2654  0.1798  0.0586
 6180W        W10231   9.800   1.146  10.549 -0.0693  0.1111 -0.1294
 6181W        W10232   9.297   7.576  12.329 -0.3990  0.1597  0.1866
 6182W        W10233   8.120   4.226   2.684 -0.2487  0.0804 -0.0576
 6183W        W10234   8.737   4.981  12.727 -0.0726  0.2994  0.0649
 6184W        W10235   0.342   0.967  13.535 -0.1774 -0.0254 -0.2363
 6185W        W10236   0.989   2.275  10.625  0.0721 -0.1305 -0.1377
 6186W        W10237   7.079   6.246   2.478 -0.2755 -0.0277  0.2641
 6187W        W10238   0.078   7.771   5.327  0.1127 -0.2111  0.0753
 6188W        W10239   0.578   0.495  11.530 -0.1600 -0.0521  0.1737
 6189W        W10240   9.039  10.009  12.102 -0.3242  0.1599 -0.0776
 6190W        W10241   4.882   5.692  11.356  0.3156  0.0110  0.0283
 6191W        W10242   8.446   1.062   0.769  0.1559 -0.0424 -0.2752
 6192W        W10243   2.648   3.087  10.210  0.0499  0.3508 -0.0134
 6193W        W10244   1.606   6.462   5.005  0.1265  0.1418 -0.0561
 6194W        W10245   9.957   7.597  13.221  0.2810 -0.1104  0.4244
 6195W        W10246   1.645  10.042  10.700 -0.1960 -0.1667 -0.1956
 6196W        W10247   0.454   4.498  13.017 -0.0545  0.3208 -0.2075
 6197W        W10248   1.169   6.183   3.087 -0.2615 -0.0573 -0.0544
 6198W        W10249   6.228   3.895  11.399 -0.0039  0.2027  0.1026
 6199W        W10250   8.920   8.715   1.871  0.0483  0.2237 -0.1429
 6200W        W10251   0.402   5.215  11.476 -0.2210 -0.1712  0.0425
 6201W        W10252   5.998   9.838  11.798 -0.0275  0.4031  0.0061
 6202W        W10253   2.481   7.778   2.384  0.3660  0.3225 -0.0904
 6203W        W10254   6.955   4.137  12.228  0.0213 -0.1435 -0.1699
 6204W        W10255   1.465   5.640   1.188  0.1853 -0.0010  0.0708
 6205W        W10256   8.286   2.288   0.834  0.3519  0.2811  0.1537
 6206W        W10257   3.930   3.477   9.699 -0.1226  0.3568  0.3311
 6207W        W10258   1.719   4.541  11.521  0.1271  0.0164 -0.0802
 6208W        W10259   8.041   7.327   1.997  0.2891  0.0880 -0.1788
 6209W        W10260   9.081   0.859   3.494 -0.0087  0.1188  0.1136
 6210W        W10261   9.914   0.517   4.397 -0.0943  0.0159  0.1872
 6211W        W10262   1.722   5.853   8.935  0.4279  0.3125  0.2830
 6212W        W10263   5.365   9.642   2.797  0.3205 -0.1005  0.2613
 6213W        W10264   0.451   7.488   2.217  0.0231  0.1859 -0.0264
 6214W        W10265   0.716   1.891   1.926 -0.0705  0.0949 -0.2034
 6215W        W10266   5.913   3.948   5.685  0.1141 -0.0218  0.3821
 6216W        W10267   7.558   1.281   9.032  0.3965 -0.0293  0.1550
 6217W        W10268   8.089   2.950   0.492 -0.2773 -0.1438  0.0884
 6218W        W10269   1.290  10.126   4.330  0.1035 -0.0818 -0.5396
 6219W        W10270   4.165   9.867   9.768  0.2480  0.2991 -0.1006
 6220W        W10271   1.343   1.767   0.978  0.1596  0.1890  0.1229
 6221W        W10272   4.099   3.712   7.936  0.3476  0.4646  0.2802
 6222W        W10273   9.128   8.446   3.874  0.3645  0.0534 -0.0909
 6223W        W10274   2.181   1.940  13.177 -0.2554 -0.2190 -0.0442
 6224W        W10275   8.083   8.248   1.606 -0.2025 -0.0826 -0.1132
 6225W        W10276   1.761   5.903   8.431  0.1464  0.0371  0.2497
 6226W        W10277   5.272   7.491  10.969 -0.0910 -0.0262  0.0931
 6227W        W10278   7.665  10.034  10.715  0.0134 -0.1316  0.0055
 6228W        W10279   7.014   8.775  13.382 -0.4161  0.0101  0.2923
 6229W        W10280   6.025   1.692   0.058 -0.1975 -0.0693  0.1941
 6230W        W10281   7.364   4.995   1.350  0.2309 -0.0685 -0.0082
 6231W        W10282   6.179   3.493   2.454  0.1744 -0.2315 -0.2466
 6232W        W10283   0.772   0.830   5.102 -0.0347  0.3503  0.0399
 6233W        W10284   5.608   0.167   0.530  0.1610 -0.1774 -0.1605
 6234W        W10285   3.525   3.933   8.869 -0.0239  0.0544 -0.4285
 6235W        W10286   3.842   2.052   3.985 -0.3374  0.1668  0.2654
 6236W        W10287   7.155   3.393  13.348  0.0381 -0.0008 -0.2266
 6237W        W10288   7.641   5.660  10.592 -0.1697  0.0827  0.2867
 6238W        W10289   9.511   3.351   9.182  0.1320  0.0643 -0.0376
 6239W        W10290   4.076   7.256  13.447  0.0362  0.0421 -0.0465
 6240W        W10291   2.904   4.556   4.212  0.1663  0.1474  0.1052
 6241W        W10292   1.803   3.605  10.618  0.2852  0.2188  0.5202
 6242W        W10293   7.687   3.908  12.608 -0.1761  0.1012  0.0197
 6243W        W10294   5.822   4.986  10.828  0.1663  0.1208 -0.0809
 6244W        W10295   7.627   1.149   0.307  0.3801  0.0418 -0.0978
 6245W        W10296   6.222   6.164  12.950 -0.2017 -0.0472 -0.4265
 6246W        W10297   2.516   9.614   1.845  0.1919  0.2624  0.2459
 6247W        W10298   7.094   8.696  12.242  0.1499  0.0573  0.2980
 6248W        W10299   6.880   7.581  10.588  0.0369 -0.2924 -0.1225
 6249W        W10300   7.834   4.579  13.532  0.2591  0.0143 -0.1553
 6250W        W10301   4.580   7.005  13.591  0.1160  0.4079  0.1643
 6251W        W10302   3.177   8.389   1.566 -0.0514  0.2055  0.1808
 6252W        W10303   1.005   1.932  13.608  0.1361  0.0013 -0.1514
 6253W        W10304   0.352   0.508   5.032  0.1457 -0.3572 -0.1329
 6254W        W10305   2.605   2.208   2.321  0.1291  0.3229  0.2901
 6255W        W10306   9.398   8.236   1.493 -0.0600  0.0395 -0.3653
 6256W        W10307   3.425   4.169   3.227 -0.1193 -0.2362 -0.0340
 6257W        W10308   6.467   5.754  10.733  0.2875 -0.1045  0.0358
 6258W        W10309   5.847  10.184  13.152 -0.0733 -0.2465  0.0232
 6259W        W10310   2.279   6.375   4.888  0.1479 -0.0412 -0.1779
 6260W        W10311   1.032   6.858   0.562  0.1439  0.1869  0.0226
 6261W        W10312   0.466   8.659  10.034  0.2540  0.1661  0.0507
 6262W        W10313   1.919   7.285  11.379  0.1067 -0.2022 -0.1170
 6263W        W10314   9.053   1.621   4.247 -0.3930  0.0092  0.1497
 6264W        W10315   0.568   3.837   0.410 -0.0422  0.0005  0.1289
 6265W        W10316   5.511   6.372  11.841 -0.1804 -0.1637  0.0638
 6266W        W10317   2.318   5.146  10.585  0.1205  0.0964 -0.0825
 6267W        W10318   3.320   1.268  13.690 -0.3653  0.0464 -0.0236
 6268W        W10319   3.197   3.752  10.571  0.0704 -0.0590 -0.0033
 6269W        W10320   8.196   3.423  11.327  0.0421 -0.1732  0.1962
 6270W        W10321   8.052   2.103   3.289  0.1396 -0.0513 -0.0013
 6271W        W10322   7.696   2.190  10.943 -0.2272  0.0793 -0.1179
 6272W        W10323   4.867   3.726   9.963 -0.1368  0.2326 -0.0469
 6273W        W10324   6.625   6.830   3.038 -0.0123 -0.0311  0.1283
 6274W        W10325   6.839   4.291   0.981  0.4148  0.1960  0.1781
 6275W        W10326   4.527   5.726   1.158 -0.2565 -0.5343  0.1803
 6276W        W10327   2.388   2.527  11.408  0.2541  0.0957 -0.0651
 6277W        W10328   6.877   2.949   2.346 -0.0220 -0.0371  0.1615
 6278W        W10329   0.415   2.681   1.971  0.0701  0.0808 -0.0705
 6279W        W10330   9.163  10.205   9.452 -0.1684  0.0422 -0.0989
 6280W        W10331   4.188   9.661  13.658 -0.2572  0.2034 -0.3932
 6281W        W10332   9.935   7.685  13.677  0.4714  0.2128 -0.5154
 6282W        W10333   3.743   3.245   1.642 -0.1018  0.0373 -0.1454
 6283W        W10334   5.923   6.175  12.170  0.0078 -0.4637  0.1555
 6284W        W10335   3.606   6.256   9.672  0.1730  0.0911 -0.1669
 6285W        W10336   6.807   9.556   9.818  0.1799  0.4450  0.2789
 6286W        W10337   0.458   4.024   3.259  0.1777  0.0068 -0.0859
 6287W        W10338   4.689   8.264  10.387 -0.2884  0.2282 -0.0822
 6288W        W10339   0.206   1.907   4.946  0.2024  0.4150 -0.2918
 6289W        W10340   9.752   8.358   1.007  0.2612 -0.2613 -0.2248
 6290W        W10341   1.909   0.248   1.763  0.1639 -0.0026  0.1480
 6291W        W10342   9.234   7.938   4.492  0.2420 -0.0007  0.0269
 6292W        W10343   6.902   9.651  11.815  0.2162  0.1935  0.0408
 6293W        W10344   4.399   1.730  11.217 -0.0720 -0.0119 -0.0726
 6294W        W10345   3.306   1.475  11.057 -0.0487  0.3199 -0.0121
 6295W        W10346   0.670   6.863  12.553 -0.2492 -0.0446  0.0180
 6296W        W10347   0.406   2.955   3.462  0.1536 -0.0764  0.0488
 6297W        W10348   6.547   3.997   3.021 -0.0053  0.0125 -0.1414
 6298W        W10349   3.100   3.044   5.702  0.0238  0.0276 -0.2040
 6299W        W10350   5.169   9.410   2.199 -0.3207  0.0285 -0.0967
 6300W        W10351   6.257   7.029  10.054 -0.2091  0.1848 -0.0011
 6301W        W10352   3.016   3.551  12.507  0.0152 -0.0133 -0.0803
 6302W        W10353   9.679   2.340   2.780  0.2213 -0.0388 -0.0315
 6303W        W10354   1.203   6.721  11.875  0.2622 -0.0484  0.0648
 6304W        W10355   8.730   4.832  13.235  0.3533 -0.1521  0.1681
 6305W        W10356   7.227   4.736  12.705  0.1660 -0.3097  0.2059
 6306W        W10357   4.047   1.807  11.556 -0.0080 -0.0683  0.0505
 6307W        W10358   1.380   0.255   0.390  0.0417 -0.3062 -0.0453
 6308W        W10359   5.843   5.217  13.184 -0.1402 -0.3917  0.1778
 6309W        W10360   8.149   6.326  11.562 -0.2125  0.0412 -0.1345
 6310W        W10361   2.252   0.517   1.474 -0.2197  0.1955 -0.0168
 6311W        W10362   1.793   1.623  13.412  0.0910 -0.1532  0.1772
 6312W        W10363   1.819   3.347  10.086 -0.0417  0.0370 -0.0235
 6313W        W10364   8.088   0.141   1.966 -0.0543  0.1175 -0.0470
 6314W        W10365   9.836   5.219   3.360  0.1228 -0.1241  0.3318
 6315W        W10366   8.257   5.995   2.132  0.0228 -0.0593  0.0946
 6316W        W10367   5.504   6.390  11.347  0.3495 -0.0804  0.0350
 6317W        W10368   4.091   5.687   1.360 -0.0979  0.1491  0.0849
 6318W        W10369   6.165   8.480  12.179  0.1978 -0.3500  0.0549
 6319W        W10370   0.260   2.649  13.218 -0.1018  0.3582 -0.0908
 6320W        W10371   1.283   9.413   3.096  0.1910  0.2572 -0.1606
 6321W        W10372   0.430  10.222   5.032  0.0732  0.2995  0.0741
 6322W        W10373   3.726   9.427   3.296  0.2604 -0.1125  0.2158
 6323W        W10374   6.585   8.285  11.191 -0.0986 -0.1106  0.1202
 6324W        W10375   6.539   8.122  12.776 -0.3073  0.1353  0.0638
 6325W        W10376   7.139   5.294  11.468  0.1169 -0.0413 -0.1179
 6326W        W10377   5.330   1.301  10.855  0.1816 -0.1355  0.2675
 6327W        W10378   7.325   9.724   0.703 -0.2982 -0.1047 -0.1234
 6328W        W10379   1.672   4.954  10.239  0.0415  0.0412  0.0676
 6329W        W10380   2.355   2.775  12.457 -0.1512  0.3235 -0.1091
 6330W        W10381   5.308   3.571   4.964 -0.0759 -0.0987  0.1809
 6331W        W10382   8.685   4.672  10.651 -0.0521 -0.1476 -0.0580
 6332W        W10383   5.949   3.945   3.380  0.3558  0.5257  0.1329
 6333W        W10384   7.554   5.777   0.927  0.2316  0.0579 -0.0706
 6334W        W10385   7.268   3.780   3.721  0.0422 -0.2793  0.3318
 6335W        W10386   4.467   9.853  11.867 -0.0719 -0.2276  0.0422
 6336W        W10387   4.923   6.934   0.097 -0.3288  0.0056  0.0693
 6337W        W10388   2.578   2.898   9.775 -0.1956  0.0235  0.1002
 6338W        W10389   3.613   2.405  13.734  0.0573  0.1437 -0.1870
 6339W        W10390   0.515   8.033   3.537 -0.0277  0.4066 -0.1846
 6340W        W10391   2.894   2.029  10.011 -0.0810  0.1950  0.0597
 6341W        W10392   8.097   8.400   0.170 -0.1008 -0.0547 -0.0557
 6342W        W10393   2.742   7.737  11.567 -0.2842  0.1089  0.0882
 6343W        W10394   4.898   7.138   9.839  0.0740  0.0987 -0.0036
 6344W        W10395   8.165   1.767   0.612  0.3331  0.0855 -0.2653
 6345W        W10396   3.999   6.927   1.667 -0.1538  0.0726  0.2006
 6346W        W10397   2.069   1.167  10.961  0.1569 -0.0769 -0.0030
 6347W        W10398   8.381   5.829   8.372 -0.0151 -0.1237 -0.1915
 6348W        W10399   8.958   6.459   4.696 -0.1313 -0.1913 -0.0745
 6349W        W10400   9.557   9.407   2.528  0.0806  0.1545  0.2735
 6350W        W10401   5.172   4.566  13.789 -0.0167 -0.0145 -0.1449
 6351W        W10402   0.133   3.501   2.064  0.2331 -0.0185 -0.2707
 6352W        W10403   4.464   2.605  11.664  0.0234 -0.2745 -0.3180
 6353W        W10404   4.881   5.182   9.575  0.1212  0.1944  0.1515
 6354W        W10405   0.306   4.086   4.666  0.3191 -0.0684 -0.0831
 6355W        W10406   0.792   0.080  13.617  0.2807 -0.0772  0.2048
 6356W        W10407   4.118   3.048   9.746  0.1241  0.1431  0.3219
 6357W        W10408   1.173   9.211   9.517 -0.0377  0.0638  0.0218
 6358W        W10409   1.346   8.704  10.587 -0.0072  0.0934  0.2074
 6359W        W10410   5.381   2.198   1.812 -0.0346 -0.0859  0.1288
 6360W        W10411   6.056   4.274   2.586  0.0093 -0.2583  0.1209
 6361W        W10412   5.967   6.161   0.461  0.0979 -0.2803  0.2097
 6362W        W10413   8.315   5.775   2.833 -0.2089  0.4985 -0.3517
 6363W        W10414   8.442   1.198   9.280 -0.2329 -0.1341 -0.3183
 6364W        W10415   9.886   6.527   0.227 -0.1146 -0.2984 -0.1848
 6365W        W10416   3.338   1.304   0.840 -0.2268 -0.0213 -0.0665
 6366W        W10417  10.076   2.628   4.743  0.0810  0.0178 -0.2981
 6367W        W10418   6.659   5.428   4.978  0.4195 -0.0644 -0.3129
 6368W        W10419   7.701   1.754   2.006  0.0307 -0.2143 -0.0410
 6369W        W10420   0.147   5.598   9.298 -0.1665 -0.2378  0.2726
 6370W        W10421   1.551   9.255  10.324 -0.0190  0.2158  0.0499
 6371W        W10422  10.015   0.318   1.843  0.3621 -0.3306 -0.1224
 6372W        W10423   6.955   0.169   9.070  0.0667  0.3138 -0.1557
 6373W        W10424   4.908   5.480   0.820  0.1012  0.0045  0.0717
 6374W        W10425   0.684   6.227  11.539 -0.1553  0.1088  0.0141
 6375W        W10426   8.266   8.779  12.555  0.0542  0.0077  0.0163
 6376W        W10427   5.783   0.890   2.923 -0.3235 -0.0731  0.1784
 6377W        W10428   2.467   2.872   1.067 -0.2733 -0.2841  0.0469
 6378W        W10429   6.465   7.676   1.379 -0.2242  0.3314  0.0225
 6379W        W10430   7.226   3.532   4.706 -0.1457 -0.0240 -0.0454
 6380W        W10431   8.740  10.132  11.532 -0.0162 -0.0652 -0.1275
 6381W        W10432   8.610   4.607  10.157  0.0454  0.1207 -0.1550
 6382W        W10433   3.258   2.584  12.586  0.3139 -0.2493  0.1111
 6383W        W10434   5.710   0.260  11.485  0.1072  0.0568  0.3561
 6384W        W10435   4.230   5.686  11.104 -0.1825 -0.0642  0.0510
 6385W        W10436   7.324   2.307   4.634  0.0013 -0.0268 -0.1816
 6386W        W10437   5.272  10.140   2.550 -0.4293 -0.0793  0.1132
 6387W        W10438   9.326   0.943   8.843  0.0866 -0.0668  0.1090
 6388W        W10439   2.431   0.259   8.585 -0.1536  0.2492  0.1358
 6389W        W10440   1.739   8.626   0.249 -0.1624  0.5629 -0.1390
 6390W        W10441   6.660   5.086  11.326 -0.1629  0.1369  0.0066
 6391W        W10442   9.766   8.411  10.202  0.4617 -0.1866 -0.1143
 6392W        W10443   3.998   3.670   0.080  0.0831  0.0255  0.2299
 6393W        W10444   7.545   3.907  11.697 -0.0075 -0.0971  0.0354
 6394W        W10445  10.071   7.194   3.552 -0.0171  0.2362 -0.0834
 6395W        W10446   5.739   1.709  13.425 -0.2427 -0.2184  0.2259
 6396W        W10447   4.678  10.191   0.214  0.2164  0.1844 -0.0162
 6397W        W10448   0.837   6.456   2.404  0.1085 -0.2700 -0.2475
 6398W        W10449   6.312   4.408  11.295 -0.0968 -0.3503  0.1021
 6399W        W10450   7.529   5.253   0.932 -0.1357 -0.2388  0.1998
 6400W        W10451   7.469   5.745   3.427 -0.2469 -0.3438  0.4714
 6401W        W10452   5.347   8.840  13.118 -0.3161  0.0566 -0.1764
 6402W        W10453   7.269   2.761   3.729  0.0515  0.3259  0.0716
 6403W        W10454   9.330   8.323   9.977 -0.0816 -0.1080  0.3820
 6404W        W10455  10.027   9.636   0.204 -0.4671  0.0084 -0.0904
 6405W        W10456   0.202   4.087   9.517 -0.1763 -0.0449  0.0508
 6406W        W10457   3.566   3.302   4.290  0.3318 -0.1204  0.1656
 6407W        W10458   8.641   2.863   0.069  0.0943 -0.1453  0.1091
 6408W        W10459   5.604   3.445  13.245  0.0712 -0.1759 -0.1819
 6409W        W10460   9.831   3.687   3.433 -0.1970  0.0187  0.3004
 6410W        W10461   1.253   5.327   3.779 -0.2863 -0.1678  0.2883
 6411W        W10462   1.747   9.456   1.316 -0.0808 -0.2168  0.1511
 6412W        W10463   5.501   9.141   0.358 -0.2981 -0.4463 -0.0522
 6413W        W10464  10.011   6.577  10.642 -0.2058  0.1227 -0.0764
 6414W        W10465   8.997   6.379   2.328  0.0740 -0.2807 -0.0678
 6415W        W10466   7.666   6.684   9.801  0.6018  0.2460 -0.1091
 6416W        W10467   8.365   3.488  10.830  0.3184  0.3034  0.2641
 6417W        W10468   2.194   8.291   4.268 -0.1177  0.0547 -0.0632
 6418W        W10469   1.044   3.554   5.113 -0.2013  0.1190  0.3100
 6419W        W10470   8.788   3.374  11.024  0.2262  0.1391  0.0987
 6420W        W10471   6.478  10.162   2.476  0.0482  0.3769 -0.0793
 6421W        W10472   1.672   0.986   3.522  0.0388  0.0941 -0.0529
 6422W        W10473   9.110   9.829   0.219 -0.0032  0.1135 -0.0139
 6423W        W10474   5.229   3.740   2.925 -0.1828  0.0360  0.1532
 6424W        W10475   9.508   1.927   3.045 -0.0533 -0.0348 -0.1072
 6425W        W10476   5.791   5.092   0.528 -0.1358  0.1431  0.0132
 6426W        W10477   4.980   2.960   1.570  0.3078  0.3978 -0.0266
 6427W        W10478   7.683   7.050   3.453  0.3168  0.2907  0.1927
 6428W        W10479   7.979   4.484   4.679  0.1725  0.1592  0.0643
 6429W        W10480   9.091   0.680  13.515 -0.1596  0.2760  0.0224
 6430W        W10481   3.772   9.900   2.362 -0.2643  0.2053  0.3335
 6431W        W10482   5.943   4.874   9.979 -0.0119 -0.0762  0.0842
 6432W        W10483   8.938   7.969  10.081  0.2092 -0.0312 -0.4321
 6433W        W10484   7.585   6.603  11.788  0.0037  0.0856  0.1638
 6434W        W10485   1.652   0.347  13.858 -0.1101  0.0498 -0.1395
 6435W        W10486   4.063   8.602   9.974 -0.0753  0.0919 -0.2063
 6436W        W10487  10.117   1.813  13.534 -0.4757 -0.0588 -0.0694
 6437W        W10488   8.558   0.512  13.564  0.0427 -0.1105 -0.1897
 6438W        W10489   0.367   0.768  10.637  0.3406 -0.3251  0.3561
 6439W        W10490   1.136  10.168  12.158  0.2003  0.0824  0.0434
 6440W        W10491   2.918   0.457   8.576 -0.2134 -0.0888  0.0429
 6441W        W10492   3.135   5.666   1.638  0.2366  0.1542  0.1507
 6442W        W10493   7.874   0.616  13.028  0.0279  0.3323  0.1152
 6443W        W10494   8.768   9.425   0.148  0.0084 -0.4148 -0.2448
 6444W        W10495   2.734   8.061  12.351 -0.1908 -0.0993  0.0828
 6445W        W10496   6.075   4.220   9.424 -0.3467  0.1352  0.1824
 6446W        W10497   7.490   5.966  12.543 -0.0161  0.0085  0.0265
 6447W        W10498   2.480   7.161  12.712  0.1335 -0.1015 -0.2038
 6448W        W10499   5.374   1.768   3.305  0.1400  0.2566 -0.3738
 6449W        W10500   2.508   6.904   3.756  0.1521 -0.3480 -0.3554
 6450W        W10501   8.645   2.261  10.393  0.5139  0.0596  0.0342
 6451W        W10502   2.255   5.125   2.314 -0.4415 -0.1877 -0.2359
 6452W        W10503   0.260   5.432  12.988  0.1417 -0.1067 -0.1145
 6453W        W10504   1.328   0.691  10.163  0.2978  0.0180 -0.1102
 6454W        W10505   8.124   4.540   0.661  0.0059 -0.1207  0.2050
 6455W        W10506   6.625   8.647   3.533  0.1793  0.0780 -0.2236
 6456W        W10507   7.364   8.786  10.392 -0.0054 -0.1132  0.1867
 6457W        W10508   2.376   3.729   4.801 -0.1880  0.2410  0.0134
 6458W        W10509   3.854   0.440   2.598 -0.0892 -0.0118  0.1089
 6459W        W10510   8.868   2.643   2.704 -0.1080 -0.2692 -0.1415
 6460W        W10511   3.308   9.790  10.450  0.2504 -0.0568 -0.1484
 6461W        W10512   7.530   6.953   0.512 -0.4533  0.1704 -0.0168
 6462W        W10513   3.149   9.249  12.033  0.0808  0.0719  0.2645
 6463W        W10514   6.301   5.666  13.065 -0.0202 -0.2291  0.1896
 6464W        W10515   0.696   6.478  13.686  0.1317 -0.3533  0.1562
 6465W        W10516   8.598   2.358  13.032 -0.3276 -0.0380  0.0476
 6466W        W10517   4.176   1.631   0.855 -0.0204 -0.1841  0.1146
 6467W        W10518   9.979   5.943   9.821  0.0934 -0.3107  0.2127
 6468W        W10519   4.160   8.995   0.609  0.1013 -0.3131  0.2285
 6469W        W10520   4.173   2.107   0.446  0.1931  0.1255  0.1095
 6470W        W10521   6.164   2.457  11.637 -0.0958 -0.2947 -0.4263
 6471W        W10522   7.447   4.046   9.409 -0.2359 -0.2481 -0.0424
 6472W        W10523   3.343   9.194  13.640  0.0840  0.0868  0.0919
 6473W        W10524   4.071   4.795   0.658 -0.2680 -0.2913  0.2621
 6474W        W10525   1.056   8.151   9.295  0.3723  0.0325  0.0517
 6475W        W10526   5.993   2.784  12.935  0.0740 -0.0372  0.1845
 6476W        W10527   3.451  10.175  10.176 -0.1453 -0.2374 -0.2291
 6477W        W10528   7.284   5.119  12.343 -0.2522 -0.5048 -0.0313
 6478W        W10529   1.333   9.837   1.782  0.2096  0.2071 -0.0848
 6479W        W10530   9.155   4.747  11.735  0.2974  0.0291 -0.0878
 6480W        W10531   8.510   0.775   1.587 -0.2333  0.0586 -0.2494
 6481W        W10532   2.037   1.824   0.623  0.2477  0.0499  0.2164
 6482W        W10533   2.776   1.761  13.484  0.3676 -0.1483 -0.2192
 6483W        W10534   9.577   5.609  12.550 -0.0813 -0.3431  0.0872
 6484W        W10535   2.578   6.385   9.187  0.1381 -0.1190  0.2082
 6485W        W10536   6.797   8.951   0.395  0.2265 -0.1027 -0.1162
 6486W        W10537   0.526   1.120   1.810  0.0203 -0.1121  0.1648
 6487W        W10538   6.659   9.161   2.040  0.1732  0.0063  0.0349
 6488W        W10539   8.661   5.856  13.779  0.0090  0.0045 -0.0469
 6489W        W10540   6.149   1.400   3.644 -0.0174 -0.2787  0.0157
 6490W        W10541   9.124   9.901   4.514  0.1510 -0.0860  0.0624
 6491W        W10542   9.972   3.660  11.658  0.1457 -0.0410 -0.2007
 6492W        W10543   0.145   8.584   5.774 -0.1491 -0.0156 -0.1001
 6493W        W10544   5.181   8.039  12.988  0.1712  0.0079  0.0661
 6494W        W10545   9.941   6.615   1.337  0.1926  0.0366  0.1090
 6495W        W10546   9.195   0.913  13.095 -0.0935 -0.0040  0.1751
 6496W        W10547   5.764   3.629  12.812  0.0431 -0.0829  0.2192
 6497W        W10548   5.711   4.043   2.907 -0.0314  0.1623 -0.1915
 6498W        W10549   3.529   2.773   1.909  0.0707 -0.3386  0.0161
 6499W        W10550   8.797   3.996   9.831  0.0183  0.0893  0.0465
 6500W        W10551   1.788   5.968   3.310  0.1532 -0.0011  0.0583
 6501W        W10552   7.697   0.706   8.552  0.3046 -0.0970  0.1783
 6502W        W10553   9.768   6.165   1.273 -0.0663 -0.3193  0.0550
 6503W        W10554   4.012   5.410   3.531 -0.2409  0.0392 -0.0270
 6504W        W10555   7.694   1.900   4.695  0.0909  0.1195 -0.0642
 6505W        W10556   6.204   1.788   2.877  0.0023 -0.1205 -0.2901
 6506W        W10557   8.824   5.618  13.325 -0.5994  0.4123  0.3464
 6507W        W10558   8.341   6.205   0.921 -0.0744 -0.1312  0.0223
 6508W        W10559   5.307   5.376   4.430 -0.0593 -0.0556 -0.0015
 6509W        W10560   6.341   4.875  10.999  0.0799  0.2189 -0.1864
 6510W        W10561   9.725   3.778   8.978 -0.3259 -0.1997 -0.0065
 6511W        W10562   4.710   3.849  10.450  0.0876  0.2367 -0.0464
 6512W        W10563   9.190   4.645  10.318 -0.0025  0.0103 -0.4034
 6513W        W10564   5.306   7.862  10.162 -0.2092 -0.2249 -0.2586
 6514W        W10565   7.178   9.603  13.593  0.2254 -0.0609  0.2750
 6515W        W10566   3.764   2.312   1.833  0.0082  0.0940  0.1302
 6516W        W10567   9.723   8.038   8.956 -0.3768 -0.0975  0.2533
 6517W        W10568   2.378   8.623  10.398 -0.0233  0.3067  0.1583
 6518W        W10569   9.379   7.877  11.019  0.2178 -0.1496 -0.0898
 6519W        W10570   7.044   0.294   1.136  0.0490 -0.3223  0.2406
 6520W        W10571   4.738   6.105   0.974 -0.2017 -0.4290 -0.1581
 6521W        W10572   4.658   1.103   1.592  0.0521  0.3831  0.1490
 6522W        W10573   1.583   2.909   4.061  0.0555 -0.1309  0.3285
 6523W        W10574   7.178   9.924   9.955 -0.2568  0.3368  0.0467
 6524W        W10575   3.923   4.807   9.816  0.1411 -0.1206  0.1310
 6525W        W10576   4.974   6.911   3.307  0.2462 -0.2160 -0.3033
 6526W        W10577   5.105   5.303  11.571  0.0879  0.1754 -0.3868
 6527W        W10578   4.333   5.790   0.161  0.1212  0.0787  0.3144
 6528W        W10579   7.841   6.857   2.090 -0.2346 -0.0795 -0.2290
 6529W        W10580   3.939   9.438   0.569 -0.2058  0.0242 -0.0179
 6530W        W10581   7.471   0.283  12.846  0.1564 -0.1884  0.2449
 6531W        W10582   3.741   1.378  12.810 -0.3884  0.2386  0.2122
 6532W        W10583   7.457   0.200  11.371  0.0009  0.2611 -0.2825
 6533W        W10584   4.331   4.887   1.896 -0.0232  0.3338 -0.1141
 6534W        W10585   1.742  10.077  13.811 -0.2960 -0.0647 -0.1094
 6535W        W10586  10.197   5.083   9.400  0.1885  0.0690 -0.0705
 6536W        W10587   5.720   1.763  10.165 -0.0892  0.1891  0.3729
 6537W        W10588   9.360   0.140  11.970  0.3815  0.1897 -0.1240
 6538W        W10589   0.555   3.533   1.681 -0.0175 -0.0797  0.2524
 6539W        W10590   8.034   7.083  13.560 -0.1465  0.0999 -0.0232
 6540W        W10591   9.759   5.387   2.836 -0.0108 -0.2544 -0.3707
 6541W        W10592   1.869   8.484   2.252 -0.1597 -0.2885  0.0641
 6542W        W10593   1.746   7.594  10.441  0.1822 -0.1236 -0.0484
 6543W        W10594   5.872   9.631  13.537  0.1975  0.0477 -0.1906
 6544W        W10595   9.287   7.243   0.966  0.2363 -0.4046 -0.0722
 6545W        W10596   4.342   3.077  13.283 -0.1813  0.2859 -0.1768
 6546W        W10597   6.689   1.675   4.396  0.4170  0.1558  0.2663
 6547W        W10598   0.016   0.267   3.565 -0.2265 -0.1573 -0.0714
 6548W        W10599   3.676  10.193   0.384  0.0160  0.2257  0.1936
 6549W        W10600   0.509   8.972   0.951  0.3690  0.0520  0.0043
 6550W        W10601   5.799   8.437  11.851 -0.0045  0.0784 -0.1824
 6551W        W10602   1.006   7.061   1.544  0.0554  0.4103  0.1420
 6552W        W10603   3.818   3.465   3.414  0.2059 -0.0112 -0.0017
 6553W        W10604   4.183   1.598  11.960  0.1985  0.4430 -0.3796
 6554W        W10605   4.638  10.085   3.834 -0.1498 -0.3556 -0.2279
 6555W        W10606   7.092   9.039   1.322 -0.1069 -0.0992 -0.2396
 6556W        W10607   4.584   1.863   4.750 -0.3411 -0.2099  0.2736
 6557W        W10608   3.173   0.736   9.004 -0.0307 -0.2065  0.0236
 6558W        W10609   1.325   0.681   1.048 -0.1516 -0.1308  0.1167
 6559W        W10610   6.879   1.248   2.310 -0.0365  0.1147 -0.3849
 6560W        W10611   3.267   7.279   0.697  0.0444  0.1287 -0.2428
 6561W        W10612   3.496   1.351  11.747  0.1608 -0.0029 -0.3379
 6562W        W10613   8.870   9.333  10.820  0.0323 -0.0260  0.1815
 6563W        W10614   9.003   6.646   0.336 -0.0591 -0.0946  0.1196
 6564W        W10615   6.276   0.491  12.894 -0.0536  0.1869  0.0168
 6565W        W10616   8.372   2.153   8.907  0.1739  0.0489 -0.2833
 6566W        W10617   8.463   2.608   0.460 -0.1201  0.3552 -0.0189
 6567W        W10618   1.273   2.219   9.418 -0.0824  0.1166 -0.1891
 6568W        W10619   7.913  10.130   0.146 -0.0161  0.4085 -0.0872
 6569W        W10620   0.447   0.998   4.208  0.0637  0.2683  0.3860
 6570W        W10621   8.250   4.314   9.902 -0.0492  0.3058 -0.1347
 6571W        W10622   0.519   8.838   2.054 -0.0513 -0.1027 -0.2363
 6572W        W10623   1.113   6.544   8.902  0.2331 -0.1519  0.1877
 6573W        W10624   6.713   2.817   0.881 -0.0375  0.0650  0.0559
 6574W        W10625   0.662   3.777   1.267  0.1666  0.0124 -0.1202
 6575W        W10626   8.598   4.057   2.717  0.0406  0.0004 -0.0622
 6576W        W10627   4.632   4.629  11.826 -0.0703  0.1414  0.0947
 6577W        W10628  10.208   7.135   0.561 -0.0617  0.1482 -0.0061
 6578W        W10629   2.064   0.396  10.325  0.0201 -0.0757  0.2501
 6579W        W10630   6.771   3.705   4.442 -0.0411  0.0133  0.2804
 6580W        W10631  10.149   3.787   9.865  0.1504  0.0947  0.0549
 6581W        W10632   7.821   4.525   0.301 -0.0891 -0.1700  0.2773
 6582W        W10633   0.393   6.352   9.515  0.2917 -0.0413  0.0874
 6583W        W10634   1.234   5.662   4.652  0.0227 -0.2340 -0.0639
 6584W        W10635   9.893   9.505   9.775 -0.1687 -0.3286 -0.1179
 6585W        W10636   6.536   6.711   3.914  0.2349  0.1996  0.1097
 6586W        W10637   8.746   5.917  10.780 -0.1692 -0.2158  0.3388
 6587W        W10638   0.730   4.212  10.025  0.0001 -0.1487 -0.1701
 6588W        W10639   1.284   1.264   9.542  0.0732 -0.1442  0.0847
 6589W        W10640   7.136   9.225  10.296  0.0293 -0.2710 -0.0203
 6590W        W10641   7.014   6.939   0.597 -0.1337  0.4055 -0.1297
 6591W        W10642  10.052   9.852   3.480  0.4099  0.3074  0.0526
 6592W        W10643   1.320   0.082  13.556 -0.0497  0.2070 -0.0913
 6593W        W10644   0.523   7.398  13.687  0.0889  0.2643 -0.3144
 6594W        W10645   0.555   5.062   4.356  0.0808  0.0765 -0.1028
 6595W        W10646   4.299   5.382   0.689  0.0380  0.0212  0.0586
 6596W        W10647   1.992   9.237  13.360 -0.1308  0.1735 -0.1509
 6597W        W10648   7.615   2.698   1.226 -0.2741  0.2987 -0.2615
 6598W        W10649   6.884   1.948  10.074  0.0885  0.1657 -0.0190
 6599W        W10650   5.197   5.524   3.643  0.2281  0.1053 -0.5326
 6600W        W10651   4.773   4.799   3.560 -0.1311  0.1205  0.0554
 6601W        W10652   2.786   3.913  11.320 -0.0850 -0.2583  0.1212
 6602W        W10653   1.103   2.590   1.470 -0.1934  0.2941 -0.0881
 6603W        W10654   3.992   3.090  12.916 -0.0919  0.1659  0.2146
 6604W        W10655   3.969   6.334   2.509  0.3454 -0.0204  0.0132
 6605W        W10656   4.945   9.710   1.769 -0.0246 -0.4465 -0.0248
 6606W        W10657   7.675   2.696   4.013 -0.0265  0.1761 -0.0877
 6607W        W10658   5.597   3.180  11.151  0.0198  0.0064 -0.0607
 6608W        W10659   4.759   3.530  11.346  0.0174 -0.2048  0.0878
 6609W        W10660   8.544   9.750   1.846  0.1952  0.0448 -0.0587
 6610W        W10661   1.118   2.754   8.615  0.3876 -0.3067 -0.1004
 6611W        W10662   9.137   5.044   9.367 -0.1462 -0.1793 -0.0866
 6612W        W10663   1.850   4.723   0.246  0.1280  0.3047  0.4889
 6613W        W10664   2.643   6.031  10.407 -0.4779 -0.1746  0.3537
 6614W        W10665   8.485   3.620   4.257 -0.0712 -0.0918 -0.0438
 6615W        W10666   7.791   4.110   2.295 -0.1875  0.1072  0.3308
 6616W        W10667   5.570   6.758   1.846  0.0860 -0.0638 -0.0289
 6617W        W10668   9.679   5.971   0.821  0.2583  0.0358 -0.1342
 6618W        W10669   6.968   0.165  11.792 -0.0180  0.2796  0.1251
 6619W        W10670   9.951   3.044   4.353 -0.3407  0.0065  0.1819
 6620W        W10671   2.969   3.583   0.894 -0.0746  0.0180 -0.0425
 6621W        W10672   4.277   7.431  12.890 -0.0927 -0.2801 -0.2147
 6622W        W10673   7.572   1.829   8.887  0.0711  0.0407  0.1694
 6623W        W10674   0.734   3.826  11.876  0.2119  0.0856  0.1322
 6624W        W10675   9.095   6.995   9.929 -0.1840  0.2443 -0.1807
 6625W        W10676   0.155   2.060  13.228 -0.4703 -0.1754  0.1308
 6626W        W10677   8.845   2.742   4.782 -0.0677 -0.2234 -0.1142
 6627W        W10678   9.608   8.721  12.686  0.2903  0.2148 -0.0610
 6628W        W10679   2.072   2.308   1.483  0.1426  0.2432  0.1314
 6629W        W10680   0.687   3.256   1.191 -0.0233  0.1517  0.1339
 6630W        W10681   4.492   1.502   4.306 -0.0599  0.2395  0.4111
 6631W        W10682   8.574   1.980   8.535 -0.1360  0.3113 -0.2825
 6632W        W10683   4.934   7.654   1.965 -0.0641 -0.0366  0.1489
 6633W        W10684   1.627   1.914   4.511  0.1748  0.0429  0.2068
 6634W        W10685   9.623   2.020   1.481 -0.0946 -0.0949 -0.0890
 6635W        W10686   2.087   9.830   1.959 -0.0429  0.3068 -0.3641
 6636W        W10687   0.673   9.476   9.878 -0.2857  0.0175 -0.0260
 6637W        W10688   3.817   4.145   2.241  0.0344  0.2346 -0.2383
 6638W        W10689   7.241   1.182   1.461 -0.1944  0.3098  0.1253
 6639W        W10690   0.909   0.209   3.867 -0.0463  0.1343 -0.0625
 6640W        W10691   3.151   7.890   1.792 -0.0217  0.1347  0.0412
 6641W        W10692   3.736   9.083  10.961 -0.0875 -0.0728  0.1523
 6642W        W10693   7.249   6.582  12.202 -0.0160 -0.0942 -0.1334
 6643W        W10694   4.586   7.074   2.563  0.0247 -0.1740 -0.0190
 6644W        W10695   2.980   5.918   2.589 -0.2004 -0.0110  0.1984
 6645W        W10696   4.164   7.271   0.796 -0.2207 -0.1120 -0.1790
 6646W        W10697   8.929   1.421   5.262 -0.1398  0.1028 -0.1505
 6647W        W10698   5.436   2.945  11.602 -0.0432 -0.3718  0.0958
 6648W        W10699   4.020   7.387  10.124  0.1969  0.0491 -0.0663
 6649W        W10700   6.724   8.835  11.820  0.0218 -0.1913 -0.3798
 6650W        W10701   3.105   4.422   9.621  0.0925 -0.2935 -0.2817
 6651W        W10702   6.267   1.702   1.630 -0.0021 -0.3972  0.0793
 6652W        W10703   6.608   3.144   0.084 -0.2233  0.0497  0.2293
 6653W        W10704   3.801   8.570   3.409 -0.0193  0.1512 -0.0348
 6654W        W10705   7.176   1.002   0.507  0.0264  0.1990  0.0639
 6655W        W10706   1.396   4.489   0.337  0.1317  0.0334 -0.0382
 6656W        W10707   5.612   5.220   3.421 -0.3499 -0.0331 -0.1018
 6657W        W10708   8.458   8.677  11.588  0.2025  0.0312  0.0978
 6658W        W10709  10.011   9.389   0.677 -0.1732 -0.2430 -0.1275
 6659W        W10710   5.625   0.492   1.422  0.0470  0.1056 -0.1829
 6660W        W10711   1.486   4.595  11.035 -0.4710 -0.0902 -0.0778
 6661W        W10712   0.773   5.880   4.525  0.2323  0.1990 -0.2341
 6662W        W10713   2.443   4.366   1.493 -0.1147  0.1427 -0.0017
 6663W        W10714   5.964   3.288  10.511 -0.0109  0.1210  0.0107
 6664W        W10715   0.720   7.145  12.940 -0.1127 -0.2142 -0.1157
 6665W        W10716   0.294   2.062   3.146  0.3193  0.0777 -0.0838
 6666W        W10717   5.783   1.844   1.857 -0.2377  0.1667  0.1710
 6667W        W10718   1.176   9.166  10.681  0.2926 -0.0455  0.1895
 6668W        W10719   5.798   2.937  13.387 -0.1994  0.0624  0.2960
 6669W        W10720   1.551   4.741   9.802  0.0113  0.0272  0.2080
 6670W        W10721   0.320   9.650   9.147  0.1586  0.2150 -0.0034
 6671W        W10722  10.005   8.828   0.204  0.0286 -0.0353 -0.0384
 6672W        W10723   1.663   6.667  13.341 -0.0886  0.0974 -0.1955
 6673W        W10724   2.224   5.112   3.370 -0.3474  0.0362  0.2341
 6674W        W10725   0.066   5.858   2.335  0.4216  0.0559 -0.1614
 6675W        W10726   6.751   6.883  10.059 -0.1600  0.1466  0.2353
 6676W        W10727   0.031   1.067  10.985 -0.0842  0.0722 -0.0301
 6677W        W10728   2.923   5.756   3.049 -0.1615 -0.0562 -0.3028
 6678W        W10729   8.148   0.381  13.865  0.1014  0.0418 -0.2371
 6679W        W10730   1.136   3.112   4.146  0.2519 -0.1203  0.0809
 6680W        W10731  10.111   3.403  10.879  0.0475 -0.4599 -0.2067
 6681W        W10732   7.832   8.025   0.387 -0.2495 -0.3558 -0.1214
 6682W        W10733   3.206   5.037   2.360 -0.1612  0.2749  0.1025
 6683W        W10734   7.598   9.232  10.402  0.0066 -0.3480  0.0852
 6684W        W10735   5.331   6.756  12.721 -0.1070 -0.0399  0.0393
 6685W        W10736   7.920   2.956  12.614  0.3151 -0.3117  0.0569
 6686W        W10737   1.583   2.962  10.940  0.0954  0.4383  0.1106
 6687W        W10738   6.392   4.990  13.177 -0.1194 -0.0687 -0.0195
 6688W        W10739  10.019   1.713   1.556 -0.1176 -0.0151  0.0137
 6689W        W10740   5.311   9.420   1.715 -0.1559  0.0692  0.1240
 6690W        W10741   4.537   9.568   2.157 -0.3099 -0.1125  0.2211
 6691W        W10742   9.289   0.379   5.430  0.2538  0.0750  0.1193
 6692W        W10743   0.302   9.820  12.926 -0.2607 -0.1557 -0.0365
 6693W        W10744   1.816   9.858   9.588 -0.3371  0.0251 -0.4053
 6694W        W10745   7.145   2.849   1.190 -0.2305  0.1438  0.1435
 6695W        W10746   7.051   1.503   0.525 -0.0412  0.1226  0.2687
 6696W        W10747   4.808   7.207  10.389 -0.1050  0.1102  0.1944
 6697W        W10748   9.084   1.323   5.788 -0.4175 -0.1035  0.1047
 6698W        W10749   1.363   8.657   1.063 -0.0154  0.0051  0.2721
 6699W        W10750   4.544   8.722  13.399  0.0137  0.0669  0.1514
 6700W        W10751   7.357   4.419  11.859 -0.1030 -0.1510  0.1007
 6701W        W10752   7.407   1.277   2.799 -0.1264 -0.4501 -0.0271
 6702W        W10753   6.074   4.457  13.747  0.0788 -0.0730  0.0875
 6703W        W10754   1.318   3.216  12.186  0.0957  0.0067 -0.1460
 6704W        W10755   2.931   1.267  12.446 -0.2359 -0.1047 -0.0785
 6705W        W10756   1.229   5.073   3.151  0.3025  0.2860  0.0836
 6706W        W10757   6.491   8.500  13.122  0.0800 -0.1792  0.0978
 6707W        W10758   8.013   9.982  12.480  0.4158  0.0778  0.1881
 6708W        W10759   7.707   7.673  10.849  0.1425  0.2033  0.0739
 6709W        W10760   5.975   4.757   0.781 -0.1541 -0.5163 -0.2501
 6710W        W10761   8.277   4.862  12.792  0.0357 -0.2154 -0.1164
 6711W        W10762   6.293   9.127  12.375  0.1752  0.1267 -0.2749
 6712W        W10763   1.539   2.149  10.401  0.1745  0.3118 -0.0549
 6713W        W10764   1.074   7.069  10.887  0.1870 -0.0319 -0.0002
 6714W        W10765   7.230   6.049   0.084 -0.1742 -0.2488  0.1318
 6715W        W10766   2.748   4.754   1.614  0.0768  0.1062 -0.2188
 6716W        W10767   2.980   1.143   1.372  0.0264 -0.0346 -0.0256
 6717W        W10768   5.917   4.055   4.028  0.1889 -0.1007 -0.1019
 6718W        W10769   2.245   7.209   5.219 -0.1692  0.1931 -0.1841
 6719W        W10770   5.441   0.157   1.804  0.3388  0.1804  0.0355
 6720W        W10771   5.546   3.238   0.948 -0.0170  0.3822  0.2477
 6721W        W10772   9.959   0.831   0.786  0.1773 -0.1896  0.1844
 6722W        W10773   5.597   2.655   3.080 -0.2064  0.0206 -0.1801
 6723W        W10774   8.878   7.163   3.963  0.0335 -0.1621  0.0254
 6724W        W10775   1.731   9.132  10.790  0.0281 -0.0553  0.2854
 6725W        W10776   2.041   8.307  12.792 -0.0300  0.1230  0.1567
 6726W        W10777   1.830   1.820  11.589 -0.1068 -0.2921 -0.1454
 6727W        W10778   4.956   4.727  10.418  0.1132 -0.0220 -0.1871
 6728W        W10779   9.520   2.131  13.350  0.0996 -0.1382 -0.1722
 6729W        W10780   6.228   5.017  10.548  0.0467  0.1350 -0.2484
 6730W        W10781   7.119   3.416   2.479 -0.0123  0.1408 -0.0986
 6731W        W10782   0.159   6.111  10.657 -0.0859 -0.0262  0.0470
 6732W        W10783   5.265   3.451   0.211 -0.1182  0.0550  0.1515
 6733W        W10784   8.462   0.358   3.978 -0.0204 -0.0816  0.0552
 6734W        W10785   2.350   4.858   1.300 -0.0357  0.1210 -0.1293
 6735W        W10786   0.299   2.204   9.480 -0.1000 -0.2386  0.1160
 6736W        W10787   5.852   5.701   0.554  0.0313  0.1597  0.2116
 6737W        W10788   3.811   9.834   0.080  0.3139 -0.0242 -0.0841
 6738W        W10789   2.866   3.003   0.038  0.1787  0.1694  0.1024
 6739W        W10790   0.806   9.635   9.397  0.1383 -0.1756  0.2600
 6740W        W10791   2.261   1.766   4.720 -0.0587  0.0548 -0.0631
 6741W        W10792   5.633   5.463   9.929  0.2625 -0.0801 -0.3436
 6742W        W10793   1.943   4.838  12.316  0.1291  0.3673 -0.0674
 6743W        W10794   5.640   7.249   2.159  0.3062  0.2926 -0.0021
 6744W        W10795   8.631   2.587  12.070  0.2101  0.5550  0.0504
 6745W        W10796   1.767   8.272  13.300  0.3182 -0.1480  0.2871
 6746W        W10797   3.434   1.379  13.201 -0.2036 -0.0793  0.0316
 6747W        W10798   8.670   0.869  11.855  0.0593 -0.0189  0.0464
 6748W        W10799   2.824   7.827   3.630 -0.1938  0.2547  0.1426
 6749W        W10800  10.167   9.875  10.576  0.2562  0.4819 -0.1970
 6750W        W10801   5.679   3.303  13.726 -0.1259  0.2095 -0.2217
 6751W        W10802   6.967   4.767  11.542  0.0848 -0.1501 -0.0923
 6752W        W10803   0.865   7.503   0.170 -0.3831 -0.2497 -0.1327
 6753W        W10804   0.890   8.307  11.146  0.0566 -0.0277  0.1297
 6754W        W10805   8.039   0.993  11.715 -0.2079  0.2594  0.1993
 6755W        W10806   9.655   3.704   8.143 -0.4175  0.0266  0.0182
 6756W        W10807   0.774   4.246  11.609 -0.0452 -0.2139 -0.0783
 6757W        W10808   4.539   0.200   1.490  0.2399 -0.1978  0.1056
 6758W        W10809   6.856   0.243   1.627 -0.2006 -0.0718 -0.0062
 6759W        W10810   9.837   0.359   3.294 -0.0111  0.1795 -0.1498
 6760W        W10811   0.291   6.379   9.054  0.2955  0.0060  0.3163
 6761W        W10812   6.224   3.406   9.633  0.1593 -0.0427 -0.1510
 6762W        W10813   4.452   0.968   2.111 -0.2377 -0.1299  0.3354
 6763W        W10814   5.331   8.922   2.286 -0.0024  0.1500 -0.0859
 6764W        W10815   9.228   9.254  13.611  0.1158  0.0063  0.2484
 6765W        W10816   8.965   1.658   2.351  0.1223 -0.2720 -0.1536
 6766W        W10817   3.641   0.501   1.873 -0.1353  0.1997 -0.4425
 6767W        W10818   3.312   6.564   1.996  0.1548  0.0435 -0.2902
 6768W        W10819   3.181   8.845  10.047 -0.1278 -0.3175  0.0179
 6769W        W10820   6.813   6.668   0.202  0.1919 -0.0419  0.0532
 6770W        W10821   7.779   5.472   0.452  0.2235 -0.2895 -0.0212
 6771W        W10822   9.337   3.465  12.691 -0.3823  0.0181  0.3031
 6772W        W10823   6.842   7.625  13.608 -0.1727 -0.1993 -0.0885
 6773W        W10824   3.571   9.173   4.016  0.0367  0.2791  0.0403
 6774W        W10825   7.507   9.211   0.383  0.3872  0.2827  0.2025
 6775W        W10826   3.746   8.043  13.440  0.2369  0.3311  0.0714
 6776W        W10827   5.686   7.629  11.825  0.2683  0.0202  0.0367
 6777W        W10828   4.236   3.179   1.372 -0.3863  0.0097  0.1122
 6778W        W10829   1.928   6.021   0.519  0.0725 -0.2587 -0.0924
 6779W        W10830   6.704   0.743   2.297  0.1696 -0.0017 -0.1296
 6780W        W10831   5.858   3.629   5.229 -0.0303  0.0992  0.1034
 6781W        W10832   4.924   7.698   9.639  0.0663  0.3880 -0.1104
 6782W        W10833   2.915   9.748  10.765 -0.0811  0.1035  0.2316
 6783W        W10834   3.312   0.366   3.364 -0.1916  0.0271 -0.1679
 6784W        W10835   4.469   5.696  12.367 -0.0523  0.0524  0.1379
 6785W        W10836   9.023   9.279  11.258  0.1107  0.1817 -0.2541
 6786W        W10837   2.825   6.376  11.046 -0.0702 -0.1351  0.0644
 6787W        W10838   9.523   8.954  11.884 -0.2119  0.3564 -0.1792
 6788W        W10839   4.575   5.104   1.089 -0.3256 -0.0392  0.1067
 6789W        W10840   2.168   9.270   1.953 -0.2157 -0.1034 -0.2897
 6790W        W10841   2.120   9.684   4.094  0.3503  0.1610 -0.0029
 6791W        W10842   2.619   6.012   2.214  0.0428  0.1996  0.3109
 6792W        W10843   7.918   9.101  12.962  0.2392  0.3747  0.2572
 6793W        W10844   4.388   1.488   2.424 -0.0603 -0.0872  0.0582
 6794W        W10845   3.248   3.885   0.470 -0.3587 -0.1195 -0.2695
 6795W        W10846   6.221   1.219  13.840  0.0676  0.2718  0.0265
 6796W        W10847   2.689   9.232  11.213 -0.0395  0.0847  0.0177
 6797W        W10848   8.041   8.346   3.061  0.2215 -0.0027 -0.2720
 6798W        W10849   2.165   5.842  11.767  0.0772  0.1063  0.0299
 6799W        W10850   5.345   8.637   1.314 -0.0242  0.1478  0.2274
 6800W        W10851   6.198   8.911  11.911  0.0139  0.0113  0.1222
 6801W        W10852  10.199   4.867   3.408  0.4283 -0.2103 -0.1198
 6802W        W10853   8.186   5.293   3.948  0.0151  0.2018 -0.0020
 6803W        W10854   5.731   5.678   1.162 -0.1828  0.2723  0.2566
 6804W        W10855   4.670   1.033   2.534  0.1173  0.3514  0.0607
 6805W        W10856   0.176   6.025  11.407 -0.2013  0.0634  0.1773
 6806W        W10857   7.371   0.780  12.875  0.0032 -0.0827 -0.2410
 6807W        W10858   6.186   7.886  11.128  0.3196  0.1670  0.0468
 6808W        W10859   7.804   6.706  12.294  0.0004  0.2128 -0.0093
 6809W        W10860   9.202   3.170  11.569  0.1036 -0.2612  0.0334
 6810W        W10861   7.202   1.757   3.797  0.0322  0.1328 -0.0056
 6811W        W10862   0.885   2.886  11.694  0.0065 -0.0520 -0.1318
 6812W        W10863   0.253   4.644  11.049  0.0147 -0.0699 -0.0087
 6813W        W10864   5.801   1.378   9.826 -0.0174 -0.0783  0.3733
 6814W        W10865   3.777   0.821  12.459 -0.0700 -0.1090 -0.1951
 6815W        W10866   8.123   4.881   5.509 -0.1638  0.1242  0.0394
 6816W        W10867   6.509  10.194   1.270 -0.2037 -0.0274  0.0224
 6817W        W10868   8.794   0.548   1.956  0.1360  0.2302  0.1129
 6818W        W10869   0.032   2.758   0.475  0.3706 -0.0533 -0.0493
 6819W        W10870   6.535   7.424  11.305 -0.1768  0.0819  0.0159
 6820W        W10871   0.629  10.169   2.413 -0.0675 -0.0546  0.0117
 6821W        W10872   2.648   2.375   0.405  0.0410  0.3122  0.0604
 6822W        W10873   9.303   3.071  11.018 -0.0046 -0.0182 -0.0676
 6823W        W10874   2.766   8.912   9.500  0.1086 -0.0488 -0.1851
 6824W        W10875   2.040   9.678   3.586 -0.0291 -0.4362 -0.0806
 6825W        W10876   7.522   7.937   9.962 -0.0673 -0.0731  0.1764
 6826W        W10877   9.816   3.031   0.461 -0.0620 -0.0261  0.2845
 6827W        W10878   1.165   5.733   0.079  0.4959  0.0237  0.0549
 6828W        W10879   4.215   4.405  11.705  0.1797 -0.0322  0.1672
 6829W        W10880   4.401   1.899   9.538 -0.1248  0.0958  0.1605
 6830W        W10881   4.103   2.331  12.400 -0.5390 -0.0208  0.3353
 6831W        W10882   1.411   2.468  10.877  0.2385  0.0928  0.2069
 6832W        W10883   2.008   9.285   0.372  0.1677  0.0652  0.1699
 6833W        W10884   4.013   0.763   2.916 -0.3026 -0.1986 -0.0201
 6834W        W10885   0.950   7.612   4.427  0.1346 -0.0751  0.1757
 6835W        W10886   1.460   8.932  12.655  0.3079  0.2138  0.0512
 6836W        W10887   6.165   6.885   1.052 -0.0320  0.1891 -0.1844
 6837W        W10888   6.300   5.787   0.269 -0.0705 -0.1684 -0.2840
 6838W        W10889   5.322   0.157  10.132  0.1385  0.3174 -0.2339
 6839W        W10890   5.555   5.612  11.544  0.3965  0.0029 -0.0678
 6840W        W10891   8.218   2.029  10.417  0.0824  0.2745 -0.2093
 6841W        W10892  10.066   0.086   4.167  0.1347 -0.3236 -0.0561
 6842W        W10893   6.012   2.202   5.000  0.0018  0.0732 -0.0464
 6843W        W10894   6.883   8.705  10.910 -0.2398  0.0317  0.0608
 6844W        W10895   2.479   6.526  13.659 -0.0352 -0.1746  0.0491
 6845W        W10896   6.973   2.450  13.207  0.1118 -0.1016  0.2313
 6846W        W10897   8.662   2.087  10.864 -0.0882 -0.0172 -0.3790
 6847W        W10898   0.903   7.813  10.368 -0.3228 -0.1970 -0.0956
 6848W        W10899   6.100   6.060   3.366  0.2863  0.0059 -0.2126
 6849W        W10900   8.443   5.845  12.975 -0.2869 -0.1343  0.0789
 6850W        W10901   2.801   4.897   3.264 -0.3081 -0.2401 -0.1500
 6851W        W10902   7.000   8.276   1.688 -0.0197  0.2520  0.0104
 6852W        W10903   1.493   4.927   3.931 -0.2032  0.1325 -0.5509
 6853W        W10904   9.881   0.454   1.133 -0.2347 -0.0671 -0.2164
 6854W        W10905   1.986   2.136  12.725  0.1125  0.1474 -0.0703
 6855W        W10906   4.349   9.603   0.807  0.0352 -0.1527 -0.1804
 6856W        W10907   4.630   1.651  10.779  0.1216 -0.2743  0.0759
 6857W        W10908   4.013   5.678   2.371 -0.2279  0.3508 -0.2085
 6858W        W10909   6.669   8.686   9.571  0.0673  0.0408 -0.1544
 6859W        W10910   7.063   2.218   2.668  0.1753 -0.2189  0.0701
 6860W        W10911   2.933   5.242  12.274  0.2811 -0.0569  0.0107
 6861W        W10912   8.269   8.925   2.366  0.0831 -0.2453  0.0261
 6862W        W10913   7.878   0.750   2.255  0.2360  0.0585 -0.1098
 6863W        W10914   2.075   4.472   2.747  0.0573 -0.0204  0.0979
 6864W        W10915   2.115   4.422   4.355  0.3330 -0.1351  0.1605
 6865W        W10916   1.344   1.679   4.863 -0.0777 -0.1964  0.1562
 6866W        W10917   9.810   0.291   0.195 -0.1245 -0.1844  0.2135
 6867W        W10918   0.698   4.339   3.576 -0.0616  0.3382  0.2540
 6868W        W10919   9.139   6.771   1.311  0.1508  0.0157  0.0498
 6869W        W10920   9.238   6.019   2.001 -0.1029 -0.0785  0.0200
 6870W        W10921   8.836   7.536   1.725  0.1629 -0.0539  0.0644
 6871W        W10922   8.023   1.848   4.208 -0.1790  0.2458  0.1256
 6872W        W10923   5.932   1.880  12.561  0.3444 -0.2774 -0.0294
 6873W        W10924   1.374   8.388  11.040 -0.0838 -0.3015 -0.1928
 6874W        W10925   3.285   2.223  11.619  0.1610 -0.0531 -0.1755
 6875W        W10926   5.810   5.236   3.000  0.1663 -0.0091 -0.3592
 6876W        W10927   6.331   8.564   3.094 -0.3127 -0.3540 -0.0154
 6877W        W10928   3.073   4.938  13.091 -0.2921  0.0022 -0.1510
 6878W        W10929   5.155   7.128   2.780  0.1819  0.0896 -0.0509
 6879W        W10930   6.136   0.356  10.139 -0.0867  0.2934 -0.0641
 6880W        W10931   9.948   2.392  10.796 -0.0847 -0.2594  0.2787
 6881W        W10932   2.410   7.125  10.200  0.0190  0.2462  0.4072
 6882W        W10933   0.250   2.764   9.607  0.1601  0.1649 -0.0805
 6883W        W10934   9.611   4.844  10.521 -0.2328  0.1859  0.0373
 6884W        W10935   1.392   6.750   2.375  0.1068  0.0587 -0.0109
 6885W        W10936   4.625   1.836   0.863  0.1010 -0.3789 -0.1539
 6886W        W10937   5.624   5.079  11.547  0.0102  0.3187  0.0181
 6887W        W10938   8.743   2.202   2.496 -0.0348  0.2195 -0.0901
 6888W        W10939   8.633   3.582   2.069 -0.3630 -0.2799  0.1591
 6889W        W10940   7.641   8.374  10.473  0.2200  0.0824 -0.3304
 6890W        W10941   9.708   1.159   2.298  0.0772  0.2038  0.1625
 6891W        W10942   6.491   1.395  11.526  0.1324  0.1246  0.1558
 6892W        W10943   8.119   5.077   0.889  0.1879  0.1855 -0.1812
 6893W        W10944   0.981   3.424   3.103 -0.1008 -0.3359  0.0186
 6894W        W10945   5.607   4.122   9.554 -0.2454 -0.3246 -0.0851
 6895W        W10946   2.778   2.474   3.573  0.0778  0.4025  0.1491
 6896W        W10947   1.969   7.752   0.954 -0.2022 -0.0623 -0.0500
 6897W        W10948   3.317   7.810   3.856  0.0036  0.0072 -0.0088
 6898W        W10949   0.847   1.587  13.178  0.2960  0.0535  0.1469
 6899W        W10950   2.041   5.329   1.129 -0.1452  0.0994  0.0532
 6900W        W10951   7.776   9.578   0.248  0.1356  0.2174 -0.1524
 6901W        W10952   0.266   7.521   9.419  0.1961  0.0212  0.0422
 6902W        W10953   1.698   1.109   3.048 -0.2183  0.0256  0.0267
 6903W        W10954   3.563   3.273  12.803  0.1025  0.0901 -0.2369
 6904W        W10955   0.449   4.820  10.552 -0.2382 -0.1781  0.0134
 6905W        W10956  10.090   0.768   1.585  0.2256  0.1136 -0.1910
 6906W        W10957   3.708   3.634   9.255 -0.1267 -0.0083  0.1722
 6907W        W10958   3.168   0.845   1.854  0.3148  0.1475  0.1477
 6908W        W10959   5.153   0.148   9.203 -0.0132 -0.2496 -0.1408
 6909W        W10960   3.882   3.931   3.326  0.2370 -0.3881 -0.1368
 6910W        W10961   5.538   5.751   2.064 -0.4631 -0.2431  0.0795
 6911W        W10962   5.065   4.681  10.955 -0.2019 -0.2617  0.3238
 6912W        W10963   2.357   4.414   8.894  0.0704  0.0344 -0.0411
 6913W        W10964  10.209   0.499  12.020  0.0608  0.0939  0.0147
 6914W        W10965   8.994   1.736  12.622 -0.0500  0.1503 -0.0675
 6915W        W10966   3.854   9.952   3.428  0.1010 -0.1272 -0.2872
 6916W        W10967   8.328   5.018  10.043 -0.0812 -0.1827 -0.0304
 6917W        W10968   9.422   6.163   2.418 -0.1113 -0.1814 -0.0552
 6918W        W10969   4.787   7.779  10.169 -0.1355  0.3641  0.1358
 6919W        W10970   9.430   6.063   3.575  0.1612 -0.1288  0.4319
 6920W        W10971   0.748   7.723   9.518  0.4723 -0.3921 -0.0310
 6921W        W10972  10.073   5.693   1.276 -0.2563  0.0257 -0.3647
 6922W        W10973   2.047   1.181   1.030 -0.1685  0.2479 -0.1574
 6923W        W10974   1.972   2.605   3.453 -0.3233  0.0334 -0.2346
 6924W        W10975   3.500   5.754   2.404  0.0527  0.1021  0.0679
 6925W        W10976   6.694   4.085  11.384 -0.0244 -0.0706  0.2360
 6926W        W10977   2.134   2.201   2.574  0.0866  0.1885 -0.1020
 6927W        W10978   3.265   1.527   1.340  0.1062 -0.2971  0.0737
 6928W        W10979   3.745   7.486  10.751  0.0472  0.2649 -0.0634
 6929W        W10980   4.990   1.460   2.486  0.0114 -0.0087  0.1956
 6930W        W10981   2.026   7.565  12.218 -0.2231  0.0901  0.1134
 6931W        W10982   0.919   2.446   4.363 -0.3413 -0.1089  0.0732
 6932W        W10983   4.179   7.982   2.105  0.4398 -0.3465  0.3454
 6933W        W10984   3.887   6.654  11.159  0.3555 -0.4242 -0.3752
 6934W        W10985   4.818   4.228   3.340 -0.2255  0.0865  0.0227
 6935W        W10986   4.573   8.275   1.535  0.2311 -0.3963 -0.0808
 6936W        W10987   2.506   1.270  12.696 -0.1979  0.0323 -0.3503
 6937W        W10988   9.320   8.833  13.206  0.0175  0.2533  0.2354
 6938W        W10989   9.311   3.808   0.744 -0.5368 -0.1593 -0.0378
 6939W        W10990   6.880   5.246   4.546 -0.0717  0.3286 -0.1146
 6940W        W10991   1.083   9.002  10.223 -0.0077  0.0382 -0.1466
 6941W        W10992   6.258   4.432   4.608  0.1246  0.0325 -0.1056
 6942W        W10993   3.469   1.995   8.684  0.3155 -0.1818  0.0745
 6943W        W10994   0.498   2.513   2.988  0.1593  0.1885 -0.0182
 6944W        W10995   4.976   9.456  11.114 -0.2582  0.0736  0.0651
 6945W        W10996   8.953   1.538  11.009 -0.2775  0.0771 -0.0022
 6946W        W10997   0.860   7.459   1.894 -0.1722 -0.5488 -0.2698
 6947W        W10998   7.455   7.680   2.056  0.1687 -0.0220 -0.0580
 6948W        W10999  10.218   1.142   3.849  0.2457  0.1443 -0.1868
 6949W        W11000   8.754   2.067   5.050  0.1145 -0.0285  0.0085
 6950W        W11001   0.742   7.918   2.291  0.3657 -0.1145  0.2397
 6951W        W11002   1.525   0.700   3.977  0.0208  0.0793  0.2747
 6952W        W11003   2.724   0.036   9.459 -0.0858  0.0052 -0.1639
 6953W        W11004   2.994   2.603   0.685 -0.3310 -0.2296  0.0123
 6954W        W11005   0.436   0.505   2.448  0.0407 -0.0527  0.2097
 6955W        W11006   8.328   1.935   1.159  0.1172  0.4062 -0.3094
 6956W        W11007   8.884   8.807  11.319 -0.3516 -0.0474 -0.0977
 6957W        W11008   6.821   4.531   4.635 -0.1914 -0.0475  0.2864
 6958W        W11009   7.923   5.779   9.040  0.1812 -0.1566  0.0446
 6959W        W11010   1.468   8.925   4.756 -0.1882 -0.3612  0.0068
 6960W        W11011   1.911   1.520   9.965  0.1803 -0.2416 -0.2328
 6961W        W11012   3.571   7.316  11.657  0.3268 -0.1805 -0.3418
 6962W        W11013   3.602   5.787   3.689 -0.1235  0.0344 -0.0603
 6963W        W11014   3.935   8.605  11.225 -0.1756 -0.0923 -0.0332
 6964W        W11015   2.762   9.588  12.202  0.0475  0.3309  0.0500
 6965W        W11016   5.463   4.355  10.246 -0.1750 -0.1392  0.2506
 6966W        W11017   6.803   5.259  12.455  0.0339 -0.1892  0.1451
 6967W        W11018   4.817   1.112   3.016 -0.1056 -0.0357  0.0325
 6968W        W11019   8.344   2.925   4.510 -0.0282  0.0591 -0.1342
 6969W        W11020   9.954   2.868   9.752 -0.2361 -0.0947  0.0786
 6970W        W11021   2.425   9.364   4.343 -0.1520  0.0141 -0.4407
 6971W        W11022   5.789   5.709   9.428 -0.0512 -0.2407 -0.1805
 6972W        W11023   2.999   1.324   3.421  0.1550  0.1596 -0.0334
 6973W        W11024   3.455   5.753   9.812 -0.1114  0.3079 -0.3501
 6974W        W11025   0.654   4.289  10.508 -0.4470 -0.1981  0.0598
 6975W        W11026   0.317   4.931  11.809 -0.1768 -0.1407  0.1284
 6976W        W11027   6.484   4.086   3.809  0.0598 -0.3465 -0.1564
 6977W        W11028   4.152   5.225   4.736 -0.0478 -0.1412  0.0183
 6978W        W11029   1.946   7.172  10.642  0.0218  0.0792  0.0886
 6979W        W11030   6.424   6.303  10.818 -0.1520 -0.2164 -0.0042
 6980W        W11031   1.251   7.026  13.255 -0.0937 -0.0415 -0.0355
 6981W        W11032   8.356   3.799   8.826  0.3498 -0.3423 -0.0739
 6982W        W11033   7.728   2.388  13.254 -0.1380 -0.3432  0.0118
 6983W        W11034   1.780   0.069   4.367 -0.2740  0.2196  0.3553
 6984W        W11035   4.956   6.847  12.447 -0.1126  0.1435 -0.0994
 6985W        W11036   9.153  10.128  11.163  0.2667  0.0375  0.5763
 6986W        W11037   4.101   2.687  12.070 -0.1042 -0.1511 -0.5132
 6987W        W11038   7.386   5.512  11.079  0.1265  0.0966 -0.1262
 6988W        W11039   0.790   4.379   1.168 -0.3264  0.1900 -0.0309
 6989W        W11040   7.715   0.594  12.554  0.3181  0.4977  0.2445
 6990W        W11041   1.169   9.524  13.158 -0.1592  0.2617  0.0654
 6991W        W11042   9.530   9.731   3.670  0.1936 -0.3607 -0.0137
 6992W        W11043   4.466   7.794   1.680  0.0032 -0.0438 -0.1096
 6993W        W11044   9.235   4.054  11.152  0.0756  0.2470  0.1816
 6994W        W11045   4.303   1.336   9.570  0.1179 -0.2906  0.3598
 6995W        W11046   7.147   7.010   2.226  0.1562  0.0069 -0.2988
 6996W        W11047   9.584   3.840   9.581  0.3338  0.4209 -0.2644
 6997W        W11048   3.791   2.905   4.949 -0.1031  0.0645 -0.1544
 6998W        W11049   7.874   2.193   3.800  0.0582  0.1948 -0.3859
 6999W        W11050   1.735   9.490   1.844  0.0692  0.1520  0.2280
 7000W        W11051   9.448  10.150  12.603  0.0465 -0.0328  0.2446
 7001W        W11052   6.754   7.676   0.986 -0.0195 -0.0304 -0.5305
 7002W        W11053   7.179   6.762  11.154 -0.1527  0.0034 -0.1590
 7003W        W11054   3.946   3.255  13.703 -0.3027  0.0324 -0.0334
 7004W        W11055   3.194   4.564   2.777 -0.1573  0.1959  0.4929
 7005W        W11056   2.966   4.018  12.307  0.2461 -0.2914 -0.3367
 7006W        W11057   0.337   8.726   9.090  0.1520  0.0429  0.2369
 7007W        W11058  10.017   4.424   3.740 -0.1841 -0.0557 -0.0943
 7008W        W11059   3.705   4.181  10.430  0.0207 -0.0102 -0.0467
 7009W        W11060   6.565   5.816   4.012 -0.1512 -0.2892  0.0021
 7010W        W11061   4.487   6.502  13.478 -0.0010  0.0842  0.3161
 7011W        W11062   9.597   6.936  13.498 -0.2291 -0.3770  0.2269
 7012W        W11063   9.990   1.604  10.965  0.1203 -0.0424  0.1081
 7013W        W11064   7.767   3.161   1.962 -0.0446  0.0466 -0.3510
 7014W        W11065   7.067   5.441  11.977  0.5254 -0.1055 -0.0650
 7015W        W11066   4.686   4.273  13.858  0.0940 -0.1571 -0.0923
 7016W        W11067   9.052   0.386   9.674  0.1751  0.0997 -0.0976
 7017W        W11068   6.156   7.394  10.353  0.1962 -0.2003 -0.0560
 7018W        W11069   2.358   2.409  12.808  0.0196 -0.1128 -0.2069
 7019W        W11070   5.172   0.780  11.922 -0.1490 -0.1982 -0.2309
 7020W        W11071   8.240   8.210   2.133  0.2494  0.0927 -0.3249
 7021W        W11072   8.459  10.183  12.330  0.2192  0.2142  0.3325
 7022W        W11073   5.621   5.583  13.487 -0.1203 -0.1980  0.3462
 7023W        W11074   7.689   0.851  10.479 -0.2144 -0.1755 -0.0329
 7024W        W11075  10.016   4.609  10.133  0.1723  0.1875  0.2431
 7025W        W11076   9.586   5.379  11.285 -0.1893 -0.0202  0.0226
 7026W        W11077   1.890   1.356  10.489  0.2489  0.2504 -0.0465
 7027W        W11078   2.023   5.540  10.973  0.1195 -0.1807  0.2473
 7028W        W11079   5.270   7.807  12.027  0.2732  0.1778 -0.1831
 7029W        W11080   1.732   5.564   0.783 -0.2059  0.1475 -0.0623
 7030W        W11081   5.373   3.440   8.949  0.1845 -0.0445  0.0681
 7031W        W11082   1.700   9.943   3.411  0.0146 -0.0940  0.1252
 7032W        W11083   7.422   9.840   2.323  0.2912 -0.0646 -0.1162
 7033W        W11084   6.676   8.849  12.774  0.0824  0.0500  0.0640
 7034W        W11085   9.546   4.308  10.874  0.1995 -0.2215 -0.2257
 7035W        W11086   0.899   8.165   3.217  0.0774 -0.1034 -0.1257
 7036W        W11087  10.128   3.043   3.842 -0.1451 -0.0507  0.0405
 7037W        W11088   9.652   9.853  10.670  0.0715  0.1941  0.0321
 7038W        W11089   9.729   3.252  11.905 -0.2273 -0.2705  0.2269
 7039W        W11090   8.556   9.129   4.129 -0.3227  0.0120 -0.0406
 7040W        W11091   6.921   3.791   5.070 -0.1658 -0.1967 -0.1509
 7041W        W11092   1.060   1.952   0.654 -0.3201  0.2684  0.0628
 7042W        W11093   0.967   1.336   1.170 -0.1854 -0.2116  0.2426
 7043W        W11094   8.281   2.165   1.682  0.2954 -0.0381  0.0811
 7044W        W11095   6.938   2.484   4.932  0.1486 -0.0662 -0.3123
 7045W        W11096   9.721   9.234   0.279 -0.1728 -0.2042 -0.3853
 7046W        W11097   2.316   3.785   3.569 -0.0180 -0.1978 -0.1499
 7047W        W11098   9.998   6.694  13.620  0.1720 -0.0436 -0.1066
 7048W        W11099   3.130   1.566   2.047  0.2040 -0.0479 -0.0744
 7049W        W11100   2.903   5.434   2.455 -0.1297  0.1089  0.4083
 7050W        W11101   2.011   2.024   3.525  0.0154 -0.2239 -0.0199
 7051W        W11102   6.660   5.431  13.330 -0.0190 -0.1338 -0.0411
 7052W        W11103   9.828   3.640  13.572 -0.2913  0.0503  0.4664
 7053W        W11104   1.528   6.867   3.485  0.0090  0.1414 -0.1010
 7054W        W11105   0.859   8.033   1.357  0.3068  0.0389 -0.0733
 7055W        W11106   0.566   8.174  10.340 -0.1199  0.3362 -0.0231
 7056W        W11107   8.289   1.004   3.403 -0.0400 -0.0070  0.0749
 7057W        W11108   1.231   1.728  12.223  0.0768  0.0426  0.1864
 7058W        W11109   5.224   5.927  13.274  0.0577 -0.0713 -0.1350
 7059W        W11110   0.632   4.403   0.105  0.2570  0.2798  0.0216
 7060W        W11111   6.417   3.668   2.036  0.0942 -0.0741  0.2651
 7061W        W11112   8.603   0.948   9.813  0.0161 -0.2120 -0.4893
 7062W        W11113   4.943   5.570   0.333  0.1030  0.3530 -0.1232
 7063W        W11114   3.509   4.932   2.713 -0.2952  0.0377 -0.0699
 7064W        W11115   7.646   3.007  12.140  0.0918 -0.0276  0.1023
 7065W        W11116   9.238   9.587   3.071 -0.2192 -0.2057 -0.0342
 7066W        W11117   7.567   8.672  12.234  0.2652 -0.2461  0.3050
 7067W        W11118   7.740   5.842  10.096  0.1950  0.0055  0.1224
 7068W        W11119   5.698   7.805  11.151  0.1796  0.2255 -0.1388
 7069W        W11120   1.803   5.501   9.347 -0.3039 -0.2319 -0.1674
 7070W        W11121   4.925   4.687  12.730  0.0577  0.1060  0.2167
 7071W        W11122   0.363   9.905   2.825  0.0026  0.1260  0.0909
 7072W        W11123   8.990   9.720   9.531 -0.1501  0.0230 -0.0248
 7073W        W11124   5.438   3.219   2.807  0.0643  0.0114 -0.2165
 7074W        W11125   0.567   4.228   2.679 -0.0666  0.0521 -0.0332
 7075W        W11126   6.282   6.098  11.440  0.0256 -0.0128  0.1379
 7076W        W11127   3.900   1.104   3.271  0.1425 -0.0373 -0.3482
 7077W        W11128   8.157   1.266   9.846  0.2311  0.1562 -0.1220
 7078W        W11129  10.057   7.490   2.310 -0.0914  0.3294  0.0966
 7079W        W11130   2.571   7.611  12.487 -0.2016 -0.0779  0.0172
 7080W        W11131   4.114   2.267  13.343 -0.1810  0.1619 -0.0624
 7081W        W11132   2.292   0.135   0.138 -0.0661  0.0457 -0.3805
 7082W        W11133   4.232   0.592   3.357  0.0667 -0.0623  0.0391
 7083W        W11134   2.909   2.713  12.291  0.1065 -0.4038 -0.2973
 7084W        W11135   4.794   3.891   0.955 -0.0838  0.4096  0.4933
 7085W        W11136   6.336   2.213   2.713 -0.1441  0.3580  0.0336
 7086W        W11137   1.743   5.936  10.482  0.1809  0.1036 -0.1363
 7087W        W11138   1.757   9.443   3.197  0.0838 -0.3558 -0.1939
 7088W        W11139   4.162   2.149   0.935  0.0633  0.0811 -0.3490
 7089W        W11140   2.400   4.565   0.394 -0.1375  0.0411  0.2698
 7090W        W11141   1.463   2.392  12.986 -0.0867 -0.2757 -0.1303
 7091W        W11142   9.473   0.349   9.422 -0.4619  0.1746 -0.1168
 7092W        W11143   9.623   6.243  11.903  0.0076 -0.0865  0.0721
 7093W        W11144   7.355   7.935   1.616  0.2312  0.0742  0.0049
 7094W        W11145   4.845   1.566  13.104 -0.1249  0.0074 -0.0401
 7095W        W11146   5.733   5.896  10.262 -0.0627  0.4466  0.3877
 7096W        W11147   6.692   0.860  10.641  0.2418 -0.2335  0.0263
 7097W        W11148   8.892   1.226   8.950 -0.1332  0.0297  0.1486
 7098W        W11149   3.273   5.146   1.530  0.2353  0.1004 -0.1655
 7099W        W11150   9.230   3.541   1.228  0.0721  0.1184 -0.0330
 7100W        W11151   9.771   7.037  10.588  0.0120  0.1728  0.1403
 7101W        W11152   1.021   5.271   0.959 -0.0623  0.1675  0.0053
 7102W        W11153   2.003   5.565   1.924 -0.3468  0.2086 -0.1333
 7103W        W11154   7.276   7.979   3.491  0.1633 -0.0520 -0.0578
 7104W        W11155   9.340   5.518   0.704 -0.2673 -0.1952  0.0636
 7105W        W11156   3.136   0.778   9.498  0.1723  0.1360  0.2307
 7106W        W11157   2.839   2.861   3.229  0.0218  0.0980 -0.0406
 7107W        W11158   6.861   0.970   1.266  0.0021  0.0691 -0.2337
 7108W        W11159   1.878   2.529  10.873  0.0788  0.1791 -0.1544
 7109W        W11160   5.086   2.706   9.454 -0.3003 -0.0714 -0.2058
 7110W        W11161   0.262   2.507  10.529  0.0870 -0.1951 -0.1016
 7111W        W11162   4.761   0.091  12.276 -0.0768 -0.0059  0.2196
 7112W        W11163   3.196   8.581  12.872 -0.1239 -0.2756  0.1468
 7113W        W11164   8.960   3.065   5.388  0.0589  0.5902 -0.3321
 7114W        W11165   7.268   4.994   1.965 -0.1642 -0.3017 -0.1028
 7115W        W11166   3.288   8.430  13.437 -0.0904 -0.1809  0.3285
 7116W        W11167   0.310   6.391   3.095  0.0108  0.0839  0.1730
 7117W        W11168   2.733   7.426  13.141  0.2684 -0.2087 -0.1258
 7118W        W11169   8.272   4.939  10.543  0.2389 -0.0506 -0.0496
 7119W        W11170   9.008   2.005   0.476  0.0578 -0.1466  0.4161
 7120W        W11171   6.962   8.054   0.692 -0.0220  0.0071  0.0425
 7121W        W11172   9.581   3.072   2.687 -0.1257  0.4477 -0.0742
 7122W        W11173   7.231   6.153   3.513  0.1478  0.1518 -0.1161
 7123W        W11174   7.000   3.468   3.241  0.1487 -0.2283  0.0539
 7124W        W11175   0.187   1.946   4.216  0.0792  0.2940 -0.0083
 7125W        W11176   7.430   2.062  11.878  0.0642  0.1737 -0.0483
 7126W        W11177   0.043   4.023  12.922  0.0842 -0.3738 -0.1449
 7127W        W11178   7.224   2.772   0.687  0.1369  0.2195 -0.0624
 7128W        W11179   9.379   5.033   9.821 -0.2020 -0.0672 -0.1438
 7129W        W11180   1.977   4.400  11.031 -0.1647 -0.0600 -0.0615
 7130W        W11181   1.960   6.907   3.216 -0.2951  0.3471 -0.1841
 7131W        W11182   9.584   4.169   0.385 -0.0291 -0.0460  0.3442
 7132W        W11183   8.786   7.467  11.942  0.0857 -0.1304  0.0293
 7133W        W11184   6.885   2.367   0.619  0.2337 -0.1275 -0.1640
 7134W        W11185   5.832   8.664   1.008 -0.0873  0.1289  0.1765
 7135W        W11186   5.394   3.832   9.919 -0.2215  0.4036 -0.2339
 7136W        W11187   4.233   7.390   2.720 -0.5333  0.0071 -0.1838
 7137W        W11188   8.936   9.280  12.628 -0.0178 -0.0820  0.1586
 7138W        W11189   9.973  10.126   1.483  0.1367 -0.0164  0.3915
 7139W        W11190   3.205   6.537  10.476 -0.1026  0.2369 -0.1422
 7140W        W11191   3.668   3.615   2.541  0.2874  0.4039  0.2848
 7141W        W11192   2.692   9.624  11.598  0.2128  0.3748  0.1492
 7142W        W11193   7.180   4.081   0.700 -0.0724  0.2455  0.0650
 7143W        W11194   6.830   2.810   1.849 -0.2432  0.0698  0.0596
 7144W        W11195   2.917   2.176  12.713 -0.3766 -0.3519  0.2476
 7145W        W11196   2.308   1.805   3.152  0.1859  0.0650 -0.2256
 7146W        W11197   5.164   8.077   2.079 -0.2167  0.1705  0.0650
 7147W        W11198   5.018   1.646   4.432 -0.0765  0.2153 -0.1484
 7148W        W11199   8.887   3.278   3.357 -0.1558  0.0439 -0.1912
 7149W        W11200   0.551   6.857   4.240 -0.1322 -0.3819  0.1723
 7150W        W11201   4.987   8.487  13.154  0.0662 -0.0813 -0.4971
 7151W        W11202   2.443   4.629   2.284 -0.2916 -0.1003 -0.3743
 7152W        W11203   8.407   1.374   3.743  0.0090  0.2202  0.0128
 7153W        W11204   0.235   7.045   2.593  0.1101 -0.1074  0.2794
 7154W        W11205   3.130   1.404   2.879  0.2719 -0.0019  0.2243
 7155W        W11206   5.951   4.309   1.986  0.3563 -0.2469 -0.0842
 7156W        W11207   1.859   2.438   4.105  0.0451 -0.2912  0.5010
 7157W        W11208   5.307   8.991  10.907 -0.0357  0.0001  0.0106
 7158W        W11209   3.792   2.985   0.428  0.1725  0.1113 -0.1966
 7159W        W11210   6.376   2.039   3.687  0.0278 -0.3610 -0.2892
 7160W        W11211   3.806   7.293   1.351 -0.0981 -0.3633  0.0290
 7161W        W11212   5.111   2.954  10.584 -0.3306 -0.0073  0.2166
 7162W        W11213   7.794   4.080  10.119  0.1487  0.0870  0.1071
 7163W        W11214   5.511   5.393   0.220 -0.0141 -0.1489 -0.1517
 7164W        W11215   4.854   9.423  11.611 -0.2250 -0.1503 -0.1652
 7165W        W11216  10.177   4.725   5.225 -0.2061  0.1110 -0.0940
 7166W        W11217   7.167   1.454  13.858  0.1595 -0.1105  0.2026
 7167W        W11218   9.474   3.117   5.426  0.0041  0.2421 -0.2421
 7168W        W11219   5.283   3.074   2.383  0.2401 -0.0075  0.0820
 7169W        W11220   2.763   4.081   2.174  0.0560 -0.0694  0.0765
 7170W        W11221   1.056   0.263  10.037  0.2374  0.1210  0.2979
 7171W        W11222   2.506   6.921  13.188  0.0075 -0.2861  0.0574
 7172W        W11223   3.052   1.096  12.907 -0.3235  0.1000  0.2506
 7173W        W11224   7.954   2.997   1.014  0.2779 -0.6487 -0.1252
 7174W        W11225   2.984   4.239  10.072  0.0248 -0.2724  0.1293
 7175W        W11226   7.419   4.390  12.396 -0.2505  0.3793  0.2167
 7176W        W11227   4.667   8.465  11.832 -0.0418  0.0775  0.3593
 7177W        W11228   3.203   0.801   4.158 -0.0209  0.1207 -0.3102
 7178W        W11229   4.602   2.539   1.453 -0.1850  0.0182  0.1574
 7179W        W11230   4.429   0.884  13.626  0.3866 -0.2328  0.3428
 7180W        W11231   5.162   7.543  13.132 -0.2413 -0.2890  0.2562
 7181W        W11232   8.208   8.823  12.072 -0.3558  0.1311 -0.1072
 7182W        W11233   1.904   8.462  12.294 -0.0593  0.1447  0.0183
 7183W        W11234   7.697   4.459   2.861 -0.2615  0.3311  0.0958
 7184W        W11235   5.378   0.613  11.443  0.0997 -0.0631 -0.3423
 7185W        W11236   1.595   1.334  12.810  0.2355 -0.1108  0.0482
 7186W        W11237   4.019   4.825  13.174  0.4636 -0.1576  0.1099
 7187W        W11238   8.117   2.102  13.106 -0.1109 -0.2708 -0.3092
 7188W        W11239   0.172   8.813   4.353 -0.1393 -0.1615 -0.3149
 7189W        W11240   3.232   3.502  13.129  0.0101  0.1655  0.0401
 7190W        W11241   5.798   2.365   0.616 -0.3092  0.0817  0.0069
 7191W        W11242   3.135   2.418  10.272 -0.3980  0.0265 -0.0426
 7192W        W11243   6.842   4.477   0.500  0.1784 -0.0118  0.2847
 7193W        W11244   8.703   6.310   1.741  0.0121 -0.1249 -0.2899
 7194W        W11245   1.374   0.903   2.699 -0.1623 -0.0958 -0.0098
 7195W        W11246   2.378   6.534  11.112 -0.0921  0.1945 -0.0356
 7196W        W11247   8.269   3.961  13.391 -0.2853  0.2283  0.2975
 7197W        W11248   5.937   9.623  10.259 -0.0869  0.1350 -0.1144
 7198W        W11249   9.451   4.642   0.389 -0.2456 -0.1222  0.0974
 7199W        W11250   6.192   3.789  13.159 -0.0511  0.1390  0.0630
 7200W        W11251   2.258   9.761   9.926 -0.0176  0.2982 -0.0779
 7201W        W11252   6.900   1.240  12.205 -0.1805 -0.3144 -0.3088
 7202W        W11253   4.000   6.779  13.471  0.3160 -0.0392 -0.0434
 7203W        W11254   3.026   3.385   0.366 -0.0783 -0.2189 -0.0549
 7204W        W11255   6.997   0.522  11.411  0.0906 -0.1427  0.2237
 7205W        W11256   4.691   3.001   1.185  0.0719 -0.0928  0.0390
 7206W        W11257   9.850   8.744   4.450 -0.0320 -0.0142  0.0482
 7207W        W11258   1.473   8.416   4.012  0.2248 -0.2775 -0.1858
 7208W        W11259   1.013   0.534   3.511  0.1631  0.1522 -0.0175
 7209W        W11260   8.160   2.623  12.218 -0.0629  0.0642  0.3341
 7210W        W11261   8.810   4.270  11.738 -0.1373 -0.1600 -0.4266
 7211W        W11262   5.808   8.553   1.543  0.3046 -0.1071  0.4368
 7212W        W11263   6.217   3.480  11.749 -0.0570 -0.0314 -0.1773
 7213W        W11264   9.317   5.188  10.272  0.1700 -0.3946  0.0317
 7214W        W11265   7.094   6.416  11.767 -0.2735 -0.0723  0.1768
 7215W        W11266   3.078   1.955   2.299 -0.0453 -0.1977  0.2158
 7216W        W11267   4.060   8.512  12.239  0.0716  0.2561 -0.0282
 7217W        W11268   8.231   3.353  12.931  0.0779  0.1620  0.3520
 7218W        W11269   4.537   3.360   0.827 -0.1142  0.4750  0.0615
 7219W        W11270   9.189   4.276  13.306  0.0703 -0.0030  0.0666
 7220W        W11271   8.412   8.170   0.500  0.1311 -0.1405  0.2076
 7221W        W11272   9.357   8.931  10.061  0.1721 -0.0370 -0.0789
 7222W        W11273   1.010   1.397   8.643  0.4259  0.2556 -0.0133
 7223W        W11274   0.403   7.022  10.122 -0.1027 -0.1166  0.2339
 7224W        W11275   9.671   4.874   3.001  0.1122  0.2674 -0.2004
 7225W        W11276   3.848   0.373  10.781 -0.2038  0.0028  0.1340
 7226W        W11277   6.215   2.608   2.324  0.1941 -0.1122 -0.2090
 7227W        W11278   8.353   9.515  10.895 -0.0548 -0.2873 -0.1496
 7228W        W11279   3.994   0.996  13.079 -0.1635 -0.2630 -0.2487
 7229W        W11280   1.501   3.513   2.058  0.1365  0.0379 -0.0562
 7230W        W11281   2.999   6.402   4.283 -0.1492  0.2028  0.0073
 7231W        W11282   0.309   3.368  10.313 -0.0172  0.0833  0.0987
 7232W        W11283   9.298   7.630  12.904  0.4076 -0.3058 -0.0527
 7233W        W11284   2.114   0.885   3.743  0.5150 -0.1344 -0.1958
 7234W        W11285   1.762   1.327   9.427 -0.0853 -0.3762  0.0142
 7235W        W11286   1.507   9.058  11.604  0.3380 -0.0782 -0.2628
 7236W        W11287   8.212   1.733  13.523 -0.2136 -0.1907  0.0471
 7237W        W11288   8.046   6.333  10.161  0.1792  0.1228  0.2537
 7238W        W11289   1.040   6.135   1.058  0.1175  0.0466 -0.1745
 7239W        W11290   2.088   1.369  12.451 -0.0242  0.0988  0.0698
 7240W        W11291   3.654   2.399   4.742 -0.0915 -0.2208  0.2799
 7241W        W11292   3.421   3.789   1.067  0.0280  0.3166 -0.1664
 7242W        W11293   1.057   4.347   4.357 -0.0725 -0.3138 -0.2392
 7243W        W11294   8.278   5.938  11.251 -0.1543 -0.2640 -0.0515
 7244W        W11295   4.162   6.549   0.091 -0.0071  0.3320 -0.0065
 7245W        W11296   1.715   2.673   1.947 -0.2300 -0.2077  0.2019
 7246W        W11297   5.333   4.627   1.341 -0.0526 -0.0442 -0.0092
 7247W        W11298   9.902   6.871   3.946  0.2538 -0.0006 -0.0943
 7248W        W11299   3.982   3.506  10.913 -0.0316 -0.2507  0.0875
 7249W        W11300   6.393  10.029   0.772 -0.1227  0.0254 -0.3131
 7250W        W11301   0.099   2.203   1.896  0.0911  0.2349 -0.0490
 7251W        W11302   5.759   3.589   2.648 -0.1293  0.2586  0.2012
 7252W        W11303  10.133   2.063   9.152  0.2442  0.0499 -0.1255
 7253W        W11304   9.553   0.173   4.493 -0.3121  0.0161  0.0803
 7254W        W11305  10.117   7.203  11.151 -0.1913  0.1221 -0.2104
 7255W        W11306   4.588   4.395  10.480 -0.0564  0.1104 -0.0294
 7256W        W11307   8.443   3.123   4.082 -0.0632 -0.0753 -0.2480
 7257W        W11308   0.478   6.039   2.850 -0.1544 -0.4777  0.0101
 7258W        W11309   6.895   4.834   1.370  0.2743 -0.2667  0.1261
 7259W        W11310   3.396   4.974   0.220 -0.3193  0.2743  0.3091
 7260W        W11311   2.140   8.394   1.166  0.0640  0.2874  0.0510
 7261W        W11312   2.180   5.830  12.289  0.1025  0.1832 -0.1548
 7262W        W11313   0.978   5.838   5.071 -0.0962  0.0789  0.1738
 7263W        W11314  10.115   5.533   0.101  0.3804 -0.3046 -0.2666
 7264W        W11315   9.067   2.039  11.697  0.5397 -0.0770  0.1694
 7265W        W11316   2.120   5.989  13.285  0.2413 -0.2303 -0.0783
 7266W        W11317   3.253   9.184  12.873 -0.2211  0.1414 -0.1894
 7267W        W11318   2.695   3.848   3.274 -0.0181  0.2985 -0.2992
 7268W        W11319   9.200   4.768  12.877 -0.2318 -0.1960  0.0420
 7269W        W11320   1.215   7.435  13.578 -0.0024  0.3361 -0.3701
 7270W        W11321   1.238   1.130  11.379  0.2742  0.0410  0.0393
 7271W        W11322   3.723   3.740  11.367 -0.0920  0.0596  0.1300
 7272W        W11323  10.123   6.286  11.070  0.0294  0.0979  0.0779
 7273W        W11324   8.761   6.270  11.698  0.1346 -0.2294 -0.1025
 7274W        W11325   9.863   5.034   9.780 -0.1945  0.2520  0.0269
 7275W        W11326   7.729   6.847   8.969  0.1582  0.3039  0.0186
 7276W        W11327   2.964   9.306   0.129 -0.1070 -0.0160  0.0918
 7277W        W11328   0.210   4.795   3.947  0.2701  0.0049 -0.0794
 7278W        W11329   6.235   5.295   0.332 -0.0235 -0.0749  0.1950
 7279W        W11330   5.994   3.014  11.517  0.1890  0.0637 -0.1258
 7280W        W11331   9.293   0.380  12.834  0.1684  0.0527  0.0668
 7281W        W11332   3.077  10.211   1.867  0.2145  0.0546  0.0295
 7282W        W11333   8.184   4.363   2.054  0.0801 -0.1467 -0.0046
 7283W        W11334   4.866   1.129   8.836 -0.2208  0.1289  0.1173
 7284W        W11335   6.967   0.500  12.760 -0.0766 -0.1227  0.1525
 7285W        W11336   8.553   4.836   0.639 -0.0891  0.1923 -0.0026
 7286W        W11337   8.060   4.480  12.261 -0.1728  0.0517  0.0207
 7287W        W11338   2.010   3.087  10.598  0.0302  0.3466 -0.1519
 7288W        W11339   8.120   8.356   3.630  0.2807  0.0069 -0.1844
 7289W        W11340   5.547   0.066   1.180 -0.2417 -0.2615 -0.1316
 7290W        W11341   1.912   7.194  11.857  0.0585 -0.3620  0.1208
 7291W        W11342   3.912   7.267  12.199 -0.1469  0.2735 -0.0793
 7292W        W11343   4.522   8.673   2.366  0.2370 -0.2758  0.1045
 7293W        W11344   4.847   0.334  10.141 -0.1848  0.1761  0.0936
 7294W        W11345   9.983   1.685  11.837  0.1646  0.2186  0.0050
 7295W        W11346   5.129   0.871  12.585  0.3529  0.0425 -0.0545
 7296W        W11347   6.844   4.415   9.867 -0.0036 -0.0373  0.0975
 7297W        W11348   2.359   3.103   9.338 -0.2285  0.0265  0.0377
 7298W        W11349   0.801   6.694   1.822 -0.2173 -0.1298 -0.0766
 7299W        W11350  10.218   3.741   4.864 -0.0211  0.0102 -0.0557
 7300W        W11351   6.396   2.525  13.861  0.3015 -0.2700 -0.0053
 7301W        W11352   8.039   4.765  11.348  0.2741 -0.0021 -0.0262
 7302W        W11353   6.198   2.866  11.990  0.0219 -0.1401 -0.0548
 7303W        W11354   1.178   1.336  10.932  0.1384 -0.0438 -0.2364
 7304W        W11355   3.036   7.442  11.804 -0.0953  0.0950 -0.1059
 7305W        W11356   4.744   3.820   2.636  0.1027  0.0205 -0.3140
 7306W        W11357   3.229   7.528  13.108  0.1170  0.2047  0.0007
 7307W        W11358   1.526   7.158   9.708  0.1011  0.0856  0.0081
 7308W        W11359   7.166   2.962  11.979  0.1148  0.0175  0.1439
 7309W        W11360   7.034   7.249  10.238  0.0667 -0.2032  0.0917
 7310W        W11361   8.298   8.755  10.053  0.2377 -0.0178  0.0062
 7311W        W11362   4.815   7.600  11.109  0.1631 -0.1550  0.2026
 7312W        W11363   2.626   1.034   3.423  0.0157 -0.2908 -0.1292
 7313W        W11364   8.702   5.307   0.638  0.0216  0.0544  0.2192
 7314W        W11365  10.118   3.139   1.381  0.1696  0.0602  0.1255
 7315W        W11366   1.486   0.435   3.493  0.1458 -0.1396  0.2748
 7316W        W11367   6.417   8.851  10.815 -0.1295  0.0721 -0.6513
 7317W        W11368   3.920   2.611  11.099 -0.3304  0.3208 -0.3272
 7318W        W11369   0.276   4.575  12.494  0.1203  0.2773  0.1127
 7319W        W11370   3.454   9.450   8.673 -0.2096  0.0547  0.1636
 7320W        W11371   3.060   9.074   2.155  0.2061 -0.1545  0.1580
 7321W        W11372   0.188   4.441  13.687 -0.2401 -0.0897  0.2146
 7322W        W11373   5.487   8.071  11.681 -0.1266 -0.1222  0.0001
 7323W        W11374   9.333   6.125  12.803  0.2527 -0.0721 -0.0104
 7324W        W11375   1.464   2.990  10.034 -0.2035 -0.2792  0.2537
 7325W        W11376   8.708   9.612   9.992 -0.1736 -0.1630  0.1892
 7326W        W11377   2.581   1.964   0.650 -0.0890  0.1566 -0.0029
 7327W        W11378   6.206   1.681   4.011  0.0652  0.1378 -0.0477
 7328W        W11379   7.474   6.048  10.894  0.0435 -0.1353  0.1240
 7329W        W11380   9.159   4.300   0.670 -0.0074 -0.0397 -0.1607
 7330W        W11381   1.311   4.547  13.271 -0.1776  0.2426  0.0931
 7331W        W11382   8.630   4.483   2.951 -0.0746 -0.1057  0.0320
 7332W        W11383   5.845   9.890   9.811  0.5286  0.0049 -0.3413
 7333W        W11384   4.363   1.751  13.394  0.0476  0.1028 -0.0332
 7334W        W11385   2.955   9.479   2.617 -0.2047 -0.0340  0.0365
 7335W        W11386   6.966   8.270   3.760  0.0633 -0.1857  0.0424
 7336W        W11387   5.734  10.219   9.371  0.3002  0.0263  0.1782
 7337W        W11388   8.690   0.293   1.515 -0.1595 -0.2543  0.3129
 7338W        W11389   8.799   7.958   1.179  0.0250 -0.0806  0.1072
 7339W        W11390   7.739   2.690   1.718  0.2331 -0.0450 -0.1270
 7340W        W11391   2.959   0.421  10.806 -0.3026  0.4790 -0.0984
 7341W        W11392   4.382   9.721   0.203  0.1389  0.2413  0.1200
 7342W        W11393   5.500   4.995   2.580 -0.2536 -0.0542 -0.1808
 7343W        W11394   7.780   4.937   2.922 -0.1784 -0.0264 -0.0018
 7344W        W11395   9.026   9.338  12.095 -0.2154 -0.0326 -0.1541
 7345W        W11396   1.953   0.126   3.347  0.0690 -0.3314  0.1704
 7346W        W11397   8.932   8.875   3.598 -0.1555 -0.0154 -0.2705
 7347W        W11398   8.103   4.577   9.275 -0.1626 -0.0124 -0.3400
 7348W        W11399   0.860   4.530  12.516 -0.3127  0.0634  0.0593
 7349W        W11400   2.882   4.430   1.234  0.0260  0.2053  0.1468
 7350W        W11401   3.279   4.121  11.522  0.2535  0.1477 -0.2391
 7351W        W11402   3.132   3.075  12.679 -0.1650  0.3841  0.0944
 7352W        W11403   6.579   1.181   3.414  0.1951  0.0111 -0.0264
 7353W        W11404   4.545   3.686   8.597 -0.3309  0.1511 -0.0859
 7354W        W11405   3.793   8.116   9.910 -0.1206 -0.0928 -0.3680
 7355W        W11406   4.618   3.971   4.602 -0.0630 -0.0621  0.1691
 7356W        W11407   3.814   1.851  12.953  0.2606 -0.4690  0.0445
 7357W        W11408   4.248   8.083  10.534  0.1445 -0.1591  0.1365
 7358W        W11409   7.817   6.742  10.519 -0.0379  0.1444 -0.2703
 7359W        W11410   9.138   8.231  11.523  0.0682  0.3811 -0.0571
 7360W        W11411   8.173   3.486   5.684  0.0932  0.2114 -0.1683
 7361W        W11412   6.799   3.642  12.955 -0.1767  0.2141 -0.2698
 7362W        W11413   3.393   4.604   3.496 -0.2539 -0.2726 -0.0597
 7363W        W11414   7.522   5.593   0.050 -0.0183 -0.0832  0.2552
 7364W        W11415   6.771   7.260   0.046  0.0184 -0.1771 -0.1176
 7365W        W11416   3.180   1.595   9.954  0.1432 -0.1523 -0.1308
 7366W        W11417   3.394   5.525  13.117 -0.0835 -0.0876 -0.0422
 7367W        W11418   8.868  10.026   1.474  0.2392  0.0903 -0.2003
 7368W        W11419   7.008   5.893  10.881 -0.5367 -0.1364 -0.3333
 7369W        W11420   2.979   6.333   0.021 -0.2463  0.3182 -0.0859
 7370W        W11421   0.743   9.905  12.139  0.0144  0.1132 -0.3835
 7371W        W11422   1.462   9.366   8.691  0.0465  0.0790 -0.0116
 7372W        W11423   1.944   5.062   9.747  0.0221 -0.2205 -0.1050
 7373W        W11424   8.467   4.495   0.256 -0.2184 -0.4954  0.1329
 7374W        W11425   9.351   5.230   4.179 -0.0285  0.1638  0.3932
 7375W        W11426   1.902   2.073   3.037 -0.1949 -0.3017  0.3297
 7376W        W11427   6.999   5.644   3.621 -0.2642 -0.0877 -0.2790
 7377W        W11428   3.961   2.648  10.214 -0.0661  0.0110 -0.1632
 7378W        W11429   3.255   7.574  11.336  0.1497  0.0455  0.0976
 7379W        W11430   9.830   8.707   5.759 -0.2212  0.1862  0.1078
 7380W        W11431   9.433   3.517   2.436 -0.1640  0.1104  0.2541
 7381W        W11432  10.079   9.866   2.767 -0.1843  0.2516 -0.0690
 7382W        W11433   1.677   9.438  12.529  0.1747 -0.0840  0.0962
 7383W        W11434   2.032   0.889   9.615 -0.2520  0.0054 -0.2105
 7384W        W11435   0.606   7.836  11.794 -0.0588 -0.0560  0.0376
 7385W        W11436   2.746   0.728   4.348  0.2453 -0.4026  0.0009
 7386W        W11437   5.733   3.689   0.816  0.2704  0.0514  0.2355
 7387W        W11438  10.138  10.133   0.206 -0.0221  0.1304 -0.0504
 7388W        W11439   9.873   5.302  10.440  0.1142  0.2469  0.3714
 7389W        W11440   2.558   3.925  10.089  0.2069  0.0345 -0.1867
 7390W        W11441   8.790   4.220  11.190 -0.1652  0.1046 -0.1568
 7391W        W11442   8.175  10.221  11.867 -0.1890  0.4374  0.1354
 7392W        W11443   5.568   9.293  13.165  0.2647  0.0005 -0.0115
 7393W        W11444   3.949   2.199   5.451  0.1019  0.1869 -0.1766
 7394W        W11445   0.945   8.181  11.707  0.1474  0.2046 -0.3300
 7395W        W11446   0.148   5.134   0.148  0.3274 -0.0294 -0.1453
 7396W        W11447   0.054   0.477   0.375  0.0019  0.1464 -0.1587
 7397W        W11448   4.029   5.961   3.761  0.0651 -0.1088 -0.1835
 7398W        W11449   2.897   8.026   0.794 -0.1293  0.1310  0.0966
 7399W        W11450   7.019   9.130  13.004 -0.0631 -0.1870  0.1601
 7400W        W11451   5.126   0.232   1.406 -0.0861  0.1520  0.1203
 7401W        W11452   4.258   2.723  10.706  0.1921 -0.1509 -0.1387
 7402W        W11453   2.107   3.861   9.919 -0.1889 -0.1291  0.1936
 7403W        W11454   9.179   2.595  11.534  0.0352  0.3038  0.2813
 7404W        W11455   5.271   5.502  11.058  0.1578 -0.1648 -0.1864
 7405W        W11456   0.130   0.392   9.795 -0.4237  0.2085 -0.0373
 7406W        W11457   4.017   8.313   3.843 -0.1764 -0.0104  0.1616
 7407W        W11458   3.525   0.832   0.040  0.0723  0.0749 -0.0290
 7408W        W11459   5.180   5.296   1.253  0.1691  0.1057  0.0706
 7409W        W11460   8.389   1.114   1.929 -0.0557 -0.0991  0.1500
 7410W        W11461   3.624   9.475  12.653 -0.0920 -0.2305 -0.0534
 7411W        W11462   1.814   6.137  12.424  0.2555 -0.1951 -0.0271
 7412W        W11463   0.901   3.537  12.258  0.2769 -0.0533 -0.0443
 7413W        W11464   6.537   3.765   3.420  0.0442  0.0291  0.0811
 7414W        W11465   2.614   6.967   3.271  0.0819 -0.0434  0.0878
 7415W        W11466   6.379   9.266   0.316 -0.1477 -0.0171 -0.0500
 7416W        W11467   9.164   1.874  12.132 -0.0273  0.0079 -0.0934
 7417W        W11468   6.071   2.364  12.675 -0.1608  0.0609  0.4597
 7418W        W11469   3.898   0.147  12.186  0.0753 -0.0925 -0.0270
 7419W        W11470   1.384   9.824   4.672 -0.0226 -0.1708 -0.2007
 7420W        W11471   1.046   1.373   5.068 -0.0261 -0.0585  0.4124
 7421W        W11472  10.159   8.469   4.046 -0.0179 -0.0944 -0.2050
 7422W        W11473   2.926   6.493   3.226  0.2293  0.0208  0.0299
 7423W        W11474   9.621   1.125   0.539 -0.2591  0.0817 -0.2193
 7424W        W11475   2.673   6.510   1.031  0.0133 -0.0423  0.2326
 7425W        W11476   9.266   3.919  12.072  0.0963 -0.0228  0.2831
 7426W        W11477   6.150   0.145  11.802 -0.1577 -0.4005  0.1201
 7427W        W11478   6.380   4.865   3.816  0.2962  0.2272 -0.1380
 7428W        W11479   8.578   8.659   3.932  0.1863 -0.3339  0.0013
 7429W        W11480   0.078   1.085   2.399  0.0151 -0.0550 -0.0556
 7430W        W11481   0.142   8.062  10.648  0.4964  0.0090  0.1591
 7431W        W11482  10.006   0.174  10.552 -0.1647  0.1138 -0.0616
 7432W        W11483   1.435  10.114   9.986  0.0598  0.2522 -0.3081
 7433W        W11484   0.282   2.380  13.604  0.0533 -0.0724 -0.0383
 7434W        W11485   3.648   2.000   0.247 -0.1558 -0.0085 -0.0255
 7435W        W11486   0.903   2.975   9.508  0.2248  0.1231 -0.0322
 7436W        W11487   1.874   6.378   3.724 -0.1593 -0.3025  0.2062
 7437W        W11488   3.444   0.742  12.867 -0.0649 -0.0659 -0.0452
 7438W        W11489   8.362  10.124   3.703 -0.0431  0.1463  0.0351
 7439W        W11490   7.932   9.482   9.786 -0.0927 -0.1640 -0.2649
 7440W        W11491   6.557   5.459   9.871 -0.0760  0.0973  0.2617
 7441W        W11492   9.978   3.246   2.884 -0.0312 -0.3591 -0.1581
 7442W        W11493  10.086   2.263   3.608 -0.0012  0.1125  0.2368
 7443W        W11494   4.993   9.219  10.597  0.0113 -0.2664 -0.0948
 7444W        W11495   2.832   8.636   1.933  0.0009 -0.0906 -0.2984
 7445W        W11496   4.616   9.212   3.657 -0.2257 -0.1084  0.1263
 7446W        W11497   5.932   1.891   4.460 -0.1627  0.0585  0.0984
 7447W        W11498   3.258   9.876   8.955 -0.3333 -0.3836 -0.0045
 7448W        W11499   6.971   4.111   3.938  0.0281  0.1592 -0.1025
 7449W        W11500   6.105   5.782   9.853  0.0888  0.1158  0.2341
 7450W        W11501   8.693   0.282   0.625 -0.1994 -0.3070 -0.1826
 7451W        W11502   8.961   5.242   2.405 -0.0426 -0.1752 -0.0373
 7452W        W11503   7.634   7.289   2.303 -0.1563 -0.1079 -0.0137
 7453W        W11504   5.427   9.433  10.487 -0.3101  0.0120  0.1100
 7454W        W11505   9.732   9.321   3.876  0.2230 -0.2982 -0.0570
 7455W        W11506   8.695   3.623   4.710  0.0036  0.3017  0.0278
 7456W        W11507   6.895   2.838   3.369  0.1443  0.1221  0.4569
 7457W        W11508   8.294   0.164  10.756 -0.0101  0.1124 -0.1400
 7458W        W11509   9.254   6.113  10.623 -0.0455  0.3567 -0.1486
 7459W        W11510   8.568   0.170  12.808  0.0930  0.0132 -0.1034
 7460W        W11511   8.173   6.655  13.821  0.0744  0.3275 -0.0795
 7461W        W11512   6.982   4.364  13.572  0.0395  0.1589  0.0291
 7462W        W11513  10.128   3.902  10.788 -0.1085 -0.1303 -0.2152
 7463W        W11514   5.751   0.189   9.856 -0.2864 -0.0427 -0.0629
 7464W        W11515   7.279   8.381  10.076  0.0235 -0.1316  0.1269
 7465W        W11516   0.662   2.288   1.621  0.3976  0.1686 -0.0175
 7466W        W11517   9.044   4.282  10.758 -0.0568  0.2539 -0.4174
 7467W        W11518   6.791   2.212   1.742  0.0169 -0.0998 -0.1871
 7468W        W11519   8.628   6.211   9.074 -0.1796  0.0622 -0.1581
 7469W        W11520   9.814   5.074   0.316 -0.2384 -0.0109  0.1252
 7470W        W11521   7.805   4.123  10.649  0.3623  0.0266 -0.1111
 7471W        W11522  10.180   0.614  12.788  0.0088 -0.1805  0.0734
 7472W        W11523   5.525   0.950   9.668 -0.0996 -0.2174 -0.0866
 7473W        W11524   8.620   4.804   4.134  0.2615 -0.0640 -0.0188
 7474W        W11525   6.352   3.692  12.614 -0.0503 -0.0441 -0.0907
 7475W        W11526   9.588   7.007  10.052  0.1757  0.0273 -0.4547
 7476W        W11527   0.935   0.623   0.361 -0.2009  0.0593 -0.1234
 7477W        W11528   4.464   8.563  11.340 -0.0221  0.0263  0.0153
 7478W        W11529   5.478   4.327   1.842 -0.0984 -0.2161 -0.1399
 7479W        W11530   1.246   8.800   1.969 -0.0400 -0.0045  0.0724
 7480W        W11531   5.769   6.051  11.546  0.1322  0.4523  0.2214
 7481W        W11532   6.427   4.149   1.887 -0.3370 -0.0668 -0.1785
 7482W        W11533   2.821   6.183  13.453 -0.0365  0.0973  0.0917
 7483W        W11534   8.356   2.810   8.950 -0.2270 -0.1690  0.2758
 7484W        W11535   2.131   5.400  10.185  0.0315  0.0066  0.0090
 7485W        W11536   9.170   6.276  11.499 -0.0869  0.0676 -0.3857
 7486W        W11537   8.894   6.307   1.178  0.1271 -0.2997 -0.1412
 7487W        W11538   0.059   0.861   1.146 -0.1599  0.2840  0.0950
 7488W        W11539   4.334   9.900   1.242  0.0744  0.1472 -0.0522
 7489W        W11540  10.203   8.343  11.049  0.2381 -0.0479  0.4361
 7490W        W11541   4.040   9.067  11.497 -0.1792  0.0362  0.0146
 7491W        W11542   6.245   6.062   1.796  0.2428  0.3137  0.1425
 7492W        W11543   2.243   4.229   9.339 -0.1147  0.2444  0.0252
 7493W        W11544   3.820   4.686  13.747 -0.2178 -0.0321 -0.0641
 7494W        W11545   2.265   3.744   2.909 -0.1939  0.1131  0.2574
 7495W        W11546   1.235   2.055   2.370 -0.0633 -0.1557  0.1794
 7496W        W11547   1.973   0.512  10.962 -0.0849 -0.1431  0.0824
 7497W        W11548   4.136   8.548   2.012  0.2565  0.1142 -0.1358
 7498W        W11549   4.992   5.803  10.830  0.1779 -0.3170 -0.1621
 7499W        W11550   2.117   5.997  12.813  0.0115  0.0185  0.2104
 7500W        W11551   7.401   6.372  11.316 -0.1874 -0.0807  0.2365
 7501W        W11552   8.065   8.907   1.114  0.0941  0.2115 -0.0253
 7502W        W11553   7.628   0.620   3.240 -0.1432  0.2256 -0.0690
 7503W        W11554   2.172   2.012   2.097 -0.1924  0.1086 -0.2374
 7504W        W11555   0.568   3.479   3.401  0.3164  0.0926 -0.1453
 7505W        W11556   8.269   2.445   2.596 -0.3400 -0.1856  0.1801
 7506W        W11557   9.661   1.602   1.171 -0.1266 -0.3471  0.0745
 7507W        W11558   0.407   7.582  12.728  0.0701  0.4050 -0.2848
 7508W        W11559   8.142   2.452   4.303  0.1047  0.0053  0.0767
 7509W        W11560   7.795   7.349  13.038 -0.2236  0.2995  0.2394
 7510W        W11561   7.979   3.658   3.277 -0.0154  0.4527 -0.1433
 7511W        W11562   3.697   0.654   3.350  0.3047 -0.3568 -0.0898
 7512W        W11563   1.423   4.732  12.430 -0.1501  0.2317  0.1793
 7513W        W11564   8.275   9.853   3.161 -0.1095  0.2614 -0.4609
 7514W        W11565   8.258   6.699   0.788  0.1475  0.1189 -0.0338
 7515W        W11566   2.745   2.236   1.823 -0.2849  0.2110 -0.0828
 7516W        W11567   2.435   8.973  13.392  0.1586 -0.3079  0.1665
 7517W        W11568   4.204   0.517  12.409  0.0746  0.1479  0.0135
 7518W        W11569   8.123   7.680  12.789 -0.0315  0.1412  0.0697
 7519W        W11570   3.281   0.505  13.558 -0.1095 -0.2261 -0.2471
 7520W        W11571   3.028   3.036  11.389 -0.2476 -0.1890  0.2551
 7521W        W11572   8.488   9.306  12.100  0.1599 -0.1452  0.0068
 7522W        W11573   4.435   1.946  12.255  0.2838 -0.1623 -0.3289
 7523W        W11574   0.870   8.118  12.169  0.0207 -0.1656 -0.2735
 7524W        W11575   8.897   9.785   2.781 -0.0677 -0.0670 -0.3677
 7525W        W11576  10.175   9.326   3.574  0.2783  0.1267 -0.0186
 7526W        W11577   1.099   3.860  11.245 -0.0088  0.1783  0.0218
 7527W        W11578  10.180   2.326  12.139 -0.1690 -0.4215 -0.0069
 7528W        W11579   2.299   9.303  12.308 -0.0888 -0.1850  0.2146
 7529W        W11580   7.281   4.880   2.903  0.0594 -0.0586 -0.0528
 7530W        W11581   0.751   3.935   4.452 -0.2440 -0.3199  0.0360
 7531W        W11582   2.729   1.117   2.605  0.1919  0.0996 -0.0108
 7532W        W11583   4.471   3.296   0.277 -0.0558 -0.0299 -0.2735
 7533W        W11584   3.518   9.322   1.953 -0.3370 -0.1029  0.2126
 7534W        W11585   4.906   7.911   3.677 -0.0706  0.0565  0.0345
 7535W        W11586   6.190   3.604   1.189 -0.2253  0.0293  0.0426
 7536W        W11587   5.580   9.026  12.684  0.1780 -0.2473  0.1565
 7537W        W11588   1.905   2.312   0.674 -0.1048  0.0750  0.1798
 7538W        W11589   2.573   2.323  12.376  0.1192  0.4506  0.4165
 7539W        W11590   2.343   8.606  13.037  0.0162 -0.2440 -0.1975
 7540W        W11591   6.258   8.577   1.287 -0.1179  0.1779  0.0096
 7541W        W11592   5.661   4.488  12.966  0.4629  0.1308 -0.0228
 7542W        W11593   8.403   8.176   2.797  0.0132  0.1644  0.2657
 7543W        W11594   0.391   9.875  10.279 -0.0406 -0.0766 -0.1615
 7544W        W11595   1.032   8.140   1.778 -0.3151 -0.1303 -0.0387
 7545W        W11596   2.113   2.754   5.540  0.1831  0.5522  0.0757
 7546W        W11597   3.930   8.096  12.504  0.0587  0.2332 -0.3051
 7547W        W11598   0.773   5.781  12.132  0.0636  0.1860 -0.1139
 7548W        W11599   8.320   3.498  11.946 -0.0370  0.0436  0.0083
 7549W        W11600   1.945   4.479   2.253 -0.0992  0.1463 -0.0339
 7550W        W11601   7.377   9.207  13.320  0.1887  0.1476  0.0093
 7551W        W11602   4.448   6.741   1.815 -0.4130  0.2980  0.0996
 7552W        W11603   3.361   5.201  13.503  0.1063 -0.0334 -0.0243
 7553W        W11604   5.815   9.384   1.705 -0.1096  0.2180 -0.1319
 7554W        W11605   4.236   4.720   4.833 -0.0551 -0.1099 -0.1540
 7555W        W11606   0.849   6.472   0.792  0.0341  0.4604  0.1210
 7556W        W11607   7.127   1.679  11.680  0.0168 -0.1071 -0.2013
 7557W        W11608   9.069   2.404  12.046 -0.4441 -0.0832  0.3041
 7558W        W11609   6.670   1.641   3.741 -0.2645  0.0316 -0.1130
 7559W        W11610   7.484   9.912  12.877 -0.1064 -0.1466  0.4920
 7560W        W11611   6.747   3.626   3.856 -0.0640 -0.1893 -0.1085
 7561W        W11612   3.046   7.345   4.620 -0.3142 -0.3099  0.0983
 7562W        W11613   6.004   1.444   0.572 -0.6040 -0.2816 -0.0476
 7563W        W11614   3.177   3.829   2.477  0.1964  0.5667 -0.1507
 7564W        W11615   3.897   3.098  10.686 -0.0942  0.2051 -0.1407
 7565W        W11616   9.402   2.240  10.622  0.0814  0.0607 -0.0933
 7566W        W11617   7.907   7.990  11.806  0.0783 -0.2634  0.0389
 7567W        W11618   6.598   0.542  11.062 -0.2020 -0.0365 -0.1289
 7568W        W11619   2.026   9.892  11.013  0.0596 -0.0766 -0.0525
 7569W        W11620   8.898   8.040  12.994  0.5207  0.1645 -0.1356
 7570W        W11621   8.677   0.826   3.211  0.1057 -0.1550 -0.3357
 7571W        W11622   0.786   1.444   2.101  0.4044 -0.0736 -0.2750
 7572W        W11623   3.376   2.072   9.915  0.0597 -0.0729 -0.1748
 7573W        W11624   5.121   5.074   3.346 -0.1843  0.2095 -0.2793
 7574W        W11625   4.989   1.987  10.590  0.2377 -0.2440 -0.2596
 7575W        W11626   2.282   1.346   9.716  0.1772  0.2207  0.3933
 7576W        W11627   5.176   6.750  11.176  0.1006  0.0688 -0.0646
 7577W        W11628   8.666   9.701  12.385  0.1969  0.3303  0.3599
 7578W        W11629   8.407   4.776   5.119 -0.0775 -0.1330  0.0465
 7579W        W11630   9.024   5.959   9.159  0.0469 -0.4065 -0.1516
 7580W        W11631   9.014   6.672   1.815  0.1130 -0.2144  0.1462
 7581W        W11632   4.642   8.258   4.003 -0.2011  0.1128  0.1046
 7582W        W11633   1.872   3.986   2.830  0.0568  0.0787  0.2486
 7583W        W11634   9.702   6.743  11.823  0.0213 -0.1830 -0.4317
 7584W        W11635   8.630   4.065   0.495 -0.1330 -0.2694  0.2614
 7585W        W11636   9.157   4.153   3.523  0.0093 -0.0346  0.0744
 7586W        W11637   2.296   6.663   0.641 -0.1278  0.2678  0.0378
 7587W        W11638  10.100   2.728  11.751 -0.0475  0.0643 -0.0002
 7588W        W11639   1.062   1.663   0.231 -0.0183 -0.2168 -0.2821
 7589W        W11640   4.180   4.708  10.475  0.1508  0.0326 -0.1472
 7590W        W11641   1.063   2.639   3.476 -0.1353  0.0589  0.2185
 7591W        W11642   0.089   3.582  13.560 -0.1107 -0.0569 -0.0301
 7592W        W11643   8.083   2.095   2.224  0.0334 -0.3827  0.0700
 7593W        W11644   4.064   6.018  12.678  0.0625  0.2763 -0.0417
 7594W        W11645   0.843   5.702   3.887  0.0196 -0.1568  0.3881
 7595W        W11646   2.086   6.479   9.187 -0.1573  0.0952  0.0531
 7596W        W11647   8.302   1.006   4.155  0.0422 -0.1581 -0.0626
 7597W        W11648   1.802   1.472   4.707  0.0467  0.0368  0.2333
 7598W        W11649   5.135   6.100  11.608 -0.0989 -0.0735  0.0870
 7599W        W11650   3.657   5.669  13.690  0.0584  0.0026 -0.3980
 7600W        W11651   9.589   5.038  12.030  0.1095  0.0913  0.3998
 7601W        W11652   3.670  10.102   1.084 -0.1872  0.2860  0.4039
 7602W        W11653   9.482   2.476   1.889  0.4119  0.2987 -0.0499
 7603W        W11654   2.235   3.859   1.572  0.1053 -0.0316  0.0691
 7604W        W11655   3.899   1.324   9.870 -0.3299  0.0983  0.1070
 7605W        W11656   7.694   2.718  13.696 -0.3393 -0.2164  0.0531
 7606W        W11657  10.110   3.191  11.456  0.0634  0.0004  0.0117
 7607W        W11658   4.048   2.653   4.503  0.4532  0.2564 -0.2190
 7608W        W11659   9.634   6.915   2.851 -0.2018  0.0205 -0.1349
 7609W        W11660   1.022   6.352   9.780 -0.1194 -0.0843  0.1651
 7610W        W11661   8.310  10.134   2.324  0.0449  0.1207 -0.2155
 7611W        W11662   2.565   3.319  11.148  0.1460 -0.1195 -0.0932
 7612W        W11663   0.924   5.095   9.048  0.1394  0.0447  0.1618
 7613W        W11664   0.470   2.239  12.302 -0.2975  0.1308  0.1379
 7614W        W11665   3.178   3.015   8.625  0.0335  0.1095  0.2531
 7615W        W11666   7.006   0.022  11.272  0.0181 -0.2649 -0.1647
 7616W        W11667   6.280   0.335   1.702  0.2001  0.0694 -0.1186
 7617W        W11668   8.906   0.669   2.570 -0.1689  0.1088  0.3562
 7618W        W11669   7.482   5.575  12.203  0.0722  0.1694  0.1078
 7619W        W11670   0.143   6.748   1.646 -0.0379 -0.0045  0.5343
 7620W        W11671   3.106   4.845  10.207 -0.0731  0.2690 -0.2626
 7621W        W11672   9.193   0.918   0.083  0.0171  0.1884 -0.0315
 7622W        W11673   0.034   6.852   4.442  0.0551 -0.1692 -0.0373
 7623W        W11674   5.422   4.956  12.878 -0.0467  0.0159  0.1051
 7624W        W11675   7.088   3.600  10.390  0.2251  0.1430  0.2621
 7625W        W11676   6.118  10.071  12.667  0.4585  0.1370 -0.0778
 7626W        W11677   3.761   7.297   2.041  0.1299  0.0427  0.4536
 7627W        W11678   2.896   9.351   3.121  0.2167 -0.3448  0.3930
 7628W        W11679   5.627   7.286   1.636  0.3096  0.0501 -0.2727
 7629W        W11680   1.474   0.164   8.784  0.1249 -0.2093 -0.1516
 7630W        W11681   4.787   7.510  12.606  0.0559  0.0672 -0.0068
 7631W        W11682   3.583   0.702  10.969  0.1159  0.1274  0.0776
 7632W        W11683   3.923   5.207   1.587  0.0977 -0.0029 -0.0393
 7633W        W11684   0.910   4.651   8.778  0.2527  0.3610  0.1415
 7634W        W11685   0.222   7.001   3.232 -0.0509 -0.0297 -0.2331
 7635W        W11686   0.568   6.140  10.965  0.0988 -0.1510 -0.0401
 7636W        W11687   4.557   4.655   5.251  0.2198  0.3481 -0.0148
 7637W        W11688   9.648   0.508  10.413 -0.0570  0.2895 -0.0029
 7638W        W11689   4.498   4.874   2.427  0.2190  0.0407 -0.0423
 7639W        W11690   3.075   3.587   1.406 -0.0209 -0.0566  0.0962
 7640W        W11691   4.429   2.446  10.347 -0.0131 -0.1061 -0.0648
 7641W        W11692   3.998   3.731  12.651 -0.1577 -0.0899 -0.0679
 7642W        W11693   3.046   7.305   1.579  0.2016  0.1453 -0.0711
 7643W        W11694   5.365   1.932  12.426  0.0337  0.2332 -0.2438
 7644W        W11695   2.548   1.526  12.276  0.0403  0.2684  0.0590
 7645W        W11696   1.744   1.137   4.125 -0.2484 -0.2186 -0.0018
 7646W        W11697   4.341   7.381  10.924 -0.0677 -0.0968 -0.0351
 7647W        W11698   8.034   9.900  11.077  0.0441 -0.0890 -0.2741
 7648W        W11699   0.599   8.531   3.410 -0.3591 -0.0137  0.0075
 7649W        W11700   4.448   1.951   2.154  0.0900 -0.2486  0.2002
 7650W        W11701   9.971   8.065   3.112 -0.0553  0.0248  0.1826
 7651W        W11702   2.174   1.217   0.051  0.0567 -0.0052 -0.2701
 7652W        W11703   2.380   9.894   3.252  0.1791  0.1476 -0.3383
 7653W        W11704   1.391   6.267   2.430 -0.0873  0.0663 -0.1297
 7654W        W11705   1.316   1.522   2.433 -0.1039  0.1935 -0.1105
 7655W        W11706   0.156  10.071   3.814  0.2081  0.0330  0.0263
 7656W        W11707   8.738   9.703  10.469  0.1839 -0.1625 -0.2003
 7657W        W11708   5.882   2.199   2.495  0.2957 -0.0214  0.4417
 7658W        W11709   4.928   1.950   3.082  0.2679 -0.2080  0.0892
 7659W        W11710   8.653   4.153   3.436  0.1202 -0.0162 -0.0074
 7660W        W11711   4.595   9.356  12.066  0.2386  0.2080  0.1409
 7661W        W11712   5.371   6.961  13.703  0.1496 -0.4547  0.1175
 7662W        W11713   4.095   2.128   4.571  0.1243  0.3461 -0.0491
 7663W        W11714   2.364   2.569  13.280 -0.3018  0.1107  0.0561
 7664W        W11715   7.964   1.685  10.975  0.3294  0.3053  0.0650
 7665W        W11716   4.000   1.645   2.142  0.0853  0.0254 -0.0642
 7666W        W11717   8.721   3.377  11.642 -0.2501 -0.0714 -0.2159
 7667W        W11718   8.136   9.928   1.078 -0.1778  0.3334  0.0315
 7668W        W11719   7.907   2.781   8.790  0.1242 -0.2119  0.0058
 7669W        W11720   2.154   5.115  13.138 -0.0830  0.0222 -0.3323
 7670W        W11721   1.111   0.889  12.325 -0.0980 -0.4465  0.0589
 7671W        W11722   2.284   5.059  12.693  0.2810  0.2343 -0.0857
 7672W        W11723   8.240   4.907  13.322  0.3190 -0.1146  0.1074
 7673W        W11724   3.001   0.142  12.245 -0.1493  0.1289  0.2850
 7674W        W11725   9.667   3.792   4.213 -0.2480 -0.1951  0.0731
 7675W        W11726   6.555   9.151   9.695  0.0040  0.0310 -0.4149
 7676W        W11727   2.469   9.157   2.823 -0.1600  0.0234  0.0834
 7677W        W11728   2.507   9.785  11.140 -0.0678  0.1848  0.3774
 7678W        W11729   9.113   9.808   4.015  0.1491 -0.2719  0.6290
 7679W        W11730   5.089   5.409  13.474 -0.1439  0.1006  0.1277
 7680W        W11731   3.368   5.096  11.999 -0.1068 -0.3808 -0.0410
 7681W        W11732   2.980   3.087   0.883  0.1363  0.0787  0.1085
 7682W        W11733   8.864   5.945  11.265  0.1232  0.2094  0.4885
 7683W        W11734   4.040   6.857   0.500 -0.0548  0.0668  0.0000
 7684W        W11735   3.032   2.581   5.377 -0.1890 -0.0545  0.1265
 7685W        W11736   2.376   9.589   0.165 -0.0810  0.2317  0.4341
 7686W        W11737   0.117   1.749   2.752  0.3842 -0.0420 -0.1013
 7687W        W11738   1.624   3.715   9.818 -0.0632 -0.2251  0.0027
 7688W        W11739   4.328   7.725  11.315  0.2378 -0.2208  0.1616
 7689W        W11740   0.471  10.127   0.110 -0.3165  0.3711  0.3356
 7690W        W11741   2.356   5.595   2.321  0.0396  0.3664 -0.1249
 7691W        W11742   2.736   0.727   1.552  0.1036 -0.0238  0.0590
 7692W        W11743   3.700   9.068   0.307  0.0111 -0.5373 -0.0806
 7693W        W11744   7.115   8.986   2.206 -0.1002 -0.4403  0.1612
 7694W        W11745   9.131   4.020   1.241 -0.2343  0.1379  0.1122
 7695W        W11746   8.663   4.178  10.437 -0.0743  0.2134  0.2429
 7696W        W11747   6.599   0.515   1.280 -0.2200 -0.3240  0.2065
 7697W        W11748   3.853   4.560   1.009 -0.1859 -0.2119 -0.0319
 7698W        W11749   8.316   7.992   3.296  0.0847  0.1024  0.1456
 7699W        W11750   2.487   5.439  12.394 -0.1925 -0.1802  0.0519
 7700W        W11751   0.608   9.806   1.267  0.3307  0.0165  0.2096
 7701W        W11752   2.620   7.387  11.226  0.2773  0.2207 -0.2954
 7702W        W11753   4.270   1.531  12.810 -0.3516  0.1187  0.1764
 7703W        W11754  10.123   5.025   1.763 -0.4366 -0.1844  0.3707
 7704W        W11755   2.450   8.156  11.578  0.2224 -0.1719 -0.1069
 7705W        W11756   1.466   0.230   3.963 -0.1292 -0.1752  0.0833
 7706W        W11757  10.086   1.434   3.435  0.3911  0.3370 -0.1437
 7707W        W11758   3.260   4.350   2.350  0.2958  0.2681 -0.2729
 7708W        W11759  10.183   1.733  12.313  0.1508 -0.2358  0.0652
 7709W        W11760   3.559   8.374   1.179  0.2351  0.0024 -0.0292
 7710W        W11761   5.745   1.059   0.739 -0.2403 -0.1513  0.0644
 7711W        W11762   7.261   5.507   1.852 -0.0184  0.0715  0.0092
 7712W        W11763   0.715   7.711  11.269  0.5664  0.0988  0.0628
 7713W        W11764  10.150   4.085  13.481  0.1540 -0.0527 -0.2784
 7714W        W11765   6.967   5.507   2.800 -0.1419 -0.0106  0.2467
 7715W        W11766   9.655   3.290  10.664  0.1305  0.0993  0.0194
 7716W        W11767   2.886   4.255   1.732  0.3284  0.1130 -0.2397
 7717W        W11768   9.270   7.589   2.917  0.1678  0.2686  0.0613
 7718W        W11769   5.513   1.104  11.704 -0.0119 -0.2959  0.1318
 7719W        W11770   0.945   4.829  13.508  0.2089 -0.1037  0.2644
 7720W        W11771   7.973   1.357   3.898 -0.2266  0.1611  0.4108
 7721W        W11772   3.603   5.159   1.972 -0.4771  0.2232  0.0948
 7722W        W11773   5.484   4.908  10.117 -0.1323 -0.0154  0.0263
 7723W        W11774   9.613   5.544   1.115  0.1486  0.1036  0.2892
 7724W        W11775   5.881   1.369   1.615 -0.0597  0.2324  0.1347
 7725W        W11776   4.470   6.404  11.049 -0.0052  0.0838  0.0987
 7726W        W11777   1.157   9.375  12.215  0.1414  0.5382 -0.0204
 7727W        W11778   5.583   6.920   2.567  0.1195  0.0320 -0.2880
 7728W        W11779   4.400   7.995  11.797  0.1046 -0.0693  0.0810
 7729W        W11780   0.240   3.157   1.719 -0.0101  0.2188  0.0386
 7730W        W11781   0.165  10.091   1.091 -0.0329  0.1191 -0.0239
 7731W        W11782   7.819   8.682  11.787 -0.0482  0.2543  0.1060
 7732W        W11783   9.688   3.421   5.690 -0.2323 -0.1392  0.3860
 7733W        W11784   1.524   8.836   9.949  0.2763  0.1840  0.0650
 7734W        W11785   0.067   0.607   4.104 -0.0060 -0.0746 -0.0354
 7735W        W11786   1.432   7.437   1.957 -0.1433  0.0456  0.2854
 7736W        W11787   9.098   7.288   3.539 -0.0108 -0.0409 -0.1034
 7737W        W11788   3.902   3.837  10.062  0.1461  0.0148 -0.0151
 7738W        W11789   5.545   3.822  13.595  0.0910 -0.0504 -0.1087
 7739W        W11790   0.496   9.769   0.823 -0.0969 -0.1264 -0.1362
 7740W        W11791   4.172   5.209   2.625  0.2320 -0.0581 -0.0483
 7741W        W11792   5.372   0.868   1.036 -0.0585  0.1084 -0.0871
 7742W        W11793   9.962   7.417  10.311  0.0328  0.1699  0.0212
 7743W        W11794   1.949   3.275   4.057  0.0652 -0.0378  0.0422
 7744W        W11795   7.927   3.109   4.766  0.0807  0.2455  0.0852
 7745W        W11796   5.165   6.863   0.892 -0.1748  0.1279 -0.3103
 7746W        W11797   8.791   3.162   4.432  0.0355 -0.1620 -0.2613
 7747W        W11798   6.556   6.551  10.419  0.0294 -0.4144 -0.4403
 7748W        W11799   2.639   5.401   0.997  0.2450  0.0779  0.2493
 7749W        W11800   7.106   5.680  12.492  0.1878 -0.2094 -0.0283
 7750W        W11801   3.068   0.540  10.237 -0.2447 -0.1390  0.0681
 7751W        W11802   9.094   4.733   2.776  0.1714 -0.1269 -0.2897
 7752W        W11803   3.970   4.901   2.241  0.0076  0.1376  0.2566
 7753W        W11804   4.577   7.142  11.440 -0.2633 -0.0252  0.0913
 7754W        W11805   0.835  10.117   4.261  0.1076 -0.0678 -0.1392
 7755W        W11806   1.590  10.140   2.556 -0.0315 -0.2404  0.0741
 7756W        W11807   2.637   5.940   0.966 -0.1723 -0.2789 -0.1884
 7757W        W11808   9.154   7.816   0.328 -0.1928 -0.3203 -0.1307
 7758W        W11809   8.910   0.498   0.061  0.1664 -0.0540 -0.4147
 7759W        W11810   6.296   7.192  12.814  0.0272 -0.0711  0.0125
 7760W        W11811   7.961   7.821   2.886  0.0218  0.0555  0.0198
 7761W        W11812   1.694   1.746  12.506 -0.0380 -0.0677  0.0119
 7762W        W11813   4.571   0.923  11.253 -0.1136  0.0095 -0.1063
 7763W        W11814   3.925   8.956   3.074  0.0102 -0.1852 -0.3161
 7764W        W11815   5.346   5.914  12.783 -0.0790 -0.1897  0.0884
 7765W        W11816   5.379   6.470   1.449  0.0843  0.4112 -0.1459
 7766W        W11817   3.297   8.822   1.868 -0.2663 -0.0496  0.0260
 7767W        W11818   4.483  10.092   0.800  0.1431  0.3496 -0.2041
 7768W        W11819   8.671   5.810   1.849 -0.1818 -0.0682 -0.1424
 7769W        W11820   8.967   1.376   0.111 -0.1425  0.0989 -0.0331
 7770W        W11821   2.833   7.377   0.434  0.0639 -0.1792 -0.2097
 7771W        W11822   9.260   8.182   3.036  0.2078  0.0595 -0.3808
 7772W        W11823   1.806   5.697   4.363  0.0070  0.1815 -0.2784
 7773W        W11824   6.757   4.957   2.163  0.1563  0.5747  0.0178
 7774W        W11825   0.723   2.354  13.824 -0.1341 -0.0064  0.0703
 7775W        W11826   8.956   8.535   3.159  0.0580  0.2483  0.1519
 7776W        W11827   7.094   3.256  12.385 -0.2203  0.3753  0.4164
 7777W        W11828   6.586   9.230  11.487 -0.1740 -0.1874  0.0213
 7778W        W11829   0.563   1.429   0.416 -0.0896 -0.0763 -0.2416
 7779W        W11830   5.732   6.524  12.907  0.1311  0.0443 -0.1352
 7780W        W11831   1.471   5.274   9.681  0.1100  0.1329  0.3344
 7781W        W11832   2.156   7.746   2.861  0.0171  0.0486  0.1777
 7782W        W11833   8.139   5.087   0.382 -0.2854 -0.0533 -0.1490
 7783W        W11834   2.924   7.797  11.031  0.2816 -0.1058  0.0061
 7784W        W11835   6.208   5.961  13.490  0.2420 -0.1859  0.0454
 7785W        W11836   7.089   4.382   9.374 -0.0603  0.1390 -0.2155
 7786W        W11837   1.798   6.300  10.128  0.0243  0.0145  0.1275
 7787W        W11838   3.617   6.259  10.856 -0.1856  0.0945 -0.1394
 7788W        W11839   4.948   6.113  13.640 -0.1229  0.0772 -0.1443
 7789W        W11840   5.252   9.981   2.060  0.1173 -0.2584 -0.2529
 7790W        W11841   6.740   9.854  13.428  0.2563  0.0235  0.2426
 7791W        W11842   0.555   5.050  12.293 -0.2150  0.1251  0.0885
 7792W        W11843   8.509   1.380   1.492  0.0391  0.2049  0.2075
 7793W        W11844   1.801   9.593  11.667 -0.0997 -0.2128 -0.0358
 7794W        W11845   0.397   5.767   3.758  0.2081 -0.3673 -0.0720
 7795W        W11846   0.401   6.904   3.708 -0.2242  0.0971 -0.1488
 7796W        W11847   0.659   4.890   2.209  0.3077 -0.2036  0.3800
 7797W        W11848   0.947   0.866  13.290 -0.1950 -0.1820 -0.2794
 7798W        W11849   0.309   0.926   0.241  0.2854 -0.1916  0.5672
 7799W        W11850   2.162   8.186   0.703 -0.1803 -0.1494  0.1494
 7800W        W11851   0.119   4.936   2.211 -0.0931 -0.0872  0.2004
 7801W        W11852   9.543   2.669   0.235 -0.1664  0.0459 -0.1862
 7802W        W11853   5.533   8.420   1.925  0.1967 -0.2834 -0.1207
 7803W        W11854   5.961   6.168   2.180 -0.1711  0.2820  0.0409
 7804W        W11855   9.275   1.148  11.253  0.3089 -0.0319  0.0615
 7805W        W11856   8.530   5.532  11.086 -0.0981 -0.0779  0.0613
 7806W        W11857   4.752   8.128  12.736 -0.1113  0.0919 -0.3111
 7807W        W11858   4.663   3.177   3.203  0.0641  0.0566 -0.1617
 7808W        W11859   6.804   3.769  10.042  0.2593 -0.1892  0.4652
 7809W        W11860   5.052   0.760   1.436  0.0030  0.5195 -0.0416
 7810W        W11861   0.990   3.774   2.610 -0.2672  0.0016 -0.1583
 7811W        W11862   7.279   3.655   4.229 -0.1045  0.1225  0.0121
 7812W        W11863   0.263   9.355  12.119 -0.0950  0.1118 -0.1076
 7813W        W11864   2.233   9.387   3.205  0.0607 -0.0806  0.1269
 7814W        W11865   2.107   6.871  13.521  0.0174  0.0724  0.2446
 7815W        W11866   2.983   1.309  13.328  0.0883 -0.0026 -0.1768
 7816W        W11867   9.157   7.199   1.989  0.1360  0.0525 -0.2076
 7817W        W11868   8.706   1.001  13.660  0.0260 -0.1273 -0.3463
 7818W        W11869   6.084   2.139   4.079  0.0094  0.1606 -0.0579
 7819W        W11870   6.115   4.090  12.784 -0.0268  0.0042 -0.1211
 7820W        W11871   8.076   4.801   0.010 -0.2398 -0.2389 -0.2064
 7821W        W11872   2.808   3.378   9.419 -0.1864  0.2402 -0.2395
 7822W        W11873   0.895   0.749   9.945  0.0169  0.4096  0.3542
 7823W        W11874   8.106   3.124   0.032 -0.1872 -0.0199 -0.1419
 7824W        W11875   9.200   1.373   9.968 -0.0597 -0.1395  0.1144
 7825W        W11876   5.495   4.070   2.434 -0.0866 -0.1272  0.2574
 7826W        W11877   4.346   8.877   2.796 -0.1649  0.0858  0.0495
 7827W        W11878   9.990   6.900   2.438  0.4310  0.1015 -0.3457
 7828W        W11879   9.921   3.519   0.255 -0.2874 -0.3070 -0.1684
 7829W        W11880   5.939   1.388  12.467 -0.1092 -0.1486 -0.1308
 7830W        W11881   7.824   8.661  12.699 -0.6238 -0.0291  0.5171
 7831W        W11882   1.706   9.373  11.224  0.0704 -0.1081  0.1738
 7832W        W11883   7.953   3.424   0.699 -0.0170  0.3580  0.1125
 7833W        W11884   8.066   9.316  11.227 -0.1077  0.2570  0.1010
 7834W        W11885   6.477   1.774   1.065 -0.2606 -0.0823  0.0880
 7835W        W11886   8.668   2.630  13.476 -0.2191 -0.5510  0.0704
 7836W        W11887   7.359   9.215  12.095  0.0237  0.4084 -0.1580
 7837W        W11888   9.410   6.683   0.028 -0.5480 -0.0227 -0.1756
 7838W        W11889   9.123   3.333   4.806  0.5386 -0.2274  0.2332
 7839W        W11890   5.259   8.822   3.285  0.2219  0.1100  0.4597
 7840W        W11891   9.433   6.406   3.141  0.1571  0.0527  0.3140
 7841W        W11892   1.925   2.386  13.139  0.0959  0.1496 -0.3066
 7842W        W11893   4.942   6.214  11.157 -0.1005  0.1058 -0.0372
 7843W        W11894   3.349   3.653  11.866 -0.2278 -0.0999  0.0723
 7844W        W11895   4.221   0.004   8.948  0.1762 -0.0345  0.1701
 7845W        W11896   3.564   5.075  13.017 -0.0585  0.0147 -0.1910
 7846W        W11897   8.144   1.868   0.120  0.0998  0.0719 -0.1935
 7847W        W11898   0.928   4.038   3.048  0.2723  0.0869  0.0450
 7848W        W11899   6.459   3.018  10.697  0.1154  0.0150  0.0337
 7849W        W11900   1.065   3.562   9.148  0.0238  0.1138 -0.2753
 7850W        W11901   6.161   2.006   9.948  0.0628 -0.1356  0.0586
 7851W        W11902   6.117   4.279   3.064  0.0060 -0.0357  0.3122
 7852W        W11903   7.457   1.753   1.554 -0.0852 -0.0278 -0.1683
 7853W        W11904   9.405   9.365  10.702 -0.0008  0.1149 -0.0271
 7854W        W11905   3.172   5.841   3.512 -0.0471  0.1700  0.1404
 7855W        W11906   5.632   9.854  12.232  0.6176  0.1868  0.1152
 7856W        W11907   9.146   6.612  10.373 -0.0707  0.0511  0.2081
 7857W        W11908   5.700   4.460   3.327 -0.0279  0.0105  0.2107
 7858W        W11909   2.624   1.889  10.491  0.0965  0.0512  0.1427
 7859W        W11910   8.737   4.418   0.917 -0.0353  0.1139 -0.2117
 7860W        W11911   6.691   7.834   3.755  0.2613  0.1139 -0.1720
 7861W        W11912   1.692   5.682   9.783 -0.3416 -0.0734  0.2248
 7862W        W11913   2.197   7.343  13.206  0.0725 -0.0500 -0.0455
 7863W        W11914   6.563   0.246  12.077  0.1509 -0.0303 -0.0852
 7864W        W11915   5.359   2.269   3.339  0.0489  0.1161  0.3062
 7865W        W11916   4.611   1.467   1.261 -0.0206  0.1114 -0.0387
 7866W        W11917   3.776   4.532   2.566  0.1742 -0.1410  0.1097
 7867W        W11918   6.568   8.696   2.620 -0.2400 -0.2535  0.0412
 7868W        W11919   3.919   8.604   0.855  0.0983  0.0921 -0.4450
 7869W        W11920   4.947   6.227   1.454 -0.1634  0.0231 -0.3654
 7870W        W11921   1.415   0.413   9.236 -0.2062  0.2164  0.1748
 7871W        W11922   0.601   9.307   1.412  0.3394 -0.3377 -0.0632
 7872W        W11923   7.639   3.658  13.044  0.0586 -0.0823 -0.0822
 7873W        W11924   7.307   4.002  10.570  0.0369 -0.1846 -0.2565
 7874W        W11925   4.290   1.150   2.817 -0.0886  0.0055 -0.2993
 7875W        W11926   7.384   1.243   0.959  0.0870  0.1782  0.0814
 7876W        W11927   7.720   6.097  11.606 -0.2272 -0.4311 -0.3761
 7877W        W11928   7.338   8.493  12.676 -0.4581  0.2046  0.2414
 7878W        W11929   9.010   4.617   9.801  0.1038 -0.0285  0.0737
 7879W        W11930   0.981   4.357   2.419  0.2532 -0.3461 -0.2242
 7880W        W11931   3.131   6.827  12.439 -0.1297 -0.2706  0.1915
 7881W        W11932   2.518   8.563  13.801 -0.1438  0.1645 -0.0396
 7882W        W11933   1.064   7.388   2.926  0.2446 -0.2587  0.1371
 7883W        W11934   9.190  10.122   3.097  0.2214 -0.2189  0.1893
 7884W        W11935   2.834   6.935   4.120  0.1448  0.1180  0.2889
 7885W        W11936   6.554   4.953   3.377 -0.1424  0.2653  0.1240
 7886W        W11937   4.684   2.062  13.629 -0.1831  0.0646  0.2251
 7887W        W11938   6.292   7.506   0.189 -0.1818 -0.2866  0.0133
 7888W        W11939   5.644   4.311   0.116 -0.4763  0.1709 -0.2732
 7889W        W11940   4.786   8.356   0.207  0.0075 -0.2419 -0.1009
 7890W        W11941   0.484   2.859   2.481  0.0464 -0.1299 -0.0420
 7891W        W11942   0.300   2.753  12.056  0.3468  0.1888 -0.0662
 7892W        W11943   0.231   7.940   2.449 -0.2518 -0.1412  0.2123
 7893W        W11944   5.749   8.122   2.306  0.0490  0.0162  0.3090
 7894W        W11945   6.749   4.795   9.081 -0.2650 -0.1480  0.0261
 7895W        W11946   5.662   8.204   0.530  0.2442  0.0656  0.0054
 7896W        W11947   7.467   4.502  10.958  0.2978  0.2426  0.0619
 7897W        W11948   4.319   1.241   0.377 -0.2216  0.2616  0.1955
 7898W        W11949   8.852   0.034   4.000 -0.0057 -0.2199 -0.1122
 7899W        W11950   4.591   9.263  10.307 -0.0203 -0.1358 -0.1404
 7900W        W11951   3.698   4.283   3.657 -0.0353  0.2691 -0.0100
 7901W        W11952   6.243   6.718  13.726  0.1908 -0.2378 -0.0185
 7902W        W11953   0.365   3.660  10.852 -0.3688  0.0637  0.2506
 7903W        W11954   9.446   3.422   0.366  0.0948 -0.3343  0.1134
 7904W        W11955   2.764   7.419  10.275 -0.0614 -0.1002 -0.1925
 7905W        W11956   3.927   2.541   0.693  0.0153 -0.0384 -0.7123
 7906W        W11957   2.939   5.340  11.301  0.1369 -0.2712 -0.0827
 7907W        W11958   9.554   0.204   1.367 -0.2523  0.2509 -0.2161
 7908W        W11959   8.513   0.035  10.327 -0.0784 -0.0489  0.1463
 7909W        W11960   9.795   7.793  12.248  0.2221 -0.2534  0.2891
 7910W        W11961   0.659   5.578   0.902  0.1959 -0.1909  0.0132
 7911W        W11962   1.347   3.777  10.672 -0.0248 -0.1087 -0.1023
 7912W        W11963   1.764   6.699  11.906  0.0569  0.0315 -0.2179
 7913W        W11964   0.209   9.385   1.060 -0.3855 -0.0822 -0.0062
 7914W        W11965   6.814   0.919   4.151  0.0928  0.0397 -0.4004
 7915W        W11966   2.820   2.155   3.977  0.2168  0.2583 -0.4831
 7916W        W11967   0.698   7.907   2.799 -0.1903  0.0029 -0.3371
 7917W        W11968   5.714   6.155   1.292 -0.0638 -0.1526 -0.3044
 7918W        W11969   0.041  10.068   1.890 -0.3869 -0.3707  0.0715
 7919W        W11970   4.767   7.866  13.188 -0.1957 -0.2444  0.2004
 7920W        W11971   0.017   8.939   0.819 -0.2356 -0.0582  0.4772
 7921W        W11972   4.847   0.766   3.412 -0.1866 -0.0523 -0.2686
 7922W        W11973   8.131   6.416   1.318 -0.2133 -0.3026 -0.1926
 7923W        W11974   1.683   5.865   3.783 -0.2584  0.0524  0.1268
 7924W        W11975   0.921   0.177  11.297  0.3454  0.2605  0.0391
 7925W        W11976   2.026   0.888  11.894  0.0272  0.1990 -0.0243
 7926W        W11977   7.594   6.629   2.984 -0.1236 -0.0922 -0.2093
 7927W        W11978   9.140   3.362   2.097 -0.1858 -0.0570  0.0674
 7928W        W11979  10.061   1.317   2.774 -0.0818  0.1399  0.1262
 7929W        W11980   6.689   3.248   1.961  0.0102 -0.4027 -0.4218
 7930W        W11981   1.195   4.817   0.746 -0.1519 -0.0794 -0.1915
 7931W        W11982   5.813   5.090  12.390  0.0924 -0.0449 -0.3796
 7932W        W11983   0.289   8.019   3.053  0.0555  0.0769 -0.2658
 7933W        W11984   9.762   0.246   2.296  0.0551 -0.1503  0.2942
 7934W        W11985   7.236   3.719   0.198 -0.0592  0.0191 -0.0497
 7935W        W11986   2.315   8.596  11.084  0.0373 -0.0506 -0.0108
 7936W        W11987   6.792   2.503   4.409  0.0782 -0.0546  0.2643
 7937W        W11988   3.798   9.842  10.725  0.0836 -0.0230  0.0532
 7938W        W11989   2.499   1.303   2.207  0.1972  0.1855 -0.2363
 7939W        W11990   1.053   9.846  13.511  0.2137  0.1301  0.0511
 7940W        W11991   4.174   5.002   0.162 -0.3419 -0.0201 -0.0030
 7941W        W11992   3.790   4.547   0.358 -0.0475  0.1763  0.4284
 7942W        W11993   8.836   1.142   4.127  0.0119 -0.0864 -0.0386
 7943W        W11994   9.962   9.183  12.033 -0.3456  0.3508 -0.2346
 7944W        W11995   0.898   3.333  10.898 -0.0329  0.2003 -0.1325
 7945W        W11996  10.075   2.217   1.466  0.1969  0.1603  0.0282
 7946W        W11997   4.683   5.412  10.899 -0.1379  0.1576  0.0722
 7947W        W11998   9.766   0.931  11.033 -0.2389 -0.1093  0.2122
 7948W        W11999   0.025   2.602   3.270  0.0042  0.0854 -0.0140
 7949W        W12000   5.076   4.217   2.733 -0.1251  0.1032 -0.2766
 7950W        W12001   7.314   4.193   4.932 -0.4397  0.1710 -0.1857
 7951W        W12002   4.061   0.573   2.068  0.2424 -0.1567  0.2997
 7952W        W12003   8.530   7.140  13.564  0.2552 -0.0898  0.4117
 7953W        W12004   2.343   7.277   9.538 -0.3106  0.0451  0.0334
 7954W        W12005   7.504   7.920  11.411  0.2169 -0.0027  0.0131
 7955W        W12006   3.988   9.039  12.492 -0.1227 -0.0037 -0.1963
 7956W        W12007   1.501   2.805   4.884 -0.1644 -0.1620  0.1431
 7957W        W12008   2.290   4.815   1.871  0.0716  0.0073 -0.1726
 7958W        W12009   5.811   7.027  13.471 -0.2796  0.0271 -0.1371
 7959W        W12010   2.052   8.629  13.470  0.5019  0.0446 -0.0326
 7960W        W12011   7.800   9.508  10.825  0.1228 -0.0174  0.1120
 7961W        W12012   0.629   2.272   1.156 -0.0270  0.0656 -0.0585
 7962W        W12013   4.590   0.830   4.910 -0.0477  0.0620 -0.2528
 7963W        W12014   6.710   5.077  11.915  0.2008 -0.0312 -0.1019
 7964W        W12015   0.480   7.533  10.445  0.2019 -0.1499  0.1825
 7965W        W12016   1.866   6.683  10.926 -0.0564 -0.0285 -0.1774
 7966W        W12017  10.207   7.446  12.121 -0.0078 -0.1162 -0.1524
 7967W        W12018   6.958   1.408   4.133 -0.0244 -0.0205 -0.0645
 7968W        W12019   8.470   0.712   1.109 -0.2034  0.2245 -0.1762
 7969W        W12020   8.296   5.519   0.641  0.1081 -0.3618  0.2032
 7970W        W12021   0.989   8.458  12.632  0.0849 -0.2321 -0.1518
 7971W        W12022   2.702   9.079  12.135  0.0126 -0.0019 -0.0688
 7972W        W12023   7.179   4.958  11.068 -0.0719  0.1848 -0.0445
 7973W        W12024   0.153   9.186   9.261  0.1782  0.1027  0.0602
 7974W        W12025   2.796   8.734   3.743  0.1409 -0.1684  0.1436
 7975W        W12026   1.330   7.540  13.025 -0.2140  0.0800 -0.0128
 7976W        W12027   1.388   7.581  12.424 -0.1007 -0.0733 -0.1157
 7977W        W12028   3.075   0.141  11.741 -0.1250 -0.1807  0.1561
 7978W        W12029   8.523   5.524   3.219 -0.2568  0.0333 -0.0350
 7979W        W12030   9.587  10.202  13.727 -0.2693 -0.2891  0.0631
 7980W        W12031   7.429   5.418  10.141  0.3609 -0.2924  0.2794
 7981W        W12032   9.433   4.169   9.236  0.0345  0.2726  0.2347
 7982W        W12033   2.789   1.402  10.372  0.1996  0.3457  0.0177
 7983W        W12034   6.297   9.669  11.413  0.1812 -0.0309 -0.1090
 7984W        W12035   1.261   8.529   3.437  0.4256  0.3417  0.1153
 7985W        W12036   2.570   2.993  11.649  0.3053 -0.2060 -0.0715
 7986W        W12037   5.629   9.789   2.367 -0.1192  0.3029 -0.1236
 7987W        W12038   5.678   9.009  11.851  0.0109 -0.3376  0.2613
 7988W        W12039   3.538   8.889   2.316  0.1535 -0.1456  0.1842
 7989W        W12040   2.278   0.944   0.539  0.0738 -0.0085 -0.0174
 7990W        W12041   1.232   9.501   2.550  0.5444 -0.1548 -0.4197
 7991W        W12042   2.105   7.666   4.301 -0.2958 -0.2784  0.1294
 7992W        W12043   9.535   5.651  10.663  0.0230 -0.0065  0.1201
 7993W        W12044   0.371   3.157  13.468 -0.1732 -0.2097  0.4654
 7994W        W12045   1.946   1.526   2.842  0.1652 -0.2825  0.1558
 7995W        W12046   0.286   9.749  11.255 -0.2061  0.0904 -0.2259
 7996W        W12047   0.583   8.403   2.923 -0.0987 -0.0084 -0.0311
 7997W        W12048   4.393   3.540   2.368 -0.1255  0.0841  0.0616
 7998W        W12049   6.566   6.865   0.762  0.1954  0.0495  0.0461
 7999W        W12050   0.467   9.799  13.449 -0.2299 -0.1649  0.0156
 8000W        W12051   3.040   5.385  12.757  0.1555 -0.0987  0.0007
 8001W        W12052   1.341   4.924   2.680 -0.0925 -0.1324  0.3484
 8002W        W12053   1.938   8.204  11.224 -0.0033 -0.1279  0.2131
 8003W        W12054   1.496   2.561  13.686  0.2446  0.0802  0.1544
 8004W        W12055   1.296   4.180   1.627 -0.0598  0.2834 -0.0250
 8005W        W12056   5.957   4.300   6.017 -0.0280  0.1821 -0.2990
 8006W        W12057   7.383   4.534  13.279 -0.2854 -0.0031  0.0237
 8007W        W12058   7.960   6.137  12.519 -0.3718 -0.1081 -0.1006
 8008W        W12059   6.276   5.057   2.965 -0.2120  0.1561  0.2233
 8009W        W12060   1.616   5.571   0.220 -0.2852 -0.0116  0.1058
 8010W        W12061   7.726   4.798   0.976 -0.2892 -0.1732 -0.0713
 8011W        W12062   5.868   3.812   9.295 -0.1055 -0.1363 -0.0253
 8012W        W12063   8.482   2.186   2.990 -0.1723  0.1539 -0.4050
 8013W        W12064   3.178   8.160  12.578 -0.0916  0.3025  0.4024
 8014W        W12065   9.091   1.859  10.621 -0.2220 -0.5013  0.1748
 8015W        W12066   6.930  10.017   2.324  0.1197  0.2065 -0.1379
 8016W        W12067   7.598   6.527   3.545  0.2369 -0.0908  0.1017
 8017W        W12068   3.139   9.280   3.586 -0.1815  0.1561  0.1754
 8018W        W12069   4.994   4.059  12.407  0.1159 -0.1886  0.0031
 8019W        W12070   5.322   4.128   3.218 -0.1681  0.0237  0.3508
 8020W        W12071   4.007   2.827   3.896  0.1349  0.0384 -0.0027
 8021W        W12072   0.529   1.094   1.172 -0.2288  0.0323 -0.1103
 8022W        W12073   5.994   8.220   0.127  0.2379  0.0900 -0.1547
 8023W        W12074   1.572   9.856  13.433  0.0516  0.1122  0.1218
 8024W        W12075   4.156   8.793  13.008  0.0939  0.3939 -0.3103
 8025W        W12076   8.456   7.276   0.703 -0.1470  0.0319 -0.1479
 8026W        W12077   8.710   5.012  11.878 -0.0806  0.2637  0.3038
 8027W        W12078   4.281   5.427   3.038 -0.0784  0.0970  0.0652
 8028W        W12079   2.695   7.031   0.781  0.1633  0.1282  0.1867
 8029W        W12080   2.720   3.612  10.436 -0.2911  0.0849  0.1229
 8030W        W12081   1.028   6.865   1.073 -0.1577 -0.2835 -0.4533
 8031W        W12082   5.947   0.168   8.967 -0.2454 -0.1186  0.2929
 8032W        W12083   6.764   4.921  10.601 -0.2224 -0.0168 -0.3949
 8033W        W12084   5.400   6.473  10.794  0.0414 -0.0533 -0.1250
 8034W        W12085   7.111   8.342  13.101 -0.4535 -0.1152  0.1150
 8035W        W12086   1.113   3.029   5.208 -0.1817 -0.0738 -0.0662
 8036W        W12087   7.054   7.562   3.848 -0.1322 -0.2142 -0.1910
 8037W        W12088   8.648   2.899  13.052  0.0962  0.0372  0.0365
 8038W        W12089   9.540   7.249   3.299 -0.0668 -0.3371  0.1462
 8039W        W12090   4.772   9.000  11.046  0.1325 -0.1459  0.2185
 8040W        W12091   8.852   0.752   0.751  0.0433  0.2987 -0.2778
 8041W        W12092   5.386   0.437   2.586 -0.1958 -0.0127 -0.0042
 8042W        W12093   1.640   8.268   0.806  0.0803 -0.1515  0.2112
 8043W        W12094   1.814   5.070   2.990  0.0337 -0.0752 -0.0758
 8044W        W12095   2.444   7.701  13.483 -0.1368 -0.0634  0.1330
 8045W        W12096   0.356   1.559  13.329  0.2492  0.0363 -0.0974
 8046W        W12097   7.067   8.753   1.758  0.0624  0.2628  0.0896
 8047W        W12098   3.460   5.372   4.998 -0.0690  0.1596 -0.0519
 8048W        W12099   6.745   4.797   4.204 -0.1128  0.1108 -0.0547
 8049W        W12100   1.504   8.363   5.497 -0.3363  0.1321  0.0767
 8050W        W12101   6.468   1.112  11.972 -0.0873 -0.0370  0.2353
 8051W        W12102   8.135   1.204   0.412  0.3653 -0.1281 -0.0300
 8052W        W12103   8.568   7.556  12.949  0.2215  0.2136 -0.3758
 8053W        W12104  10.221   2.901   2.151  0.3278 -0.5458 -0.2314
 8054W        W12105   2.526   4.601   2.966  0.0590 -0.1495 -0.2634
 8055W        W12106   1.873   5.512   4.859  0.0787  0.0369 -0.0978
 8056W        W12107   8.656   9.927   0.425  0.2963 -0.1358 -0.0958
 8057W        W12108   4.352   5.446  12.767  0.0017 -0.1313  0.0211
 8058W        W12109   6.294   0.605   3.131  0.2404  0.1298 -0.1613
 8059W        W12110   6.394   3.517  10.663 -0.1454 -0.0454  0.0458
 8060W        W12111   3.449   0.517   3.818  0.1072 -0.3661 -0.0557
 8061W        W12112   5.474   3.703   4.561 -0.2036 -0.2775  0.1499
 8062W        W12113   1.958   3.069   9.050 -0.0656  0.1157  0.0588
 8063W        W12114   2.964   3.232  10.898 -0.2418  0.4083 -0.1421
 8064W        W12115   3.178   3.233   1.690  0.1839 -0.2675 -0.1376
 8065W        W12116   6.694   5.359   0.027 -0.2102 -0.4660 -0.0949
 8066W        W12117   1.473   5.693  10.937 -0.4264 -0.1427  0.1213
 8067W        W12118   0.093   1.305   1.408  0.3014  0.2652 -0.0595
 8068W        W12119   3.059   5.672  13.626  0.1678  0.1292 -0.1060
 8069W        W12120   4.554  10.182   9.339 -0.0771 -0.4701 -0.0070
 8070W        W12121   9.358   0.749  10.800  0.0912  0.1601 -0.2882
 8071W        W12122   9.202   5.236   2.938 -0.0732  0.3843  0.5617
 8072W        W12123   8.487   9.892   5.303 -0.1569  0.0671 -0.2933
 8073W        W12124   1.999   4.234   3.589  0.1887 -0.1055 -0.0084
 8074W        W12125   2.226   0.422  12.098 -0.2872  0.0952 -0.1190
 8075W        W12126   3.368   2.003   3.968  0.1019 -0.0976  0.2330
 8076W        W12127   6.034   5.898  11.043 -0.0824  0.0174 -0.3212
 8077W        W12128   6.989   1.765   3.263 -0.2179 -0.3421 -0.0374
 8078W        W12129   2.554   9.589   3.613  0.3789  0.0364  0.2830
 8079W        W12130   4.879   8.423  10.987  0.1791 -0.1181  0.2015
 8080W        W12131   1.413   1.260  12.331 -0.1682 -0.0968  0.1808
 8081W        W12132   8.189   2.954  10.865  0.0771  0.0208  0.2417
 8082W        W12133   5.101   6.907   2.364 -0.2118  0.2380  0.0673
 8083W        W12134   3.636   7.512  13.410 -0.0829  0.1700  0.4140
 8084W        W12135   2.535   1.358   2.979  0.3004 -0.0695 -0.1597
 8085W        W12136   6.244   3.574   3.835 -0.0799 -0.1121 -0.2106
 8086W        W12137   6.000   7.523   3.644  0.2103 -0.0567  0.1251
 8087W        W12138   4.337   0.220  13.131 -0.0091 -0.2896  0.2128
 8088W        W12139   9.023   2.615   0.404  0.2199 -0.0127  0.2362
 8089W        W12140   8.296   8.429   1.148 -0.3371  0.4659  0.2304
 8090W        W12141   0.923   5.758  11.630  0.1813 -0.1125  0.1925
 8091W        W12142   6.499   2.491  10.816  0.2898 -0.0163 -0.0498
 8092W        W12143   6.340   3.280  11.198 -0.0376  0.0147  0.2307
 8093W        W12144   9.117   1.288   8.487 -0.0498 -0.0016  0.1869
 8094W        W12145   8.954  10.031  12.628  0.0963  0.1947 -0.3190
 8095W        W12146   2.548   0.630  10.276 -0.1550  0.1662 -0.0469
 8096W        W12147   5.148   2.865   2.954 -0.1114 -0.0968 -0.1087
 8097W        W12148   3.990   1.649   4.321  0.0182  0.0425  0.2816
 8098W        W12149   2.330   0.733   2.476  0.1539  0.2141 -0.3225
 8099W        W12150   6.492   0.135  10.438  0.0928  0.2493  0.3351
 8100W        W12151   9.255   7.757   1.271 -0.0483  0.1990  0.5653
 8101W        W12152   8.331   9.016  10.885  0.2272  0.0240 -0.0040
 8102W        W12153   7.931   0.072  12.839  0.0517  0.0101 -0.2213
 8103W        W12154   2.582   6.131  12.998  0.0092 -0.3237 -0.1312
 8104W        W12155   3.780   6.865  11.826  0.0111 -0.1072  0.0537
 8105W        W12156   8.529   2.064   0.422 -0.0637 -0.2665  0.0253
 8106W        W12157   6.743   2.640   2.902  0.1374 -0.0105 -0.1995
 8107W        W12158   6.769   1.788  11.353  0.1046  0.0017 -0.0266
 8108W        W12159   4.639   0.800  10.274 -0.0052  0.2703 -0.2982
 8109W        W12160   4.868   3.332  12.640  0.2972  0.0739 -0.2819
 8110W        W12161   8.925   6.636  12.989 -0.1698 -0.0797 -0.0064
 8111W        W12162   9.470   8.809   0.344  0.2048  0.1355  0.1783
 8112W        W12163   8.519   9.172   2.692  0.1065 -0.2973  0.0881
 8113W        W12164   1.442   1.088   1.380 -0.0036 -0.1618  0.3381
 8114W        W12165   8.861   4.344   5.215 -0.0033 -0.0891 -0.1522
 8115W        W12166   9.011   9.540   1.519  0.2558 -0.1431  0.2357
 8116W        W12167   5.210   8.529  11.915 -0.1023 -0.0055 -0.0782
 8117W        W12168   9.872   9.166   1.720 -0.2237  0.1468  0.0708
 8118W        W12169   7.888   7.949  13.321 -0.1554  0.1269 -0.1157
 8119W        W12170   4.110   5.719  13.184 -0.3986 -0.0695 -0.0771
 8120W        W12171   4.725   5.282   3.704  0.1964 -0.0213  0.2015
 8121W        W12172   1.776   4.376   5.419  0.2340 -0.3268  0.0277
 8122W        W12173   0.266   8.289  12.746 -0.2486 -0.1403  0.5683
 8123W        W12174   8.493   6.361  11.275 -0.2086 -0.1413 -0.2626
 8124W        W12175   2.334   7.414   2.072  0.1912 -0.0915 -0.3357
 8125W        W12176   3.789   7.536  11.270 -0.1577  0.4109 -0.3502
 8126W        W12177   5.155   5.094   3.853 -0.0633 -0.1043 -0.3593
 8127W        W12178   8.701   2.436   9.832 -0.0249 -0.0903 -0.0222
 8128W        W12179   4.220   2.707   9.354  0.0809 -0.0450 -0.3373
 8129W        W12180   6.107   6.254  13.840  0.1555  0.2621  0.1266
 8130W        W12181   8.291   2.752   9.537 -0.0293  0.1341  0.2290
 8131W        W12182   7.498   8.321  11.858  0.2156 -0.0366  0.4107
 8132W        W12183   2.420   4.903  12.217  0.0957 -0.2973  0.0615
 8133W        W12184   8.696   1.920   0.864 -0.1372  0.1320  0.2226
 8134W        W12185   7.525   7.256   9.870 -0.3669  0.0022  0.1607
 8135W        W12186   7.308   2.133   1.798 -0.4008 -0.1774 -0.3930
 8136W        W12187   3.043   4.117   0.845  0.0148 -0.1408  0.0942
 8137W        W12188   7.184   6.348   2.960  0.4160  0.1667  0.1000
 8138W        W12189   7.041   5.888   4.799 -0.1304 -0.0353 -0.0774
 8139W        W12190   6.487   3.985  11.815  0.0110 -0.1677  0.0293
 8140W        W12191   8.242   6.849  11.416 -0.2370  0.0972  0.0773
 8141W        W12192   0.818   7.264   5.069  0.3914  0.0495  0.0940
 8142W        W12193   0.026   8.258   9.945  0.0174  0.0156  0.0884
 8143W        W12194   3.524   9.506  13.195 -0.0605 -0.0533 -0.2081
 8144W        W12195   2.103   8.901   8.745 -0.1376 -0.3681  0.1531
 8145W        W12196   1.458   4.234  12.178 -0.2331 -0.3637 -0.1163
 8146W        W12197   2.180   1.544   1.895  0.1620 -0.0551  0.1450
 8147W        W12198   8.243   6.043   9.705  0.0203  0.1920 -0.1775
 8148W        W12199   1.810   7.774  13.748 -0.1388  0.0606  0.3705
 8149W        W12200   1.497   9.370  13.563  0.3475  0.1885  0.0527
 8150W        W12201   9.339   1.209   1.456 -0.0581  0.2933 -0.1398
 8151W        W12202   0.478   9.252  12.564 -0.2489 -0.1525  0.2121
 8152W        W12203   0.598   2.823   8.775  0.2471 -0.1876  0.0840
 8153W        W12204   7.031   0.295  12.308 -0.0800  0.2638  0.1333
 8154W        W12205   1.481   2.540   3.176  0.0663  0.0156  0.2516
 8155W        W12206   9.742   4.070  10.018  0.1461  0.2584 -0.0200
 8156W        W12207   9.423   5.459   9.411  0.1158  0.3888  0.0399
 8157W        W12208  10.071   1.142   1.919 -0.0994 -0.3220  0.0815
 8158W        W12209   2.056   9.412   9.515  0.0710 -0.0787 -0.2179
 8159W        W12210  10.047   5.747  10.554 -0.2119  0.1500 -0.4505
 8160W        W12211   7.826   6.171   0.185 -0.0305  0.0680  0.1205
 8161W        W12212   1.484   4.472   2.463 -0.0303  0.3207  0.3255
 8162W        W12213   2.841   5.854  12.596 -0.0891  0.2192  0.0904
 8163W        W12214   8.086   3.974   1.366 -0.0950  0.0832  0.0320
 8164W        W12215   8.224   7.460   2.501  0.2258 -0.0578 -0.1276
 8165W        W12216   8.666   6.619  13.585 -0.2191  0.3496 -0.4256
 8166W        W12217   1.535   2.117  13.430 -0.0936 -0.2649  0.2661
 8167W        W12218   4.826   7.538  11.717  0.0549 -0.0005 -0.2734
 8168W        W12219   5.841   5.817   2.513  0.2262  0.1837 -0.1715
 8169W        W12220   5.227   7.753  11.476 -0.2636 -0.4710  0.0925
 8170W        W12221   5.380   2.076  10.031  0.2575 -0.1209 -0.1335
 8171W        W12222   1.701   6.473   1.594 -0.2856  0.1523  0.0489
 8172W        W12223   7.399   4.807   3.381  0.0969 -0.0208 -0.3495
 8173W        W12224   4.348   0.520  11.511 -0.2013  0.0400  0.0176
 8174W        W12225   5.553   4.484  11.057 -0.0176 -0.0430 -0.2545
 8175W        W12226   1.190   7.328   1.121 -0.0825  0.1913 -0.4105
 8176W        W12227   0.169   2.284   4.576  0.0880 -0.1623 -0.3642
 8177W        W12228   1.348   9.817  12.790  0.1188  0.0450 -0.0162
 8178W        W12229   8.618   2.342   1.255  0.1376  0.0524  0.1103
 8179W        W12230   5.918   9.641  13.034 -0.0224  0.5005 -0.3321
 8180W        W12231   5.430   1.519   1.797 -0.0067  0.1444  0.1038
 8181W        W12232   8.320   5.473   9.639 -0.0934 -0.2401  0.1508
 8182W        W12233   5.076   8.354   1.644 -0.1787 -0.1414  0.0218
 8183W        W12234   6.953   7.180   1.012 -0.2016 -0.0146 -0.0033
 8184W        W12235   5.954   8.177   1.092 -0.0373 -0.1986  0.0964
 8185W        W12236   5.579   3.340  12.367 -0.0614  0.2025 -0.1321
 8186W        W12237   3.676   3.007   9.874 -0.1296 -0.0466  0.0897
 8187W        W12238   7.836   9.586   4.409  0.1355  0.0903  0.1124
 8188W        W12239  10.110   7.362   1.160 -0.0777 -0.1229  0.1018
 8189W        W12240   0.534   8.481  12.302 -0.1539  0.1830 -0.3558
 8190W        W12241   9.025   6.970  13.594 -0.2637 -0.1157  0.0798
 8191W        W12242   3.230   4.591   1.619 -0.1024 -0.1527  0.1105
 8192W        W12243   8.190   1.654   9.500  0.2489 -0.0140 -0.0144
 8193W        W12244  10.126   7.749   2.734 -0.2934  0.0145  0.0140
 8194W        W12245   9.351   0.330   3.467 -0.2244  0.1664  0.1365
 8195W        W12246   6.587   0.587   9.798 -0.0196  0.3493  0.3218
 8196W        W12247   5.316   7.034  13.174  0.2002  0.0778 -0.0129
 8197W        W12248   7.739   1.445   1.218  0.1101 -0.4217 -0.2312
 8198W        W12249   4.667   2.977  10.753 -0.0562  0.1234  0.0978
 8199W        W12250   6.789   8.555   1.307 -0.0757  0.0614 -0.0353
 8200W        W12251   6.756   6.124  10.435  0.0563  0.0807 -0.0574
 8201W        W12252   0.965   4.454   1.918 -0.0942 -0.1412 -0.0171
 8202W        W12253   3.336   4.088   9.348 -0.0895 -0.0881 -0.1398
 8203W        W12254   1.904   3.258   3.537 -0.1287 -0.1736 -0.3256
 8204W        W12255   6.354   9.819  10.510  0.1684  0.0859 -0.0725
 8205W        W12256   0.573   2.000   4.553 -0.0941  0.2597 -0.0041
 8206W        W12257   7.785   9.250   1.484 -0.2277 -0.0167  0.2494
 8207W        W12258   1.069   6.146  13.656  0.1838  0.5297 -0.3371
 8208W        W12259   4.137   4.024   1.665 -0.2080 -0.0179 -0.0494
 8209W        W12260   5.384   0.939  13.090  0.3609 -0.3884  0.3030
 8210W        W12261   4.944   8.289   1.181 -0.0559  0.0909 -0.0135
 8211W        W12262   2.127   1.152  13.353  0.0242 -0.2634  0.0687
 8212W        W12263   8.921   6.858   2.253  0.0601  0.1313  0.2279
 8213W        W12264   1.653   9.261  12.065 -0.0898 -0.1521  0.1298
 8214W        W12265   4.431   1.319   8.685  0.1939 -0.0824  0.1060
 8215W        W12266   6.363   5.420  11.073  0.1286 -0.2672 -0.0271
 8216W        W12267   1.528   6.245   4.078 -0.1453  0.0494 -0.0638
 8217W        W12268   9.972   2.527   5.320 -0.0791  0.0706  0.1959
 8218W        W12269   1.231   1.969  11.723  0.0508 -0.0090 -0.0219
 8219W        W12270   6.861   4.759   2.627 -0.1831  0.1936  0.0994
 8220W        W12271   1.393   3.418  12.597  0.0911  0.0160  0.1096
 8221W        W12272   4.613   4.810  10.791 -0.0799  0.0044  0.4212
 8222W        W12273   0.592   2.759  12.460  0.0439  0.1042  0.1001
 8223W        W12274   0.753   1.799   2.438 -0.4666  0.0959 -0.0575
 8224W        W12275   5.104   0.278   2.201  0.0177  0.1881 -0.3267
 8225W        W12276   3.487   2.720  11.538 -0.1311 -0.2451 -0.3705
 8226W        W12277   9.849   6.102   2.075  0.0215  0.1619 -0.1457
 8227W        W12278   5.323   2.096  11.969 -0.3511  0.0173  0.5416
 8228W        W12279   3.769   4.023   9.596  0.0671  0.2226 -0.0076
 8229W        W12280   5.773   6.940  10.412 -0.1894 -0.0404  0.0337
 8230W        W12281   2.567   5.761   4.769 -0.0979 -0.0024 -0.1817
 8231W        W12282   4.187   8.317   0.501 -0.1296 -0.0701 -0.0129
 8232W        W12283   5.646   2.009   2.937 -0.0390  0.1322  0.2105
 8233W        W12284   3.914   0.419   0.110 -0.0010  0.0744  0.0572
 8234W        W12285   9.318   9.935  11.600 -0.1269 -0.0368  0.0590
 8235W        W12286   9.703   7.303   2.609 -0.1937  0.1703 -0.2968
 8236W        W12287   4.972   0.619   8.998  0.2757  0.1255  0.1459
 8237W        W12288   3.117   0.297   9.303  0.1629  0.2027 -0.1588
 8238W        W12289   5.560   2.563  13.642 -0.0623 -0.0674 -0.2400
 8239W        W12290   8.610   6.887  11.053 -0.0407 -0.2615  0.0317
 8240W        W12291   9.484   8.045  10.391  0.0197 -0.3066  0.0707
 8241W        W12292   6.944   9.377   3.073  0.1200  0.1108  0.1771
 8242W        W12293   7.748   7.631   9.644  0.1930  0.3568 -0.1810
 8243W        W12294   8.545   5.742   4.218 -0.0183 -0.1818 -0.0579
 8244W        W12295   4.052   5.924  11.656  0.0529 -0.2648  0.2491
 8245W        W12296   5.806   1.202  13.604 -0.1199  0.2364 -0.0126
 8246W        W12297   4.784   4.711   1.381 -0.1936 -0.1240 -0.2546
 8247W        W12298   9.906   4.299   1.276  0.0550  0.0949 -0.0191
 8248W        W12299   0.231   5.841  12.222  0.1526  0.1409  0.0422
 8249W        W12300   4.560   5.522   2.597 -0.0325 -0.0154  0.1327
 8250W        W12301   6.260   1.529  12.869 -0.2521 -0.3956  0.0815
 8251W        W12302   9.102   2.879   4.146 -0.0286  0.1299 -0.3050
 8252W        W12303   1.012   6.442  10.838  0.1643 -0.0314  0.0343
 8253W        W12304   2.337   4.994   0.142  0.1627 -0.1576 -0.1221
 8254W        W12305   3.170   9.727  13.573 -0.0241  0.1263  0.1303
 8255W        W12306   6.000   9.109   0.006  0.1519  0.4211 -0.0722
 8256W        W12307   1.123   0.790  10.855 -0.0953  0.2207 -0.0717
 8257W        W12308   1.848   4.781  13.363  0.0503  0.5199  0.0178
 8258W        W12309   8.633   3.018   8.599 -0.1529 -0.0091 -0.0012
 8259W        W12310   0.379   5.828   1.888  0.1280 -0.2752 -0.1010
 8260W        W12311   8.543   6.406   3.760  0.0263 -0.0361  0.0140
 8261W        W12312   8.343   2.935  11.437 -0.0693 -0.4250  0.0066
 8262W        W12313   2.038  10.184  12.092  0.0300 -0.2141 -0.0431
 8263W        W12314   0.755   8.849   8.873 -0.0433  0.1887 -0.1539
 8264W        W12315   3.960   0.561  12.862 -0.4884 -0.1491  0.0648
 8265W        W12316   5.181   1.885  13.440 -0.0021  0.2853 -0.2508
 8266W        W12317   0.354   4.972  12.830  0.0595  0.1581 -0.0150
 8267W        W12318   5.392   2.135   3.811  0.4594 -0.0781 -0.1128
 8268W        W12319   1.949   1.860  10.397 -0.3005  0.0910 -0.3188
 8269W        W12320   8.945   7.549   0.850  0.0835 -0.0918 -0.2491
 8270W        W12321   7.921   6.973  11.865 -0.0168 -0.1443 -0.1698
 8271W        W12322   6.418   4.063   1.239  0.0018  0.2498  0.1211
 8272W        W12323   6.879   5.414  11.021 -0.2007  0.2734 -0.0781
 8273W        W12324   9.862   9.945   5.097  0.1305 -0.1095 -0.0651
 8274W        W12325   3.120   5.502   1.123 -0.0033 -0.2098 -0.1836
 8275W        W12326   4.706   3.225   9.904 -0.0965 -0.0317 -0.0465
 8276W        W12327   8.501   4.960   2.547 -0.2001  0.1152 -0.0334
 8277W        W12328   4.443   3.863  10.961  0.1254 -0.1581  0.0276
 8278W        W12329   8.163   6.588   9.715  0.3193 -0.1347  0.3272
 8279W        W12330   4.154   9.255   0.152 -0.0973  0.2445  0.3396
 8280W        W12331   9.655   8.924  10.569  0.1978 -0.1065  0.1463
 8281W        W12332   5.638   8.816   3.659  0.1342 -0.0001  0.1356
 8282W        W12333   2.318   2.421   9.835 -0.1260  0.3200 -0.1078
 8283W        W12334   4.750   4.842   4.053 -0.0766  0.0372 -0.1245
 8284W        W12335   2.180   0.580   0.955 -0.1363  0.0392 -0.1555
 8285W        W12336   7.157   5.195   2.388  0.1198  0.2158 -0.3083
 8286W        W12337   4.147   6.681  10.329 -0.0004  0.0455  0.0801
 8287W        W12338   8.461   6.528   2.178 -0.0373 -0.0384 -0.1717
 8288W        W12339   6.250   6.441   1.301 -0.2325 -0.1058 -0.1562
 8289W        W12340   8.403   5.954  11.930 -0.3490 -0.0668 -0.1593
 8290W        W12341   6.469   0.096   9.930 -0.0753 -0.1499  0.0249
 8291W        W12342   7.936   3.180  11.728 -0.1999  0.0813 -0.1457
 8292W        W12343   2.230   8.759   0.324  0.2583 -0.0434  0.0754
 8293W        W12344   4.761   8.212  13.506  0.0374  0.2141  0.0512
 8294W        W12345   0.075   5.007  10.173 -0.0801  0.4068  0.2317
 8295W        W12346   4.560   4.750  13.052 -0.0891 -0.1793  0.1929
 8296W        W12347   0.915   1.881   3.411 -0.2965  0.2428  0.1501
 8297W        W12348   6.714   3.460   9.640  0.2392  0.2190 -0.4166
 8298W        W12349   9.939   2.278  13.458  0.3310  0.0897 -0.1786
 8299W        W12350   4.974   1.938   3.555 -0.0746 -0.3597 -0.1162
 8300W        W12351   2.238   1.643  10.700  0.1969  0.1936 -0.2493
 8301W        W12352   9.359   3.137  13.469  0.0763  0.0565  0.3280
 8302W        W12353   3.842   7.250   4.161  0.3560  0.0607  0.2057
 8303W        W12354   0.047   7.603   0.235 -0.1809  0.1583  0.1237
 8304W        W12355   9.017   9.261   2.655  0.2656  0.0353 -0.0263
 8305W        W12356   1.615   2.335   3.714 -0.2460  0.1542  0.2248
 8306W        W12357   7.747   4.305  11.534 -0.1559  0.1199  0.0441
 8307W        W12358   1.718   4.030   1.726  0.1120  0.2199  0.1833
 8308W        W12359   2.256   4.109   4.008  0.0050  0.0094  0.2604
 8309W        W12360   8.296   9.260   9.965 -0.1181  0.1071  0.2078
 8310W        W12361   3.996   4.286   2.998 -0.0715 -0.0172 -0.4087
 8311W        W12362   0.474   0.568  10.171 -0.0289  0.0015 -0.0650
 8312W        W12363   9.783   1.058   3.601  0.1921  0.3304  0.1153
 8313W        W12364   5.486   8.654  10.550 -0.0913 -0.0977  0.1720
 8314W        W12365   3.931   0.693   3.837  0.0444 -0.2377  0.1086
 8315W        W12366   6.169   5.473   3.319 -0.0340  0.0934  0.0497
 8316W        W12367   6.475   4.846   0.451 -0.1554  0.0811 -0.2445
 8317W        W12368   4.854   4.775   2.088 -0.0043 -0.0106 -0.0226
 8318W        W12369   9.029   2.323  13.499  0.2861 -0.2432 -0.0408
 8319W        W12370   6.233   0.068   4.022  0.1624 -0.2506  0.0141
 8320W        W12371   3.081   2.685   1.187  0.0353 -0.0182  0.2236
 8321W        W12372   5.323   1.316  11.340  0.0302  0.2900  0.2653
 8322W        W12373   7.381   7.938  13.271 -0.0161 -0.2060  0.0901
 8323W        W12374   6.217   7.336  11.993  0.1543 -0.2200  0.1408
 8324W        W12375   7.642   0.517   3.861  0.0882  0.0913 -0.0314
 8325W        W12376   6.523   0.323  11.529  0.0440 -0.1789 -0.2089
 8326W        W12377   8.811   2.914   0.723 -0.1255 -0.1616  0.4034
 8327W        W12378   9.275   9.430  11.673 -0.1518 -0.0369  0.4499
 8328W        W12379   7.333   7.458  13.049 -0.3208 -0.2474  0.0871
 8329W        W12380   1.235   2.868   1.870  0.0856 -0.0630 -0.1209
 8330W        W12381   9.478   3.465   8.605  0.0982  0.2017  0.0629
 8331W        W12382   5.093   0.908  11.068 -0.1785  0.1720  0.3143
 8332W        W12383   9.042   3.727   8.393  0.1214 -0.1410 -0.2627
 8333W        W12384   1.371   0.125   1.177  0.0531  0.2037  0.2492
 8334W        W12385   6.785   3.407  11.996 -0.0969  0.3525  0.0406
 8335W        W12386   8.188   1.731  11.985  0.0727  0.2738 -0.1628
 8336W        W12387   5.153   9.457  12.853  0.4182 -0.3349  0.2698
 8337W        W12388   1.519   3.699   0.999 -0.0262  0.2100 -0.0734
 8338W        W12389   4.767   3.168   2.265 -0.2514  0.2727 -0.0287
 8339W        W12390   3.490   5.394  10.135 -0.2712 -0.3619  0.0620
 8340W        W12391   9.219   8.243   1.005 -0.3435  0.1191 -0.1680
 8341W        W12392   9.477   6.783   9.584  0.0028  0.2372 -0.0295
 8342W        W12393   2.493   1.428   8.863 -0.2062 -0.2385  0.0393
 8343W        W12394   3.316   5.621  10.920  0.0083  0.0275  0.0895
 8344W        W12395   6.174   4.055  10.514 -0.3937  0.6755  0.2646
 8345W        W12396   9.524   7.005   2.203 -0.1262  0.2725 -0.2261
 8346W        W12397   0.415   4.717   0.434 -0.1224  0.0958 -0.0405
 8347W        W12398   3.947   9.852  12.970  0.1352  0.1385 -0.0625
 8348W        W12399   8.452   7.555   2.981 -0.2085  0.1678  0.0255
 8349W        W12400   6.846   8.179   9.702 -0.0916  0.0034 -0.1348
 8350W        W12401   7.788   7.036   4.929  0.0671  0.1717 -0.2611
 8351W        W12402   7.407   1.922  13.225  0.0261 -0.0833  0.1866
 8352W        W12403   8.305   1.341   2.383  0.1831  0.1460  0.1462
 8353W        W12404   8.069   3.993  12.942 -0.0266  0.3620  0.1881
 8354W        W12405   6.063   9.622   2.079  0.1568  0.0890  0.2577
 8355W        W12406   2.035   8.294  13.818  0.1503 -0.1037 -0.3872
 8356W        W12407   6.690   1.023   0.459  0.0476  0.0527 -0.0902
 8357W        W12408   2.926   7.455   4.079  0.1646 -0.1669 -0.3675
 8358W        W12409   6.178   8.438  10.987 -0.1656  0.0515 -0.0208
 8359W        W12410   3.344   6.661  12.938  0.4825  0.1467 -0.2363
 8360W        W12411   7.506   6.546  10.845  0.1639 -0.0246 -0.2099
 8361W        W12412   5.481   6.108   3.242  0.1401 -0.3795  0.1486
 8362W        W12413   1.080   2.332   1.915 -0.3682  0.2963  0.2327
 8363W        W12414   5.753   4.698   1.621  0.4194 -0.2900  0.2111
 8364W        W12415   6.977   1.911   0.861  0.0079  0.1402 -0.0789
 8365W        W12416   1.432   5.020  13.182  0.3341 -0.1817 -0.0383
 8366W        W12417   2.785   4.289   2.618 -0.2178 -0.4349  0.1095
 8367W        W12418   8.561   6.522   3.193  0.1004  0.2755  0.0792
 8368W        W12419   6.995   4.164  10.252  0.5100  0.1971  0.1111
 8369W        W12420   9.064   7.450  13.285  0.1526 -0.1855  0.0259
 8370W        W12421   4.570   9.690  10.038 -0.1460  0.2041  0.3833
 8371W        W12422   9.221   3.006   1.061 -0.1165  0.1372  0.1360
 8372W        W12423   6.434   7.508   1.899  0.1313  0.2714  0.2707
 8373W        W12424   2.757   3.948   1.314 -0.0461  0.2951 -0.1990
 8374W        W12425   3.434   6.787  11.429  0.1195 -0.0104 -0.1371
 8375W        W12426   5.487   9.632  13.857 -0.1295  0.4275  0.1539
 8376W        W12427   9.043   0.091   8.466  0.1522  0.1880  0.3778
 8377W        W12428   3.643   4.033   0.143  0.2511 -0.2920  0.2030
 8378W        W12429  10.124   3.082  10.519  0.0818 -0.2343  0.0309
 8379W        W12430   4.603   0.371  12.667  0.2261 -0.0355  0.2612
 8380W        W12431   4.342   7.928  12.855  0.0451 -0.0823 -0.3842
 8381W        W12432   9.006   7.066  12.280 -0.0696 -0.0262 -0.1847
 8382W        W12433   3.688   7.014   3.347  0.1528 -0.1709  0.0075
 8383W        W12434   0.254   0.013   0.572  0.0402  0.0436 -0.1312
 8384W        W12435   7.139   1.378   5.108 -0.0721 -0.3441  0.2300
 8385W        W12436   4.973   0.714   0.675  0.2387  0.0182 -0.1520
 8386W        W12437   2.150   5.686   3.982  0.2177  0.0267  0.0993
 8387W        W12438   5.142   1.040   0.303 -0.0957  0.0633  0.1659
 8388W        W12439   0.777   2.158   9.266  0.0444 -0.4546  0.1631
 8389W        W12440   6.772   8.860   3.080 -0.1635 -0.1148  0.1345
 8390W        W12441   1.721   7.352  12.798  0.4760  0.2785 -0.0731
 8391W        W12442   1.553   8.183   1.288  0.1992  0.0445  0.1144
 8392W        W12443   0.133   1.322  11.985  0.2641 -0.0924  0.1805
 8393W        W12444   7.920   2.063   2.740 -0.3189 -0.0840 -0.1947
 8394W        W12445   6.924   5.169  10.168  0.0609  0.2303  0.1925
 8395W        W12446  10.130   1.465   4.230 -0.3314 -0.0335  0.0863
 8396W        W12447   6.312   8.550  12.682 -0.0163 -0.3235 -0.1291
 8397W        W12448   5.023   7.393   2.376  0.0202  0.0946 -0.1239
 8398W        W12449   3.666   8.854  10.282 -0.0340 -0.0358  0.1805
 8399W        W12450   1.916   0.569   4.286 -0.2320 -0.2457 -0.2070
 8400W        W12451   1.135   5.989  10.639  0.0414  0.2334 -0.3378
 8401W        W12452   0.334   2.859   0.035 -0.2989  0.2120  0.1457
 8402W        W12453   9.186   0.594  11.945  0.1565  0.4275 -0.0194
 8403W        W12454   7.596   9.305  13.766  0.0749  0.1499 -0.0936
 8404W        W12455   5.173   2.371   8.437  0.1710  0.1463  0.2951
 8405W        W12456   2.807  10.058   4.612 -0.2908  0.0140  0.3475
 8406W        W12457   2.614   3.559  12.167 -0.1481 -0.1498 -0.2388
 8407W        W12458   9.336   2.792   9.266  0.0562 -0.1300 -0.0908
 8408W        W12459   2.254   5.597   0.802 -0.0114 -0.1955  0.3454
 8409W        W12460   5.884   5.816   1.631  0.1306 -0.3238  0.0089
 8410W        W12461   1.261   6.097   8.777 -0.0693 -0.0268  0.0469
 8411W        W12462   8.628   5.123   3.729  0.0650 -0.1884  0.1423
 8412W        W12463   0.266   4.195   1.249  0.0709 -0.1980  0.1147
 8413W        W12464   8.823   9.435  13.494 -0.1019 -0.0768  0.2036
 8414W        W12465   2.789   8.317  12.864  0.0046  0.0345  0.2590
 8415W        W12466   5.473   9.805  13.129  0.1860  0.0588 -0.1935
 8416W        W12467   7.924   1.890   1.486  0.0741  0.3543  0.0873
 8417W        W12468   4.691   8.726  12.884  0.1032 -0.2195 -0.1356
 8418W        W12469   1.006   0.058   1.899  0.0480  0.3810 -0.1753
 8419W        W12470   8.185   2.617  13.830 -0.0014  0.0871  0.2588
 8420W        W12471   0.412   0.818  11.180 -0.1273  0.0465  0.0367
 8421W        W12472   0.493   8.765   1.430 -0.0953 -0.0541  0.0770
 8422W        W12473   7.027   7.855  12.954  0.0880 -0.2792 -0.0889
 8423W        W12474   5.569   5.416   3.973  0.1637 -0.0067 -0.0868
 8424W        W12475   4.881   2.217  11.741  0.1894 -0.0695  0.0964
 8425W        W12476   4.550   9.154   3.134  0.0366  0.1673  0.2571
 8426W        W12477   3.348   4.472  11.090 -0.0633  0.1994 -0.2981
 8427W        W12478   9.801   5.761   2.495 -0.0740  0.2507 -0.0569
 8428W        W12479   2.280   0.066  12.994  0.2151  0.0983 -0.3180
 8429W        W12480   3.518   7.663  10.065 -0.1484 -0.1317  0.0980
 8430W        W12481   2.663   9.388   1.374 -0.0413 -0.2397 -0.1199
 8431W        W12482   2.377   8.317  12.048 -0.0978  0.0591  0.1988
 8432W        W12483   3.466   0.044   2.776  0.0085 -0.0838 -0.0074
 8433W        W12484   0.045   9.182   0.329 -0.1977 -0.2072  0.2940
 8434W        W12485   7.830   4.586  10.030  0.0573 -0.0959 -0.2371
 8435W        W12486   8.644   7.691   0.417 -0.0476 -0.2884 -0.0413
 8436W        W12487   1.102   9.865   2.245  0.0792 -0.0116  0.0346
 8437W        W12488   6.538   2.284  13.469 -0.0146 -0.2167 -0.1657
 8438W        W12489   7.759   4.645   5.129  0.0351 -0.1589  0.0008
 8439W        W12490   2.483   9.315   9.795  0.1180 -0.2747  0.0120
 8440W        W12491   5.066   9.977  12.848 -0.0684  0.0592  0.0347
 8441W        W12492   4.558   8.654  10.115  0.0449  0.2631 -0.1846
 8442W        W12493   1.069   2.901  10.691 -0.2887  0.4222  0.2291
 8443W        W12494   2.440   0.014   9.876 -0.1666 -0.1080 -0.0731
 8444W        W12495   2.728   0.202   1.601 -0.0409 -0.0924 -0.1267
 8445W        W12496   7.886   9.087   0.680 -0.3408  0.3374  0.0458
 8446W        W12497   7.325   3.569  10.897  0.0477 -0.2202  0.0188
 8447W        W12498   9.313   0.704   1.030  0.0187 -0.1749  0.2639
 8448ION    NA+12499   6.836   2.751   0.303  0.2220 -0.0540  0.4193
 8449ION    NA+12500   7.370   9.050   3.527 -0.1427  0.1070 -0.0162
 8450ION    NA+12501   1.572   1.135  13.258 -0.1950 -0.2165  0.1511
 8451ION    NA+12502   3.024   5.695   4.968  0.0733 -0.0335  0.0631
 8452ION    NA+12503   2.302   3.333   8.736 -0.1665 -0.0322 -0.0647
 8453ION    NA+12504   6.913   8.764  10.022  0.1038 -0.2322  0.3862
 8454ION    NA+12505   0.079   1.871  10.745  0.2263 -0.4289 -0.1859
 8455ION    NA+12506   2.246   6.213   0.850  0.2131  0.1623  0.0435
 8456ION    NA+12507   0.172   3.387   4.511  0.1616  0.4389  0.1123
 8457ION    NA+12508   6.749   5.842  12.164  0.0874 -0.0618 -0.0322
 8458ION    NA+12509  10.209   7.926   8.752 -0.0682 -0.1187  0.0664
 8459ION    NA+12510   8.609   6.544   9.505 -0.1067  0.0815  0.1066
 8460ION    NA+12511   2.952   1.707   3.757 -0.1832  0.0612  0.0256
 8461ION    NA+12512   8.111   5.710   1.127  0.4830 -0.0773 -0.0415
 8462ION    NA+12513   2.277   9.463  10.821  0.0476  0.2183  0.0345
 8463ION    NA+12514   9.905   5.990   8.865  0.1483  0.1966  0.2694
 8464ION    NA+12515   9.115   5.194   0.401  0.0938  0.2458  0.0040
 8465ION    NA+12516   5.336   0.800   3.223  0.3418 -0.0410  0.2334
 8466ION    NA+12517   1.171   2.739  12.218  0.0829 -0.1171  0.0342
 8467ION    NA+12518   6.269   6.366  12.451  0.2764  0.1378  0.0330
 8468ION    NA+12519   4.089   2.576   8.760 -0.0350 -0.1173  0.3850
 8469ION    NA+12520   8.359   4.115  11.902  0.1445 -0.2230 -0.2324
 8470ION    NA+12521   4.426   8.673   1.040 -0.1242 -0.1199  0.0546
 8471ION    NA+12522   5.962   4.018   1.061  0.0234  0.0792  0.0203
 8472ION    NA+12523   4.603   5.260   2.100  0.0021  0.3715 -0.0396
 8473ION    NA+12524   6.124   7.326   1.509 -0.2636  0.1176  0.3345
 8474ION    NA+12525   8.693   8.486   0.834 -0.0852 -0.1014 -0.1204
 8475ION    NA+12526   0.251   8.524  10.491 -0.0292  0.1306 -0.1035
 8476ION    NA+12527   5.628   2.551   9.577  0.2425  0.0618  0.0635
 8477ION    NA+12528   0.231   6.730  10.852  0.0675 -0.1847 -0.3337
 8478ION    NA+12529   1.864   1.806   1.519 -0.0912 -0.3983  0.2169
 8479ION    NA+12530   3.657   4.939   4.806 -0.0445 -0.1518 -0.0878
 8480ION    NA+12531   1.021   8.233  10.640 -0.1043  0.0211 -0.1024
 8481ION    NA+12532   7.253   0.781   0.980  0.1540  0.0739 -0.0414
 8482ION    NA+12533   1.205   1.852   1.843  0.0270  0.3641  0.1719
 8483ION    NA+12534   4.090   6.237   9.947  0.1069  0.1990 -0.1113
 8484ION    NA+12535   1.764   8.648  11.405 -0.0264  0.2398  0.0841
 8485ION    NA+12536   2.468   2.136  13.614 -0.0170 -0.1164 -0.2229
 8486ION    NA+12537   0.512   1.930  11.386  0.0344 -0.0686  0.0499
 8487ION    NA+12538   4.183   7.854   0.774 -0.1355  0.1030 -0.3323
 8488ION    NA+12539   1.910   0.759   2.722 -0.0248 -0.0320  0.2945
 8489ION    NA+12540   9.381   5.830   4.966  0.2919 -0.4173  0.0333
 8490ION    NA+12541   5.214   7.239  12.724  0.0439  0.0026  0.1406
 8491ION    NA+12542   4.107   2.160  11.923  0.0624  0.2773  0.2943
 8492ION    NA+12543   9.806   6.998   8.836 -0.0574 -0.0845  0.1000
 8493ION    NA+12544   0.923   7.114  12.198  0.0261  0.2981  0.3468
 8494ION    NA+12545   6.142   6.108   3.845 -0.0709 -0.0015  0.1746
 8495ION    NA+12546   7.357   2.994   4.181  0.2381 -0.0319 -0.1430
 8496ION    NA+12547   7.159   6.621   9.675 -0.1775  0.0794  0.0300
 8497ION    NA+12548   3.747   7.021   0.835  0.2241 -0.0984 -0.2039
 8498ION    NA+12549   5.713   0.224   3.834  0.1479  0.1176 -0.0537
 8499ION    NA+12550   4.303   5.509  10.516 -0.1955 -0.2612 -0.0406
 8500ION    NA+12551   3.642   4.574  12.890  0.0577  0.0019  0.0183
 8501ION    NA+12552   3.243   3.798  13.777 -0.3023  0.2774 -0.0059
 8502ION    NA+12553   9.555   8.012   0.056 -0.1369 -0.3208  0.4313
 8503ION    NA+12554   5.699   1.658   4.093 -0.3669 -0.2557  0.1529
 8504ION    NA+12555   9.380   3.078   1.655  0.0059  0.1330 -0.3901
 8505ION    NA+12556   1.221   7.755   2.276  0.2209 -0.0539  0.0102
 8506ION    NA+12557   0.749   8.662  11.578  0.2240  0.3265  0.0228
 8507ION    NA+12558   3.287   0.246   8.819 -0.1532 -0.0713  0.0411
 8508ION    NA+12559   1.551   3.135   0.625 -0.0724 -0.1794 -0.2377
 8509ION    NA+12560   6.807   9.688  11.328  0.1191 -0.1881  0.0070
 8510ION    NA+12561   4.196   7.703   9.715  0.2659  0.1485 -0.0935
 8511ION    NA+12562   2.267   8.099  10.850  0.0471  0.0190 -0.0997
 8512ION    NA+12563   5.728   3.587   3.678  0.3579 -0.2157  0.1290
 8513ION    NA+12564   2.372   1.776  11.588 -0.4464  0.1497  0.1153
 8514ION    NA+12565   7.676   4.957   0.491 -0.0465  0.0913 -0.1934
 8515ION    NA+12566   1.133   3.305   1.665 -0.1295 -0.2375  0.2045
 8516ION    NA+12567   7.661   0.738   9.598 -0.2805 -0.1476  0.1813
 8517ION    NA+12568   8.251   0.184   9.141 -0.1888 -0.4415 -0.0445
 8518ION    NA+12569   0.401   4.160  11.944 -0.3678 -0.3194  0.0918
 8519ION    NA+12570   1.612   9.765   2.861  0.3234  0.2090 -0.0876
 8520ION    NA+12571   1.136   0.602  11.328  0.0781  0.1635 -0.0559
 8521ION    NA+12572   1.723   4.519   4.856  0.0139 -0.5187 -0.2826
 8522ION    NA+12573   5.576   9.110   0.889  0.0318 -0.2129  0.1145
 8523ION    NA+12574   7.144   5.267  13.660 -0.3296  0.0604 -0.0971
 8524ION    NA+12575   3.426   6.417   1.223  0.0256 -0.2745 -0.1663
 8525ION    NA+12576   2.644   9.845   4.101 -0.1587  0.0660  0.2302
 8526ION    NA+12577   3.194   0.697  11.380 -0.2485 -0.1202 -0.2070
 8527ION    NA+12578   7.573   6.525  12.747  0.1246  0.0854  0.0856
 8528ION    NA+12579  10.102   7.763  11.141  0.0119  0.3732  0.1137
 8529ION    NA+12580   9.203   5.037  11.276  0.0209  0.3455 -0.1306
 8530ION    NA+12581   3.656   3.667  13.535 -0.1710 -0.2400 -0.2458
 8531ION    NA+12582   8.450   7.430  12.342  0.1938 -0.0945 -0.3038
 8532ION    NA+12583   8.397   1.811   2.486  0.3112 -0.0938 -0.1685
 8533ION    NA+12584   3.099   8.049  11.429  0.0779 -0.0056 -0.1449
 8534ION    NA+12585   0.080   3.622   3.617  0.0770  0.1731  0.1846
 8535ION    NA+12586   2.740   9.322  12.600 -0.0537  0.0442 -0.1188
 8536ION    NA+12587   5.416   6.820   3.552 -0.0583 -0.2099 -0.3386
 8537ION    CL-12588   0.009   6.035   0.886 -0.0792 -0.1062  0.1169
 8538ION    CL-12589   1.731   8.357  10.028  0.0224  0.0673  0.0831
 8539ION    CL-12590   7.080   7.116   9.721 -0.0069 -0.0332 -0.1824
 8540ION    CL-12591   6.830   0.693   0.806  0.2588  0.4476 -0.0040
 8541ION    CL-12592   2.885   2.288   3.132  0.3432  0.1862  0.1168
 8542ION    CL-12593  10.209   1.780  11.365 -0.3890  0.0758 -0.2749
 8543ION    CL-12594   0.781   8.664  10.420 -0.0389  0.2553 -0.1500
 8544ION    CL-12595   7.528   0.922   1.807  0.3771  0.1936 -0.0817
 8545ION    CL-12596   1.960   7.009   1.036  0.1235  0.1467  0.3224
 8546ION    CL-12597   2.240   7.564  10.339  0.3148 -0.0850  0.1745
 8547ION    CL-12598   8.641   2.643   4.171  0.0024 -0.0133 -0.2599
 8548ION    CL-12599   4.538   3.444   4.503 -0.0107  0.0353 -0.1111
 8549ION    CL-12600   1.918   0.229   2.798  0.0239 -0.2009  0.0249
 8550ION    CL-12601   6.269   6.818  12.054 -0.1381  0.2215 -0.2259
 8551ION    CL-12602   0.935   4.178  12.107 -0.3711  0.0638 -0.2681
 8552ION    CL-12603   3.113   1.275   4.986 -0.1639 -0.4677  0.1602
 8553ION    CL-12604   1.275   8.587  11.592 -0.0804 -0.1309  0.2974
 8554ION    CL-12605   3.236   8.265  10.995  0.1311  0.3522 -0.0645
 8555ION    CL-12606   5.802   1.057   1.241  0.0536  0.0491  0.0086
 8556ION    CL-12607   8.958   5.440   3.501 -0.0473  0.2476 -0.1357
 8557ION    CL-12608   2.631   5.203  13.057 -0.3932  0.2815 -0.0502
 8558ION    CL-12609   8.180   9.253   3.147 -0.1873  0.0815  0.3004
 8559ION    CL-12610   2.294   2.497   4.356 -0.1626  0.2812  0.2348
 8560ION    CL-12611   5.815   1.889   3.691 -0.3211 -0.0543  0.1014
 8561ION    CL-12612   2.627   1.589   4.316 -0.0616 -0.3338  0.0750
 8562ION    CL-12613   6.518   9.537  10.949 -0.2792 -0.2259  0.4779
 8563ION    CL-12614   0.405   1.603  10.992  0.1078 -0.0094 -0.1018
 8564ION    CL-12615   6.665  10.065   1.889  0.0669  0.1553  0.1117
 8565ION    CL-12616   0.423   3.213   2.994  0.1592  0.1393 -0.0957
 8566ION    CL-12617   5.695   0.553   3.466  0.0675 -0.0790  0.1614
 8567ION    CL-12618   1.564   2.186   1.681  0.1449  0.0533 -0.1880
 8568ION    CL-12619   0.158   4.548   9.246  0.0623 -0.0995 -0.1448
 8569ION    CL-12620   2.704   0.948  11.690 -0.0669 -0.2259  0.0867
 8570ION    CL-12621   3.819   2.267  11.489  0.0243 -0.0012 -0.0279
 8571ION    CL-12622   4.300   8.686   3.284 -0.0746  0.1086 -0.0266
 8572ION    CL-12623   8.487   8.269   9.886  0.0772 -0.0378 -0.0772
 8573ION    CL-12624   1.176   7.250  11.803  0.0254  0.2800 -0.3911
 8574ION    CL-12625   1.539   4.102  11.193 -0.0418  0.1822  0.0072
 8575ION    CL-12626   8.177   3.477   3.856  0.3149  0.0527 -0.0408
 8576ION    CL-12627   1.549   4.253   4.486  0.1288 -0.1420  0.2036
 8577ION    CL-12628  10.020   8.276  12.536  0.3235 -0.0222  0.0378
 8578ION    CL-12629   3.327   3.347  13.706  0.1933  0.0769  0.4644
 8579ION    CL-12630   5.678   9.004   1.433  0.0256 -0.2409 -0.1434
 8580ION    CL-12631   1.971   3.487   4.601 -0.2978 -0.1005  0.2330
 8581ION    CL-12632   5.655   8.405   9.632 -0.1590  0.1161  0.1936
 8582ION    CL-12633   5.012   5.671   2.315 -0.0205  0.0503 -0.0233
 8583ION    CL-12634   4.585   7.907   1.159 -0.0680  0.0346 -0.0609
 8584ION    CL-12635   7.281   0.955  11.354  0.0166  0.1972 -0.0502
 8585ION    CL-12636   1.416   1.591   1.432 -0.0215 -0.1458 -0.1445
 8586ION    CL-12637   8.195   0.813   9.422 -0.0626  0.2715 -0.1243
 8587ION    CL-12638   0.314   6.474  11.252 -0.4883 -0.0792  0.2305
 8588ION    CL-12639   6.704   6.209  12.608  0.0385  0.1631 -0.2246
 8589ION    CL-12640   7.634   2.761   4.552 -0.3121  0.1662  0.0021
 8590ION    CL-12641   4.797   8.778   1.418 -0.0819  0.5487 -0.1057
 8591ION    CL-12642   4.375   6.517  12.782 -0.0008  0.0475  0.3413
 8592ION    CL-12643   3.787   7.568   0.850  0.0490  0.1312  0.0920
 8593ION    CL-12644   8.465   8.884   0.832 -0.0459  0.1375 -0.2121
 8594ION    CL-12645  10.068   3.504   4.063 -0.1975  0.1677  0.3149
 8595ION    CL-12646  10.147   4.070   3.375  0.3052  0.1372  0.1786
 8596ION    CL-12647   9.238   4.733  10.808 -0.1449 -0.1167 -0.0124
 8597ION    CL-12648  10.215   8.256   4.539 -0.1072  0.1439  0.1011
 8598ION    CL-12649   3.053   8.940  12.518 -0.1742 -0.0545  0.3934
 8599ION    CL-12650  10.107   7.654  10.693 -0.1033  0.3601  0.0616
 8600ION    CL-12651   3.760   4.076  12.960 -0.0287  0.0202 -0.0743
 8601ION    CL-12652   1.033   3.765   1.644  0.0873 -0.1311 -0.1171
 8602ION    CL-12653   1.781   3.091   1.103 -0.2268  0.4420 -0.2897
 8603ION    CL-12654   8.538   7.090   9.821  0.4492 -0.1869 -0.2012
 8604ION    CL-12655   8.755   5.507   1.480  0.0739 -0.2551 -0.0291
 8605ION    CL-12656   1.252   6.130   4.458 -0.2813 -0.1495 -0.0585
 8606ION    CL-12657   6.041   8.544   2.006 -0.0861  0.3562 -0.1601
 8607ION    CL-12658   5.779   3.828  10.290 -0.1580  0.2406 -0.2887
 8608ION    CL-12659   6.082   3.881   1.593  0.0423 -0.0234  0.0659
 8609ION    CL-12660   6.444   2.041  11.783 -0.0755 -0.0879 -0.1820
 8610ION    CL-12661   2.238   8.686  11.625 -0.0107 -0.1934 -0.1400
 8611ION    CL-12662   2.226   9.000  10.621  0.1459  0.0684  0.2077
 8612ION    CL-12663   0.309   0.948  12.987  0.2637  0.4824 -0.1176
 8613ION    CL-12664   2.258   0.514   9.851 -0.0666 -0.0890 -0.0919
 8614ION    CL-12665   7.452   1.205   9.539  0.2517  0.1362 -0.1652
 8615ION    CL-12666   8.759   5.233  11.415 -0.2889  0.3211  0.0012
 8616ION    CL-12667   7.488   6.486  13.343  0.1923 -0.2127 -0.1321
 8617ION    CL-12668  10.203  10.128   4.736 -0.0878  0.3247 -0.1403
 8618ION    CL-12669   6.355   3.377   4.550 -0.1125 -0.2645  0.0137
 8619ION    CL-12670   8.399   7.857  11.719 -0.1351  0.3779  0.0117
 8620ION    CL-12671   1.706   0.699  13.500 -0.2688 -0.0768  0.0657
 8621ION    CL-12672  10.137   7.838   9.731  0.0004 -0.0721 -0.2249
 8622ION    CL-12673   6.475   1.253   4.025  0.0054 -0.1887  0.1315
 8623ION    CL-12674   4.341   5.818  10.103 -0.1483  0.0897  0.0297
 8624ION    CL-12675   3.704   6.281  10.370  0.1278 -0.0491  0.0646
 8625ION    CL-12676   7.033   5.836   2.175  0.3668 -0.3072  0.0399
  10.22328  10.22328  13.86555
