Protein in INSANE! Membrane UpperLeaflet>POPC=1.0 LowerLeaflet>POPC=1.0
10365
    1AU     AUC    1   3.869   6.253   5.614 -0.0522  0.0095  0.0525
    1AU     AUC    2   3.808   6.284   5.322  0.0085 -0.0182 -0.0005
    1AU     AUC    3   3.637   6.077   5.493 -0.0682  0.0336  0.0095
    1AU     AUC    4   4.097   6.437   5.771 -0.0203  0.0629  0.0494
    1AU     AUC    5   3.931   6.173   5.943  0.1127 -0.0113 -0.0273
    1AU     AUC    6   4.128   6.108   5.690 -0.0137 -0.1166  0.0315
    1AU     AUC    7   3.969   6.028   5.423 -0.0032 -0.0279 -0.0955
    1AU     AUC    8   3.776   6.466   5.858 -0.0715 -0.0074  0.0223
    1AU     AUC    9   3.608   6.358   5.567 -0.0792 -0.0445 -0.0475
    1AU     AUC   10   3.601   6.172   5.810  0.0222 -0.1008  0.0090
    1AU     AUC   11   3.844   5.953   5.740 -0.0672  0.0777  0.0659
    1AU     AUC   12   3.877   6.546   5.525 -0.0232  0.0070  0.0015
    1AU     AUC   13   4.098   6.324   5.435  0.0286 -0.0648 -0.0452
    1AU     AUC   14   3.726   6.308   4.946  0.0402 -0.0699 -0.0320
    1AU     AUC   15   3.536   6.092   5.130 -0.0135  0.0599 -0.0464
    1AU     AUC   16   3.392   5.873   5.372 -0.0129  0.0752 -0.0411
    1AU     AUC   17   4.354   6.630   5.921 -0.0841 -0.0452 -0.0397
    1AU     AUC   18   4.236   6.359   6.108  0.0273 -0.0015  0.0752
    1AU     AUC   19   4.034   6.100   6.276  0.0888 -0.0112 -0.0387
    1AU     AUC   20   4.462   5.944   5.713 -0.0651 -0.0073  0.0653
    1AU     AUC   21   4.315   5.816   5.437  0.0372 -0.0448 -0.0034
    1AU     AUC   22   4.098   5.772   5.224  0.0247  0.0282 -0.0462
    1AU     AUC   23   3.689   6.706   6.074  0.0105 -0.0817  0.0517
    1AU     AUC   24   3.486   6.665   5.767  0.0567  0.0362  0.0545
    1AU     AUC   25   3.294   6.558   5.474 -0.0706 -0.0058 -0.0776
    1AU     AUC   26   3.319   6.096   6.007 -0.0443  0.0191 -0.0584
    1AU     AUC   27   3.559   5.863   5.947  0.0345  0.0277 -0.0401
    1AU     AUC   28   3.829   5.623   5.842  0.0235  0.0548 -0.0055
    1AU     AUC   29   3.903   6.838   5.383  0.0398 -0.0057 -0.0216
    1AU     AUC   30   4.152   6.677   5.328  0.0332  0.0696  0.1464
    1AU     AUC   31   4.371   6.434   5.259  0.0219  0.0162 -0.0285
    1AU     AUC   32   3.295   6.019   5.717 -0.0449 -0.0851  0.0678
    1AU     AUC   33   3.555   5.727   5.607 -0.0766 -0.0304 -0.0002
    1AU     AUC   34   3.828   6.586   5.133 -0.1119 -0.0054  0.0055
    1AU     AUC   35   4.059   6.344   5.071  0.1541  0.0108 -0.0002
    1AU     AUC   36   3.684   6.079   6.171  0.0250  0.0107  0.0042
    1AU     AUC   37   3.913   5.821   6.058 -0.0198  0.0644 -0.0430
    1AU     AUC   38   4.119   6.775   5.678 -0.0635 -0.0794 -0.1182
    1AU     AUC   39   4.370   6.633   5.552  0.0082 -0.0341  0.0222
    1AU     AUC   40   3.881   6.020   5.059 -0.1045  0.0200  0.0140
    1AU     AUC   41   3.721   5.815   5.292 -0.0067 -0.0477 -0.0100
    1AU     AUC   42   4.421   6.341   5.799 -0.0622 -0.0021 -0.0153
    1AU     AUC   43   4.274   6.022   5.997 -0.0316  0.0229 -0.1160
    1AU     AUC   44   3.481   6.442   5.201  0.0806 -0.0197 -0.0048
    1AU     AUC   45   3.303   6.215   5.425 -0.0582 -0.0441  0.0865
    1AU     AUC   46   4.027   6.647   6.039  0.0764 -0.0067 -0.0468
    1AU     AUC   47   3.842   6.386   6.214  0.1278  0.0309 -0.0338
    1AU     AUC   48   4.146   5.775   5.775 -0.0023  0.1153  0.0069
    1AU     AUC   49   3.967   5.681   5.522 -0.0168  0.0600  0.0482
    1AU     AUC   50   3.502   6.403   6.036 -0.0573  0.0016 -0.0155
    1AU     AUC   51   3.279   6.354   5.768 -0.0248  0.0369 -0.1170
    1AU     AUC   52   4.400   6.216   5.477  0.0043  0.0744  0.0238
    1AU     AUC   53   4.205   6.074   5.205  0.0819  0.0272 -0.0471
    1AU     AUC   54   3.797   6.795   5.749  0.0085  0.0744  0.0159
    1AU     AUC   55   3.627   6.692   5.429 -0.0547  0.0137  0.0458
    1AU    AUSL   56   3.116   5.661   5.618  0.0511 -0.0135  0.0195
    1AU    AUSL   57   2.970   6.044   5.831  0.0542 -0.0301  0.0472
    1AU     AUL   58   2.820   5.720   5.603 -0.0351  0.0470  0.0511
    1AU       S   59   2.652   6.146   5.621  0.0063 -0.2681  0.2456
    1AU     LIG   60   2.213   6.323   5.775 -0.1451  0.2235 -0.2004
    1AU     LIG   61   1.868   6.132   5.941  0.0526  0.3241 -0.5121
    1AU     LIG   62   1.644   5.950   6.187 -0.1557 -0.0423 -0.2808
    1AU       S   63   2.843   5.594   6.026  0.0422 -0.1400  0.0758
    1AU     LIG   64   2.506   5.369   6.252  0.0336 -0.0502 -0.1645
    1AU     LIG   65   2.132   5.275   6.432  0.1286  0.0374  0.1978
    1AU     LIG   66   1.724   5.379   6.349 -0.2150  0.0416  0.2663
    1AU    AUSL   67   3.249   5.776   6.036  0.1095 -0.1508 -0.0992
    1AU    AUSL   68   3.621   5.521   6.155 -0.0709  0.0570  0.0285
    1AU     AUL   69   3.344   5.382   6.106  0.1092  0.0265  0.0293
    1AU       S   70   3.033   5.695   6.207 -0.2639 -0.0379 -0.3535
    1AU     LIG   71   2.662   5.795   6.427 -0.0332  0.3439  0.0842
    1AU     LIG   72   2.397   6.035   6.469 -0.1881  0.2396  0.3946
    1AU     LIG   73   2.038   6.209   6.457  0.1654 -0.0180 -0.1114
    1AU       S   74   3.448   5.367   6.588 -0.0138 -0.4354  0.3304
    1AU     LIG   75   3.544   4.902   6.632 -0.1551 -0.3664 -0.0460
    1AU     LIG   76   3.706   4.482   6.547 -0.1064 -0.1440 -0.2585
    1AU     LIG   77   3.817   4.075   6.301 -0.4800 -0.1267  0.1994
    1AU    AUSL   78   3.541   5.629   5.748  0.0145 -0.0006  0.0629
    1AU    AUSL   79   3.404   5.452   5.369 -0.0005 -0.0112 -0.0341
    1AU     AUL   80   3.247   5.383   5.647 -0.0354 -0.0347  0.0095
    1AU       S   81   2.918   5.410   5.957 -0.1363  0.2506 -0.2536
    1AU     LIG   82   2.779   5.059   5.886  0.0431 -0.0013  0.3147
    1AU     LIG   83   2.628   4.724   5.785 -0.2631  0.0652  0.4121
    1AU     LIG   84   2.584   4.410   5.550  0.2581 -0.1532  0.1189
    1AU       S   85   3.424   5.062   5.320  0.1025 -0.9746 -0.1888
    1AU     LIG   86   3.164   4.833   5.411 -0.0967  0.1299 -0.0631
    1AU     LIG   87   3.057   4.452   5.700  0.1802  0.1709 -0.0218
    1AU     LIG   88   2.961   4.044   5.840 -0.0799  0.0237  0.1299
    1AU    AUSL   89   3.945   6.490   4.861  0.0039  0.0084 -0.0742
    1AU    AUSL   90   4.346   6.262   4.845  0.0010  0.0554 -0.0613
    1AU     AUL   91   4.194   6.431   4.555 -0.0269 -0.0366  0.0587
    1AU       S   92   4.426   6.813   4.689 -0.2241  0.0165  0.2870
    1AU     LIG   93   4.825   6.865   4.418  0.1067  0.4217 -0.0466
    1AU     LIG   94   5.219   6.906   4.167 -0.0476 -0.1425  0.0152
    1AU     LIG   95   5.318   7.242   3.829 -0.0441  0.0482  0.3787
    1AU       S   96   4.423   5.975   4.526 -0.1361  0.0769 -0.0546
    1AU     LIG   97   4.894   5.818   4.399  0.2992 -0.3533  0.0246
    1AU     LIG   98   4.999   5.478   4.507 -0.0103 -0.2078  0.1143
    1AU     LIG   99   5.224   5.153   4.610 -0.2491  0.2867 -0.0267
    1AU    AUSL  100   4.030   6.932   4.929  0.0521  0.1038  0.0206
    1AU    AUSL  101   3.567   6.678   4.786  0.0163  0.0411 -0.0003
    1AU     AUL  102   3.876   6.777   4.651 -0.0091 -0.0354  0.0244
    1AU       S  103   3.474   7.042   4.726 -0.0998  0.2342  0.5097
    1AU     LIG  104   3.648   7.505   4.585 -0.1135  0.0620 -0.3834
    1AU     LIG  105   3.608   7.969   4.753 -0.1418  0.1403 -0.0840
    1AU     LIG  106   3.609   8.377   4.538 -0.1231 -0.0143 -0.1406
    1AU       S  107   4.332   6.946   4.589  0.1574  0.0793 -0.3256
    1AU     LIG  108   4.360   7.327   4.274  0.0197 -0.3049  0.1693
    1AU     LIG  109   4.190   7.670   4.262 -0.3969  0.3092 -0.0968
    1AU     LIG  110   3.826   7.699   4.105  0.0102  0.3757  0.0111
    1AU    AUSL  111   4.297   6.617   5.096  0.0288 -0.0026  0.0768
    1AU    AUSL  112   4.116   7.055   5.342 -0.0116 -0.0367 -0.0311
    1AU     AUL  113   4.198   7.042   5.037  0.0199 -0.0727 -0.0556
    1AU       S  114   4.476   7.340   5.268 -0.0817  0.4121 -0.0022
    1AU     LIG  115   4.610   7.826   5.242  0.4366 -0.0393  0.0529
    1AU     LIG  116   5.011   8.192   5.313 -0.1078 -0.1823  0.1539
    1AU     LIG  117   5.430   8.176   5.226  0.1539 -0.0245  0.0978
    1AU       S  118   4.514   6.751   4.867  0.1116 -0.5732 -0.2368
    1AU     LIG  119   5.000   6.921   4.925  0.1737  0.3004 -0.4932
    1AU     LIG  120   5.363   7.031   5.076 -0.1153  0.0261  0.3774
    1AU     LIG  121   5.801   7.222   5.034  0.0740  0.0676 -0.5410
    1AU    AUSL  122   3.871   5.855   6.304  0.0436  0.0229  0.0431
    1AU    AUSL  123   4.052   5.488   6.117  0.0497 -0.0345  0.0149
    1AU     AUL  124   3.864   5.484   6.376 -0.0128 -0.0265 -0.0304
    1AU       S  125   3.563   5.466   6.718 -0.5701 -0.0130 -0.1645
    1AU     LIG  126   3.364   5.156   7.116 -0.4912 -0.2044 -0.0674
    1AU     LIG  127   3.633   5.116   7.451 -0.0533 -0.1537 -0.1999
    1AU     LIG  128   4.072   5.239   7.689 -0.2745  0.0191 -0.1053
    1AU       S  129   4.303   5.314   6.357 -0.4494  0.4760  0.2354
    1AU     LIG  130   4.090   4.854   6.250 -0.0787 -0.3859 -0.0041
    1AU     LIG  131   3.892   4.524   6.052  0.0611 -0.3268  0.2555
    1AU     LIG  132   4.065   4.404   5.715 -0.0509 -0.0459 -0.3072
    1AU    AUSL  133   3.448   5.851   6.406 -0.0655 -0.0338 -0.0416
    1AU    AUSL  134   3.701   6.221   6.456  0.0255  0.0065  0.0894
    1AU     AUL  135   3.790   5.901   6.639 -0.0214  0.0858  0.0264
    1AU       S  136   3.419   6.221   6.721 -0.0985  0.3019  0.4145
    1AU     LIG  137   3.327   5.912   7.051  0.0850  0.1287  0.1356
    1AU     LIG  138   3.281   6.051   7.386 -0.3058  0.0882  0.1756
    1AU     LIG  139   3.456   6.295   7.774  0.3241 -0.2216 -0.0999
    1AU       S  140   3.359   5.623   6.551 -0.3128 -0.3765 -0.0978
    1AU     LIG  141   2.944   5.419   6.577  0.2476 -0.3167 -0.0973
    1AU     LIG  142   2.550   5.516   6.919  0.0668  0.2728  0.2528
    1AU     LIG  143   2.133   5.645   7.047  0.2568 -0.0069 -0.0870
    1AU    AUSL  144   4.369   7.041   5.707 -0.0658  0.0266  0.0982
    1AU    AUSL  145   3.938   6.958   5.727 -0.0456 -0.0421 -0.0593
    1AU     AUL  146   4.132   7.276   5.581  0.1229 -0.0112  0.0615
    1AU       S  147   4.538   7.324   5.393  0.0894 -0.0691  0.1092
    1AU     LIG  148   4.742   7.595   5.765  0.0000  0.1509  0.2798
    1AU     LIG  149   5.298   7.549   5.912 -0.1804 -0.0780  0.2477
    1AU     LIG  150   5.677   7.507   5.649 -0.0077 -0.0882 -0.1564
    1AU       S  151   4.145   7.331   6.049 -0.2225 -0.2967  0.0986
    1AU     LIG  152   4.177   7.751   6.141  0.0157  0.1521 -0.0627
    1AU     LIG  153   4.198   7.983   6.494  0.1569  0.0536 -0.3791
    1AU     LIG  154   4.246   8.449   6.593 -0.2690  0.0354 -0.0444
    1AU    AUSL  155   4.511   6.870   5.340 -0.0193 -0.0087 -0.0602
    1AU    AUSL  156   4.601   6.671   5.740 -0.0008 -0.0516 -0.0497
    1AU     AUL  157   4.615   7.038   5.752 -0.0245  0.0636 -0.0751
    1AU       S  158   4.980   6.763   5.708 -0.0769 -0.1394  0.2272
    1AU     LIG  159   5.263   6.869   6.073 -0.0724  0.0660 -0.1256
    1AU     LIG  160   5.603   6.849   6.356  0.5217 -0.0514  0.0226
    1AU     LIG  161   5.680   6.633   6.707  0.1591  0.0081 -0.1482
    1AU       S  162   4.650   7.081   5.215 -0.3828  0.0414 -0.0174
    1AU     LIG  163   4.987   7.398   5.154 -0.0208  0.0114 -0.2630
    1AU     LIG  164   5.076   7.759   4.937 -0.0372 -0.1023 -0.4032
    1AU     LIG  165   5.365   7.858   4.622  0.0866  0.1092  0.1037
    1AU    AUSL  166   3.842   5.646   4.883 -0.0215 -0.0008  0.0632
    1AU    AUSL  167   3.965   6.078   4.719 -0.0561  0.0796  0.0542
    1AU     AUL  168   3.830   5.747   4.503 -0.0389  0.0427  0.0285
    1AU       S  169   4.237   5.955   4.508  0.1982 -0.2893 -0.0141
    1AU     LIG  170   4.375   5.769   4.059 -0.0849 -0.1212  0.1208
    1AU     LIG  171   4.704   5.970   3.959 -0.5840 -0.0243  0.1689
    1AU     LIG  172   5.228   6.011   3.996 -0.0752  0.1120  0.1575
    1AU       S  173   3.511   5.442   4.659  0.0281 -0.0208  0.2040
    1AU     LIG  174   3.691   5.066   4.541  0.3186 -0.1119 -0.0103
    1AU     LIG  175   3.676   4.754   4.830 -0.2058 -0.0434 -0.1482
    1AU     LIG  176   3.514   4.514   5.170  0.0729  0.3344 -0.2185
    1AU    AUSL  177   3.558   5.993   4.766  0.0530 -0.0702 -0.0803
    1AU    AUSL  178   3.152   6.002   5.000  0.0028  0.0546  0.0200
    1AU     AUL  179   3.251   6.085   4.650  0.0028 -0.0030 -0.0087
    1AU       S  180   3.389   5.663   4.679  0.1369 -0.0372 -0.1809
    1AU     LIG  181   3.155   5.352   4.347  0.1317  0.0823 -0.0658
    1AU     LIG  182   2.766   5.198   4.535  0.1469  0.1144 -0.3438
    1AU     LIG  183   2.640   5.170   4.979  0.2698  0.1174  0.2460
    1AU       S  184   2.826   6.172   4.784  0.0253  0.1381 -0.5372
    1AU     LIG  185   2.441   6.044   4.554  0.1326  0.1590  0.3915
    1AU     LIG  186   1.997   5.884   4.514  0.0977 -0.0609 -0.0847
    1AU     LIG  187   1.556   6.128   4.730  0.3202 -0.1130  0.0939
    1AU    AUSL  188   3.497   5.807   5.145  0.0010  0.0035 -0.0158
    1AU    AUSL  189   3.840   5.535   5.316  0.0692 -0.0130 -0.0158
    1AU     AUL  190   3.688   5.401   5.079  0.0136 -0.0374 -0.0395
    1AU       S  191   3.621   4.996   5.300  0.3744  0.0043  0.2890
    1AU     LIG  192   4.008   4.668   5.212  0.1071 -0.0717 -0.2541
    1AU     LIG  193   4.125   4.479   4.814 -0.3909 -0.0685  0.2928
    1AU     LIG  194   3.900   4.398   4.468 -0.3382 -0.0735  0.0571
    1AU       S  195   3.307   5.576   4.886  0.0236 -0.1595 -0.2217
    1AU     LIG  196   3.146   5.088   4.907  0.5168  0.0708 -0.2283
    1AU     LIG  197   3.177   4.908   4.581  0.1195 -0.1783 -0.1277
    1AU     LIG  198   3.490   4.613   4.400  0.2674 -0.1215  0.1849
    1AU    AUSL  199   4.712   6.004   5.983 -0.0154 -0.0107 -0.0443
    1AU    AUSL  200   4.292   5.782   6.390 -0.0240 -0.0587  0.0161
    1AU     AUL  201   4.638   5.809   6.322  0.0828 -0.0580  0.0076
    1AU       S  202   4.299   5.492   6.525  0.0163 -0.2807 -0.1552
    1AU     LIG  203   4.544   5.196   6.814  0.0490 -0.1734  0.0066
    1AU     LIG  204   4.533   5.181   7.311  0.3427 -0.1802  0.2549
    1AU     LIG  205   4.679   5.380   7.651  0.0941 -0.1645  0.0899
    1AU       S  206   5.034   5.983   6.167  0.2690  0.1850  0.0803
    1AU     LIG  207   5.448   5.843   6.094  0.0342  0.0651  0.0591
    1AU     LIG  208   5.730   6.062   5.801 -0.0515  0.3869 -0.3575
    1AU     LIG  209   5.835   6.581   5.867  0.2954  0.3356  0.0601
    1AU    AUSL  210   4.653   6.421   6.093  0.0351 -0.0343 -0.0618
    1AU    AUSL  211   4.560   6.250   5.676 -0.0592 -0.0234 -0.0335
    1AU     AUL  212   4.852   6.314   5.871 -0.0177 -0.0407  0.0547
    1AU       S  213   5.021   6.440   6.279  0.1472  0.1281 -0.0593
    1AU     LIG  214   5.410   6.384   6.080 -0.2299 -0.0349 -0.2960
    1AU     LIG  215   5.853   6.406   6.305 -0.1539  0.1520  0.1602
    1AU     LIG  216   6.134   6.754   6.460  0.4291 -0.1122  0.1058
    1AU       S  217   5.113   6.596   5.583 -0.0510 -0.3422 -0.2916
    1AU     LIG  218   5.511   6.534   5.485 -0.1781 -0.0321  0.1077
    1AU     LIG  219   5.956   6.673   5.282 -0.1431  0.3278 -0.0081
    1AU     LIG  220   6.114   7.097   5.517  0.2589 -0.0715 -0.0870
    1AU    AUSL  221   4.340   6.165   6.190  0.1284  0.0376 -0.0679
    1AU    AUSL  222   4.347   6.575   6.365 -0.0132 -0.0406  0.0629
    1AU     AUL  223   4.552   6.326   6.446  0.0153 -0.1686 -0.1266
    1AU       S  224   4.430   6.655   6.746  0.0032  0.1077  0.0049
    1AU     LIG  225   4.704   7.071   6.612 -0.0534  0.2174 -0.1480
    1AU     LIG  226   5.103   7.293   6.343 -0.1106  0.4098 -0.2346
    1AU     LIG  227   5.487   7.355   6.347  0.0910  0.1801  0.3164
    1AU       S  228   4.957   6.150   6.382 -0.2324  0.1067 -0.1499
    1AU     LIG  229   4.991   5.969   6.836  0.0611 -0.0034 -0.2017
    1AU     LIG  230   5.341   5.981   7.137  0.0273  0.0130  0.1580
    1AU     LIG  231   5.584   6.360   7.186 -0.1417  0.2132  0.0333
    1AU    AUSL  232   3.072   6.404   5.217  0.0533 -0.0729 -0.0623
    1AU    AUSL  233   3.193   6.029   5.435  0.0254 -0.0515  0.0052
    1AU     AUL  234   2.941   5.965   5.190  0.0335 -0.0261  0.0170
    1AU       S  235   2.850   6.418   5.003  0.4972  0.1616 -0.0892
    1AU     LIG  236   2.345   6.248   5.116 -0.4431  0.2265  0.1630
    1AU     LIG  237   2.094   5.940   4.998 -0.1597  0.0550 -0.0063
    1AU     LIG  238   1.778   5.698   4.955 -0.5498  0.1276 -0.0217
    1AU       S  239   2.707   6.247   5.449 -0.2530 -0.1351  0.0352
    1AU     LIG  240   2.472   6.684   5.171 -0.2447 -0.3404  0.0308
    1AU     LIG  241   2.172   7.162   5.294 -0.1399  0.1860 -0.2728
    1AU     LIG  242   2.285   7.495   5.584  0.2245 -0.0687  0.2307
    1AU    AUSL  243   3.454   6.325   5.016  0.0525  0.0057  0.0929
    1AU    AUSL  244   3.285   6.763   5.107 -0.0249 -0.0244 -0.0853
    1AU     AUL  245   3.249   6.567   4.835  0.1121  0.0003  0.0724
    1AU       S  246   2.831   6.331   4.796 -0.2766  0.0500  0.0520
    1AU     LIG  247   2.438   6.524   4.684  0.2179  0.4464 -0.0714
    1AU     LIG  248   2.427   6.912   4.483  0.1004  0.1376  0.0637
    1AU     LIG  249   2.301   7.263   4.749  0.1980 -0.0816  0.0160
    1AU       S  250   3.317   7.054   4.809  0.3888 -0.4347  0.0929
    1AU     LIG  251   3.145   7.395   4.696 -0.1062  0.3174 -0.5584
    1AU     LIG  252   2.805   7.593   4.821 -0.1520  0.1296 -0.1506
    1AU     LIG  253   2.417   7.704   5.071 -0.1697 -0.3019  0.5815
    1AU    AUSL  254   3.916   6.600   6.324  0.1635 -0.0273  0.0701
    1AU    AUSL  255   4.221   6.842   6.058  0.0313  0.0013 -0.0588
    1AU     AUL  256   4.179   6.819   6.416  0.0255 -0.0082 -0.0665
    1AU       S  257   4.304   7.189   6.193 -0.1708  0.0044  0.2765
    1AU     LIG  258   4.628   7.486   6.270  0.1542  0.1815  0.3161
    1AU     LIG  259   4.690   7.881   6.127  0.0581  0.0897 -0.1001
    1AU     LIG  260   4.709   8.281   5.994  0.4956 -0.2022  0.2120
    1AU       S  261   4.223   6.690   6.846  0.2837  0.0779 -0.0594
    1AU     LIG  262   4.346   7.154   7.089  0.0053  0.0109 -0.3512
    1AU     LIG  263   4.184   7.254   7.449  0.2185  0.1703 -0.4120
    1AU     LIG  264   4.158   7.585   7.743  0.1348  0.3093  0.0160
    1AU    AUSL  265   4.116   6.260   6.554 -0.0032  0.0176 -0.0868
    1AU    AUSL  266   3.511   6.619   6.454 -0.1070  0.0115  0.0114
    1AU     AUL  267   3.801   6.487   6.659 -0.0000  0.0033 -0.0116
    1AU       S  268   3.319   6.482   6.780 -0.3701  0.5605 -0.0969
    1AU     LIG  269   3.038   6.378   7.160  0.2419 -0.1651 -0.1783
    1AU     LIG  270   2.768   6.246   7.509 -0.2752 -0.0215 -0.0885
    1AU     LIG  271   2.527   6.102   7.708  0.1582 -0.0835 -0.5634
    1AU       S  272   4.268   6.442   6.823  0.0275 -0.2116 -0.1131
    1AU     LIG  273   4.532   6.199   7.139 -0.1123 -0.2549  0.1284
    1AU     LIG  274   4.838   5.997   7.442  0.1309  0.1690 -0.1816
    1AU     LIG  275   5.015   5.698   7.451 -0.5899 -0.1715 -0.0115
    1AU    AUSL  276   4.095   5.518   5.681  0.0158  0.0296 -0.0055
    1AU    AUSL  277   4.358   5.759   5.961  0.0050  0.0179  0.0537
    1AU     AUL  278   4.189   5.325   5.915 -0.0314  0.0627  0.0110
    1AU       S  279   4.529   5.364   6.257  0.4707 -0.2832  0.1706
    1AU     LIG  280   4.807   5.116   6.117 -0.4927  0.1648  0.2640
    1AU     LIG  281   4.945   4.704   5.961  0.1662  0.3021 -0.1259
    1AU     LIG  282   5.364   4.640   5.852 -0.0430 -0.1826  0.0989
    1AU       S  283   4.457   5.083   5.654  0.2491 -0.2604  0.1532
    1AU     LIG  284   4.437   4.775   5.930 -0.3245  0.1622  0.4652
    1AU     LIG  285   4.534   4.832   6.372 -0.0687 -0.0219 -0.1155
    1AU     LIG  286   4.464   4.637   6.701 -0.1685 -0.2134 -0.2599
    1AU    AUSL  287   4.519   5.595   5.596  0.0004  0.0449  0.0095
    1AU    AUSL  288   4.548   5.746   5.144 -0.0293 -0.0067  0.0041
    1AU     AUL  289   4.740   5.490   5.303 -0.0454  0.0548 -0.0593
    1AU       S  290   4.608   5.264   5.710  0.0760 -0.8057  0.0957
    1AU     LIG  291   5.086   5.037   5.652  0.1154  0.3575 -0.3642
    1AU     LIG  292   5.502   4.886   5.447  0.2552 -0.6111  0.0455
    1AU     LIG  293   5.751   5.134   5.474  0.2681 -0.4531 -0.0294
    1AU       S  294   4.857   5.714   4.917  0.0113  0.0318 -0.1909
    1AU     LIG  295   5.334   5.658   4.827 -0.2388  0.0818 -0.1280
    1AU     LIG  296   5.668   5.688   5.186  0.1674  0.0026  0.1474
    1AU     LIG  297   6.059   5.602   5.061 -0.2848 -0.2566 -0.1680
    1AU    AUSL  298   4.248   5.471   5.266 -0.0801 -0.0275  0.0433
    1AU    AUSL  299   3.730   5.267   5.660 -0.0382  0.0162  0.0645
    1AU     AUL  300   4.050   5.224   5.449  0.0560  0.0089  0.0474
    1AU       S  301   3.611   5.045   5.593  0.2058 -0.0049  0.0426
    1AU     LIG  302   3.590   4.622   5.686  0.1060  0.2898 -0.2313
    1AU     LIG  303   3.640   4.209   5.612 -0.0942  0.1741 -0.1151
    1AU     LIG  304   3.763   3.825   5.781 -0.0366  0.0552 -0.4358
    1AU       S  305   4.501   5.103   5.364  0.1631 -0.1702 -0.0146
    1AU     LIG  306   4.670   4.678   5.406  0.0733 -0.5611 -0.0037
    1AU     LIG  307   5.059   4.580   5.362 -0.1231  0.0159  0.4079
    1AU     LIG  308   5.453   4.642   5.014  0.0018 -0.0506  0.1255
    1AU    AUSL  309   3.038   6.454   6.066  0.0421 -0.0380 -0.0001
    1AU    AUSL  310   3.079   6.440   5.631  0.1312 -0.0157 -0.0421
    1AU     AUL  311   2.858   6.268   6.017  0.0268  0.0588 -0.0644
    1AU       S  312   2.781   6.727   6.144 -0.0690  0.3543 -0.0316
    1AU     LIG  313   2.309   6.626   6.234  0.0151 -0.2844 -0.1828
    1AU     LIG  314   1.869   6.751   6.210  0.1350  0.2717 -0.0628
    1AU     LIG  315   1.471   6.830   6.059  0.1272 -0.2635 -0.3094
    1AU       S  316   2.724   6.468   5.630 -0.5181  0.0641  0.4007
    1AU     LIG  317   2.449   6.783   5.653 -0.2842  0.1149  0.2405
    1AU     LIG  318   1.997   6.999   5.708 -0.2068 -0.2950 -0.5336
    1AU     LIG  319   1.533   7.065   5.654 -0.3316  0.0306 -0.1391
    1AU    AUSL  320   3.430   6.665   6.053 -0.0518  0.0157  0.0056
    1AU    AUSL  321   3.351   6.217   6.207  0.0484  0.0234  0.0141
    1AU     AUL  322   3.206   6.551   6.327  0.1167  0.1325  0.0539
    1AU       S  323   2.900   6.880   6.239  0.2099 -0.0071 -0.1265
    1AU     LIG  324   2.553   6.971   6.534  0.3544 -0.1479 -0.0173
    1AU     LIG  325   2.089   7.060   6.569  0.0229 -0.1994 -0.1687
    1AU     LIG  326   1.613   7.083   6.530  0.3828 -0.1440  0.4263
    1AU       S  327   3.220   6.188   6.637 -0.1149  0.1388 -0.0401
    1AU     LIG  328   2.892   5.986   6.842 -0.0476 -0.3820 -0.4674
    1AU     LIG  329   2.490   6.112   6.993  0.0026 -0.1053 -0.0863
    1AU     LIG  330   2.362   6.289   7.245 -0.1160 -0.3287  0.6013
    1AU    AUSL  331   3.098   6.827   5.816 -0.0083  0.0783 -0.0189
    1AU    AUSL  332   3.506   7.038   5.861  0.0885  0.0512  0.0457
    1AU     AUL  333   3.306   6.995   6.133 -0.0057 -0.0372  0.0444
    1AU       S  334   3.268   7.301   5.780 -0.1780 -0.1049  0.1048
    1AU     LIG  335   3.412   7.731   6.035 -0.2696  0.4304  0.1303
    1AU     LIG  336   3.709   8.062   5.913 -0.0690 -0.0031  0.0355
    1AU     LIG  337   3.786   8.550   5.695 -0.1056  0.1856  0.0007
    1AU       S  338   2.873   6.924   5.874  0.1011  0.2529 -0.2273
    1AU     LIG  339   2.440   7.119   6.063  0.0006 -0.1982 -0.2261
    1AU     LIG  340   2.005   7.291   6.101  0.0280  0.1382 -0.2637
    1AU     LIG  341   1.555   7.321   6.144 -0.2711 -0.3585 -0.1249
    1AU    AUSL  342   4.466   6.172   5.244 -0.1207  0.0281 -0.1194
    1AU    AUSL  343   4.165   5.883   5.030 -0.0243 -0.0158  0.1044
    1AU     AUL  344   4.553   6.048   4.959  0.0212 -0.0039  0.0221
    1AU       S  345   4.994   5.978   5.049 -0.2803  0.1732  0.0482
    1AU     LIG  346   5.471   6.111   5.154 -0.1687 -0.0467 -0.3644
    1AU     LIG  347   5.688   6.390   4.936 -0.0287  0.5495  0.0554
    1AU     LIG  348   5.765   6.737   4.833 -0.1437 -0.3647  0.0553
    1AU       S  349   4.304   5.720   4.736  0.2770 -0.2460  0.2675
    1AU     LIG  350   4.475   5.500   4.478 -0.2111  0.2933  0.1049
    1AU     LIG  351   4.243   5.241   4.353  0.0173  0.1586 -0.2952
    1AU     LIG  352   3.973   4.911   4.192 -0.1310  0.5095  0.1028
    1AU    AUSL  353   4.764   5.917   5.488  0.0482 -0.0436 -0.0816
    1AU    AUSL  354   4.721   6.501   5.315 -0.0400 -0.0055 -0.0110
    1AU     AUL  355   4.842   6.226   5.421 -0.0331 -0.0166  0.0023
    1AU       S  356   5.089   5.806   5.229  0.1936 -0.2973  0.3801
    1AU     LIG  357   5.416   5.525   5.578  0.2227 -0.0559 -0.4166
    1AU     LIG  358   5.717   5.524   5.812 -0.1388  0.1507  0.3040
    1AU     LIG  359   6.021   5.393   6.059 -0.2481  0.2167 -0.0852
    1AU       S  360   4.972   6.726   5.435 -0.0047 -0.2258  0.2614
    1AU     LIG  361   5.259   7.149   5.537  0.0602 -0.0232 -0.0196
    1AU     LIG  362   5.622   6.973   5.737 -0.0404 -0.0493  0.3835
    1AU     LIG  363   5.846   7.225   6.015  0.0823 -0.1575 -0.2183
    1AU    AUSL  364   3.659   7.143   5.459  0.0490 -0.0100 -0.0200
    1AU    AUSL  365   3.812   6.989   6.166  0.1411 -0.0828  0.0129
    1AU     AUL  366   3.728   7.262   5.864  0.0399 -0.0321 -0.0008
    1AU       S  367   3.981   7.224   6.289 -0.2633  0.0053  0.1554
    1AU     LIG  368   4.165   7.456   6.628  0.1686 -0.0098  0.1027
    1AU     LIG  369   4.318   7.712   6.863 -0.2038 -0.0205  0.3065
    1AU     LIG  370   4.562   8.055   6.971 -0.5999  0.6094  0.0178
    1AU       S  371   3.402   7.399   5.551 -0.2976 -0.1226  0.2304
    1AU     LIG  372   3.231   7.771   5.584 -0.2742  0.0754  0.1668
    1AU     LIG  373   3.202   8.252   5.665  0.0699  0.2641 -0.1582
    1AU     LIG  374   3.089   8.547   5.320  0.1958  0.0779 -0.2464
    1AU    AUSL  375   3.402   6.768   5.526 -0.0536  0.0325  0.0765
    1AU    AUSL  376   3.715   6.805   5.191  0.0111  0.0348  0.0542
    1AU     AUL  377   3.371   7.026   5.266  0.0138 -0.0004  0.0010
    1AU       S  378   3.090   7.225   5.581 -0.2945  0.1436 -0.0437
    1AU     LIG  379   2.861   7.532   5.873  0.1013  0.2522  0.0237
    1AU     LIG  380   2.452   7.617   6.028 -0.0551  0.2341 -0.1306
    1AU     LIG  381   2.323   7.475   6.441 -0.0032 -0.2107  0.4000
    1AU       S  382   3.635   7.123   4.905  0.0460 -0.0696  0.1167
    1AU     LIG  383   3.394   7.582   5.051 -0.1678 -0.1041 -0.1896
    1AU     LIG  384   3.576   7.932   5.202  0.2539 -0.4815  0.2248
    1AU     LIG  385   3.649   8.236   5.314 -0.0236 -0.3245  0.1212
    2POPC   NC3  386   2.046   8.626   7.982  0.0618  0.1154  0.4002
    2POPC   PO4  387   1.609   8.461   7.801  0.0504 -0.0050 -0.2588
    2POPC   GL1  388   1.535   8.581   7.393  0.1064 -0.0279  0.1000
    2POPC   GL2  389   1.400   8.970   7.214  0.1905 -0.3163 -0.1861
    2POPC   C1A  390   1.377   8.228   7.031 -0.3712  0.2907  0.0417
    2POPC   D2A  391   1.037   8.022   6.836 -0.2275  0.1143  0.2156
    2POPC   C3A  392   0.760   8.199   6.632  0.0054  0.2482  0.3147
    2POPC   C4A  393   0.764   8.420   6.300 -0.0907 -0.0753  0.2136
    2POPC   C1B  394   1.856   8.947   7.119  0.1520  0.3417 -0.0817
    2POPC   C2B  395   2.020   9.080   6.656 -0.0767 -0.1480  0.0423
    2POPC   C3B  396   2.033   9.202   6.312 -0.2190 -0.1433 -0.3706
    2POPC   C4B  397   2.099   9.580   6.063  0.0961 -0.1197 -0.4481
    3POPC   NC3  398   3.106   3.637   7.973  0.1545 -0.0014  0.2149
    3POPC   PO4  399   3.541   3.627   8.145 -0.0401 -0.1049 -0.2089
    3POPC   GL1  400   3.588   3.854   7.755  0.0823  0.0071  0.0124
    3POPC   GL2  401   3.364   3.674   7.530 -0.2725 -0.1628  0.0866
    3POPC   C1A  402   3.877   3.769   7.340 -0.0099 -0.1994 -0.2269
    3POPC   D2A  403   3.934   3.607   6.977  0.0504  0.4163 -0.3373
    3POPC   C3A  404   4.026   3.901   6.717 -0.0072  0.1399 -0.0814
    3POPC   C4A  405   4.197   3.755   6.319 -0.0782  0.2518 -0.1027
    3POPC   C1B  406   3.433   3.687   7.030 -0.0335 -0.3268 -0.1896
    3POPC   C2B  407   3.653   3.583   6.547 -0.1269  0.0479 -0.1333
    3POPC   C3B  408   3.418   3.389   6.308  0.1732 -0.2454 -0.0861
    3POPC   C4B  409   3.199   3.020   6.094 -0.1085 -0.0022 -0.1519
    4POPC   NC3  410   4.724   9.061   7.948  0.1666 -0.1825 -0.2138
    4POPC   PO4  411   5.179   9.248   7.990  0.1074 -0.2265 -0.0843
    4POPC   GL1  412   5.075   9.099   7.563  0.0896 -0.1578  0.0558
    4POPC   GL2  413   5.068   8.787   7.487 -0.1595 -0.1764  0.2206
    4POPC   C1A  414   5.204   9.125   7.080  0.0831  0.5631 -0.1772
    4POPC   D2A  415   5.243   9.181   6.714  0.1943  0.0641 -0.0809
    4POPC   C3A  416   5.139   8.926   6.424  0.1035 -0.1749 -0.3120
    4POPC   C4A  417   4.947   8.767   6.094  0.0751  0.0592 -0.0075
    4POPC   C1B  418   4.652   8.942   7.216 -0.0283 -0.1484 -0.1385
    4POPC   C2B  419   4.703   8.969   6.812 -0.0653  0.1250  0.0469
    4POPC   C3B  420   4.744   8.605   6.549 -0.1228 -0.1667 -0.1338
    4POPC   C4B  421   4.738   8.149   6.503  0.1318  0.0658 -0.0064
    5POPC   NC3  422   6.313   3.579   7.950 -0.0009 -0.0032  0.0411
    5POPC   PO4  423   6.635   3.599   7.558 -0.0831  0.1683  0.0256
    5POPC   GL1  424   6.842   3.767   7.236 -0.2753  0.2425  0.1050
    5POPC   GL2  425   7.071   3.617   7.004 -0.0052 -0.0436  0.0130
    5POPC   C1A  426   6.624   3.982   6.839 -0.0061  0.1042 -0.0598
    5POPC   D2A  427   6.598   4.096   6.496  0.1405  0.3303 -0.0769
    5POPC   C3A  428   6.248   4.298   6.396 -0.0036  0.0671 -0.0700
    5POPC   C4A  429   5.985   4.477   6.054  0.2804 -0.0937  0.1126
    5POPC   C1B  430   7.064   3.818   6.566 -0.1304 -0.0294 -0.1149
    5POPC   C2B  431   7.164   3.973   6.232 -0.1538  0.2468 -0.0468
    5POPC   C3B  432   7.445   4.133   5.964  0.1374 -0.2526 -0.2455
    5POPC   C4B  433   7.988   4.102   6.016 -0.3689 -0.1044 -0.2532
    6POPC   NC3  434   2.559   5.672   8.525 -0.0345  0.5426 -0.1282
    6POPC   PO4  435   2.156   5.824   8.225  0.0534 -0.0161  0.2157
    6POPC   GL1  436   1.965   5.690   7.822  0.0291  0.1605  0.0652
    6POPC   GL2  437   1.646   5.669   7.733 -0.2028 -0.0279  0.2381
    6POPC   C1A  438   1.947   5.925   7.398 -0.4520 -0.2079 -0.0033
    6POPC   D2A  439   1.896   6.152   7.030 -0.2431 -0.4192  0.1422
    6POPC   C3A  440   1.599   6.128   6.712 -0.1147 -0.1404  0.0656
    6POPC   C4A  441   1.475   6.432   6.425  0.2634  0.2348 -0.0359
    6POPC   C1B  442   1.664   5.505   7.278 -0.1621  0.0270 -0.2155
    6POPC   C2B  443   1.723   5.601   6.823  0.0960  0.2266 -0.0550
    6POPC   C3B  444   2.010   5.728   6.548 -0.0763 -0.2814 -0.1259
    6POPC   C4B  445   2.100   5.706   6.098  0.2907  0.4077  0.0659
    7POPC   NC3  446   8.507   0.188   7.714  0.0918  0.0719  0.3133
    7POPC   PO4  447   8.123   0.288   7.454 -0.0687 -0.2733  0.0578
    7POPC   GL1  448   8.339   0.421   7.053 -0.1339 -0.1175  0.0174
    7POPC   GL2  449   8.563   0.542   7.108  0.0250  0.0560 -0.1546
    7POPC   C1A  450   8.528   0.315   6.660 -0.1109  0.1975 -0.0630
    7POPC   D2A  451   8.438   0.056   6.293  0.1736 -0.1503  0.2100
    7POPC   C3A  452   8.118  -0.212   6.415  0.1348  0.1325  0.0310
    7POPC   C4A  453   7.759  -0.330   6.364  0.0715  0.2749  0.2027
    7POPC   C1B  454   8.792   0.722   6.829 -0.0066  0.0793  0.0720
    7POPC   C2B  455   9.013   1.106   6.823  0.1518  0.0523 -0.1113
    7POPC   C3B  456   9.253   1.297   6.711  0.0988 -0.1555 -0.0403
    7POPC   C4B  457   9.567   1.619   6.655 -0.2207 -0.0673 -0.0445
    8POPC   NC3  458   1.616   3.895   7.978 -0.0308 -0.1951  0.2986
    8POPC   PO4  459   1.246   3.871   7.772  0.1698 -0.0108 -0.1116
    8POPC   GL1  460   1.593   4.035   7.499  0.1738  0.2288  0.2247
    8POPC   GL2  461   1.804   4.303   7.745  0.2272  0.0563  0.0875
    8POPC   C1A  462   1.666   4.069   7.069  0.1011 -0.1155 -0.2509
    8POPC   D2A  463   1.774   3.789   6.813  0.1185 -0.2795  0.0206
    8POPC   C3A  464   1.626   3.964   6.358  0.2766 -0.1090  0.3778
    8POPC   C4A  465   1.222   4.101   6.204 -0.0619 -0.1534 -0.3115
    8POPC   C1B  466   1.995   4.413   7.422 -0.0337  0.2026  0.1440
    8POPC   C2B  467   2.144   4.605   7.054 -0.1615 -0.0172  0.2237
    8POPC   C3B  468   2.095   4.796   6.640  0.2148 -0.1706  0.2630
    8POPC   C4B  469   2.303   4.820   6.200  0.1249 -0.0420  0.1385
    9POPC   NC3  470   7.323   3.299   7.954 -0.1684 -0.3013 -0.1017
    9POPC   PO4  471   7.449   3.088   7.577 -0.1770  0.3668 -0.0389
    9POPC   GL1  472   7.373   2.977   7.183 -0.1077 -0.1618  0.1980
    9POPC   GL2  473   7.349   3.168   6.883 -0.1773 -0.0496 -0.2262
    9POPC   C1A  474   7.241   2.634   6.995  0.1046  0.0564 -0.5226
    9POPC   D2A  475   7.353   2.347   6.711  0.0095  0.1370 -0.1770
    9POPC   C3A  476   7.621   2.073   6.527  0.0614 -0.0731 -0.2032
    9POPC   C4A  477   7.760   1.627   6.711  0.0320  0.3792  0.2049
    9POPC   C1B  478   7.533   2.844   6.605  0.1772  0.0473  0.0746
    9POPC   C2B  479   7.588   2.552   6.292  0.1293 -0.0397 -0.0365
    9POPC   C3B  480   7.842   2.362   6.128 -0.4271  0.0442 -0.1192
    9POPC   C4B  481   7.981   2.013   5.799  0.2406  0.1258  0.0482
   10POPC   NC3  482   7.515   0.300   8.080  0.4463  0.0029  0.2503
   10POPC   PO4  483   7.224   0.385   7.697  0.1400 -0.0145 -0.0114
   10POPC   GL1  484   7.279   0.548   7.359 -0.2615 -0.2158 -0.2283
   10POPC   GL2  485   7.152   0.631   7.108  0.0550  0.1406 -0.0256
   10POPC   C1A  486   7.389   1.011   7.111  0.1221  0.0220  0.1759
   10POPC   D2A  487   7.570   1.125   6.732  0.0856 -0.0304 -0.0281
   10POPC   C3A  488   8.058   1.270   6.605  0.1168  0.0398  0.1306
   10POPC   C4A  489   8.238   1.589   6.519 -0.0755  0.1450 -0.1392
   10POPC   C1B  490   7.468   0.562   6.807  0.2148  0.2608 -0.0522
   10POPC   C2B  491   7.739   0.720   6.445 -0.0077 -0.0162 -0.0631
   10POPC   C3B  492   7.998   0.765   6.001  0.0533  0.4226 -0.3107
   10POPC   C4B  493   8.060   1.038   5.622  0.2489  0.0848 -0.0500
   11POPC   NC3  494   5.592   7.694   7.502 -0.3445 -0.0948 -0.2028
   11POPC   PO4  495   6.052   7.720   7.310 -0.1217  0.2460  0.0906
   11POPC   GL1  496   5.794   7.987   7.074 -0.0366 -0.1696 -0.0557
   11POPC   GL2  497   5.509   7.803   7.022  0.5680 -0.1399 -0.0218
   11POPC   C1A  498   5.598   8.261   6.703 -0.2148  0.1830 -0.1875
   11POPC   D2A  499   5.253   8.432   6.436 -0.0479  0.3326  0.0018
   11POPC   C3A  500   5.296   8.366   5.994 -0.0431  0.2365 -0.1192
   11POPC   C4A  501   5.096   7.991   5.809 -0.2885 -0.3286  0.3209
   11POPC   C1B  502   5.737   7.665   6.658 -0.0417  0.1298 -0.1752
   11POPC   C2B  503   5.963   7.584   6.261  0.2617 -0.2792  0.0540
   11POPC   C3B  504   5.936   7.890   5.812 -0.0998 -0.1039  0.0606
   11POPC   C4B  505   5.863   8.069   5.381 -0.0937  0.0837  0.1180
   12POPC   NC3  506   9.903   6.509   7.576 -0.0419  0.0696  0.0860
   12POPC   PO4  507   9.630   6.726   7.260  0.0667  0.0070 -0.1423
   12POPC   GL1  508   9.373   6.693   6.944  0.1966 -0.3255  0.0069
   12POPC   GL2  509   9.079   6.961   6.838  0.1586 -0.0697  0.0036
   12POPC   C1A  510   9.213   6.510   6.640 -0.1421 -0.2556 -0.0437
   12POPC   D2A  511   9.334   6.472   6.242  0.1857  0.1190  0.3476
   12POPC   C3A  512   9.695   6.677   6.043 -0.2267  0.2707  0.2031
   12POPC   C4A  513  10.068   6.911   6.113  0.2928  0.0432 -0.1948
   12POPC   C1B  514   9.474   6.993   6.552 -0.0768  0.0813 -0.1273
   12POPC   C2B  515   9.508   7.162   6.189 -0.0148 -0.2886  0.0853
   12POPC   C3B  516   9.766   7.162   5.850 -0.1358  0.1928 -0.1689
   12POPC   C4B  517   9.960   7.431   5.654  0.1817 -0.1069  0.0253
   13POPC   NC3  518   6.006   5.680   7.831 -0.0429  0.2267 -0.0273
   13POPC   PO4  519   6.321   5.292   7.771  0.0352  0.0019 -0.3894
   13POPC   GL1  520   6.421   5.105   7.308  0.1504 -0.1724  0.1121
   13POPC   GL2  521   6.526   4.867   7.269 -0.1337  0.1145 -0.0368
   13POPC   C1A  522   6.200   5.440   7.104 -0.0150 -0.3911  0.1521
   13POPC   D2A  523   6.051   5.478   6.591  0.0484  0.0774  0.1135
   13POPC   C3A  524   5.622   5.514   6.468 -0.0880  0.0647  0.0955
   13POPC   C4A  525   5.293   5.727   6.538  0.0003 -0.2153  0.2964
   13POPC   C1B  526   6.285   4.948   6.883  0.0400  0.0255  0.0145
   13POPC   C2B  527   6.049   4.915   6.428  0.0572  0.2024 -0.0351
   13POPC   C3B  528   5.719   4.984   6.121  0.3140  0.0016  0.0591
   13POPC   C4B  529   5.266   5.291   6.053  0.1169 -0.0298  0.1228
   14POPC   NC3  530   1.548   0.228   8.259 -0.2118  0.2145  0.0006
   14POPC   PO4  531   1.883   0.108   7.879  0.1128  0.0644  0.0993
   14POPC   GL1  532   2.121   0.021   7.490 -0.0699  0.1455  0.2501
   14POPC   GL2  533   2.405   0.216   7.410 -0.2092 -0.1837 -0.0890
   14POPC   C1A  534   1.873  -0.180   7.127 -0.1410  0.2574 -0.0337
   14POPC   D2A  535   2.114  -0.416   6.780  0.1699 -0.1635 -0.0276
   14POPC   C3A  536   2.422  -0.717   6.876  0.1155 -0.1189  0.0285
   14POPC   C4A  537   2.695  -0.803   7.185  0.0237  0.0216  0.1088
   14POPC   C1B  538   2.346   0.249   6.867 -0.1560  0.0041  0.0255
   14POPC   C2B  539   2.197   0.060   6.477  0.0216 -0.1291  0.0371
   14POPC   C3B  540   2.181   0.172   5.965 -0.0668  0.3392 -0.0518
   14POPC   C4B  541   2.218   0.342   5.479  0.1651 -0.2705  0.1943
   15POPC   NC3  542   1.221   8.919   7.854 -0.0384 -0.0041  0.1288
   15POPC   PO4  543   1.358   9.329   7.678  0.0231 -0.1085 -0.0043
   15POPC   GL1  544   1.415   9.443   7.277 -0.0837 -0.2417 -0.1974
   15POPC   GL2  545   1.448   9.897   7.364 -0.3116 -0.0320  0.3748
   15POPC   C1A  546   1.608   9.339   6.932  0.2824 -0.0545  0.1631
   15POPC   D2A  547   1.544   9.189   6.581 -0.0891 -0.1339  0.2330
   15POPC   C3A  548   1.258   8.979   6.277  0.0202  0.0591  0.1377
   15POPC   C4A  549   1.340   8.811   6.050 -0.1733  0.0385  0.0475
   15POPC   C1B  550   1.403   9.790   6.876  0.0375 -0.2628  0.3751
   15POPC   C2B  551   1.650   9.712   6.531  0.0706  0.2283 -0.1889
   15POPC   C3B  552   1.588   9.496   6.149 -0.0660  0.0135  0.2123
   15POPC   C4B  553   1.749   9.247   5.810 -0.0422  0.3664  0.2452
   16POPC   NC3  554   2.835   0.081   8.316 -0.0054  0.1102 -0.2125
   16POPC   PO4  555   3.058  -0.189   7.857 -0.1974 -0.2116 -0.1062
   16POPC   GL1  556   3.189  -0.452   7.470  0.0028  0.0304  0.0359
   16POPC   GL2  557   3.157  -0.733   7.378  0.0236 -0.0275  0.1039
   16POPC   C1A  558   3.000  -0.445   7.033  0.2622 -0.2453 -0.1047
   16POPC   D2A  559   2.979  -0.567   6.640 -0.1791 -0.2180  0.0331
   16POPC   C3A  560   3.318  -0.557   6.429 -0.0293 -0.0132  0.2467
   16POPC   C4A  561   3.418  -0.831   6.100  0.1032  0.0402 -0.0217
   16POPC   C1B  562   3.167  -0.934   6.955  0.2601  0.2763  0.1639
   16POPC   C2B  563   3.273  -1.126   6.717 -0.0091 -0.0390 -0.0853
   16POPC   C3B  564   3.180  -1.252   6.278 -0.0580 -0.0786  0.2909
   16POPC   C4B  565   3.246  -1.221   5.822  0.6643 -0.1422 -0.1485
   17POPC   NC3  566   0.444   7.657   7.943  0.1978  0.3186  0.2529
   17POPC   PO4  567   0.772   7.821   7.655  0.2543 -0.2418  0.0926
   17POPC   GL1  568   0.903   7.685   7.283 -0.0442  0.1278 -0.0340
   17POPC   GL2  569   0.608   7.773   7.068  0.0568  0.0693  0.1662
   17POPC   C1A  570   1.263   7.610   6.944  0.0908  0.1507 -0.1881
   17POPC   D2A  571   1.645   7.549   6.712  0.0934 -0.3680 -0.1941
   17POPC   C3A  572   1.842   7.690   6.350  0.1497  0.1421 -0.0783
   17POPC   C4A  573   2.016   7.768   5.888  0.2648  0.1299  0.1532
   17POPC   C1B  574   0.329   7.609   6.778 -0.0085  0.2773 -0.0391
   17POPC   C2B  575  -0.148   7.736   6.554 -0.3533 -0.0693 -0.1222
   17POPC   C3B  576  -0.198   7.720   6.169 -0.2250 -0.2759  0.0867
   17POPC   C4B  577  -0.446   7.593   5.839 -0.2175  0.1095 -0.1052
   18POPC   NC3  578   2.967   4.630   8.407 -0.0675  0.3290 -0.2782
   18POPC   PO4  579   2.952   4.310   8.057  0.1842 -0.2133 -0.0929
   18POPC   GL1  580   3.270   4.293   7.692  0.0704 -0.0299 -0.1321
   18POPC   GL2  581   3.019   4.061   7.629 -0.0273  0.0076 -0.2435
   18POPC   C1A  582   3.464   4.131   7.279 -0.2444 -0.1624 -0.0915
   18POPC   D2A  583   3.619   4.097   6.883  0.3385  0.2479  0.0232
   18POPC   C3A  584   3.335   3.993   6.577 -0.1195 -0.0987  0.0938
   18POPC   C4A  585   3.360   4.076   6.107  0.1313  0.0057  0.1475
   18POPC   C1B  586   2.995   4.282   7.293 -0.1246  0.5528 -0.0660
   18POPC   C2B  587   3.165   4.404   6.913  0.0970 -0.0923 -0.1680
   18POPC   C3B  588   3.177   4.511   6.531 -0.0383 -0.1018 -0.2484
   18POPC   C4B  589   3.406   4.601   6.179  0.1988  0.0925 -0.0401
   19POPC   NC3  590   5.390   7.501   7.880 -0.0239 -0.2810  0.1040
   19POPC   PO4  591   5.073   7.697   7.872  0.1786  0.0615  0.0583
   19POPC   GL1  592   4.812   7.513   7.747 -0.2483  0.1102 -0.1413
   19POPC   GL2  593   4.561   7.377   7.899 -0.2061 -0.3117  0.4585
   19POPC   C1A  594   4.654   7.109   7.520 -0.2812 -0.1213 -0.1661
   19POPC   D2A  595   4.421   6.673   7.378  0.2101 -0.0455 -0.1587
   19POPC   C3A  596   4.432   6.359   7.731  0.2782 -0.1112 -0.0944
   19POPC   C4A  597   4.465   5.796   7.789  0.0299  0.0489  0.0349
   19POPC   C1B  598   4.215   7.126   7.962 -0.2284 -0.4517  0.1743
   19POPC   C2B  599   4.154   6.756   7.752 -0.3548  0.1730  0.0763
   19POPC   C3B  600   3.984   6.457   7.465 -0.0793 -0.1637 -0.1268
   19POPC   C4B  601   3.586   6.460   7.298  0.4228 -0.3102 -0.0172
   20POPC   NC3  602   5.681   1.402   7.589  0.0581 -0.0299 -0.3329
   20POPC   PO4  603   5.900   1.016   7.410 -0.3099 -0.3573  0.0588
   20POPC   GL1  604   5.843   1.226   7.084 -0.0945 -0.0481 -0.1392
   20POPC   GL2  605   5.476   1.096   7.061 -0.0463 -0.3762 -0.0304
   20POPC   C1A  606   6.028   1.151   6.643  0.2626  0.3652 -0.1653
   20POPC   D2A  607   6.262   1.210   6.322 -0.2742 -0.0855  0.0489
   20POPC   C3A  608   6.271   1.578   6.086  0.1244  0.0655  0.3004
   20POPC   C4A  609   6.442   1.721   5.638  0.0217  0.3973 -0.2110
   20POPC   C1B  610   5.551   0.897   6.712 -0.0962  0.0242 -0.1409
   20POPC   C2B  611   5.563   0.928   6.253  0.0029 -0.0064  0.1177
   20POPC   C3B  612   5.735   0.758   5.769 -0.3232  0.1524 -0.1333
   20POPC   C4B  613   5.978   0.879   5.508  0.3221  0.0996 -0.0265
   21POPC   NC3  614   5.655   8.439   7.933  0.1384 -0.2716 -0.1319
   21POPC   PO4  615   6.130   8.452   7.807 -0.0827  0.1091 -0.1578
   21POPC   GL1  616   5.994   8.458   7.440  0.5173 -0.0756 -0.1592
   21POPC   GL2  617   5.680   8.511   7.434 -0.2529  0.3121 -0.1474
   21POPC   C1A  618   6.006   8.519   6.935 -0.0436  0.3156  0.1429
   21POPC   D2A  619   6.223   8.896   6.935  0.3543  0.1550  0.0848
   21POPC   C3A  620   6.134   9.231   6.581  0.0187  0.2724  0.1429
   21POPC   C4A  621   6.280   9.282   6.061 -0.2626 -0.0009  0.1212
   21POPC   C1B  622   5.765   8.855   7.192  0.0401 -0.2427 -0.1706
   21POPC   C2B  623   5.742   9.072   6.807  0.0599 -0.0356  0.1810
   21POPC   C3B  624   5.621   9.201   6.415 -0.4748 -0.0183 -0.1048
   21POPC   C4B  625   5.692   9.383   5.989  0.0261  0.2223 -0.0745
   22POPC   NC3  626   8.918   5.984   7.411 -0.0371 -0.2620 -0.2280
   22POPC   PO4  627   8.538   5.731   7.334  0.1879  0.2099 -0.2370
   22POPC   GL1  628   8.655   5.808   6.942  0.1287 -0.1622 -0.0651
   22POPC   GL2  629   8.298   5.746   6.838  0.0991  0.0573  0.2194
   22POPC   C1A  630   8.978   5.836   6.632 -0.1558  0.0969  0.0067
   22POPC   D2A  631   8.971   6.050   6.195 -0.3324 -0.2630 -0.1908
   22POPC   C3A  632   9.259   5.855   5.819  0.2310 -0.0035 -0.3312
   22POPC   C4A  633   9.481   5.624   5.441  0.0137  0.0810 -0.3384
   22POPC   C1B  634   8.456   5.502   6.456  0.2149  0.1561  0.0241
   22POPC   C2B  635   8.510   5.090   6.234 -0.2107 -0.0085 -0.1990
   22POPC   C3B  636   8.460   4.933   5.881  0.1862 -0.1645  0.1276
   22POPC   C4B  637   8.241   4.862   5.465  0.1697  0.3684  0.0744
   23POPC   NC3  638   4.650   3.313   7.751 -0.1081  0.1328  0.1871
   23POPC   PO4  639   4.487   3.722   7.805 -0.0454  0.0378  0.1321
   23POPC   GL1  640   4.735   3.679   7.390  0.0376 -0.2917 -0.0247
   23POPC   GL2  641   4.965   3.538   7.308  0.1603 -0.1077 -0.1434
   23POPC   C1A  642   4.809   3.802   6.951 -0.0077  0.2031 -0.0584
   23POPC   D2A  643   5.041   3.861   6.570  0.0776  0.0767 -0.1744
   23POPC   C3A  644   5.335   4.235   6.619  0.0439 -0.0833  0.0459
   23POPC   C4A  645   5.426   4.563   6.872  0.0468 -0.1605  0.0074
   23POPC   C1B  646   5.117   3.392   6.874  0.1947  0.1302 -0.0219
   23POPC   C2B  647   5.188   3.270   6.450  0.2933 -0.4198 -0.2181
   23POPC   C3B  648   5.452   3.031   6.259 -0.3596 -0.1887 -0.1040
   23POPC   C4B  649   5.741   2.653   6.083 -0.0126  0.0414  0.0327
   24POPC   NC3  650   7.178   9.904   7.330 -0.0637 -0.0929 -0.5071
   24POPC   PO4  651   7.159   9.554   7.513 -0.2196  0.0916  0.0304
   24POPC   GL1  652   6.975   9.478   7.118 -0.2900  0.6349  0.1914
   24POPC   GL2  653   6.988   9.532   6.763 -0.1413 -0.2822 -0.1954
   24POPC   C1A  654   6.584   9.276   6.769 -0.1353  0.3212  0.1525
   24POPC   D2A  655   6.620   9.216   6.369  0.0550  0.1169  0.2249
   24POPC   C3A  656   6.576   8.845   6.035  0.2140  0.0513 -0.3736
   24POPC   C4A  657   6.213   8.727   5.768  0.0915  0.0891  0.0279
   24POPC   C1B  658   7.118   9.391   6.378  0.2009  0.2244  0.0139
   24POPC   C2B  659   7.181   9.273   5.932 -0.2750 -0.0272 -0.3887
   24POPC   C3B  660   7.457   9.574   5.661  0.1387  0.2366  0.2229
   24POPC   C4B  661   7.564   9.900   5.900  0.4515  0.2198  0.1181
   25POPC   NC3  662   5.392   6.963   8.235 -0.0681 -0.3516 -0.1623
   25POPC   PO4  663   5.684   7.187   8.137  0.1072  0.1366 -0.2893
   25POPC   GL1  664   5.489   7.096   7.622 -0.3250 -0.2938 -0.1224
   25POPC   GL2  665   5.171   7.081   7.584 -0.1198 -0.1325 -0.0657
   25POPC   C1A  666   5.648   7.098   7.220  0.2488  0.0082 -0.1135
   25POPC   D2A  667   5.823   7.164   6.693  0.1738  0.1967  0.1283
   25POPC   C3A  668   6.160   7.243   6.630  0.0277 -0.0217 -0.0981
   25POPC   C4A  669   6.371   7.560   6.737 -0.2693 -0.1291 -0.2007
   25POPC   C1B  670   5.264   6.778   7.218  0.2644 -0.0045  0.0547
   25POPC   C2B  671   5.276   7.028   6.824 -0.0849  0.0497  0.5103
   25POPC   C3B  672   5.252   7.458   6.760  0.0860  0.3257 -0.3253
   25POPC   C4B  673   4.816   7.677   6.654 -0.0643 -0.2685 -0.0675
   26POPC   NC3  674   5.774   3.867   7.890  0.1688  0.0060  0.2094
   26POPC   PO4  675   5.786   3.456   7.813  0.1683 -0.2874  0.1443
   26POPC   GL1  676   5.803   3.264   7.491 -0.0824  0.3033 -0.1054
   26POPC   GL2  677   5.972   3.229   7.149  0.3198  0.3245 -0.0882
   26POPC   C1A  678   5.465   3.261   7.169  0.1091  0.3420  0.3158
   26POPC   D2A  679   5.449   3.024   6.910  0.0732  0.3221  0.1658
   26POPC   C3A  680   5.813   2.863   6.632  0.2016 -0.0034  0.3427
   26POPC   C4A  681   6.209   2.574   6.629  0.0668 -0.0727  0.1057
   26POPC   C1B  682   6.296   3.058   6.852  0.0989 -0.1493  0.2655
   26POPC   C2B  683   6.495   2.982   6.489  0.0152 -0.1299 -0.1231
   26POPC   C3B  684   6.650   3.139   6.183 -0.1577 -0.2640 -0.2156
   26POPC   C4B  685   6.859   2.963   5.890  0.1631  0.0681 -0.1807
   27POPC   NC3  686   6.752   2.295   7.480  0.3935  0.1855  0.0842
   27POPC   PO4  687   6.582   2.619   7.597  0.1900  0.1656 -0.2219
   27POPC   GL1  688   6.547   2.900   7.271  0.3014 -0.0764 -0.1476
   27POPC   GL2  689   6.480   3.253   7.288 -0.2459  0.1552  0.2350
   27POPC   C1A  690   6.771   2.897   6.891  0.3081 -0.1923 -0.0350
   27POPC   D2A  691   7.010   3.076   6.553  0.0216  0.0597 -0.1814
   27POPC   C3A  692   7.109   2.788   6.311 -0.0041  0.1081  0.5055
   27POPC   C4A  693   7.116   2.409   6.211  0.1270  0.0668  0.3980
   27POPC   C1B  694   6.710   3.352   6.856  0.1420  0.1863  0.1344
   27POPC   C2B  695   6.522   3.495   6.524 -0.0809  0.0420 -0.0478
   27POPC   C3B  696   6.312   3.677   6.155  0.0207  0.1469  0.1115
   27POPC   C4B  697   6.014   3.499   5.802 -0.1668 -0.1387 -0.3902
   28POPC   NC3  698   8.859   6.567   7.488 -0.0810 -0.0384  0.0674
   28POPC   PO4  699   8.759   6.883   7.197 -0.2362 -0.2296 -0.1559
   28POPC   GL1  700   8.496   6.902   6.889 -0.0990 -0.0927  0.1975
   28POPC   GL2  701   8.225   6.787   6.898 -0.0185 -0.0414 -0.2126
   28POPC   C1A  702   8.544   7.048   6.487  0.1604  0.1709 -0.0146
   28POPC   D2A  703   8.514   6.897   6.039 -0.0922 -0.2525 -0.1591
   28POPC   C3A  704   8.583   6.809   5.637 -0.2278 -0.2920  0.1730
   28POPC   C4A  705   8.787   7.025   5.260  0.2147  0.0340  0.2486
   28POPC   C1B  706   8.088   6.896   6.425  0.2988 -0.0227  0.0196
   28POPC   C2B  707   8.064   7.077   6.018  0.1528 -0.0738 -0.1398
   28POPC   C3B  708   8.094   6.705   5.701  0.1618 -0.0504  0.2046
   28POPC   C4B  709   8.004   6.446   5.315 -0.3303 -0.2538 -0.1555
   29POPC   NC3  710   4.970   8.120   8.199 -0.2443 -0.0211  0.2281
   29POPC   PO4  711   5.414   8.014   8.003  0.0760 -0.1347  0.0095
   29POPC   GL1  712   5.301   8.147   7.595 -0.2249 -0.0106 -0.0573
   29POPC   GL2  713   5.010   8.113   7.491 -0.0701 -0.0554 -0.0379
   29POPC   C1A  714   5.350   8.246   7.117 -0.0315  0.3358 -0.1959
   29POPC   D2A  715   5.119   8.062   6.832 -0.3245  0.2551  0.1251
   29POPC   C3A  716   5.263   7.889   6.484 -0.0871 -0.0271 -0.2737
   29POPC   C4A  717   5.600   7.966   6.212  0.0967 -0.2344  0.0261
   29POPC   C1B  718   4.763   8.408   7.332  0.4264 -0.0352  0.1617
   29POPC   C2B  719   4.959   8.534   6.992  0.2419 -0.1160  0.0686
   29POPC   C3B  720   5.382   8.722   6.871  0.0409 -0.0281  0.0183
   29POPC   C4B  721   5.669   8.713   6.472 -0.2339 -0.1033  0.0546
   30POPC   NC3  722   8.794   9.091   7.255 -0.1006  0.2283 -0.0013
   30POPC   PO4  723   9.178   9.319   7.469 -0.3155 -0.0632 -0.1885
   30POPC   GL1  724   9.393   9.506   7.077  0.1541 -0.1186 -0.0459
   30POPC   GL2  725   9.606   9.794   7.000  0.2174  0.0505 -0.0273
   30POPC   C1A  726   9.291   9.542   6.631  0.0140 -0.1180 -0.4321
   30POPC   D2A  727   9.207   9.946   6.371 -0.0338 -0.0637 -0.1939
   30POPC   C3A  728   8.960  10.122   6.090 -0.0619  0.2888 -0.3840
   30POPC   C4A  729   8.604  10.074   5.805 -0.1696 -0.0013 -0.1180
   30POPC   C1B  730   9.778   9.743   6.568  0.1975 -0.4612 -0.1857
   30POPC   C2B  731  10.099   9.391   6.458  0.0208 -0.1282  0.3069
   30POPC   C3B  732  10.570   9.349   6.535 -0.4035 -0.0093  0.0543
   30POPC   C4B  733  10.975   9.324   6.554 -0.0380 -0.0322 -0.3318
   31POPC   NC3  734   9.458   7.481   7.428  0.3308 -0.2091 -0.1201
   31POPC   PO4  735   9.030   7.724   7.472  0.1978  0.1923  0.0176
   31POPC   GL1  736   9.103   7.793   6.924  0.1323 -0.1929  0.2327
   31POPC   GL2  737   9.466   7.645   6.946 -0.0662 -0.0842  0.1810
   31POPC   C1A  738   8.951   8.198   6.584 -0.0596  0.1586 -0.3355
   31POPC   D2A  739   8.780   8.357   6.218  0.2619 -0.2140 -0.1349
   31POPC   C3A  740   8.959   8.243   5.961 -0.2079  0.1109 -0.0886
   31POPC   C4A  741   9.352   8.159   5.991 -0.0583 -0.0271 -0.1397
   31POPC   C1B  742   9.336   7.513   6.533 -0.1139  0.3231  0.1459
   31POPC   C2B  743   9.091   7.292   6.478  0.1768 -0.2037 -0.1241
   31POPC   C3B  744   9.035   6.977   6.282 -0.0963  0.1097 -0.0359
   31POPC   C4B  745   9.026   7.042   5.895  0.1343  0.0109 -0.2032
   32POPC   NC3  746   6.744   5.562   7.656  0.2245 -0.1381 -0.2006
   32POPC   PO4  747   6.719   6.047   7.494 -0.0361  0.1309 -0.5494
   32POPC   GL1  748   6.788   5.889   7.100  0.4423 -0.1670 -0.0448
   32POPC   GL2  749   7.108   5.957   6.942  0.0377  0.0292  0.0555
   32POPC   C1A  750   6.653   5.532   6.794 -0.2882  0.1109 -0.1047
   32POPC   D2A  751   6.469   5.277   6.539 -0.0559  0.0355  0.3315
   32POPC   C3A  752   6.558   5.217   6.096  0.0091 -0.1589 -0.3348
   32POPC   C4A  753   6.615   5.360   5.754  0.1251  0.3131  0.0911
   32POPC   C1B  754   7.124   5.575   6.712  0.0516 -0.0917 -0.0671
   32POPC   C2B  755   7.295   5.578   6.317 -0.0244  0.1352 -0.0703
   32POPC   C3B  756   7.038   5.518   5.939 -0.0646  0.1210  0.0726
   32POPC   C4B  757   7.005   5.528   5.444  0.0366  0.1609  0.3897
   33POPC   NC3  758   4.242   8.234   8.170 -0.1682 -0.1139 -0.1008
   33POPC   PO4  759   4.619   8.510   8.196 -0.2417 -0.0884 -0.3249
   33POPC   GL1  760   4.610   8.394   7.844  0.2105 -0.0128  0.0251
   33POPC   GL2  761   4.620   8.663   7.727 -0.1501  0.1259  0.1733
   33POPC   C1A  762   4.500   8.086   7.559 -0.1787 -0.1615  0.1317
   33POPC   D2A  763   4.474   7.693   7.350 -0.0640  0.0518 -0.0211
   33POPC   C3A  764   4.797   7.418   7.128 -0.1579 -0.0367  0.4014
   33POPC   C4A  765   4.765   6.872   7.050 -0.0810  0.1106 -0.1228
   33POPC   C1B  766   4.216   8.579   7.645 -0.1021  0.0618  0.0528
   33POPC   C2B  767   3.831   8.608   7.383  0.1611  0.0922 -0.0891
   33POPC   C3B  768   3.785   8.559   6.959 -0.0954  0.1556 -0.1210
   33POPC   C4B  769   3.876   8.758   6.661  0.0967 -0.0421  0.2803
   34POPC   NC3  770   4.016   0.250   7.656 -0.1849 -0.0156  0.1890
   34POPC   PO4  771   4.260  -0.095   7.701  0.1351 -0.0634 -0.1840
   34POPC   GL1  772   3.957  -0.180   7.304  0.0392  0.0005 -0.1426
   34POPC   GL2  773   3.667   0.036   7.363  0.0459 -0.2287 -0.2740
   34POPC   C1A  774   4.042  -0.248   6.811 -0.0421  0.3107  0.1807
   34POPC   D2A  775   4.036  -0.375   6.357  0.0866  0.0169  0.0555
   34POPC   C3A  776   4.120   0.058   6.117  0.1258 -0.1536 -0.4874
   34POPC   C4A  777   4.204   0.463   5.848 -0.0766 -0.0271 -0.2117
   34POPC   C1B  778   3.659   0.165   6.917  0.1267 -0.0725 -0.2810
   34POPC   C2B  779   3.818   0.653   6.733  0.1996 -0.2144 -0.1556
   34POPC   C3B  780   3.594   0.837   6.399 -0.1356 -0.3465  0.1619
   34POPC   C4B  781   3.728   1.206   6.146 -0.1099  0.3099 -0.2137
   35POPC   NC3  782   3.083   1.262   7.949  0.0564  0.0085 -0.3494
   35POPC   PO4  783   2.698   1.537   7.941 -0.3006  0.1673  0.1513
   35POPC   GL1  784   2.644   1.790   7.565  0.1436  0.2427 -0.0368
   35POPC   GL2  785   2.610   1.623   7.292  0.1998 -0.0647 -0.0357
   35POPC   C1A  786   2.771   2.112   7.412  0.0851  0.0227 -0.4408
   35POPC   D2A  787   2.938   2.384   7.221 -0.1591  0.1607  0.2315
   35POPC   C3A  788   2.801   2.641   6.829  0.0497  0.0033  0.0933
   35POPC   C4A  789   2.445   2.940   6.663 -0.0608 -0.1143 -0.2248
   35POPC   C1B  790   2.989   1.810   7.070  0.0047 -0.3127  0.2642
   35POPC   C2B  791   3.221   1.700   6.726 -0.1797  0.1315 -0.0690
   35POPC   C3B  792   3.286   1.490   6.354 -0.0085 -0.2779  0.0503
   35POPC   C4B  793   3.371   1.480   5.939 -0.5726  0.0169  0.0113
   36POPC   NC3  794   0.275   8.458   7.165  0.2121 -0.0082 -0.0784
   36POPC   PO4  795   0.093   8.868   7.056  0.4165  0.4097 -0.1622
   36POPC   GL1  796   0.251   8.813   6.603 -0.1720  0.3034  0.0878
   36POPC   GL2  797   0.348   8.561   6.529 -0.0760  0.1976 -0.0813
   36POPC   C1A  798   0.311   9.025   6.226 -0.0990  0.3744  0.1899
   36POPC   D2A  799   0.483   9.388   5.967  0.0088 -0.3156  0.2611
   36POPC   C3A  800   0.883   9.356   5.881  0.0848  0.2417 -0.1289
   36POPC   C4A  801   1.130   9.552   5.840  0.0697  0.1478  0.0412
   36POPC   C1B  802   0.313   8.553   6.084 -0.0007 -0.0900 -0.0538
   36POPC   C2B  803   0.108   8.254   5.826  0.1412  0.1385 -0.2763
   36POPC   C3B  804  -0.232   7.984   5.536 -0.1382 -0.2392 -0.1294
   36POPC   C4B  805  -0.719   7.921   5.449  0.1616  0.0224  0.0997
   37POPC   NC3  806   5.741   2.931   7.831 -0.0217 -0.0601  0.2186
   37POPC   PO4  807   5.357   2.726   7.723  0.1310 -0.1221 -0.1109
   37POPC   GL1  808   5.140   2.755   7.298  0.0978 -0.0829 -0.2935
   37POPC   GL2  809   4.910   3.075   7.378  0.2373 -0.1807  0.0211
   37POPC   C1A  810   5.003   2.743   6.829  0.2006  0.1230 -0.0114
   37POPC   D2A  811   4.965   2.762   6.428  0.2483  0.2004  0.2445
   37POPC   C3A  812   4.687   3.021   6.057 -0.2084 -0.3599  0.1542
   37POPC   C4A  813   4.433   3.412   6.050 -0.0406  0.1177  0.2404
   37POPC   C1B  814   4.725   3.119   6.970 -0.0439 -0.4083 -0.1032
   37POPC   C2B  815   4.379   2.996   6.662 -0.0678  0.1245  0.2624
   37POPC   C3B  816   4.278   2.922   6.235 -0.1460  0.2273  0.0909
   37POPC   C4B  817   4.222   2.539   6.038 -0.1857  0.1394  0.2686
   38POPC   NC3  818   7.307   9.161   7.247  0.0569  0.1706  0.1063
   38POPC   PO4  819   7.524   8.795   7.379 -0.4357  0.2544 -0.0603
   38POPC   GL1  820   7.448   8.786   6.922 -0.0994 -0.1249  0.2174
   38POPC   GL2  821   7.741   8.850   6.810  0.0451  0.0545  0.2726
   38POPC   C1A  822   7.307   8.626   6.583 -0.1253 -0.1371 -0.2550
   38POPC   D2A  823   7.080   8.448   6.213 -0.0268  0.0486  0.0345
   38POPC   C3A  824   6.820   8.357   6.290 -0.2979 -0.0766 -0.2878
   38POPC   C4A  825   6.467   8.404   6.289 -0.0970  0.0212 -0.0243
   38POPC   C1B  826   7.625   9.071   6.321 -0.0083 -0.2839 -0.1756
   38POPC   C2B  827   7.695   9.003   5.893  0.1630 -0.0935  0.0438
   38POPC   C3B  828   7.849   9.217   5.557 -0.2086 -0.0278  0.0091
   38POPC   C4B  829   7.936   9.540   5.143  0.0113 -0.1015  0.0671
   39POPC   NC3  830   1.957   3.139   7.662  0.0805 -0.0429 -0.0758
   39POPC   PO4  831   1.610   2.905   7.798  0.2815  0.1685  0.2717
   39POPC   GL1  832   1.235   2.985   7.430 -0.1700  0.1105 -0.1422
   39POPC   GL2  833   0.893   2.756   7.453 -0.0210 -0.1374 -0.0100
   39POPC   C1A  834   1.239   2.686   7.061  0.2076 -0.1272 -0.3132
   39POPC   D2A  835   1.034   2.637   6.714 -0.0937 -0.1241 -0.0242
   39POPC   C3A  836   1.053   2.917   6.405 -0.0902  0.1282 -0.1228
   39POPC   C4A  837   1.325   3.015   6.018  0.1194  0.1957  0.0654
   39POPC   C1B  838   0.769   2.921   7.120  0.0062 -0.3739 -0.0516
   39POPC   C2B  839   0.627   2.932   6.711 -0.0291  0.1007  0.0738
   39POPC   C3B  840   0.321   2.784   6.389  0.0428 -0.0447 -0.1852
   39POPC   C4B  841   0.275   2.556   5.983 -0.0374  0.1955 -0.1218
   40POPC   NC3  842   9.270   8.832   7.361 -0.0768 -0.0116 -0.1036
   40POPC   PO4  843   8.923   8.608   7.293 -0.0327  0.1083 -0.2120
   40POPC   GL1  844   9.194   8.480   6.974  0.0042  0.0824  0.1677
   40POPC   GL2  845   9.449   8.159   6.886  0.1285  0.0967  0.1491
   40POPC   C1A  846   9.458   8.535   6.583 -0.0221 -0.1243  0.1523
   40POPC   D2A  847   9.266   8.596   6.199 -0.0333 -0.2539  0.0932
   40POPC   C3A  848   9.308   8.981   5.872  0.0974 -0.2291 -0.1140
   40POPC   C4A  849   9.021   9.311   5.602 -0.2456  0.1945  0.0334
   40POPC   C1B  850   9.384   8.010   6.452  0.2765  0.0328  0.2035
   40POPC   C2B  851   9.135   7.763   6.123  0.1269 -0.1102 -0.0888
   40POPC   C3B  852   9.028   7.487   5.747 -0.3904 -0.2226 -0.2836
   40POPC   C4B  853   9.337   7.125   5.498 -0.2253  0.0305 -0.0307
   41POPC   NC3  854   0.005   9.351   7.088  0.0092  0.0625 -0.0057
   41POPC   PO4  855  -0.322   9.123   7.194 -0.3095 -0.0261 -0.0400
   41POPC   GL1  856  -0.312   9.227   6.739  0.1264 -0.1063 -0.2695
   41POPC   GL2  857  -0.232   8.917   6.672  0.1443 -0.0782  0.3371
   41POPC   C1A  858  -0.276   9.348   6.256  0.0418  0.1898 -0.0540
   41POPC   D2A  859  -0.144   9.682   6.083  0.1083  0.0623 -0.0171
   41POPC   C3A  860   0.245   9.886   6.078  0.0179 -0.0701 -0.0238
   41POPC   C4A  861   0.375   9.899   6.390 -0.1331 -0.2371 -0.0974
   41POPC   C1B  862  -0.101   8.824   6.257  0.2939 -0.2346 -0.4356
   41POPC   C2B  863  -0.017   9.073   5.891  0.3601  0.0400 -0.0733
   41POPC   C3B  864   0.207   9.276   5.462 -0.2826 -0.2601 -0.3794
   41POPC   C4B  865   0.610   9.232   5.429  0.1192 -0.0029 -0.2578
   42POPC   NC3  866   8.265   3.547   7.558  0.1116 -0.0245  0.0982
   42POPC   PO4  867   8.546   3.368   7.346  0.0036 -0.2312  0.1975
   42POPC   GL1  868   8.806   3.323   6.982 -0.2745  0.0820  0.2640
   42POPC   GL2  869   9.146   3.281   6.962  0.0399  0.0816 -0.0778
   42POPC   C1A  870   8.749   3.493   6.520  0.0742  0.1189 -0.2697
   42POPC   D2A  871   8.715   3.415   6.125  0.0082  0.1423  0.0420
   42POPC   C3A  872   8.301   3.609   5.892  0.4524  0.0978  0.0238
   42POPC   C4A  873   7.997   3.612   5.674  0.0352  0.1503 -0.0489
   42POPC   C1B  874   9.273   3.627   6.743  0.0471  0.2000  0.1969
   42POPC   C2B  875   9.379   4.016   6.445 -0.5033  0.1579 -0.0734
   42POPC   C3B  876   9.736   4.245   6.253 -0.1792 -0.1669  0.1735
   42POPC   C4B  877   9.922   4.438   5.889 -0.0354  0.0267  0.0905
   43POPC   NC3  878   0.136   0.391   8.167 -0.0606  0.0321  0.0243
   43POPC   PO4  879   0.308   0.554   7.840 -0.0723  0.1358 -0.0857
   43POPC   GL1  880   0.319   0.831   7.394  0.0692  0.0553  0.1772
   43POPC   GL2  881   0.080   1.138   7.312  0.0760 -0.0267 -0.1297
   43POPC   C1A  882   0.470   0.852   6.882 -0.1230  0.3710 -0.2558
   43POPC   D2A  883   0.408   0.914   6.477  0.1461  0.0783 -0.1497
   43POPC   C3A  884   0.874   0.783   6.430 -0.0742  0.0697  0.1622
   43POPC   C4A  885   1.240   0.654   6.582  0.1091 -0.1131 -0.1656
   43POPC   C1B  886   0.450   1.310   7.143  0.2565  0.0652  0.3040
   43POPC   C2B  887   0.777   1.592   6.990  0.2439 -0.0062  0.2214
   43POPC   C3B  888   1.169   1.816   6.944 -0.2162 -0.2014  0.0665
   43POPC   C4B  889   1.384   2.198   7.049 -0.1875  0.1450  0.1295
   44POPC   NC3  890   3.864   3.050   8.136 -0.0992 -0.3965  0.0268
   44POPC   PO4  891   4.233   3.091   7.812  0.2116  0.0515  0.0429
   44POPC   GL1  892   4.253   3.019   7.361 -0.3197 -0.0842 -0.0270
   44POPC   GL2  893   4.399   3.365   7.246 -0.1695  0.1515  0.1747
   44POPC   C1A  894   4.012   3.080   6.963  0.1425  0.0321 -0.3165
   44POPC   D2A  895   4.047   3.310   6.552  0.0267 -0.0873  0.2093
   44POPC   C3A  896   3.866   3.368   6.094  0.0436  0.2848 -0.3611
   44POPC   C4A  897   3.591   3.304   5.776  0.0954 -0.0129  0.1575
   44POPC   C1B  898   4.425   3.510   6.808  0.0871  0.0277 -0.0732
   44POPC   C2B  899   4.685   3.404   6.513 -0.1717 -0.0744 -0.0059
   44POPC   C3B  900   4.831   3.670   6.145 -0.0503 -0.2556  0.2296
   44POPC   C4B  901   4.808   3.900   5.791  0.2256 -0.2013  0.0141
   45POPC   NC3  902   8.394   4.256   8.131  0.1204  0.0508 -0.0005
   45POPC   PO4  903   8.357   3.974   7.768  0.2555  0.1286  0.1203
   45POPC   GL1  904   8.477   4.109   7.321  0.1592 -0.1135 -0.0477
   45POPC   GL2  905   8.443   3.844   7.178 -0.0139 -0.0143 -0.1809
   45POPC   C1A  906   8.645   4.172   6.909  0.2252 -0.2681 -0.1017
   45POPC   D2A  907   8.806   4.002   6.459 -0.2682 -0.2565 -0.0906
   45POPC   C3A  908   8.539   3.961   6.196 -0.1088  0.1004  0.3000
   45POPC   C4A  909   8.485   4.175   5.763  0.1376 -0.1466  0.1731
   45POPC   C1B  910   8.437   3.765   6.737  0.0229  0.0193 -0.1623
   45POPC   C2B  911   8.254   3.574   6.420 -0.2547  0.2535  0.1508
   45POPC   C3B  912   7.978   3.334   6.170  0.0170 -0.1965 -0.1413
   45POPC   C4B  913   7.859   2.846   6.027 -0.1029 -0.1737  0.0350
   46POPC   NC3  914   1.178   0.841   7.798 -0.3314  0.0278  0.0346
   46POPC   PO4  915   1.218   1.252   7.997  0.1615 -0.0447  0.0501
   46POPC   GL1  916   1.464   1.278   7.601 -0.0442  0.2549  0.0738
   46POPC   GL2  917   1.820   1.492   7.561  0.0900 -0.3804  0.0214
   46POPC   C1A  918   1.609   1.266   7.174  0.0122  0.1966  0.3436
   46POPC   D2A  919   1.391   1.316   6.834  0.2518  0.2728 -0.1033
   46POPC   C3A  920   1.269   1.148   6.470 -0.4177 -0.1522 -0.2890
   46POPC   C4A  921   1.186   0.990   6.101 -0.2400  0.0368 -0.3440
   46POPC   C1B  922   2.040   1.481   7.239 -0.1994  0.1503  0.3299
   46POPC   C2B  923   2.246   1.675   6.930 -0.1183 -0.0332 -0.1789
   46POPC   C3B  924   2.669   1.581   6.696  0.1532 -0.1712 -0.1217
   46POPC   C4B  925   2.920   1.762   6.317 -0.2453 -0.2037  0.1433
   47POPC   NC3  926   6.848   0.325   7.375  0.4316  0.3412  0.3043
   47POPC   PO4  927   6.583   0.646   7.360  0.0984 -0.1511 -0.0471
   47POPC   GL1  928   6.677   0.524   6.947 -0.1462  0.1634  0.1070
   47POPC   GL2  929   6.365   0.371   6.869 -0.2489 -0.1363  0.3744
   47POPC   C1A  930   7.002   0.481   6.564  0.1782 -0.0557  0.0764
   47POPC   D2A  931   7.174   0.441   6.126  0.4130 -0.0178 -0.2141
   47POPC   C3A  932   7.530   0.433   6.045 -0.0997 -0.1854 -0.2210
   47POPC   C4A  933   7.793   0.448   5.742  0.1607 -0.0028 -0.2368
   47POPC   C1B  934   6.209   0.185   6.494  0.1408 -0.1194  0.1356
   47POPC   C2B  935   6.282  -0.078   6.109  0.2191  0.0816 -0.1979
   47POPC   C3B  936   6.060  -0.297   5.794 -0.1266 -0.2730 -0.0089
   47POPC   C4B  937   5.681  -0.372   5.514 -0.4150  0.1028 -0.1132
   48POPC   NC3  938   0.328   5.014   7.451 -0.0154  0.1832  0.0302
   48POPC   PO4  939   0.664   4.644   7.756 -0.0597 -0.0349 -0.0317
   48POPC   GL1  940   0.725   4.752   7.244 -0.0383 -0.0823 -0.1133
   48POPC   GL2  941   0.725   5.091   7.232 -0.1173 -0.1765  0.1336
   48POPC   C1A  942   0.583   4.653   6.919  0.1800 -0.0118 -0.0111
   48POPC   D2A  943   0.609   4.789   6.472  0.0729 -0.2095 -0.0113
   48POPC   C3A  944   0.939   4.522   6.249  0.1455  0.0612 -0.1209
   48POPC   C4A  945   1.242   4.638   5.862  0.0717 -0.2363 -0.0002
   48POPC   C1B  946   0.860   5.094   6.829  0.1675 -0.0426  0.0034
   48POPC   C2B  947   1.252   5.055   6.485 -0.0941 -0.0884  0.2183
   48POPC   C3B  948   1.561   4.786   6.392 -0.2790  0.4020 -0.2046
   48POPC   C4B  949   1.624   4.468   6.123 -0.1288  0.0338  0.0841
   49POPC   NC3  950   8.608   4.528   7.724  0.1519 -0.1900 -0.0955
   49POPC   PO4  951   8.785   4.739   7.367  0.0058  0.0392  0.0597
   49POPC   GL1  952   9.010   4.984   7.065 -0.1612  0.2252  0.0270
   49POPC   GL2  953   9.340   5.063   7.059 -0.0907  0.0406 -0.0946
   49POPC   C1A  954   9.083   4.923   6.590 -0.0777  0.0448 -0.1475
   49POPC   D2A  955   8.844   4.824   6.262 -0.2900 -0.1898  0.1096
   49POPC   C3A  956   8.678   4.539   6.281 -0.4162 -0.0497 -0.2442
   49POPC   C4A  957   8.314   4.466   6.509 -0.1966  0.1000  0.1067
   49POPC   C1B  958   9.602   5.014   6.642 -0.0844 -0.3247 -0.0540
   49POPC   C2B  959   9.419   5.089   6.241  0.0254  0.0666  0.2035
   49POPC   C3B  960   9.315   4.818   5.885  0.0870 -0.4964 -0.4239
   49POPC   C4B  961   9.321   4.535   5.490  0.2809 -0.0369 -0.0938
   50POPC   NC3  962   5.957   4.137   8.287  0.1114 -0.0950  0.1998
   50POPC   PO4  963   6.186   4.221   7.902 -0.2883  0.0032 -0.3016
   50POPC   GL1  964   6.118   4.388   7.577 -0.3306  0.1997  0.0899
   50POPC   GL2  965   5.832   4.226   7.513  0.0278 -0.1483  0.0889
   50POPC   C1A  966   5.926   4.722   7.356  0.1757 -0.1226  0.0374
   50POPC   D2A  967   5.817   5.006   7.039  0.0454  0.0934  0.3060
   50POPC   C3A  968   5.609   4.982   6.662  0.5690  0.1356 -0.1770
   50POPC   C4A  969   5.305   4.817   6.355 -0.1384  0.0846  0.0332
   50POPC   C1B  970   5.735   4.233   7.198  0.3959 -0.1642 -0.3008
   50POPC   C2B  971   5.706   4.026   6.850  0.0769 -0.3573 -0.1814
   50POPC   C3B  972   5.522   3.801   6.476 -0.1860 -0.2467 -0.2289
   50POPC   C4B  973   5.368   3.840   6.009 -0.2216  0.2407  0.2199
   51POPC   NC3  974   3.617   6.933   8.827 -0.1176 -0.0043 -0.2925
   51POPC   PO4  975   3.256   6.950   8.520  0.2973 -0.0833 -0.1065
   51POPC   GL1  976   3.182   7.000   8.092  0.0428 -0.2478 -0.2069
   51POPC   GL2  977   3.188   6.717   7.979  0.2491 -0.1738 -0.0189
   51POPC   C1A  978   3.316   7.269   7.803 -0.2120 -0.0695  0.0092
   51POPC   D2A  979   3.559   7.644   7.832 -0.0621 -0.0123  0.2134
   51POPC   C3A  980   3.738   7.511   7.461 -0.3267 -0.1160  0.2742
   51POPC   C4A  981   3.997   7.585   7.182  0.4289 -0.2173 -0.2492
   51POPC   C1B  982   3.084   6.647   7.612  0.1406 -0.3148 -0.0928
   51POPC   C2B  983   2.563   6.709   7.493  0.1967  0.1209 -0.0707
   51POPC   C3B  984   2.199   6.811   7.181 -0.2342  0.0438 -0.0337
   51POPC   C4B  985   1.862   7.176   7.043 -0.4258 -0.0297  0.1415
   52POPC   NC3  986   7.176   1.222   8.103  0.2400  0.1485 -0.1184
   52POPC   PO4  987   6.962   1.395   7.770  0.1673  0.0969  0.2305
   52POPC   GL1  988   7.052   1.292   7.340 -0.0328  0.0291  0.0864
   52POPC   GL2  989   6.803   1.037   7.098 -0.2134  0.0782 -0.0937
   52POPC   C1A  990   7.201   1.477   6.906 -0.1271 -0.2155  0.2427
   52POPC   D2A  991   7.126   1.815   6.597 -0.2763 -0.0597 -0.1344
   52POPC   C3A  992   6.861   1.988   6.344 -0.2613  0.0670  0.1831
   52POPC   C4A  993   6.481   2.045   5.992  0.3659 -0.1894  0.0811
   52POPC   C1B  994   6.968   1.052   6.711 -0.1391 -0.1799 -0.1303
   52POPC   C2B  995   7.303   0.938   6.342  0.0690  0.2717  0.1268
   52POPC   C3B  996   7.520   0.928   5.963  0.2570  0.1212 -0.1845
   52POPC   C4B  997   7.536   0.853   5.506 -0.0496 -0.1780  0.0759
   53POPC   NC3  998   3.554   1.459   7.990 -0.1468  0.0086  0.0331
   53POPC   PO4  999   3.984   1.212   7.832 -0.3979 -0.1983 -0.0394
   53POPC   GL1 1000   3.889   1.005   7.428  0.0336 -0.2415  0.0143
   53POPC   GL2 1001   4.078   1.180   7.263  0.1771 -0.3135 -0.1124
   53POPC   C1A 1002   4.205   0.706   7.097  0.0293  0.2402 -0.0064
   53POPC   D2A 1003   4.334   0.687   6.695 -0.2136 -0.1298  0.0310
   53POPC   C3A 1004   4.733   0.802   6.661 -0.1195 -0.0591 -0.1732
   53POPC   C4A 1005   4.913   0.617   6.356 -0.1954 -0.3917  0.1433
   53POPC   C1B 1006   4.012   1.104   6.780  0.2608  0.0255  0.3580
   53POPC   C2B 1007   4.136   1.040   6.422  0.1468 -0.1706  0.2278
   53POPC   C3B 1008   4.082   0.669   6.268 -0.0372 -0.2661  0.1224
   53POPC   C4B 1009   3.724   0.481   5.981  0.0013  0.1581 -0.2721
   54POPC   NC3 1010   8.309   0.814   7.435  0.1536 -0.0514 -0.1241
   54POPC   PO4 1011   8.308   1.176   7.361  0.0922 -0.0797 -0.1789
   54POPC   GL1 1012   8.472   1.081   6.946  0.2768  0.1131 -0.1871
   54POPC   GL2 1013   8.176   0.860   6.863 -0.1069  0.2333 -0.0372
   54POPC   C1A 1014   8.539   1.200   6.537  0.2001  0.0391 -0.2575
   54POPC   D2A 1015   8.672   1.603   6.269  0.0713 -0.0868  0.0750
   54POPC   C3A 1016   8.401   1.597   5.823 -0.1553  0.2041 -0.1658
   54POPC   C4A 1017   8.250   1.497   5.453 -0.1324  0.1671  0.0439
   54POPC   C1B 1018   8.258   0.809   6.463  0.2396 -0.4037  0.1040
   54POPC   C2B 1019   8.421   0.532   6.170  0.1413 -0.1225 -0.1229
   54POPC   C3B 1020   8.818   0.674   6.046 -0.1684 -0.0942  0.2157
   54POPC   C4B 1021   9.062   0.998   6.318  0.3063  0.1521  0.1791
   55POPC   NC3 1022   6.145   6.347   8.104  0.1178  0.1073  0.1325
   55POPC   PO4 1023   5.937   6.196   7.763  0.0556  0.0469 -0.1047
   55POPC   GL1 1024   6.013   6.154   7.335 -0.1581  0.0439 -0.0979
   55POPC   GL2 1025   6.227   6.136   7.267 -0.1825  0.2256  0.0898
   55POPC   C1A 1026   5.983   6.258   6.870  0.0647  0.2242 -0.2217
   55POPC   D2A 1027   6.345   6.373   6.758 -0.0939 -0.2481  0.2339
   55POPC   C3A 1028   6.733   6.128   6.627  0.0609 -0.2148 -0.3019
   55POPC   C4A 1029   6.953   5.934   6.409  0.0734 -0.1548  0.0241
   55POPC   C1B 1030   6.305   5.915   6.835 -0.1325 -0.1164  0.1442
   55POPC   C2B 1031   6.414   5.765   6.388  0.0690  0.1453  0.2688
   55POPC   C3B 1032   6.213   5.824   5.911 -0.0684  0.1430  0.0600
   55POPC   C4B 1033   6.120   5.590   5.551 -0.0821  0.7013  0.0977
   56POPC   NC3 1034   6.481   8.594   7.322  0.1130 -0.0099 -0.1586
   56POPC   PO4 1035   6.769   8.372   7.277  0.0446  0.1179  0.2106
   56POPC   GL1 1036   6.800   8.199   6.883 -0.0219  0.2543 -0.2789
   56POPC   GL2 1037   6.396   8.283   6.958 -0.1360  0.0164  0.0710
   56POPC   C1A 1038   6.694   7.901   6.582 -0.3894  0.0764 -0.1686
   56POPC   D2A 1039   6.396   7.787   6.246 -0.2719  0.3488 -0.1673
   56POPC   C3A 1040   6.381   7.355   6.164 -0.0996  0.3227 -0.0577
   56POPC   C4A 1041   6.265   6.917   5.958 -0.4142  0.4838  0.0068
   56POPC   C1B 1042   6.196   8.054   6.612  0.0482  0.0789  0.4600
   56POPC   C2B 1043   6.086   8.152   6.188 -0.0096 -0.0510 -0.0204
   56POPC   C3B 1044   5.892   8.389   5.925  0.1257  0.0269 -0.0079
   56POPC   C4B 1045   5.612   8.467   5.652  0.0717  0.2270  0.0058
   57POPC   NC3 1046   7.876   2.788   7.609  0.2988 -0.2883 -0.1193
   57POPC   PO4 1047   8.172   3.067   7.362  0.2636  0.3933  0.2989
   57POPC   GL1 1048   7.838   3.240   7.258 -0.2016 -0.2953  0.1509
   57POPC   GL2 1049   7.837   3.037   7.008  0.1398 -0.2190  0.0423
   57POPC   C1A 1050   7.986   3.648   6.985 -0.1030  0.0072 -0.1486
   57POPC   D2A 1051   7.571   3.839   6.827  0.1864  0.2049 -0.0411
   57POPC   C3A 1052   7.592   4.168   6.630 -0.1219 -0.0413  0.3682
   57POPC   C4A 1053   7.851   4.509   6.463  0.1302  0.2026  0.1109
   57POPC   C1B 1054   7.755   3.315   6.680  0.0367  0.0311  0.2219
   57POPC   C2B 1055   7.465   3.466   6.461  0.1273  0.2624 -0.0434
   57POPC   C3B 1056   7.077   3.494   6.145  0.1461 -0.0848  0.0020
   57POPC   C4B 1057   6.818   3.513   5.810  0.0246 -0.1108 -0.1096
   58POPC   NC3 1058   2.294   1.826   8.014  0.0160 -0.1324 -0.0360
   58POPC   PO4 1059   1.989   1.693   8.046  0.0447 -0.1581 -0.0883
   58POPC   GL1 1060   1.912   2.001   7.706 -0.0339 -0.2779  0.1992
   58POPC   GL2 1061   2.175   1.822   7.514  0.1931 -0.6268  0.1504
   58POPC   C1A 1062   1.784   2.132   7.367 -0.1143  0.0913  0.1203
   58POPC   D2A 1063   1.901   2.332   6.953 -0.2413 -0.2902  0.1118
   58POPC   C3A 1064   2.119   2.078   6.611 -0.0785  0.0079  0.1075
   58POPC   C4A 1065   2.455   1.871   6.250  0.2658 -0.0881 -0.0687
   58POPC   C1B 1066   2.305   2.063   7.267 -0.1838  0.0431  0.2927
   58POPC   C2B 1067   2.646   2.058   6.824 -0.1430  0.1693  0.2268
   58POPC   C3B 1068   3.058   2.195   6.781  0.3268 -0.1273  0.0619
   58POPC   C4B 1069   3.203   2.613   6.513  0.1188  0.3179  0.4541
   59POPC   NC3 1070   0.053   3.325   7.903  0.2103  0.1475  0.2131
   59POPC   PO4 1071   0.514   3.260   7.867  0.3128  0.1626  0.1021
   59POPC   GL1 1072   0.725   3.378   7.551  0.1841  0.1242 -0.1856
   59POPC   GL2 1073   0.759   3.717   7.565 -0.0121  0.1292  0.3556
   59POPC   C1A 1074   0.938   3.409   7.257  0.2576  0.3255 -0.1063
   59POPC   D2A 1075   1.273   3.401   7.019  0.0736 -0.1880 -0.3665
   59POPC   C3A 1076   1.050   3.335   6.657 -0.2041 -0.0255 -0.2619
   59POPC   C4A 1077   1.371   3.333   6.424 -0.1134 -0.1424 -0.1680
   59POPC   C1B 1078   0.663   3.838   7.203 -0.0307  0.0957  0.2709
   59POPC   C2B 1079   0.445   4.136   6.946 -0.0092 -0.1505  0.3334
   59POPC   C3B 1080   0.406   4.348   6.588 -0.2390  0.0854  0.4835
   59POPC   C4B 1081   0.412   4.404   6.149 -0.3614  0.0045  0.1816
   60POPC   NC3 1082   2.036   6.670   8.210 -0.2785 -0.1400  0.1477
   60POPC   PO4 1083   2.258   7.037   8.205 -0.2624 -0.2594 -0.1541
   60POPC   GL1 1084   2.505   7.203   7.836 -0.1022  0.1352  0.0544
   60POPC   GL2 1085   2.797   7.131   7.813 -0.2223 -0.2691 -0.1015
   60POPC   C1A 1086   2.487   7.212   7.388 -0.1488  0.4002 -0.2393
   60POPC   D2A 1087   2.464   7.198   6.936  0.1309 -0.0179 -0.0601
   60POPC   C3A 1088   2.917   7.281   6.726 -0.0322 -0.0621  0.0074
   60POPC   C4A 1089   2.895   7.365   6.348 -0.2879 -0.1013  0.1230
   60POPC   C1B 1090   2.931   7.389   7.434  0.1781  0.2670  0.0374
   60POPC   C2B 1091   3.192   7.209   7.159 -0.1362 -0.1968  0.1556
   60POPC   C3B 1092   3.544   7.241   7.009  0.1636 -0.1778 -0.0435
   60POPC   C4B 1093   3.668   7.508   6.732 -0.4685 -0.2697 -0.0314
   61POPC   NC3 1094   2.821   0.258   7.720 -0.5671  0.1067  0.0076
   61POPC   PO4 1095   3.258   0.233   7.681  0.1686  0.0574  0.1684
   61POPC   GL1 1096   3.118   0.025   7.274 -0.0356  0.0339  0.0981
   61POPC   GL2 1097   2.737  -0.063   7.121 -0.0236  0.0029 -0.3039
   61POPC   C1A 1098   3.177  -0.048   6.815  0.2842 -0.1688 -0.1383
   61POPC   D2A 1099   3.014   0.025   6.379  0.1485 -0.0743 -0.1481
   61POPC   C3A 1100   3.000  -0.313   6.121  0.1074 -0.1880 -0.0840
   61POPC   C4A 1101   3.124  -0.366   5.803 -0.0473  0.0646 -0.0076
   61POPC   C1B 1102   2.581  -0.184   6.722  0.1841 -0.0660 -0.0898
   61POPC   C2B 1103   2.439  -0.606   6.429 -0.1548 -0.0590 -0.0338
   61POPC   C3B 1104   2.457  -1.046   6.010 -0.1147 -0.3695 -0.0099
   61POPC   C4B 1105   2.228  -1.243   5.607 -0.2215 -0.2231 -0.0069
   62POPC   NC3 1106   3.216   5.078   8.820 -0.2167  0.1770  0.1803
   62POPC   PO4 1107   3.017   5.462   8.641  0.0689  0.0101  0.1558
   62POPC   GL1 1108   3.155   5.626   8.178  0.1368  0.1464  0.3967
   62POPC   GL2 1109   2.870   5.635   8.110 -0.2886 -0.0792 -0.2167
   62POPC   C1A 1110   3.363   5.743   7.870  0.1482  0.2073 -0.0900
   62POPC   D2A 1111   3.582   5.570   7.539  0.0127 -0.0365  0.1214
   62POPC   C3A 1112   3.743   5.529   7.210  0.0160  0.1548 -0.3351
   62POPC   C4A 1113   4.082   5.420   6.977 -0.1005  0.2390 -0.0726
   62POPC   C1B 1114   2.810   5.651   7.739 -0.1202 -0.0152  0.1774
   62POPC   C2B 1115   2.657   5.781   7.315 -0.1297 -0.2729 -0.0985
   62POPC   C3B 1116   2.395   5.452   7.447 -0.0973 -0.2007  0.2371
   62POPC   C4B 1117   2.079   5.308   7.565 -0.0082  0.2098 -0.1077
   63POPC   NC3 1118   2.146   9.579   7.912 -0.0454 -0.2260 -0.0701
   63POPC   PO4 1119   2.332   9.083   7.913 -0.1428 -0.1958  0.0819
   63POPC   GL1 1120   2.324   8.817   7.502 -0.3398 -0.1597 -0.0120
   63POPC   GL2 1121   2.095   8.585   7.463  0.0331  0.1582  0.1162
   63POPC   C1A 1122   2.338   8.761   7.037  0.0650  0.0470 -0.1619
   63POPC   D2A 1123   2.133   8.580   6.615  0.1557  0.2716  0.1370
   63POPC   C3A 1124   1.729   8.668   6.404 -0.2133 -0.4881  0.0327
   63POPC   C4A 1125   1.779   8.711   5.916  0.1439  0.2522  0.1921
   63POPC   C1B 1126   1.834   8.454   7.000 -0.0342 -0.1199  0.0162
   63POPC   C2B 1127   1.753   8.163   6.635  0.1556  0.0438  0.0002
   63POPC   C3B 1128   1.723   8.183   6.216 -0.1976  0.2281 -0.1325
   63POPC   C4B 1129   1.752   8.180   5.804 -0.0847  0.0355  0.2204
   64POPC   NC3 1130   1.796   5.376   8.152 -0.5960  0.1271  0.2976
   64POPC   PO4 1131   1.428   5.354   8.105 -0.0284 -0.1824  0.1592
   64POPC   GL1 1132   1.568   5.157   7.685  0.2772 -0.1248 -0.0382
   64POPC   GL2 1133   1.809   4.781   7.755 -0.1080 -0.2854  0.0520
   64POPC   C1A 1134   1.376   4.885   7.486 -0.2176 -0.0105  0.0420
   64POPC   D2A 1135   1.322   4.898   7.056  0.1331  0.1931 -0.1792
   64POPC   C3A 1136   1.162   4.645   6.759 -0.2621 -0.0603 -0.0941
   64POPC   C4A 1137   1.450   4.357   6.573  0.1344 -0.1726 -0.1564
   64POPC   C1B 1138   1.866   4.939   7.236  0.0879 -0.2918 -0.1958
   64POPC   C2B 1139   2.194   5.129   7.013 -0.1054 -0.0855 -0.2760
   64POPC   C3B 1140   2.588   5.070   6.728  0.2984 -0.0302  0.0707
   64POPC   C4B 1141   3.022   4.956   6.849 -0.4474 -0.1113 -0.2203
   65POPC   NC3 1142   3.196   3.221   8.340  0.2975 -0.0492  0.2638
   65POPC   PO4 1143   3.276   3.195   7.861  0.1839 -0.0750 -0.1347
   65POPC   GL1 1144   3.131   3.254   7.534 -0.1220  0.2235  0.2185
   65POPC   GL2 1145   2.879   2.985   7.449 -0.0443 -0.1033 -0.2316
   65POPC   C1A 1146   3.029   3.494   7.135  0.3008  0.1595 -0.1638
   65POPC   D2A 1147   3.141   3.551   6.640  0.1834  0.0207 -0.2465
   65POPC   C3A 1148   2.998   3.139   6.516  0.1127  0.0207  0.3529
   65POPC   C4A 1149   2.741   2.845   6.239  0.1103 -0.0513 -0.4642
   65POPC   C1B 1150   2.710   3.089   7.170  0.5087 -0.1327 -0.0900
   65POPC   C2B 1151   2.631   3.439   6.826 -0.2555 -0.1906 -0.1565
   65POPC   C3B 1152   2.779   3.589   6.323  0.0032  0.1036 -0.1567
   65POPC   C4B 1153   2.554   3.807   6.023 -0.1733  0.0634 -0.0778
   66POPC   NC3 1154   7.907   9.797   7.550  0.0139 -0.2376 -0.5940
   66POPC   PO4 1155   7.597   9.592   7.317  0.1568  0.1704  0.1042
   66POPC   GL1 1156   7.447   9.822   6.843 -0.0134  0.0854  0.0703
   66POPC   GL2 1157   7.227  10.007   6.828 -0.3569 -0.0912  0.2105
   66POPC   C1A 1158   7.588  10.084   6.442  0.4452 -0.1892  0.0813
   66POPC   D2A 1159   7.964  10.230   6.322 -0.1144  0.0093 -0.0565
   66POPC   C3A 1160   8.159  10.148   5.928 -0.3256 -0.3708 -0.3005
   66POPC   C4A 1161   8.243   9.903   5.480 -0.2340  0.0648 -0.2691
   66POPC   C1B 1162   7.140   9.903   6.362  0.0463  0.1517 -0.1816
   66POPC   C2B 1163   7.016  10.012   5.858 -0.2691 -0.0232 -0.1735
   66POPC   C3B 1164   6.997   9.761   5.608  0.0191  0.3209  0.2931
   66POPC   C4B 1165   6.752   9.861   5.173 -0.2014 -0.1869  0.1945
   67POPC   NC3 1166   6.283   1.853   8.131  0.0584 -0.0121 -0.0210
   67POPC   PO4 1167   5.933   1.738   7.873 -0.1762  0.2450  0.0100
   67POPC   GL1 1168   5.836   1.888   7.460  0.0495  0.1618  0.0079
   67POPC   GL2 1169   5.531   1.825   7.389  0.3419 -0.1150  0.2950
   67POPC   C1A 1170   5.941   1.726   7.035  0.1128  0.2199  0.4170
   67POPC   D2A 1171   5.893   1.716   6.526 -0.3367  0.1718  0.4679
   67POPC   C3A 1172   5.800   1.419   6.345  0.1656  0.0215 -0.0244
   67POPC   C4A 1173   5.546   1.369   5.915 -0.2215 -0.2913  0.1287
   67POPC   C1B 1174   5.665   2.238   7.195 -0.3358 -0.0670  0.0165
   67POPC   C2B 1175   5.482   2.477   6.888  0.3940  0.2466  0.1373
   67POPC   C3B 1176   5.439   2.491   6.439 -0.2558  0.0274  0.4269
   67POPC   C4B 1177   5.219   2.681   6.004 -0.0636  0.0727 -0.2700
   68POPC   NC3 1178   0.711   5.700   7.918  0.3699 -0.0097  0.1294
   68POPC   PO4 1179   0.354   5.534   7.650 -0.2495 -0.1232 -0.0327
   68POPC   GL1 1180   0.473   5.509   7.299 -0.0185 -0.1827 -0.1197
   68POPC   GL2 1181   0.792   5.598   7.047  0.4015  0.0497 -0.0182
   68POPC   C1A 1182   0.406   5.296   6.870 -0.0130 -0.2331 -0.0318
   68POPC   D2A 1183   0.154   5.080   6.639  0.2532  0.1366  0.2550
   68POPC   C3A 1184   0.478   5.214   6.264  0.0707 -0.1488  0.1454
   68POPC   C4A 1185   0.666   5.561   6.045 -0.3308 -0.2697  0.0593
   68POPC   C1B 1186   0.815   5.588   6.557 -0.2507  0.1615  0.1217
   68POPC   C2B 1187   0.717   5.958   6.367  0.1182 -0.0543 -0.0998
   68POPC   C3B 1188   0.586   6.111   5.959 -0.1508  0.2024  0.2684
   68POPC   C4B 1189   0.468   6.244   5.515 -0.2811  0.0174  0.0499
   69POPC   NC3 1190   4.479   1.486   7.983 -0.1039 -0.2851 -0.0697
   69POPC   PO4 1191   4.708   1.887   7.779  0.1436  0.0220  0.1104
   69POPC   GL1 1192   4.977   1.901   7.462 -0.0097  0.0587 -0.0867
   69POPC   GL2 1193   5.162   2.128   7.462  0.1047  0.0381 -0.2727
   69POPC   C1A 1194   5.088   1.905   6.986 -0.0726 -0.3699 -0.0349
   69POPC   D2A 1195   5.427   1.571   6.960  0.0462  0.3509  0.2281
   69POPC   C3A 1196   5.400   1.361   6.591  0.0890  0.1266 -0.1394
   69POPC   C4A 1197   5.146   1.031   6.443  0.1318  0.0071 -0.1285
   69POPC   C1B 1198   4.990   2.353   7.134 -0.2410  0.3537  0.2813
   69POPC   C2B 1199   5.089   2.242   6.672  0.1396  0.0784  0.1184
   69POPC   C3B 1200   5.106   2.176   6.255 -0.1709 -0.1213  0.2502
   69POPC   C4B 1201   5.102   2.278   5.797  0.0987 -0.2094  0.2823
   70POPC   NC3 1202   6.585   6.532   7.176  0.1199 -0.1177  0.2023
   70POPC   PO4 1203   6.728   6.975   7.115  0.0871 -0.4529 -0.0236
   70POPC   GL1 1204   6.678   6.965   6.728  0.0464 -0.1026  0.1996
   70POPC   GL2 1205   6.819   6.658   6.673 -0.1505  0.0752 -0.0406
   70POPC   C1A 1206   6.628   6.961   6.334  0.4349  0.0669  0.2553
   70POPC   D2A 1207   6.776   6.788   5.942 -0.1726 -0.2504  0.3016
   70POPC   C3A 1208   6.755   6.422   5.845  0.1732 -0.2636  0.2041
   70POPC   C4A 1209   6.681   5.909   5.780  0.1586  0.1006 -0.2649
   70POPC   C1B 1210   6.551   6.505   6.313  0.0010  0.2780 -0.2206
   70POPC   C2B 1211   6.271   6.440   6.049  0.0205  0.0817 -0.4702
   70POPC   C3B 1212   6.208   6.367   5.630  0.1355  0.2872 -0.0242
   70POPC   C4B 1213   6.435   6.698   5.378  0.1748  0.0612  0.4290
   71POPC   NC3 1214   3.868   4.028   8.394 -0.3073  0.1550 -0.0633
   71POPC   PO4 1215   4.214   4.274   8.212 -0.0572 -0.1634  0.1448
   71POPC   GL1 1216   4.229   4.482   7.829  0.0762  0.1675 -0.2847
   71POPC   GL2 1217   4.190   4.204   7.688 -0.0331  0.0832  0.0679
   71POPC   C1A 1218   4.021   4.679   7.443 -0.2085 -0.0994  0.0283
   71POPC   D2A 1219   4.281   4.811   7.113  0.0880 -0.2820 -0.2732
   71POPC   C3A 1220   4.755   4.808   7.116  0.3119 -0.0406  0.0500
   71POPC   C4A 1221   5.019   4.860   6.750  0.2661 -0.0232  0.4078
   71POPC   C1B 1222   3.953   4.223   7.299 -0.0269  0.0033  0.3807
   71POPC   C2B 1223   4.030   4.393   6.896  0.0116  0.0301  0.3419
   71POPC   C3B 1224   4.234   4.318   6.424 -0.0279  0.0165  0.1433
   71POPC   C4B 1225   4.605   4.338   6.130 -0.1213 -0.2763 -0.0939
   72POPC   NC3 1226   8.146   8.706   7.119  0.1020  0.0827  0.0870
   72POPC   PO4 1227   7.787   8.408   7.078  0.1100  0.0083  0.2224
   72POPC   GL1 1228   7.881   8.451   6.595  0.5232  0.3384  0.1016
   72POPC   GL2 1229   8.156   8.764   6.573 -0.0551 -0.2724 -0.3949
   72POPC   C1A 1230   7.815   8.605   6.229 -0.0428  0.1590  0.0424
   72POPC   D2A 1231   7.506   8.597   6.015 -0.3890 -0.0991 -0.1342
   72POPC   C3A 1232   7.264   8.318   5.777  0.1355  0.0341 -0.0141
   72POPC   C4A 1233   7.065   7.857   5.716  0.1956  0.0713  0.0377
   72POPC   C1B 1234   8.287   8.755   6.145  0.1541  0.1301 -0.0789
   72POPC   C2B 1235   8.424   8.437   5.875  0.0588 -0.3345 -0.2120
   72POPC   C3B 1236   8.366   8.320   5.366 -0.1892  0.2234  0.1704
   72POPC   C4B 1237   8.413   8.406   4.915 -0.3101  0.3495 -0.2121
   73POPC   NC3 1238   9.013   3.314   7.475  0.1555 -0.2395 -0.0562
   73POPC   PO4 1239   9.541   3.288   7.626  0.1200  0.1529  0.0815
   73POPC   GL1 1240   9.474   3.004   7.284  0.3075 -0.1911  0.1712
   73POPC   GL2 1241   9.143   2.846   7.176 -0.1207 -0.0600 -0.0737
   73POPC   C1A 1242   9.569   2.843   6.871 -0.0702 -0.0192 -0.0021
   73POPC   D2A 1243   9.514   2.621   6.487  0.0597  0.0587  0.1870
   73POPC   C3A 1244   9.197   2.602   6.038  0.3570  0.2530  0.2776
   73POPC   C4A 1245   8.769   2.631   6.000  0.3861  0.1620  0.2203
   73POPC   C1B 1246   9.114   2.878   6.717  0.4773  0.1460 -0.3727
   73POPC   C2B 1247   9.039   3.058   6.288  0.2733 -0.3168  0.4545
   73POPC   C3B 1248   9.058   3.195   5.865  0.1110  0.4464  0.3376
   73POPC   C4B 1249   8.986   2.887   5.584  0.2089  0.1738  0.2472
   74POPC   NC3 1250   5.386   0.781   7.543  0.3008  0.1690  0.4167
   74POPC   PO4 1251   4.934   0.844   7.683  0.0374 -0.0872 -0.1108
   74POPC   GL1 1252   4.999   0.962   7.290 -0.1116 -0.1262  0.2718
   74POPC   GL2 1253   4.767   0.956   7.231 -0.0890  0.0848 -0.2582
   74POPC   C1A 1254   5.167   0.639   6.861  0.0345 -0.0423 -0.1232
   74POPC   D2A 1255   5.398   0.497   6.519  0.2586 -0.1735  0.0506
   74POPC   C3A 1256   5.338   0.460   6.076 -0.1459  0.3208 -0.2725
   74POPC   C4A 1257   5.470   0.167   5.727 -0.1603  0.0497 -0.1324
   74POPC   C1B 1258   4.612   1.175   6.915 -0.0260  0.1034  0.0744
   74POPC   C2B 1259   4.566   1.235   6.429 -0.1139  0.2079  0.1553
   74POPC   C3B 1260   4.734   1.230   5.961  0.0193  0.0767  0.1770
   74POPC   C4B 1261   4.523   1.015   5.597  0.1272 -0.1659 -0.1358
   75POPC   NC3 1262   8.785   2.829   8.027 -0.1969 -0.2405  0.1567
   75POPC   PO4 1263   9.180   2.909   7.768 -0.0605  0.0286  0.2601
   75POPC   GL1 1264   9.387   2.556   7.523 -0.0493  0.0772  0.1305
   75POPC   GL2 1265   9.233   2.273   7.314  0.1799 -0.0294 -0.0818
   75POPC   C1A 1266   9.711   2.548   7.236  0.1168 -0.1115  0.0298
   75POPC   D2A 1267   9.957   2.510   6.817  0.1293 -0.1102 -0.0221
   75POPC   C3A 1268   9.916   2.368   6.304 -0.0627 -0.1607 -0.2641
   75POPC   C4A 1269   9.843   2.183   5.946 -0.0168  0.4309 -0.1459
   75POPC   C1B 1270   9.277   2.440   6.885 -0.4126 -0.2340  0.4372
   75POPC   C2B 1271   9.276   2.172   6.517 -0.0223 -0.1243  0.1914
   75POPC   C3B 1272   9.507   1.961   6.258  0.1993  0.0054 -0.0360
   75POPC   C4B 1273   9.753   1.639   6.165  0.1392 -0.3461 -0.0412
   76POPC   NC3 1274   3.506   0.768   8.360  0.1085  0.0447  0.0374
   76POPC   PO4 1275   3.474   0.951   7.934 -0.1333  0.0956 -0.0571
   76POPC   GL1 1276   3.375   1.078   7.604 -0.0350 -0.0602  0.2044
   76POPC   GL2 1277   3.278   0.924   7.220  0.4756  0.0085  0.0946
   76POPC   C1A 1278   3.341   1.427   7.230  0.0169 -0.2969  0.0741
   76POPC   D2A 1279   3.500   1.922   7.171 -0.0728  0.1112 -0.2027
   76POPC   C3A 1280   3.421   2.364   7.214 -0.5572  0.1561  0.1412
   76POPC   C4A 1281   3.259   2.764   7.287 -0.1044 -0.0828 -0.0221
   76POPC   C1B 1282   3.401   0.574   7.069  0.0146 -0.1908 -0.0684
   76POPC   C2B 1283   3.348   0.429   6.650 -0.1617 -0.0303 -0.1450
   76POPC   C3B 1284   3.090   0.558   6.278 -0.0342  0.0202  0.0044
   76POPC   C4B 1285   2.797   0.587   5.881  0.3135  0.0631  0.3052
   77POPC   NC3 1286   5.086   6.057   8.333 -0.1212 -0.0252  0.1139
   77POPC   PO4 1287   4.869   6.397   8.490  0.1076 -0.1710 -0.2614
   77POPC   GL1 1288   4.572   6.579   8.211  0.0518  0.1834 -0.1665
   77POPC   GL2 1289   4.723   6.740   7.919 -0.1587 -0.2664  0.0505
   77POPC   C1A 1290   4.193   6.697   8.218  0.0049 -0.1135 -0.1213
   77POPC   D2A 1291   3.767   6.644   7.981 -0.1000  0.0492 -0.0592
   77POPC   C3A 1292   3.747   7.021   7.598  0.1817 -0.1398  0.2707
   77POPC   C4A 1293   3.877   6.898   7.159  0.0726 -0.1978 -0.0654
   77POPC   C1B 1294   4.933   6.588   7.549  0.0859 -0.1277  0.2476
   77POPC   C2B 1295   4.984   6.412   7.168  0.1948 -0.0659 -0.0367
   77POPC   C3B 1296   5.212   6.435   6.793 -0.0715 -0.1463  0.0046
   77POPC   C4B 1297   5.421   6.195   6.599 -0.1664  0.2372 -0.4410
   78POPC   NC3 1298   2.156   0.536   7.775  0.3303  0.1513  0.1753
   78POPC   PO4 1299   2.501   0.723   7.573  0.0114 -0.0793 -0.3139
   78POPC   GL1 1300   2.760   0.754   7.295  0.0390 -0.2694  0.0351
   78POPC   GL2 1301   2.914   0.482   7.296 -0.1624  0.3318 -0.3070
   78POPC   C1A 1302   2.592   0.890   6.788  0.0690 -0.3839 -0.1511
   78POPC   D2A 1303   2.592   0.920   6.285  0.1457  0.2117  0.1519
   78POPC   C3A 1304   2.686   1.321   6.139 -0.1577 -0.2790  0.1267
   78POPC   C4A 1305   2.742   1.625   5.849  0.0775  0.1403 -0.1090
   78POPC   C1B 1306   2.811   0.440   6.893 -0.3560 -0.2988 -0.0217
   78POPC   C2B 1307   2.622   0.304   6.483 -0.0677 -0.2489 -0.0693
   78POPC   C3B 1308   2.536  -0.053   6.141 -0.1429 -0.1316 -0.1499
   78POPC   C4B 1309   2.561  -0.364   5.845 -0.0025  0.0027  0.3760
   79POPC   NC3 1310   3.386   2.234   8.142 -0.0797 -0.0458 -0.0554
   79POPC   PO4 1311   3.601   1.940   7.980  0.2554 -0.1423  0.1328
   79POPC   GL1 1312   3.742   1.623   7.571  0.0058  0.1183 -0.1796
   79POPC   GL2 1313   4.131   1.595   7.565 -0.0243 -0.0497 -0.1777
   79POPC   C1A 1314   3.838   1.566   7.173 -0.2568  0.2334  0.1056
   79POPC   D2A 1315   3.699   1.462   6.697  0.0932 -0.2054 -0.0839
   79POPC   C3A 1316   3.497   1.079   6.784  0.4516  0.1668  0.0155
   79POPC   C4A 1317   3.131   0.833   6.758  0.1131  0.1096 -0.0442
   79POPC   C1B 1318   4.195   1.876   7.283  0.3694  0.1465 -0.0071
   79POPC   C2B 1319   4.013   2.318   7.095 -0.1780 -0.0993 -0.3512
   79POPC   C3B 1320   4.064   2.571   6.822 -0.2915  0.0112  0.0352
   79POPC   C4B 1321   3.937   2.597   6.431 -0.0221  0.1129  0.2069
   80POPC   NC3 1322   1.747   1.230   8.016 -0.0878 -0.0225  0.1579
   80POPC   PO4 1323   1.682   0.822   7.799 -0.1198  0.1924 -0.4195
   80POPC   GL1 1324   1.671   0.794   7.339  0.3165 -0.1546  0.1071
   80POPC   GL2 1325   1.846   0.554   7.385 -0.1904  0.0141 -0.0519
   80POPC   C1A 1326   1.780   0.925   6.813  0.2209  0.0268  0.2578
   80POPC   D2A 1327   1.649   0.863   6.301 -0.4960  0.1885  0.0948
   80POPC   C3A 1328   1.938   0.580   6.103  0.0375 -0.2067 -0.0710
   80POPC   C4A 1329   2.300   0.689   5.830 -0.1560  0.2206 -0.1885
   80POPC   C1B 1330   2.132   0.650   6.982 -0.2968 -0.2685  0.0717
   80POPC   C2B 1331   2.140   0.646   6.544 -0.0667 -0.0611 -0.1719
   80POPC   C3B 1332   2.154   1.072   6.296  0.0022  0.1793 -0.1263
   80POPC   C4B 1333   2.268   1.438   6.374  0.4265  0.1824 -0.1581
   81POPC   NC3 1334   5.118   2.305   7.907 -0.1481 -0.1947  0.0598
   81POPC   PO4 1335   4.881   2.783   7.765 -0.1146  0.3584 -0.2971
   81POPC   GL1 1336   4.554   2.594   7.374 -0.2454  0.0860 -0.1085
   81POPC   GL2 1337   4.489   2.248   7.328  0.1446 -0.1116 -0.0420
   81POPC   C1A 1338   4.544   2.623   6.928  0.0397 -0.1351 -0.0114
   81POPC   D2A 1339   4.549   2.436   6.500  0.2417 -0.0711 -0.0195
   81POPC   C3A 1340   4.207   2.192   6.521  0.0908 -0.0584  0.3201
   81POPC   C4A 1341   3.901   1.937   6.806  0.3599 -0.0352 -0.0955
   81POPC   C1B 1342   4.574   2.128   6.909  0.0825  0.4042 -0.1988
   81POPC   C2B 1343   4.705   1.937   6.470  0.0545  0.0812 -0.3224
   81POPC   C3B 1344   4.414   1.713   6.096  0.1446 -0.0327  0.1608
   81POPC   C4B 1345   4.192   1.338   5.896 -0.1312 -0.0788  0.0511
   82POPC   NC3 1346   7.077   4.812   8.017 -0.0256 -0.0674 -0.1748
   82POPC   PO4 1347   6.876   5.062   7.629  0.0070 -0.3032  0.4480
   82POPC   GL1 1348   7.159   5.302   7.437  0.1025 -0.3274 -0.1060
   82POPC   GL2 1349   7.048   5.451   7.185 -0.2583  0.2267  0.1815
   82POPC   C1A 1350   7.577   5.400   7.181  0.0702 -0.1566  0.1406
   82POPC   D2A 1351   7.596   5.537   6.743 -0.0635  0.0360 -0.1470
   82POPC   C3A 1352   7.798   5.494   6.314 -0.0012  0.1815 -0.0817
   82POPC   C4A 1353   8.171   5.504   6.014  0.1726  0.2210 -0.0769
   82POPC   C1B 1354   7.306   5.125   6.843 -0.0184 -0.1404  0.0059
   82POPC   C2B 1355   7.557   5.107   6.413 -0.0964 -0.1165 -0.2687
   82POPC   C3B 1356   7.463   5.052   5.989  0.0199  0.0608  0.0184
   82POPC   C4B 1357   7.283   4.751   5.651  0.1042  0.1277  0.3448
   83POPC   NC3 1358   4.990   0.168   8.222 -0.2104  0.0328 -0.0933
   83POPC   PO4 1359   4.890  -0.188   7.888  0.0974 -0.0074  0.1692
   83POPC   GL1 1360   4.687  -0.391   7.505 -0.0534  0.1765  0.0041
   83POPC   GL2 1361   4.479  -0.621   7.556 -0.1200 -0.1711  0.0269
   83POPC   C1A 1362   4.814  -0.530   7.003  0.3656  0.1581 -0.1279
   83POPC   D2A 1363   4.818  -0.578   6.553 -0.1104 -0.3070 -0.1043
   83POPC   C3A 1364   4.683  -0.823   6.304  0.3695 -0.1726  0.2757
   83POPC   C4A 1365   4.829  -0.721   5.847 -0.1673 -0.0004  0.0687
   83POPC   C1B 1366   4.295  -0.496   7.160  0.1049  0.0777  0.0159
   83POPC   C2B 1367   4.249  -0.676   6.688 -0.0750 -0.0501 -0.2200
   83POPC   C3B 1368   3.976  -0.837   6.298 -0.1432  0.0281 -0.1885
   83POPC   C4B 1369   4.003  -0.864   5.963  0.0976  0.2068  0.1473
   84POPC   NC3 1370   8.798   8.197   7.626  0.4388  0.0540  0.0693
   84POPC   PO4 1371   8.619   8.087   7.243 -0.0524 -0.0757 -0.1984
   84POPC   GL1 1372   8.401   8.353   6.846  0.0146 -0.0075  0.1442
   84POPC   GL2 1373   8.592   8.633   6.880 -0.0086 -0.0246  0.1181
   84POPC   C1A 1374   8.304   8.333   6.401 -0.0060  0.1273 -0.1130
   84POPC   D2A 1375   8.050   8.136   6.092 -0.3745  0.0283  0.2214
   84POPC   C3A 1376   7.884   8.414   5.789  0.0337  0.3704 -0.1781
   84POPC   C4A 1377   8.059   8.746   5.686 -0.3809  0.3308 -0.3691
   84POPC   C1B 1378   8.921   8.812   6.547  0.1820  0.1422  0.0064
   84POPC   C2B 1379   9.179   9.175   6.354  0.0506 -0.0991 -0.1232
   84POPC   C3B 1380   9.171   9.533   6.052 -0.1242  0.1504 -0.1766
   84POPC   C4B 1381   9.372   9.794   5.933  0.0537  0.1423  0.5109
   85POPC   NC3 1382   5.320   4.729   8.185  0.0974  0.1728  0.1293
   85POPC   PO4 1383   5.206   4.385   8.161 -0.1773 -0.0889 -0.0435
   85POPC   GL1 1384   5.298   4.497   7.703 -0.0415  0.1566 -0.1373
   85POPC   GL2 1385   5.199   4.280   7.467  0.1797 -0.1973  0.1970
   85POPC   C1A 1386   5.240   4.816   7.301 -0.2662 -0.1570 -0.1250
   85POPC   D2A 1387   5.006   5.306   7.165  0.3076  0.3248 -0.3136
   85POPC   C3A 1388   5.204   5.315   6.833 -0.0381 -0.3179 -0.1573
   85POPC   C4A 1389   4.940   5.317   6.504 -0.1532  0.1363 -0.2250
   85POPC   C1B 1390   4.821   4.423   7.452 -0.1765 -0.1482 -0.1849
   85POPC   C2B 1391   4.457   4.330   7.261 -0.0073  0.3446 -0.2049
   85POPC   C3B 1392   4.442   4.126   6.870  0.0780  0.2926 -0.3272
   85POPC   C4B 1393   4.592   3.938   6.533  0.3560 -0.1512 -0.0305
   86POPC   NC3 1394   9.885   5.736   7.298 -0.0112 -0.0075  0.1946
   86POPC   PO4 1395   9.511   5.452   7.336 -0.0224 -0.2986  0.0751
   86POPC   GL1 1396   9.570   5.479   6.919  0.0355  0.2966  0.3164
   86POPC   GL2 1397   9.827   5.562   6.740  0.1059  0.2634 -0.0366
   86POPC   C1A 1398   9.260   5.349   6.614 -0.0543 -0.0875  0.2146
   86POPC   D2A 1399   8.954   5.388   6.144  0.2977 -0.3609 -0.1727
   86POPC   C3A 1400   8.657   5.685   6.013  0.0280 -0.1096  0.0923
   86POPC   C4A 1401   8.448   6.018   6.301 -0.0283  0.0810  0.3856
   86POPC   C1B 1402   9.837   5.387   6.318 -0.2135  0.2384 -0.1526
   86POPC   C2B 1403   9.695   5.424   5.891  0.1145  0.1628  0.1727
   86POPC   C3B 1404   9.339   5.330   5.789 -0.0591  0.1416 -0.2047
   86POPC   C4B 1405   8.963   5.460   5.595  0.1380 -0.0038 -0.0602
   87POPC   NC3 1406   0.835   6.118   8.471 -0.0737 -0.0863  0.2081
   87POPC   PO4 1407   0.702   6.180   7.916  0.2239  0.0126 -0.1263
   87POPC   GL1 1408   1.057   6.338   7.597 -0.0428  0.2250 -0.1699
   87POPC   GL2 1409   1.041   6.399   7.274  0.5282 -0.2844 -0.0544
   87POPC   C1A 1410   1.360   5.946   7.434  0.1290  0.2591  0.0072
   87POPC   D2A 1411   1.289   5.768   6.999  0.2215  0.0768 -0.2674
   87POPC   C3A 1412   1.246   5.349   6.899 -0.0525  0.1316 -0.2334
   87POPC   C4A 1413   1.677   5.078   6.760 -0.1062 -0.2154 -0.2624
   87POPC   C1B 1414   1.086   6.231   6.849 -0.1522 -0.0405 -0.0303
   87POPC   C2B 1415   1.185   5.948   6.472 -0.0682  0.1776 -0.1401
   87POPC   C3B 1416   1.307   5.574   6.147 -0.0152 -0.0767 -0.0284
   87POPC   C4B 1417   1.113   5.524   5.738 -0.0232 -0.0081  0.0083
   88POPC   NC3 1418   6.166   2.576   7.973 -0.0694  0.1291  0.0041
   88POPC   PO4 1419   6.496   2.251   7.930  0.0750  0.0892 -0.2962
   88POPC   GL1 1420   6.284   2.158   7.497  0.0187 -0.2396 -0.1608
   88POPC   GL2 1421   6.394   1.872   7.283 -0.0151  0.1030 -0.2779
   88POPC   C1A 1422   6.111   2.244   7.025  0.0380 -0.1589  0.1252
   88POPC   D2A 1423   5.879   2.224   6.663 -0.0300 -0.4677  0.0931
   88POPC   C3A 1424   5.541   1.997   6.692 -0.0674  0.1812  0.1053
   88POPC   C4A 1425   5.428   1.772   6.326 -0.1359  0.1532  0.1495
   88POPC   C1B 1426   6.442   1.529   6.915 -0.0417  0.1214  0.0250
   88POPC   C2B 1427   6.676   1.461   6.553  0.0585 -0.0359 -0.0833
   88POPC   C3B 1428   7.090   1.381   6.357  0.1152  0.2979 -0.0163
   88POPC   C4B 1429   7.511   1.414   6.265  0.2530  0.3603 -0.2302
   89POPC   NC3 1430   8.568   5.167   7.475 -0.2336 -0.1140  0.1679
   89POPC   PO4 1431   8.205   4.965   7.555 -0.2390  0.0328 -0.1633
   89POPC   GL1 1432   7.986   4.914   7.310 -0.1834  0.0075 -0.2421
   89POPC   GL2 1433   7.657   4.893   7.226 -0.0709  0.1246  0.0772
   89POPC   C1A 1434   8.141   4.654   6.932 -0.1015 -0.1372  0.0442
   89POPC   D2A 1435   8.089   4.205   6.937 -0.1346  0.2021 -0.1318
   89POPC   C3A 1436   8.057   4.003   6.599  0.0964  0.1723 -0.2916
   89POPC   C4A 1437   7.813   3.802   6.343  0.4781  0.0538 -0.0313
   89POPC   C1B 1438   7.847   5.113   6.876 -0.4694 -0.1697 -0.1786
   89POPC   C2B 1439   8.118   4.985   6.556  0.0538 -0.2667 -0.0203
   89POPC   C3B 1440   8.014   5.076   6.181 -0.2010  0.2604 -0.1621
   89POPC   C4B 1441   7.883   5.108   5.784 -0.0180 -0.2696  0.0304
   90POPC   NC3 1442   7.046   9.041   7.712 -0.1657  0.2002 -0.1600
   90POPC   PO4 1443   6.989   8.755   7.400  0.1082  0.1119  0.0613
   90POPC   GL1 1444   6.934   8.724   6.953 -0.0145  0.1735 -0.2127
   90POPC   GL2 1445   7.014   9.019   6.806 -0.4365 -0.4193  0.1004
   90POPC   C1A 1446   6.692   8.699   6.593 -0.1347 -0.3546 -0.2017
   90POPC   D2A 1447   6.234   8.767   6.435  0.0278  0.1167 -0.0144
   90POPC   C3A 1448   5.897   8.904   6.072 -0.1789 -0.0795  0.4727
   90POPC   C4A 1449   5.453   8.867   6.043  0.3338  0.4968  0.0645
   90POPC   C1B 1450   7.026   8.932   6.338  0.2473  0.1633  0.0404
   90POPC   C2B 1451   7.074   8.797   5.875  0.3759  0.0182  0.0378
   90POPC   C3B 1452   7.308   8.940   5.545  0.1015 -0.2173 -0.0749
   90POPC   C4B 1453   7.467   9.313   5.220  0.5118 -0.0839 -0.0802
   91POPC   NC3 1454   2.037   2.576   7.755 -0.1878 -0.2784  0.1234
   91POPC   PO4 1455   2.381   2.949   7.733  0.0080  0.2106  0.1927
   91POPC   GL1 1456   2.274   2.873   7.333 -0.1435 -0.2259 -0.0260
   91POPC   GL2 1457   2.278   2.578   7.327  0.0662 -0.0356 -0.3229
   91POPC   C1A 1458   1.910   2.878   6.976 -0.1097  0.4490  0.1259
   91POPC   D2A 1459   1.883   2.672   6.546  0.0769 -0.3016  0.0058
   91POPC   C3A 1460   1.550   2.771   6.404 -0.0788  0.0203  0.0083
   91POPC   C4A 1461   1.434   2.982   6.734  0.1975 -0.1082 -0.3968
   91POPC   C1B 1462   2.317   2.575   6.930  0.1757 -0.1755 -0.1439
   91POPC   C2B 1463   2.430   2.457   6.524 -0.0906 -0.1434  0.0606
   91POPC   C3B 1464   2.800   2.242   6.357 -0.2628  0.5635 -0.2634
   91POPC   C4B 1465   2.761   2.095   5.991  0.1015 -0.1483 -0.2600
   92POPC   NC3 1466   5.476   6.012   7.830  0.0307  0.0564 -0.1677
   92POPC   PO4 1467   5.511   5.694   8.164  0.3444  0.4581  0.0583
   92POPC   GL1 1468   5.440   5.449   7.753  0.0829  0.1553  0.1824
   92POPC   GL2 1469   5.224   5.222   7.796 -0.2119 -0.1830 -0.0391
   92POPC   C1A 1470   5.452   5.322   7.327 -0.3041  0.2041  0.2239
   92POPC   D2A 1471   5.725   5.461   6.993 -0.1706  0.1337 -0.2170
   92POPC   C3A 1472   5.744   5.846   6.810  0.0435 -0.1605 -0.1296
   92POPC   C4A 1473   5.926   5.890   6.388  0.1314  0.0635 -0.0453
   92POPC   C1B 1474   4.879   4.926   7.682 -0.2123  0.0106  0.0414
   92POPC   C2B 1475   4.419   4.851   7.680  0.0067  0.2965  0.0638
   92POPC   C3B 1476   3.886   4.864   7.898  0.0454  0.1499 -0.0360
   92POPC   C4B 1477   3.420   4.786   7.920  0.0364  0.0454 -0.1956
   93POPC   NC3 1478   5.006   3.750   7.809 -0.3678 -0.2825 -0.4400
   93POPC   PO4 1479   5.302   4.002   7.868  0.1462 -0.0736  0.3923
   93POPC   GL1 1480   5.424   3.867   7.549  0.1793 -0.2129 -0.1053
   93POPC   GL2 1481   5.497   3.684   7.474 -0.0024 -0.1614 -0.0522
   93POPC   C1A 1482   5.252   3.924   7.141 -0.1708  0.3432 -0.0772
   93POPC   D2A 1483   4.990   4.294   7.022 -0.1543  0.0700  0.1310
   93POPC   C3A 1484   4.869   4.383   6.561  0.0453  0.2062  0.2584
   93POPC   C4A 1485   5.008   4.122   6.191  0.4115 -0.0810 -0.5062
   93POPC   C1B 1486   5.751   3.680   7.161 -0.2317  0.4999  0.0741
   93POPC   C2B 1487   5.805   3.393   6.738  0.1514  0.1053  0.0287
   93POPC   C3B 1488   5.777   3.457   6.268  0.2389  0.0335 -0.2643
   93POPC   C4B 1489   5.532   3.396   5.958 -0.2069 -0.1084 -0.0196
   94POPC   NC3 1490   8.331   2.149   7.230  0.1447  0.2698 -0.1214
   94POPC   PO4 1491   7.902   2.235   7.326  0.0578  0.1565 -0.2474
   94POPC   GL1 1492   7.806   2.356   6.957  0.0721  0.0099 -0.0507
   94POPC   GL2 1493   7.993   2.071   6.847 -0.0613  0.2458  0.3626
   94POPC   C1A 1494   7.963   2.526   6.613 -0.3138 -0.0442  0.0914
   94POPC   D2A 1495   8.152   2.947   6.494  0.0833  0.1851  0.3921
   94POPC   C3A 1496   8.586   2.990   6.488  0.1518 -0.3213 -0.1798
   94POPC   C4A 1497   8.924   2.527   6.454 -0.0329  0.1755  0.1865
   94POPC   C1B 1498   8.196   2.066   6.444 -0.3222 -0.2412  0.1195
   94POPC   C2B 1499   7.874   1.739   6.186  0.3050 -0.1631  0.2101
   94POPC   C3B 1500   7.966   1.320   6.113 -0.1510 -0.2569 -0.0288
   94POPC   C4B 1501   8.302   1.121   6.091  0.2058  0.2334 -0.2787
   95POPC   NC3 1502   8.286   9.572   7.316  0.0814 -0.1129  0.1205
   95POPC   PO4 1503   8.315   9.188   7.465 -0.1034  0.0078  0.1010
   95POPC   GL1 1504   8.375   9.110   6.973  0.1915  0.0795 -0.0100
   95POPC   GL2 1505   8.657   9.166   6.778  0.1783 -0.3193 -0.1427
   95POPC   C1A 1506   8.230   9.336   6.615 -0.0801  0.1876 -0.4092
   95POPC   D2A 1507   8.136   9.241   6.212  0.2536  0.1209  0.0638
   95POPC   C3A 1508   7.976   9.649   5.842 -0.1283  0.2892 -0.0196
   95POPC   C4A 1509   7.757   9.935   5.416  0.0555 -0.2040  0.1755
   95POPC   C1B 1510   8.616   9.106   6.346 -0.1396 -0.0119  0.1857
   95POPC   C2B 1511   8.802   8.944   6.008 -0.2821 -0.0572 -0.1174
   95POPC   C3B 1512   8.915   8.685   5.732  0.0975 -0.1670 -0.0222
   95POPC   C4B 1513   8.894   8.415   5.483 -0.0120 -0.3320  0.4448
   96POPC   NC3 1514   6.560   4.621   7.686  0.0705  0.1362  0.1630
   96POPC   PO4 1515   6.649   4.082   7.737  0.3639  0.0496  0.0823
   96POPC   GL1 1516   6.366   4.003   7.339 -0.0908  0.0805 -0.1087
   96POPC   GL2 1517   6.147   3.638   7.397  0.0539  0.0929  0.0956
   96POPC   C1A 1518   6.198   4.224   6.952  0.0273 -0.1075  0.1691
   96POPC   D2A 1519   5.919   4.564   6.846 -0.1805 -0.2684 -0.1194
   96POPC   C3A 1520   5.749   4.500   6.541 -0.2431  0.0763 -0.0818
   96POPC   C4A 1521   5.543   4.306   6.204 -0.0723  0.2856  0.1200
   96POPC   C1B 1522   6.192   3.620   6.916 -0.2374 -0.0975 -0.0831
   96POPC   C2B 1523   6.038   3.829   6.526  0.3439  0.0180 -0.1432
   96POPC   C3B 1524   5.879   3.907   6.092 -0.3149 -0.1639 -0.0679
   96POPC   C4B 1525   6.079   3.991   5.645 -0.1151  0.2113 -0.5076
   97POPC   NC3 1526   0.209   9.197   7.540 -0.1662  0.1057 -0.0682
   97POPC   PO4 1527   0.528   8.810   7.339  0.0949 -0.1346 -0.2144
   97POPC   GL1 1528   0.706   8.729   6.886  0.1419  0.2779 -0.0974
   97POPC   GL2 1529   1.066   8.595   6.851 -0.0392  0.0517 -0.0730
   97POPC   C1A 1530   0.777   8.859   6.399  0.0624 -0.0228  0.2329
   97POPC   D2A 1531   0.806   8.870   5.911  0.2910 -0.0917 -0.1454
   97POPC   C3A 1532   0.413   8.890   5.725  0.0937 -0.2004 -0.0889
   97POPC   C4A 1533   0.076   8.707   5.529  0.1729  0.1156  0.0078
   97POPC   C1B 1534   1.282   8.461   6.497  0.2302  0.0566  0.3046
   97POPC   C2B 1535   1.269   8.228   5.996  0.0260 -0.1138 -0.2239
   97POPC   C3B 1536   1.416   7.803   5.899  0.0389 -0.2674  0.0485
   97POPC   C4B 1537   1.255   7.447   5.777  0.0221 -0.0444  0.1615
   98POPC   NC3 1538   8.956   1.638   7.821  0.1514  0.2310  0.0154
   98POPC   PO4 1539   9.390   1.514   7.694  0.1621 -0.2015 -0.3276
   98POPC   GL1 1540   9.529   1.213   7.343  0.1245 -0.0243 -0.1067
   98POPC   GL2 1541   9.353   0.949   7.131 -0.1522 -0.5319  0.0472
   98POPC   C1A 1542   9.715   1.198   6.879 -0.0734 -0.0257  0.3251
   98POPC   D2A 1543   9.707   1.223   6.395  0.2985  0.1192 -0.1462
   98POPC   C3A 1544  10.183   1.353   6.169  0.0211 -0.0855 -0.3132
   98POPC   C4A 1545  10.542   1.423   5.896 -0.1041  0.2224  0.0442
   98POPC   C1B 1546   9.349   0.621   6.866  0.0296 -0.0345  0.0652
   98POPC   C2B 1547   9.515   0.257   6.668 -0.1934 -0.4145  0.0245
   98POPC   C3B 1548   9.790   0.246   6.329  0.0498 -0.0000 -0.3490
   98POPC   C4B 1549   9.731   0.126   5.776  0.0716 -0.3632  0.2021
   99POPC   NC3 1550   1.332   6.796   7.514 -0.0547 -0.0917  0.2767
   99POPC   PO4 1551   1.685   6.735   7.789  0.1998  0.1834 -0.4433
   99POPC   GL1 1552   1.743   6.683   7.337  0.0821  0.0321 -0.0428
   99POPC   GL2 1553   1.516   6.389   7.246  0.1258 -0.0719  0.3716
   99POPC   C1A 1554   1.824   6.662   6.866 -0.1882 -0.2488 -0.0594
   99POPC   D2A 1555   2.310   6.529   6.720  0.2509 -0.0891 -0.0311
   99POPC   C3A 1556   2.641   6.670   7.008  0.2303  0.0278  0.3427
   99POPC   C4A 1557   2.982   6.815   6.873  0.1712 -0.1636 -0.3626
   99POPC   C1B 1558   1.308   6.671   6.859  0.2679  0.4440  0.2079
   99POPC   C2B 1559   1.050   7.011   6.515 -0.1095  0.1654 -0.2747
   99POPC   C3B 1560   1.119   7.377   6.332 -0.0630 -0.1947 -0.1984
   99POPC   C4B 1561   1.275   7.862   6.360  0.0687  0.1990 -0.0790
  100POPC   NC3 1562   9.297   0.316   7.850  0.0661  0.0200  0.2125
  100POPC   PO4 1563   9.609   0.035   7.573  0.1103 -0.3149  0.0219
  100POPC   GL1 1564   9.793   0.273   7.155  0.0479 -0.2407  0.2165
  100POPC   GL2 1565  10.090   0.320   7.252  0.0697  0.2003 -0.2575
  100POPC   C1A 1566  10.068   0.170   6.791 -0.1372 -0.2284  0.3988
  100POPC   D2A 1567  10.232   0.478   6.506  0.2794  0.1062  0.1025
  100POPC   C3A 1568  10.232   0.463   6.031  0.0375  0.1140  0.1745
  100POPC   C4A 1569  10.378   0.403   5.610  0.1058 -0.5650  0.0390
  100POPC   C1B 1570   9.877   0.681   6.891 -0.2872  0.3083 -0.1154
  100POPC   C2B 1571   9.737   0.723   6.505  0.1052 -0.4833  0.2047
  100POPC   C3B 1572   9.754   0.664   6.083 -0.0015 -0.1359  0.1587
  100POPC   C4B 1573   9.551   0.920   5.709  0.0552 -0.2116 -0.0106
  101POPC   NC3 1574   9.276   4.652   7.289 -0.3650  0.1394 -0.0092
  101POPC   PO4 1575   9.804   4.707   7.262 -0.1931 -0.2670  0.1080
  101POPC   GL1 1576   9.989   4.524   6.932  0.3848 -0.0469  0.1242
  101POPC   GL2 1577   9.906   4.148   6.742  0.2429  0.2015  0.4139
  101POPC   C1A 1578   9.927   4.641   6.467  0.0731  0.1544  0.4225
  101POPC   D2A 1579   9.901   4.956   6.040 -0.2001 -0.1392 -0.0147
  101POPC   C3A 1580   9.763   4.859   5.655  0.0299 -0.0501  0.0848
  101POPC   C4A 1581   9.612   4.855   5.235 -0.0877  0.0938  0.1091
  101POPC   C1B 1582   9.778   3.777   6.666  0.0290  0.0157  0.0102
  101POPC   C2B 1583   9.696   3.597   6.289 -0.2548  0.0275  0.0579
  101POPC   C3B 1584   9.823   3.402   5.955 -0.1540  0.0795  0.1268
  101POPC   C4B 1585   9.657   3.070   5.633 -0.3024  0.3648  0.1507
  102POPC   NC3 1586   5.860   0.112   7.690  0.0758  0.0946  0.0810
  102POPC   PO4 1587   5.335   0.256   7.737 -0.0683  0.1688  0.0408
  102POPC   GL1 1588   5.092   0.134   7.407 -0.1438  0.0318 -0.1976
  102POPC   GL2 1589   5.059   0.422   7.301 -0.0407 -0.4567  0.2866
  102POPC   C1A 1590   4.939  -0.006   7.073  0.1205  0.2284  0.3800
  102POPC   D2A 1591   5.262  -0.330   6.931 -0.1211  0.1690  0.0431
  102POPC   C3A 1592   5.729  -0.378   6.813 -0.0578  0.3340 -0.1126
  102POPC   C4A 1593   5.912  -0.326   6.400 -0.1723 -0.0668 -0.0228
  102POPC   C1B 1594   4.718   0.501   7.037 -0.0219 -0.0457  0.0214
  102POPC   C2B 1595   4.616   0.295   6.663  0.1255 -0.2425 -0.0585
  102POPC   C3B 1596   4.506   0.357   6.238  0.0867  0.0566 -0.0293
  102POPC   C4B 1597   4.498   0.788   6.113  0.2453 -0.2591 -0.0370
  103POPC   NC3 1598   1.090   0.084   7.679 -0.0669 -0.2731 -0.1869
  103POPC   PO4 1599   1.444   0.340   7.729 -0.2479  0.2107 -0.1005
  103POPC   GL1 1600   1.257   0.472   7.426  0.0295 -0.0150 -0.0399
  103POPC   GL2 1601   1.084   0.359   7.166  0.0754  0.1133 -0.1306
  103POPC   C1A 1602   1.238   0.858   7.135  0.1033  0.0204  0.3098
  103POPC   D2A 1603   0.932   1.126   6.848  0.0138 -0.2854  0.0404
  103POPC   C3A 1604   0.821   1.233   6.278  0.1066  0.0722 -0.0198
  103POPC   C4A 1605   1.051   1.488   6.001 -0.3185 -0.1203  0.3676
  103POPC   C1B 1606   1.450   0.403   6.926 -0.0427 -0.1368  0.1936
  103POPC   C2B 1607   1.617   0.307   6.535  0.0887  0.0144  0.0036
  103POPC   C3B 1608   1.712   0.080   6.159  0.2053 -0.2819 -0.0927
  103POPC   C4B 1609   1.718  -0.192   5.730 -0.0276  0.2487 -0.0327
  104POPC   NC3 1610   8.471   0.985   7.864 -0.1017  0.2715 -0.0074
  104POPC   PO4 1611   8.819   1.120   7.857  0.0876  0.0476  0.3411
  104POPC   GL1 1612   8.989   1.284   7.438 -0.0494  0.1338 -0.2600
  104POPC   GL2 1613   8.755   1.362   7.224  0.0435  0.0643 -0.0699
  104POPC   C1A 1614   9.237   1.519   7.124  0.0004  0.2374  0.3931
  104POPC   D2A 1615   9.297   1.929   6.977 -0.1085 -0.2267  0.5762
  104POPC   C3A 1616   9.676   2.106   6.823  0.0824  0.1517 -0.0216
  104POPC   C4A 1617   9.975   1.897   6.496  0.4190 -0.2265 -0.1640
  104POPC   C1B 1618   8.811   1.601   6.869  0.0995  0.2333  0.0285
  104POPC   C2B 1619   9.065   1.727   6.549  0.0491  0.2063  0.2503
  104POPC   C3B 1620   9.145   1.607   6.139  0.1781  0.0731 -0.3257
  104POPC   C4B 1621   9.345   1.253   5.960  0.3697  0.0682  0.1430
  105POPC   NC3 1622   9.221   3.881   7.661 -0.2646  0.1679 -0.0923
  105POPC   PO4 1623   9.377   4.106   7.248  0.0149 -0.2167 -0.4307
  105POPC   GL1 1624   9.301   4.288   6.916 -0.1119 -0.1195  0.0698
  105POPC   GL2 1625   9.451   4.546   6.829 -0.0111  0.0046  0.5405
  105POPC   C1A 1626   8.960   4.435   6.686  0.1843  0.1775  0.3055
  105POPC   D2A 1627   8.647   4.694   6.816  0.1824  0.3602 -0.2267
  105POPC   C3A 1628   8.599   4.952   6.729 -0.0636  0.2487 -0.1635
  105POPC   C4A 1629   8.787   5.336   6.808  0.0695 -0.0406 -0.0794
  105POPC   C1B 1630   9.353   4.575   6.302 -0.0345  0.0328 -0.0220
  105POPC   C2B 1631   9.176   4.290   6.084  0.0003 -0.3223 -0.0758
  105POPC   C3B 1632   9.087   3.917   6.018  0.2690 -0.2277  0.0092
  105POPC   C4B 1633   9.184   3.506   6.214 -0.3475 -0.2888  0.3653
  106POPC   NC3 1634   7.425   2.078   7.195  0.1270 -0.0390 -0.1205
  106POPC   PO4 1635   7.158   1.845   7.500 -0.0134 -0.2542  0.2717
  106POPC   GL1 1636   6.895   1.969   7.155 -0.0261 -0.0698  0.0929
  106POPC   GL2 1637   6.979   2.239   7.026  0.0774 -0.0421  0.0054
  106POPC   C1A 1638   6.614   1.983   6.788 -0.1028 -0.2251 -0.0936
  106POPC   D2A 1639   6.343   2.117   6.486 -0.1059  0.2096  0.1803
  106POPC   C3A 1640   5.997   2.034   6.188 -0.4581 -0.1782  0.1671
  106POPC   C4A 1641   5.587   2.162   5.970 -0.1427  0.2927 -0.0908
  106POPC   C1B 1642   6.836   2.421   6.672  0.1365 -0.2841  0.0259
  106POPC   C2B 1643   6.596   2.532   6.252 -0.1441  0.0284 -0.1021
  106POPC   C3B 1644   6.261   2.818   6.080 -0.1491 -0.1462  0.0594
  106POPC   C4B 1645   6.149   3.156   6.122 -0.1425 -0.2441 -0.0754
  107POPC   NC3 1646   4.250   2.504   7.721  0.0541 -0.2000  0.2985
  107POPC   PO4 1647   3.724   2.542   7.863 -0.0824 -0.1250  0.0697
  107POPC   GL1 1648   3.814   2.908   7.622  0.0084  0.2610 -0.2887
  107POPC   GL2 1649   3.799   2.742   7.343  0.3746  0.0622  0.3756
  107POPC   C1A 1650   3.599   3.206   7.290  0.3607 -0.1203  0.0009
  107POPC   D2A 1651   3.405   3.196   6.881  0.1450 -0.1147  0.1241
  107POPC   C3A 1652   3.573   2.994   6.519 -0.3212  0.1412  0.0337
  107POPC   C4A 1653   3.662   2.875   6.077 -0.0543 -0.2792 -0.0530
  107POPC   C1B 1654   3.567   2.735   6.926 -0.1530 -0.1746 -0.1116
  107POPC   C2B 1655   3.531   2.289   6.769 -0.2916  0.0563 -0.0938
  107POPC   C3B 1656   3.406   2.084   6.458 -0.5518  0.0591  0.4022
  107POPC   C4B 1657   3.245   2.062   6.094 -0.3903  0.2417 -0.0054
  108POPC   NC3 1658   3.857   5.766   8.891 -0.3172  0.2183  0.0685
  108POPC   PO4 1659   3.966   6.184   8.826  0.1845  0.1785 -0.0248
  108POPC   GL1 1660   3.940   6.078   8.391  0.1901  0.1250  0.1142
  108POPC   GL2 1661   4.027   5.744   8.359  0.2023 -0.1951 -0.0655
  108POPC   C1A 1662   3.941   6.097   7.929 -0.1494 -0.0556 -0.1481
  108POPC   D2A 1663   3.878   5.954   7.499 -0.0553  0.2939 -0.0562
  108POPC   C3A 1664   4.261   5.750   7.341 -0.2471 -0.0788 -0.1347
  108POPC   C4A 1665   4.634   5.659   7.147  0.2838 -0.1405  0.2397
  108POPC   C1B 1666   3.842   5.568   8.023  0.0433 -0.1280 -0.3283
  108POPC   C2B 1667   3.554   5.231   7.913  0.1754 -0.1743 -0.3254
  108POPC   C3B 1668   3.075   5.212   7.756  0.1573  0.1983  0.2493
  108POPC   C4B 1669   2.632   5.090   7.770 -0.2594 -0.2268 -0.0185
  109POPC   NC3 1670   8.606   2.844   7.064  0.0696 -0.1804  0.2426
  109POPC   PO4 1671   8.775   2.409   7.329  0.0397 -0.1007 -0.2100
  109POPC   GL1 1672   8.759   2.308   7.020 -0.2382  0.2996 -0.1040
  109POPC   GL2 1673   8.526   2.468   6.773  0.0172 -0.0864 -0.0097
  109POPC   C1A 1674   8.641   2.036   6.567  0.0940  0.2316 -0.1110
  109POPC   D2A 1675   8.897   2.140   6.156  0.0579  0.3902 -0.0464
  109POPC   C3A 1676   8.947   1.893   5.849  0.2551 -0.1119 -0.0536
  109POPC   C4A 1677   8.751   1.595   5.476  0.0135  0.3015  0.0405
  109POPC   C1B 1678   8.404   2.514   6.298  0.2908 -0.3911 -0.2319
  109POPC   C2B 1679   8.234   2.486   5.882  0.0339 -0.0669  0.2057
  109POPC   C3B 1680   7.862   2.488   5.647 -0.1721  0.1329  0.1546
  109POPC   C4B 1681   7.804   2.799   5.264  0.3519  0.1752 -0.1639
  110POPC   NC3 1682   9.259   8.143   7.338 -0.0287 -0.0588 -0.2287
  110POPC   PO4 1683   9.647   7.942   7.268 -0.2307 -0.1035 -0.2102
  110POPC   GL1 1684  10.003   8.079   6.910 -0.7030  0.1535 -0.1552
  110POPC   GL2 1685   9.866   8.366   6.716 -0.0389 -0.0036 -0.0888
  110POPC   C1A 1686  10.306   7.998   6.475  0.0669  0.0108  0.0007
  110POPC   D2A 1687  10.740   7.777   6.386  0.0167 -0.0564  0.3727
  110POPC   C3A 1688  10.891   7.726   5.987 -0.1565 -0.1564 -0.2493
  110POPC   C4A 1689  10.981   7.970   5.620 -0.1845  0.0816  0.0427
  110POPC   C1B 1690   9.810   8.270   6.283 -0.1092 -0.2693  0.1492
  110POPC   C2B 1691   9.670   8.564   5.892 -0.1412  0.2249 -0.1916
  110POPC   C3B 1692   9.465   8.547   5.471  0.1018 -0.1307 -0.3015
  110POPC   C4B 1693   9.183   8.802   5.210 -0.0225  0.5116  0.2106
  111POPC   NC3 1694   3.782   8.992   8.224  0.2403  0.1149  0.0186
  111POPC   PO4 1695   3.421   8.612   8.153 -0.2809  0.1321 -0.2376
  111POPC   GL1 1696   3.315   8.402   7.793  0.0917 -0.0195  0.1063
  111POPC   GL2 1697   3.482   8.182   7.660 -0.2145  0.1109  0.3996
  111POPC   C1A 1698   3.284   8.676   7.317  0.0767 -0.1219  0.0586
  111POPC   D2A 1699   3.568   8.930   7.182 -0.1598 -0.4904 -0.2931
  111POPC   C3A 1700   3.859   9.184   6.985 -0.0385  0.0082  0.0445
  111POPC   C4A 1701   3.682   9.241   6.694 -0.3976  0.2815 -0.0750
  111POPC   C1B 1702   3.617   8.098   7.252 -0.1435 -0.1894 -0.1318
  111POPC   C2B 1703   3.781   8.031   6.925 -0.3660 -0.1304 -0.1544
  111POPC   C3B 1704   3.618   8.375   6.573 -0.0369 -0.1101  0.4806
  111POPC   C4B 1705   3.643   8.581   6.165 -0.1861  0.2819  0.1329
  112POPC   NC3 1706   0.401   7.412   7.383 -0.0571 -0.2798  0.0326
  112POPC   PO4 1707   0.462   6.922   7.401  0.1890  0.0661  0.0030
  112POPC   GL1 1708   0.293   6.968   6.937 -0.0478 -0.0115 -0.1939
  112POPC   GL2 1709   0.028   7.029   6.994 -0.0379 -0.1447 -0.2159
  112POPC   C1A 1710   0.183   6.663   6.621  0.1048  0.2134 -0.0417
  112POPC   D2A 1711  -0.116   6.542   6.473 -0.1525  0.0760 -0.1076
  112POPC   C3A 1712  -0.225   6.072   6.306  0.1378  0.2058  0.0068
  112POPC   C4A 1713  -0.534   5.685   6.261 -0.2930 -0.0167 -0.0368
  112POPC   C1B 1714  -0.051   7.239   6.589  0.0880 -0.3720  0.2419
  112POPC   C2B 1715   0.242   7.416   6.259 -0.0257 -0.3610  0.3304
  112POPC   C3B 1716   0.371   7.676   5.974 -0.4040 -0.0307  0.1295
  112POPC   C4B 1717   0.575   8.062   5.943  0.0012  0.0576  0.0667
  113POPC   NC3 1718   8.137   5.958   7.680 -0.0886 -0.2201 -0.2493
  113POPC   PO4 1719   8.501   6.257   7.520 -0.1101  0.3652  0.1764
  113POPC   GL1 1720   8.546   6.263   7.113 -0.2275  0.0005  0.0439
  113POPC   GL2 1721   8.756   6.515   6.830  0.0673  0.0364  0.1103
  113POPC   C1A 1722   8.283   6.224   6.736 -0.4090 -0.3718 -0.0555
  113POPC   D2A 1723   8.183   6.448   6.316  0.0378 -0.1110 -0.0947
  113POPC   C3A 1724   8.340   6.265   5.869  0.0551 -0.0561 -0.0204
  113POPC   C4A 1725   8.478   6.318   5.393  0.0049 -0.2097  0.0237
  113POPC   C1B 1726   8.739   6.544   6.370 -0.3380  0.0834 -0.0104
  113POPC   C2B 1727   8.923   6.528   5.949 -0.1453 -0.0377 -0.0998
  113POPC   C3B 1728   9.028   6.514   5.478 -0.3094  0.2502 -0.0455
  113POPC   C4B 1729   8.869   6.463   5.175  0.1751 -0.0844  0.3465
  114POPC   NC3 1730   7.808   7.215   8.025 -0.3421  0.0326 -0.1410
  114POPC   PO4 1731   7.787   7.413   7.650  0.1808 -0.1546  0.0723
  114POPC   GL1 1732   7.821   7.335   7.182  0.1396  0.3273 -0.5293
  114POPC   GL2 1733   8.101   7.205   7.125 -0.2959  0.0286  0.0411
  114POPC   C1A 1734   7.775   7.539   6.770  0.0271  0.1691  0.0835
  114POPC   D2A 1735   7.807   7.870   6.432 -0.1710  0.0612  0.1682
  114POPC   C3A 1736   7.516   8.172   6.267  0.0741  0.2330 -0.0134
  114POPC   C4A 1737   7.124   7.936   6.367 -0.1308 -0.0006  0.4100
  114POPC   C1B 1738   8.243   7.301   6.784  0.0527  0.1302  0.0819
  114POPC   C2B 1739   8.156   7.497   6.450 -0.0449 -0.0884 -0.1562
  114POPC   C3B 1740   7.966   7.596   6.032 -0.1523 -0.1567  0.0272
  114POPC   C4B 1741   7.826   7.496   5.661 -0.0525  0.1766 -0.1018
  115POPC   NC3 1742   0.332   2.393   8.135 -0.0168 -0.2223  0.0090
  115POPC   PO4 1743   0.369   2.550   7.698 -0.1014 -0.1965  0.0307
  115POPC   GL1 1744   0.408   2.967   7.479 -0.0275 -0.3318 -0.0178
  115POPC   GL2 1745   0.264   2.839   7.268  0.1852  0.0797 -0.0924
  115POPC   C1A 1746   0.458   3.309   7.122  0.0389 -0.0998 -0.0739
  115POPC   D2A 1747   0.507   3.429   6.684 -0.2619 -0.3080  0.4051
  115POPC   C3A 1748   0.748   3.762   6.735  0.2413 -0.0674  0.0347
  115POPC   C4A 1749   1.229   3.855   6.754 -0.0807 -0.1340  0.1779
  115POPC   C1B 1750   0.131   2.989   6.839  0.1835 -0.2801  0.0400
  115POPC   C2B 1751   0.023   3.151   6.447  0.6038  0.0905  0.2123
  115POPC   C3B 1752   0.232   3.377   6.253  0.1078 -0.2696 -0.0944
  115POPC   C4B 1753   0.389   3.490   5.787  0.1474 -0.0073  0.0553
  116POPC   NC3 1754   8.619   7.415   7.290 -0.0176 -0.3099  0.1217
  116POPC   PO4 1755   9.056   7.331   7.154 -0.0759 -0.0612  0.0275
  116POPC   GL1 1756   8.718   7.351   6.805 -0.1785 -0.1092  0.0109
  116POPC   GL2 1757   8.555   7.661   6.883 -0.0918  0.0544 -0.1496
  116POPC   C1A 1758   8.614   7.456   6.221 -0.1342  0.0239 -0.3041
  116POPC   D2A 1759   8.466   7.466   5.816  0.2346  0.2663  0.2763
  116POPC   C3A 1760   8.554   7.583   5.373  0.1570  0.0688  0.0083
  116POPC   C4A 1761   8.471   7.328   4.990  0.3510  0.0008 -0.0959
  116POPC   C1B 1762   8.569   7.857   6.474 -0.1309  0.0479 -0.1132
  116POPC   C2B 1763   8.450   7.941   6.030 -0.2590  0.1590 -0.1489
  116POPC   C3B 1764   8.153   7.905   5.682 -0.0073  0.3560 -0.2479
  116POPC   C4B 1765   7.899   8.114   5.430  0.0389  0.0841 -0.0996
  117POPC   NC3 1766   4.775   0.296   7.788 -0.0945 -0.1487  0.1223
  117POPC   PO4 1767   4.446   0.582   7.758  0.0417  0.0041 -0.1064
  117POPC   GL1 1768   4.426   0.377   7.406  0.1411 -0.3260  0.0126
  117POPC   GL2 1769   4.531   0.056   7.300  0.0154 -0.1755  0.1160
  117POPC   C1A 1770   4.119   0.227   7.042 -0.1045  0.1654 -0.1015
  117POPC   D2A 1771   4.128   0.237   6.587 -0.1424 -0.3503  0.0573
  117POPC   C3A 1772   3.719   0.191   6.367 -0.2140  0.2964  0.0204
  117POPC   C4A 1773   3.353   0.099   6.042  0.2548  0.0622  0.0903
  117POPC   C1B 1774   4.493  -0.119   6.872 -0.1820  0.1136  0.2172
  117POPC   C2B 1775   4.477  -0.237   6.473  0.2147 -0.1172 -0.0309
  117POPC   C3B 1776   4.510  -0.383   6.092 -0.0223  0.0352  0.3641
  117POPC   C4B 1777   4.371  -0.669   5.711  0.0743 -0.1088  0.2258
  118POPC   NC3 1778   0.529   0.063   7.987 -0.2191 -0.0334 -0.3311
  118POPC   PO4 1779   0.618  -0.008   7.544  0.0207 -0.1006  0.2953
  118POPC   GL1 1780   0.658   0.102   7.137  0.1929  0.0745 -0.1577
  118POPC   GL2 1781   0.617   0.407   7.146 -0.1095 -0.0884  0.3749
  118POPC   C1A 1782   0.813  -0.215   6.748 -0.5018 -0.0145 -0.2369
  118POPC   D2A 1783   0.816  -0.274   6.244 -0.4118 -0.2503  0.0915
  118POPC   C3A 1784   0.715   0.063   5.976  0.4793 -0.5548  0.1071
  118POPC   C4A 1785   0.825   0.509   5.998 -0.2812 -0.3239 -0.1294
  118POPC   C1B 1786   0.694   0.290   6.658 -0.0542 -0.0860 -0.1062
  118POPC   C2B 1787   1.015   0.135   6.436  0.1102 -0.0297  0.1959
  118POPC   C3B 1788   1.265  -0.034   6.261 -0.5274 -0.2094  0.2115
  118POPC   C4B 1789   1.280   0.143   5.778  0.1438  0.3083 -0.1611
  119POPC   NC3 1790   2.203   4.966   8.642 -0.3983  0.0600 -0.1606
  119POPC   PO4 1791   2.524   4.749   8.494  0.2130 -0.0408  0.0633
  119POPC   GL1 1792   2.631   4.716   8.058 -0.1034  0.0001 -0.4332
  119POPC   GL2 1793   2.949   4.706   7.756 -0.4591 -0.3574 -0.0852
  119POPC   C1A 1794   2.323   4.730   7.711  0.0552  0.0060 -0.1838
  119POPC   D2A 1795   2.407   4.919   7.366  0.1941 -0.0809  0.0891
  119POPC   C3A 1796   2.822   5.139   7.321  0.0865 -0.4185  0.1175
  119POPC   C4A 1797   3.056   5.533   7.290 -0.3811  0.0251 -0.0482
  119POPC   C1B 1798   3.204   4.763   7.440 -0.0867 -0.2262  0.0025
  119POPC   C2B 1799   3.520   4.691   7.085 -0.2899 -0.1045 -0.1123
  119POPC   C3B 1800   3.839   4.934   7.039 -0.0924 -0.0546 -0.0534
  119POPC   C4B 1801   4.085   4.998   6.708 -0.1977  0.0009  0.0937
  120POPC   NC3 1802   2.447   0.908   8.458 -0.0475 -0.2011 -0.2391
  120POPC   PO4 1803   2.658   1.001   8.030 -0.1279  0.0573 -0.1825
  120POPC   GL1 1804   2.790   1.187   7.581  0.2376  0.1569  0.0383
  120POPC   GL2 1805   2.474   1.155   7.254 -0.0691  0.0648 -0.2968
  120POPC   C1A 1806   2.917   1.258   7.047  0.2320 -0.0960 -0.1362
  120POPC   D2A 1807   2.921   1.195   6.536  0.2450 -0.0882 -0.1709
  120POPC   C3A 1808   3.204   1.007   6.111  0.0005 -0.0487 -0.1121
  120POPC   C4A 1809   3.399   0.940   5.771  0.0345 -0.1473 -0.4809
  120POPC   C1B 1810   2.224   1.196   6.786  0.2195 -0.0352  0.2515
  120POPC   C2B 1811   1.791   1.371   6.495  0.1658  0.1564 -0.1026
  120POPC   C3B 1812   1.531   1.380   6.119  0.0541  0.1980 -0.0086
  120POPC   C4B 1813   1.371   1.226   5.698  0.1436 -0.0412  0.3217
  121POPC   NC3 1814   9.869   4.226   7.345  0.1353  0.4525  0.1306
  121POPC   PO4 1815   9.721   3.854   7.655  0.1490 -0.0573  0.3074
  121POPC   GL1 1816   9.746   3.764   7.188  0.0190 -0.0489  0.2763
  121POPC   GL2 1817   9.467   3.541   7.216  0.5028  0.1096  0.0150
  121POPC   C1A 1818  10.150   3.700   7.003  0.1496  0.0741 -0.1738
  121POPC   D2A 1819  10.266   3.815   6.505  0.1621  0.0694 -0.0575
  121POPC   C3A 1820  10.136   3.961   6.107 -0.0410 -0.2321  0.0866
  121POPC   C4A 1821  10.053   3.938   5.696  0.1342  0.0497  0.2552
  121POPC   C1B 1822   9.684   3.345   6.843  0.0939  0.0875  0.3744
  121POPC   C2B 1823   9.461   3.210   6.538 -0.1611 -0.3210  0.0542
  121POPC   C3B 1824   9.550   3.028   6.137  0.1935  0.0763  0.0823
  121POPC   C4B 1825   9.691   2.676   5.982 -0.0153 -0.1899  0.3554
  122POPC   NC3 1826   0.571   6.436   7.511  0.2876 -0.0365 -0.0987
  122POPC   PO4 1827   0.206   6.095   7.538  0.0442  0.0902  0.0488
  122POPC   GL1 1828   0.320   5.947   7.074  0.1102  0.1008  0.0404
  122POPC   GL2 1829   0.572   6.132   6.992 -0.3202  0.2133 -0.3126
  122POPC   C1A 1830   0.265   5.790   6.614 -0.3028 -0.1759  0.2077
  122POPC   D2A 1831   0.206   5.683   6.165 -0.0689  0.0677  0.0418
  122POPC   C3A 1832  -0.032   5.857   5.869  0.2867 -0.0736  0.0083
  122POPC   C4A 1833   0.019   5.757   5.536 -0.0572 -0.3494  0.1238
  122POPC   C1B 1834   0.486   6.199   6.671 -0.3402  0.1723  0.0066
  122POPC   C2B 1835   0.288   6.251   6.348  0.1839  0.0686  0.0406
  122POPC   C3B 1836   0.117   6.348   5.902  0.0708  0.1498  0.1728
  122POPC   C4B 1837   0.011   6.570   5.592  0.1044 -0.0893  0.0655
  123POPC   NC3 1838   4.754   1.422   7.554 -0.2645 -0.0013 -0.0337
  123POPC   PO4 1839   5.147   1.401   7.660 -0.0395 -0.2512 -0.0272
  123POPC   GL1 1840   4.959   1.449   7.115 -0.0253  0.2829  0.4495
  123POPC   GL2 1841   4.607   1.603   7.140 -0.1992  0.3383 -0.0148
  123POPC   C1A 1842   4.922   1.513   6.715 -0.6532  0.1003  0.1398
  123POPC   D2A 1843   4.983   1.537   6.245  0.1338 -0.2147 -0.1886
  123POPC   C3A 1844   4.886   1.830   5.948  0.0095 -0.1000 -0.1306
  123POPC   C4A 1845   4.659   2.183   6.038 -0.1540 -0.2814  0.4560
  123POPC   C1B 1846   4.260   1.557   6.815  0.1355  0.0043 -0.0127
  123POPC   C2B 1847   4.177   1.600   6.512  0.2160 -0.0405 -0.2217
  123POPC   C3B 1848   3.868   1.845   6.316  0.2698  0.1974 -0.3445
  123POPC   C4B 1849   3.741   1.783   5.845 -0.1783 -0.2103  0.1000
  124POPC   NC3 1850   9.726   1.176   7.813 -0.3077  0.1342 -0.0598
  124POPC   PO4 1851  10.095   1.478   7.708 -0.2218  0.0191  0.2414
  124POPC   GL1 1852   9.847   1.585   7.382  0.1361 -0.0446 -0.0584
  124POPC   GL2 1853   9.720   1.961   7.367 -0.0441 -0.0509 -0.0359
  124POPC   C1A 1854  10.005   1.653   6.989  0.0794  0.1282 -0.5167
  124POPC   D2A 1855  10.271   1.455   6.663 -0.2836  0.1783  0.1213
  124POPC   C3A 1856  10.584   1.640   6.421  0.0956  0.0007  0.2306
  124POPC   C4A 1857  11.051   1.629   6.446 -0.0824  0.0173  0.3675
  124POPC   C1B 1858  10.125   2.026   7.281 -0.0704  0.0446  0.3248
  124POPC   C2B 1859  10.351   1.949   6.901 -0.1273 -0.0586 -0.2100
  124POPC   C3B 1860  10.782   1.990   6.663 -0.0551 -0.0469  0.0912
  124POPC   C4B 1861  11.078   2.186   6.384  0.2579  0.1475 -0.3166
  125POPC   NC3 1862   2.021   3.846   8.554  0.1079  0.0684 -0.1772
  125POPC   PO4 1863   2.091   3.824   8.108  0.3395 -0.1568  0.2595
  125POPC   GL1 1864   2.214   4.026   7.766  0.1806 -0.2680 -0.1403
  125POPC   GL2 1865   2.540   4.227   7.743  0.3458 -0.2478 -0.0682
  125POPC   C1A 1866   2.111   3.911   7.291 -0.0392  0.0976  0.1481
  125POPC   D2A 1867   2.383   4.074   6.863  0.1246 -0.2821  0.0458
  125POPC   C3A 1868   2.282   3.742   6.611 -0.1172  0.3197  0.0514
  125POPC   C4A 1869   2.313   3.362   6.419 -0.0471  0.0394 -0.0702
  125POPC   C1B 1870   2.487   4.329   7.343 -0.1483 -0.2045  0.2513
  125POPC   C2B 1871   2.655   4.604   7.087 -0.2999 -0.0648  0.3240
  125POPC   C3B 1872   2.687   4.594   6.643 -0.0640  0.2281  0.1576
  125POPC   C4B 1873   2.957   4.844   6.277  0.1826 -0.0910 -0.0627
  126POPC   NC3 1874   6.273   0.871   7.709 -0.2726  0.0023  0.1583
  126POPC   PO4 1875   6.006   0.580   7.595  0.0901  0.2214  0.2240
  126POPC   GL1 1876   6.132   0.671   7.199  0.1341 -0.0782  0.0107
  126POPC   GL2 1877   6.312   1.049   7.100 -0.0563 -0.1072 -0.2577
  126POPC   C1A 1878   5.985   0.641   6.842 -0.1438  0.1463  0.0529
  126POPC   D2A 1879   5.891   0.629   6.445 -0.0066  0.3007 -0.1484
  126POPC   C3A 1880   5.796   0.351   6.176 -0.1352  0.2035  0.1227
  126POPC   C4A 1881   6.025   0.261   5.718 -0.3158 -0.0326 -0.1764
  126POPC   C1B 1882   6.425   0.864   6.680  0.1480  0.0132 -0.1950
  126POPC   C2B 1883   6.707   0.892   6.274  0.0772  0.3276 -0.1012
  126POPC   C3B 1884   6.933   0.952   5.984  0.0805  0.2446 -0.0854
  126POPC   C4B 1885   7.237   1.310   5.875  0.4575  0.0957  0.1205
  127POPC   NC3 1886   5.683   9.304   8.021  0.0891 -0.0935  0.2869
  127POPC   PO4 1887   5.998   9.544   7.742 -0.2428 -0.1388 -0.1616
  127POPC   GL1 1888   5.845   9.713   7.320  0.1484 -0.0261  0.1405
  127POPC   GL2 1889   5.572   9.859   7.286  0.1242  0.0161  0.2968
  127POPC   C1A 1890   5.926  10.092   7.032 -0.2950  0.2034  0.4776
  127POPC   D2A 1891   5.738  10.072   6.574 -0.1957 -0.0925  0.1805
  127POPC   C3A 1892   5.560   9.857   6.139  0.3460  0.4848  0.4300
  127POPC   C4A 1893   5.172   9.431   6.208  0.2356 -0.4003 -0.2657
  127POPC   C1B 1894   5.398  10.095   6.944  0.2743 -0.1292 -0.0660
  127POPC   C2B 1895   5.043   9.938   6.613  0.0851 -0.3969 -0.0976
  127POPC   C3B 1896   4.944  10.070   6.223 -0.3403  0.3320  0.1488
  127POPC   C4B 1897   4.902  10.382   5.837  0.0975  0.0244  0.0078
  128POPC   NC3 1898   2.299   7.545   8.153  0.0505  0.0570 -0.1029
  128POPC   PO4 1899   2.696   7.582   8.157 -0.2487 -0.4065  0.0053
  128POPC   GL1 1900   2.537   7.706   7.642 -0.3135  0.0369 -0.2042
  128POPC   GL2 1901   2.177   7.693   7.647 -0.3482  0.3705  0.1160
  128POPC   C1A 1902   2.707   7.894   7.217  0.2309  0.0285  0.2069
  128POPC   D2A 1903   2.700   7.718   6.774  0.0419  0.2883 -0.4472
  128POPC   C3A 1904   2.760   7.862   6.344  0.0500  0.0410 -0.2144
  128POPC   C4A 1905   2.733   8.085   5.981 -0.1057 -0.1187  0.1187
  128POPC   C1B 1906   2.275   7.683   7.161  0.4572  0.1866  0.1995
  128POPC   C2B 1907   2.173   7.872   6.772  0.0415 -0.1137  0.1151
  128POPC   C3B 1908   2.228   8.070   6.326 -0.4820 -0.3274 -0.1706
  128POPC   C4B 1909   2.116   8.449   6.171 -0.0186 -0.1467  0.3487
  129POPC   NC3 1910   7.214   4.251   7.528  0.0447  0.0515  0.0715
  129POPC   PO4 1911   6.996   4.527   7.607  0.1769  0.1083  0.1365
  129POPC   GL1 1912   7.021   4.826   7.164  0.3322  0.0927 -0.0770
  129POPC   GL2 1913   7.311   4.601   7.141  0.2162  0.3934 -0.0211
  129POPC   C1A 1914   6.799   5.064   6.869 -0.1553  0.1820  0.0089
  129POPC   D2A 1915   6.962   5.171   6.479  0.3875 -0.2660  0.0198
  129POPC   C3A 1916   6.963   4.920   6.043 -0.2076  0.1910  0.1805
  129POPC   C4A 1917   6.739   4.759   5.687  0.0613  0.1631 -0.0931
  129POPC   C1B 1918   7.484   4.654   6.697 -0.1031 -0.0746  0.1006
  129POPC   C2B 1919   7.380   4.510   6.246 -0.4601 -0.1692 -0.1573
  129POPC   C3B 1920   7.783   4.596   5.951 -0.1503  0.3008  0.4317
  129POPC   C4B 1921   8.229   4.517   6.030 -0.0719  0.0698 -0.0504
  130POPC   NC3 1922   3.190   8.078   8.133  0.0347 -0.2878 -0.3961
  130POPC   PO4 1923   2.928   8.465   8.122 -0.1496  0.2670  0.3014
  130POPC   GL1 1924   2.924   8.130   7.709 -0.2292  0.2216 -0.0255
  130POPC   GL2 1925   2.985   7.755   7.822 -0.2450  0.3173 -0.0261
  130POPC   C1A 1926   3.027   8.227   7.253 -0.1733  0.3904  0.0734
  130POPC   D2A 1927   3.295   8.264   6.954  0.1406  0.1661  0.2410
  130POPC   C3A 1928   3.072   8.313   6.590  0.0412  0.3430  0.1314
  130POPC   C4A 1929   3.206   8.188   6.188  0.0770 -0.0322  0.1562
  130POPC   C1B 1930   3.254   7.781   7.478  0.0626  0.2185 -0.2559
  130POPC   C2B 1931   3.240   7.689   7.028  0.0135  0.0278 -0.1058
  130POPC   C3B 1932   3.256   7.873   6.595 -0.4989  0.3584 -0.3110
  130POPC   C4B 1933   3.688   7.890   6.406  0.0032 -0.1310  0.0433
  131POPC   NC3 1934   3.559   9.721   7.783  0.0109 -0.0580  0.2494
  131POPC   PO4 1935   3.928   9.384   7.938 -0.2982  0.2716  0.0595
  131POPC   GL1 1936   3.995   9.234   7.534 -0.2674 -0.1323  0.1431
  131POPC   GL2 1937   3.642   9.335   7.459  0.3086  0.1015  0.5644
  131POPC   C1A 1938   4.166   8.955   7.317  0.3362  0.0626  0.3364
  131POPC   D2A 1939   4.317   8.581   7.096  0.0916 -0.3876  0.0708
  131POPC   C3A 1940   4.089   8.203   7.227  0.0063 -0.2820 -0.0216
  131POPC   C4A 1941   3.956   8.047   7.652 -0.0371 -0.0754  0.3539
  131POPC   C1B 1942   3.492   9.562   7.055 -0.3459 -0.1213 -0.1426
  131POPC   C2B 1943   3.615   9.733   6.597  0.2800  0.1743  0.2832
  131POPC   C3B 1944   3.652   9.677   6.055 -0.1190 -0.0756 -0.0276
  131POPC   C4B 1945   3.996   9.584   5.873  0.0242 -0.2531 -0.2432
  132POPC   NC3 1946   7.235   6.055   7.370  0.0017 -0.0937 -0.1928
  132POPC   PO4 1947   7.612   6.340   7.403 -0.1923 -0.1688 -0.3138
  132POPC   GL1 1948   7.575   6.164   6.946 -0.1326  0.3765  0.1114
  132POPC   GL2 1949   7.820   6.131   6.837 -0.0750 -0.1513  0.2425
  132POPC   C1A 1950   7.390   6.017   6.545 -0.1868 -0.1007  0.0373
  132POPC   D2A 1951   7.514   5.975   6.093  0.3557 -0.1421  0.3346
  132POPC   C3A 1952   7.572   5.605   5.868 -0.2181  0.0539 -0.3926
  132POPC   C4A 1953   7.473   5.356   5.584 -0.1296 -0.1546  0.0948
  132POPC   C1B 1954   7.929   5.955   6.570 -0.0078 -0.3129 -0.0338
  132POPC   C2B 1955   7.977   5.959   6.074 -0.2418 -0.0790  0.1179
  132POPC   C3B 1956   8.072   5.934   5.569 -0.1130  0.1771 -0.3294
  132POPC   C4B 1957   7.968   5.909   5.220 -0.0487 -0.0159 -0.1227
  133POPC   NC3 1958   6.984   7.496   7.427  0.3365 -0.1580 -0.2639
  133POPC   PO4 1959   7.324   7.277   7.300  0.0154  0.0665  0.0414
  133POPC   GL1 1960   7.390   7.131   6.958 -0.3889 -0.0462 -0.1045
  133POPC   GL2 1961   7.131   7.028   6.896 -0.1181 -0.0747  0.0680
  133POPC   C1A 1962   7.669   7.064   6.673  0.3553  0.0948  0.3203
  133POPC   D2A 1963   7.564   6.806   6.276 -0.0057 -0.0107  0.2357
  133POPC   C3A 1964   7.608   7.004   5.860 -0.0722 -0.0511 -0.1066
  133POPC   C4A 1965   7.541   7.127   5.495  0.1816 -0.0866 -0.0283
  133POPC   C1B 1966   7.182   7.062   6.451 -0.0918  0.2658 -0.2505
  133POPC   C2B 1967   7.120   7.187   6.029  0.0202  0.1960  0.4423
  133POPC   C3B 1968   7.143   7.367   5.652 -0.0628  0.1568 -0.1275
  133POPC   C4B 1969   7.154   7.503   5.193 -0.0225  0.2799 -0.2203
  134POPC   NC3 1970   7.457   3.491   7.264  0.1578  0.0738  0.1603
  134POPC   PO4 1971   7.525   3.976   7.272  0.0673 -0.0805 -0.1205
  134POPC   GL1 1972   7.177   4.070   7.003 -0.2119 -0.1003  0.0750
  134POPC   GL2 1973   6.915   4.267   7.159  0.4222 -0.6078  0.1529
  134POPC   C1A 1974   7.091   4.299   6.674  0.0744 -0.1365  0.2903
  134POPC   D2A 1975   6.918   4.405   6.252  0.0448  0.0969 -0.0324
  134POPC   C3A 1976   7.051   4.350   5.850 -0.1690  0.0050  0.3907
  134POPC   C4A 1977   6.933   4.368   5.326  0.0683 -0.0858 -0.0393
  134POPC   C1B 1978   6.684   4.564   6.853  0.1723  0.3274 -0.1369
  134POPC   C2B 1979   6.591   4.754   6.495 -0.1500 -0.0145  0.3414
  134POPC   C3B 1980   6.437   4.728   6.141  0.2580 -0.2138 -0.4609
  134POPC   C4B 1981   6.227   4.862   5.799 -0.2716  0.0152  0.0873
  135POPC   NC3 1982   7.324   6.727   7.293  0.3975  0.1949 -0.0367
  135POPC   PO4 1983   7.099   6.425   7.063 -0.1368 -0.3686  0.1286
  135POPC   GL1 1984   7.230   6.452   6.653 -0.5209  0.2655 -0.0661
  135POPC   GL2 1985   7.467   6.653   6.777  0.1829 -0.0807  0.0020
  135POPC   C1A 1986   7.184   6.410   6.174  0.1061 -0.3382  0.0391
  135POPC   D2A 1987   7.290   6.587   5.763  0.0243  0.1623 -0.1509
  135POPC   C3A 1988   7.192   6.372   5.352 -0.1055 -0.1416 -0.1832
  135POPC   C4A 1989   6.884   6.427   4.996  0.1780  0.0720 -0.1118
  135POPC   C1B 1990   7.688   6.379   6.410  0.3724  0.0408  0.0195
  135POPC   C2B 1991   7.718   6.485   5.959 -0.0616  0.1906 -0.2337
  135POPC   C3B 1992   7.631   6.187   5.589 -0.1118 -0.0615  0.3867
  135POPC   C4B 1993   7.232   5.941   5.622 -0.2493  0.1050 -0.2096
  136POPC   NC3 1994   0.941   4.396   8.214  0.1159  0.0786 -0.0710
  136POPC   PO4 1995   1.279   4.324   8.036 -0.1260 -0.0372  0.1378
  136POPC   GL1 1996   1.185   4.416   7.628  0.2226 -0.1831  0.0187
  136POPC   GL2 1997   0.975   4.274   7.447  0.1209  0.1116 -0.1451
  136POPC   C1A 1998   1.384   4.434   7.196 -0.0556  0.1720 -0.1863
  136POPC   D2A 1999   1.679   4.596   6.910 -0.2246  0.0797 -0.1400
  136POPC   C3A 2000   1.968   4.301   6.576  0.1629 -0.1961 -0.1130
  136POPC   C4A 2001   2.279   4.270   6.197 -0.0905 -0.3630  0.0950
  136POPC   C1B 2002   0.953   4.261   7.053 -0.0162 -0.2713  0.2814
  136POPC   C2B 2003   0.846   4.231   6.706  0.0414 -0.1041 -0.1995
  136POPC   C3B 2004   0.737   4.013   6.306  0.0225  0.1416 -0.0069
  136POPC   C4B 2005   0.989   3.609   6.249  0.4232  0.2172  0.1880
  137POPC   NC3 2006   9.123   9.920   7.477 -0.0315 -0.1472  0.1802
  137POPC   PO4 2007   8.930  10.297   7.455  0.0153  0.1211 -0.2154
  137POPC   GL1 2008   8.998  10.237   6.998 -0.0870  0.0841 -0.0050
  137POPC   GL2 2009   9.105  10.039   6.928  0.0254  0.1701 -0.1544
  137POPC   C1A 2010   9.029  10.404   6.520  0.1918 -0.3269  0.1159
  137POPC   D2A 2011   9.319  10.536   6.313 -0.0159  0.0158 -0.0569
  137POPC   C3A 2012   9.310  10.478   5.922  0.4412  0.1170  0.0389
  137POPC   C4A 2013   9.102  10.160   5.612  0.2815 -0.4028 -0.0421
  137POPC   C1B 2014   8.802   9.872   6.693 -0.1449 -0.2483 -0.1233
  137POPC   C2B 2015   8.791   9.616   6.361 -0.0564 -0.1310  0.1910
  137POPC   C3B 2016   8.711   9.434   5.957 -0.0045 -0.2179  0.0254
  137POPC   C4B 2017   8.388   9.317   5.798 -0.0829 -0.0119 -0.0956
  138POPC   NC3 2018   7.685   7.902   7.305  0.2922  0.0957  0.1074
  138POPC   PO4 2019   7.260   7.920   7.300  0.1104  0.0999 -0.0642
  138POPC   GL1 2020   7.067   7.706   6.939  0.4454  0.0324  0.0070
  138POPC   GL2 2021   6.826   7.426   6.877  0.0677  0.3892 -0.0634
  138POPC   C1A 2022   7.293   7.564   6.601 -0.2947  0.2919  0.0688
  138POPC   D2A 2023   7.589   7.439   6.284  0.1907  0.3163  0.2506
  138POPC   C3A 2024   7.431   7.636   6.021  0.2319 -0.0264 -0.4151
  138POPC   C4A 2025   7.599   7.924   5.844  0.1069  0.0853  0.0315
  138POPC   C1B 2026   6.852   7.398   6.418 -0.0863 -0.1780  0.1318
  138POPC   C2B 2027   6.822   7.602   6.047  0.0095 -0.0455 -0.0960
  138POPC   C3B 2028   6.656   8.015   5.922  0.0120 -0.1427 -0.4446
  138POPC   C4B 2029   6.773   8.430   5.790 -0.1969 -0.2967  0.2666
  139POPC   NC3 2030   1.230   7.705   7.718  0.3913  0.1901 -0.3909
  139POPC   PO4 2031   0.873   7.352   7.785 -0.1705 -0.1221  0.2353
  139POPC   GL1 2032   0.878   7.197   7.275 -0.1190  0.4073  0.0374
  139POPC   GL2 2033   0.930   6.863   7.261 -0.0605 -0.0782 -0.1283
  139POPC   C1A 2034   0.835   7.302   6.837  0.0363 -0.1608 -0.1140
  139POPC   D2A 2035   0.534   7.038   6.502  0.1615 -0.1094 -0.1400
  139POPC   C3A 2036   0.631   7.182   6.058  0.1188  0.0104  0.0278
  139POPC   C4A 2037   0.951   7.021   5.705 -0.0076 -0.2028 -0.0187
  139POPC   C1B 2038   0.808   6.764   6.858 -0.1097 -0.1250 -0.0422
  139POPC   C2B 2039   0.792   6.579   6.580  0.1908  0.1953 -0.0127
  139POPC   C3B 2040   0.943   6.412   6.272  0.3610  0.1429  0.1263
  139POPC   C4B 2041   1.344   6.348   5.949  0.2181 -0.1370 -0.0196
  140POPC   NC3 2042   2.550   8.029   8.051 -0.1236  0.0422  0.2378
  140POPC   PO4 2043   2.105   8.147   7.925  0.1975  0.1724 -0.0755
  140POPC   GL1 2044   2.352   8.152   7.510  0.0172  0.1620  0.1450
  140POPC   GL2 2045   2.631   8.440   7.378 -0.2088 -0.2035 -0.0826
  140POPC   C1A 2046   2.324   8.243   7.096 -0.1248  0.1437 -0.0493
  140POPC   D2A 2047   2.559   8.244   6.727  0.1623 -0.1243 -0.1506
  140POPC   C3A 2048   2.606   8.473   6.382  0.0733 -0.0053  0.0619
  140POPC   C4A 2049   2.791   8.571   5.895  0.0951  0.1663 -0.0676
  140POPC   C1B 2050   2.826   8.635   7.060  0.1446 -0.1108 -0.0490
  140POPC   C2B 2051   2.711   8.767   6.766  0.0938  0.1820  0.3765
  140POPC   C3B 2052   2.794   8.976   6.418  0.0087 -0.3502 -0.2453
  140POPC   C4B 2053   2.870   9.162   6.039 -0.1994 -0.4779 -0.1705
  141POPC   NC3 2054   0.986   1.760   7.851  0.2699  0.0038  0.2962
  141POPC   PO4 2055   1.173   2.178   8.078  0.0151  0.2798  0.2260
  141POPC   GL1 2056   1.340   2.103   7.694  0.1272 -0.0037 -0.0319
  141POPC   GL2 2057   1.063   2.110   7.448 -0.2475  0.1367 -0.1301
  141POPC   C1A 2058   1.432   1.730   7.376 -0.0216 -0.2571  0.0285
  141POPC   D2A 2059   1.698   1.688   6.943 -0.0339 -0.0978 -0.1469
  141POPC   C3A 2060   1.588   1.874   6.579  0.3113 -0.4135 -0.0760
  141POPC   C4A 2061   1.628   2.249   6.379 -0.2307  0.2696 -0.0446
  141POPC   C1B 2062   0.857   2.336   7.164  0.1493  0.0313  0.4802
  141POPC   C2B 2063   0.554   2.435   6.845  0.1846 -0.1901  0.1554
  141POPC   C3B 2064   0.427   2.170   6.413  0.0644  0.2976 -0.0083
  141POPC   C4B 2065   0.267   1.884   6.107  0.1125  0.0255  0.0931
  142POPC   NC3 2066   2.853   2.912   7.939 -0.1503  0.0793  0.0814
  142POPC   PO4 2067   2.784   3.262   7.988  0.2874 -0.1529  0.0156
  142POPC   GL1 2068   2.697   3.482   7.538  0.0576  0.1952 -0.0211
  142POPC   GL2 2069   2.349   3.442   7.409 -0.2067 -0.1234  0.0191
  142POPC   C1A 2070   2.721   3.902   7.209  0.0072  0.2158  0.0398
  142POPC   D2A 2071   2.975   3.945   6.944 -0.0892  0.2196 -0.0204
  142POPC   C3A 2072   2.831   4.130   6.556  0.2347 -0.0963 -0.0181
  142POPC   C4A 2073   2.764   4.321   6.165 -0.1088 -0.2455  0.0590
  142POPC   C1B 2074   2.163   3.314   6.979 -0.0391 -0.1218  0.0692
  142POPC   C2B 2075   1.851   3.311   6.547 -0.0279 -0.1934 -0.1578
  142POPC   C3B 2076   1.789   3.198   6.125 -0.0593  0.3057  0.3780
  142POPC   C4B 2077   1.977   2.913   5.762  0.1209  0.1444  0.2955
  143POPC   NC3 2078   6.785   9.645   8.197 -0.0023  0.1620 -0.1339
  143POPC   PO4 2079   6.953   9.914   7.814 -0.0779  0.1442  0.0370
  143POPC   GL1 2080   6.676   9.786   7.390 -0.0615  0.0997  0.2713
  143POPC   GL2 2081   6.693   9.980   7.043  0.1214  0.1130 -0.0070
  143POPC   C1A 2082   6.343   9.563   7.174  0.2168 -0.0485 -0.3502
  143POPC   D2A 2083   6.200   9.756   6.767  0.3702  0.1656 -0.1140
  143POPC   C3A 2084   6.468   9.671   6.481  0.0326  0.1328  0.0300
  143POPC   C4A 2085   6.787   9.635   6.124 -0.0787 -0.0128 -0.0131
  143POPC   C1B 2086   6.737   9.994   6.681 -0.0142  0.1440  0.0264
  143POPC   C2B 2087   6.655  10.142   6.225  0.2186  0.0460 -0.0238
  143POPC   C3B 2088   6.590  10.589   5.877  0.1684 -0.1101 -0.2070
  143POPC   C4B 2089   6.159  10.679   6.013 -0.2379  0.0819  0.2511
  144POPC   NC3 2090   3.594   1.521   3.596  0.1755 -0.0895 -0.1563
  144POPC   PO4 2091   3.396   1.126   3.777 -0.2884 -0.2161  0.1753
  144POPC   GL1 2092   3.525   0.734   4.075 -0.3046 -0.2849 -0.0326
  144POPC   GL2 2093   3.619   0.755   4.402  0.2013  0.0396 -0.3574
  144POPC   C1A 2094   3.459   0.312   4.265  0.1059 -0.2858  0.1413
  144POPC   D2A 2095   3.433   0.349   4.710 -0.0207 -0.0156  0.1171
  144POPC   C3A 2096   3.454   0.365   5.106  0.1542 -0.1244 -0.4266
  144POPC   C4A 2097   3.621   0.772   5.330  0.0743 -0.1463  0.1140
  144POPC   C1B 2098   3.590   1.161   4.695  0.0208  0.0450  0.2250
  144POPC   C2B 2099   3.685   1.535   5.050  0.1538  0.2622 -0.3472
  144POPC   C3B 2100   3.988   1.664   5.424 -0.2532 -0.1065 -0.0036
  144POPC   C4B 2101   4.163   1.939   5.637 -0.2088 -0.1726  0.0712
  145POPC   NC3 2102   0.975   3.782   4.058 -0.3836 -0.2247  0.1383
  145POPC   PO4 2103   0.541   3.896   4.310  0.0612  0.0180  0.1396
  145POPC   GL1 2104   0.863   3.931   4.573 -0.0945 -0.0215  0.2976
  145POPC   GL2 2105   0.690   3.893   4.850  0.0430  0.0755 -0.0671
  145POPC   C1A 2106   1.212   3.954   4.811 -0.2487  0.2320  0.1265
  145POPC   D2A 2107   1.230   4.095   5.295  0.0782  0.2407 -0.0510
  145POPC   C3A 2108   0.809   3.937   5.370  0.1383  0.0213 -0.4133
  145POPC   C4A 2109   0.607   3.932   5.792  0.0361 -0.0885  0.2220
  145POPC   C1B 2110   0.250   3.949   4.819 -0.1712 -0.3532 -0.1941
  145POPC   C2B 2111  -0.177   4.123   4.861 -0.0271 -0.4058 -0.2842
  145POPC   C3B 2112  -0.383   4.407   4.952  0.1946 -0.3600 -0.0841
  145POPC   C4B 2113  -0.570   4.786   4.758 -0.0359  0.2576 -0.0144
  146POPC   NC3 2114   9.381   7.524   3.478  0.0552  0.1761 -0.1405
  146POPC   PO4 2115   9.062   7.539   3.294 -0.1332 -0.0648 -0.2128
  146POPC   GL1 2116   8.928   7.425   3.706 -0.3973  0.0117 -0.1101
  146POPC   GL2 2117   9.108   7.291   3.837  0.1383 -0.1687 -0.3397
  146POPC   C1A 2118   9.170   7.731   4.019  0.2035 -0.2868  0.1001
  146POPC   D2A 2119   9.333   7.734   4.406  0.1056  0.0542  0.0824
  146POPC   C3A 2120   9.155   7.748   4.780 -0.2870 -0.0424 -0.0111
  146POPC   C4A 2121   9.062   7.474   5.211 -0.0837  0.1397 -0.1734
  146POPC   C1B 2122   9.406   7.247   4.134  0.0889  0.1974  0.0149
  146POPC   C2B 2123   9.446   7.256   4.480  0.0838  0.0612  0.2081
  146POPC   C3B 2124   9.469   7.306   4.951 -0.2405  0.1482  0.0535
  146POPC   C4B 2125   9.682   7.431   5.265  0.4391 -0.0837 -0.3030
  147POPC   NC3 2126   0.389   1.267   3.612  0.0628  0.2396 -0.0563
  147POPC   PO4 2127   0.154   1.636   3.772  0.1128 -0.0183  0.2207
  147POPC   GL1 2128   0.287   1.695   4.142 -0.0912  0.2067 -0.4335
  147POPC   GL2 2129   0.376   1.452   4.436  0.0680 -0.0532  0.2148
  147POPC   C1A 2130   0.200   1.863   4.607 -0.0243  0.1960 -0.1205
  147POPC   D2A 2131   0.159   1.608   4.964  0.0661 -0.1659  0.2273
  147POPC   C3A 2132  -0.181   1.684   5.304  0.0537 -0.1991 -0.0828
  147POPC   C4A 2133  -0.099   2.077   5.449 -0.0481 -0.0152  0.0244
  147POPC   C1B 2134   0.208   1.182   4.649 -0.2729  0.1541 -0.1145
  147POPC   C2B 2135   0.177   1.089   5.039  0.0832  0.1730  0.1122
  147POPC   C3B 2136  -0.082   1.205   5.367  0.0612 -0.0686  0.0578
  147POPC   C4B 2137  -0.120   1.292   5.806  0.2395  0.1656  0.0786
  148POPC   NC3 2138   3.211   2.229   4.191 -0.0421 -0.0776  0.0948
  148POPC   PO4 2139   2.973   1.898   4.304 -0.1663  0.2060 -0.0918
  148POPC   GL1 2140   2.977   2.328   4.600 -0.0597  0.0763 -0.0378
  148POPC   GL2 2141   2.793   2.640   4.724 -0.2662 -0.3827  0.1080
  148POPC   C1A 2142   3.316   2.165   4.857 -0.1420 -0.0301 -0.0281
  148POPC   D2A 2143   3.306   1.826   5.164 -0.0584 -0.5099 -0.1753
  148POPC   C3A 2144   3.434   1.616   5.476 -0.2232 -0.1698 -0.2322
  148POPC   C4A 2145   3.718   1.303   5.593 -0.0753 -0.0411 -0.1336
  148POPC   C1B 2146   2.701   2.492   5.138 -0.1007  0.0934  0.1301
  148POPC   C2B 2147   2.698   2.467   5.618 -0.0973 -0.1156  0.0054
  148POPC   C3B 2148   2.391   2.715   5.867 -0.0321  0.1657  0.2056
  148POPC   C4B 2149   2.198   2.884   6.223 -0.3089  0.0787  0.1938
  149POPC   NC3 2150   9.761   3.390   3.735  0.2781 -0.0956  0.1807
  149POPC   PO4 2151  10.085   3.542   4.065  0.2255 -0.0611 -0.0653
  149POPC   GL1 2152  10.286   3.274   4.359  0.0215  0.1038  0.1197
  149POPC   GL2 2153  10.207   3.525   4.572 -0.1952  0.0406 -0.0174
  149POPC   C1A 2154  10.440   2.933   4.570 -0.0581  0.1455  0.2583
  149POPC   D2A 2155  10.340   2.769   4.984  0.1813  0.2613  0.2008
  149POPC   C3A 2156  10.288   2.962   5.415  0.0402  0.3566  0.2590
  149POPC   C4A 2157  10.184   3.038   5.860  0.1563  0.2165 -0.0499
  149POPC   C1B 2158  10.447   3.414   4.907 -0.1199  0.0229 -0.0391
  149POPC   C2B 2159  10.636   3.305   5.351 -0.0558  0.1044  0.2386
  149POPC   C3B 2160  10.678   3.121   5.738 -0.3270  0.1933 -0.2594
  149POPC   C4B 2161  10.627   3.176   6.182  0.1700 -0.1959 -0.2600
  150POPC   NC3 2162   9.800   5.939   3.429  0.2119 -0.2622 -0.4528
  150POPC   PO4 2163   9.621   6.086   3.754  0.1389  0.3010 -0.5281
  150POPC   GL1 2164   9.649   6.208   4.171  0.1732 -0.1633  0.2764
  150POPC   GL2 2165   9.769   6.550   4.213 -0.1198  0.1457 -0.0733
  150POPC   C1A 2166   9.708   6.273   4.628 -0.0170 -0.0485 -0.0288
  150POPC   D2A 2167   9.377   6.391   5.009  0.0034 -0.0114 -0.0297
  150POPC   C3A 2168   9.508   6.537   5.359 -0.0093  0.1610 -0.3188
  150POPC   C4A 2169   9.559   6.283   5.775  0.1857 -0.1666 -0.0767
  150POPC   C1B 2170   9.850   6.991   4.288 -0.1536 -0.0377  0.2835
  150POPC   C2B 2171  10.022   7.217   4.577 -0.1075  0.3555  0.2707
  150POPC   C3B 2172  10.117   7.197   4.984  0.2238 -0.0148 -0.0664
  150POPC   C4B 2173  10.271   7.206   5.418 -0.1327  0.1542  0.1489
  151POPC   NC3 2174   7.910   7.280   3.047 -0.2020  0.1580 -0.1743
  151POPC   PO4 2175   8.221   7.022   3.235 -0.0405 -0.0554 -0.0843
  151POPC   GL1 2176   8.200   6.758   3.652 -0.3239 -0.0307 -0.2092
  151POPC   GL2 2177   8.168   7.049   3.842 -0.0117 -0.0538 -0.0219
  151POPC   C1A 2178   8.238   6.555   4.135 -0.0721 -0.1810 -0.1109
  151POPC   D2A 2179   8.244   6.286   4.505  0.1427  0.3107  0.0832
  151POPC   C3A 2180   8.274   5.793   4.398  0.0087 -0.0766  0.1022
  151POPC   C4A 2181   8.496   5.605   4.027  0.1501  0.3189  0.0992
  151POPC   C1B 2182   8.037   7.103   4.281 -0.0786 -0.0152  0.1090
  151POPC   C2B 2183   7.736   7.213   4.431 -0.3922 -0.1791 -0.3638
  151POPC   C3B 2184   7.508   7.306   4.777  0.3588 -0.1051 -0.1018
  151POPC   C4B 2185   7.608   7.488   5.188 -0.3293  0.1138  0.1883
  152POPC   NC3 2186   6.610   7.526   2.758 -0.2060 -0.0331 -0.1468
  152POPC   PO4 2187   6.255   7.717   2.873  0.1893 -0.3573 -0.0417
  152POPC   GL1 2188   6.381   7.400   3.267  0.0494  0.0759 -0.1936
  152POPC   GL2 2189   6.128   7.303   3.541  0.1367  0.1622  0.1459
  152POPC   C1A 2190   6.570   7.162   3.582 -0.2262  0.1426 -0.0794
  152POPC   D2A 2191   6.707   6.896   3.919 -0.0061  0.0192  0.0495
  152POPC   C3A 2192   6.658   7.064   4.373  0.1175 -0.0189 -0.5013
  152POPC   C4A 2193   6.518   7.355   4.713  0.0452  0.1521 -0.0869
  152POPC   C1B 2194   6.415   7.532   3.827  0.1713  0.2205 -0.0321
  152POPC   C2B 2195   6.738   7.443   4.065  0.1172 -0.0153  0.0009
  152POPC   C3B 2196   7.069   7.698   4.082  0.2090 -0.0743 -0.0631
  152POPC   C4B 2197   7.520   7.699   4.257  0.1545 -0.1839 -0.0053
  153POPC   NC3 2198   2.059   1.287   3.548 -0.1634  0.1982 -0.2119
  153POPC   PO4 2199   1.621   1.497   3.755  0.0655 -0.2971 -0.0379
  153POPC   GL1 2200   1.832   1.229   4.052  0.2347 -0.3384  0.2202
  153POPC   GL2 2201   1.659   1.346   4.314  0.0958 -0.1144  0.1251
  153POPC   C1A 2202   1.948   0.913   4.386  0.0869  0.0138  0.0185
  153POPC   D2A 2203   1.965   0.890   4.779  0.1820  0.2407  0.0979
  153POPC   C3A 2204   2.250   1.157   5.034 -0.0853  0.0310 -0.0654
  153POPC   C4A 2205   2.545   1.318   4.743  0.1742 -0.0004 -0.0397
  153POPC   C1B 2206   1.696   1.567   4.626  0.3018  0.0373  0.0194
  153POPC   C2B 2207   1.663   1.824   4.959  0.3527 -0.1021  0.3294
  153POPC   C3B 2208   1.841   1.914   5.353  0.0258 -0.1651  0.1203
  153POPC   C4B 2209   1.808   1.810   5.863  0.0932  0.1208 -0.3042
  154POPC   NC3 2210   0.612   1.944   3.918 -0.0965  0.2004 -0.2917
  154POPC   PO4 2211   0.967   2.167   3.822 -0.3054 -0.2939  0.2738
  154POPC   GL1 2212   1.113   2.052   4.294 -0.1404 -0.0507  0.2449
  154POPC   GL2 2213   1.318   1.768   4.399 -0.2403 -0.2656 -0.1276
  154POPC   C1A 2214   1.020   2.061   4.763  0.4323 -0.2235 -0.0527
  154POPC   D2A 2215   1.080   1.895   5.189  0.3240  0.0792 -0.1679
  154POPC   C3A 2216   0.908   1.458   5.320  0.3383  0.5873  0.0128
  154POPC   C4A 2217   0.433   1.388   5.309 -0.2605 -0.1706  0.2037
  154POPC   C1B 2218   1.132   1.602   4.818  0.2142  0.0996  0.0574
  154POPC   C2B 2219   1.363   1.506   5.200 -0.0199  0.0537  0.0445
  154POPC   C3B 2220   1.317   1.767   5.624 -0.1286 -0.0778  0.1755
  154POPC   C4B 2221   1.296   1.916   6.006  0.3199 -0.0594 -0.0813
  155POPC   NC3 2222   0.801   7.608   3.233 -0.0379  0.0919 -0.1154
  155POPC   PO4 2223   0.506   7.851   3.450  0.0254 -0.0703 -0.1238
  155POPC   GL1 2224   0.702   7.831   3.891 -0.0063  0.1053 -0.0580
  155POPC   GL2 2225   0.737   7.536   3.916 -0.5560  0.0934  0.2589
  155POPC   C1A 2226   1.097   7.844   4.196 -0.0421 -0.0561 -0.2301
  155POPC   D2A 2227   1.117   7.901   4.669 -0.4520  0.0973  0.2128
  155POPC   C3A 2228   1.218   8.071   5.120 -0.0504 -0.0372  0.3458
  155POPC   C4A 2229   1.530   7.990   5.374 -0.0023  0.2726  0.4906
  155POPC   C1B 2230   0.847   7.505   4.410  0.0753 -0.0119 -0.1424
  155POPC   C2B 2231   0.939   7.446   4.829 -0.1498  0.0640 -0.0412
  155POPC   C3B 2232   0.887   7.665   5.190 -0.0322  0.0127  0.0247
  155POPC   C4B 2233   0.644   7.563   5.547 -0.1211  0.1801 -0.0036
  156POPC   NC3 2234   0.615   8.313   3.653  0.3202 -0.0279  0.0522
  156POPC   PO4 2235   0.857   8.575   3.414 -0.3667 -0.3651  0.0800
  156POPC   GL1 2236   0.801   8.836   3.863 -0.0223  0.1302  0.0164
  156POPC   GL2 2237   0.558   8.703   3.960  0.0809 -0.3653  0.1625
  156POPC   C1A 2238   0.888   8.870   4.351 -0.0436 -0.3330 -0.1740
  156POPC   D2A 2239   0.733   8.931   4.704 -0.1431 -0.0143  0.2806
  156POPC   C3A 2240   0.907   9.039   4.980 -0.1139  0.1232  0.0961
  156POPC   C4A 2241   0.941   9.452   5.072  0.1153 -0.0426  0.2406
  156POPC   C1B 2242   0.425   8.507   4.296 -0.1663 -0.2511 -0.1017
  156POPC   C2B 2243   0.476   8.391   4.712 -0.1108  0.1466 -0.0758
  156POPC   C3B 2244   0.450   8.387   5.122  0.0247 -0.0384  0.0931
  156POPC   C4B 2245   0.521   8.461   5.579  0.0843 -0.0671 -0.3276
  157POPC   NC3 2246   6.433   5.133   2.899 -0.2960 -0.1089  0.2132
  157POPC   PO4 2247   6.457   4.833   3.335 -0.0714 -0.0201  0.2797
  157POPC   GL1 2248   6.255   4.819   3.817 -0.1863 -0.1448 -0.0004
  157POPC   GL2 2249   6.260   4.517   3.878 -0.0360  0.2641  0.1903
  157POPC   C1A 2250   5.971   4.728   4.200  0.0228 -0.0681  0.2099
  157POPC   D2A 2251   5.664   5.062   4.386  0.0290  0.0355 -0.1039
  157POPC   C3A 2252   5.302   4.982   4.165  0.1441 -0.0212  0.0027
  157POPC   C4A 2253   5.369   4.896   3.713 -0.0500 -0.5397 -0.1045
  157POPC   C1B 2254   6.215   4.322   4.363 -0.1125  0.1287  0.3067
  157POPC   C2B 2255   6.343   4.149   4.764  0.2051  0.0921  0.0505
  157POPC   C3B 2256   6.449   4.270   5.163  0.3118 -0.0620 -0.3321
  157POPC   C4B 2257   6.337   4.411   5.536  0.4001  0.0520  0.1063
  158POPC   NC3 2258   8.789   5.653   3.190 -0.1762  0.1691 -0.1878
  158POPC   PO4 2259   8.367   5.409   3.269  0.1334  0.2588  0.3638
  158POPC   GL1 2260   8.218   5.625   3.633 -0.0549  0.2949 -0.2855
  158POPC   GL2 2261   8.197   5.353   3.794 -0.1713  0.0393  0.0739
  158POPC   C1A 2262   8.054   5.815   3.983  0.1516  0.0383 -0.1178
  158POPC   D2A 2263   7.874   6.122   4.245 -0.2336 -0.1836  0.0346
  158POPC   C3A 2264   7.401   6.166   4.346  0.1177 -0.0307  0.1319
  158POPC   C4A 2265   7.017   6.205   4.517 -0.2072  0.0882  0.0347
  158POPC   C1B 2266   8.070   5.268   4.194  0.1192  0.0549 -0.1621
  158POPC   C2B 2267   7.939   5.349   4.639  0.0263 -0.0731  0.2853
  158POPC   C3B 2268   7.719   5.478   4.911  0.0085 -0.1770 -0.1293
  158POPC   C4B 2269   7.528   5.728   5.250 -0.2553 -0.0322  0.2158
  159POPC   NC3 2270   7.993   4.388   3.201  0.1725  0.0073 -0.3476
  159POPC   PO4 2271   8.188   4.505   3.491 -0.1425 -0.3566  0.3151
  159POPC   GL1 2272   8.249   4.517   3.911  0.1438 -0.2052 -0.0233
  159POPC   GL2 2273   8.038   4.805   3.969  0.0868  0.1841 -0.3577
  159POPC   C1A 2274   8.193   4.229   4.229 -0.1360  0.0144 -0.2450
  159POPC   D2A 2275   8.168   4.267   4.728 -0.0520 -0.0670 -0.2645
  159POPC   C3A 2276   8.306   4.146   5.066 -0.3001  0.1149  0.0420
  159POPC   C4A 2277   8.116   4.312   5.467  0.0213  0.1486  0.0152
  159POPC   C1B 2278   8.209   4.804   4.372 -0.2660  0.0171 -0.2931
  159POPC   C2B 2279   8.209   4.973   4.666 -0.6080  0.2891  0.2337
  159POPC   C3B 2280   8.049   5.127   5.121 -0.4372 -0.1188  0.2240
  159POPC   C4B 2281   8.001   5.431   5.412  0.1395  0.2130 -0.1582
  160POPC   NC3 2282   4.850   0.014   3.696 -0.0115  0.1675 -0.1646
  160POPC   PO4 2283   4.629  -0.364   3.931  0.3983 -0.1538  0.2519
  160POPC   GL1 2284   4.395  -0.355   4.283 -0.0991 -0.0089  0.2025
  160POPC   GL2 2285   4.058  -0.425   4.114 -0.1533 -0.1403  0.1460
  160POPC   C1A 2286   4.153  -0.299   4.650  0.1935 -0.0621 -0.1387
  160POPC   D2A 2287   3.873  -0.194   5.013 -0.0193 -0.2649 -0.0120
  160POPC   C3A 2288   3.891  -0.462   5.354 -0.0481 -0.0148  0.0900
  160POPC   C4A 2289   3.604  -0.616   5.624  0.1834  0.2597 -0.0909
  160POPC   C1B 2290   3.762  -0.549   4.305 -0.1945 -0.1692  0.1931
  160POPC   C2B 2291   3.640  -0.638   4.744 -0.1720 -0.0571 -0.1364
  160POPC   C3B 2292   3.564  -0.710   5.043 -0.1284 -0.0373  0.2782
  160POPC   C4B 2293   3.327  -0.979   5.378  0.2746  0.0008 -0.1692
  161POPC   NC3 2294   9.282   2.683   3.920 -0.0494  0.1281 -0.0685
  161POPC   PO4 2295   9.665   2.874   3.850 -0.4000  0.0693 -0.0618
  161POPC   GL1 2296   9.900   2.970   4.250 -0.0519 -0.3158  0.1357
  161POPC   GL2 2297   9.788   3.307   4.380  0.1456 -0.1301 -0.1635
  161POPC   C1A 2298  10.008   3.036   4.779 -0.1810  0.0414 -0.4556
  161POPC   D2A 2299   9.837   3.209   5.088 -0.3695 -0.0149 -0.1414
  161POPC   C3A 2300  10.023   3.399   5.396  0.1477  0.1345  0.0315
  161POPC   C4A 2301  10.250   3.745   5.296  0.0052 -0.0124  0.2326
  161POPC   C1B 2302   9.727   3.578   4.694  0.2499  0.0480  0.0207
  161POPC   C2B 2303   9.769   3.715   5.087  0.2336 -0.1523  0.2381
  161POPC   C3B 2304   9.589   3.663   5.469 -0.0495  0.1470 -0.1046
  161POPC   C4B 2305   9.390   3.543   5.699  0.3395 -0.1818 -0.0665
  162POPC   NC3 2306   3.134   6.670   3.914  0.1221 -0.0298  0.4082
  162POPC   PO4 2307   3.125   6.384   4.304  0.2623  0.0643  0.1927
  162POPC   GL1 2308   2.945   6.795   4.376 -0.1909 -0.1117  0.2990
  162POPC   GL2 2309   2.865   6.858   4.748 -0.0560 -0.2576  0.0002
  162POPC   C1A 2310   2.722   7.277   4.406 -0.2077  0.1541  0.2089
  162POPC   D2A 2311   2.988   7.637   4.312  0.2607 -0.0769  0.1262
  162POPC   C3A 2312   3.083   7.983   4.640  0.2171 -0.1702  0.2856
  162POPC   C4A 2313   3.270   8.380   4.892 -0.0400 -0.3222  0.1271
  162POPC   C1B 2314   2.705   7.169   5.052  0.0329 -0.1371 -0.0310
  162POPC   C2B 2315   2.799   7.523   5.349  0.1155  0.2351 -0.0140
  162POPC   C3B 2316   2.611   7.870   5.546 -0.1162  0.2719 -0.3195
  162POPC   C4B 2317   2.320   8.188   5.812  0.0819  0.0379  0.1970
  163POPC   NC3 2318   5.539   5.303   3.190  0.1477  0.1581 -0.2254
  163POPC   PO4 2319   6.061   5.208   3.304 -0.1093 -0.0238 -0.2724
  163POPC   GL1 2320   6.178   5.297   3.666 -0.0983 -0.0459 -0.0698
  163POPC   GL2 2321   6.292   5.684   3.666  0.2677 -0.0766 -0.0535
  163POPC   C1A 2322   6.301   5.280   4.096 -0.0144  0.0434  0.0494
  163POPC   D2A 2323   6.149   5.072   4.577  0.2613  0.1740 -0.0353
  163POPC   C3A 2324   6.262   5.167   5.002  0.0039  0.2069 -0.0485
  163POPC   C4A 2325   6.368   5.132   5.379 -0.0778  0.0503  0.0795
  163POPC   C1B 2326   6.540   5.786   4.020  0.1515 -0.1094  0.0175
  163POPC   C2B 2327   6.598   6.040   4.306  0.1894  0.3215 -0.0739
  163POPC   C3B 2328   6.538   6.063   4.760  0.1215 -0.0418 -0.1474
  163POPC   C4B 2329   6.503   6.137   5.235  0.1238 -0.1844  0.2145
  164POPC   NC3 2330   0.706   4.688   3.938  0.0482  0.1045 -0.0699
  164POPC   PO4 2331   0.621   4.328   3.802  0.2915 -0.0983 -0.1859
  164POPC   GL1 2332   0.463   4.349   4.272 -0.1108 -0.1217  0.1838
  164POPC   GL2 2333   0.692   4.580   4.427 -0.0482 -0.1287 -0.2231
  164POPC   C1A 2334   0.274   4.500   4.565  0.0835 -0.2169  0.2475
  164POPC   D2A 2335   0.142   4.476   4.930 -0.4013  0.0061 -0.0585
  164POPC   C3A 2336   0.298   4.218   5.244 -0.1746 -0.0211 -0.1051
  164POPC   C4A 2337   0.418   4.344   5.622 -0.1759  0.1101  0.2355
  164POPC   C1B 2338   0.678   4.392   4.916 -0.0955  0.0502  0.3185
  164POPC   C2B 2339   0.750   4.487   5.276  0.0418 -0.1822  0.1024
  164POPC   C3B 2340   0.737   4.679   5.686  0.2746 -0.0255 -0.0681
  164POPC   C4B 2341   0.400   4.867   5.896 -0.1396  0.2084  0.1111
  165POPC   NC3 2342   2.595   3.955   3.494  0.3530 -0.1684 -0.2143
  165POPC   PO4 2343   2.323   3.869   3.852  0.3403 -0.0520  0.1997
  165POPC   GL1 2344   2.269   3.841   4.329  0.2725  0.0307  0.1268
  165POPC   GL2 2345   2.137   3.570   4.503 -0.2957 -0.2231 -0.0504
  165POPC   C1A 2346   2.211   4.158   4.673  0.0452 -0.0374  0.0311
  165POPC   D2A 2347   2.364   4.309   5.110 -0.1340 -0.0014  0.2544
  165POPC   C3A 2348   2.114   4.510   5.377 -0.0849  0.0372 -0.3716
  165POPC   C4A 2349   2.099   4.592   5.812  0.1316 -0.1411  0.1691
  165POPC   C1B 2350   2.394   3.771   4.944 -0.2436 -0.2198  0.0862
  165POPC   C2B 2351   2.711   3.546   5.116 -0.0947 -0.1604 -0.2688
  165POPC   C3B 2352   2.875   3.425   5.539 -0.3294 -0.0554  0.1202
  165POPC   C4B 2353   2.793   3.290   5.905 -0.2800  0.0063  0.0377
  166POPC   NC3 2354   6.757   5.862   2.930  0.2261 -0.2520  0.0385
  166POPC   PO4 2355   7.127   6.080   3.202 -0.1040 -0.0463  0.4456
  166POPC   GL1 2356   7.194   6.313   3.560  0.2472 -0.0638 -0.1450
  166POPC   GL2 2357   7.345   6.147   3.761  0.0057 -0.0703  0.2746
  166POPC   C1A 2358   7.136   6.543   3.972  0.0616  0.2063 -0.1925
  166POPC   D2A 2359   6.898   6.665   4.332  0.0628  0.2681  0.0739
  166POPC   C3A 2360   6.604   6.522   4.603  0.1375  0.1323 -0.1411
  166POPC   C4A 2361   6.281   6.492   4.914  0.5110 -0.0499  0.2197
  166POPC   C1B 2362   6.942   5.991   3.857 -0.2024 -0.2370  0.0975
  166POPC   C2B 2363   6.618   6.348   3.918 -0.1381  0.0939 -0.0384
  166POPC   C3B 2364   6.450   6.578   4.191 -0.1133 -0.0798  0.1048
  166POPC   C4B 2365   6.148   6.701   4.502 -0.0419 -0.3062 -0.2515
  167POPC   NC3 2366   0.431   6.641   2.870 -0.1378 -0.5186  0.0074
  167POPC   PO4 2367   0.491   6.854   3.250 -0.2079  0.0919  0.1489
  167POPC   GL1 2368   0.499   7.078   3.663  0.3206  0.2682 -0.2926
  167POPC   GL2 2369   0.744   7.204   3.529  0.6015 -0.3760 -0.0275
  167POPC   C1A 2370   0.461   7.077   4.087  0.1057  0.0240  0.4238
  167POPC   D2A 2371   0.314   6.694   4.219 -0.0386 -0.0018  0.2145
  167POPC   C3A 2372   0.112   6.668   4.617 -0.2941  0.0972 -0.3037
  167POPC   C4A 2373  -0.049   6.423   5.029 -0.3214 -0.1636 -0.1662
  167POPC   C1B 2374   0.962   7.146   3.980 -0.2309 -0.3611  0.1154
  167POPC   C2B 2375   1.332   7.404   4.274  0.1017  0.3219  0.1631
  167POPC   C3B 2376   1.464   7.436   4.644 -0.0961  0.0026 -0.2273
  167POPC   C4B 2377   1.667   7.218   5.024 -0.1503  0.1442 -0.3143
  168POPC   NC3 2378   7.432   4.814   3.605 -0.4067 -0.1168 -0.0251
  168POPC   PO4 2379   7.234   5.304   3.548 -0.2984  0.0894  0.1136
  168POPC   GL1 2380   7.140   5.137   3.895  0.0390  0.1981 -0.2503
  168POPC   GL2 2381   6.909   5.418   3.962 -0.0340  0.1138  0.2240
  168POPC   C1A 2382   7.062   4.995   4.315 -0.1257  0.2149  0.4466
  168POPC   D2A 2383   6.748   5.199   4.485  0.0518  0.0609 -0.0622
  168POPC   C3A 2384   6.827   5.644   4.721  0.0278 -0.2444  0.1915
  168POPC   C4A 2385   7.031   5.936   5.055  0.1445 -0.2744  0.0601
  168POPC   C1B 2386   7.148   5.719   4.276 -0.1402 -0.3134 -0.3962
  168POPC   C2B 2387   7.316   5.663   4.703  0.0948 -0.0294 -0.0189
  168POPC   C3B 2388   7.215   5.404   4.984 -0.0792 -0.1575  0.2105
  168POPC   C4B 2389   7.146   4.986   5.257  0.2413  0.1720  0.1777
  169POPC   NC3 2390   2.193   4.631   3.553 -0.1439  0.2097 -0.0544
  169POPC   PO4 2391   2.471   4.349   3.819  0.3962  0.0966  0.2977
  169POPC   GL1 2392   2.568   4.451   4.187  0.0031  0.3334  0.0343
  169POPC   GL2 2393   2.500   4.671   4.468  0.3866 -0.1659 -0.0566
  169POPC   C1A 2394   2.856   4.300   4.524  0.2273  0.0616 -0.0782
  169POPC   D2A 2395   3.177   4.324   4.826 -0.0209 -0.0107 -0.0814
  169POPC   C3A 2396   3.589   4.207   4.785 -0.2923 -0.0362  0.1073
  169POPC   C4A 2397   3.888   4.167   5.109  0.1403 -0.0846 -0.1727
  169POPC   C1B 2398   2.751   4.617   4.890  0.0121 -0.1111  0.3181
  169POPC   C2B 2399   2.954   4.428   5.222 -0.2546  0.0782 -0.0728
  169POPC   C3B 2400   3.161   4.109   5.313 -0.1035 -0.0916  0.0306
  169POPC   C4B 2401   3.509   3.925   5.233 -0.2601 -0.1238 -0.0105
  170POPC   NC3 2402   5.773   3.379   3.242  0.2626  0.0844  0.0678
  170POPC   PO4 2403   5.728   3.211   3.774  0.0030 -0.0722  0.0017
  170POPC   GL1 2404   5.524   3.261   4.209 -0.1683  0.0619 -0.3155
  170POPC   GL2 2405   5.599   3.003   4.180  0.0057  0.3875 -0.1515
  170POPC   C1A 2406   5.558   3.217   4.650  0.1219 -0.0056 -0.1723
  170POPC   D2A 2407   5.637   3.212   5.060 -0.1385  0.0546  0.0740
  170POPC   C3A 2408   5.591   3.403   5.461 -0.1011 -0.1855 -0.1027
  170POPC   C4A 2409   5.680   3.816   5.590  0.1922  0.3780  0.2512
  170POPC   C1B 2410   5.334   2.807   4.445 -0.2799  0.2867 -0.1421
  170POPC   C2B 2411   5.200   2.609   4.791  0.0045  0.1317  0.1969
  170POPC   C3B 2412   5.360   2.500   5.155 -0.2538 -0.1727  0.0797
  170POPC   C4B 2413   5.558   2.382   5.585  0.3034  0.2232  0.2719
  171POPC   NC3 2414   6.331   0.654   3.677 -0.0525 -0.0458 -0.0728
  171POPC   PO4 2415   6.110   0.403   3.866  0.2899  0.0455 -0.4226
  171POPC   GL1 2416   6.190   0.499   4.297  0.1974  0.2622  0.0650
  171POPC   GL2 2417   6.457   0.755   4.216 -0.3449  0.0462 -0.0225
  171POPC   C1A 2418   6.410   0.592   4.670 -0.2317 -0.1996 -0.3785
  171POPC   D2A 2419   6.717   0.505   5.033  0.3591  0.3300  0.0055
  171POPC   C3A 2420   6.764   0.339   5.373  0.1522 -0.0027 -0.1638
  171POPC   C4A 2421   6.522   0.050   5.676 -0.0415  0.2346  0.3511
  171POPC   C1B 2422   6.832   0.541   4.278 -0.0508 -0.1454 -0.2002
  171POPC   C2B 2423   7.036   0.364   4.681  0.3596  0.1001  0.0838
  171POPC   C3B 2424   7.158  -0.098   4.730 -0.0339 -0.0195 -0.0325
  171POPC   C4B 2425   7.146  -0.536   4.644 -0.3522  0.1040  0.1623
  172POPC   NC3 2426   2.554   9.178   3.656 -0.0739  0.1067  0.2264
  172POPC   PO4 2427   2.287   9.586   3.650 -0.3136 -0.2519 -0.0354
  172POPC   GL1 2428   2.158   9.369   4.099 -0.0157  0.2754  0.0122
  172POPC   GL2 2429   1.868   9.390   4.025 -0.0296  0.2950 -0.1451
  172POPC   C1A 2430   2.363   9.325   4.450 -0.4666 -0.0745  0.0236
  172POPC   D2A 2431   2.558   9.034   4.870  0.1018 -0.1253 -0.1196
  172POPC   C3A 2432   2.785   9.045   5.156  0.4665 -0.0055 -0.0069
  172POPC   C4A 2433   2.902   9.116   5.563  0.1467 -0.1340 -0.2788
  172POPC   C1B 2434   1.852   9.439   4.536 -0.0370  0.2693 -0.1311
  172POPC   C2B 2435   1.812   9.680   4.898 -0.1720 -0.1832  0.1394
  172POPC   C3B 2436   1.875  10.027   5.242 -0.3711  0.0155  0.3087
  172POPC   C4B 2437   1.803  10.273   5.687  0.4942 -0.0206 -0.0232
  173POPC   NC3 2438   8.152   9.021   3.119 -0.1873  0.1702 -0.1631
  173POPC   PO4 2439   7.826   9.163   3.389 -0.0542  0.1245 -0.1308
  173POPC   GL1 2440   7.886   9.040   3.809  0.0795 -0.0816 -0.0034
  173POPC   GL2 2441   8.146   8.817   4.015  0.1035  0.1933  0.1280
  173POPC   C1A 2442   7.699   9.097   4.206 -0.1225 -0.2221 -0.1363
  173POPC   D2A 2443   7.956   9.218   4.520 -0.0764 -0.3081  0.1127
  173POPC   C3A 2444   8.083   8.883   4.835  0.2975  0.3829  0.1226
  173POPC   C4A 2445   8.122   8.778   5.215 -0.0636  0.0973  0.1275
  173POPC   C1B 2446   8.106   8.564   4.406  0.0037  0.1250  0.0316
  173POPC   C2B 2447   7.899   8.382   4.818  0.0475  0.2572 -0.1526
  173POPC   C3B 2448   7.685   7.898   4.902 -0.0480 -0.3498 -0.0297
  173POPC   C4B 2449   7.304   7.785   4.769 -0.2575 -0.1266  0.2419
  174POPC   NC3 2450   4.851   9.132   3.913 -0.1082  0.2261  0.0271
  174POPC   PO4 2451   5.372   9.033   3.854 -0.0608  0.2679  0.1448
  174POPC   GL1 2452   5.480   9.339   4.125  0.0531  0.0396 -0.1025
  174POPC   GL2 2453   5.270   9.519   4.188  0.2633  0.2718 -0.0129
  174POPC   C1A 2454   5.461   9.261   4.586  0.0219 -0.3622  0.1000
  174POPC   D2A 2455   5.616   8.921   4.993 -0.0922 -0.2814  0.1697
  174POPC   C3A 2456   5.691   8.515   4.931  0.1518  0.0931 -0.3855
  174POPC   C4A 2457   5.752   8.004   4.892 -0.1802 -0.0866 -0.1057
  174POPC   C1B 2458   4.863   9.403   4.547 -0.0655  0.3266 -0.2448
  174POPC   C2B 2459   4.646   9.492   4.919 -0.2385  0.2115  0.0773
  174POPC   C3B 2460   4.387   9.604   5.127  0.2741 -0.2231 -0.3929
  174POPC   C4B 2461   4.201   9.891   5.444  0.3805 -0.0278 -0.0517
  175POPC   NC3 2462   6.713   4.405   3.231  0.2668  0.0129  0.3794
  175POPC   PO4 2463   7.145   4.443   3.430 -0.1718 -0.1357 -0.0856
  175POPC   GL1 2464   7.166   4.454   3.863  0.0929 -0.1933 -0.0451
  175POPC   GL2 2465   7.200   4.184   4.071  0.1912 -0.4896 -0.2568
  175POPC   C1A 2466   6.825   4.519   4.058 -0.0513  0.0461  0.1759
  175POPC   D2A 2467   6.523   4.785   4.348  0.0975 -0.0617 -0.1192
  175POPC   C3A 2468   6.506   4.682   4.750  0.0072  0.0886  0.2027
  175POPC   C4A 2469   6.506   4.761   5.129  0.3294  0.0388  0.2625
  175POPC   C1B 2470   7.150   4.530   4.478  0.1933  0.2542 -0.0889
  175POPC   C2B 2471   6.999   4.827   4.807 -0.3659  0.1686 -0.1637
  175POPC   C3B 2472   6.747   5.208   4.955  0.0542 -0.0783 -0.1368
  175POPC   C4B 2473   6.570   5.590   5.226  0.1862 -0.3372  0.0355
  176POPC   NC3 2474   5.795   8.095   3.222  0.0624 -0.1865  0.0476
  176POPC   PO4 2475   5.680   8.167   3.768 -0.1250  0.1667  0.2619
  176POPC   GL1 2476   5.825   8.025   4.065 -0.0710 -0.0653 -0.0588
  176POPC   GL2 2477   6.150   7.990   4.158 -0.0208  0.1357  0.0927
  176POPC   C1A 2478   5.785   7.778   4.388  0.0340 -0.2183  0.2535
  176POPC   D2A 2479   5.731   7.535   4.712  0.1137  0.2737  0.0943
  176POPC   C3A 2480   5.546   7.688   5.173  0.2198  0.3276  0.2519
  176POPC   C4A 2481   5.256   7.750   5.419  0.0479  0.2746 -0.0572
  176POPC   C1B 2482   6.302   7.879   4.563  0.1641 -0.2654 -0.1721
  176POPC   C2B 2483   6.162   7.706   4.956 -0.0482  0.0001 -0.1702
  176POPC   C3B 2484   6.072   7.625   5.345  0.0671 -0.0441 -0.1732
  176POPC   C4B 2485   6.360   7.588   5.697 -0.1209  0.2856  0.2337
  177POPC   NC3 2486   4.188   2.102   4.052  0.2285 -0.1167 -0.0224
  177POPC   PO4 2487   3.888   2.432   3.994  0.0500  0.0684 -0.2051
  177POPC   GL1 2488   3.689   2.069   4.289 -0.0841 -0.3594 -0.2334
  177POPC   GL2 2489   3.602   2.413   4.454 -0.2586  0.1730 -0.2088
  177POPC   C1A 2490   3.712   1.906   4.683 -0.1775 -0.2691  0.0822
  177POPC   D2A 2491   3.774   2.126   5.153 -0.4256  0.2571 -0.1994
  177POPC   C3A 2492   4.181   2.336   5.338  0.2012  0.3160 -0.0322
  177POPC   C4A 2493   4.317   2.607   5.017 -0.1777 -0.3063  0.1084
  177POPC   C1B 2494   3.907   2.528   4.817  0.0072  0.2437  0.1849
  177POPC   C2B 2495   3.726   2.593   5.208 -0.0301  0.2556  0.1461
  177POPC   C3B 2496   3.757   2.618   5.693 -0.2925 -0.0820  0.0966
  177POPC   C4B 2497   3.647   2.352   6.102 -0.0811  0.0345  0.1839
  178POPC   NC3 2498   2.936   2.662   3.716  0.1928  0.3819 -0.2454
  178POPC   PO4 2499   3.328   2.723   4.142  0.2062  0.2953 -0.2802
  178POPC   GL1 2500   3.228   2.752   4.485  0.1798  0.2135  0.1002
  178POPC   GL2 2501   3.057   3.014   4.498  0.3032  0.1086 -0.1832
  178POPC   C1A 2502   3.316   2.660   4.860 -0.2659 -0.2317 -0.1073
  178POPC   D2A 2503   3.230   2.517   5.242 -0.0674 -0.1612 -0.2283
  178POPC   C3A 2504   3.378   2.201   5.607  0.0688  0.1554 -0.0401
  178POPC   C4A 2505   2.996   1.974   5.539  0.1237  0.2878 -0.0827
  178POPC   C1B 2506   2.973   3.124   4.888 -0.2777  0.1187 -0.0193
  178POPC   C2B 2507   2.877   3.018   5.275  0.2437 -0.0650 -0.0802
  178POPC   C3B 2508   3.026   2.886   5.690  0.2578 -0.2760 -0.3501
  178POPC   C4B 2509   3.066   2.525   6.002 -0.2918  0.0914 -0.0051
  179POPC   NC3 2510   0.329   4.927   3.620  0.0912 -0.1197 -0.0145
  179POPC   PO4 2511  -0.117   5.069   3.508  0.0111 -0.4614 -0.0490
  179POPC   GL1 2512  -0.066   5.137   3.955  0.0149 -0.0051 -0.2500
  179POPC   GL2 2513   0.120   5.177   4.142  0.2145 -0.2356 -0.1096
  179POPC   C1A 2514  -0.249   5.552   4.128  0.0615  0.0670 -0.0761
  179POPC   D2A 2515  -0.181   5.788   4.360 -0.3508  0.0803 -0.1543
  179POPC   C3A 2516  -0.398   5.693   4.824  0.0406  0.2065 -0.2324
  179POPC   C4A 2517  -0.224   5.990   5.197 -0.0893  0.0764  0.0859
  179POPC   C1B 2518   0.278   5.037   4.533 -0.0898  0.0038  0.1346
  179POPC   C2B 2519   0.055   5.034   5.000  0.1974 -0.0296  0.0583
  179POPC   C3B 2520   0.061   5.271   5.354  0.1733  0.0237  0.2371
  179POPC   C4B 2521   0.214   5.252   5.702 -0.1321 -0.2853 -0.4225
  180POPC   NC3 2522   8.287   1.448   3.950  0.0619 -0.2090  0.0899
  180POPC   PO4 2523   8.202   1.932   3.848  0.1949 -0.1290 -0.2577
  180POPC   GL1 2524   8.344   1.877   4.298 -0.0576 -0.1139  0.0334
  180POPC   GL2 2525   8.739   2.067   4.385 -0.0493 -0.2212 -0.1720
  180POPC   C1A 2526   8.230   1.926   4.674  0.0889 -0.0331 -0.0127
  180POPC   D2A 2527   8.390   1.845   5.177  0.3223 -0.2016  0.2716
  180POPC   C3A 2528   8.398   2.126   5.549 -0.2524  0.1339  0.0421
  180POPC   C4A 2529   8.420   2.037   5.992 -0.0542 -0.0259 -0.2323
  180POPC   C1B 2530   8.675   2.061   4.820 -0.1242 -0.1992  0.4106
  180POPC   C2B 2531   8.834   2.068   5.206  0.1942  0.0918  0.1986
  180POPC   C3B 2532   9.251   1.888   5.395  0.0035 -0.1297  0.0383
  180POPC   C4B 2533   9.531   1.757   5.750 -0.3171  0.0617  0.1119
  181POPC   NC3 2534   3.445   5.260   3.542  0.1963  0.2480  0.2026
  181POPC   PO4 2535   3.829   5.280   3.665 -0.1395  0.1162 -0.0240
  181POPC   GL1 2536   4.193   5.308   3.807 -0.0057  0.0496 -0.3461
  181POPC   GL2 2537   4.296   5.007   3.589 -0.1502  0.0315 -0.1855
  181POPC   C1A 2538   4.584   5.307   3.969  0.2184 -0.1377 -0.0230
  181POPC   D2A 2539   4.772   5.041   4.208  0.1616 -0.0337  0.3376
  181POPC   C3A 2540   4.635   4.914   4.596  0.2138  0.0932  0.0784
  181POPC   C4A 2541   4.404   4.842   4.953  0.0096  0.1442 -0.1632
  181POPC   C1B 2542   4.359   4.784   3.994 -0.1753 -0.2472 -0.2536
  181POPC   C2B 2543   4.363   4.601   4.363 -0.2783 -0.2512  0.0137
  181POPC   C3B 2544   4.667   4.319   4.583 -0.0511 -0.2429 -0.0613
  181POPC   C4B 2545   4.729   4.435   5.012  0.2019 -0.1039 -0.0804
  182POPC   NC3 2546   5.864   0.098   3.662  0.0601  0.3670 -0.1808
  182POPC   PO4 2547   5.352   0.091   3.686  0.2488  0.0147 -0.2075
  182POPC   GL1 2548   5.338   0.093   4.170  0.2018  0.0585  0.3846
  182POPC   GL2 2549   5.119   0.396   4.288  0.0144 -0.3063 -0.0504
  182POPC   C1A 2550   5.527  -0.139   4.519 -0.1688 -0.0172  0.2091
  182POPC   D2A 2551   5.624  -0.170   4.939  0.2910  0.0139 -0.0752
  182POPC   C3A 2552   5.839   0.066   5.275  0.0283 -0.1942 -0.0886
  182POPC   C4A 2553   6.188   0.327   5.253 -0.1896 -0.2256 -0.0255
  182POPC   C1B 2554   5.059   0.414   4.691 -0.2610  0.3978 -0.3508
  182POPC   C2B 2555   5.067   0.650   5.037  0.1013 -0.0465  0.3156
  182POPC   C3B 2556   4.996   0.868   5.503  0.1316  0.2243  0.1495
  182POPC   C4B 2557   5.187   1.031   5.858 -0.1977 -0.1317 -0.3070
  183POPC   NC3 2558   5.729   0.948   3.881 -0.3607 -0.2034 -0.0251
  183POPC   PO4 2559   5.709   1.372   3.689 -0.0640 -0.1188 -0.2418
  183POPC   GL1 2560   5.954   1.384   4.153 -0.4382  0.2891 -0.1157
  183POPC   GL2 2561   6.040   0.988   4.294  0.2307 -0.3523 -0.1769
  183POPC   C1A 2562   6.111   1.483   4.668  0.0194 -0.2767  0.1459
  183POPC   D2A 2563   6.140   1.671   5.062 -0.3254 -0.0881 -0.0875
  183POPC   C3A 2564   6.373   1.314   5.251 -0.1627 -0.0435 -0.2041
  183POPC   C4A 2565   6.722   0.980   5.150  0.0359 -0.0671  0.1955
  183POPC   C1B 2566   5.790   1.122   4.633 -0.2569 -0.2534 -0.3150
  183POPC   C2B 2567   5.898   1.215   5.038  0.0417  0.0865 -0.2552
  183POPC   C3B 2568   5.934   1.385   5.495 -0.0258 -0.0980 -0.1628
  183POPC   C4B 2569   5.990   1.188   5.885 -0.0213 -0.1436 -0.0957
  184POPC   NC3 2570   3.187   8.633   3.230 -0.3476 -0.4217  0.2567
  184POPC   PO4 2571   2.845   9.061   3.296 -0.0247  0.1920  0.0369
  184POPC   GL1 2572   3.097   9.056   3.682  0.0119  0.0583 -0.2188
  184POPC   GL2 2573   3.376   9.269   3.880  0.0384  0.0672  0.2918
  184POPC   C1A 2574   3.015   8.731   3.938  0.2243 -0.4573  0.0165
  184POPC   D2A 2575   2.854   8.381   3.921  0.1476 -0.0516 -0.1144
  184POPC   C3A 2576   3.108   8.056   4.096 -0.0578 -0.1012  0.1163
  184POPC   C4A 2577   3.422   7.932   4.295  0.3185 -0.1714  0.2560
  184POPC   C1B 2578   3.232   9.360   4.342  0.0428 -0.1853 -0.2153
  184POPC   C2B 2579   3.071   9.282   4.763 -0.0284 -0.0186  0.3542
  184POPC   C3B 2580   3.126   9.428   5.201 -0.0186 -0.0043  0.2104
  184POPC   C4B 2581   3.021   9.838   5.419 -0.0718  0.2552 -0.2542
  185POPC   NC3 2582   9.276   5.855   3.337 -0.0750 -0.2837 -0.0045
  185POPC   PO4 2583   8.985   6.129   3.147 -0.1080 -0.2056  0.0955
  185POPC   GL1 2584   9.081   6.289   3.586  0.2677 -0.0869  0.1298
  185POPC   GL2 2585   9.057   6.611   3.641 -0.1918 -0.2243  0.2624
  185POPC   C1A 2586   8.989   6.312   4.068  0.0085 -0.0408 -0.1120
  185POPC   D2A 2587   9.089   6.384   4.436 -0.2073 -0.0475  0.1442
  185POPC   C3A 2588   8.910   6.719   4.761 -0.0769  0.0302  0.1473
  185POPC   C4A 2589   9.243   6.857   5.101  0.1481  0.2764 -0.1303
  185POPC   C1B 2590   9.335   6.710   4.101 -0.0269  0.0449 -0.1902
  185POPC   C2B 2591   9.420   6.782   4.522  0.0988 -0.4951 -0.2533
  185POPC   C3B 2592   9.697   6.817   4.879  0.1270 -0.0958 -0.3054
  185POPC   C4B 2593   9.793   6.957   5.267 -0.1885 -0.0057  0.4517
  186POPC   NC3 2594   2.768   7.542   3.801 -0.1096  0.1213 -0.0105
  186POPC   PO4 2595   2.474   7.530   3.531 -0.0058 -0.0745  0.0753
  186POPC   GL1 2596   2.401   7.954   3.782 -0.1095 -0.2579  0.0618
  186POPC   GL2 2597   2.043   7.935   3.789  0.2744  0.0266 -0.3116
  186POPC   C1A 2598   2.539   8.039   4.123  0.2001 -0.0036  0.1954
  186POPC   D2A 2599   2.490   7.863   4.510  0.0106  0.2958 -0.5040
  186POPC   C3A 2600   2.708   8.100   4.894  0.0586  0.1563  0.1091
  186POPC   C4A 2601   3.018   8.003   5.153  0.2062 -0.0708  0.0751
  186POPC   C1B 2602   2.148   7.693   4.190  0.4512 -0.1512 -0.0711
  186POPC   C2B 2603   2.006   7.650   4.683  0.1310 -0.1009 -0.1076
  186POPC   C3B 2604   1.936   7.616   5.158  0.0602 -0.4807  0.0682
  186POPC   C4B 2605   1.778   7.460   5.508 -0.0168 -0.0677  0.3045
  187POPC   NC3 2606   3.878   4.099   3.566  0.0403 -0.2235 -0.2934
  187POPC   PO4 2607   3.537   4.249   3.802 -0.0733  0.1179  0.3510
  187POPC   GL1 2608   3.550   4.182   4.158  0.0518 -0.0631  0.0314
  187POPC   GL2 2609   3.259   4.098   4.358 -0.0522  0.0821 -0.4388
  187POPC   C1A 2610   3.717   3.859   4.514 -0.0216  0.1554  0.3555
  187POPC   D2A 2611   3.827   3.700   4.933  0.0901  0.2657 -0.2833
  187POPC   C3A 2612   3.629   3.376   5.287 -0.1804 -0.0604 -0.1675
  187POPC   C4A 2613   3.468   2.978   5.350 -0.1435 -0.0220  0.0284
  187POPC   C1B 2614   3.250   3.808   4.774 -0.1398 -0.1173  0.3350
  187POPC   C2B 2615   3.221   3.561   5.140  0.2289  0.2043 -0.0618
  187POPC   C3B 2616   3.277   3.672   5.548  0.2884  0.1809  0.0144
  187POPC   C4B 2617   3.168   3.612   5.962  0.2556 -0.0934 -0.1906
  188POPC   NC3 2618   9.064   0.076   3.623 -0.0014  0.3416 -0.0176
  188POPC   PO4 2619   9.034  -0.370   3.588 -0.1936 -0.0034 -0.1003
  188POPC   GL1 2620   9.240  -0.346   3.895  0.2721 -0.2205  0.1718
  188POPC   GL2 2621   9.535  -0.578   3.911 -0.0185  0.0882  0.1298
  188POPC   C1A 2622   9.025  -0.209   4.311 -0.1223 -0.0351  0.2061
  188POPC   D2A 2623   8.765  -0.342   4.675 -0.0029  0.0630  0.0937
  188POPC   C3A 2624   8.854  -0.255   5.078  0.0349  0.0011  0.0657
  188POPC   C4A 2625   8.709  -0.325   5.453  0.0136  0.0004  0.0121
  188POPC   C1B 2626   9.514  -0.503   4.352  0.1955 -0.2180  0.0880
  188POPC   C2B 2627   9.416  -0.588   4.822  0.1198  0.0098 -0.0755
  188POPC   C3B 2628   9.307  -0.563   5.207  0.3309  0.1329 -0.0587
  188POPC   C4B 2629   9.212  -0.244   5.451 -0.0558 -0.3643 -0.2072
  189POPC   NC3 2630   8.460   4.950   3.503  0.2729 -0.0968  0.3039
  189POPC   PO4 2631   8.688   4.485   3.728  0.1019  0.2880  0.0027
  189POPC   GL1 2632   8.833   4.507   3.996 -0.0300  0.3705  0.1091
  189POPC   GL2 2633   9.016   4.792   4.011  0.2951 -0.3420 -0.2365
  189POPC   C1A 2634   8.621   4.526   4.499 -0.2227 -0.0519 -0.2049
  189POPC   D2A 2635   8.602   4.582   4.977 -0.2643  0.0003  0.2859
  189POPC   C3A 2636   8.631   4.541   5.383  0.0720 -0.2447 -0.1730
  189POPC   C4A 2637   8.834   4.534   5.821 -0.0348 -0.0247 -0.1161
  189POPC   C1B 2638   8.981   4.915   4.467 -0.1021 -0.2101  0.0786
  189POPC   C2B 2639   8.676   5.079   4.863 -0.0223  0.0574 -0.0986
  189POPC   C3B 2640   8.545   5.148   5.196 -0.2852  0.2165 -0.0484
  189POPC   C4B 2641   8.466   5.368   5.609 -0.1957  0.1892  0.2305
  190POPC   NC3 2642   6.901   8.801   3.144 -0.0071  0.3481  0.0102
  190POPC   PO4 2643   6.715   8.870   3.569  0.0477  0.1649  0.0757
  190POPC   GL1 2644   6.748   8.791   3.951  0.0918  0.1686 -0.0821
  190POPC   GL2 2645   6.442   8.891   4.078 -0.0910 -0.1464 -0.3943
  190POPC   C1A 2646   6.706   8.872   4.492  0.0134 -0.2752  0.0674
  190POPC   D2A 2647   6.632   8.662   4.883  0.2512  0.3045 -0.0621
  190POPC   C3A 2648   6.520   8.572   5.340  0.1157  0.1834  0.0011
  190POPC   C4A 2649   6.317   8.197   5.642  0.1371  0.3693  0.1756
  190POPC   C1B 2650   6.138   8.889   4.484 -0.1849 -0.0599 -0.2198
  190POPC   C2B 2651   6.102   8.891   4.902  0.1490 -0.3083  0.2459
  190POPC   C3B 2652   6.002   8.704   5.281 -0.5044  0.1181  0.0938
  190POPC   C4B 2653   5.688   8.963   5.514  0.2907  0.0549 -0.0396
  191POPC   NC3 2654   8.385   2.335   3.689  0.0035 -0.0305  0.1061
  191POPC   PO4 2655   8.372   2.881   3.750 -0.2041 -0.4608  0.2747
  191POPC   GL1 2656   8.517   2.957   4.099 -0.0323  0.0312 -0.0976
  191POPC   GL2 2657   8.370   3.105   4.337  0.1627  0.1809 -0.0025
  191POPC   C1A 2658   8.702   2.612   4.473  0.1029  0.1452  0.0951
  191POPC   D2A 2659   8.661   2.679   4.903 -0.0963  0.2569  0.3861
  191POPC   C3A 2660   9.009   2.586   5.104  0.1849 -0.0944 -0.0142
  191POPC   C4A 2661   9.041   2.364   5.603  0.2950  0.0014  0.2583
  191POPC   C1B 2662   8.336   3.151   4.779  0.0423 -0.1438  0.1552
  191POPC   C2B 2663   8.319   2.985   5.211 -0.2033  0.0237  0.0735
  191POPC   C3B 2664   8.195   2.941   5.680  0.1564  0.3176  0.0323
  191POPC   C4B 2665   8.387   3.032   6.038 -0.2776 -0.4292 -0.1818
  192POPC   NC3 2666   7.462   3.993   3.704 -0.0456 -0.1232  0.1207
  192POPC   PO4 2667   7.641   4.375   3.526 -0.0709 -0.3510  0.0340
  192POPC   GL1 2668   7.656   4.406   4.013 -0.0419  0.2798  0.2605
  192POPC   GL2 2669   7.722   4.029   4.178 -0.4483 -0.0403 -0.0605
  192POPC   C1A 2670   7.569   4.322   4.544 -0.3150  0.2413 -0.0125
  192POPC   D2A 2671   7.787   4.237   5.037  0.3836 -0.2967  0.2366
  192POPC   C3A 2672   7.690   4.468   5.360 -0.1821  0.0069  0.3232
  192POPC   C4A 2673   7.688   4.921   5.340  0.0026  0.0490  0.0497
  192POPC   C1B 2674   7.794   3.929   4.552  0.1535  0.1869 -0.2264
  192POPC   C2B 2675   7.726   3.729   4.917 -0.1264 -0.4314  0.0934
  192POPC   C3B 2676   7.917   3.818   5.246  0.0038 -0.0780  0.4339
  192POPC   C4B 2677   7.730   4.003   5.594 -0.2265  0.1415  0.1062
  193POPC   NC3 2678   8.124   8.655   3.519  0.1712 -0.0960 -0.0421
  193POPC   PO4 2679   8.507   8.687   3.274  0.0464 -0.0351  0.1462
  193POPC   GL1 2680   8.597   8.580   3.713  0.0098  0.2103  0.2395
  193POPC   GL2 2681   8.761   8.862   3.776 -0.1549 -0.1078  0.1616
  193POPC   C1A 2682   9.019   8.599   4.083 -0.0645  0.0863 -0.0263
  193POPC   D2A 2683   9.348   8.930   4.196 -0.1535 -0.0290  0.0802
  193POPC   C3A 2684   9.589   8.966   4.569  0.0224  0.1435 -0.0656
  193POPC   C4A 2685   9.549   8.734   4.911 -0.2238 -0.3163  0.2317
  193POPC   C1B 2686   8.623   8.858   4.117  0.1466 -0.1373  0.1349
  193POPC   C2B 2687   8.494   9.071   4.570  0.3149  0.1548  0.0479
  193POPC   C3B 2688   8.392   9.309   4.886 -0.1801  0.1591 -0.0353
  193POPC   C4B 2689   8.346   9.321   5.322  0.3128 -0.4882 -0.1766
  194POPC   NC3 2690   1.129   1.609   4.002 -0.0850 -0.0336  0.2444
  194POPC   PO4 2691   0.734   1.445   4.063 -0.0686 -0.1674 -0.1160
  194POPC   GL1 2692   0.876   1.270   4.440 -0.1622  0.0794  0.6250
  194POPC   GL2 2693   1.171   1.299   4.451 -0.2320  0.0151 -0.3574
  194POPC   C1A 2694   0.757   1.190   4.800  0.0633  0.2787  0.1634
  194POPC   D2A 2695   0.938   0.970   5.180  0.2829  0.0462 -0.1172
  194POPC   C3A 2696   0.823   1.024   5.686 -0.0137 -0.0256  0.0120
  194POPC   C4A 2697   0.526   0.920   5.982 -0.0234  0.0945 -0.0852
  194POPC   C1B 2698   1.457   1.171   4.706  0.4573  0.0064  0.0218
  194POPC   C2B 2699   1.748   1.219   5.071 -0.1952 -0.0407 -0.0514
  194POPC   C3B 2700   1.852   1.388   5.454 -0.0033 -0.0243 -0.1299
  194POPC   C4B 2701   2.170   1.469   5.832  0.1377  0.2172  0.0910
  195POPC   NC3 2702   7.026   3.227   4.126 -0.2693  0.1369  0.0718
  195POPC   PO4 2703   7.310   3.333   3.799 -0.4570  0.2280  0.1283
  195POPC   GL1 2704   7.400   3.624   4.108  0.0579 -0.0511  0.1436
  195POPC   GL2 2705   7.581   3.493   4.282  0.2628 -0.0377  0.3411
  195POPC   C1A 2706   7.256   3.916   4.459 -0.3018 -0.0475 -0.0731
  195POPC   D2A 2707   7.289   4.012   4.796  0.0580 -0.0470  0.2084
  195POPC   C3A 2708   7.323   4.054   5.247  0.0500 -0.0763  0.0911
  195POPC   C4A 2709   7.171   3.808   5.627  0.1056  0.0559  0.1952
  195POPC   C1B 2710   7.407   3.411   4.633  0.2616  0.1418  0.0916
  195POPC   C2B 2711   7.274   3.519   5.019 -0.1883  0.0864  0.1341
  195POPC   C3B 2712   7.504   3.558   5.418 -0.3657  0.1128 -0.0470
  195POPC   C4B 2713   7.533   3.600   5.933  0.0588 -0.0940  0.0983
  196POPC   NC3 2714   7.140   2.172   3.170  0.0147  0.0199  0.2456
  196POPC   PO4 2715   7.048   2.286   3.690 -0.1993 -0.1277 -0.0274
  196POPC   GL1 2716   6.967   2.340   4.141 -0.0109  0.0006  0.1199
  196POPC   GL2 2717   6.952   2.559   4.300 -0.0361  0.3927  0.0981
  196POPC   C1A 2718   6.959   1.958   4.428 -0.1461  0.2325 -0.0305
  196POPC   D2A 2719   7.017   1.631   4.699  0.0050 -0.3798 -0.0438
  196POPC   C3A 2720   6.829   1.301   4.640  0.0539  0.2323  0.1262
  196POPC   C4A 2721   6.787   0.882   4.640 -0.1088  0.0118 -0.0477
  196POPC   C1B 2722   6.874   2.505   4.712 -0.1468  0.1693 -0.1117
  196POPC   C2B 2723   6.906   2.548   5.030 -0.0319  0.2686 -0.1790
  196POPC   C3B 2724   6.889   2.666   5.430  0.0179  0.2440  0.0127
  196POPC   C4B 2725   6.852   2.438   5.807 -0.0108 -0.1825 -0.0862
  197POPC   NC3 2726   7.650   2.938   3.807 -0.0667  0.1584  0.0919
  197POPC   PO4 2727   7.441   2.910   4.146  0.1280  0.1037 -0.2408
  197POPC   GL1 2728   7.388   2.725   4.527 -0.1908 -0.0171  0.0358
  197POPC   GL2 2729   7.363   2.297   4.463 -0.0831 -0.4717 -0.3182
  197POPC   C1A 2730   7.414   2.565   4.915 -0.2287  0.1807 -0.1889
  197POPC   D2A 2731   7.390   2.498   5.364 -0.0511  0.1947  0.0146
  197POPC   C3A 2732   7.297   2.702   5.774 -0.0145  0.0511 -0.1004
  197POPC   C4A 2733   7.400   3.079   6.141 -0.2585 -0.0377 -0.1672
  197POPC   C1B 2734   7.220   2.082   4.834 -0.2875 -0.2758  0.1272
  197POPC   C2B 2735   7.075   2.117   5.234  0.4067  0.1928 -0.2540
  197POPC   C3B 2736   6.883   1.952   5.605 -0.0983 -0.1418 -0.0738
  197POPC   C4B 2737   6.816   1.578   5.991 -0.1994 -0.0444  0.2529
  198POPC   NC3 2738   8.806   0.595   3.059  0.0618 -0.1561 -0.0008
  198POPC   PO4 2739   8.657   0.329   3.329 -0.1181 -0.1790 -0.0858
  198POPC   GL1 2740   8.370   0.310   3.577  0.1916 -0.0952  0.4592
  198POPC   GL2 2741   8.161   0.040   3.723  0.1257  0.2926  0.2245
  198POPC   C1A 2742   8.153   0.487   4.014 -0.1542 -0.2531 -0.1455
  198POPC   D2A 2743   8.140   0.363   4.444 -0.0643 -0.0427  0.1868
  198POPC   C3A 2744   7.975   0.002   4.499  0.1931 -0.0139 -0.1821
  198POPC   C4A 2745   8.177  -0.247   4.589  0.0290  0.4089  0.2866
  198POPC   C1B 2746   8.255   0.021   4.119  0.3401  0.1953  0.1605
  198POPC   C2B 2747   8.579   0.070   4.391  0.0829  0.0274 -0.2039
  198POPC   C3B 2748   8.712   0.166   4.812  0.1270  0.0695  0.2057
  198POPC   C4B 2749   8.653   0.144   5.286  0.0309  0.1214  0.0352
  199POPC   NC3 2750   4.741   2.897   3.896 -0.2372  0.1282  0.0662
  199POPC   PO4 2751   5.161   2.976   3.792 -0.0128 -0.0838  0.2448
  199POPC   GL1 2752   5.013   3.132   4.232  0.2160  0.2269 -0.2058
  199POPC   GL2 2753   4.713   3.327   4.217 -0.0882  0.3741  0.1317
  199POPC   C1A 2754   5.046   3.066   4.744 -0.1747 -0.1373 -0.1323
  199POPC   D2A 2755   5.172   3.032   5.144  0.0617  0.1223  0.0267
  199POPC   C3A 2756   5.033   3.286   5.461 -0.2414  0.1084  0.0787
  199POPC   C4A 2757   5.077   3.316   5.873 -0.0478 -0.0533 -0.1721
  199POPC   C1B 2758   4.506   2.975   4.476  0.0009  0.0980  0.2179
  199POPC   C2B 2759   4.495   3.058   4.917  0.1467 -0.1098  0.1910
  199POPC   C3B 2760   4.613   2.952   5.306  0.3213  0.1198  0.2822
  199POPC   C4B 2761   4.532   3.199   5.639 -0.1054  0.3037  0.3261
  200POPC   NC3 2762   4.439   1.278   3.750  0.5548 -0.0564  0.1284
  200POPC   PO4 2763   4.433   1.677   3.897 -0.1376  0.0991  0.1270
  200POPC   GL1 2764   4.500   1.674   4.226  0.0315 -0.1679  0.1386
  200POPC   GL2 2765   4.156   1.812   4.463  0.2351 -0.1482 -0.1459
  200POPC   C1A 2766   4.763   1.729   4.615 -0.2457  0.0522 -0.1414
  200POPC   D2A 2767   5.170   1.594   4.580  0.2610 -0.2842 -0.3689
  200POPC   C3A 2768   5.327   1.383   4.968 -0.1676 -0.1625  0.0451
  200POPC   C4A 2769   5.390   1.083   5.239 -0.3053  0.0204  0.0582
  200POPC   C1B 2770   4.313   2.183   4.746 -0.1702  0.0214 -0.1432
  200POPC   C2B 2771   4.648   2.009   5.010  0.0598  0.0438 -0.0191
  200POPC   C3B 2772   4.849   1.682   5.108 -0.4019  0.0886  0.0191
  200POPC   C4B 2773   4.910   1.327   5.414 -0.0546  0.0053  0.0757
  201POPC   NC3 2774   9.014   2.934   3.123  0.0801 -0.1990 -0.1062
  201POPC   PO4 2775   8.975   2.938   3.570  0.1936 -0.2037  0.1710
  201POPC   GL1 2776   9.043   3.074   4.049 -0.0919 -0.4334 -0.3464
  201POPC   GL2 2777   9.338   3.210   4.127  0.1535  0.2212  0.0734
  201POPC   C1A 2778   8.854   3.152   4.371 -0.0227  0.2477  0.1222
  201POPC   D2A 2779   8.691   3.441   4.531  0.2827 -0.3833 -0.0518
  201POPC   C3A 2780   8.912   3.620   4.895  0.1495  0.3292  0.0174
  201POPC   C4A 2781   8.991   3.641   5.290  0.0622  0.3071 -0.0288
  201POPC   C1B 2782   9.457   3.061   4.619  0.0819  0.2140  0.0578
  201POPC   C2B 2783   9.532   2.774   4.963 -0.2426 -0.0054  0.0189
  201POPC   C3B 2784   9.856   2.759   5.231 -0.1656 -0.3029  0.1371
  201POPC   C4B 2785   9.928   2.537   5.577 -0.0811 -0.0657 -0.0111
  202POPC   NC3 2786   9.583   0.894   3.529 -0.0167 -0.0285 -0.0366
  202POPC   PO4 2787   9.508   0.332   3.552 -0.0848 -0.0769  0.0914
  202POPC   GL1 2788   9.345   0.130   4.022  0.1840  0.0259 -0.4530
  202POPC   GL2 2789   9.137   0.247   4.162  0.1980 -0.0459  0.1916
  202POPC   C1A 2790   9.408   0.053   4.557  0.1121 -0.3396 -0.1000
  202POPC   D2A 2791   9.538  -0.112   4.902 -0.0326 -0.0663 -0.2970
  202POPC   C3A 2792   9.577   0.146   5.274 -0.1331 -0.4446 -0.2493
  202POPC   C4A 2793   9.528   0.513   5.400 -0.5961  0.1126 -0.0109
  202POPC   C1B 2794   9.061   0.446   4.570 -0.3756  0.0547 -0.1417
  202POPC   C2B 2795   8.943   0.587   5.045  0.3785  0.3830 -0.2028
  202POPC   C3B 2796   8.697   0.620   5.343  0.2658 -0.1299  0.2027
  202POPC   C4B 2797   8.288   0.620   5.599 -0.1771 -0.0172  0.0263
  203POPC   NC3 2798   1.746   9.746   3.698  0.0718  0.1382 -0.1760
  203POPC   PO4 2799   1.371  10.096   3.774  0.0078 -0.2250 -0.0672
  203POPC   GL1 2800   1.614  10.187   4.200 -0.0772 -0.2318  0.0373
  203POPC   GL2 2801   1.648   9.774   4.184  0.0318 -0.1732 -0.0608
  203POPC   C1A 2802   1.645  10.519   4.534 -0.0263 -0.0064 -0.0824
  203POPC   D2A 2803   1.670  10.454   4.958  0.0964  0.3083  0.0306
  203POPC   C3A 2804   1.417  10.230   5.234 -0.0951 -0.1308 -0.0445
  203POPC   C4A 2805   1.101   9.868   5.401 -0.0146  0.0953  0.1371
  203POPC   C1B 2806   1.365   9.639   4.467  0.2046 -0.3658 -0.1438
  203POPC   C2B 2807   1.337   9.746   4.963 -0.2235  0.1498  0.2231
  203POPC   C3B 2808   1.404   9.403   5.329 -0.1260  0.0110 -0.1047
  203POPC   C4B 2809   1.250   9.081   5.616 -0.0332 -0.1171  0.2693
  204POPC   NC3 2810   7.501   5.674   3.417 -0.1587  0.0115  0.0230
  204POPC   PO4 2811   7.814   5.436   3.424  0.2077  0.4280 -0.3156
  204POPC   GL1 2812   7.653   5.313   3.818  0.0153 -0.0613  0.1697
  204POPC   GL2 2813   7.512   5.713   3.903 -0.2090 -0.1368  0.4463
  204POPC   C1A 2814   7.613   5.060   4.277 -0.1037  0.1852  0.2112
  204POPC   D2A 2815   7.516   4.820   4.548  0.0281  0.1517 -0.2380
  204POPC   C3A 2816   7.744   4.749   4.893 -0.3470 -0.2462 -0.0483
  204POPC   C4A 2817   8.151   4.602   5.046 -0.2762 -0.1484 -0.0974
  204POPC   C1B 2818   7.685   5.630   4.303  0.5494  0.0727 -0.2617
  204POPC   C2B 2819   7.893   5.897   4.697 -0.1075 -0.0508 -0.1943
  204POPC   C3B 2820   8.337   6.055   4.930 -0.0397 -0.0818  0.1248
  204POPC   C4B 2821   8.717   6.213   4.742 -0.0255  0.1169  0.1757
  205POPC   NC3 2822   7.621   9.554   3.628 -0.0630 -0.2244  0.2904
  205POPC   PO4 2823   7.664   9.919   3.582  0.3172 -0.0791  0.0961
  205POPC   GL1 2824   7.710  10.010   4.002  0.1132 -0.0155 -0.1560
  205POPC   GL2 2825   7.698  10.297   3.891 -0.1112  0.1239  0.0565
  205POPC   C1A 2826   7.520  10.132   4.435 -0.1909 -0.1001 -0.2071
  205POPC   D2A 2827   7.686  10.044   4.900  0.2332  0.0769 -0.1203
  205POPC   C3A 2828   8.131  10.095   5.027  0.4749  0.0934  0.1937
  205POPC   C4A 2829   8.414   9.772   5.017 -0.1165  0.0851  0.0666
  205POPC   C1B 2830   7.633  10.590   4.299  0.1791  0.0069 -0.0133
  205POPC   C2B 2831   7.750  10.533   4.736 -0.1984  0.1251 -0.1779
  205POPC   C3B 2832   7.667  10.450   5.221 -0.0865  0.1704 -0.2527
  205POPC   C4B 2833   7.342  10.246   5.552  0.1705 -0.1926  0.0943
  206POPC   NC3 2834   1.464   4.276   3.851  0.1526 -0.0658 -0.0722
  206POPC   PO4 2835   1.068   4.330   4.125 -0.1800 -0.0880 -0.0095
  206POPC   GL1 2836   1.207   4.502   4.509  0.0042  0.0033  0.0611
  206POPC   GL2 2837   1.157   4.824   4.522 -0.1065  0.1852  0.2955
  206POPC   C1A 2838   1.229   4.395   4.953  0.2419 -0.1229  0.2443
  206POPC   D2A 2839   1.462   4.576   5.315  0.0288  0.5433 -0.2826
  206POPC   C3A 2840   1.671   4.335   5.610  0.2354  0.0641  0.0512
  206POPC   C4A 2841   1.773   4.066   5.860  0.1034 -0.2126  0.2069
  206POPC   C1B 2842   1.524   4.797   4.836 -0.0865 -0.1766  0.0118
  206POPC   C2B 2843   1.793   4.928   5.169  0.1580 -0.2993  0.0756
  206POPC   C3B 2844   1.754   4.921   5.606 -0.3442  0.0443 -0.3826
  206POPC   C4B 2845   1.820   4.926   6.019 -0.1805 -0.1593  0.1558
  207POPC   NC3 2846   5.258   1.162   3.718  0.0192 -0.0554  0.3185
  207POPC   PO4 2847   5.197   0.790   3.986 -0.1804 -0.3132 -0.0743
  207POPC   GL1 2848   5.492   0.870   4.289 -0.1375  0.0899  0.1881
  207POPC   GL2 2849   5.484   1.175   4.240 -0.5350  0.2521 -0.0615
  207POPC   C1A 2850   5.712   0.585   4.428 -0.0499  0.1732  0.1775
  207POPC   D2A 2851   5.573   0.333   4.567 -0.1436  0.0668  0.2550
  207POPC   C3A 2852   5.336   0.209   4.995  0.0560 -0.3533 -0.2368
  207POPC   C4A 2853   5.110   0.346   5.396  0.2693 -0.2287  0.0315
  207POPC   C1B 2854   5.114   1.108   4.535  0.0954  0.3522  0.3719
  207POPC   C2B 2855   4.897   1.067   4.877  0.4070 -0.1830 -0.2000
  207POPC   C3B 2856   4.514   0.882   5.122  0.3898  0.2155 -0.0166
  207POPC   C4B 2857   4.498   0.526   5.402 -0.1385 -0.0589 -0.1154
  208POPC   NC3 2858   0.239   5.465   3.704 -0.1269  0.1143  0.0555
  208POPC   PO4 2859   0.572   5.208   3.896 -0.2430  0.1040 -0.5535
  208POPC   GL1 2860   0.477   5.454   4.327  0.0710  0.0157 -0.0747
  208POPC   GL2 2861   0.474   5.796   4.366  0.1801 -0.0412 -0.0739
  208POPC   C1A 2862   0.552   5.363   4.742  0.1637 -0.3141 -0.0288
  208POPC   D2A 2863   0.838   5.438   5.237 -0.1536 -0.1818 -0.0429
  208POPC   C3A 2864   0.764   5.179   5.644  0.2133  0.0123 -0.2075
  208POPC   C4A 2865   0.882   5.069   6.045 -0.4584  0.1615  0.1909
  208POPC   C1B 2866   0.744   5.821   4.688 -0.0841  0.0571  0.2246
  208POPC   C2B 2867   0.971   6.134   4.734 -0.0776  0.0550  0.1605
  208POPC   C3B 2868   1.002   6.641   4.815 -0.1403  0.3318  0.0085
  208POPC   C4B 2869   1.244   7.027   4.897 -0.3247  0.1074 -0.0081
  209POPC   NC3 2870   3.229   3.861   3.868  0.0157 -0.2250  0.0889
  209POPC   PO4 2871   3.298   3.482   3.783 -0.2129 -0.3294 -0.0315
  209POPC   GL1 2872   3.047   3.536   4.222 -0.1973 -0.0589 -0.2087
  209POPC   GL2 2873   3.257   3.499   4.438  0.2621 -0.0929  0.0952
  209POPC   C1A 2874   2.746   3.771   4.614 -0.1071 -0.1421  0.1542
  209POPC   D2A 2875   2.775   4.064   4.943 -0.1189  0.1015 -0.0301
  209POPC   C3A 2876   2.678   3.981   5.359  0.1277 -0.0568  0.0521
  209POPC   C4A 2877   2.466   3.627   5.548  0.0313  0.2857 -0.1843
  209POPC   C1B 2878   3.512   3.300   4.749 -0.0087  0.4203 -0.2184
  209POPC   C2B 2879   3.917   3.055   4.980 -0.0500  0.2392  0.2267
  209POPC   C3B 2880   4.054   2.966   5.358 -0.2115 -0.3660 -0.2369
  209POPC   C4B 2881   4.110   3.005   5.783 -0.1816 -0.0523  0.2588
  210POPC   NC3 2882   3.824   7.968   3.331  0.1673  0.1946 -0.1182
  210POPC   PO4 2883   4.186   7.731   3.153 -0.0427  0.1180  0.0662
  210POPC   GL1 2884   4.469   7.502   3.413  0.1635  0.0186 -0.3767
  210POPC   GL2 2885   4.589   7.201   3.354  0.5062  0.0347 -0.0896
  210POPC   C1A 2886   4.531   7.541   3.877 -0.0321  0.0643  0.1672
  210POPC   D2A 2887   4.487   7.981   4.046 -0.0659  0.3474  0.1653
  210POPC   C3A 2888   4.499   8.098   4.471 -0.1107 -0.0144  0.3981
  210POPC   C4A 2889   4.510   8.223   4.933 -0.3005  0.2149  0.1685
  210POPC   C1B 2890   4.836   7.081   3.818 -0.0094 -0.1198  0.1800
  210POPC   C2B 2891   4.948   7.339   4.230  0.2338 -0.1255  0.1222
  210POPC   C3B 2892   4.855   7.720   4.495 -0.1838  0.0486 -0.0692
  210POPC   C4B 2893   4.966   8.120   4.480  0.2071  0.0224  0.6498
  211POPC   NC3 2894   9.804   1.437   4.148 -0.1271  0.3669  0.0750
  211POPC   PO4 2895   9.860   1.061   3.862 -0.0130  0.1821  0.0849
  211POPC   GL1 2896  10.004   0.802   4.304  0.0663 -0.0162  0.2575
  211POPC   GL2 2897  10.213   0.537   4.141 -0.0196 -0.2076  0.0441
  211POPC   C1A 2898  10.007   0.731   4.700  0.1583  0.1972 -0.2771
  211POPC   D2A 2899   9.895   0.643   5.131 -0.1887  0.0006  0.3149
  211POPC   C3A 2900  10.067   0.224   5.330 -0.0227 -0.1419  0.0395
  211POPC   C4A 2901  10.163  -0.069   5.589 -0.1691 -0.0091  0.0822
  211POPC   C1B 2902  10.294   0.263   4.524  0.3009  0.2982  0.2862
  211POPC   C2B 2903  10.406   0.181   4.940  0.0682  0.0002 -0.1000
  211POPC   C3B 2904  10.502  -0.144   5.163 -0.2380  0.0544  0.0316
  211POPC   C4B 2905  10.653  -0.250   5.594  0.3538  0.1640 -0.1781
  212POPC   NC3 2906   5.821   6.165   3.012  0.0666 -0.1076 -0.0241
  212POPC   PO4 2907   5.433   6.323   3.096  0.2954  0.2000 -0.0010
  212POPC   GL1 2908   5.587   6.386   3.516 -0.2296  0.1330 -0.0050
  212POPC   GL2 2909   5.689   6.103   3.804  0.0742  0.2937 -0.0572
  212POPC   C1A 2910   5.506   6.569   3.957 -0.2015 -0.1876  0.2601
  212POPC   D2A 2911   5.490   6.646   4.464 -0.0028  0.1074  0.4023
  212POPC   C3A 2912   5.391   6.975   4.596  0.2351 -0.3276  0.0337
  212POPC   C4A 2913   5.268   7.340   4.702 -0.0917  0.2021  0.1223
  212POPC   C1B 2914   5.702   6.145   4.207 -0.1510  0.0997 -0.1406
  212POPC   C2B 2915   5.767   6.001   4.633 -0.1015  0.1536 -0.0276
  212POPC   C3B 2916   6.082   6.062   4.868 -0.0579 -0.0811 -0.1738
  212POPC   C4B 2917   6.001   6.018   5.296 -0.5749 -0.3340  0.0305
  213POPC   NC3 2918   2.102   3.209   3.959 -0.0085  0.0047 -0.0631
  213POPC   PO4 2919   2.191   3.107   4.263 -0.0980  0.1649  0.0222
  213POPC   GL1 2920   2.425   2.919   4.509  0.4735  0.3442  0.0096
  213POPC   GL2 2921   2.527   3.288   4.773 -0.3041  0.5770  0.0264
  213POPC   C1A 2922   2.244   2.629   4.889 -0.1980  0.0636 -0.0216
  213POPC   D2A 2923   2.281   2.574   5.360  0.1088 -0.2622  0.0744
  213POPC   C3A 2924   1.941   2.385   5.585  0.1036 -0.1315  0.3801
  213POPC   C4A 2925   1.595   2.218   5.637 -0.0098 -0.0717 -0.0856
  213POPC   C1B 2926   2.407   3.064   5.078 -0.0308 -0.2564  0.0252
  213POPC   C2B 2927   2.422   3.110   5.534  0.1744 -0.2883  0.1935
  213POPC   C3B 2928   2.280   3.286   5.928 -0.0730  0.1040  0.1193
  213POPC   C4B 2929   2.013   3.665   6.082  0.1713  0.2451  0.0328
  214POPC   NC3 2930   6.098   3.451   3.606  0.1912  0.0693  0.1155
  214POPC   PO4 2931   5.640   3.699   3.638  0.3307  0.0478  0.3299
  214POPC   GL1 2932   5.788   3.711   4.076 -0.2103  0.4281 -0.0090
  214POPC   GL2 2933   6.069   3.406   4.099  0.0826 -0.2749  0.2078
  214POPC   C1A 2934   5.867   3.819   4.465 -0.2654  0.0860 -0.1522
  214POPC   D2A 2935   5.827   4.128   4.797  0.1311  0.0594 -0.1778
  214POPC   C3A 2936   5.940   4.098   5.201 -0.5022  0.0620 -0.0956
  214POPC   C4A 2937   5.801   4.416   5.575 -0.0394 -0.1407 -0.0349
  214POPC   C1B 2938   6.132   3.353   4.577 -0.1433 -0.0076  0.1611
  214POPC   C2B 2939   6.103   3.123   4.866  0.1579 -0.3338  0.1822
  214POPC   C3B 2940   6.100   3.280   5.297  0.0079  0.1630  0.0272
  214POPC   C4B 2941   6.403   3.619   5.473  0.1866 -0.1146  0.2466
  215POPC   NC3 2942   2.494   7.860   3.170 -0.1227  0.3359  0.3861
  215POPC   PO4 2943   2.342   8.194   3.320  0.1387 -0.0685  0.3194
  215POPC   GL1 2944   2.323   8.439   3.726 -0.2671  0.1854 -0.0552
  215POPC   GL2 2945   2.507   8.708   3.798  0.2129  0.2874 -0.1496
  215POPC   C1A 2946   2.124   8.302   4.152  0.2681 -0.2433 -0.1975
  215POPC   D2A 2947   1.976   8.162   4.499 -0.0070 -0.1922  0.3213
  215POPC   C3A 2948   2.192   8.134   4.924  0.0433 -0.0430  0.2674
  215POPC   C4A 2949   2.088   8.021   5.381 -0.5666  0.0927 -0.1603
  215POPC   C1B 2950   2.375   8.873   4.271 -0.0014  0.1350 -0.1479
  215POPC   C2B 2951   2.110   8.965   4.692 -0.2456  0.0970  0.2243
  215POPC   C3B 2952   2.050   8.898   5.141 -0.0048  0.3013 -0.0271
  215POPC   C4B 2953   1.699   8.994   5.413 -0.0761  0.1632  0.1452
  216POPC   NC3 2954   7.805   6.950   3.486  0.0673  0.1584 -0.0516
  216POPC   PO4 2955   7.626   6.490   3.408 -0.2415  0.1929  0.0751
  216POPC   GL1 2956   7.718   6.588   3.921  0.1184  0.3304 -0.0288
  216POPC   GL2 2957   7.662   6.983   3.961  0.1340  0.1483 -0.2133
  216POPC   C1A 2958   7.820   6.626   4.386 -0.1215 -0.1822 -0.0600
  216POPC   D2A 2959   7.811   6.366   4.707 -0.1234  0.0479 -0.2822
  216POPC   C3A 2960   7.603   6.256   5.079 -0.1781 -0.2692 -0.0240
  216POPC   C4A 2961   7.606   6.649   5.420 -0.2627 -0.0202  0.2302
  216POPC   C1B 2962   7.368   6.869   4.325  0.1276 -0.0251 -0.3879
  216POPC   C2B 2963   7.248   6.683   4.761  0.1633  0.1067 -0.0100
  216POPC   C3B 2964   7.250   6.962   5.089 -0.0502  0.1072  0.0106
  216POPC   C4B 2965   6.971   6.946   5.390 -0.2298 -0.2297  0.1246
  217POPC   NC3 2966   6.604   8.421   3.594 -0.2318  0.1666 -0.1061
  217POPC   PO4 2967   7.027   8.102   3.529  0.0911 -0.1354  0.4469
  217POPC   GL1 2968   6.876   8.168   4.039  0.2968 -0.0793  0.1700
  217POPC   GL2 2969   6.680   7.992   4.167  0.0125 -0.1543  0.2239
  217POPC   C1A 2970   7.151   8.146   4.386 -0.0467 -0.1137 -0.2956
  217POPC   D2A 2971   7.454   8.251   4.602 -0.2106  0.2366 -0.1830
  217POPC   C3A 2972   7.348   8.566   4.952 -0.0779 -0.0821 -0.2006
  217POPC   C4A 2973   7.024   8.569   5.296  0.1144  0.1347 -0.3342
  217POPC   C1B 2974   6.843   7.675   4.503  0.0159  0.0047  0.1314
  217POPC   C2B 2975   6.775   7.701   4.913 -0.0010  0.0870 -0.1002
  217POPC   C3B 2976   6.698   7.480   5.364 -0.0838  0.2563 -0.1145
  217POPC   C4B 2977   6.586   7.122   5.615 -0.0187  0.0565 -0.2282
  218POPC   NC3 2978   1.498   5.602   3.983 -0.0396  0.4005 -0.0170
  218POPC   PO4 2979   1.080   5.403   3.912  0.1519  0.3893 -0.1097
  218POPC   GL1 2980   1.010   5.373   4.357  0.2032 -0.0171  0.1472
  218POPC   GL2 2981   0.749   5.063   4.436  0.0655  0.2628  0.1388
  218POPC   C1A 2982   1.041   5.283   4.807 -0.0300  0.1122  0.0460
  218POPC   D2A 2983   1.090   4.875   5.152  0.1956  0.1725  0.5572
  218POPC   C3A 2984   1.246   5.002   5.544  0.1820  0.2631  0.0538
  218POPC   C4A 2985   1.386   5.094   5.952  0.2028 -0.0711  0.0109
  218POPC   C1B 2986   0.587   4.878   4.844 -0.1449  0.3172  0.0210
  218POPC   C2B 2987   0.490   4.957   5.270 -0.1348 -0.0130  0.1886
  218POPC   C3B 2988   0.219   4.698   5.391  0.0877  0.2957 -0.0394
  218POPC   C4B 2989  -0.118   4.387   5.379 -0.0251  0.0626  0.3016
  219POPC   NC3 2990   0.260   3.970   3.941 -0.2827 -0.0597  0.0242
  219POPC   PO4 2991  -0.163   3.884   3.869  0.0186 -0.1828 -0.1786
  219POPC   GL1 2992  -0.440   3.681   4.155 -0.1839 -0.0813  0.2570
  219POPC   GL2 2993  -0.458   3.943   4.477  0.1663 -0.2034  0.0151
  219POPC   C1A 2994  -0.762   3.480   4.525 -0.4271  0.0763  0.0363
  219POPC   D2A 2995  -0.589   3.431   5.029 -0.0293  0.0308 -0.0630
  219POPC   C3A 2996  -0.628   3.113   5.268 -0.0552 -0.4580  0.2517
  219POPC   C4A 2997  -0.522   2.652   5.469  0.2001  0.3196  0.1071
  219POPC   C1B 2998  -0.655   3.954   4.831  0.5378 -0.0499  0.4490
  219POPC   C2B 2999  -0.514   4.102   5.291 -0.3113 -0.1848 -0.0005
  219POPC   C3B 3000  -0.524   4.111   5.671 -0.3537  0.0784 -0.0554
  219POPC   C4B 3001  -0.398   3.946   5.918 -0.0452 -0.0654  0.4144
  220POPC   NC3 3002   9.473   5.093   3.184  0.0903  0.3071 -0.0402
  220POPC   PO4 3003   9.168   5.418   3.483 -0.2480 -0.0598  0.1736
  220POPC   GL1 3004   9.105   5.461   3.926 -0.0467  0.0952 -0.2042
  220POPC   GL2 3005   9.266   5.767   4.014  0.2049 -0.0452 -0.2017
  220POPC   C1A 3006   8.896   5.401   4.226  0.0691 -0.5603 -0.0533
  220POPC   D2A 3007   8.455   5.368   4.523 -0.0479 -0.0593  0.0835
  220POPC   C3A 3008   8.396   5.557   4.925 -0.1798 -0.3127  0.0030
  220POPC   C4A 3009   8.558   5.785   5.306  0.2263 -0.1674  0.1392
  220POPC   C1B 3010   9.227   5.820   4.445 -0.1508  0.4687 -0.1077
  220POPC   C2B 3011   9.143   5.942   4.865  0.1421 -0.0948 -0.1539
  220POPC   C3B 3012   9.129   5.977   5.328  0.1043 -0.3248 -0.0093
  220POPC   C4B 3013   8.787   6.028   5.652  0.0023  0.1704 -0.1583
  221POPC   NC3 3014   5.249   4.058   3.455  0.0872  0.2906  0.2531
  221POPC   PO4 3015   4.906   3.915   3.614 -0.2306 -0.2049  0.2076
  221POPC   GL1 3016   4.981   3.867   4.020 -0.1578 -0.0842 -0.0370
  221POPC   GL2 3017   5.313   3.909   3.984 -0.0257 -0.0119  0.0995
  221POPC   C1A 3018   5.098   3.605   4.453  0.0296  0.5306 -0.0298
  221POPC   D2A 3019   4.683   3.499   4.751 -0.1809 -0.0978  0.2340
  221POPC   C3A 3020   4.730   3.496   5.133 -0.4424 -0.0811 -0.1373
  221POPC   C4A 3021   4.575   3.625   5.406 -0.0237 -0.0426 -0.1300
  221POPC   C1B 3022   5.165   4.194   4.425 -0.0807  0.0157 -0.1951
  221POPC   C2B 3023   5.339   4.155   4.837  0.1314  0.2327  0.1444
  221POPC   C3B 3024   5.447   4.196   5.259 -0.2485 -0.1154 -0.0467
  221POPC   C4B 3025   5.239   4.214   5.608 -0.0195 -0.4243 -0.2008
  222POPC   NC3 3026   1.782   6.488   3.809  0.1777  0.0375 -0.2658
  222POPC   PO4 3027   2.167   6.296   4.024 -0.0576  0.0823  0.0219
  222POPC   GL1 3028   1.987   6.425   4.422 -0.0102 -0.0812 -0.0977
  222POPC   GL2 3029   1.695   6.520   4.339 -0.1975 -0.0180 -0.2690
  222POPC   C1A 3030   2.007   6.348   4.806  0.0805 -0.3517  0.1439
  222POPC   D2A 3031   1.745   6.204   5.161  0.0494 -0.1331 -0.2332
  222POPC   C3A 3032   1.285   6.281   5.198 -0.4517  0.0934  0.1973
  222POPC   C4A 3033   0.933   6.472   5.293 -0.2075 -0.0678  0.2555
  222POPC   C1B 3034   1.500   6.643   4.751 -0.0845 -0.1136 -0.2275
  222POPC   C2B 3035   1.526   6.708   5.157 -0.0817  0.1770 -0.4006
  222POPC   C3B 3036   1.299   6.651   5.558  0.0809  0.0510 -0.0203
  222POPC   C4B 3037   0.868   6.478   5.743 -0.1714 -0.0070  0.1183
  223POPC   NC3 3038   0.450   6.510   3.619  0.0458  0.3916 -0.0525
  223POPC   PO4 3039   0.816   6.240   3.723  0.1088  0.0408  0.2911
  223POPC   GL1 3040   0.561   6.297   4.132 -0.1295 -0.1775 -0.0131
  223POPC   GL2 3041   0.673   6.424   4.449 -0.1545 -0.4017 -0.0036
  223POPC   C1A 3042   0.196   6.181   4.439 -0.1669  0.1285  0.0797
  223POPC   D2A 3043   0.149   5.998   4.837  0.0308 -0.0777 -0.1675
  223POPC   C3A 3044   0.423   5.760   5.162  0.0614 -0.0669 -0.0393
  223POPC   C4A 3045   0.514   5.708   5.618 -0.0356 -0.1584 -0.1815
  223POPC   C1B 3046   0.560   6.313   4.867 -0.2642  0.0559  0.2256
  223POPC   C2B 3047   0.364   6.691   5.119 -0.0511  0.0237 -0.3773
  223POPC   C3B 3048   0.431   6.780   5.671 -0.0992 -0.0072 -0.2386
  223POPC   C4B 3049   0.588   6.663   6.083 -0.3561 -0.0090  0.3120
  224POPC   NC3 3050   9.935   9.606   3.720  0.1971 -0.0266 -0.0951
  224POPC   PO4 3051   9.934   9.989   3.576 -0.0859  0.2481 -0.1639
  224POPC   GL1 3052   9.799  10.140   3.905  0.2187  0.0196 -0.1078
  224POPC   GL2 3053   9.791   9.850   4.158 -0.1513 -0.2538 -0.1265
  224POPC   C1A 3054   9.793  10.340   4.329 -0.0396 -0.0129  0.2798
  224POPC   D2A 3055   9.818  10.225   4.736 -0.0582  0.5066 -0.2048
  224POPC   C3A 3056   9.467  10.353   4.904  0.1655  0.1600  0.2312
  224POPC   C4A 3057   9.108  10.107   5.118 -0.0426  0.0893  0.0875
  224POPC   C1B 3058   9.866   9.744   4.568 -0.0065  0.0459 -0.3228
  224POPC   C2B 3059  10.001   9.715   5.007 -0.2875  0.1515 -0.1197
  224POPC   C3B 3060   9.757   9.592   5.321  0.1369 -0.0574  0.2686
  224POPC   C4B 3061   9.586   9.442   5.667  0.0486 -0.2192  0.0174
  225POPC   NC3 3062   1.145   2.558   4.058  0.1246  0.1693 -0.0262
  225POPC   PO4 3063   1.060   3.070   4.075  0.4422  0.4466 -0.0047
  225POPC   GL1 3064   1.081   2.961   4.517  0.4393  0.1406  0.2791
  225POPC   GL2 3065   1.000   2.624   4.568 -0.0021 -0.5098 -0.3424
  225POPC   C1A 3066   0.848   2.960   4.994  0.2393  0.0474  0.2214
  225POPC   D2A 3067   0.832   2.765   5.364  0.0723 -0.1017 -0.2606
  225POPC   C3A 3068   0.712   2.655   5.913 -0.0111  0.0249 -0.3019
  225POPC   C4A 3069   0.734   2.576   6.265 -0.2460  0.0414  0.0101
  225POPC   C1B 3070   0.815   2.489   4.919  0.0710  0.0688  0.2711
  225POPC   C2B 3071   0.825   2.244   5.374  0.2279  0.0626 -0.1895
  225POPC   C3B 3072   1.014   2.224   5.707 -0.1147  0.0627 -0.0667
  225POPC   C4B 3073   1.205   2.518   5.992  0.0789  0.1553 -0.1998
  226POPC   NC3 3074   0.428   0.306   3.481 -0.0837  0.0003  0.1208
  226POPC   PO4 3075   0.458  -0.265   3.617 -0.1012  0.1201 -0.2341
  226POPC   GL1 3076   0.586  -0.636   3.882  0.0971  0.1987  0.0091
  226POPC   GL2 3077   0.294  -0.794   3.943  0.3344  0.3642 -0.2031
  226POPC   C1A 3078   0.488  -0.735   4.383  0.0298  0.2204 -0.3940
  226POPC   D2A 3079   0.220  -1.082   4.576  0.0163 -0.2879 -0.2881
  226POPC   C3A 3080   0.057  -1.285   4.959 -0.1868  0.1617 -0.0020
  226POPC   C4A 3081  -0.087  -1.621   5.181 -0.1688  0.0349  0.0413
  226POPC   C1B 3082  -0.037  -0.791   4.269 -0.1335  0.0896 -0.1191
  226POPC   C2B 3083   0.004  -0.670   4.679  0.1717  0.0372 -0.4020
  226POPC   C3B 3084  -0.097  -0.769   5.055 -0.2592  0.1150  0.0160
  226POPC   C4B 3085  -0.340  -0.937   5.421 -0.0335  0.0057 -0.0916
  227POPC   NC3 3086   9.568   0.613   3.144  0.1039  0.2551  0.2504
  227POPC   PO4 3087   9.111   0.686   3.481 -0.2811 -0.0132 -0.0796
  227POPC   GL1 3088   9.242   0.683   3.896  0.2334  0.1380  0.0200
  227POPC   GL2 3089   9.525   0.668   4.020  0.0832 -0.1318 -0.0614
  227POPC   C1A 3090   8.919   0.804   4.191  0.0315  0.2565 -0.0344
  227POPC   D2A 3091   8.615   0.567   4.311 -0.2150  0.0883 -0.0944
  227POPC   C3A 3092   8.555   0.663   4.748  0.1235 -0.3040 -0.2410
  227POPC   C4A 3093   8.167   0.630   5.018 -0.2655  0.0972 -0.0901
  227POPC   C1B 3094   9.369   0.828   4.392 -0.1314 -0.0508 -0.1207
  227POPC   C2B 3095   9.541   0.910   4.759 -0.0462  0.3335  0.0883
  227POPC   C3B 3096   9.410   1.004   5.189 -0.0396  0.5630 -0.0321
  227POPC   C4B 3097   9.296   1.345   5.475  0.0730 -0.0322  0.0450
  228POPC   NC3 3098   7.486   7.429   3.303  0.1411  0.0505 -0.1250
  228POPC   PO4 3099   7.515   7.839   3.463 -0.0084 -0.1090 -0.0759
  228POPC   GL1 3100   7.500   8.050   3.881  0.0454  0.0442  0.0837
  228POPC   GL2 3101   7.386   8.290   3.904 -0.0378  0.3957  0.1002
  228POPC   C1A 3102   7.785   8.146   4.306  0.1004  0.1887 -0.0983
  228POPC   D2A 3103   8.201   8.051   4.443  0.2397  0.0636  0.3463
  228POPC   C3A 3104   8.225   7.925   4.869 -0.2279 -0.1292 -0.2910
  228POPC   C4A 3105   8.062   7.668   5.211 -0.1007 -0.0052 -0.0294
  228POPC   C1B 3106   7.286   8.691   4.100  0.1744  0.3316 -0.1323
  228POPC   C2B 3107   7.190   8.955   4.444  0.0227  0.0573  0.1173
  228POPC   C3B 3108   7.057   8.973   4.918  0.2687  0.3211 -0.1289
  228POPC   C4B 3109   6.929   9.352   5.238 -0.1067  0.2114 -0.0504
  229POPC   NC3 3110   7.303   6.535   3.045  0.1835  0.1007  0.3856
  229POPC   PO4 3111   7.359   7.013   3.121  0.0339  0.1412  0.1091
  229POPC   GL1 3112   7.048   6.811   3.350  0.0015 -0.0586  0.2106
  229POPC   GL2 3113   7.311   6.805   3.596  0.1293  0.1688  0.1363
  229POPC   C1A 3114   6.668   6.646   3.462  0.2264 -0.1600 -0.2019
  229POPC   D2A 3115   6.214   6.653   3.618 -0.0713 -0.2160  0.0719
  229POPC   C3A 3116   6.000   6.538   4.034 -0.2507  0.0344  0.1747
  229POPC   C4A 3117   6.175   6.235   4.405  0.2351  0.1740  0.0377
  229POPC   C1B 3118   7.156   7.167   3.885 -0.3280  0.1785 -0.1245
  229POPC   C2B 3119   7.161   7.260   4.352  0.0628 -0.0612 -0.2040
  229POPC   C3B 3120   6.978   7.248   4.775 -0.4415 -0.2889  0.1662
  229POPC   C4B 3121   6.755   6.911   4.962  0.4003 -0.0146  0.4116
  230POPC   NC3 3122   9.822   9.522   3.220  0.1216 -0.0943  0.1285
  230POPC   PO4 3123   9.904   9.112   3.572 -0.1589 -0.0140 -0.0035
  230POPC   GL1 3124   9.701   8.779   3.885 -0.0366  0.0351  0.0045
  230POPC   GL2 3125   9.518   8.547   3.773  0.0968  0.0144  0.0356
  230POPC   C1A 3126   9.693   8.559   4.277  0.0788 -0.0363 -0.1185
  230POPC   D2A 3127   9.950   8.418   4.485 -0.1256 -0.0903  0.1668
  230POPC   C3A 3128   9.688   8.182   4.726  0.0324  0.4301  0.0116
  230POPC   C4A 3129   9.543   7.877   5.105 -0.0607  0.0116 -0.0929
  230POPC   C1B 3130   9.384   8.191   4.110  0.0169  0.2339  0.1510
  230POPC   C2B 3131   9.313   8.329   4.488 -0.1027 -0.1194  0.1015
  230POPC   C3B 3132   9.106   8.781   4.660  0.0434  0.0400 -0.0224
  230POPC   C4B 3133   8.746   8.764   4.932 -0.0284 -0.2105  0.0875
  231POPC   NC3 3134   4.309   3.456   3.337 -0.1122 -0.0039 -0.0738
  231POPC   PO4 3135   4.095   3.674   3.627  0.2898  0.1503 -0.2528
  231POPC   GL1 3136   4.357   3.921   3.811 -0.0931  0.0499 -0.3632
  231POPC   GL2 3137   4.509   3.715   3.919  0.1551 -0.0567 -0.1832
  231POPC   C1A 3138   4.609   4.221   4.111 -0.3260 -0.3249  0.0551
  231POPC   D2A 3139   4.899   4.534   4.204  0.2006 -0.2310  0.0866
  231POPC   C3A 3140   5.039   4.623   4.682 -0.3832 -0.3480 -0.0352
  231POPC   C4A 3141   4.923   4.913   5.001 -0.0753 -0.1144 -0.4089
  231POPC   C1B 3142   4.641   3.837   4.405 -0.3710 -0.1051 -0.0019
  231POPC   C2B 3143   4.873   3.940   4.817 -0.1005  0.0565 -0.0005
  231POPC   C3B 3144   4.945   3.987   5.214  0.3343  0.3920  0.1327
  231POPC   C4B 3145   5.137   3.789   5.523 -0.1227  0.1614 -0.0721
  232POPC   NC3 3146   8.063   2.706   4.137  0.1168  0.0576 -0.0232
  232POPC   PO4 3147   7.933   2.441   3.813 -0.2252  0.0113 -0.1592
  232POPC   GL1 3148   7.841   2.231   4.264  0.0266  0.1648  0.2505
  232POPC   GL2 3149   7.676   1.961   4.345  0.0697  0.2145  0.0916
  232POPC   C1A 3150   7.796   2.375   4.641  0.0989 -0.2730  0.0798
  232POPC   D2A 3151   7.844   2.276   5.086 -0.0948  0.3630 -0.3308
  232POPC   C3A 3152   8.203   2.451   5.244 -0.1541 -0.1717  0.0985
  232POPC   C4A 3153   8.561   2.648   5.538 -0.2143  0.0338 -0.1158
  232POPC   C1B 3154   7.550   1.735   4.681  0.0135 -0.1498 -0.2795
  232POPC   C2B 3155   7.365   1.663   5.114  0.2143  0.3047 -0.1304
  232POPC   C3B 3156   7.291   1.656   5.557  0.1299  0.1621  0.1756
  232POPC   C4B 3157   7.206   1.795   6.007  0.1497  0.0152  0.0841
  233POPC   NC3 3158   3.866   2.787   3.648 -0.0382 -0.1212  0.1132
  233POPC   PO4 3159   4.224   3.107   3.841 -0.1462  0.0755  0.1986
  233POPC   GL1 3160   4.132   3.482   4.083  0.0456  0.2261  0.0796
  233POPC   GL2 3161   3.916   3.384   4.332 -0.2930  0.2450 -0.1187
  233POPC   C1A 3162   4.161   3.875   4.281 -0.0066 -0.0949  0.0489
  233POPC   D2A 3163   4.255   4.085   4.630  0.2644 -0.3177  0.1467
  233POPC   C3A 3164   4.341   3.984   5.028 -0.1948 -0.1259 -0.0270
  233POPC   C4A 3165   4.369   4.216   5.294  0.2370 -0.0487 -0.1891
  233POPC   C1B 3166   4.178   3.423   4.667  0.0534 -0.1330  0.0664
  233POPC   C2B 3167   4.194   3.464   5.200 -0.0570 -0.1014 -0.1981
  233POPC   C3B 3168   4.172   3.511   5.693  0.2367 -0.2129 -0.0435
  233POPC   C4B 3169   4.293   3.919   5.846  0.2341 -0.0166  0.2060
  234POPC   NC3 3170   6.138   2.059   3.429 -0.0406 -0.0505 -0.1099
  234POPC   PO4 3171   6.315   2.064   3.831 -0.1286  0.0784  0.0194
  234POPC   GL1 3172   6.162   1.988   4.260 -0.5534  0.1748 -0.3086
  234POPC   GL2 3173   6.470   1.828   4.401  0.4524 -0.1826 -0.1114
  234POPC   C1A 3174   6.147   2.051   4.712 -0.0203 -0.3166 -0.0107
  234POPC   D2A 3175   6.573   2.117   5.071 -0.0533 -0.1385  0.1194
  234POPC   C3A 3176   6.365   2.330   5.525 -0.2427 -0.1143  0.0808
  234POPC   C4A 3177   6.020   2.559   5.613 -0.0659  0.3287 -0.3274
  234POPC   C1B 3178   6.534   1.650   4.801 -0.1041 -0.0536 -0.0364
  234POPC   C2B 3179   6.809   1.607   5.226 -0.0803  0.1774 -0.2139
  234POPC   C3B 3180   6.819   1.364   5.508  0.0982  0.0554 -0.0962
  234POPC   C4B 3181   6.496   1.209   5.842  0.0997 -0.1080 -0.0819
  235POPC   NC3 3182   8.481   6.701   2.939 -0.1447  0.0838  0.3158
  235POPC   PO4 3183   8.649   6.500   3.282 -0.2479 -0.0183  0.2076
  235POPC   GL1 3184   8.588   6.454   3.758 -0.3623 -0.1909 -0.0238
  235POPC   GL2 3185   8.655   6.733   3.945 -0.0179  0.3651  0.2355
  235POPC   C1A 3186   8.508   6.165   4.037 -0.2418  0.1058  0.0873
  235POPC   D2A 3187   8.748   5.981   4.316  0.0487  0.3082  0.0098
  235POPC   C3A 3188   8.799   5.698   4.648  0.0142 -0.0800 -0.0454
  235POPC   C4A 3189   8.922   5.478   5.040 -0.2058  0.1888 -0.3473
  235POPC   C1B 3190   8.655   6.572   4.372  0.0297 -0.1164 -0.0675
  235POPC   C2B 3191   8.376   6.722   4.757 -0.1030 -0.1362  0.1969
  235POPC   C3B 3192   8.264   6.893   5.220 -0.2102 -0.2181  0.1341
  235POPC   C4B 3193   8.215   7.173   5.499  0.2401 -0.0984  0.0396
  236POPC   NC3 3194   2.535   2.062   3.527 -0.1120  0.3171  0.2929
  236POPC   PO4 3195   2.608   2.184   3.988  0.2126  0.1179 -0.0657
  236POPC   GL1 3196   2.533   2.133   4.479 -0.3473  0.0964  0.0330
  236POPC   GL2 3197   2.594   1.810   4.593 -0.0386 -0.0685  0.4585
  236POPC   C1A 3198   2.352   2.107   4.984  0.0245  0.0989  0.2982
  236POPC   D2A 3199   2.386   2.131   5.411 -0.0301 -0.1952  0.0772
  236POPC   C3A 3200   2.319   2.123   5.710 -0.0428 -0.0449  0.2884
  236POPC   C4A 3201   2.189   2.315   6.110  0.3602 -0.2291  0.2374
  236POPC   C1B 3202   2.764   1.826   5.016  0.2119 -0.0091 -0.2826
  236POPC   C2B 3203   2.910   1.511   5.324 -0.3207  0.1134 -0.2128
  236POPC   C3B 3204   2.775   1.104   5.179 -0.2942 -0.3693  0.1241
  236POPC   C4B 3205   2.578   0.727   5.365 -0.1324  0.0669 -0.0419
  237POPC   NC3 3206   1.249   0.675   3.707 -0.2420 -0.2465  0.1052
  237POPC   PO4 3207   0.845   0.434   3.746  0.1434  0.2375 -0.0310
  237POPC   GL1 3208   0.696   0.160   3.919  0.3061 -0.3359 -0.0632
  237POPC   GL2 3209   0.331   0.072   3.944  0.0810  0.0933 -0.2745
  237POPC   C1A 3210   0.742   0.085   4.368 -0.0633 -0.2923 -0.1085
  237POPC   D2A 3211   0.905  -0.119   4.755  0.1299  0.2007  0.4063
  237POPC   C3A 3212   0.974   0.179   5.055 -0.2016  0.1507 -0.3411
  237POPC   C4A 3213   0.986   0.418   5.418  0.0514 -0.1190  0.2014
  237POPC   C1B 3214   0.332  -0.244   4.271  0.1554 -0.0707  0.1382
  237POPC   C2B 3215   0.419  -0.324   4.679  0.3153  0.0740 -0.2089
  237POPC   C3B 3216   0.439  -0.596   4.984  0.0083  0.1039  0.1528
  237POPC   C4B 3217   0.413  -1.021   5.118 -0.0638 -0.2761  0.0803
  238POPC   NC3 3218   9.657   2.005   3.859  0.4284  0.0886  0.2061
  238POPC   PO4 3219   9.401   1.777   4.095 -0.0850  0.1511  0.0278
  238POPC   GL1 3220   9.243   1.983   4.371  0.1595  0.0534  0.1497
  238POPC   GL2 3221   9.195   2.336   4.353  0.0004 -0.0273 -0.0878
  238POPC   C1A 3222   9.242   2.129   4.814 -0.0300 -0.3287  0.1527
  238POPC   D2A 3223   9.476   2.296   5.093 -0.0235  0.1459 -0.1675
  238POPC   C3A 3224   9.882   2.367   4.903 -0.0272  0.3914 -0.1742
  238POPC   C4A 3225  10.127   2.585   4.577 -0.0674  0.2867 -0.1350
  238POPC   C1B 3226   9.165   2.668   4.608  0.1149 -0.1281  0.2365
  238POPC   C2B 3227   9.025   3.108   4.842 -0.1991 -0.0890  0.2112
  238POPC   C3B 3228   8.809   3.193   5.197  0.3171  0.0806  0.2988
  238POPC   C4B 3229   8.559   3.281   5.540  0.0829  0.2289 -0.3483
  239POPC   NC3 3230   2.217   4.748   4.022  0.0036  0.2414  0.0224
  239POPC   PO4 3231   1.715   4.713   3.861 -0.2886  0.0276  0.2598
  239POPC   GL1 3232   1.685   4.442   4.267 -0.0343  0.1802  0.0390
  239POPC   GL2 3233   1.946   4.370   4.319 -0.2525 -0.1856 -0.1194
  239POPC   C1A 3234   1.627   4.158   4.694 -0.0176  0.1735 -0.0884
  239POPC   D2A 3235   1.914   3.851   4.856  0.0974  0.1078 -0.0453
  239POPC   C3A 3236   2.104   3.905   5.304 -0.2439 -0.3956  0.1713
  239POPC   C4A 3237   2.233   4.112   5.725  0.0982 -0.1483 -0.3648
  239POPC   C1B 3238   1.993   4.576   4.816 -0.1235 -0.0512  0.2835
  239POPC   C2B 3239   2.275   4.791   5.046 -0.2721 -0.1644  0.0368
  239POPC   C3B 3240   2.342   5.088   5.445 -0.0480  0.0321  0.1853
  239POPC   C4B 3241   2.189   5.298   5.851  0.2817 -0.1050  0.1553
  240POPC   NC3 3242   5.859   7.383   2.594 -0.1765 -0.2828  0.0858
  240POPC   PO4 3243   5.934   7.141   3.054 -0.1237  0.0932  0.1078
  240POPC   GL1 3244   5.695   6.917   3.415 -0.2799  0.1726 -0.2487
  240POPC   GL2 3245   5.494   6.784   3.219  0.1301  0.1154  0.1540
  240POPC   C1A 3246   5.808   6.955   3.794 -0.4896 -0.1964  0.2509
  240POPC   D2A 3247   5.821   6.967   4.256  0.0454 -0.0384 -0.1707
  240POPC   C3A 3248   6.015   7.183   4.464 -0.4147  0.0912  0.0163
  240POPC   C4A 3249   6.278   7.482   4.328 -0.0794  0.0138 -0.3424
  240POPC   C1B 3250   5.256   6.844   3.582  0.3589  0.1680 -0.3319
  240POPC   C2B 3251   4.928   6.572   3.845 -0.1262 -0.2296 -0.3597
  240POPC   C3B 3252   5.084   6.442   4.227  0.1154  0.2175 -0.1529
  240POPC   C4B 3253   5.193   6.205   4.621 -0.1047  0.0029 -0.1806
  241POPC   NC3 3254   5.339   1.703   3.768  0.3975 -0.2201 -0.2752
  241POPC   PO4 3255   4.902   1.441   3.734  0.0409  0.1885  0.1762
  241POPC   GL1 3256   4.849   1.232   4.076  0.0345 -0.3807 -0.0889
  241POPC   GL2 3257   4.664   0.924   4.070  0.3905 -0.0774  0.2835
  241POPC   C1A 3258   4.594   1.166   4.532  0.1181 -0.0267  0.2039
  241POPC   D2A 3259   4.361   1.441   4.770 -0.2098 -0.1228  0.0615
  241POPC   C3A 3260   4.417   1.335   5.239 -0.0323  0.0336  0.0594
  241POPC   C4A 3261   4.512   1.587   5.608  0.1364  0.0863 -0.0875
  241POPC   C1B 3262   4.672   0.675   4.441 -0.4542  0.0049 -0.1985
  241POPC   C2B 3263   4.396   0.488   4.749 -0.0314 -0.2971  0.4393
  241POPC   C3B 3264   4.194   0.256   5.051 -0.0298 -0.1392  0.3979
  241POPC   C4B 3265   3.970   0.428   5.372 -0.0590  0.0854 -0.1214
  242POPC   NC3 3266   6.104   4.143   2.930 -0.1820  0.4059 -0.0446
  242POPC   PO4 3267   6.075   3.915   3.348  0.1791  0.2352 -0.0197
  242POPC   GL1 3268   6.001   4.053   3.726  0.2467 -0.2134 -0.2015
  242POPC   GL2 3269   6.232   4.023   3.885  0.1605 -0.0814 -0.0440
  242POPC   C1A 3270   5.792   4.236   4.115  0.3350  0.1365 -0.3151
  242POPC   D2A 3271   5.542   4.514   4.403 -0.1705  0.1479 -0.2157
  242POPC   C3A 3272   5.850   4.624   4.729 -0.0447 -0.2625 -0.4460
  242POPC   C4A 3273   5.915   4.757   5.142  0.1691 -0.1921 -0.0171
  242POPC   C1B 3274   6.655   4.028   4.102  0.0943 -0.0266 -0.1848
  242POPC   C2B 3275   6.754   4.220   4.463 -0.3735  0.2510 -0.0050
  242POPC   C3B 3276   6.868   4.282   4.817 -0.0308 -0.0485 -0.1880
  242POPC   C4B 3277   7.311   4.502   4.943  0.0505 -0.1737 -0.0481
  243POPC   NC3 3278   1.317   1.151   3.885 -0.1441 -0.1778 -0.0252
  243POPC   PO4 3279   0.949   1.072   3.629 -0.0897 -0.1217  0.3783
  243POPC   GL1 3280   0.940   0.901   4.028  0.0366 -0.1601  0.2175
  243POPC   GL2 3281   0.762   0.675   4.218 -0.2603  0.1097 -0.0505
  243POPC   C1A 3282   1.207   0.809   4.481 -0.1048 -0.1772 -0.3708
  243POPC   D2A 3283   1.208   0.662   4.940 -0.1143  0.1782  0.0131
  243POPC   C3A 3284   1.469   0.792   5.309 -0.1995 -0.0813 -0.2099
  243POPC   C4A 3285   1.440   0.675   5.807 -0.1942  0.4336  0.1639
  243POPC   C1B 3286   0.710   0.552   4.701  0.0613  0.3741 -0.1902
  243POPC   C2B 3287   0.528   0.639   5.103 -0.0245  0.0104 -0.3607
  243POPC   C3B 3288   0.440   0.870   5.392 -0.2131  0.1976 -0.1131
  243POPC   C4B 3289   0.128   0.905   5.732 -0.1132  0.1751  0.0185
  244POPC   NC3 3290   3.769   0.791   3.574 -0.2780 -0.1151 -0.3938
  244POPC   PO4 3291   3.965   1.175   3.612  0.1633 -0.2436 -0.2256
  244POPC   GL1 3292   3.777   1.184   4.112  0.0367  0.1411  0.0215
  244POPC   GL2 3293   4.130   1.230   4.299 -0.1145 -0.2668 -0.1772
  244POPC   C1A 3294   3.625   1.520   4.354  0.1338 -0.0541  0.3021
  244POPC   D2A 3295   3.302   1.652   4.607 -0.3778  0.2018 -0.0969
  244POPC   C3A 3296   3.254   1.400   4.925  0.0369 -0.1404 -0.1380
  244POPC   C4A 3297   3.279   1.144   5.335 -0.0365  0.3504 -0.1429
  244POPC   C1B 3298   4.034   0.981   4.571 -0.0402 -0.3788 -0.2394
  244POPC   C2B 3299   4.052   1.113   5.007 -0.0098  0.1218 -0.2638
  244POPC   C3B 3300   4.065   0.916   5.349 -0.3095  0.2451  0.0885
  244POPC   C4B 3301   4.000   0.895   5.696 -0.2456  0.3048 -0.3664
  245POPC   NC3 3302   7.670   1.994   3.733  0.1380  0.1733  0.2152
  245POPC   PO4 3303   7.746   1.587   4.003 -0.0506 -0.1703  0.2063
  245POPC   GL1 3304   7.999   1.523   4.380  0.1864  0.1436 -0.2694
  245POPC   GL2 3305   8.363   1.381   4.462 -0.0342  0.3947 -0.0720
  245POPC   C1A 3306   7.979   1.540   4.838  0.1716 -0.4377 -0.3181
  245POPC   D2A 3307   7.906   1.749   5.204 -0.0339  0.3555  0.1067
  245POPC   C3A 3308   7.624   2.018   5.469 -0.1567  0.1249 -0.0436
  245POPC   C4A 3309   7.458   2.199   5.862  0.1741  0.0747 -0.0751
  245POPC   C1B 3310   8.415   1.331   4.957  0.1246  0.5239 -0.1930
  245POPC   C2B 3311   8.425   1.004   5.236  0.1408 -0.1365  0.0034
  245POPC   C3B 3312   8.594   1.023   5.664  0.0727  0.1122 -0.1303
  245POPC   C4B 3313   8.822   1.223   5.943 -0.0363 -0.2609  0.1283
  246POPC   NC3 3314   0.066   6.995   3.172  0.1105  0.2019 -0.2887
  246POPC   PO4 3315  -0.189   7.162   3.519 -0.1129  0.0054 -0.0578
  246POPC   GL1 3316  -0.162   7.400   3.851 -0.0764  0.1819  0.2410
  246POPC   GL2 3317   0.209   7.421   3.893 -0.0809 -0.1138  0.2687
  246POPC   C1A 3318  -0.153   7.718   4.204  0.1021 -0.2921 -0.2936
  246POPC   D2A 3319  -0.132   7.650   4.665 -0.0821  0.0602  0.1048
  246POPC   C3A 3320   0.196   8.000   4.816 -0.3220 -0.0549 -0.0928
  246POPC   C4A 3321   0.628   7.984   4.896 -0.0741 -0.0110 -0.3211
  246POPC   C1B 3322   0.365   7.510   4.308 -0.2351 -0.0223 -0.0505
  246POPC   C2B 3323   0.398   7.536   4.726  0.0401  0.2225 -0.2010
  246POPC   C3B 3324   0.275   7.657   5.149 -0.1253 -0.1158 -0.0809
  246POPC   C4B 3325   0.304   8.029   5.439 -0.2491  0.0535 -0.2225
  247POPC   NC3 3326   5.027   5.961   3.102  0.0403  0.0525  0.1224
  247POPC   PO4 3327   5.122   5.527   3.244 -0.2648 -0.1052 -0.0163
  247POPC   GL1 3328   5.213   5.373   3.650 -0.1923 -0.0576 -0.0395
  247POPC   GL2 3329   5.126   5.564   3.859 -0.2645 -0.0476 -0.1761
  247POPC   C1A 3330   5.625   5.305   3.947 -0.0480  0.0083 -0.3328
  247POPC   D2A 3331   5.923   5.614   4.021  0.1482 -0.1477  0.0135
  247POPC   C3A 3332   6.087   5.706   4.348  0.0573 -0.1765 -0.0789
  247POPC   C4A 3333   6.342   5.597   4.631 -0.0407  0.1027 -0.0182
  247POPC   C1B 3334   5.453   5.578   4.286 -0.0234 -0.1139 -0.1481
  247POPC   C2B 3335   5.789   5.458   4.657  0.0302 -0.0476 -0.0754
  247POPC   C3B 3336   5.696   5.227   4.927 -0.1791 -0.1836  0.1247
  247POPC   C4B 3337   5.287   5.255   5.169 -0.0463  0.0931 -0.1914
  248POPC   NC3 3338   6.912   3.330   3.481  0.0439 -0.2344  0.0229
  248POPC   PO4 3339   6.616   3.336   3.802  0.0460 -0.0302 -0.2411
  248POPC   GL1 3340   6.528   3.540   4.071  0.1600  0.0085 -0.0961
  248POPC   GL2 3341   6.902   3.658   4.314  0.2009 -0.0130  0.2218
  248POPC   C1A 3342   6.386   3.754   4.400 -0.0064 -0.1409  0.0354
  248POPC   D2A 3343   6.162   3.739   4.901  0.4054  0.2505  0.0010
  248POPC   C3A 3344   5.659   3.689   4.970 -0.1593 -0.0116 -0.0443
  248POPC   C4A 3345   5.232   3.617   5.011 -0.0402 -0.1099  0.0529
  248POPC   C1B 3346   6.782   3.795   4.745 -0.0863  0.2788  0.3965
  248POPC   C2B 3347   6.822   3.832   5.164 -0.1400  0.0959  0.0777
  248POPC   C3B 3348   6.682   4.010   5.616  0.1939 -0.0460  0.2166
  248POPC   C4B 3349   6.673   4.005   6.025  0.0834  0.1456  0.2141
  249POPC   NC3 3350   4.783   2.471   3.599 -0.0157  0.0487 -0.0781
  249POPC   PO4 3351   4.665   2.238   4.068  0.0835 -0.3525  0.0733
  249POPC   GL1 3352   4.892   2.276   4.444  0.0326 -0.2058 -0.0587
  249POPC   GL2 3353   4.853   2.639   4.370  0.3262  0.1696 -0.1309
  249POPC   C1A 3354   5.128   2.051   4.791  0.0411 -0.0372 -0.2419
  249POPC   D2A 3355   5.099   2.075   5.265  0.0325  0.2575  0.2844
  249POPC   C3A 3356   4.687   2.143   5.507  0.0019  0.0032  0.1810
  249POPC   C4A 3357   4.548   2.556   5.637  0.1794  0.1240 -0.0975
  249POPC   C1B 3358   4.722   2.659   4.744 -0.0654 -0.3236 -0.0360
  249POPC   C2B 3359   4.833   2.536   5.255  0.2962 -0.3285  0.3435
  249POPC   C3B 3360   5.101   2.734   5.552  0.3046  0.3183  0.3643
  249POPC   C4B 3361   5.481   2.868   5.581  0.0329  0.1919  0.1570
  250POPC   NC3 3362   2.103   2.167   4.160 -0.1442 -0.3250  0.0292
  250POPC   PO4 3363   2.274   1.819   4.214 -0.2078 -0.0278  0.1252
  250POPC   GL1 3364   2.127   1.932   4.590 -0.1792 -0.0884 -0.2131
  250POPC   GL2 3365   1.902   2.046   4.586  0.0485 -0.0438 -0.0552
  250POPC   C1A 3366   2.169   1.660   5.043  0.1770 -0.0641 -0.1226
  250POPC   D2A 3367   2.418   1.612   5.397 -0.0313 -0.2383 -0.2731
  250POPC   C3A 3368   2.478   1.194   5.558  0.1373 -0.3404  0.0070
  250POPC   C4A 3369   2.939   1.037   5.691 -0.2685 -0.3386 -0.0217
  250POPC   C1B 3370   1.852   2.304   4.902  0.2888  0.0833 -0.1106
  250POPC   C2B 3371   1.796   2.680   5.088 -0.0946 -0.0909  0.0271
  250POPC   C3B 3372   1.934   3.008   5.263  0.1574 -0.0061 -0.4888
  250POPC   C4B 3373   2.074   3.433   5.046 -0.2528 -0.0478  0.1052
  251POPC   NC3 3374   1.235   8.182   3.214 -0.3076 -0.1053  0.1308
  251POPC   PO4 3375   1.539   7.899   3.483  0.3370 -0.2995  0.2055
  251POPC   GL1 3376   1.574   7.983   3.865 -0.2708  0.0900  0.3754
  251POPC   GL2 3377   1.641   8.339   4.014  0.1438 -0.0848 -0.3667
  251POPC   C1A 3378   1.624   7.828   4.309 -0.4113  0.3338  0.1235
  251POPC   D2A 3379   1.637   7.968   4.787  0.0658 -0.2862 -0.0181
  251POPC   C3A 3380   1.394   7.629   5.084 -0.0814 -0.1360  0.0023
  251POPC   C4A 3381   1.167   7.249   5.339 -0.4062  0.1315 -0.2010
  251POPC   C1B 3382   1.441   8.285   4.363 -0.5192  0.0553 -0.1124
  251POPC   C2B 3383   0.966   8.333   4.591 -0.3197 -0.4164 -0.1176
  251POPC   C3B 3384   0.947   8.455   5.035  0.1835 -0.1267  0.0913
  251POPC   C4B 3385   0.970   8.706   5.479 -0.0173 -0.2764  0.1956
  252POPC   NC3 3386   2.113   8.650   3.176  0.1824  0.0087 -0.1532
  252POPC   PO4 3387   1.754   8.840   3.370  0.1093 -0.0451  0.2155
  252POPC   GL1 3388   1.674   8.888   3.846  0.2200 -0.2646 -0.1700
  252POPC   GL2 3389   1.939   8.852   3.971 -0.1112 -0.0538 -0.0333
  252POPC   C1A 3390   1.219   8.602   4.063  0.0601  0.0510  0.0541
  252POPC   D2A 3391   0.834   8.308   4.120 -0.0323 -0.1624  0.3666
  252POPC   C3A 3392   0.620   8.032   4.385  0.0707  0.2012 -0.0254
  252POPC   C4A 3393   0.319   8.032   4.282  0.1278  0.2361 -0.1190
  252POPC   C1B 3394   1.833   8.689   4.364  0.1049 -0.2114  0.1386
  252POPC   C2B 3395   1.814   8.500   4.849  0.3871 -0.2613  0.2117
  252POPC   C3B 3396   1.794   8.478   5.297 -0.2792 -0.5253 -0.1281
  252POPC   C4B 3397   1.458   8.517   5.606 -0.0051 -0.3198 -0.2305
  253POPC   NC3 3398   1.630   0.548   3.057  0.0131 -0.0794  0.1156
  253POPC   PO4 3399   1.742   0.507   3.421 -0.1363 -0.0692 -0.0911
  253POPC   GL1 3400   1.915   0.372   3.873 -0.0214  0.1335  0.1934
  253POPC   GL2 3401   2.093   0.056   3.942 -0.0503 -0.0652  0.0110
  253POPC   C1A 3402   2.079   0.433   4.245 -0.4882 -0.1667 -0.0225
  253POPC   D2A 3403   2.037   0.236   4.681 -0.1550 -0.1061  0.2109
  253POPC   C3A 3404   1.625   0.108   4.662 -0.0493 -0.0730  0.1131
  253POPC   C4A 3405   1.257   0.203   4.685  0.1698 -0.2747  0.1183
  253POPC   C1B 3406   2.305  -0.057   4.328  0.1832  0.0437  0.0877
  253POPC   C2B 3407   2.253  -0.246   4.715  0.4201  0.0463  0.1894
  253POPC   C3B 3408   2.196  -0.558   4.975 -0.2224 -0.2442 -0.1141
  253POPC   C4B 3409   1.911  -0.498   5.382 -0.2167  0.0775 -0.0093
  254POPC   NC3 3410   7.515   1.149   3.865  0.0242  0.2339 -0.0599
  254POPC   PO4 3411   7.943   1.149   3.729  0.0733  0.1443  0.1556
  254POPC   GL1 3412   7.976   1.006   4.144  0.2722 -0.2325  0.0361
  254POPC   GL2 3413   8.313   0.926   4.209  0.1071 -0.0795  0.0326
  254POPC   C1A 3414   7.686   1.121   4.491  0.2713  0.0352  0.1827
  254POPC   D2A 3415   7.322   1.196   4.794 -0.1372 -0.0091  0.3227
  254POPC   C3A 3416   7.196   1.167   5.264  0.0302  0.1343 -0.1040
  254POPC   C4A 3417   7.080   0.732   5.574  0.1800 -0.0756  0.0307
  254POPC   C1B 3418   8.134   0.935   4.642 -0.3644 -0.3754 -0.0880
  254POPC   C2B 3419   7.926   1.075   4.990  0.1194 -0.1775 -0.2786
  254POPC   C3B 3420   7.677   1.284   5.289  0.1002  0.1412  0.0964
  254POPC   C4B 3421   7.706   1.403   5.729 -0.1537  0.0841  0.1747
  255POPC   NC3 3422   1.484   2.890   4.243  0.1405  0.4430 -0.0109
  255POPC   PO4 3423   1.546   2.298   4.211  0.0159 -0.2679  0.1055
  255POPC   GL1 3424   1.421   2.376   4.625 -0.1080 -0.0010  0.2714
  255POPC   GL2 3425   1.506   2.696   4.699  0.3711  0.0398 -0.0831
  255POPC   C1A 3426   1.369   2.321   5.046 -0.1592  0.0738 -0.1810
  255POPC   D2A 3427   1.270   2.553   5.251  0.1085  0.0242 -0.0033
  255POPC   C3A 3428   1.492   2.723   5.602  0.0284 -0.1468 -0.0667
  255POPC   C4A 3429   1.728   2.586   6.008  0.2058 -0.2588  0.0429
  255POPC   C1B 3430   1.330   2.952   4.911 -0.4417 -0.0903 -0.3798
  255POPC   C2B 3431   1.191   3.053   5.317 -0.1584 -0.2660 -0.2049
  255POPC   C3B 3432   1.531   3.277   5.562 -0.0186 -0.1833 -0.3540
  255POPC   C4B 3433   1.971   3.490   5.594  0.1264 -0.2079 -0.2588
  256POPC   NC3 3434   8.944   4.021   3.575  0.1582 -0.0110  0.2062
  256POPC   PO4 3435   9.292   3.901   3.770  0.0198  0.0935 -0.1363
  256POPC   GL1 3436   9.058   4.038   4.145 -0.1560  0.0249  0.1785
  256POPC   GL2 3437   9.215   4.295   4.248 -0.0179  0.1818 -0.0021
  256POPC   C1A 3438   8.881   3.894   4.445 -0.0526  0.0242 -0.0743
  256POPC   D2A 3439   8.655   4.096   4.760 -0.1089 -0.1262  0.2217
  256POPC   C3A 3440   8.800   4.055   5.103  0.1377  0.2266 -0.0244
  256POPC   C4A 3441   8.971   4.141   5.489 -0.2450 -0.0742 -0.0405
  256POPC   C1B 3442   9.093   4.343   4.660  0.0725 -0.2613  0.1252
  256POPC   C2B 3443   9.111   4.453   5.033 -0.1943 -0.1532  0.0397
  256POPC   C3B 3444   9.018   4.830   5.177 -0.1817 -0.2734 -0.1047
  256POPC   C4B 3445   8.912   4.976   5.585 -0.0063 -0.1159 -0.0330
  257POPC   NC3 3446   3.396   9.709   3.617  0.0236 -0.1171  0.0747
  257POPC   PO4 3447   3.826   9.848   3.592 -0.1027  0.0093 -0.2942
  257POPC   GL1 3448   3.682   9.895   3.963  0.0020 -0.1429 -0.1243
  257POPC   GL2 3449   3.484   9.756   4.132  0.2216  0.1417  0.1839
  257POPC   C1A 3450   3.876   9.969   4.379  0.1180 -0.0371  0.0575
  257POPC   D2A 3451   3.970  10.219   4.645  0.0901 -0.2104 -0.1877
  257POPC   C3A 3452   3.782  10.681   4.867  0.0033 -0.1038 -0.2293
  257POPC   C4A 3453   3.270  10.839   4.884 -0.1008 -0.1159  0.1658
  257POPC   C1B 3454   3.431   9.783   4.524  0.2687 -0.3007 -0.1282
  257POPC   C2B 3455   3.372   9.772   4.942 -0.1832 -0.0230  0.1280
  257POPC   C3B 3456   3.490   9.793   5.386  0.2284 -0.2396  0.0414
  257POPC   C4B 3457   3.760   9.991   5.649 -0.0717 -0.0139 -0.2212
  258POPC   NC3 3458   5.726   8.727   3.810  0.0165  0.2404  0.4334
  258POPC   PO4 3459   6.001   8.441   3.485 -0.2070 -0.0414 -0.0816
  258POPC   GL1 3460   6.161   8.375   3.910 -0.2469 -0.3312  0.1749
  258POPC   GL2 3461   5.995   8.489   4.230  0.0771 -0.2372  0.2928
  258POPC   C1A 3462   6.459   8.422   4.323  0.0365 -0.4034 -0.2031
  258POPC   D2A 3463   6.701   8.230   4.642  0.0180 -0.1378  0.0046
  258POPC   C3A 3464   7.001   8.177   4.936 -0.1031 -0.1058  0.0461
  258POPC   C4A 3465   7.375   8.184   5.254  0.1981  0.2145  0.1465
  258POPC   C1B 3466   5.911   8.296   4.545 -0.2601 -0.1669  0.2011
  258POPC   C2B 3467   6.159   8.286   4.883  0.3573 -0.1241  0.0985
  258POPC   C3B 3468   6.478   8.118   5.112  0.0477 -0.1407  0.1027
  258POPC   C4B 3469   6.780   8.111   5.414  0.0351  0.1581 -0.1987
  259POPC   NC3 3470   9.584   4.230   3.520 -0.0336  0.1798 -0.0045
  259POPC   PO4 3471   9.532   4.658   3.471 -0.1849 -0.4720  0.1094
  259POPC   GL1 3472   9.711   4.626   3.931 -0.2058 -0.1011 -0.2169
  259POPC   GL2 3473   9.674   4.335   4.103 -0.1419 -0.1180  0.4447
  259POPC   C1A 3474   9.481   4.873   4.255  0.0064 -0.0919 -0.0380
  259POPC   D2A 3475   9.328   5.232   4.337 -0.2582  0.2966 -0.1112
  259POPC   C3A 3476   9.224   5.367   4.683  0.0546 -0.0518 -0.1267
  259POPC   C4A 3477   9.371   5.270   5.029 -0.0961 -0.2459 -0.1014
  259POPC   C1B 3478   9.626   4.419   4.491 -0.1220  0.2917 -0.1264
  259POPC   C2B 3479   9.840   4.767   4.624  0.4262  0.2120 -0.1893
  259POPC   C3B 3480   9.777   5.286   4.596 -0.2047 -0.2650 -0.2319
  259POPC   C4B 3481   9.992   5.551   4.737 -0.2508  0.0240 -0.3653
  260POPC   NC3 3482   5.113   8.542   3.791  0.1377  0.1672  0.0217
  260POPC   PO4 3483   4.780   8.548   3.998 -0.0126  0.0315  0.0293
  260POPC   GL1 3484   4.857   8.592   4.384  0.3217  0.1835 -0.0827
  260POPC   GL2 3485   4.638   8.555   4.563 -0.1240  0.2572 -0.4034
  260POPC   C1A 3486   5.125   8.860   4.584 -0.1335 -0.0090  0.2451
  260POPC   D2A 3487   5.031   9.128   4.945 -0.1251  0.0896  0.1459
  260POPC   C3A 3488   5.339   9.264   5.229  0.1282 -0.0005  0.3081
  260POPC   C4A 3489   5.319   9.236   5.684 -0.4622 -0.2908  0.0401
  260POPC   C1B 3490   4.752   8.672   5.040  0.1592 -0.1387 -0.2760
  260POPC   C2B 3491   4.660   8.546   5.426  0.0630 -0.2999 -0.1216
  260POPC   C3B 3492   4.368   8.649   5.740 -0.2559 -0.2556 -0.1261
  260POPC   C4B 3493   4.339   8.734   6.192 -0.0650  0.1804  0.1576
  261POPC   NC3 3494   1.006   3.433   3.621  0.0608  0.1981 -0.0914
  261POPC   PO4 3495   1.406   3.564   3.908 -0.1014  0.2165 -0.0762
  261POPC   GL1 3496   1.218   3.469   4.348  0.2987  0.0232 -0.0885
  261POPC   GL2 3497   0.775   3.453   4.458  0.0393  0.0123 -0.0193
  261POPC   C1A 3498   1.519   3.539   4.696 -0.0383  0.1228 -0.1326
  261POPC   D2A 3499   1.466   3.408   5.070  0.0876 -0.1136  0.0649
  261POPC   C3A 3500   1.610   3.764   5.276 -0.0295  0.3151 -0.2110
  261POPC   C4A 3501   1.754   4.194   5.153 -0.0963 -0.0175  0.2340
  261POPC   C1B 3502   1.023   3.366   4.884 -0.2143  0.0112 -0.2842
  261POPC   C2B 3503   1.107   3.531   5.432 -0.1424  0.1542 -0.0942
  261POPC   C3B 3504   1.185   3.770   5.790 -0.0074  0.0910  0.2480
  261POPC   C4B 3505   1.015   4.219   5.781  0.1441  0.1073  0.0181
  262POPC   NC3 3506   4.927   0.446   3.843 -0.1183  0.0846  0.0149
  262POPC   PO4 3507   4.498   0.435   3.858 -0.3538  0.4991 -0.0679
  262POPC   GL1 3508   4.665   0.198   4.257 -0.1119 -0.2332 -0.2694
  262POPC   GL2 3509   4.861  -0.076   4.225  0.1377  0.1350  0.2456
  262POPC   C1A 3510   4.580   0.027   4.686  0.0937  0.1540  0.2971
  262POPC   D2A 3511   4.698   0.218   5.046 -0.3635 -0.0680  0.0263
  262POPC   C3A 3512   4.709  -0.046   5.347  0.1606 -0.0365 -0.3230
  262POPC   C4A 3513   4.571   0.073   5.822 -0.1218  0.2934 -0.1913
  262POPC   C1B 3514   5.057  -0.071   4.568  0.2111 -0.0684 -0.1895
  262POPC   C2B 3515   5.027  -0.170   4.954 -0.0594 -0.0366  0.1091
  262POPC   C3B 3516   5.157  -0.246   5.346  0.0743 -0.4237 -0.0575
  262POPC   C4B 3517   5.081  -0.190   5.796 -0.0900 -0.0525 -0.1647
  263POPC   NC3 3518   3.836   8.971   3.164  0.3552 -0.3014 -0.1962
  263POPC   PO4 3519   3.579   8.864   3.452 -0.2263  0.0673  0.0344
  263POPC   GL1 3520   3.600   8.830   3.837  0.0593  0.0152 -0.1164
  263POPC   GL2 3521   3.896   9.053   4.044 -0.2045 -0.0327  0.1194
  263POPC   C1A 3522   3.433   8.867   4.332 -0.2612 -0.5391  0.1568
  263POPC   D2A 3523   3.385   8.830   4.766  0.3029  0.3241 -0.0168
  263POPC   C3A 3524   3.601   8.679   5.076 -0.0772 -0.0126 -0.1786
  263POPC   C4A 3525   3.902   8.945   5.404 -0.2300  0.0873 -0.3168
  263POPC   C1B 3526   4.254   9.117   4.418  0.0060 -0.2938 -0.1699
  263POPC   C2B 3527   4.541   9.010   4.785  0.1058 -0.2913 -0.3449
  263POPC   C3B 3528   4.277   8.689   5.075 -0.0208 -0.0984  0.0822
  263POPC   C4B 3529   4.143   8.400   5.368  0.1064  0.2580 -0.1815
  264POPC   NC3 3530   8.645   3.283   3.700  0.0985 -0.0202  0.1692
  264POPC   PO4 3531   8.349   3.620   3.764  0.2171  0.1645  0.3219
  264POPC   GL1 3532   8.386   3.641   4.230  0.1740 -0.0185  0.2522
  264POPC   GL2 3533   8.089   3.735   4.182  0.0730 -0.0382  0.1023
  264POPC   C1A 3534   8.310   3.730   4.682 -0.1478  0.0254 -0.1291
  264POPC   D2A 3535   8.390   3.600   5.076  0.1158 -0.1077  0.0386
  264POPC   C3A 3536   8.488   3.820   5.462  0.1236  0.2384 -0.0937
  264POPC   C4A 3537   8.776   3.726   5.714  0.0518  0.2900 -0.1641
  264POPC   C1B 3538   7.939   3.381   4.551 -0.1163 -0.1731 -0.0900
  264POPC   C2B 3539   7.802   3.018   4.605 -0.3794 -0.0181 -0.0070
  264POPC   C3B 3540   8.065   2.753   4.816 -0.1300  0.0477 -0.1580
  264POPC   C4B 3541   8.282   2.458   4.708 -0.1330 -0.1863  0.3486
  265POPC   NC3 3542   1.935   6.746   3.301 -0.0476  0.1012 -0.0125
  265POPC   PO4 3543   1.780   6.960   3.644 -0.1737 -0.0196 -0.0350
  265POPC   GL1 3544   1.651   7.053   4.070 -0.1581 -0.1942 -0.1216
  265POPC   GL2 3545   1.799   7.302   4.225  0.0257 -0.3579  0.0854
  265POPC   C1A 3546   1.284   6.878   4.334  0.1672 -0.1771 -0.0499
  265POPC   D2A 3547   0.850   7.013   4.452  0.1494 -0.0657  0.3079
  265POPC   C3A 3548   0.630   7.093   4.806  0.0992  0.0923  0.0584
  265POPC   C4A 3549   0.777   6.980   5.219  0.4147  0.0368 -0.1380
  265POPC   C1B 3550   1.849   7.007   4.541 -0.2865  0.1363 -0.1038
  265POPC   C2B 3551   2.067   6.826   4.890  0.1204 -0.0173 -0.3970
  265POPC   C3B 3552   2.023   6.635   5.335  0.2229  0.1077  0.2420
  265POPC   C4B 3553   1.756   6.558   5.666  0.0250  0.0587  0.2929
  266POPC   NC3 3554   1.024   9.026   3.470 -0.4059 -0.1720  0.2500
  266POPC   PO4 3555   0.876   9.447   3.290  0.3392 -0.0193 -0.2441
  266POPC   GL1 3556   1.016   9.445   3.734  0.0465  0.0269  0.3045
  266POPC   GL2 3557   1.019   9.755   3.890 -0.1098 -0.0043 -0.1242
  266POPC   C1A 3558   1.360   9.322   4.036  0.1017 -0.3525 -0.2724
  266POPC   D2A 3559   1.398   8.994   4.310 -0.2691  0.1528  0.1223
  266POPC   C3A 3560   1.293   8.741   4.706  0.1224 -0.0834 -0.4144
  266POPC   C4A 3561   1.357   8.751   5.187  0.2087  0.0475  0.1178
  266POPC   C1B 3562   0.906   9.535   4.239  0.0202  0.1785  0.1903
  266POPC   C2B 3563   0.967   9.328   4.552 -0.1694  0.1582 -0.0692
  266POPC   C3B 3564   1.349   9.256   4.798  0.1198 -0.0431 -0.3312
  266POPC   C4B 3565   1.620   9.021   4.926 -0.1681 -0.0085 -0.0298
  267POPC   NC3 3566   2.858   0.979   3.261 -0.2878 -0.2132  0.0598
  267POPC   PO4 3567   2.894   0.694   3.677  0.0887  0.1764 -0.2538
  267POPC   GL1 3568   3.060   0.587   3.996  0.1875  0.2561 -0.1240
  267POPC   GL2 3569   2.869   0.216   3.986 -0.2667 -0.2431  0.3302
  267POPC   C1A 3570   3.094   0.607   4.421 -0.0745 -0.1096  0.2749
  267POPC   D2A 3571   2.860   0.627   4.894  0.4273  0.1151 -0.1870
  267POPC   C3A 3572   3.095   0.624   5.328  0.0637  0.0034  0.0401
  267POPC   C4A 3573   3.272   0.361   5.621  0.0089 -0.0660 -0.1299
  267POPC   C1B 3574   2.997   0.146   4.452  0.1180  0.2643 -0.0378
  267POPC   C2B 3575   2.994   0.100   4.913  0.1981 -0.0302 -0.1459
  267POPC   C3B 3576   2.749   0.270   5.280 -0.1788 -0.1262  0.1640
  267POPC   C4B 3577   2.637   0.146   5.703  0.2410 -0.2440 -0.1065
  268POPC   NC3 3578   5.921   1.795   3.862 -0.1714 -0.3094  0.1852
  268POPC   PO4 3579   5.662   2.161   3.801 -0.0772  0.1985  0.1649
  268POPC   GL1 3580   5.541   1.892   4.146 -0.0724 -0.0429 -0.4697
  268POPC   GL2 3581   5.440   2.086   4.389  0.0578  0.3072  0.0356
  268POPC   C1A 3582   5.685   1.658   4.509 -0.2299  0.0789  0.0094
  268POPC   D2A 3583   5.697   1.701   4.918 -0.2239  0.1236  0.2752
  268POPC   C3A 3584   5.588   1.956   5.205 -0.1547 -0.1059  0.0984
  268POPC   C4A 3585   5.406   1.804   5.690 -0.1980  0.0630  0.0991
  268POPC   C1B 3586   5.653   2.195   4.777 -0.1879 -0.0974  0.1064
  268POPC   C2B 3587   5.942   2.240   5.173 -0.2206 -0.2789 -0.0474
  268POPC   C3B 3588   6.055   1.952   5.472  0.0161  0.0184  0.1239
  268POPC   C4B 3589   5.871   1.741   5.829  0.0793  0.2472  0.3852
  269POPC   NC3 3590   6.615   9.287   3.790  0.1943 -0.1779 -0.0088
  269POPC   PO4 3591   6.809   9.723   3.817 -0.0466 -0.2737 -0.3886
  269POPC   GL1 3592   6.832   9.691   4.273 -0.2113  0.2392 -0.0228
  269POPC   GL2 3593   6.701  10.002   4.332 -0.3396 -0.0982  0.1906
  269POPC   C1A 3594   6.656   9.558   4.713 -0.2826  0.0910  0.1231
  269POPC   D2A 3595   6.546   9.143   4.830  0.0449  0.0804 -0.0258
  269POPC   C3A 3596   6.443   9.159   5.258 -0.3566  0.2378 -0.3166
  269POPC   C4A 3597   6.759   9.033   5.575  0.2549 -0.0574 -0.1733
  269POPC   C1B 3598   6.556  10.063   4.637 -0.2553 -0.3548  0.0235
  269POPC   C2B 3599   6.293   9.840   4.907 -0.2891 -0.0733 -0.0717
  269POPC   C3B 3600   6.284   9.700   5.282  0.0875  0.1828 -0.3565
  269POPC   C4B 3601   6.525   9.530   5.615 -0.0404 -0.1716  0.0275
  270POPC   NC3 3602   4.760   7.898   3.272  0.4853  0.3536 -0.0670
  270POPC   PO4 3603   4.754   8.159   3.663 -0.1457 -0.1992 -0.0366
  270POPC   GL1 3604   5.103   8.022   3.845  0.1029  0.0615 -0.2595
  270POPC   GL2 3605   5.266   8.177   4.100  0.1325 -0.1674  0.2032
  270POPC   C1A 3606   5.260   7.720   4.141  0.2200  0.4511  0.0627
  270POPC   D2A 3607   5.507   7.405   4.284 -0.1322  0.0391  0.1416
  270POPC   C3A 3608   5.897   7.404   4.038  0.2071  0.0918 -0.2103
  270POPC   C4A 3609   6.254   7.025   4.027 -0.2565 -0.5052 -0.2725
  270POPC   C1B 3610   5.404   8.378   4.366 -0.0983 -0.1551  0.0482
  270POPC   C2B 3611   5.222   8.414   4.824  0.2347 -0.1281  0.2356
  270POPC   C3B 3612   5.209   8.680   5.266 -0.0677  0.1422  0.1921
  270POPC   C4B 3613   5.107   8.764   5.653  0.1522 -0.0231  0.0807
  271POPC   NC3 3614   8.138   9.520   3.580  0.2024 -0.2170 -0.1704
  271POPC   PO4 3615   8.320   9.125   3.573  0.2234  0.3853 -0.1258
  271POPC   GL1 3616   8.565   9.329   3.875  0.3848 -0.1297 -0.1520
  271POPC   GL2 3617   8.927   9.292   4.039  0.4250  0.2376  0.1520
  271POPC   C1A 3618   8.416   9.506   4.177  0.0924  0.3397 -0.2077
  271POPC   D2A 3619   7.968   9.581   4.067 -0.5329  0.2766 -0.0545
  271POPC   C3A 3620   7.633   9.618   4.355 -0.0564 -0.1797  0.0240
  271POPC   C4A 3621   7.628   9.575   4.776  0.2130  0.2509  0.0258
  271POPC   C1B 3622   9.052   9.229   4.423  0.3527 -0.0667 -0.0106
  271POPC   C2B 3623   8.957   9.210   4.864 -0.0585  0.0683  0.2987
  271POPC   C3B 3624   8.792   9.183   5.197  0.3370  0.1271 -0.2298
  271POPC   C4B 3625   8.547   8.894   5.472 -0.1419 -0.0165  0.1297
  272POPC   NC3 3626   9.186   8.953   3.606 -0.3037 -0.2149 -0.0321
  272POPC   PO4 3627   9.127   8.541   3.483  0.0452 -0.1931 -0.5494
  272POPC   GL1 3628   9.008   8.103   3.794  0.1982 -0.0642 -0.1770
  272POPC   GL2 3629   8.666   8.087   3.843 -0.1807 -0.0026  0.0517
  272POPC   C1A 3630   8.922   8.096   4.297  0.1734 -0.0453 -0.0587
  272POPC   D2A 3631   8.688   7.830   4.626  0.5576 -0.1529 -0.0541
  272POPC   C3A 3632   8.778   7.912   5.092 -0.5338 -0.0302 -0.0012
  272POPC   C4A 3633   8.742   7.944   5.607 -0.3745  0.1779  0.2398
  272POPC   C1B 3634   8.478   7.784   4.169 -0.0594 -0.3270  0.1636
  272POPC   C2B 3635   8.382   7.442   4.443  0.1462 -0.1364  0.1932
  272POPC   C3B 3636   8.546   7.060   4.513 -0.1585 -0.0085 -0.2434
  272POPC   C4B 3637   8.965   6.961   4.278 -0.3024  0.2191 -0.1501
  273POPC   NC3 3638   6.618   2.509   3.774  0.0342 -0.1315 -0.0703
  273POPC   PO4 3639   6.574   2.925   4.071  0.1564  0.1112  0.3666
  273POPC   GL1 3640   6.655   2.985   4.448  0.1739  0.2974 -0.0224
  273POPC   GL2 3641   6.611   3.252   4.505  0.1495 -0.2094  0.1622
  273POPC   C1A 3642   6.970   3.069   4.836  0.2351 -0.4192  0.1754
  273POPC   D2A 3643   7.248   2.917   5.159  0.0875  0.0678  0.0868
  273POPC   C3A 3644   7.639   3.225   5.060 -0.1500 -0.1928 -0.3125
  273POPC   C4A 3645   7.983   3.354   5.112  0.3412  0.1556 -0.0515
  273POPC   C1B 3646   6.597   3.384   4.952  0.1878  0.0695  0.0106
  273POPC   C2B 3647   6.801   3.264   5.347 -0.2675 -0.0250  0.0345
  273POPC   C3B 3648   7.210   3.178   5.594  0.0082 -0.0507 -0.0953
  273POPC   C4B 3649   7.675   3.070   5.660 -0.0035 -0.2263 -0.0519
  274POPC   NC3 3650   7.801   8.232   3.377 -0.0592  0.0964 -0.1496
  274POPC   PO4 3651   7.614   8.637   3.582  0.0560 -0.3066 -0.3112
  274POPC   GL1 3652   7.787   8.510   3.980  0.0450 -0.2430  0.0792
  274POPC   GL2 3653   8.040   8.265   3.905 -0.2067 -0.1407  0.1183
  274POPC   C1A 3654   7.616   8.731   4.465  0.1047  0.3364  0.0332
  274POPC   D2A 3655   7.574   9.064   4.828 -0.3921 -0.0041  0.0028
  274POPC   C3A 3656   7.669   8.876   5.123 -0.0369 -0.1905  0.0900
  274POPC   C4A 3657   7.674   8.563   5.380 -0.1557 -0.1662  0.0767
  274POPC   C1B 3658   8.492   8.357   4.208 -0.0877 -0.2817 -0.1673
  274POPC   C2B 3659   8.657   8.435   4.530  0.3083 -0.2620  0.2318
  274POPC   C3B 3660   8.965   8.269   4.833  0.1804  0.1622 -0.0787
  274POPC   C4B 3661   9.320   8.307   5.045 -0.0618 -0.1915  0.1049
  275POPC   NC3 3662   6.317   9.913   3.986  0.1722 -0.1489 -0.5179
  275POPC   PO4 3663   6.226   9.561   3.741 -0.2042 -0.0547  0.2885
  275POPC   GL1 3664   5.831   9.666   3.933 -0.1923  0.2061 -0.1531
  275POPC   GL2 3665   5.860  10.034   4.170  0.0322 -0.2009 -0.1294
  275POPC   C1A 3666   5.871   9.422   4.356  0.0220 -0.2556 -0.0781
  275POPC   D2A 3667   6.009   9.451   4.825  0.0019  0.3451 -0.2682
  275POPC   C3A 3668   5.921   9.284   5.156  0.1116 -0.5691  0.1726
  275POPC   C4A 3669   6.107   9.250   5.526  0.1158  0.2318 -0.1205
  275POPC   C1B 3670   5.988  10.067   4.559 -0.2336 -0.0928  0.0712
  275POPC   C2B 3671   5.956  10.299   4.793 -0.3849 -0.2312  0.0354
  275POPC   C3B 3672   5.740  10.551   5.081  0.0143 -0.0906 -0.0757
  275POPC   C4B 3673   5.457  10.749   4.840 -0.1848 -0.2065  0.0559
  276POPC   NC3 3674   1.566   5.154   3.882 -0.0382 -0.0934 -0.0481
  276POPC   PO4 3675   1.919   5.251   4.072  0.2825 -0.2179 -0.3563
  276POPC   GL1 3676   1.714   5.460   4.444  0.4499 -0.0272 -0.0026
  276POPC   GL2 3677   1.539   5.699   4.450 -0.3042  0.0854 -0.0614
  276POPC   C1A 3678   1.551   5.300   4.766  0.2001  0.0343  0.1802
  276POPC   D2A 3679   1.336   5.336   5.246 -0.0347 -0.1519  0.0925
  276POPC   C3A 3680   1.413   5.695   5.407 -0.1098 -0.1327 -0.1779
  276POPC   C4A 3681   1.527   6.029   5.640 -0.0965 -0.3263 -0.1053
  276POPC   C1B 3682   1.287   5.747   4.843  0.1225 -0.2416  0.0531
  276POPC   C2B 3683   1.050   5.862   5.122 -0.2738  0.3917  0.2516
  276POPC   C3B 3684   0.952   5.933   5.584 -0.0977 -0.0551 -0.1522
  276POPC   C4B 3685   1.052   5.937   5.965 -0.0264  0.0910  0.1501
  277POPC   NC3 3686   8.456   7.989   3.012 -0.1715 -0.0556 -0.1932
  277POPC   PO4 3687   8.035   7.770   3.226  0.2071 -0.1205  0.3085
  277POPC   GL1 3688   8.021   7.527   3.516  0.0731 -0.0251 -0.1583
  277POPC   GL2 3689   7.975   7.825   3.779  0.3193  0.0306 -0.2011
  277POPC   C1A 3690   8.383   7.478   3.790  0.2738 -0.1851  0.1709
  277POPC   D2A 3691   8.611   7.221   4.053  0.1223 -0.1188  0.2360
  277POPC   C3A 3692   8.868   7.409   4.366  0.1750 -0.1090  0.0345
  277POPC   C4A 3693   8.944   7.248   4.774 -0.2434 -0.0724 -0.2098
  277POPC   C1B 3694   8.003   7.607   4.152  0.0629 -0.3955  0.3555
  277POPC   C2B 3695   7.953   7.675   4.578 -0.0291  0.4195 -0.0927
  277POPC   C3B 3696   8.005   7.274   4.904 -0.0425 -0.2074 -0.2873
  277POPC   C4B 3697   7.738   6.834   4.988  0.2589  0.2288  0.2200
  278POPC   NC3 3698   3.040   9.506   3.070 -0.2476 -0.0500  0.1061
  278POPC   PO4 3699   2.972   9.536   3.554 -0.1190  0.1174  0.2452
  278POPC   GL1 3700   2.935   9.629   3.987  0.0121 -0.0730  0.2628
  278POPC   GL2 3701   2.638   9.484   4.007  0.1185 -0.2765 -0.0057
  278POPC   C1A 3702   2.839   9.635   4.472 -0.5182  0.1929  0.0896
  278POPC   D2A 3703   2.691   9.560   4.880 -0.1667  0.4209  0.0106
  278POPC   C3A 3704   2.595   9.481   5.327  0.0253 -0.0595 -0.0923
  278POPC   C4A 3705   2.362   9.177   5.491 -0.0021 -0.0475 -0.3233
  278POPC   C1B 3706   2.795   9.147   4.229  0.0089 -0.0719  0.1466
  278POPC   C2B 3707   2.903   8.825   4.557  0.4747  0.0980 -0.1084
  278POPC   C3B 3708   2.782   8.595   4.927  0.0890 -0.0684  0.2509
  278POPC   C4B 3709   2.575   8.401   5.294  0.1261 -0.2884 -0.2878
  279POPC   NC3 3710   4.328   8.417   3.806 -0.4123  0.1953 -0.1908
  279POPC   PO4 3711   4.205   8.631   4.011  0.0208 -0.0512 -0.2950
  279POPC   GL1 3712   3.967   8.681   4.329 -0.0783 -0.0601  0.0671
  279POPC   GL2 3713   4.118   8.455   4.603  0.0475 -0.2635  0.1099
  279POPC   C1A 3714   3.874   8.884   4.709  0.2162  0.1561  0.3911
  279POPC   D2A 3715   4.095   9.196   5.008 -0.0376 -0.0495  0.0845
  279POPC   C3A 3716   4.465   9.062   5.282  0.1552  0.0585 -0.1877
  279POPC   C4A 3717   4.850   9.303   5.363 -0.1520  0.1323 -0.1363
  279POPC   C1B 3718   3.971   8.318   4.934 -0.0781  0.1498  0.0446
  279POPC   C2B 3719   4.068   7.960   5.186  0.2401  0.1709 -0.0300
  279POPC   C3B 3720   4.365   7.943   5.597  0.0617  0.3197 -0.1088
  279POPC   C4B 3721   4.158   8.249   5.852 -0.2837  0.0983 -0.4520
  280POPC   NC3 3722   0.594   2.453   3.696 -0.2120  0.0268 -0.1757
  280POPC   PO4 3723   0.614   2.404   4.096 -0.0195  0.0606 -0.1910
  280POPC   GL1 3724   0.631   2.150   4.504  0.1625 -0.0093 -0.0954
  280POPC   GL2 3725   0.710   1.810   4.381 -0.0653 -0.1413 -0.2030
  280POPC   C1A 3726   0.429   2.189   4.954  0.1010 -0.1555 -0.2251
  280POPC   D2A 3727   0.376   2.408   5.349  0.0634 -0.2124 -0.0462
  280POPC   C3A 3728   0.363   2.151   5.651 -0.0224  0.2718 -0.0990
  280POPC   C4A 3729   0.167   1.684   5.656 -0.1764 -0.2825  0.0541
  280POPC   C1B 3730   0.664   1.724   4.911 -0.1273  0.3016 -0.1324
  280POPC   C2B 3731   0.540   1.840   5.300  0.3111 -0.1656 -0.3264
  280POPC   C3B 3732   0.759   1.816   5.694 -0.0817 -0.0098 -0.0809
  280POPC   C4B 3733   0.776   2.009   6.076 -0.3192 -0.2750 -0.3306
  281POPC   NC3 3734   5.546   2.630   3.776 -0.0389 -0.0619 -0.0819
  281POPC   PO4 3735   6.030   2.534   3.693  0.1118  0.0212  0.3310
  281POPC   GL1 3736   6.228   2.616   4.190 -0.0175  0.1041  0.1263
  281POPC   GL2 3737   6.450   2.414   4.360 -0.2015 -0.0728  0.1628
  281POPC   C1A 3738   6.034   2.765   4.532  0.1221  0.1260 -0.0651
  281POPC   D2A 3739   5.711   2.767   4.842 -0.1936 -0.1592 -0.0374
  281POPC   C3A 3740   5.815   2.812   5.245 -0.2110  0.1056  0.1105
  281POPC   C4A 3741   5.907   3.013   5.708 -0.1342 -0.1080  0.0017
  281POPC   C1B 3742   6.380   2.525   4.793  0.0386 -0.0261  0.3590
  281POPC   C2B 3743   6.324   2.708   5.162 -0.4853 -0.0119  0.0449
  281POPC   C3B 3744   6.446   2.872   5.558  0.0677 -0.0137  0.0396
  281POPC   C4B 3745   6.420   3.211   5.723 -0.2332  0.2815 -0.3733
  282POPC   NC3 3746   4.068   8.843   3.610  0.1973 -0.1834 -0.1583
  282POPC   PO4 3747   3.886   8.479   3.236  0.2862 -0.0145 -0.3177
  282POPC   GL1 3748   3.674   8.400   3.644 -0.0684  0.1215  0.0695
  282POPC   GL2 3749   3.763   8.114   3.883  0.1237  0.3778 -0.0879
  282POPC   C1A 3750   3.406   8.455   4.029 -0.3284  0.1553  0.0762
  282POPC   D2A 3751   3.160   8.433   4.415  0.0431  0.1106  0.4149
  282POPC   C3A 3752   2.693   8.384   4.434  0.1064  0.0729 -0.0178
  282POPC   C4A 3753   2.317   8.502   4.642 -0.1640  0.2729  0.2842
  282POPC   C1B 3754   3.953   8.102   4.291 -0.3246  0.0439 -0.1106
  282POPC   C2B 3755   4.108   7.833   4.665  0.3532  0.0693 -0.3441
  282POPC   C3B 3756   4.438   7.641   4.821  0.1414 -0.3048  0.5698
  282POPC   C4B 3757   4.704   7.323   4.742  0.3071  0.0924  0.1319
  283POPC   NC3 3758   2.501   5.899   3.997 -0.1077  0.0902  0.1275
  283POPC   PO4 3759   2.661   5.484   3.956  0.1584 -0.1523 -0.2812
  283POPC   GL1 3760   2.427   5.549   4.308 -0.0888  0.0102  0.1032
  283POPC   GL2 3761   2.347   5.187   4.309  0.0331  0.1120  0.1857
  283POPC   C1A 3762   2.337   5.580   4.747 -0.2277 -0.0569  0.0119
  283POPC   D2A 3763   2.517   5.689   5.146  0.0174  0.0153  0.0309
  283POPC   C3A 3764   2.235   5.884   5.463  0.1720 -0.1488  0.0875
  283POPC   C4A 3765   1.930   5.793   5.450  0.0433  0.0820  0.3428
  283POPC   C1B 3766   2.174   5.038   4.648 -0.0760  0.0609 -0.3082
  283POPC   C2B 3767   2.074   5.259   4.963  0.0780  0.0556 -0.2404
  283POPC   C3B 3768   1.883   5.315   5.393  0.0121 -0.3983 -0.1750
  283POPC   C4B 3769   1.678   5.533   5.828  0.0143  0.0254  0.1264
  284POPC   NC3 3770   8.925   1.618   3.326 -0.0306 -0.0717  0.1551
  284POPC   PO4 3771   9.023   1.594   3.788 -0.2639 -0.1966  0.1445
  284POPC   GL1 3772   8.895   1.607   4.213  0.1596  0.2140  0.4345
  284POPC   GL2 3773   8.740   1.328   4.127 -0.1644  0.0618 -0.1360
  284POPC   C1A 3774   8.841   1.558   4.602  0.0288  0.0034  0.1287
  284POPC   D2A 3775   9.023   1.702   4.935  0.1186  0.3461  0.1111
  284POPC   C3A 3776   9.392   1.546   4.996  0.1973  0.2331 -0.0305
  284POPC   C4A 3777   9.697   1.387   4.791 -0.0715  0.1230 -0.1742
  284POPC   C1B 3778   8.791   1.095   4.569  0.1431 -0.1621 -0.0323
  284POPC   C2B 3779   9.017   1.127   4.837  0.0048  0.0305 -0.2782
  284POPC   C3B 3780   8.895   1.092   5.271 -0.1940 -0.0013  0.0110
  284POPC   C4B 3781   9.054   0.818   5.601 -0.1956 -0.1046 -0.0212
  285POPC   NC3 3782   7.015   1.190   3.183  0.1183 -0.1442  0.0489
  285POPC   PO4 3783   7.087   1.107   3.574 -0.3290 -0.1489 -0.1607
  285POPC   GL1 3784   7.044   1.062   4.142 -0.0605  0.2821  0.0643
  285POPC   GL2 3785   6.710   1.196   4.089 -0.2729  0.0137  0.0787
  285POPC   C1A 3786   7.242   0.792   4.502 -0.0341  0.0304 -0.1157
  285POPC   D2A 3787   7.215   0.667   5.016 -0.5146 -0.1444  0.2979
  285POPC   C3A 3788   7.192   0.269   5.101  0.4051  0.0767 -0.0552
  285POPC   C4A 3789   7.312  -0.175   5.203 -0.1050  0.0461  0.3208
  285POPC   C1B 3790   6.448   1.253   4.359  0.1398  0.3099 -0.3366
  285POPC   C2B 3791   6.364   1.074   4.780  0.3496 -0.3918 -0.2032
  285POPC   C3B 3792   6.267   0.864   5.058  0.0202 -0.0918 -0.1241
  285POPC   C4B 3793   6.414   0.780   5.439  0.3044  0.2958  0.1169
  286POPC   NC3 3794   2.713   1.723   3.892  0.4169  0.0039  0.0022
  286POPC   PO4 3795   2.351   1.370   4.012  0.1234  0.1604  0.1131
  286POPC   GL1 3796   2.406   1.061   4.291 -0.2508 -0.2261  0.1167
  286POPC   GL2 3797   2.563   0.804   4.129  0.0001 -0.0781 -0.0373
  286POPC   C1A 3798   2.446   0.820   4.680  0.2365 -0.1982  0.0718
  286POPC   D2A 3799   2.270   0.528   4.997  0.1354 -0.4465  0.1604
  286POPC   C3A 3800   1.963   0.797   5.319 -0.2208 -0.1363 -0.1007
  286POPC   C4A 3801   1.851   1.045   5.758  0.4079  0.2346  0.1792
  286POPC   C1B 3802   2.603   0.418   4.394  0.1180  0.1872 -0.4002
  286POPC   C2B 3803   2.520   0.155   4.712  0.0222  0.1733  0.0904
  286POPC   C3B 3804   2.372  -0.033   5.144  0.0823  0.1020 -0.3115
  286POPC   C4B 3805   2.258  -0.174   5.536  0.1946 -0.1910  0.3035
  287W        W 3806   0.771   4.333   9.245  0.0874 -0.1664 -0.0839
  288W        W 3807   4.535   2.104   2.477  0.2315 -0.1852 -0.1009
  289W        W 3808   2.456   6.947  11.819  0.0646  0.0490  0.1469
  290W        W 3809   9.889   7.124   7.463 -0.3507 -0.1150  0.1573
  291W        W 3810   7.181   9.817   3.470  0.1806  0.0880  0.1632
  292W        W 3811   7.696   5.009  10.410 -0.2806  0.1098 -0.0238
  293W        W 3812   8.346   7.497   2.922 -0.1144 -0.0219  0.1479
  294W        W 3813   9.618   3.699   9.071 -0.1065 -0.0318 -0.1706
  295W        W 3814   1.746   7.666  10.945 -0.1826  0.2399  0.4653
  296W        W 3815   6.223   5.276   9.560 -0.1616 -0.3869 -0.2833
  297W        W 3816   0.361   1.673   3.232  0.0995  0.0296 -0.0848
  298W        W 3817   3.943   6.176   3.551 -0.0504 -0.1807 -0.2352
  299W        W 3818   5.265   5.382  11.379  0.0023 -0.0239  0.1355
  300W        W 3819   6.817   0.643   1.726 -0.0835  0.1255 -0.1288
  301W        W 3820   3.547   0.964   2.024  0.0257  0.1515 -0.2982
  302W        W 3821   7.150   7.593  10.832  0.1141  0.1405  0.1957
  303W        W 3822   7.090   0.712   3.275  0.0190 -0.0278 -0.1681
  304W        W 3823   7.131   8.509  10.832  0.1739 -0.0091  0.1699
  305W        W 3824   3.623   4.378   3.246 -0.0994 -0.1102 -0.1333
  306W        W 3825   8.725   1.976  10.551 -0.0985 -0.1971  0.2082
  307W        W 3826   9.180   6.816   0.192  0.2661  0.0894  0.0750
  308W        W 3827   2.777   5.491   0.996  0.0028  0.2883  0.1430
  309W        W 3828   9.161   4.059   0.824 -0.0280  0.1793 -0.0113
  310W        W 3829   4.115   1.226   0.984  0.3592  0.1449 -0.1419
  311W        W 3830   4.086   6.469   3.169  0.2115  0.0783 -0.0670
  312W        W 3831   8.190   9.821  11.727 -0.0267  0.2596 -0.0836
  313W        W 3832   0.083   4.341   2.739  0.4287  0.2700  0.0798
  314W        W 3833   1.550   0.401  11.104 -0.1485 -0.1713 -0.1057
  315W        W 3834   7.077   4.455   2.942 -0.1442 -0.3473 -0.1294
  316W        W 3835   4.843   9.542   8.361  0.1980  0.1718  0.2852
  317W        W 3836   5.685   9.623   9.405 -0.3622  0.1257 -0.0657
  318W        W 3837   9.588   7.563   8.621 -0.1658  0.0922  0.0190
  319W        W 3838   4.679   8.850  11.846 -0.0764  0.2766  0.1662
  320W        W 3839   9.602   3.431   2.456 -0.3397  0.4504  0.0157
  321W        W 3840   7.732   5.605   8.167  0.0350  0.0761  0.3247
  322W        W 3841   9.337   5.973  10.520 -0.1016 -0.2804 -0.0629
  323W        W 3842   5.950   2.701   2.116 -0.0251  0.3738  0.1959
  324W        W 3843   1.205   9.640   2.478  0.5164  0.0716  0.0428
  325W        W 3844   8.526   5.089   4.065  0.2916  0.0203  0.0132
  326W        W 3845   6.583   2.376   2.375  0.1599 -0.0999 -0.4025
  327W        W 3846   2.178   7.023   2.254  0.1922  0.1972 -0.0584
  328W        W 3847   6.460   5.565   2.569 -0.1870  0.1740 -0.1609
  329W        W 3848   4.559   5.683   3.037  0.3268 -0.0062  0.0598
  330W        W 3849   6.865   9.091   0.111 -0.1220  0.0796  0.0526
  331W        W 3850   2.391   5.579  10.986 -0.2773 -0.0496  0.0187
  332W        W 3851   6.790   9.665  10.291 -0.0171 -0.0510 -0.4197
  333W        W 3852   4.192   0.746   8.528  0.1022  0.2948  0.3797
  334W        W 3853   8.114   2.559   2.934  0.0011  0.1069 -0.2607
  335W        W 3854   3.346   6.543   8.756  0.0354  0.0771 -0.1585
  336W        W 3855   8.633   6.726   8.344  0.1279  0.2543 -0.2451
  337W        W 3856   4.580   3.215  10.030  0.3379  0.1986  0.1114
  338W        W 3857   7.310   2.081   1.156 -0.0414 -0.1881 -0.2699
  339W        W 3858   7.791   9.219   0.964 -0.0418 -0.2212 -0.0970
  340W        W 3859   0.899   8.471   2.239 -0.0644 -0.1542  0.1596
  341W        W 3860   0.880   6.123  11.241  0.0595  0.0465  0.0726
  342W        W 3861   0.775   9.833   2.629 -0.2166 -0.0144 -0.1806
  343W        W 3862   8.549   0.162  10.565 -0.5344  0.2191 -0.0669
  344W        W 3863   9.547   7.786  11.742 -0.1146 -0.0474  0.2941
  345W        W 3864   0.288   5.062   2.606 -0.0964 -0.1485  0.1361
  346W        W 3865   2.863   2.067   7.938 -0.0678  0.0481 -0.0810
  347W        W 3866   0.725   4.754  11.246 -0.1752 -0.2928  0.2039
  348W        W 3867   0.040   4.575   8.505 -0.2601  0.1266 -0.0191
  349W        W 3868   0.830   8.186   9.121  0.3399 -0.0539 -0.1334
  350W        W 3869   0.405   2.299  11.675 -0.3116 -0.1040  0.0913
  351W        W 3870   9.949   4.467  10.915  0.0345  0.0150  0.0985
  352W        W 3871   3.403   5.962   9.918  0.2734  0.0928  0.1834
  353W        W 3872   6.081   3.594   2.919  0.1257  0.0735  0.3988
  354W        W 3873   4.731   1.180  10.356  0.0300 -0.0432  0.6032
  355W        W 3874   3.203   1.836   0.902 -0.1565  0.0492  0.2541
  356W        W 3875   7.779   5.171  10.950 -0.0554 -0.2530 -0.0288
  357W        W 3876   8.450   8.348   8.712 -0.3576 -0.7038  0.0395
  358W        W 3877   1.943   3.269   3.425  0.0148  0.3916 -0.0740
  359W        W 3878   0.275   0.423  10.470  0.1313 -0.2298 -0.0604
  360W        W 3879   3.112   6.255   0.743  0.0811 -0.3082 -0.1120
  361W        W 3880   8.502   9.606   2.229 -0.1281 -0.4293 -0.0786
  362W        W 3881   4.951   8.259   0.891  0.2053  0.5198  0.0238
  363W        W 3882   8.045   7.503  10.296 -0.1799  0.0145  0.4601
  364W        W 3883   3.917   9.854   8.103  0.0712 -0.0197 -0.0263
  365W        W 3884   2.462   8.339   1.832 -0.0616 -0.0793  0.1469
  366W        W 3885   1.108   0.213   8.584  0.0125  0.0295  0.0517
  367W        W 3886   1.049   0.094  11.127 -0.2413 -0.0506 -0.1026
  368W        W 3887   8.961   8.341   9.851  0.2168 -0.1528  0.2909
  369W        W 3888   1.294   8.321  11.466  0.1050 -0.1019 -0.0991
  370W        W 3889   5.462   0.817   0.511 -0.1066 -0.0294 -0.4068
  371W        W 3890   0.315   0.100   2.646 -0.0488 -0.2213 -0.0534
  372W        W 3891   8.356   4.203   0.994  0.0724  0.0113  0.0413
  373W        W 3892   9.666   4.516   8.133 -0.1373 -0.1284 -0.0800
  374W        W 3893   0.291   4.628   1.417  0.0733  0.1469  0.0755
  375W        W 3894   5.938   6.861   7.841  0.2775 -0.1867 -0.1019
  376W        W 3895   5.386   8.662   0.230  0.0393  0.2903 -0.0634
  377W        W 3896   8.707   6.328   0.789 -0.1149  0.1558  0.1818
  378W        W 3897   3.279   6.791   0.810  0.2535  0.0038 -0.0017
  379W        W 3898   3.707   5.206   8.840  0.3223 -0.1929  0.0206
  380W        W 3899   4.041   5.365   1.011 -0.0457 -0.1480 -0.2164
  381W        W 3900   7.724   0.482   7.682 -0.1630 -0.0983  0.0450
  382W        W 3901   8.960   0.947   9.625 -0.2027 -0.0542  0.0579
  383W        W 3902   9.258   1.522   8.839 -0.1319 -0.0500  0.3284
  384W        W 3903   7.504   1.904  10.308  0.3582  0.2041 -0.3809
  385W        W 3904   7.873   0.085   2.340 -0.0353  0.2239  0.1541
  386W        W 3905   4.778   7.935  11.170 -0.0515  0.0790 -0.0998
  387W        W 3906   9.273   5.943   8.614 -0.1369  0.1969 -0.0933
  388W        W 3907   9.203   8.936   8.253  0.1009  0.3494  0.1090
  389W        W 3908   4.974   6.105  11.950  0.1508 -0.0343  0.0118
  390W        W 3909   2.782   6.437   6.563  0.1612 -0.1091 -0.0084
  391W        W 3910   6.950   0.915  10.810 -0.0950 -0.1785 -0.1472
  392W        W 3911   5.335   7.877   3.359 -0.1031 -0.3710 -0.0479
  393W        W 3912   7.897   6.457  11.412 -0.2733 -0.1969 -0.1124
  394W        W 3913   2.253   0.219  10.180  0.1386  0.2006 -0.0302
  395W        W 3914   4.200   3.168  11.830  0.1437 -0.0624 -0.1780
  396W        W 3915   1.857   4.215   0.824 -0.0909 -0.0954 -0.0524
  397W        W 3916   5.524   0.676  11.401  0.1062  0.1729  0.0497
  398W        W 3917   5.431   5.958  10.221 -0.2380 -0.0831  0.0718
  399W        W 3918   1.702   3.640  10.718  0.0755  0.2007 -0.1340
  400W        W 3919   8.662   0.346   0.247 -0.3533  0.0137  0.2050
  401W        W 3920   5.784   3.820  10.176 -0.1108 -0.0790  0.5951
  402W        W 3921   7.277   0.597  10.611 -0.2901 -0.0459  0.0628
  403W        W 3922   3.057   3.030   9.528  0.0542  0.1540 -0.0170
  404W        W 3923   7.997   5.794   7.246  0.2508  0.0385  0.3126
  405W        W 3924   5.499   8.682   8.841  0.1551  0.1309 -0.0777
  406W        W 3925   1.402   4.414  11.419  0.1110  0.1522  0.3859
  407W        W 3926   0.775   5.791   8.883 -0.0301  0.0303 -0.1016
  408W        W 3927   9.430   3.086  11.343 -0.0022  0.1599  0.0618
  409W        W 3928   8.679   0.908   0.972  0.0701 -0.2647 -0.1480
  410W        W 3929   7.099   3.074   9.073  0.1442  0.1666  0.0324
  411W        W 3930   5.383   0.657   3.559 -0.4589 -0.0772  0.0870
  412W        W 3931   4.221   3.297   0.336  0.1759  0.0217  0.1947
  413W        W 3932   3.837   4.457   9.478 -0.1320  0.1435  0.0140
  414W        W 3933   5.790   6.839   9.771 -0.0197 -0.0863  0.1924
  415W        W 3934   7.704   5.620   0.485  0.1432  0.2179 -0.0463
  416W        W 3935   9.678   0.922   1.355 -0.0442  0.1537 -0.0972
  417W        W 3936   5.477   1.151   9.844  0.0208 -0.0330  0.1182
  418W        W 3937   2.072   6.657  11.874 -0.0393  0.0737 -0.1135
  419W        W 3938   7.885   6.761   8.166  0.3136  0.0564  0.1003
  420W        W 3939   6.295   7.571   9.589  0.0068 -0.2557  0.0704
  421W        W 3940   8.515   7.923  11.306 -0.0412 -0.1876  0.0985
  422W        W 3941   9.262   6.575   9.865 -0.1058  0.1215 -0.0961
  423W        W 3942   7.298   1.950   4.041  0.2423 -0.2592  0.2806
  424W        W 3943   7.795   9.273   1.476  0.3557 -0.2874  0.0962
  425W        W 3944   6.869   0.813   2.395  0.0852  0.2735  0.0319
  426W        W 3945   2.847   5.181   5.454  0.3512 -0.1667  0.0805
  427W        W 3946   8.553   0.313   8.770 -0.1034  0.3217 -0.1224
  428W        W 3947   3.567   8.265   1.950 -0.0496  0.1169 -0.2538
  429W        W 3948   7.373   8.308  11.953 -0.2527  0.1756  0.1796
  430W        W 3949   1.039   6.264   9.397  0.3030 -0.3334 -0.2046
  431W        W 3950   6.670   3.078   0.917  0.0823  0.1726 -0.0422
  432W        W 3951   8.980   5.499   7.237  0.2315 -0.0785  0.0583
  433W        W 3952   4.037   9.721   0.014  0.2804 -0.2913 -0.1293
  434W        W 3953   9.923   1.047   0.889 -0.2824 -0.4551  0.2309
  435W        W 3954   4.983   7.318   8.751  0.1739 -0.1846 -0.1366
  436W        W 3955   0.139   1.066   0.007 -0.0612  0.0876 -0.0566
  437W        W 3956   8.349   4.063   8.639  0.2699 -0.0418  0.2672
  438W        W 3957   1.164   1.754   8.313 -0.1588 -0.0568 -0.2494
  439W        W 3958   9.371   9.494   0.680 -0.3546 -0.2075  0.4344
  440W        W 3959   0.695   8.631   1.703 -0.1773 -0.1509 -0.2027
  441W        W 3960   8.987   2.246   0.317  0.0935  0.2079 -0.1097
  442W        W 3961   8.281   5.982   1.187  0.1300  0.2059 -0.0446
  443W        W 3962   5.682   1.659  10.345  0.0521  0.0239 -0.2719
  444W        W 3963   8.751   0.442   3.828  0.3560  0.3505  0.0028
  445W        W 3964   5.198   6.590  11.001  0.3089 -0.3213  0.0891
  446W        W 3965   4.460   5.509   1.321 -0.3077 -0.0589  0.0522
  447W        W 3966   8.541   4.689   0.232  0.3158  0.2503 -0.0829
  448W        W 3967   8.254   7.465  11.261 -0.0075  0.0050  0.1456
  449W        W 3968   6.077   9.378   1.357 -0.1766 -0.2662  0.0813
  450W        W 3969   0.818   1.213   3.171  0.1286 -0.0242 -0.0301
  451W        W 3970   2.545   3.265   8.431 -0.1725  0.0009  0.0806
  452W        W 3971   1.391   7.971   9.730 -0.0497 -0.0271  0.1866
  453W        W 3972   0.877   9.537  11.239 -0.0207  0.1329  0.2532
  454W        W 3973   0.486   2.694   0.922  0.1238 -0.0375 -0.0619
  455W        W 3974   2.512   1.860   1.017 -0.1960 -0.1155 -0.0554
  456W        W 3975   6.576   5.582   9.271 -0.4543 -0.0139  0.1183
  457W        W 3976   1.052   4.816  11.650 -0.0487 -0.2400  0.2841
  458W        W 3977   2.038   7.961  11.152  0.1816  0.1223 -0.2527
  459W        W 3978   3.335   6.855   9.236 -0.0852 -0.0999 -0.1845
  460W        W 3979   0.487   5.603   2.355 -0.2279  0.0117 -0.0728
  461W        W 3980   8.949   1.954   9.618 -0.0021  0.2449  0.3674
  462W        W 3981   1.218   4.378   2.114  0.0689 -0.0691  0.4072
  463W        W 3982   1.587   6.273   9.786  0.3383  0.3673  0.2549
  464W        W 3983   4.859   0.735   1.613 -0.1291 -0.1853  0.2599
  465W        W 3984   9.650   3.638   8.120  0.0408  0.3317 -0.0002
  466W        W 3985   1.986   0.617  10.197 -0.0273  0.1034  0.0568
  467W        W 3986   7.405   8.131  11.044  0.0589  0.3461  0.1358
  468W        W 3987   9.792   9.747   0.480  0.1850  0.0336  0.0316
  469W        W 3988   6.468   2.227   0.108 -0.1091  0.0014 -0.2499
  470W        W 3989   9.080   5.443   2.373 -0.1704  0.1275 -0.0296
  471W        W 3990   9.277   1.163   1.755  0.0100 -0.0023  0.2119
  472W        W 3991   4.658   2.357   7.992  0.1500 -0.0242 -0.0276
  473W        W 3992   5.043   5.068   9.599 -0.0643  0.1675  0.2349
  474W        W 3993   6.127   2.023  11.263  0.1958  0.1275  0.0717
  475W        W 3994   8.164   0.370  10.401  0.0245  0.1813 -0.1576
  476W        W 3995   8.909   7.965  10.179 -0.0954 -0.0999 -0.0886
  477W        W 3996   2.645   3.885   0.050 -0.1652 -0.1748  0.1764
  478W        W 3997   5.650   1.460   9.500 -0.3509 -0.2005 -0.0935
  479W        W 3998   0.210   4.722   1.914 -0.0964 -0.1234 -0.0431
  480W        W 3999   0.147   5.559   2.706  0.0642  0.0296 -0.1752
  481W        W 4000   4.228   9.758   8.481  0.1302 -0.1235  0.1563
  482W        W 4001   9.650   4.888  10.413 -0.2104 -0.0236  0.0274
  483W        W 4002   4.542   3.664  10.849  0.1233 -0.1234  0.2828
  484W        W 4003   0.256   9.215  10.535  0.0959 -0.0615 -0.1590
  485W        W 4004   0.469   2.186   8.596 -0.0777 -0.0836 -0.0993
  486W        W 4005   2.038   4.660   2.357 -0.2784  0.3670 -0.1519
  487W        W 4006   5.370   7.073   1.333  0.3506 -0.0517  0.1491
  488W        W 4007   6.798   4.339   8.785  0.0399  0.2962  0.0583
  489W        W 4008   9.427   1.967   9.734  0.0771 -0.2985  0.0616
  490W        W 4009   6.536   3.674   8.413 -0.0102 -0.1337  0.2617
  491W        W 4010   9.339   6.301   8.264  0.1583  0.6376  0.1775
  492W        W 4011   0.489   6.426  11.119  0.1198  0.0733 -0.0478
  493W        W 4012   0.975   2.312  11.851  0.2435  0.2479 -0.0397
  494W        W 4013   4.138   2.912   1.003  0.4051  0.3121 -0.1178
  495W        W 4014   7.862   1.749   8.209  0.1773 -0.3706 -0.0794
  496W        W 4015   4.852   6.967   9.242  0.0945 -0.3124  0.1614
  497W        W 4016   7.986   0.886   2.744 -0.1514 -0.0692 -0.3046
  498W        W 4017   1.852   5.160   2.251  0.4529 -0.1613 -0.0726
  499W        W 4018   3.102   0.568  10.552  0.0655  0.1375  0.2256
  500W        W 4019   3.404   1.550  11.460  0.1030 -0.1844 -0.0716
  501W        W 4020   1.848   6.239   0.085 -0.0905 -0.2714  0.0175
  502W        W 4021   3.807   0.947   0.078 -0.3772 -0.0421  0.3035
  503W        W 4022   2.971   6.162   1.748 -0.0573 -0.0563 -0.0545
  504W        W 4023   3.306   8.360  10.298 -0.3187 -0.0508  0.4479
  505W        W 4024   1.934   2.247   1.708 -0.0517 -0.1569 -0.3918
  506W        W 4025   4.509   0.036   8.120 -0.3609  0.3611 -0.0627
  507W        W 4026   6.059   7.807   3.583 -0.4033 -0.3361 -0.0449
  508W        W 4027   0.666   4.927   1.600  0.0961 -0.0786 -0.0186
  509W        W 4028   3.571   8.393  10.947  0.1555 -0.2604 -0.0466
  510W        W 4029   3.603   4.570  11.215 -0.0870  0.0056  0.1307
  511W        W 4030   6.256   1.766   9.337  0.4144  0.0114  0.0238
  512W        W 4031   4.690   3.283  11.900 -0.3082  0.0540 -0.0956
  513W        W 4032   1.373   8.494   9.323 -0.1341 -0.1509  0.2873
  514W        W 4033   4.384   8.415   9.628 -0.0851  0.2610 -0.1649
  515W        W 4034   4.484   0.905   1.821  0.0959  0.2329  0.0267
  516W        W 4035   8.160   2.020   7.695  0.1151  0.1551  0.0840
  517W        W 4036   2.379   6.134   1.221  0.0915  0.1705  0.0534
  518W        W 4037   1.340   6.883  11.497 -0.3883  0.2568  0.2134
  519W        W 4038   4.611   0.674  10.976  0.0428 -0.0821  0.0156
  520W        W 4039   9.596   9.744   1.755 -0.0668 -0.1829 -0.0800
  521W        W 4040   0.014   8.457   0.932  0.1583  0.1311  0.2876
  522W        W 4041   4.837   3.802  11.836  0.3241 -0.1542 -0.2481
  523W        W 4042   9.197   1.424  10.183 -0.5329  0.1045  0.0032
  524W        W 4043   7.771   6.478  10.821  0.0397 -0.2333 -0.0499
  525W        W 4044   9.352   0.726   8.679 -0.1735  0.0490 -0.3782
  526W        W 4045   4.472   5.962   8.244 -0.3015 -0.3234 -0.4632
  527W        W 4046   2.845   0.396  11.447 -0.1496 -0.1305 -0.0288
  528W        W 4047   9.514   3.098   3.369 -0.0061 -0.1848 -0.1721
  529W        W 4048   1.907   5.013   2.736 -0.3174  0.0116  0.0428
  530W        W 4049   9.346   5.042   1.011  0.2446 -0.1278  0.4093
  531W        W 4050   8.556   9.667  11.046 -0.1596 -0.2796  0.0307
  532W        W 4051   7.569   4.354   2.745  0.0494 -0.1634  0.1474
  533W        W 4052   0.860   2.426   9.387  0.1771 -0.0471 -0.1742
  534W        W 4053   1.458   1.340   8.434  0.1305  0.1860  0.1510
  535W        W 4054   4.941   7.373   1.342  0.3886 -0.2086 -0.1548
  536W        W 4055   0.691   8.689  10.709 -0.0478  0.5368  0.1502
  537W        W 4056   5.628   8.876   4.342  0.0496  0.0194 -0.1471
  538W        W 4057   0.241   0.993   1.910  0.1175  0.2638  0.2792
  539W        W 4058   9.706   5.002   9.856 -0.0882  0.0358 -0.0310
  540W        W 4059   1.936   4.992   9.493  0.0735 -0.0214  0.1710
  541W        W 4060   3.459   0.903   9.350 -0.0256 -0.1210  0.1166
  542W        W 4061   4.537   2.906   3.479 -0.0326  0.1098  0.2939
  543W        W 4062   2.750   4.843   0.836 -0.0920 -0.1533 -0.0855
  544W        W 4063   1.049   8.501   2.760  0.2145 -0.1804 -0.0146
  545W        W 4064   5.286   6.409   9.456 -0.2952 -0.0707  0.1036
  546W        W 4065   3.609   2.478  11.159  0.2320 -0.2131 -0.2538
  547W        W 4066   3.574   7.238  11.939 -0.0947  0.0134 -0.2410
  548W        W 4067   2.037   6.491   2.785 -0.3166  0.3162  0.0749
  549W        W 4068   0.088   4.636   7.788 -0.0643 -0.1254  0.1698
  550W        W 4069   3.573   1.097   1.133  0.1480  0.2954 -0.0762
  551W        W 4070   9.889   3.176  11.080 -0.1246 -0.1592 -0.1086
  552W        W 4071   5.910   1.497   3.055 -0.0371  0.2801  0.1881
  553W        W 4072   7.624   8.750  10.511 -0.1775  0.1991  0.0746
  554W        W 4073   1.363   5.925   3.231  0.1076 -0.4208  0.3498
  555W        W 4074   8.486   8.233  10.039  0.0911 -0.1302  0.2090
  556W        W 4075   2.304   8.907   2.743 -0.1386 -0.0285  0.0220
  557W        W 4076   2.064   4.782   1.849  0.1099 -0.2779 -0.0010
  558W        W 4077   7.099   6.211   2.678 -0.3275 -0.4071 -0.1035
  559W        W 4078   0.966   4.690   0.676  0.4378 -0.1714 -0.1196
  560W        W 4079   9.636   6.588   0.159 -0.3176 -0.0919 -0.0141
  561W        W 4080   8.050   6.226  11.771 -0.0149  0.1314 -0.2404
  562W        W 4081   4.538   4.653   3.215 -0.2187  0.1019 -0.0054
  563W        W 4082   3.174   8.344   8.582  0.0600 -0.0090  0.2549
  564W        W 4083   2.601   9.705   7.603  0.2435 -0.0635  0.0277
  565W        W 4084   7.458   4.459   0.987 -0.0485  0.3081 -0.2860
  566W        W 4085   0.765   9.024  10.383  0.0577  0.2050 -0.4906
  567W        W 4086   9.742   1.741   8.634 -0.1512  0.1628 -0.1492
  568W        W 4087   6.642   3.361   8.803  0.2434  0.0827 -0.1260
  569W        W 4088   4.585   4.580   1.389 -0.0396 -0.1517 -0.2858
  570W        W 4089   9.164   7.489   1.446  0.1268  0.0156 -0.0146
  571W        W 4090   8.894   9.601   7.106  0.1760  0.2376  0.0240
  572W        W 4091   1.726   3.563   0.084 -0.2547 -0.0055 -0.0039
  573W        W 4092   8.927   8.877   9.845 -0.2401 -0.0094 -0.1860
  574W        W 4093   3.808   5.379  10.223  0.0870  0.1925  0.1559
  575W        W 4094   8.363   0.846   3.606  0.3321  0.1130  0.1216
  576W        W 4095   2.567   3.395  10.791 -0.1471 -0.0598 -0.0193
  577W        W 4096   7.933   2.137  10.136 -0.3581  0.1610 -0.1691
  578W        W 4097   3.978   2.886   0.542 -0.1772  0.1848  0.2409
  579W        W 4098   0.971   9.397   9.387 -0.2594  0.0032 -0.0538
  580W        W 4099   2.340   8.239   0.266  0.0115 -0.0908  0.0426
  581W        W 4100   2.503   4.887   2.762  0.0710  0.1114  0.3135
  582W        W 4101   5.925   0.356   9.927 -0.1411 -0.2943  0.0177
  583W        W 4102   5.125   9.372  10.219  0.2264 -0.0405 -0.2900
  584W        W 4103   9.572   6.393   1.368 -0.0905  0.0292 -0.1398
  585W        W 4104   6.871   1.994  11.768 -0.1407 -0.0220 -0.0695
  586W        W 4105   4.608   1.688   3.326 -0.0756  0.3051 -0.0313
  587W        W 4106   6.849   5.931   9.649  0.0375  0.0841 -0.0250
  588W        W 4107   9.598   2.790  10.635  0.0485  0.0481 -0.2947
  589W        W 4108   2.135   4.001   9.019 -0.0485 -0.0897 -0.2025
  590W        W 4109   3.951   6.159   4.138  0.2590  0.0460  0.2172
  591W        W 4110   1.740   5.316  10.416 -0.0964  0.3257  0.1154
  592W        W 4111   3.065   5.221   0.720 -0.2128 -0.0771 -0.1018
  593W        W 4112   0.410   4.738  10.798  0.0539 -0.1159  0.0333
  594W        W 4113   3.273   3.530   2.891 -0.1928 -0.1490  0.0983
  595W        W 4114   2.203   3.646   3.356  0.0559 -0.2277 -0.4175
  596W        W 4115   6.142   8.739   2.641 -0.2089  0.1860  0.0029
  597W        W 4116   5.565   9.280   0.312 -0.1616  0.0648  0.1501
  598W        W 4117   2.509   8.542   2.408  0.0101  0.2200 -0.0443
  599W        W 4118   6.685   1.869  10.063 -0.3212 -0.1130 -0.1788
  600W        W 4119   3.864   1.607   8.773 -0.2061  0.3018  0.0608
  601W        W 4120   2.463   6.671  10.584 -0.0369 -0.1746  0.0303
  602W        W 4121   6.547   2.600  11.124  0.2897  0.1116  0.0713
  603W        W 4122   5.518   7.805  11.723 -0.1095  0.0437 -0.2631
  604W        W 4123   6.652   1.962   9.546 -0.0819  0.3847 -0.0940
  605W        W 4124   3.774   4.455   1.198  0.2708 -0.1052 -0.1456
  606W        W 4125   8.371   8.060   8.352  0.3515  0.0213  0.2684
  607W        W 4126   3.758   8.125  10.044  0.0097  0.0224  0.4444
  608W        W 4127   5.577   4.893   7.764  0.0881  0.2727 -0.0061
  609W        W 4128   2.434   3.126   3.464  0.0088 -0.0510 -0.1530
  610W        W 4129   4.540   7.010   2.318 -0.1168  0.0170 -0.2016
  611W        W 4130   3.644   5.618   0.117  0.0902 -0.1185 -0.1114
  612W        W 4131   2.767   6.247   9.447 -0.1369  0.1037  0.0653
  613W        W 4132   4.157   3.165  10.303  0.0364 -0.1744 -0.4410
  614W        W 4133   7.209   0.419  10.107  0.0710 -0.1205 -0.1622
  615W        W 4134   3.866   6.195   7.037 -0.0751  0.4202  0.2008
  616W        W 4135   8.136   7.222  11.765 -0.0103 -0.1010  0.1354
  617W        W 4136   0.691   2.393   1.317  0.1512  0.3416  0.2039
  618W        W 4137   1.708   1.292   3.074  0.0482  0.0026  0.3192
  619W        W 4138   2.865   5.688   4.681 -0.1734 -0.0062 -0.2547
  620W        W 4139   6.461   1.519   9.737 -0.0904 -0.2360 -0.2327
  621W        W 4140   4.439   5.470   8.159  0.2051  0.0408 -0.1129
  622W        W 4141   0.946   9.748   9.739 -0.0615 -0.1616 -0.3470
  623W        W 4142   1.993   2.525   0.765  0.2061 -0.0357  0.2013
  624W        W 4143   8.330   6.499  10.996  0.1420 -0.2217 -0.0799
  625W        W 4144   7.027   1.109  11.367 -0.0420  0.0365  0.1141
  626W        W 4145   0.597   9.914  11.356 -0.0790 -0.1344 -0.1907
  627W        W 4146   0.404   6.760   0.471 -0.4309 -0.0795  0.0746
  628W        W 4147   2.263   7.474   2.950 -0.1993  0.2196  0.0006
  629W        W 4148   6.780   5.251   8.515 -0.3603  0.3698  0.0715
  630W        W 4149   3.729   6.656   8.456  0.1482 -0.0658  0.3506
  631W        W 4150   4.495   9.666  11.607  0.0099 -0.1749  0.2309
  632W        W 4151   4.821   1.654   8.575  0.5534  0.4561  0.1872
  633W        W 4152   1.366   5.263  11.808 -0.0242 -0.1470 -0.1944
  634W        W 4153   1.071   3.349   1.050  0.5213  0.1665  0.3994
  635W        W 4154   0.572   4.570   1.011  0.0173 -0.1877 -0.1484
  636W        W 4155   1.517   1.937   0.593  0.1742  0.0789 -0.3131
  637W        W 4156   4.324   4.599   9.319  0.1875  0.3412  0.3261
  638W        W 4157   3.171   5.485   1.336 -0.2101 -0.0258  0.2163
  639W        W 4158   7.335   6.726  10.717  0.1759  0.1142 -0.0657
  640W        W 4159   2.923   2.697   1.973  0.0797  0.0423  0.4274
  641W        W 4160   5.641   3.365  11.823 -0.2774  0.1178  0.1799
  642W        W 4161   3.227   6.442  11.733 -0.1655  0.1526  0.0281
  643W        W 4162   5.495   9.646  10.423  0.3280 -0.1092  0.0107
  644W        W 4163   8.788   0.608   7.880  0.0810 -0.0791 -0.0246
  645W        W 4164   4.449   7.780   0.801 -0.2444 -0.1633  0.0058
  646W        W 4165   5.535   6.050   1.004  0.1554  0.1181 -0.1566
  647W        W 4166   4.270   1.469  11.866  0.1430 -0.0688 -0.0140
  648W        W 4167   3.813   1.099  11.024  0.1290 -0.0371  0.5407
  649W        W 4168   4.372   5.160   9.348 -0.0635 -0.2263 -0.0376
  650W        W 4169   0.899   4.259   0.948 -0.0021 -0.2923 -0.0619
  651W        W 4170   5.400   4.738   2.666 -0.2238  0.2556 -0.0768
  652W        W 4171   3.569   9.510  10.616 -0.0801 -0.1897 -0.2527
  653W        W 4172   6.698   8.452  10.444  0.0240  0.0275 -0.0031
  654W        W 4173   0.419   5.921   0.911 -0.0410 -0.0764  0.2825
  655W        W 4174   4.299   2.115  10.608  0.1192 -0.0297 -0.0035
  656W        W 4175   8.053   0.551   0.152  0.0590 -0.2219  0.0800
  657W        W 4176   0.915   6.910   1.142  0.0581 -0.0078 -0.0037
  658W        W 4177   6.852   5.061   0.785 -0.2224  0.4374  0.0068
  659W        W 4178   0.119   2.280   9.142 -0.1082 -0.1230 -0.1921
  660W        W 4179   1.443   9.038   1.147 -0.0145 -0.1646 -0.0263
  661W        W 4180   4.362   1.000   8.074 -0.0236 -0.0971 -0.2074
  662W        W 4181   5.851   2.913   2.536  0.1128 -0.2175  0.0686
  663W        W 4182   4.312   9.605   3.461  0.0982  0.0452  0.1537
  664W        W 4183   2.827   6.678  10.226 -0.3131  0.0495 -0.0029
  665W        W 4184   1.688   8.155   1.860 -0.1266  0.1860 -0.0988
  666W        W 4185   9.914   0.245   0.300 -0.1234  0.0053  0.1170
  667W        W 4186   4.458   0.504  11.759  0.1353 -0.2883  0.0603
  668W        W 4187   3.383   7.083   6.603 -0.1563 -0.2855  0.2681
  669W        W 4188   0.071   6.370   3.833 -0.0338 -0.2830 -0.1935
  670W        W 4189   8.252   1.499   2.560  0.0652 -0.3545  0.2597
  671W        W 4190   0.338   9.699   6.899 -0.0871  0.0970 -0.1485
  672W        W 4191   9.408   4.274   9.079 -0.1952 -0.1369  0.0151
  673W        W 4192   5.116   0.382   9.129  0.1000 -0.2610 -0.0464
  674W        W 4193   6.772   2.458   1.301 -0.0062 -0.2554  0.1318
  675W        W 4194   5.397   3.610   8.682 -0.0506  0.0148 -0.1291
  676W        W 4195   9.161   3.845   9.212 -0.0518 -0.1061 -0.3011
  677W        W 4196   7.609   1.963   7.673  0.0726 -0.0592  0.0647
  678W        W 4197   7.045   3.436   8.418 -0.2817 -0.0687 -0.0229
  679W        W 4198   6.291   6.106   8.776  0.1877 -0.0175  0.1262
  680W        W 4199   5.826   1.962   9.575  0.2876 -0.1510  0.1536
  681W        W 4200   7.875   5.325   0.079 -0.0804  0.3379 -0.0411
  682W        W 4201   9.454   1.966   1.796 -0.0686 -0.0741 -0.1101
  683W        W 4202   8.802   1.038   1.504 -0.0086 -0.2140 -0.1900
  684W        W 4203   8.318   4.152  11.312 -0.3229 -0.1894 -0.0253
  685W        W 4204   6.395   7.889  11.230  0.3202  0.0428 -0.0311
  686W        W 4205   8.149   4.900  11.530 -0.1029  0.1487 -0.4699
  687W        W 4206   1.226   9.157  11.323  0.0182 -0.1452 -0.1220
  688W        W 4207   8.137   3.860   0.680 -0.2537 -0.1002 -0.1322
  689W        W 4208   8.150   7.016   2.708 -0.0907 -0.1909 -0.1573
  690W        W 4209   5.802   8.595   0.530  0.2014 -0.1338 -0.0480
  691W        W 4210   5.786   4.868   8.319 -0.3063  0.1149 -0.2000
  692W        W 4211   3.837   2.995  10.665 -0.4717 -0.1328  0.1375
  693W        W 4212   9.897   5.244   7.629  0.3797 -0.0016 -0.0128
  694W        W 4213   9.100   2.854   9.312 -0.0310  0.1136 -0.0466
  695W        W 4214   6.827   1.203   0.923  0.1157 -0.0280  0.0558
  696W        W 4215   1.244   0.153  10.663 -0.2672  0.1431 -0.0467
  697W        W 4216   8.961   9.913  10.841  0.2275  0.0592  0.0795
  698W        W 4217   8.320   5.475   1.317  0.0549 -0.0167  0.1340
  699W        W 4218   7.959   6.932  10.759  0.1500  0.3446 -0.0460
  700W        W 4219   8.840   7.306  10.927  0.0418  0.0961 -0.2250
  701W        W 4220   8.148   2.192   1.341  0.1795  0.1502  0.1464
  702W        W 4221   5.202   4.490  11.055 -0.2778  0.1316  0.1802
  703W        W 4222   1.591   1.625   2.580 -0.1648  0.1673  0.0621
  704W        W 4223   8.604   1.613   9.178 -0.0147  0.2859  0.3667
  705W        W 4224   7.980   1.845   0.480  0.0079  0.1032  0.1270
  706W        W 4225   8.159   9.948  10.829  0.1562 -0.0049  0.1393
  707W        W 4226   3.779   0.973   0.628 -0.0309 -0.1033  0.2144
  708W        W 4227   9.727   4.944   0.034 -0.0461  0.0516  0.0570
  709W        W 4228   9.733   9.533   7.620 -0.0297  0.0202 -0.1662
  710W        W 4229   9.596   4.327   7.700 -0.1462 -0.1375 -0.0726
  711W        W 4230   6.620   7.541  10.543  0.3594 -0.1367 -0.2126
  712W        W 4231   3.279   2.843   3.189 -0.0142  0.2436  0.0722
  713W        W 4232   1.528   1.211   9.651  0.1068 -0.1032 -0.0581
  714W        W 4233   2.412   2.592   2.236  0.0728  0.5501  0.1997
  715W        W 4234   5.132   4.791   0.266  0.2952 -0.0685  0.3997
  716W        W 4235   1.167   7.138   3.293  0.1705 -0.1294  0.0284
  717W        W 4236   1.250   2.870   1.967  0.2670  0.1241 -0.0318
  718W        W 4237   9.467   9.047   7.816  0.0431 -0.0860  0.2698
  719W        W 4238   8.002   5.639  11.405  0.2509 -0.4064 -0.0762
  720W        W 4239   0.991   4.765   9.476  0.1932  0.0178  0.0354
  721W        W 4240   0.450   2.481  10.049  0.1161  0.0318 -0.0845
  722W        W 4241   3.467   7.920  11.436  0.1098 -0.3521 -0.1989
  723W        W 4242   4.167   0.365   0.644  0.1266 -0.1161 -0.2488
  724W        W 4243   7.220   3.202  10.793 -0.0689  0.2026  0.0625
  725W        W 4244   7.289   5.759   2.901 -0.1787  0.0974  0.1017
  726W        W 4245   4.194   0.120  11.662  0.0224  0.1186 -0.3419
  727W        W 4246   2.257   1.308   7.778  0.0242 -0.0114  0.3054
  728W        W 4247   2.678   2.972  10.556 -0.2447  0.1213 -0.0104
  729W        W 4248   2.829   8.730   2.887 -0.0187  0.1518  0.0117
  730W        W 4249   1.866   7.251   9.541 -0.0033 -0.1074  0.1956
  731W        W 4250   6.056   9.064   3.028 -0.0778  0.1865 -0.1963
  732W        W 4251   6.317   4.211  11.901  0.3305  0.2020  0.0739
  733W        W 4252   3.018   6.081   2.301 -0.0412  0.0016 -0.0989
  734W        W 4253   4.562   9.846   9.590 -0.1835 -0.0121  0.1907
  735W        W 4254   5.521   8.610   2.085  0.1271  0.0816 -0.0771
  736W        W 4255   0.447   9.360   9.503 -0.0607 -0.1743  0.1734
  737W        W 4256   3.279   1.164   4.284 -0.2920 -0.0148 -0.0406
  738W        W 4257   7.343   0.963   1.943  0.1153 -0.0918  0.3037
  739W        W 4258   2.375   1.916  11.327 -0.0591  0.3006 -0.0860
  740W        W 4259   5.907   9.759   1.702  0.3724  0.0403  0.0730
  741W        W 4260   0.894   3.567   9.651  0.3233  0.2425  0.1921
  742W        W 4261   1.385   5.487   3.463 -0.1785  0.0232  0.1331
  743W        W 4262   4.547   4.197  11.618 -0.1713 -0.1921 -0.3794
  744W        W 4263   2.498   0.767   0.246  0.0242 -0.0868 -0.2629
  745W        W 4264   2.214   8.275   0.798 -0.1006 -0.3515  0.0976
  746W        W 4265   3.881   5.956   0.379  0.1741  0.4376  0.0274
  747W        W 4266   7.369   8.904   0.912 -0.0296  0.0870 -0.1355
  748W        W 4267   8.701   4.973   7.880 -0.1077 -0.2266 -0.2591
  749W        W 4268   1.778   1.075  10.506 -0.3013  0.0292  0.1884
  750W        W 4269   1.621   0.134   2.678 -0.1775  0.0299  0.0978
  751W        W 4270   3.124   6.930   1.292 -0.1010  0.1264  0.0501
  752W        W 4271   1.909   5.936   9.587  0.4369 -0.1302  0.0544
  753W        W 4272   7.223   9.837  10.951  0.0216 -0.0802  0.1238
  754W        W 4273   5.121   0.747   9.632  0.2978 -0.1072  0.1849
  755W        W 4274   6.428   1.791  11.670  0.0585  0.0248  0.0220
  756W        W 4275   4.789   9.893   9.161 -0.3875  0.0568 -0.0173
  757W        W 4276   2.243   7.323   9.897  0.0174  0.2100 -0.0256
  758W        W 4277   1.373   7.100   9.902  0.3584  0.1193  0.0109
  759W        W 4278   5.619   2.025  11.644  0.3235  0.2308  0.1088
  760W        W 4279   1.074   1.143  11.628 -0.0073 -0.0150 -0.0491
  761W        W 4280   0.437   5.589  10.304 -0.1074 -0.1767  0.0604
  762W        W 4281   6.477   9.198   1.966  0.2499 -0.2627 -0.1192
  763W        W 4282   1.375   3.645   1.339  0.2771  0.1442 -0.3811
  764W        W 4283   4.864   5.818   3.554 -0.3496  0.0213 -0.0832
  765W        W 4284   7.654   6.089   3.120  0.0806 -0.0598  0.0593
  766W        W 4285   1.691   4.219   8.336  0.4816 -0.0931  0.1961
  767W        W 4286   5.017   0.943   8.831 -0.2111 -0.0541 -0.1718
  768W        W 4287   6.211   4.595   8.287  0.2414 -0.3436 -0.1776
  769W        W 4288   1.456   0.801   8.251  0.0954 -0.0697  0.3069
  770W        W 4289   6.632   0.028  10.685  0.0053 -0.5507  0.0307
  771W        W 4290   3.973   7.509   0.306  0.4271  0.3050 -0.2929
  772W        W 4291   6.056   0.654  11.159 -0.4109 -0.2032 -0.3337
  773W        W 4292   4.773   2.152   3.217 -0.0585  0.0482 -0.2779
  774W        W 4293   1.156   7.174   9.018 -0.2884 -0.0508 -0.0183
  775W        W 4294   4.756   8.039   0.466  0.1554 -0.0249  0.1430
  776W        W 4295   4.264   6.399   3.851 -0.2043  0.0605  0.2254
  777W        W 4296   1.562   4.382  10.783  0.1676 -0.2297 -0.0545
  778W        W 4297   3.453   6.929  11.569 -0.1124  0.0925 -0.0890
  779W        W 4298   3.666   1.871   3.220  0.2477  0.1802  0.0654
  780W        W 4299   8.417   4.417   9.159 -0.1895 -0.1657 -0.2157
  781W        W 4300   9.795   8.186  11.476  0.0062 -0.0011  0.1462
  782W        W 4301   2.330   4.157   9.490  0.1849 -0.1498 -0.1104
  783W        W 4302   0.270   3.146  11.950 -0.2631  0.1545  0.1802
  784W        W 4303   7.508   9.254   7.702  0.2483 -0.1889  0.2261
  785W        W 4304   0.416   4.025   2.198 -0.2383 -0.2394 -0.1789
  786W        W 4305   5.752   2.489   4.224  0.0571  0.1263  0.0598
  787W        W 4306   6.117   2.529   8.933 -0.1473 -0.2001 -0.1400
  788W        W 4307   9.335   5.637   1.671 -0.0105  0.1602 -0.1119
  789W        W 4308   7.900   3.813   3.324  0.3036  0.1548 -0.0493
  790W        W 4309   8.068   2.715   3.423 -0.0628 -0.3179 -0.2029
  791W        W 4310   4.433   0.829   0.907  0.0920  0.0251 -0.1378
  792W        W 4311   6.250   6.476   2.646 -0.2006  0.2426  0.3070
  793W        W 4312   5.840   5.103  11.742  0.0935 -0.0951 -0.2882
  794W        W 4313   2.587   6.865   1.358  0.2293 -0.1238 -0.0766
  795W        W 4314   6.366   7.569  10.115 -0.1606 -0.0617 -0.0680
  796W        W 4315   2.992   7.761  11.220  0.1746 -0.0240 -0.3871
  797W        W 4316   5.617   5.757  10.644  0.0618  0.0119  0.0461
  798W        W 4317   8.987   2.827   0.277  0.1547 -0.0721  0.1888
  799W        W 4318   7.157   4.660   8.873 -0.0665  0.0093 -0.3369
  800W        W 4319   2.686   3.872   1.014 -0.1469  0.3621 -0.0395
  801W        W 4320   0.620   0.738   1.580  0.1914 -0.1818 -0.0459
  802W        W 4321   0.536   5.538  11.126 -0.2918  0.3061 -0.0676
  803W        W 4322   9.597   5.498   1.298 -0.0190  0.2471  0.1810
  804W        W 4323   6.982   2.785  10.940 -0.3766 -0.2292  0.0374
  805W        W 4324   2.095   5.160  11.471 -0.0616 -0.5817  0.2360
  806W        W 4325   6.423   1.195   0.441  0.2145  0.4164 -0.1268
  807W        W 4326   4.191   0.989  11.706  0.1840  0.1034 -0.1122
  808W        W 4327   1.858   9.559   9.179  0.0420  0.1373  0.3159
  809W        W 4328   3.209   2.355   2.242 -0.1796  0.3128  0.3061
  810W        W 4329   9.277   4.149   1.971  0.1587  0.0778  0.2473
  811W        W 4330   0.902   2.778   2.685 -0.2127 -0.0081 -0.2776
  812W        W 4331   7.512   5.647   1.612 -0.1356 -0.0798  0.2306
  813W        W 4332   6.619   9.112   7.210  0.0881  0.0986 -0.0382
  814W        W 4333   6.290   9.741  10.999 -0.0902 -0.0155  0.4253
  815W        W 4334   1.032   9.926   8.166  0.1361  0.0661 -0.0934
  816W        W 4335   3.618   1.402   0.206 -0.2181  0.2660  0.3952
  817W        W 4336   0.726   0.966  10.130  0.1547 -0.1849  0.2072
  818W        W 4337   4.038   6.770   3.577  0.2610 -0.0850 -0.1774
  819W        W 4338   5.303   5.656   1.319  0.1565 -0.1557  0.1062
  820W        W 4339   2.830   6.683   3.502 -0.2999  0.2922 -0.3732
  821W        W 4340   5.881   4.750  11.294 -0.0730 -0.2538 -0.0468
  822W        W 4341   0.174   5.483  11.468 -0.0799 -0.0260 -0.2407
  823W        W 4342   6.245   8.973   9.618 -0.0780 -0.2213 -0.2108
  824W        W 4343   9.756   1.635   0.065 -0.1255 -0.1148  0.1240
  825W        W 4344   4.117   0.859   3.975  0.4155  0.0727 -0.1252
  826W        W 4345   5.078   3.047  10.155 -0.0371  0.1922  0.1421
  827W        W 4346   0.097   8.205   3.801  0.0884  0.0417 -0.1188
  828W        W 4347   4.286   9.845   9.031  0.0543  0.1421 -0.1078
  829W        W 4348   7.253   9.052   8.176 -0.3142  0.2390 -0.0345
  830W        W 4349   4.960   4.232   1.595 -0.1550  0.0976 -0.3464
  831W        W 4350   8.000   6.715   1.460  0.0151  0.0750 -0.0107
  832W        W 4351   5.755   6.691   9.207  0.1167 -0.1084  0.3991
  833W        W 4352   2.910   6.763  11.531  0.1004 -0.0404  0.1148
  834W        W 4353   8.977   5.605   9.356 -0.1874  0.3846  0.2286
  835W        W 4354   7.721   0.066   3.110  0.0513  0.0323 -0.2231
  836W        W 4355   0.543   7.745  11.015 -0.2115  0.0518 -0.0297
  837W        W 4356   4.969   4.616   2.884 -0.1116  0.1008 -0.0371
  838W        W 4357   2.367   1.262   3.102 -0.0822 -0.1647 -0.2508
  839W        W 4358   3.852   9.265   1.345  0.0907 -0.2301 -0.2632
  840W        W 4359   8.752   6.345  10.534 -0.0031  0.3794  0.1511
  841W        W 4360   7.282   4.278   9.854  0.0039  0.0565 -0.2911
  842W        W 4361   1.492   3.579   9.414  0.3111 -0.3791 -0.1609
  843W        W 4362   0.338   6.090   8.732  0.2002 -0.2804 -0.0885
  844W        W 4363   6.342   5.884   2.170 -0.0496 -0.1512  0.3564
  845W        W 4364   1.152   5.939   7.926 -0.1575 -0.1898 -0.0228
  846W        W 4365   5.635   9.324   0.792 -0.1249  0.0593  0.2445
  847W        W 4366   2.460   0.647   1.200 -0.3191  0.1412  0.0683
  848W        W 4367   4.042   7.083   8.598 -0.1090  0.0005  0.0972
  849W        W 4368   8.704   8.146   9.495  0.0935  0.0838 -0.0062
  850W        W 4369   8.580   6.864   9.323 -0.0839 -0.0350  0.0399
  851W        W 4370   4.827   3.654   3.177 -0.0956 -0.2201  0.0319
  852W        W 4371   9.608   3.365   1.111  0.1618  0.0372 -0.2996
  853W        W 4372   2.571   6.293   8.988  0.0524  0.4756 -0.0764
  854W        W 4373   4.478   2.843   8.138  0.1875 -0.1217 -0.1159
  855W        W 4374   3.916   4.357  10.909 -0.2563  0.0913 -0.5395
  856W        W 4375   2.990   6.300   3.190  0.2300 -0.0912  0.1061
  857W        W 4376   9.644   0.791   1.935  0.1045 -0.0367  0.2488
  858W        W 4377   2.336   5.663   3.501  0.2635 -0.2791  0.0763
  859W        W 4378   6.689   3.136   7.799  0.0808  0.4085 -0.0703
  860W        W 4379   1.505   2.372   1.470  0.0953 -0.1382  0.2416
  861W        W 4380   8.883   2.106   1.616  0.0626 -0.0340 -0.0645
  862W        W 4381   8.810   5.821  10.322  0.0384  0.2902 -0.2961
  863W        W 4382   3.111   9.454   2.522  0.0380 -0.0888 -0.1413
  864W        W 4383   7.976   1.702   7.353 -0.2188 -0.0122 -0.0215
  865W        W 4384   8.847   2.001   9.091 -0.0390 -0.0883  0.0059
  866W        W 4385   7.290   2.627   1.371  0.1388 -0.0345  0.0690
  867W        W 4386   5.210   3.288   0.136  0.2181 -0.2618 -0.0653
  868W        W 4387   2.520   7.214  10.890  0.2130 -0.0828  0.1550
  869W        W 4388   4.223   8.385  10.078  0.0273  0.1405  0.0770
  870W        W 4389   4.320   7.298   0.702 -0.0219 -0.0372  0.1314
  871W        W 4390   1.984   5.970   0.919  0.1947  0.0460 -0.1645
  872W        W 4391   7.439   4.404   9.286 -0.1074 -0.3105 -0.1022
  873W        W 4392   0.972   4.102  11.632 -0.2103  0.0348  0.1309
  874W        W 4393   1.688   6.300   3.316  0.3406  0.2943  0.2103
  875W        W 4394   4.680   0.294   2.334 -0.0549 -0.0881  0.0085
  876W        W 4395   9.700   6.032   2.852 -0.3164  0.2941 -0.0811
  877W        W 4396   9.761   6.077   8.741  0.2041 -0.2111 -0.2575
  878W        W 4397   5.493   2.099  11.162 -0.0088 -0.2162 -0.0281
  879W        W 4398   9.402   7.949   1.639  0.0106  0.2773  0.0853
  880W        W 4399   1.351   2.307   9.047  0.1220 -0.0534  0.2509
  881W        W 4400   1.424   4.223  10.157 -0.1284  0.1673 -0.2365
  882W        W 4401   7.480   8.715  11.099  0.1580  0.2833  0.0076
  883W        W 4402   6.573   6.415   0.063 -0.0910 -0.0571  0.1314
  884W        W 4403   0.290   7.601   2.024  0.0790  0.2341  0.2321
  885W        W 4404   6.720   2.464   8.739 -0.0617 -0.2860 -0.0055
  886W        W 4405   6.957   2.415  11.415  0.0948 -0.1331 -0.2546
  887W        W 4406   5.340   4.589   2.177 -0.1907  0.1587  0.1848
  888W        W 4407   5.940   8.221  10.704 -0.0712  0.2772 -0.4251
  889W        W 4408   0.265   2.736  11.493 -0.0844  0.1960  0.1951
  890W        W 4409   5.541   1.106  10.334 -0.0418 -0.1271  0.2337
  891W        W 4410   7.734   0.788  10.651  0.0364  0.1289  0.4077
  892W        W 4411   4.926   3.317   2.672 -0.0199 -0.1459 -0.0429
  893W        W 4412   2.099   1.163  10.900  0.1426 -0.0819  0.0697
  894W        W 4413   6.393   8.876  11.215 -0.1350  0.1408  0.0673
  895W        W 4414   6.966   5.094   0.162 -0.1851  0.0066  0.1868
  896W        W 4415   8.176   5.293  10.561  0.0465 -0.1599  0.1102
  897W        W 4416   1.721   9.507   3.254 -0.0138 -0.0706  0.2654
  898W        W 4417   4.365   4.985  11.565 -0.1220 -0.2423 -0.3457
  899W        W 4418   4.828   7.804   1.106  0.1097  0.1552 -0.3001
  900W        W 4419   3.536   4.954   0.586 -0.1238  0.1035 -0.0305
  901W        W 4420   7.732   3.703   0.380 -0.0674  0.0657 -0.0874
  902W        W 4421   3.802   2.402   0.518  0.1212  0.0888 -0.0880
  903W        W 4422   4.037   6.706  10.015  0.1691  0.2384  0.0886
  904W        W 4423   0.318   1.711   9.592 -0.0918  0.5555 -0.0108
  905W        W 4424   7.525   7.701   8.945 -0.1607 -0.0281  0.0182
  906W        W 4425   7.448   8.807   0.236  0.2913  0.2234  0.0265
  907W        W 4426   1.288   1.625   9.672 -0.1384 -0.1466  0.0767
  908W        W 4427   0.051   8.717  10.770  0.2008 -0.1110 -0.0684
  909W        W 4428   3.369   9.071   8.475 -0.0363 -0.0100  0.0609
  910W        W 4429   6.393   1.553   3.989 -0.0336 -0.0349 -0.1130
  911W        W 4430   6.333   8.027   1.675 -0.3265 -0.1304  0.2335
  912W        W 4431   0.845   1.408  10.469  0.0285 -0.1470  0.2865
  913W        W 4432   0.581   2.571   3.185 -0.2468  0.0616  0.2547
  914W        W 4433   7.605   8.314   7.557  0.0200  0.0887  0.0723
  915W        W 4434   2.109   9.078   1.541  0.0191  0.0258 -0.2887
  916W        W 4435   3.630   2.084   1.420 -0.0381 -0.0385  0.2015
  917W        W 4436   5.155   5.231   0.552  0.0595 -0.2179  0.0441
  918W        W 4437   6.398   1.678   0.276 -0.1364  0.0107 -0.3152
  919W        W 4438   9.775   0.254  10.662 -0.0948  0.0332  0.2538
  920W        W 4439   3.508   3.181   4.184 -0.3410 -0.0973 -0.3035
  921W        W 4440   2.612   4.976   1.741  0.0520  0.3856 -0.1169
  922W        W 4441   4.690   4.670  11.871 -0.1281  0.5892 -0.4034
  923W        W 4442   2.740   1.748   2.615  0.2912  0.0188  0.1522
  924W        W 4443   4.877   7.195   9.761  0.0349 -0.1161 -0.0481
  925W        W 4444   1.434   2.291   2.017 -0.3477 -0.0614 -0.1484
  926W        W 4445   6.011   3.491  10.530 -0.1951 -0.3934  0.2704
  927W        W 4446   3.895   7.548   9.607  0.2078  0.0554  0.2003
  928W        W 4447   4.717   2.723   2.480  0.0023 -0.2065 -0.1790
  929W        W 4448   2.431   1.181   9.345 -0.1333  0.1732  0.1753
  930W        W 4449   6.901   1.766   1.298 -0.2849  0.1931 -0.4917
  931W        W 4450   8.984   2.838   1.438  0.0789  0.2343 -0.0350
  932W        W 4451   5.149   3.483   0.631  0.0912 -0.1424  0.1556
  933W        W 4452   2.317   7.595   9.483  0.3291  0.0536 -0.0807
  934W        W 4453   2.533   3.114   9.351 -0.2622  0.0219 -0.1543
  935W        W 4454   5.571   5.697   9.206  0.0555  0.3057 -0.0271
  936W        W 4455   3.645   6.462   0.527  0.1963 -0.4013 -0.0745
  937W        W 4456   0.138   2.565   3.890  0.1444  0.1869  0.1052
  938W        W 4457   4.484   7.278   1.608  0.1895  0.2520 -0.1482
  939W        W 4458   8.446   2.914   0.278  0.0519  0.1314  0.0914
  940W        W 4459   9.161   2.047  10.920  0.1127  0.0813 -0.0141
  941W        W 4460   2.609   2.002   8.769  0.0549 -0.1209 -0.5135
  942W        W 4461   1.362   5.989   1.328 -0.0217 -0.1000 -0.3970
  943W        W 4462   2.988   5.612  10.580 -0.3052 -0.0489 -0.0551
  944W        W 4463   6.342   2.908   8.680  0.3790 -0.0499 -0.0979
  945W        W 4464   4.398   5.798   8.729 -0.0930 -0.1637  0.2035
  946W        W 4465   5.165   6.528   8.127 -0.2837 -0.2495  0.0847
  947W        W 4466   9.776   8.128   1.350  0.0547 -0.0594 -0.4525
  948W        W 4467   7.087   2.269   2.182  0.2189 -0.2682  0.2620
  949W        W 4468   1.618   6.362   1.576  0.1199 -0.1105 -0.2679
  950W        W 4469   2.654   8.977   2.266 -0.0812 -0.3504  0.0003
  951W        W 4470   3.861   2.870   4.420 -0.0088 -0.2174  0.1919
  952W        W 4471   6.544   2.775   2.971 -0.1361 -0.1542 -0.0709
  953W        W 4472   6.712   4.771   2.850  0.2173 -0.0244 -0.1061
  954W        W 4473   1.601   8.854   8.187  0.1773 -0.3813  0.1883
  955W        W 4474   0.945   7.720   2.722 -0.1519  0.0176 -0.1386
  956W        W 4475   0.217   9.836   8.959  0.0811  0.0961 -0.2097
  957W        W 4476   7.466   2.486   1.898  0.2780 -0.1845 -0.3044
  958W        W 4477   9.859   3.932   0.444 -0.0086 -0.0892  0.0983
  959W        W 4478   7.241   7.241   0.600 -0.0850  0.0569  0.0696
  960W        W 4479   0.243   3.652   7.564  0.2296 -0.0148 -0.0381
  961W        W 4480   2.654   1.109   1.071  0.1127 -0.2951  0.2426
  962W        W 4481   0.015   5.405   8.585  0.1174 -0.1369  0.2375
  963W        W 4482   7.529   9.055   1.914 -0.0225  0.2760  0.0149
  964W        W 4483   4.948   5.952   8.786  0.3381  0.2593  0.0596
  965W        W 4484   1.846   6.240   8.486 -0.1974  0.0120  0.0773
  966W        W 4485   3.862   9.134   9.624 -0.0467  0.2469  0.2354
  967W        W 4486   6.017   5.988   9.821 -0.3764  0.4202 -0.3951
  968W        W 4487   5.406   2.183   9.771 -0.2993  0.2062 -0.0074
  969W        W 4488   4.281   1.686  10.806  0.3222 -0.0195  0.2905
  970W        W 4489   3.366   0.745   0.747 -0.1045  0.0065  0.0890
  971W        W 4490   9.422   3.861   8.598  0.0008  0.2268  0.0680
  972W        W 4491   6.017   1.720   2.081 -0.3160 -0.1068  0.0507
  973W        W 4492   8.495   2.828  11.054  0.1762 -0.0480  0.0202
  974W        W 4493   5.790   1.986   0.458  0.0256 -0.2171  0.2099
  975W        W 4494   8.222   8.710   2.657  0.0043  0.1514  0.0984
  976W        W 4495   2.747   2.814   3.294  0.2073  0.2215  0.3818
  977W        W 4496   6.266   2.283   8.432 -0.0512  0.2012 -0.2155
  978W        W 4497   7.373   6.334   2.235 -0.2411 -0.2872  0.2320
  979W        W 4498   4.350   4.074   3.305 -0.0925  0.3356 -0.0872
  980W        W 4499   8.723   2.481   0.642 -0.0943 -0.4312 -0.2766
  981W        W 4500   0.505   2.918   1.459  0.1111  0.4269 -0.0978
  982W        W 4501   5.597   4.563   1.283  0.0655  0.3753  0.4490
  983W        W 4502   0.650   1.407   7.817 -0.0978 -0.2979 -0.0596
  984W        W 4503   7.344   0.152   0.929  0.0795 -0.1632 -0.0718
  985W        W 4504   0.759   0.353   9.927 -0.0964 -0.1663 -0.0369
  986W        W 4505   4.401   1.515   2.012  0.0796 -0.2277  0.1579
  987W        W 4506   6.488   8.159   8.802 -0.1252 -0.1438  0.1001
  988W        W 4507   4.641   8.241  10.619  0.0890  0.0634 -0.0280
  989W        W 4508   0.010   3.970   4.352  0.1955  0.1161 -0.2920
  990W        W 4509   0.237   0.765   8.977 -0.1727  0.1870 -0.1746
  991W        W 4510   7.924   0.160  11.411  0.5535 -0.3711  0.0212
  992W        W 4511   9.752   3.428  10.391 -0.4211 -0.0384 -0.0066
  993W        W 4512   7.435   8.985   8.788  0.0135  0.2066 -0.0712
  994W        W 4513   9.507   6.242   1.831 -0.1517 -0.1458 -0.0612
  995W        W 4514   3.668   6.861   3.216  0.1100 -0.1913 -0.2813
  996W        W 4515   7.717   5.993   2.008  0.0566 -0.1844  0.1106
  997W        W 4516   3.252   6.083   9.410  0.1735 -0.2410  0.1392
  998W        W 4517   9.464   3.859   2.737 -0.2654 -0.1929 -0.1811
  999W        W 4518   3.060   3.045   0.061  0.2951  0.0087  0.2353
 1000W        W 4519   8.689   4.105   9.505  0.0479  0.1691  0.0516
 1001W        W 4520   7.617   1.911   0.005 -0.0683  0.1849 -0.1060
 1002W        W 4521   0.578   0.412   9.162 -0.2766  0.0328  0.1464
 1003W        W 4522   2.707   1.825   8.321 -0.0014 -0.1931 -0.3623
 1004W        W 4523   9.732   0.962   9.111 -0.2231 -0.1382  0.0679
 1005W        W 4524   6.142   3.490  11.157 -0.3400 -0.3669 -0.0155
 1006W        W 4525   7.041   2.626   0.901  0.1583  0.1956 -0.0665
 1007W        W 4526   4.001   9.706   2.674  0.1031  0.2945 -0.1227
 1008W        W 4527   1.605   6.684   8.465  0.0357 -0.0281 -0.0070
 1009W        W 4528   8.786   9.234  11.209 -0.1196  0.1197  0.0848
 1010W        W 4529   1.632   9.243   9.592  0.0542  0.1190 -0.0981
 1011W        W 4530   4.313   6.605  11.392  0.2978 -0.1878 -0.0988
 1012W        W 4531   3.868   6.794   9.466  0.1052  0.0623  0.1655
 1013W        W 4532   6.958   2.779   2.193 -0.0177 -0.0924 -0.1763
 1014W        W 4533   7.696   8.255  11.474 -0.1884 -0.0675 -0.0975
 1015W        W 4534   4.121   7.692   1.652 -0.1460 -0.0318  0.1366
 1016W        W 4535   3.649   7.481   8.702  0.2165 -0.1873 -0.0248
 1017W        W 4536   0.062   2.648  10.349 -0.1988  0.0435 -0.1063
 1018W        W 4537   8.463   6.140   2.471 -0.0648  0.0670  0.0259
 1019W        W 4538   5.615   4.296   0.830 -0.2679  0.0753  0.2585
 1020W        W 4539   8.682   9.020   9.406 -0.1305 -0.1150 -0.1593
 1021W        W 4540   5.549   0.200   8.252  0.0426 -0.0304 -0.0025
 1022W        W 4541   5.862   4.690   9.760 -0.0151  0.2794 -0.0095
 1023W        W 4542   3.202   1.984   3.269  0.0765  0.0939 -0.1663
 1024W        W 4543   5.075   8.571  11.653 -0.2527 -0.3917  0.0724
 1025W        W 4544   9.365   6.709   2.240 -0.0607  0.0362  0.0044
 1026W        W 4545   8.407   5.576   8.929 -0.0563  0.0113 -0.0304
 1027W        W 4546   0.472   1.668   8.640  0.4010 -0.1976 -0.0930
 1028W        W 4547   0.822   3.080   1.797 -0.0198 -0.2938 -0.1157
 1029W        W 4548   9.127   1.897  11.393  0.0156 -0.0252  0.1163
 1030W        W 4549   6.687   8.036   9.695 -0.0331 -0.0052 -0.0578
 1031W        W 4550   6.802   8.738   8.443  0.0050  0.0699  0.1201
 1032W        W 4551   5.663   1.818   3.415 -0.0906  0.3168 -0.0988
 1033W        W 4552   8.863   5.496   7.771  0.0186  0.0330  0.0431
 1034W        W 4553   5.442   5.948  11.894  0.0221 -0.1069 -0.2032
 1035W        W 4554   7.810   7.117   0.483 -0.1620 -0.1349 -0.1701
 1036W        W 4555   6.662   2.380   9.841  0.2669 -0.1685  0.0181
 1037W        W 4556   1.717   1.362  10.097 -0.2777 -0.0468 -0.0435
 1038W        W 4557   7.129   2.126   8.779  0.0479  0.0209 -0.4041
 1039W        W 4558   7.953   2.848  10.912 -0.0802 -0.1349  0.1932
 1040W        W 4559   7.642   6.775   9.079 -0.1008  0.0368  0.4186
 1041W        W 4560   4.144   5.891  11.808 -0.1284 -0.2454 -0.1798
 1042W        W 4561   0.645   0.718   9.617 -0.0475 -0.0558  0.0155
 1043W        W 4562   2.732   2.769  11.027 -0.0850 -0.4668 -0.2198
 1044W        W 4563   9.820   3.116   8.798  0.0724  0.0098  0.2621
 1045W        W 4564   0.156   6.488   9.971 -0.2631 -0.4969  0.1391
 1046W        W 4565   2.216   6.711   0.777  0.0334  0.2118  0.1133
 1047W        W 4566   8.121   8.645   2.106 -0.0292 -0.0452  0.3279
 1048W        W 4567   2.127   2.089   9.252  0.1415  0.5241 -0.1724
 1049W        W 4568   5.441   6.524   8.610 -0.0020  0.1647  0.4739
 1050W        W 4569   9.094   9.628   1.780 -0.1786  0.1594  0.2359
 1051W        W 4570   1.425   5.008   9.397 -0.1659 -0.0268 -0.0332
 1052W        W 4571   4.851   2.167   8.402 -0.0909  0.0417 -0.3387
 1053W        W 4572   8.673   8.391   8.214  0.0712  0.0916  0.0944
 1054W        W 4573   3.233   4.097  11.209  0.1099 -0.1227  0.4334
 1055W        W 4574   1.831   9.505   7.525 -0.1092 -0.2197 -0.2209
 1056W        W 4575   4.418   5.851   9.889  0.1888 -0.2872  0.1671
 1057W        W 4576   0.801   8.944   3.037  0.0811  0.1596  0.1330
 1058W        W 4577   5.252   3.238  10.676 -0.0010  0.3245  0.1427
 1059W        W 4578   2.145   1.528   2.199 -0.2339 -0.0323  0.1608
 1060W        W 4579   2.173   5.255   3.101 -0.3419  0.1150  0.1498
 1061W        W 4580   4.951   3.748   9.764  0.0060 -0.4230 -0.1180
 1062W        W 4581   7.322   5.245  10.722  0.0535  0.1350  0.1079
 1063W        W 4582   0.747   9.055  11.302  0.2551  0.2927  0.1650
 1064W        W 4583   9.683   3.583  11.327 -0.2879  0.0999  0.2813
 1065W        W 4584   3.908   2.250   3.506  0.0670  0.0453  0.0363
 1066W        W 4585   0.262   5.491   3.169  0.1759 -0.0080 -0.1225
 1067W        W 4586   2.058   3.325   8.482  0.2922  0.0178  0.4074
 1068W        W 4587   9.920   2.162   1.922 -0.1413  0.2534  0.1539
 1069W        W 4588   7.941   3.074   9.107  0.2316  0.3376  0.1734
 1070W        W 4589   7.039   6.530   0.050  0.1440  0.1135  0.0651
 1071W        W 4590   9.409   2.871   8.645 -0.2016 -0.1767 -0.2208
 1072W        W 4591   4.777   9.380   3.470  0.2000  0.0519  0.1465
 1073W        W 4592   5.368   3.396   9.299  0.3440 -0.0069 -0.0960
 1074W        W 4593   0.573   3.187   9.301  0.0342  0.0248 -0.0061
 1075W        W 4594   8.653   8.948   1.304  0.0306 -0.0084 -0.3363
 1076W        W 4595   4.877   5.754  10.062 -0.0113 -0.2232  0.1712
 1077W        W 4596   1.578   4.748  10.389  0.0370 -0.0475 -0.2338
 1078W        W 4597   8.908   0.355   9.119  0.0514 -0.0893 -0.0147
 1079W        W 4598   7.151   5.436   9.330 -0.0849 -0.3788 -0.1684
 1080W        W 4599   9.752   7.157   2.043 -0.4074  0.0660  0.0118
 1081W        W 4600   3.243   4.412  11.656  0.1666  0.1061  0.1548
 1082W        W 4601   6.204   4.607  10.921  0.0600 -0.2347 -0.0773
 1083W        W 4602   1.553   0.867  10.126 -0.0073 -0.0916  0.0734
 1084W        W 4603   9.860   3.385   0.239 -0.4693  0.0794  0.4515
 1085W        W 4604   1.230   9.812   2.930  0.1988  0.2356  0.0439
 1086W        W 4605   5.031   6.858   8.585 -0.1084 -0.0402 -0.2391
 1087W        W 4606   5.733   6.878   1.972 -0.0478 -0.1960  0.0705
 1088W        W 4607   5.035   5.122   8.709  0.3103 -0.0967  0.1145
 1089W        W 4608   6.635   8.622   1.428 -0.1990 -0.0074  0.1605
 1090W        W 4609   6.620   0.307   3.899  0.0955  0.0494 -0.1358
 1091W        W 4610   4.384   9.790  10.205  0.2101 -0.3848 -0.3315
 1092W        W 4611   3.693   5.286  11.214  0.1648 -0.2458 -0.1009
 1093W        W 4612   1.870   0.933   8.486 -0.0436 -0.6213  0.3077
 1094W        W 4613   1.060   3.548  10.409 -0.0333  0.0118 -0.0900
 1095W        W 4614   0.783   9.684  11.744  0.1379  0.2703  0.0981
 1096W        W 4615   4.884   3.234   9.585 -0.1765 -0.2142 -0.0226
 1097W        W 4616   9.164   6.776   8.385 -0.0067  0.0942 -0.1514
 1098W        W 4617   4.058   1.336   0.410 -0.0520  0.1641  0.1157
 1099W        W 4618   6.730   2.807   9.592  0.0265  0.0169  0.1807
 1100W        W 4619   8.935   7.929   1.717  0.2686  0.2113  0.0127
 1101W        W 4620   7.748   7.514   2.039  0.0597  0.2213 -0.0103
 1102W        W 4621   0.857   3.440   9.056  0.0845 -0.1327 -0.2553
 1103W        W 4622   2.987   8.798   8.638  0.0673 -0.1856  0.0944
 1104W        W 4623   4.465   6.801   9.768  0.1885  0.1978  0.1465
 1105W        W 4624   8.339   4.573   2.512 -0.0981  0.0171 -0.0986
 1106W        W 4625   1.995   0.222  11.047  0.2806  0.0513 -0.3079
 1107W        W 4626   2.513   0.959   3.595  0.0728 -0.5471  0.3645
 1108W        W 4627   8.738   1.478   8.253 -0.0685  0.0769  0.2536
 1109W        W 4628   3.171   2.587  10.901 -0.1170  0.1253 -0.1118
 1110W        W 4629   6.935   5.345   8.036 -0.0028  0.1180 -0.1693
 1111W        W 4630   0.257   8.299  10.755 -0.0430  0.1752  0.2087
 1112W        W 4631   4.691   5.999   2.418  0.5054  0.1168  0.0180
 1113W        W 4632   4.323   2.350   0.068  0.1543  0.0664 -0.1646
 1114W        W 4633   6.435   4.660   2.402 -0.0776  0.0523 -0.1099
 1115W        W 4634   0.625   5.230   0.332 -0.0318 -0.0143  0.0573
 1116W        W 4635   5.631   8.731   2.624  0.0252 -0.0034  0.0562
 1117W        W 4636   2.488   7.025   0.440  0.0396  0.0953  0.2970
 1118W        W 4637   7.604   0.470   8.635 -0.2995 -0.1149 -0.2712
 1119W        W 4638   3.416   1.283   9.684  0.0672  0.0135 -0.1205
 1120W        W 4639   0.800   8.209  10.984  0.1266 -0.2723  0.2467
 1121W        W 4640   7.226   6.693   2.514 -0.1827 -0.0651  0.1524
 1122W        W 4641   7.859   9.682   8.806  0.0823 -0.1118 -0.2105
 1123W        W 4642   5.026   6.080   1.650  0.0270 -0.1335  0.3871
 1124W        W 4643   2.190   4.401   8.117 -0.6262 -0.1837 -0.1026
 1125W        W 4644   6.640   8.004   2.710 -0.1559  0.0400 -0.2919
 1126W        W 4645   8.404   2.534   7.616  0.3277 -0.2014  0.1389
 1127W        W 4646   4.440   2.852   0.379 -0.1279 -0.0864 -0.1553
 1128W        W 4647   9.036   5.439   0.441  0.0399 -0.1243 -0.0407
 1129W        W 4648   1.028   8.600   7.489 -0.0393 -0.1747 -0.1304
 1130W        W 4649   4.092   4.492  11.364  0.1706 -0.2019  0.3101
 1131W        W 4650   7.652   1.338   9.068  0.0495  0.2729  0.1583
 1132W        W 4651   0.352   6.349   8.272  0.3339  0.1547  0.0168
 1133W        W 4652   1.378   7.216   3.731  0.2406 -0.1741  0.2454
 1134W        W 4653   4.440   8.837   0.298 -0.0772  0.0068 -0.1136
 1135W        W 4654   7.541   0.657   0.991 -0.2234 -0.1735  0.1054
 1136W        W 4655   2.853   8.974  11.089 -0.2042 -0.2662  0.3361
 1137W        W 4656   4.865   2.302   2.110  0.1206  0.0094  0.0252
 1138W        W 4657   3.794   1.237  10.151  0.5988 -0.2731 -0.0920
 1139W        W 4658   2.893   7.077   0.063 -0.2703 -0.1922  0.1656
 1140W        W 4659   6.301   1.671  10.951 -0.0880 -0.2375  0.0888
 1141W        W 4660   8.943   0.721   0.560  0.1163  0.2021 -0.0450
 1142W        W 4661   4.571   6.067   1.945  0.2281 -0.1200 -0.0398
 1143W        W 4662   5.598   5.095   2.249  0.1340  0.1316 -0.1195
 1144W        W 4663   4.830   7.440  11.869  0.1926 -0.0781  0.3527
 1145W        W 4664   7.946   1.573   3.503 -0.1229 -0.1334  0.0513
 1146W        W 4665   8.116   6.009   9.768  0.2555  0.3656  0.0162
 1147W        W 4666   4.155   4.569  10.396  0.1052 -0.0100  0.0581
 1148W        W 4667   9.189   1.024  10.552  0.1741 -0.3273 -0.2405
 1149W        W 4668   6.462   7.482   1.880 -0.3389 -0.0201  0.3691
 1150W        W 4669   9.888   6.647   2.189  0.2331 -0.1861 -0.2770
 1151W        W 4670   0.749   3.957   8.909  0.5193  0.2470 -0.2487
 1152W        W 4671   9.636   2.459   2.150  0.0302 -0.2248  0.1782
 1153W        W 4672   0.259   9.668   2.336  0.2655  0.1994  0.0051
 1154W        W 4673   6.769   9.110   8.135  0.1657 -0.3171 -0.0172
 1155W        W 4674   7.476   3.633  11.485 -0.5569 -0.1210  0.2591
 1156W        W 4675   7.264   7.342   9.342  0.0019  0.1282 -0.0984
 1157W        W 4676   4.427   8.530   1.513 -0.0062 -0.2094 -0.2185
 1158W        W 4677   5.359   1.560   2.004 -0.0742  0.0870  0.2703
 1159W        W 4678   7.387   7.120   8.909 -0.0472  0.1689 -0.0166
 1160W        W 4679   7.186   4.902   2.712 -0.0295 -0.0957 -0.1246
 1161W        W 4680   6.560   6.127   2.519  0.0595 -0.2671  0.0273
 1162W        W 4681   3.542   8.019   8.541 -0.0251  0.0501  0.1268
 1163W        W 4682   9.310   9.282   3.278  0.0037  0.0615 -0.3127
 1164W        W 4683   1.858   6.935  11.519  0.1392  0.1769 -0.0374
 1165W        W 4684   1.511   2.411  10.994  0.0630 -0.0943  0.0212
 1166W        W 4685   2.251   1.154  10.312 -0.1237  0.0113  0.2693
 1167W        W 4686   7.539   9.367   6.753 -0.1991  0.1990 -0.0414
 1168W        W 4687   3.246   3.860   9.070  0.3464  0.0083 -0.4613
 1169W        W 4688   2.021   6.125   9.165  0.1096 -0.2526 -0.0206
 1170W        W 4689   6.216   5.246  11.394  0.0293  0.0270  0.0476
 1171W        W 4690   2.538   7.050   3.245  0.0831 -0.2201 -0.0632
 1172W        W 4691   8.841   6.323  11.209 -0.0072  0.2087  0.0708
 1173W        W 4692   4.127   7.093   1.179  0.0782 -0.4378  0.0948
 1174W        W 4693   3.606   7.066   3.804 -0.1056 -0.2318 -0.1766
 1175W        W 4694   1.084   0.617   2.321  0.3891  0.1460  0.1434
 1176W        W 4695   3.830   1.566   9.413 -0.2870 -0.0302  0.0283
 1177W        W 4696   3.462   5.924   2.160 -0.0001  0.1158  0.3382
 1178W        W 4697   7.541   2.729   9.303 -0.0142  0.1111 -0.0896
 1179W        W 4698   4.878   6.192   7.939 -0.1337  0.5191 -0.1394
 1180W        W 4699   2.840   4.913   9.904  0.2447  0.1602 -0.1988
 1181W        W 4700   3.390   5.611   9.478  0.0664  0.0558  0.1468
 1182W        W 4701   2.186   9.389   2.804 -0.2596  0.0690 -0.2021
 1183W        W 4702   2.424   0.620   2.448  0.0448 -0.0683 -0.2557
 1184W        W 4703   5.758   6.433   2.380 -0.1115  0.0018 -0.3088
 1185W        W 4704   3.311   9.938   0.527 -0.3743  0.1452 -0.1167
 1186W        W 4705   8.096   8.749   8.943 -0.1466 -0.4020  0.4073
 1187W        W 4706   0.177   9.764   1.470 -0.0228  0.1432 -0.1174
 1188W        W 4707   6.398   5.591   8.687  0.2669 -0.0999  0.0378
 1189W        W 4708   2.029   2.292   2.194 -0.1860 -0.5292  0.0842
 1190W        W 4709   0.325   5.992   9.971  0.1060 -0.0249 -0.1033
 1191W        W 4710   6.986   0.968   0.417 -0.1450  0.0885 -0.1748
 1192W        W 4711   8.311   3.071   7.826 -0.1302  0.1597  0.0158
 1193W        W 4712   1.581   4.574   1.116  0.1472 -0.3850 -0.5114
 1194W        W 4713   7.008   6.800   0.465 -0.0745  0.0205  0.0758
 1195W        W 4714   7.417   1.886   0.468 -0.1253 -0.1722  0.2722
 1196W        W 4715   2.459   3.296   1.844 -0.0371  0.0567 -0.0953
 1197W        W 4716   9.299   7.544  10.221 -0.1177  0.2246 -0.1583
 1198W        W 4717   8.696   5.158  11.944 -0.1906  0.0840  0.0392
 1199W        W 4718   3.236   4.738   3.544 -0.0274 -0.1677  0.0731
 1200W        W 4719   6.680   1.455   3.618 -0.0845 -0.1676  0.0053
 1201W        W 4720   0.537   4.062   2.702 -0.1541  0.1637  0.0773
 1202W        W 4721   2.895   4.921   0.288 -0.0862 -0.0696 -0.2039
 1203W        W 4722   5.886   0.799   1.971 -0.1727  0.1490 -0.3549
 1204W        W 4723   3.749   3.290   3.751  0.1105  0.0398  0.0587
 1205W        W 4724   6.565   7.915   3.641 -0.1236  0.3313 -0.1550
 1206W        W 4725   9.002   9.294   8.015  0.2125 -0.1657 -0.2848
 1207W        W 4726   1.636   5.301   3.067  0.1779 -0.0590 -0.1984
 1208W        W 4727   7.676   5.228   8.490  0.1060  0.1737 -0.0038
 1209W        W 4728   7.589   0.708   1.512  0.0812  0.1638 -0.2148
 1210W        W 4729   4.612   8.108   9.971 -0.4139  0.1725 -0.2240
 1211W        W 4730   3.746   2.552   2.466  0.1480 -0.1962 -0.0582
 1212W        W 4731   1.411   2.422  11.512  0.0035  0.0785  0.1037
 1213W        W 4732   3.617   5.165   1.410 -0.0183 -0.2515  0.2182
 1214W        W 4733   2.520   1.383  10.735 -0.0108  0.2210  0.3196
 1215W        W 4734   3.352   6.907   0.311 -0.2290 -0.1203 -0.0726
 1216W        W 4735   3.735   8.760   1.354  0.0691  0.1297  0.0984
 1217W        W 4736   9.008   5.329  11.578  0.3002  0.0533 -0.0928
 1218W        W 4737   9.381   6.372  11.719  0.0791  0.0884 -0.1790
 1219W        W 4738   1.109   5.649  11.544 -0.3822  0.3649  0.1374
 1220W        W 4739   2.672   4.376   0.639  0.2095 -0.2468 -0.2036
 1221W        W 4740   8.683   0.986   8.346  0.0459 -0.0219  0.0786
 1222W        W 4741   4.565   1.991   9.365  0.0305 -0.3414  0.0916
 1223W        W 4742   8.007   7.019  10.136  0.0893 -0.1311 -0.2306
 1224W        W 4743   8.256   4.720   8.007 -0.0400  0.0610 -0.0534
 1225W        W 4744   6.230   7.872   8.421 -0.1277 -0.0180 -0.2011
 1226W        W 4745   3.971   9.180   2.731  0.1401  0.1122 -0.0449
 1227W        W 4746   8.967   8.436  10.369 -0.0709  0.1516 -0.1803
 1228W        W 4747   9.548   2.745   9.118  0.1654 -0.0545  0.1071
 1229W        W 4748   1.074   8.624  10.303  0.0516 -0.0119 -0.1024
 1230W        W 4749   3.917   3.535   2.229  0.1491 -0.0141 -0.2747
 1231W        W 4750   2.235   0.306   0.180  0.3083 -0.0053  0.0580
 1232W        W 4751   3.172   8.390   2.727 -0.0480 -0.3250  0.1627
 1233W        W 4752   6.986   1.308   2.157 -0.2243 -0.2306  0.0309
 1234W        W 4753   3.287   0.679  11.436  0.0295 -0.2070  0.2014
 1235W        W 4754   6.213   3.674   2.267 -0.2211  0.2442  0.0558
 1236W        W 4755   5.053   5.882  10.538  0.0956  0.1035 -0.0357
 1237W        W 4756   3.287   5.267   0.276 -0.0603  0.2333 -0.1601
 1238W        W 4757   8.043   4.033   1.329 -0.0858 -0.0406  0.1033
 1239W        W 4758   4.197   9.632   1.367  0.0687  0.0458  0.1306
 1240W        W 4759   6.368   4.383   1.873  0.1665  0.1940  0.2959
 1241W        W 4760   9.338   9.597   7.856  0.2522  0.1360 -0.1050
 1242W        W 4761   5.662   0.809   1.548  0.0197 -0.1832 -0.0685
 1243W        W 4762   3.792   9.720   8.814  0.1566  0.0360  0.0031
 1244W        W 4763   9.456   2.948   2.725  0.0631  0.0312  0.1008
 1245W        W 4764   6.175   7.281  10.985 -0.0854 -0.3026  0.0789
 1246W        W 4765   8.488   4.165   9.944 -0.1453  0.2238 -0.2149
 1247W        W 4766   6.016   7.838   0.023 -0.3026  0.0494  0.0187
 1248W        W 4767   7.154   9.227   3.680 -0.0122 -0.0369 -0.1392
 1249W        W 4768   1.607   6.056   2.812  0.1393 -0.0687  0.2619
 1250W        W 4769   1.677   4.195   8.846  0.4069  0.0578 -0.0077
 1251W        W 4770   1.881   9.315   2.447 -0.3778 -0.6550  0.0474
 1252W        W 4771   9.010   7.156   9.061 -0.0456  0.1357  0.0501
 1253W        W 4772   0.258   1.036   1.339  0.1710  0.2878 -0.3269
 1254W        W 4773   3.546   6.439   1.083 -0.0735 -0.1763 -0.2728
 1255W        W 4774   0.634   3.341   3.963 -0.2975  0.1330  0.3649
 1256W        W 4775   0.364   5.084   1.219 -0.2571 -0.3861 -0.4007
 1257W        W 4776   2.654   0.293  10.591 -0.0066 -0.5752 -0.0447
 1258W        W 4777   8.533   6.394   9.670  0.1140  0.1186 -0.3730
 1259W        W 4778   0.126   7.506  10.686  0.0484 -0.1589  0.0665
 1260W        W 4779   8.354   9.723   7.831 -0.1179  0.2422 -0.1415
 1261W        W 4780   0.622   9.649   1.713  0.1184  0.1779 -0.0762
 1262W        W 4781   6.163   3.745   9.723 -0.1865  0.1748 -0.0242
 1263W        W 4782   8.521   3.865   9.059  0.0679 -0.1024  0.0247
 1264W        W 4783   8.185   1.489   1.387 -0.1934  0.0023 -0.0563
 1265W        W 4784   5.303   9.654   2.527 -0.0448 -0.0951 -0.0101
 1266W        W 4785   8.742   3.056   0.672 -0.0304  0.0030 -0.0081
 1267W        W 4786   1.819   6.594  10.576  0.2096 -0.0987  0.0214
 1268W        W 4787   6.931   6.004   0.901 -0.1850  0.1769 -0.0216
 1269W        W 4788   9.572   4.810   7.689 -0.0084 -0.0673  0.0181
 1270W        W 4789   8.736   2.325  10.021  0.2213  0.1630 -0.2057
 1271W        W 4790   3.547   6.339   3.913  0.0223 -0.2180 -0.0242
 1272W        W 4791   1.779   2.704   8.597  0.2743 -0.2817  0.0927
 1273W        W 4792   9.439   7.786   2.972  0.3015 -0.0797 -0.1553
 1274W        W 4793   8.492   4.647  10.023 -0.0677  0.0095  0.3719
 1275W        W 4794   7.884   1.740   1.684  0.3720  0.0028 -0.2201
 1276W        W 4795   6.649   2.080   1.566 -0.3199  0.2132  0.1813
 1277W        W 4796   6.732   5.304  11.449 -0.0034 -0.4258  0.0130
 1278W        W 4797   5.395   8.406   9.947 -0.2590  0.0607 -0.0389
 1279W        W 4798   3.690   4.395  10.490  0.1064  0.1733  0.1124
 1280W        W 4799   9.047   9.559   9.984 -0.2949  0.0632 -0.1588
 1281W        W 4800   1.682   3.874   3.572 -0.0146 -0.0505  0.1619
 1282W        W 4801   2.809   6.129   0.325 -0.1376  0.0339  0.2040
 1283W        W 4802   3.393   4.481   2.253  0.3662 -0.0425  0.1208
 1284W        W 4803   8.136   8.270   0.903  0.3121  0.2221  0.0513
 1285W        W 4804   1.131   8.837  11.656  0.1945 -0.1855  0.0863
 1286W        W 4805   8.688   9.037  11.926  0.0555  0.1487 -0.2278
 1287W        W 4806   0.136   3.508   9.067  0.3707  0.1445  0.1323
 1288W        W 4807   1.055   3.958   2.794 -0.3996 -0.1718 -0.0235
 1289W        W 4808   4.381   2.531   1.243  0.0557 -0.1955 -0.2802
 1290W        W 4809   7.774   7.069   1.718  0.0274  0.3571 -0.2258
 1291W        W 4810   4.574   0.506   8.248 -0.1297  0.1030  0.0335
 1292W        W 4811   7.100   8.739   1.661  0.0773  0.1223  0.2109
 1293W        W 4812   4.651   7.802   8.990  0.1422  0.0544  0.1615
 1294W        W 4813   2.074   7.284   0.640 -0.1203  0.1867 -0.0000
 1295W        W 4814   3.078   3.818   1.339 -0.0843  0.0404 -0.0832
 1296W        W 4815   6.706   1.050   9.637  0.2513  0.2039 -0.2116
 1297W        W 4816   0.338   4.253   1.771 -0.1999  0.3732 -0.1637
 1298W        W 4817   0.017   4.643   3.194 -0.0720  0.0300 -0.3715
 1299W        W 4818   5.915   5.808   0.126 -0.0986 -0.1694  0.0332
 1300W        W 4819   6.122   2.460   0.417 -0.1098  0.0016 -0.1337
 1301W        W 4820   6.205   2.500   3.230  0.0041  0.0499  0.0323
 1302W        W 4821   7.434   1.731   8.900  0.1156  0.2962  0.0742
 1303W        W 4822   7.709   1.579  10.710  0.1622  0.0345 -0.1295
 1304W        W 4823   3.400   7.435   2.133  0.1737  0.2589  0.2431
 1305W        W 4824   8.666   5.920   9.707  0.0375  0.1960 -0.2305
 1306W        W 4825   7.601   9.100   9.652  0.1108 -0.1002 -0.4592
 1307W        W 4826   7.096   4.141   7.968  0.0985  0.2814  0.0981
 1308W        W 4827   4.587   8.078   2.268 -0.0263  0.2997 -0.2344
 1309W        W 4828   1.032   7.531   8.617 -0.4520 -0.0040 -0.1234
 1310W        W 4829   7.286   5.553   0.206  0.5210 -0.0269 -0.1594
 1311W        W 4830   9.722   4.949   1.990 -0.2763 -0.0362 -0.0643
 1312W        W 4831   0.500   1.348   1.661 -0.2774 -0.0285 -0.0742
 1313W        W 4832   3.126   8.646  10.772  0.2696  0.0771  0.2211
 1314W        W 4833   3.924   5.847   0.883  0.1706 -0.1047 -0.3724
 1315W        W 4834   0.925   3.807   1.263 -0.1446  0.0814  0.1957
 1316W        W 4835   5.857   2.120   8.134 -0.2996  0.1722 -0.1155
 1317W        W 4836   4.960   6.170  10.918 -0.0799  0.0451  0.1388
 1318W        W 4837   0.458   6.969   0.941 -0.3338  0.0630 -0.5668
 1319W        W 4838   6.156   8.350  11.141  0.3185  0.4549  0.0513
 1320W        W 4839   0.796   8.387   0.376  0.0701  0.0420  0.1271
 1321W        W 4840   0.936   2.956   3.164 -0.2955  0.0262 -0.0478
 1322W        W 4841   8.072   6.324   7.251 -0.2628  0.1478  0.0797
 1323W        W 4842   6.756   7.669  11.601 -0.0709  0.0137  0.1316
 1324W        W 4843   9.250   6.019   2.748  0.1347 -0.1036  0.0443
 1325W        W 4844   9.739   5.515  11.792 -0.1474  0.0417  0.1356
 1326W        W 4845   7.367   4.895   9.281  0.1322 -0.1964  0.0574
 1327W        W 4846   6.145   6.877   8.913 -0.1360 -0.1211  0.0287
 1328W        W 4847   6.685   2.063  11.196 -0.1588 -0.1019  0.0487
 1329W        W 4848   1.751   0.371   0.814  0.1238 -0.0439  0.1053
 1330W        W 4849   7.737   5.785  11.823  0.2090  0.0865  0.2210
 1331W        W 4850   3.429   2.256   9.983 -0.1405  0.3039 -0.0028
 1332W        W 4851   9.144   7.028   9.515  0.1812 -0.1041  0.0440
 1333W        W 4852   2.961   8.798   7.615 -0.1249 -0.0589 -0.4057
 1334W        W 4853   2.461   1.676  11.818 -0.0588 -0.2372  0.1041
 1335W        W 4854   5.369   3.077  11.458  0.2688 -0.2010 -0.0749
 1336W        W 4855   2.523   5.793  10.454 -0.0569 -0.0678 -0.0290
 1337W        W 4856   2.024   2.886   8.164 -0.2559  0.0305 -0.0023
 1338W        W 4857   0.539   0.799   2.909  0.1271  0.0975 -0.1718
 1339W        W 4858   2.630   3.077   8.892 -0.1413 -0.1508  0.2075
 1340W        W 4859   1.273   7.676   3.088 -0.1659  0.0466  0.1401
 1341W        W 4860   2.832   6.757   9.385  0.0819  0.2241  0.0759
 1342W        W 4861   5.723   7.048   8.636  0.1269 -0.0608 -0.1546
 1343W        W 4862   8.600   7.005   3.531  0.3040  0.1536  0.0462
 1344W        W 4863   3.681   1.989  11.390  0.1988 -0.0766 -0.3717
 1345W        W 4864   5.912   4.882   8.804 -0.5276  0.0477  0.0860
 1346W        W 4865   7.634   2.267  11.643  0.2442 -0.0648  0.0500
 1347W        W 4866   1.700   9.920  10.064  0.0010 -0.1781  0.1682
 1348W        W 4867   7.155   5.123   9.759  0.0861 -0.0350 -0.1209
 1349W        W 4868   9.018   4.048  10.134 -0.0288  0.1292 -0.0819
 1350W        W 4869   7.676   1.225   8.152 -0.1630 -0.1002  0.0202
 1351W        W 4870   8.558   2.535   8.993  0.2710  0.2447 -0.0563
 1352W        W 4871   5.110   6.271   3.516  0.0762 -0.1118  0.0924
 1353W        W 4872   2.416   4.735   0.410  0.2161 -0.0979  0.2475
 1354W        W 4873   0.253   8.544   8.260 -0.0288  0.1432 -0.0725
 1355W        W 4874   1.283   2.613   2.986  0.0711  0.2510 -0.0758
 1356W        W 4875   5.977   6.216   0.841 -0.2775 -0.0892  0.0389
 1357W        W 4876   3.005   4.962  10.503 -0.1231  0.2674 -0.1508
 1358W        W 4877   5.182   4.905   9.142  0.0950  0.0531  0.2734
 1359W        W 4878   1.077   4.264   9.679 -0.1042 -0.1729  0.2704
 1360W        W 4879   5.562   8.892   3.328 -0.2982 -0.0560 -0.0317
 1361W        W 4880   8.247   2.198  10.496 -0.1005  0.3918  0.0655
 1362W        W 4881   0.061   6.025   9.176 -0.0578  0.5267  0.2356
 1363W        W 4882   1.327   9.423   8.912  0.1100 -0.3212  0.1440
 1364W        W 4883   1.494   4.043   2.466  0.0143 -0.4378 -0.2211
 1365W        W 4884   5.210   1.672   0.911  0.2966  0.0915 -0.1488
 1366W        W 4885   4.642   4.908  10.344 -0.0644 -0.2549 -0.1283
 1367W        W 4886   8.076   8.015   2.062 -0.0413  0.1708 -0.3046
 1368W        W 4887   8.347   0.648   8.430  0.0973  0.3869 -0.0994
 1369W        W 4888   7.531   8.824   1.413  0.0389  0.1031 -0.3253
 1370W        W 4889   3.803   4.794   3.760 -0.2681 -0.0250 -0.2220
 1371W        W 4890   8.829   1.617  11.092  0.0231 -0.3272  0.4377
 1372W        W 4891   4.315   4.720   1.933 -0.1818  0.0796 -0.0258
 1373W        W 4892   4.783   2.586   8.743 -0.1970 -0.0356  0.0058
 1374W        W 4893   0.940   4.615   2.951 -0.2089  0.1705  0.0294
 1375W        W 4894   8.606   6.423   9.140  0.1073 -0.0246  0.1593
 1376W        W 4895   9.942   1.271   3.306  0.0779 -0.1608 -0.3264
 1377W        W 4896   8.595   6.253   8.650  0.0947 -0.1875  0.0726
 1378W        W 4897   2.169   9.700  10.229 -0.2736 -0.2417  0.0225
 1379W        W 4898   7.255   4.180  11.660  0.1627 -0.1780 -0.0069
 1380W        W 4899   2.346   9.307   2.316 -0.1956  0.1009 -0.0064
 1381W        W 4900   8.346   4.830   3.009 -0.0995 -0.0611 -0.0320
 1382W        W 4901   0.347   0.340   9.620 -0.1512  0.2376  0.0113
 1383W        W 4902   0.505   9.183   6.964 -0.1035 -0.6836  0.0156
 1384W        W 4903   9.250   3.179  10.436  0.1166  0.0622  0.2048
 1385W        W 4904   1.812   1.333   9.290  0.0513 -0.4539 -0.4303
 1386W        W 4905   9.753   7.337   7.932 -0.1457  0.0808 -0.2416
 1387W        W 4906   2.316   9.122  10.273  0.2289  0.0660 -0.1217
 1388W        W 4907   1.141   0.869   9.347 -0.0879  0.1417 -0.2606
 1389W        W 4908   7.044   4.310   0.519  0.0932  0.4231  0.0363
 1390W        W 4909   8.866   1.701  11.778 -0.3372 -0.0140 -0.2368
 1391W        W 4910   4.409   0.432   1.845 -0.0524 -0.0124  0.0897
 1392W        W 4911   0.518   3.924  11.129 -0.2601  0.0661 -0.3723
 1393W        W 4912   8.558   4.724  11.702  0.2750  0.2214 -0.1963
 1394W        W 4913   1.974   6.524   8.867  0.2175  0.1846  0.2321
 1395W        W 4914   2.716   1.589   0.263 -0.0568 -0.1123  0.0895
 1396W        W 4915   2.483   8.769   1.536 -0.2151  0.1055  0.1658
 1397W        W 4916   1.615   3.677   8.443  0.0738  0.1267 -0.0720
 1398W        W 4917   8.523   7.794   9.807  0.0860 -0.3782 -0.0399
 1399W        W 4918   3.261   1.256  10.157  0.1044 -0.1739  0.1411
 1400W        W 4919   7.468   4.685  10.741  0.1098 -0.3612 -0.0146
 1401W        W 4920   1.765   2.611  10.638  0.1285 -0.0189 -0.3825
 1402W        W 4921   7.580   2.377   8.815 -0.0636 -0.2529 -0.1074
 1403W        W 4922   9.038   8.826  10.904  0.1692 -0.1464  0.2115
 1404W        W 4923   5.898   7.540   8.609 -0.2525  0.2742 -0.0687
 1405W        W 4924   4.169   0.010   1.794  0.0984  0.2650  0.0294
 1406W        W 4925   9.935   0.534   2.315  0.2889  0.3548 -0.0066
 1407W        W 4926   3.129   3.833   1.850 -0.1772  0.1906  0.1238
 1408W        W 4927   3.739   8.338  11.417 -0.1281  0.2287  0.0329
 1409W        W 4928   0.430   5.055   7.897 -0.2132 -0.3176 -0.0352
 1410W        W 4929   7.288   2.650   3.014 -0.0136 -0.2121  0.0409
 1411W        W 4930   6.770   0.831   2.870  0.0184  0.1814 -0.1416
 1412W        W 4931   8.235   0.299   0.555  0.2180 -0.1730 -0.1890
 1413W        W 4932   6.915   4.505   2.417 -0.2347  0.0118 -0.4268
 1414W        W 4933   1.181   6.381   3.081  0.0488 -0.1092 -0.1077
 1415W        W 4934   3.368   3.469   0.940 -0.2389  0.1797 -0.0739
 1416W        W 4935   2.360   2.786   8.605  0.0185 -0.1605 -0.1146
 1417W        W 4936   4.450   2.490   2.857 -0.2517  0.2304 -0.0408
 1418W        W 4937   0.591   9.913   9.424  0.1623 -0.0122 -0.2639
 1419W        W 4938   8.924   5.130   3.153  0.1320 -0.0203  0.3029
 1420W        W 4939   1.565   0.324   2.199 -0.0243 -0.3449  0.1599
 1421W        W 4940   1.253   3.051   0.616  0.1747 -0.0564 -0.0167
 1422W        W 4941   4.243   3.757   1.600 -0.0447 -0.3612  0.4328
 1423W        W 4942   0.779   7.051   8.730  0.0974  0.1084 -0.1347
 1424W        W 4943   1.570   1.173  11.723  0.0925  0.0222 -0.2501
 1425W        W 4944   9.867   6.268   8.016  0.0357 -0.1381 -0.1352
 1426W        W 4945   9.804   2.258   7.783 -0.1816 -0.0641 -0.3661
 1427W        W 4946   4.592   7.924   7.994  0.5024  0.1438  0.1649
 1428W        W 4947   4.281   8.963  10.473 -0.3248  0.3042 -0.2315
 1429W        W 4948   9.712   2.434   3.632 -0.0081 -0.1631 -0.0110
 1430W        W 4949   9.145   0.787   9.175 -0.0335  0.2146 -0.0402
 1431W        W 4950   3.645   0.345   3.301  0.1292  0.0741 -0.2891
 1432W        W 4951   9.798   0.474   1.097  0.0595 -0.2303  0.1882
 1433W        W 4952   2.016   7.759   9.044  0.3159 -0.1283 -0.3418
 1434W        W 4953   9.493   3.828   1.190  0.0627  0.1180  0.0093
 1435W        W 4954   1.417   5.779   9.798 -0.1262 -0.0633  0.3341
 1436W        W 4955   6.290   4.700  10.129  0.1384 -0.0871 -0.1363
 1437W        W 4956   0.271   7.371  10.195 -0.2209 -0.0512  0.2546
 1438W        W 4957   4.840   7.291   0.850 -0.1398 -0.1581  0.0841
 1439W        W 4958   5.789   8.213   1.867 -0.0157  0.0618  0.2883
 1440W        W 4959   1.725   9.173  11.880  0.1113 -0.0810 -0.1252
 1441W        W 4960   3.943   7.039  11.525  0.1235  0.4355 -0.0108
 1442W        W 4961   8.693   9.838   1.542  0.0588  0.1897 -0.3918
 1443W        W 4962   8.313   9.265   1.403  0.3836  0.4636  0.2046
 1444W        W 4963   3.688   6.783   1.941 -0.0714 -0.2277 -0.0260
 1445W        W 4964   4.074   4.906   8.795 -0.1744  0.0485 -0.1641
 1446W        W 4965   9.236   5.282   0.044  0.0562  0.1473  0.0784
 1447W        W 4966   5.102   5.576   0.078  0.0483 -0.0749 -0.2004
 1448W        W 4967   4.330   0.841   9.001  0.0918  0.0765 -0.0474
 1449W        W 4968   3.579   5.394   2.311 -0.1551 -0.4509 -0.1942
 1450W        W 4969   8.234   2.400   9.812  0.0421 -0.1438  0.0560
 1451W        W 4970   2.883   7.901   8.468 -0.1236 -0.1020  0.3012
 1452W        W 4971   3.772   6.377   1.495 -0.1086 -0.2503  0.2356
 1453W        W 4972   1.226   3.888   0.054  0.0403 -0.2034  0.0465
 1454W        W 4973   4.072   0.043   3.176  0.1081  0.1636  0.2804
 1455W        W 4974   2.381   2.316  11.743  0.1910 -0.0751  0.0575
 1456W        W 4975   1.381   4.516   8.526 -0.1701  0.1263 -0.2697
 1457W        W 4976   8.047   6.913   0.946 -0.0922  0.7546  0.4696
 1458W        W 4977   9.451   7.883   7.735  0.1614  0.1277 -0.2465
 1459W        W 4978   7.402   0.788   0.521  0.0096 -0.0121  0.0431
 1460W        W 4979   3.621   3.207   8.547 -0.1468  0.1539  0.0685
 1461W        W 4980   7.560   6.034  10.881 -0.3500  0.1860 -0.0445
 1462W        W 4981   1.037   5.321   1.478 -0.0762  0.5446 -0.0161
 1463W        W 4982   7.317   3.002   8.348  0.2856 -0.4037  0.2413
 1464W        W 4983   4.238   8.969   7.945 -0.1113  0.1871 -0.0233
 1465W        W 4984   7.112   7.318   1.990 -0.1056 -0.2053 -0.1492
 1466W        W 4985   5.044   7.207  10.385 -0.1118 -0.0071  0.1025
 1467W        W 4986   6.739   0.104   8.808  0.0652 -0.0693  0.1126
 1468W        W 4987   8.390   4.826  10.496 -0.2255  0.3109  0.1220
 1469W        W 4988   3.990   7.616   3.641  0.0061 -0.2417  0.1615
 1470W        W 4989   4.701   6.436   0.433  0.0900 -0.2527 -0.1825
 1471W        W 4990   1.440   2.360   9.969  0.3069 -0.0976  0.0636
 1472W        W 4991   5.051   8.913   2.610  0.0065  0.2929  0.0460
 1473W        W 4992   1.041   4.768   1.224 -0.1129  0.3312  0.1263
 1474W        W 4993   2.068   1.392  11.909 -0.0455  0.0440 -0.0688
 1475W        W 4994   7.917   4.724  10.085  0.0743 -0.2490  0.0188
 1476W        W 4995   8.585   9.896   0.737  0.0447 -0.2507  0.2068
 1477W        W 4996   6.858   1.358  10.036  0.0962 -0.2094 -0.1426
 1478W        W 4997   3.600   0.067   9.658 -0.0436  0.1300  0.1316
 1479W        W 4998   1.172   8.997   9.728 -0.4501 -0.0155  0.0894
 1480W        W 4999   4.532   6.880   0.885 -0.0224 -0.0639 -0.0212
 1481W        W 5000   6.414   6.835  10.235  0.2780  0.1164  0.0175
 1482W        W 5001   2.069   5.494   8.566 -0.0154  0.2034  0.2833
 1483W        W 5002   6.903   2.128   0.876  0.0967  0.0911  0.0317
 1484W        W 5003   3.786   4.801   9.984  0.0577  0.0061 -0.3696
 1485W        W 5004   5.429   4.826   8.698  0.1200 -0.2489  0.1100
 1486W        W 5005   6.755   7.053   1.855 -0.0813  0.3061  0.2086
 1487W        W 5006   8.888   9.833   8.677 -0.2267 -0.2840 -0.1276
 1488W        W 5007   2.951   8.663   1.377 -0.1303 -0.2198  0.3745
 1489W        W 5008   1.511   7.031   2.083  0.0768  0.1684 -0.3162
 1490W        W 5009   5.002   1.486   0.484  0.1293 -0.0751  0.0109
 1491W        W 5010   6.796   0.166   2.117  0.3856 -0.1408 -0.0233
 1492W        W 5011   4.939   3.204   0.958  0.3360 -0.0386  0.0413
 1493W        W 5012   5.618   5.291   8.927  0.1276 -0.1855 -0.3478
 1494W        W 5013   3.944   4.271   0.701  0.1234  0.0989  0.1385
 1495W        W 5014   4.303   8.965   9.388 -0.0532 -0.0165  0.2703
 1496W        W 5015   1.919   8.870   1.056 -0.0378  0.2678  0.0840
 1497W        W 5016   1.154   6.299   0.608  0.3409  0.3014 -0.1403
 1498W        W 5017   6.078   3.160   0.178  0.0019  0.2150  0.0674
 1499W        W 5018   6.161   8.949   1.494 -0.1225  0.3436 -0.1423
 1500W        W 5019   6.977   0.441   0.083 -0.0210  0.1706  0.0008
 1501W        W 5020   7.090   0.135   8.297 -0.3004  0.3513  0.1247
 1502W        W 5021   3.754   4.015  11.229 -0.1070  0.0163  0.0547
 1503W        W 5022   3.365   0.090  10.696 -0.3460 -0.1489  0.1828
 1504W        W 5023   3.597   8.200   2.931 -0.0271  0.1144  0.0630
 1505W        W 5024   4.289   5.787   3.573 -0.0033 -0.1297 -0.3665
 1506W        W 5025   3.089   6.432   9.820 -0.2042  0.0362  0.0073
 1507W        W 5026   4.852   9.448   0.026 -0.0229  0.0620  0.0826
 1508W        W 5027   7.376   6.153  11.942  0.1271  0.1081 -0.1947
 1509W        W 5028   7.741   1.153  11.039 -0.2076  0.0800 -0.0814
 1510W        W 5029   6.481   4.090   0.883 -0.1630 -0.2036 -0.1792
 1511W        W 5030   9.465   9.676  10.794  0.1387  0.1159  0.3615
 1512W        W 5031   6.907   4.893  11.617  0.0581 -0.0173  0.0828
 1513W        W 5032   9.514   4.366   2.500 -0.1572 -0.0363 -0.2779
 1514W        W 5033   2.348   9.888  10.739 -0.2785 -0.1603  0.0782
 1515W        W 5034   9.810   5.583   9.088  0.3320 -0.1016  0.1341
 1516W        W 5035   5.710   4.468   7.943 -0.0100  0.1564 -0.2565
 1517W        W 5036   6.040   8.640  11.533  0.1432 -0.2232  0.3045
 1518W        W 5037   3.259   2.131  11.669 -0.2212  0.1970  0.0824
 1519W        W 5038   1.637   6.147   7.998  0.1769 -0.1661  0.0249
 1520W        W 5039   8.276   6.724  11.741  0.0294  0.1406  0.2297
 1521W        W 5040   0.192   3.235   9.591 -0.3404  0.2823  0.2992
 1522W        W 5041   3.406   5.585  10.985  0.1464 -0.2182  0.3669
 1523W        W 5042   3.669   9.484   8.385 -0.0311 -0.0391 -0.1418
 1524W        W 5043   7.518   9.578   9.624 -0.1025 -0.0035  0.2625
 1525W        W 5044   4.503   1.577   1.098 -0.2446  0.1429 -0.0868
 1526W        W 5045   4.892   6.768   1.807  0.2315 -0.2696  0.0144
 1527W        W 5046   1.117   8.962  10.789  0.0318 -0.0029 -0.0581
 1528W        W 5047   4.890   5.182   1.293  0.0252 -0.2864 -0.3991
 1529W        W 5048   6.052   4.878   1.184  0.3900 -0.2524 -0.2742
 1530W        W 5049   5.018   5.658   8.035 -0.1014  0.1209  0.2406
 1531W        W 5050   2.080   3.396  10.425 -0.0419 -0.1989 -0.0099
 1532W        W 5051   1.743   7.693   1.575 -0.1917 -0.0300 -0.1446
 1533W        W 5052   8.804   4.153   8.459 -0.2404  0.0334  0.2788
 1534W        W 5053   5.332   5.663   0.838  0.2545  0.4030  0.3407
 1535W        W 5054   3.263   6.491   2.204  0.0935  0.0197 -0.3013
 1536W        W 5055   3.811   2.197   7.490 -0.2386 -0.2188 -0.0158
 1537W        W 5056   5.511   6.039   9.724 -0.1129  0.3569  0.1636
 1538W        W 5057   6.477   2.761  10.660  0.1116  0.2801  0.0836
 1539W        W 5058   6.965   7.270   0.062 -0.0995 -0.0817  0.1165
 1540W        W 5059   6.511   2.492   7.008  0.0771  0.3727  0.3326
 1541W        W 5060   6.286   6.585  10.968  0.2972 -0.0145 -0.1497
 1542W        W 5061   9.513   8.514   0.731 -0.1136 -0.1175  0.3521
 1543W        W 5062   2.630   5.216   8.295  0.4064  0.2402  0.2140
 1544W        W 5063   0.116   5.544   1.363  0.3311  0.2756 -0.0708
 1545W        W 5064   7.352   4.855   7.586  0.0492  0.0149 -0.0672
 1546W        W 5065   9.775   0.139   1.429  0.0986 -0.0801  0.2061
 1547W        W 5066   1.535   1.666   8.770 -0.0213 -0.1337 -0.0638
 1548W        W 5067   9.541   9.644   9.720  0.0581  0.1491 -0.0268
 1549W        W 5068   0.281   8.911  11.515  0.0886 -0.2840 -0.2211
 1550W        W 5069   0.550   8.576   9.064  0.0012  0.1250  0.0294
 1551W        W 5070   8.067   9.454   9.791 -0.0133  0.1319  0.1442
 1552W        W 5071   2.688   4.662  10.871  0.3072 -0.0352  0.1546
 1553W        W 5072   5.111   2.671  10.507 -0.2641 -0.1330  0.1326
 1554W        W 5073   9.024   3.868   0.375  0.0197  0.1020 -0.0108
 1555W        W 5074   8.282   3.223   6.889 -0.0424  0.3312 -0.3740
 1556W        W 5075   8.657   4.161   2.532  0.2259  0.2959  0.1449
 1557W        W 5076   8.634   7.017   1.147  0.3048 -0.1958  0.1180
 1558W        W 5077   4.107   5.295   1.568 -0.0953  0.2683 -0.0971
 1559W        W 5078   3.364   9.244   7.974 -0.0651 -0.1919  0.0611
 1560W        W 5079   8.634   6.517   1.650  0.1723  0.2226  0.1795
 1561W        W 5080   5.649   4.717   9.328 -0.0401  0.3546 -0.0098
 1562W        W 5081   1.553   9.265  10.841  0.1906 -0.1665  0.2373
 1563W        W 5082   8.371   9.151   0.943  0.1853 -0.2437  0.1167
 1564W        W 5083   1.977   7.468   8.636  0.1695  0.1463 -0.0313
 1565W        W 5084   9.544   6.587   3.644 -0.0872  0.0704 -0.0949
 1566W        W 5085   8.202   6.700   1.964 -0.1184  0.0784 -0.2171
 1567W        W 5086   3.693   8.902   7.738  0.0480 -0.3054 -0.3317
 1568W        W 5087   6.396   7.118   9.786 -0.0757 -0.0371 -0.0887
 1569W        W 5088   0.116   4.148   7.823 -0.1195  0.1577  0.2000
 1570W        W 5089   5.265   4.473   9.625  0.0323  0.1384  0.2598
 1571W        W 5090   4.028   0.367   4.150 -0.0136  0.0087  0.3721
 1572W        W 5091   1.369   5.657  10.319  0.1673 -0.1254 -0.0071
 1573W        W 5092   2.235   3.691   0.174 -0.1163  0.1087  0.0823
 1574W        W 5093   2.887   4.371   9.302 -0.0308 -0.0873 -0.1318
 1575W        W 5094   8.878   6.747  10.811  0.0387 -0.2236 -0.4378
 1576W        W 5095   0.836   6.032   0.032 -0.0699 -0.2091 -0.3075
 1577W        W 5096   9.665   7.261  10.325 -0.0583 -0.1919 -0.2024
 1578W        W 5097   4.749   5.536   9.513 -0.3450  0.1362  0.2418
 1579W        W 5098   8.000   8.776   7.601  0.2100  0.3676 -0.1742
 1580W        W 5099   4.321   6.721   9.314 -0.1364 -0.0505  0.0723
 1581W        W 5100   0.181   0.136  10.973 -0.3187 -0.0332 -0.1061
 1582W        W 5101   8.398   9.751   6.835  0.1525  0.1005 -0.5493
 1583W        W 5102   7.632   1.778   2.726 -0.1064 -0.0206  0.0548
 1584W        W 5103   0.813   8.262  11.473 -0.1407 -0.3142 -0.0122
 1585W        W 5104   9.220   1.204   3.460  0.2800  0.0696  0.1705
 1586W        W 5105   5.336   8.874  10.425 -0.2786  0.2212  0.1728
 1587W        W 5106   9.688   8.466   7.171  0.0717 -0.3886  0.3468
 1588W        W 5107   1.376   9.093   8.569  0.0022 -0.2474  0.0819
 1589W        W 5108   5.826   8.933   9.336  0.2723  0.1388  0.0797
 1590W        W 5109   2.734   6.200  10.308 -0.1166 -0.3922  0.0257
 1591W        W 5110   6.564   3.123  11.067 -0.2036  0.2734  0.1192
 1592W        W 5111   7.614   8.257   2.882 -0.0697  0.1827 -0.1206
 1593W        W 5112   3.477   8.050   2.418  0.1268  0.2634  0.0766
 1594W        W 5113   9.176   6.930  11.577  0.3660 -0.1334  0.1372
 1595W        W 5114   8.499   8.457   1.257 -0.0890  0.3141  0.2463
 1596W        W 5115   6.779   3.681  10.351  0.3493  0.0445 -0.1886
 1597W        W 5116   0.446   0.517  11.325  0.0292  0.2103 -0.1550
 1598W        W 5117   5.357   8.263   9.394  0.3868  0.2295 -0.1129
 1599W        W 5118   4.898   7.622  10.050  0.0204 -0.1252  0.0879
 1600W        W 5119   2.394   8.735   1.027  0.1231 -0.1148 -0.0755
 1601W        W 5120   5.746   7.191   9.073  0.0238  0.0987  0.2718
 1602W        W 5121   5.671   5.567   9.916  0.2774  0.0519 -0.1669
 1603W        W 5122   9.484   4.765  10.883  0.1931  0.3044 -0.1156
 1604W        W 5123   2.668   9.747   1.594  0.0399  0.1009 -0.1535
 1605W        W 5124   0.604   3.542  10.050 -0.0236  0.1955 -0.1846
 1606W        W 5125   7.621   0.490   2.442 -0.2332  0.1963 -0.0753
 1607W        W 5126   0.625   2.096   3.353  0.0487  0.2211  0.1471
 1608W        W 5127   6.747   6.652   9.958 -0.2320 -0.2814  0.1767
 1609W        W 5128   3.606   8.656  11.826  0.0985  0.1494  0.0638
 1610W        W 5129   7.442   4.679   1.878 -0.3037  0.0455  0.0094
 1611W        W 5130   4.165   8.700   2.380  0.0909  0.2194 -0.1558
 1612W        W 5131   1.364   2.093   0.157  0.1894  0.0875 -0.5394
 1613W        W 5132   4.705   0.306   0.788  0.0104 -0.1351 -0.0886
 1614W        W 5133   6.317   3.385   9.218 -0.0898  0.1413 -0.1173
 1615W        W 5134   2.262   1.957   2.508 -0.2298 -0.1849 -0.0305
 1616W        W 5135   6.898   5.798   2.450 -0.1500  0.2041 -0.1089
 1617W        W 5136   3.492   7.298   1.012 -0.1602  0.3596  0.0033
 1618W        W 5137   3.849   4.555   8.512 -0.0197 -0.0210 -0.1127
 1619W        W 5138   6.738   9.743  11.214  0.1253 -0.0833 -0.4134
 1620W        W 5139   8.088   4.908   8.486 -0.0886  0.0135  0.5357
 1621W        W 5140   3.633   2.831   8.911 -0.1046 -0.1324  0.0717
 1622W        W 5141   4.588   8.614   9.237  0.0792  0.1983  0.1805
 1623W        W 5142   0.018   7.827   3.476  0.0048 -0.1175 -0.0162
 1624W        W 5143   5.605   8.808   8.255  0.0386 -0.3914 -0.1974
 1625W        W 5144   4.683   6.805   1.350  0.1227 -0.1807  0.0305
 1626W        W 5145   2.280   7.247   3.900  0.4049 -0.1163 -0.2110
 1627W        W 5146   1.172   8.636   8.460  0.3050 -0.4265  0.0346
 1628W        W 5147   1.833   5.850   0.462  0.1753  0.2400 -0.1825
 1629W        W 5148   1.644   8.926   9.977 -0.0149  0.1021  0.3653
 1630W        W 5149   7.393   1.540   1.954  0.0282 -0.2845  0.2547
 1631W        W 5150   9.449   0.612   0.735  0.0770 -0.1612 -0.2087
 1632W        W 5151   8.560   7.486   0.138  0.2492  0.2234  0.1100
 1633W        W 5152   1.928   9.390   1.936 -0.0140 -0.0934  0.0887
 1634W        W 5153   1.508   7.712   8.775 -0.0402 -0.1035 -0.1105
 1635W        W 5154   5.042   0.534  11.545 -0.2808 -0.0709  0.1720
 1636W        W 5155   2.958   8.089   3.080  0.4053  0.0569  0.2330
 1637W        W 5156   1.219   7.837   1.629 -0.1933  0.0230 -0.1547
 1638W        W 5157   2.482   5.871  11.370  0.0415 -0.1026  0.0820
 1639W        W 5158   1.271   3.470   8.177 -0.1237  0.2861 -0.0715
 1640W        W 5159   2.384   7.033   9.469 -0.0909  0.0360 -0.5303
 1641W        W 5160   5.916   4.713   3.396  0.0782  0.0270  0.2387
 1642W        W 5161   2.809   1.717   9.165 -0.0510  0.1552 -0.1819
 1643W        W 5162   4.046   2.051   9.252  0.0177 -0.0389 -0.0749
 1644W        W 5163   5.611   9.695   3.469  0.2245  0.0792 -0.0846
 1645W        W 5164   5.243   2.359   8.705  0.0905 -0.1789  0.1842
 1646W        W 5165   6.107   1.433   2.597 -0.2576  0.4450 -0.1531
 1647W        W 5166   6.465   4.201  10.048 -0.0263  0.1886  0.1230
 1648W        W 5167   2.996   4.769   2.081 -0.2662  0.1262 -0.3187
 1649W        W 5168   6.675   7.470  11.157  0.1757 -0.0869  0.1711
 1650W        W 5169   1.986   1.624  11.055  0.2787  0.0943 -0.1481
 1651W        W 5170   7.464   3.892   9.171 -0.1555 -0.2949  0.0398
 1652W        W 5171   1.242   1.047  10.525  0.4098  0.0635  0.3302
 1653W        W 5172   5.386   1.697   2.912  0.0499 -0.0497  0.1405
 1654W        W 5173   1.394   9.688   9.432  0.0234 -0.2445 -0.3398
 1655W        W 5174   7.491   2.562   7.427  0.0048  0.0356  0.2160
 1656W        W 5175   4.515   3.757   8.297 -0.2447  0.1909  0.1941
 1657W        W 5176   8.555   3.334  11.197 -0.1545 -0.0073  0.1095
 1658W        W 5177   6.100   5.885   1.163  0.0302 -0.1261  0.0392
 1659W        W 5178   8.977   1.415   9.637  0.0048 -0.0658 -0.0238
 1660W        W 5179   2.412   9.929   9.721  0.3595  0.0317 -0.0902
 1661W        W 5180   7.001   1.519  10.515 -0.1368  0.1404 -0.1069
 1662W        W 5181   4.271   3.906   2.511 -0.1297  0.1501 -0.1737
 1663W        W 5182   8.918   7.144   0.445  0.1179 -0.0663  0.0671
 1664W        W 5183   1.768   4.292   2.121  0.0019  0.2365 -0.0453
 1665W        W 5184   9.706   9.939   2.273  0.1064 -0.1250  0.1124
 1666W        W 5185   1.237   8.882   2.050 -0.0961  0.1066  0.1608
 1667W        W 5186   5.218   2.220   3.506  0.1182  0.0700 -0.3087
 1668W        W 5187   4.561   1.542   9.982  0.1984 -0.2400  0.0993
 1669W        W 5188   1.784   5.515   1.807  0.4449  0.3108 -0.0131
 1670W        W 5189   6.844   6.566  10.954  0.0793 -0.2349  0.1369
 1671W        W 5190   3.544   4.929   2.385  0.1413 -0.1476 -0.2360
 1672W        W 5191   7.763   2.479   8.347  0.1780 -0.3340  0.1597
 1673W        W 5192   0.587   9.470   7.367  0.3933 -0.0296  0.1289
 1674W        W 5193   5.732   2.294   3.296 -0.2619  0.0380  0.1110
 1675W        W 5194   5.562   2.471   0.651 -0.2593 -0.2242 -0.0312
 1676W        W 5195   0.015   8.514  11.189 -0.2300  0.1919  0.0224
 1677W        W 5196   3.974   0.378   1.492  0.1356  0.1258 -0.1168
 1678W        W 5197   3.189   0.321   0.917 -0.0155  0.0093  0.2950
 1679W        W 5198   4.451   3.250   0.753  0.0635 -0.1138  0.2516
 1680W        W 5199   8.675   3.598   3.348 -0.0488  0.0485  0.0845
 1681W        W 5200   0.070   1.936   0.573 -0.1103 -0.0149  0.2403
 1682W        W 5201   9.373   4.488   8.599 -0.0852 -0.1448  0.2626
 1683W        W 5202   3.771   9.949  10.929 -0.4007  0.0327  0.4783
 1684W        W 5203   4.382   1.563   2.485  0.0525 -0.0662  0.3114
 1685W        W 5204   0.708   2.056   9.086  0.0125 -0.0556  0.1705
 1686W        W 5205   4.989   3.913   0.452  0.1761  0.1320 -0.0761
 1687W        W 5206   6.827   1.271   2.683 -0.1302  0.2123 -0.0401
 1688W        W 5207   3.321   0.361   8.584  0.0041  0.1861  0.2881
 1689W        W 5208   1.065   1.467   8.727 -0.3008 -0.1834 -0.2032
 1690W        W 5209   8.288   9.169   9.079 -0.0265 -0.1386 -0.0942
 1691W        W 5210   5.037   1.704   8.075 -0.2684 -0.1110  0.0311
 1692W        W 5211   0.522   5.703   0.270  0.1012 -0.0928  0.2093
 1693W        W 5212   9.278   7.047   7.569 -0.0270 -0.1854  0.3814
 1694W        W 5213   4.726   4.350  10.304 -0.0106 -0.1228  0.1694
 1695W        W 5214   2.872   4.190  10.853  0.2863 -0.0860  0.1313
 1696W        W 5215   3.016   3.255  11.035  0.3197  0.1415  0.5245
 1697W        W 5216   8.716   8.941   8.335  0.1460  0.0185 -0.2894
 1698W        W 5217   2.849   6.850   5.359  0.1619 -0.2508 -0.2415
 1699W        W 5218   3.377   0.523   1.888 -0.2508 -0.1590  0.1381
 1700W        W 5219   6.731   4.355  11.494  0.1495  0.1103 -0.0176
 1701W        W 5220   7.431   5.962  10.324 -0.0056 -0.3118 -0.0795
 1702W        W 5221   5.630   2.615  10.179  0.0045  0.3581  0.0276
 1703W        W 5222   2.914   3.072   2.897 -0.0442 -0.1260 -0.0382
 1704W        W 5223   9.239   8.393   8.186  0.0862 -0.0731 -0.1731
 1705W        W 5224   7.574   6.783  11.196 -0.2461  0.0508  0.1267
 1706W        W 5225   8.091   6.873   9.200  0.1361  0.0656 -0.0393
 1707W        W 5226   8.468   2.712  10.203 -0.0252  0.2999  0.1107
 1708W        W 5227   7.374   0.039   0.283 -0.2909  0.1120 -0.2439
 1709W        W 5228   8.894   1.226   0.134  0.0164  0.3642  0.2888
 1710W        W 5229   1.434   6.991   0.877  0.3403 -0.0905  0.1282
 1711W        W 5230   4.561   2.784  11.825 -0.4086 -0.2903  0.4509
 1712W        W 5231   8.979   3.088   8.454 -0.2607  0.1845  0.1341
 1713W        W 5232   9.236   4.834   9.583  0.0646  0.0640 -0.2907
 1714W        W 5233   9.156   4.131  11.895 -0.0587  0.0265 -0.0397
 1715W        W 5234   0.323   1.047   0.485 -0.1919 -0.0325  0.1710
 1716W        W 5235   4.836   3.967   8.810 -0.0174  0.0881 -0.1151
 1717W        W 5236   5.693   2.537   0.087  0.0816  0.2352 -0.1216
 1718W        W 5237   8.184   8.377   3.083  0.2575  0.0842 -0.0889
 1719W        W 5238   7.470   7.001   2.200 -0.2637 -0.2456  0.0667
 1720W        W 5239   2.236   6.495   9.496 -0.1216  0.0455  0.1758
 1721W        W 5240   3.973   6.649   4.161  0.2231 -0.0577 -0.2187
 1722W        W 5241   5.351   6.875   9.513  0.3974 -0.0801  0.0532
 1723W        W 5242   2.886   5.623  11.063 -0.0210 -0.0595 -0.0015
 1724W        W 5243   9.413   8.675   2.218  0.1701 -0.0334  0.2283
 1725W        W 5244   0.699   0.359   0.824  0.1041 -0.1392 -0.2944
 1726W        W 5245   3.202   1.373   2.449  0.1297  0.0057 -0.0603
 1727W        W 5246   0.084   8.527  11.739  0.1120  0.2229  0.0395
 1728W        W 5247   0.578   8.630   0.758  0.1585  0.0088  0.0082
 1729W        W 5248   7.715   0.325   1.901  0.2237 -0.2490 -0.2687
 1730W        W 5249   6.130   1.476   7.425 -0.1569 -0.0075 -0.0389
 1731W        W 5250   6.618   3.906   1.796 -0.0069  0.0373  0.0594
 1732W        W 5251   8.438   6.976  10.948 -0.0676 -0.0017 -0.2055
 1733W        W 5252   9.860   4.524   0.292  0.1471  0.1410  0.3423
 1734W        W 5253   0.888   2.869   9.174  0.2888  0.2311  0.0107
 1735W        W 5254   4.057   4.055  10.449 -0.2988 -0.2223  0.0789
 1736W        W 5255   4.345   9.084   1.561 -0.0815  0.1677  0.0508
 1737W        W 5256   3.977   9.752   9.842  0.0191 -0.0895 -0.2191
 1738W        W 5257   5.636   5.543  11.709  0.0728 -0.2854  0.4811
 1739W        W 5258   4.623   4.470  11.161  0.1310  0.0589  0.2492
 1740W        W 5259   0.698   5.281   9.384 -0.0217 -0.0194  0.1719
 1741W        W 5260   3.395   5.151   9.297 -0.0056  0.1977 -0.0396
 1742W        W 5261   9.223   4.444   3.771 -0.0376  0.0954  0.4694
 1743W        W 5262   5.580   3.795  10.648  0.0365  0.1389  0.1392
 1744W        W 5263   7.991   7.064   2.257 -0.0018  0.1830  0.0049
 1745W        W 5264   0.772   1.510   9.118  0.1228  0.2543 -0.2201
 1746W        W 5265   2.274   5.260   1.950 -0.0562 -0.1908 -0.1965
 1747W        W 5266   5.116   9.823  11.638 -0.3058 -0.0850 -0.2140
 1748W        W 5267   2.395   5.899   0.306  0.2441 -0.0923  0.0307
 1749W        W 5268   2.441   6.540   3.118  0.2174 -0.0080  0.1047
 1750W        W 5269   4.662   0.825   9.906 -0.1469 -0.2698  0.0252
 1751W        W 5270   8.796   3.287   0.130 -0.1493 -0.2186 -0.0727
 1752W        W 5271   3.721   0.100   9.136  0.0067 -0.5460  0.0142
 1753W        W 5272   8.660   2.713   9.713 -0.1944  0.0923 -0.0788
 1754W        W 5273   1.628   9.764   2.238 -0.1210 -0.0246 -0.0196
 1755W        W 5274   4.101   2.192   1.515  0.1637 -0.0909  0.0557
 1756W        W 5275   8.280   6.881   9.726 -0.2351 -0.0774  0.0751
 1757W        W 5276   5.594   6.143   9.081 -0.2176  0.1220  0.1832
 1758W        W 5277   2.395   4.363  10.534 -0.2371 -0.0137 -0.1865
 1759W        W 5278   9.670   1.832  11.509 -0.1820 -0.0948  0.2042
 1760W        W 5279   5.341   5.460  10.299  0.0124 -0.1020  0.0800
 1761W        W 5280   5.923   6.666   7.335  0.1378  0.0402 -0.0848
 1762W        W 5281   0.990   4.186   0.476 -0.1397 -0.1355  0.2124
 1763W        W 5282   9.860   2.927   2.463  0.1407  0.3179  0.0872
 1764W        W 5283   8.151   7.931   6.979  0.3272 -0.1729  0.0852
 1765W        W 5284   6.003   5.874   8.336 -0.1924 -0.1753  0.4176
 1766W        W 5285   5.442   7.748   2.615  0.0262 -0.0684 -0.3005
 1767W        W 5286   4.844   4.474   8.915  0.0862 -0.0020 -0.1266
 1768W        W 5287   2.909   1.431  11.584  0.1270  0.2042 -0.1650
 1769W        W 5288   0.193   8.453   0.468  0.2433 -0.4918  0.1233
 1770W        W 5289   4.648   0.708  10.458 -0.0924  0.2423 -0.0888
 1771W        W 5290   9.875   5.630  10.028 -0.1966 -0.2229  0.3190
 1772W        W 5291   3.118   6.394   1.281  0.2896 -0.3767 -0.1304
 1773W        W 5292   6.155   6.120  10.776  0.2547  0.1672  0.1537
 1774W        W 5293   8.753   0.321   1.702 -0.1217 -0.2375  0.1532
 1775W        W 5294   3.587   3.961  11.784  0.0704  0.5083 -0.0640
 1776W        W 5295   8.148   3.625  11.371  0.0502  0.1172 -0.0183
 1777W        W 5296   4.881   0.258   1.817 -0.1463  0.0856 -0.4678
 1778W        W 5297   6.360   9.237   0.074 -0.0861  0.0337  0.3109
 1779W        W 5298   3.436   5.812   0.538  0.0699  0.0788 -0.4401
 1780W        W 5299   9.056   3.829   2.399 -0.1737  0.1313  0.2860
 1781W        W 5300   9.692   3.221   9.298  0.0234 -0.1169  0.2191
 1782W        W 5301   4.279   2.530   2.265  0.0972  0.1196  0.2145
 1783W        W 5302   5.820   5.262   1.752 -0.1336 -0.0602  0.3726
 1784W        W 5303   4.174   8.651   8.440 -0.3407 -0.1604 -0.1550
 1785W        W 5304   8.859   6.073   9.330  0.0394  0.1744  0.2416
 1786W        W 5305   9.565   7.679  10.728 -0.2799  0.2452  0.2186
 1787W        W 5306   9.210   1.122   1.173  0.2856  0.1685  0.1733
 1788W        W 5307   7.175   4.488   1.451 -0.0149  0.3209 -0.2368
 1789W        W 5308   6.478   6.579   8.422  0.2344  0.1953 -0.1640
 1790W        W 5309   5.935   9.320   9.767 -0.0111  0.0785 -0.0285
 1791W        W 5310   2.562   8.308   2.877 -0.1163  0.0099  0.1410
 1792W        W 5311   8.169   5.698   0.689  0.1279  0.1002  0.0054
 1793W        W 5312   3.002   2.707   0.864  0.1320  0.2083 -0.0495
 1794W        W 5313   5.738   5.254  11.286  0.2785 -0.0783  0.0164
 1795W        W 5314   6.838   0.937   9.075 -0.6297 -0.0410  0.0151
 1796W        W 5315   3.976   3.565   8.470 -0.0538 -0.0246 -0.0493
 1797W        W 5316   8.957   7.964   8.033  0.0505  0.1719  0.1759
 1798W        W 5317   8.175   7.690   8.139 -0.0929  0.2326 -0.0508
 1799W        W 5318   4.926   7.071  11.158 -0.0009 -0.1698 -0.0784
 1800W        W 5319   2.315   3.950   0.687  0.2636 -0.4537  0.1712
 1801W        W 5320   9.715   4.542   1.689 -0.2863  0.2679 -0.1383
 1802W        W 5321   7.748   6.871  11.705 -0.0462 -0.1299  0.0887
 1803W        W 5322   8.894   4.228   9.098  0.0906  0.0668  0.1718
 1804W        W 5323   5.002   8.428  11.176 -0.0784  0.1424  0.0931
 1805W        W 5324   9.468   7.777   0.307  0.1014 -0.0147 -0.1291
 1806W        W 5325   6.123   0.727   0.600  0.0740  0.0259 -0.3289
 1807W        W 5326   1.498   8.640   8.842  0.2758 -0.2694 -0.0751
 1808W        W 5327   3.276   2.148   7.650  0.1524 -0.1322  0.0305
 1809W        W 5328   9.324   1.369   2.652  0.2353 -0.0251 -0.0661
 1810W        W 5329   7.745   0.336   0.518  0.0851  0.0366  0.1126
 1811W        W 5330   1.947   0.829  11.883  0.5536  0.1223 -0.1726
 1812W        W 5331   0.296   4.167   0.187  0.1087  0.0305  0.1186
 1813W        W 5332   2.988   9.885   2.742  0.2507  0.1064 -0.1700
 1814W        W 5333   0.708   0.456   2.545 -0.0118  0.1133  0.1747
 1815W        W 5334   3.410   8.760   9.870  0.1528  0.0175  0.3245
 1816W        W 5335   4.957   0.824   0.106  0.0544  0.0930  0.0369
 1817W        W 5336   3.462   0.715  10.866  0.0735 -0.1209  0.1632
 1818W        W 5337   5.963   4.307   1.578  0.0181 -0.1556 -0.0897
 1819W        W 5338   9.219   1.136   0.694  0.2333 -0.0208 -0.0878
 1820W        W 5339   4.490   4.217   2.804 -0.0290 -0.1448  0.2526
 1821W        W 5340   4.390   6.098  10.867 -0.3253  0.0723 -0.1744
 1822W        W 5341   8.892   9.426   1.340 -0.1751  0.0578 -0.2860
 1823W        W 5342   7.804   5.735   9.998  0.2035 -0.0039 -0.1724
 1824W        W 5343   4.513   4.686   2.624 -0.1203 -0.1741 -0.3261
 1825W        W 5344   0.646   6.536   9.606  0.1014 -0.1125 -0.0156
 1826W        W 5345   2.552   0.691  10.295  0.1850  0.0257 -0.1274
 1827W        W 5346   6.528   3.197   8.304 -0.1685  0.2271  0.1271
 1828W        W 5347   6.453   6.234   1.003 -0.1590  0.1954 -0.1983
 1829W        W 5348   0.632   2.750  11.833 -0.0467 -0.0629  0.4309
 1830W        W 5349   5.504   4.680  11.869 -0.0579  0.1124  0.0286
 1831W        W 5350   7.704   9.868  10.428  0.3114 -0.2530  0.1165
 1832W        W 5351   8.156   2.647   8.138 -0.2873  0.0716  0.2205
 1833W        W 5352   5.588   1.521   8.210 -0.1543  0.0536 -0.1061
 1834W        W 5353   7.293   1.971  11.460  0.0873  0.0150 -0.0312
 1835W        W 5354   0.495   7.852   2.929 -0.0086 -0.1352  0.2506
 1836W        W 5355   9.200   9.572   9.030 -0.3315 -0.4902 -0.1489
 1837W        W 5356   2.753   4.141   2.018  0.2040 -0.0245 -0.0036
 1838W        W 5357   7.722   9.093   9.147  0.2787 -0.0240  0.0174
 1839W        W 5358   5.985   0.885   2.536 -0.0599  0.1336  0.0977
 1840W        W 5359   5.261   3.667   2.399  0.1173  0.0332  0.1628
 1841W        W 5360   5.953   0.803  11.778  0.0116  0.0305  0.1717
 1842W        W 5361   8.559   4.544   0.738  0.0812 -0.0431 -0.0319
 1843W        W 5362   1.434   9.552   1.223 -0.0466 -0.0491  0.1292
 1844W        W 5363   3.713   7.237   1.743  0.2643  0.0411 -0.0130
 1845W        W 5364   0.593   3.555   2.008  0.0081  0.1128  0.2428
 1846W        W 5365   9.267   0.763   0.176 -0.1355 -0.0466 -0.1045
 1847W        W 5366   0.908   9.573   7.718 -0.0750  0.0839  0.1347
 1848W        W 5367   3.225   2.936  11.420 -0.0698  0.0498 -0.0460
 1849W        W 5368   4.040   3.307   8.941  0.1142  0.0047  0.3098
 1850W        W 5369   2.547   3.288  10.228  0.1369  0.1690  0.0451
 1851W        W 5370   4.286   8.744   2.897 -0.0623  0.1083 -0.0683
 1852W        W 5371   6.429   1.068   2.580 -0.1284  0.1440  0.0745
 1853W        W 5372   4.779   2.071   0.795 -0.3260  0.0624  0.0052
 1854W        W 5373   3.403   8.752   1.808 -0.4165  0.2080  0.0310
 1855W        W 5374   4.327   2.595   3.833 -0.1855  0.3099 -0.6133
 1856W        W 5375   3.053   9.493   8.306  0.2664  0.0534  0.2719
 1857W        W 5376   4.543   2.276   9.900 -0.2764 -0.3075  0.2842
 1858W        W 5377   3.874   4.433   2.026  0.0040 -0.0762 -0.0163
 1859W        W 5378   9.003   2.658   1.929 -0.0003 -0.2254  0.0303
 1860W        W 5379   2.398   8.864   8.769 -0.2814  0.2284  0.1801
 1861W        W 5380   6.513   2.682   8.268 -0.0162  0.1728  0.2952
 1862W        W 5381   7.974   5.186   8.042  0.3985  0.4310  0.1449
 1863W        W 5382   8.415   1.471  11.713 -0.0057  0.1906 -0.0942
 1864W        W 5383   9.298   9.780   8.325 -0.1971 -0.1379  0.0213
 1865W        W 5384   4.873   9.836  10.095 -0.2641  0.1955  0.0470
 1866W        W 5385   8.269   2.175   2.593  0.2647 -0.1150  0.0940
 1867W        W 5386   0.698   5.130  10.130  0.0085 -0.1892  0.0143
 1868W        W 5387   6.094   5.232   0.810 -0.2100  0.0052  0.3298
 1869W        W 5388   1.609   3.883  11.656  0.1344 -0.1154  0.1008
 1870W        W 5389   4.767   1.746   2.170  0.0169 -0.2606 -0.0033
 1871W        W 5390   6.639   6.135  10.930 -0.1488 -0.0572  0.0391
 1872W        W 5391   2.532   7.664   1.083 -0.0720 -0.1900  0.0705
 1873W        W 5392   3.154   3.372  10.000  0.3641  0.1896 -0.2645
 1874W        W 5393   2.487   9.271   1.235 -0.3078  0.1295  0.1719
 1875W        W 5394   6.492   0.640   2.109 -0.0008 -0.0164 -0.4035
 1876W        W 5395   8.405   7.838  10.358 -0.2212  0.0808  0.0107
 1877W        W 5396   1.968   0.667   1.096  0.0076  0.3504 -0.0211
 1878W        W 5397   7.648   3.362   2.464 -0.1273 -0.1070 -0.4367
 1879W        W 5398   2.359   2.574  11.227  0.0186  0.1447 -0.0879
 1880W        W 5399   2.081   0.454   9.692  0.1668  0.0298 -0.0063
 1881W        W 5400   2.119   0.694   9.259  0.0374 -0.1339 -0.0903
 1882W        W 5401   8.668   9.677   8.270 -0.0358 -0.0459 -0.0715
 1883W        W 5402   6.279   2.275   9.478  0.0748  0.0715  0.2404
 1884W        W 5403   9.072   0.033   0.819 -0.2088  0.0806 -0.1910
 1885W        W 5404   6.576   1.399   9.210  0.1036  0.2776  0.1146
 1886W        W 5405   3.944   4.036   3.049  0.0647 -0.1435 -0.1523
 1887W        W 5406   4.922   2.611  11.451  0.1134 -0.1277 -0.3179
 1888W        W 5407   3.092   9.139   9.663  0.1510 -0.0739  0.2282
 1889W        W 5408   0.042   0.503  11.824  0.1118  0.1909 -0.1136
 1890W        W 5409   9.341   9.151  11.083 -0.0657 -0.1012 -0.1438
 1891W        W 5410   7.881   4.256  10.708  0.1855 -0.0984 -0.2317
 1892W        W 5411   9.904   7.618   0.540 -0.1193 -0.2084 -0.2985
 1893W        W 5412   2.021   8.686  10.236 -0.0799  0.1043 -0.0782
 1894W        W 5413   5.702   0.650   8.425 -0.3205 -0.4908 -0.0307
 1895W        W 5414   0.618   7.765  11.563 -0.1423 -0.1739  0.2346
 1896W        W 5415   2.758   0.241   9.377 -0.0094 -0.0599 -0.1418
 1897W        W 5416   9.291   7.109  11.152 -0.0668 -0.0288  0.2073
 1898W        W 5417   3.434   9.119   1.518  0.1750  0.1193  0.0923
 1899W        W 5418   4.772   1.371   1.709 -0.3172  0.3748 -0.1019
 1900W        W 5419   8.669   5.019   2.320  0.0286 -0.0945  0.1592
 1901W        W 5420   1.618   5.242   8.644  0.1732  0.0043  0.1122
 1902W        W 5421   1.616   5.012   1.587 -0.0406  0.0667 -0.3354
 1903W        W 5422   7.821   3.906   8.717 -0.2116 -0.1254  0.0698
 1904W        W 5423   8.659   8.413   2.751 -0.1835 -0.2591  0.0332
 1905W        W 5424   5.326   1.807   9.274 -0.1806 -0.0914 -0.1741
 1906W        W 5425   6.677   7.784   3.202  0.0746  0.2629  0.2844
 1907W        W 5426   1.375   4.842   7.983  0.0332  0.2824 -0.0516
 1908W        W 5427   5.849   8.731  10.934 -0.2040  0.2261  0.2571
 1909W        W 5428   9.458   6.575   7.712  0.0504 -0.1160  0.1390
 1910W        W 5429   1.471   7.136  10.406  0.2006  0.0483 -0.1339
 1911W        W 5430   1.163   1.381  10.907  0.1586 -0.1872 -0.0158
 1912W        W 5431   9.138   9.564  11.237  0.1896 -0.0661 -0.0534
 1913W        W 5432   6.057   5.804   9.348 -0.1661  0.3215 -0.0382
 1914W        W 5433   9.862   8.464  10.273 -0.0849 -0.2385 -0.0904
 1915W        W 5434   1.793   1.689   9.692 -0.0261 -0.2201 -0.0569
 1916W        W 5435   6.363   0.080   1.873  0.1742 -0.1839  0.2467
 1917W        W 5436   5.318   8.307   1.771 -0.1247 -0.0211 -0.1528
 1918W        W 5437   4.955   1.445  11.456  0.3918  0.0668  0.0051
 1919W        W 5438   0.919   9.109   7.268  0.0479 -0.0081 -0.1104
 1920W        W 5439   5.864   5.357   8.502  0.2921  0.0724  0.0065
 1921W        W 5440   2.795   2.430  10.610 -0.0273 -0.0404  0.4572
 1922W        W 5441   6.821   5.537  10.004  0.1212  0.1208 -0.3001
 1923W        W 5442   1.586   4.114   0.349  0.5567  0.0918 -0.1760
 1924W        W 5443   5.897   0.685   9.115  0.2074  0.1717  0.0618
 1925W        W 5444   0.306   3.713   8.083 -0.1921  0.0306 -0.0212
 1926W        W 5445   0.337   9.127   8.134  0.5370 -0.1315 -0.1806
 1927W        W 5446   9.919   7.018   9.458 -0.0015  0.0205 -0.0301
 1928W        W 5447   8.024   6.288   2.319 -0.1551 -0.0850  0.2594
 1929W        W 5448   9.759   0.526   7.824 -0.2919  0.0754  0.1992
 1930W        W 5449   1.393   0.236   1.740 -0.0981 -0.1177 -0.2943
 1931W        W 5450   9.449   5.455   7.952  0.3258 -0.0682 -0.0019
 1932W        W 5451   7.571   7.528   0.383  0.0012 -0.1926 -0.1261
 1933W        W 5452   7.744   5.555   2.904 -0.0450  0.1856  0.0561
 1934W        W 5453   4.298   5.206  10.593  0.1728  0.1578 -0.0205
 1935W        W 5454   1.185   7.043  11.073 -0.0657 -0.0877  0.0600
 1936W        W 5455   0.680   0.448  10.830 -0.1665 -0.2721 -0.2343
 1937W        W 5456   3.028   3.765   3.365  0.0923 -0.2648 -0.0175
 1938W        W 5457   2.190   5.931   2.575  0.0795 -0.3917 -0.2468
 1939W        W 5458   3.489   4.784   2.921  0.0300 -0.4039  0.3422
 1940W        W 5459   0.783   2.989  10.899  0.3025  0.3067  0.1110
 1941W        W 5460   4.069   8.222  10.674  0.3594  0.1233 -0.2278
 1942W        W 5461   2.447   5.147   1.087 -0.2387  0.2294 -0.2232
 1943W        W 5462   0.989   9.838   1.444  0.5409  0.2008 -0.2078
 1944W        W 5463   9.558   7.818   3.774  0.0342 -0.6230  0.1274
 1945W        W 5464   0.146   3.326   2.205 -0.0084 -0.0386  0.2581
 1946W        W 5465   9.354   5.814   9.099 -0.0484  0.2228  0.2552
 1947W        W 5466   4.310   6.842  10.445  0.0467 -0.0878 -0.2360
 1948W        W 5467   1.814   3.769   2.020  0.1245 -0.0427  0.1977
 1949W        W 5468   1.343   2.512   0.666 -0.0859 -0.0958  0.2121
 1950W        W 5469   1.752   2.801   0.446  0.0614  0.0221 -0.2369
 1951W        W 5470   7.207   3.513  10.431 -0.1087 -0.0276  0.4437
 1952W        W 5471   1.693   5.911   3.654 -0.2519  0.2787  0.1104
 1953W        W 5472   3.258   6.887   9.736  0.2258  0.3754  0.2128
 1954W        W 5473   1.829   7.517  10.452 -0.2009  0.0362  0.3114
 1955W        W 5474   3.361   1.161   3.217 -0.1065 -0.4254  0.3118
 1956W        W 5475   4.226   4.868   8.277  0.1122 -0.1192  0.1531
 1957W        W 5476   4.894   0.340   2.829  0.2162  0.1861 -0.1611
 1958W        W 5477   6.716   1.320  10.916 -0.4303 -0.2216  0.2075
 1959W        W 5478   6.824   7.971  10.707  0.2211 -0.2912 -0.1948
 1960W        W 5479   7.649   7.461   3.821  0.1094  0.0587 -0.0070
 1961W        W 5480   9.795   1.478   8.213 -0.0489 -0.0836 -0.2699
 1962W        W 5481   2.644   0.499   8.073  0.0150 -0.0680 -0.1983
 1963W        W 5482   4.949   5.575   5.833 -0.0335 -0.0187 -0.1025
 1964W        W 5483   8.233   5.253  11.216  0.1254  0.0090  0.2789
 1965W        W 5484   4.391   4.565   9.867  0.0417 -0.3312  0.2634
 1966W        W 5485   1.966   6.986   8.621 -0.1476 -0.2695  0.2292
 1967W        W 5486   9.342   9.116  10.558 -0.0518 -0.0861  0.0520
 1968W        W 5487   4.078   8.902  11.866 -0.0445  0.0782  0.2885
 1969W        W 5488   5.468   2.501   8.208 -0.0386 -0.2209  0.1360
 1970W        W 5489   9.741   4.142  11.950  0.3395  0.2513 -0.0482
 1971W        W 5490   6.187   4.898   0.336 -0.1583  0.2805  0.0443
 1972W        W 5491   6.225   9.145  10.857 -0.0290  0.0614  0.0243
 1973W        W 5492   2.577   4.651   1.310 -0.2261 -0.2679  0.0566
 1974W        W 5493   5.835   8.619   3.039 -0.1762 -0.1416  0.0936
 1975W        W 5494   5.386   7.595   8.357  0.0918 -0.5036  0.2252
 1976W        W 5495   0.689   3.023  10.047 -0.0244 -0.0063 -0.1191
 1977W        W 5496   0.273   4.946  10.372  0.4946 -0.0731  0.2300
 1978W        W 5497   6.394   5.598   3.198  0.2300  0.0645  0.1377
 1979W        W 5498   5.250   2.701   0.332  0.1392 -0.2319  0.1534
 1980W        W 5499   7.303   1.519   2.960 -0.3978  0.0709 -0.0799
 1981W        W 5500   9.930   5.010  11.545  0.1462 -0.1865 -0.2598
 1982W        W 5501   8.356   7.183  10.512  0.3604  0.1106 -0.3383
 1983W        W 5502   7.237   7.016   1.614 -0.0765 -0.0528 -0.0488
 1984W        W 5503   3.835   9.769  11.369 -0.0844 -0.2716 -0.3789
 1985W        W 5504   4.202   7.793   2.202 -0.1212  0.4219 -0.0911
 1986W        W 5505   4.624   8.363  11.620  0.0292  0.0425 -0.1614
 1987W        W 5506   7.357   0.371   3.513  0.2525  0.4478 -0.1908
 1988W        W 5507   7.229   3.057   0.650 -0.3305  0.3980  0.1343
 1989W        W 5508   0.744   1.986  11.474  0.1217  0.2028 -0.1558
 1990W        W 5509   0.249   2.898   8.052 -0.0425  0.0675  0.0772
 1991W        W 5510   9.223   7.166  10.627  0.1782  0.2987 -0.1508
 1992W        W 5511   3.286   0.942   0.304 -0.0054 -0.1478  0.1026
 1993W        W 5512   7.033   3.277   7.395 -0.0628  0.0527 -0.0264
 1994W        W 5513   6.971   6.262   8.506 -0.1239 -0.1411  0.1188
 1995W        W 5514   5.105   8.846   8.320  0.2159  0.0148  0.1467
 1996W        W 5515   4.004   3.492   9.932  0.0094  0.0902 -0.2720
 1997W        W 5516   0.116   5.946   0.456 -0.0128 -0.0266  0.1079
 1998W        W 5517   8.646   9.855  11.943  0.2358 -0.3378  0.0349
 1999W        W 5518   2.117   0.888   3.853 -0.1376 -0.0914  0.0995
 2000W        W 5519   5.284   6.852   9.032  0.0765 -0.1804 -0.0269
 2001W        W 5520   2.731   8.125   8.948 -0.3136  0.2114 -0.2874
 2002W        W 5521   9.932   8.300   7.605 -0.0172 -0.2691 -0.0823
 2003W        W 5522   5.634   3.957   2.113  0.1476 -0.2244 -0.1148
 2004W        W 5523   9.793   1.828   9.407  0.1846 -0.1740 -0.1048
 2005W        W 5524   5.918   7.197  10.097  0.0986  0.0327  0.1088
 2006W        W 5525   6.365   7.305   0.012 -0.0046  0.1721 -0.0528
 2007W        W 5526   2.227   1.478   0.821  0.0932 -0.3739  0.2031
 2008W        W 5527   7.525   4.165  11.153 -0.3490  0.2291  0.0168
 2009W        W 5528   3.497   5.329   0.946  0.1744  0.3545 -0.1411
 2010W        W 5529   1.248   0.412   9.006  0.0677 -0.0841 -0.1947
 2011W        W 5530   8.989   2.212  11.773  0.0908 -0.1324  0.1844
 2012W        W 5531   9.592   3.783   9.573 -0.1251  0.1365  0.0064
 2013W        W 5532   4.082   3.408   2.716  0.1529 -0.1075  0.0906
 2014W        W 5533   8.661   2.121   8.518 -0.0169 -0.4470  0.0316
 2015W        W 5534   0.537   8.606   2.685 -0.2671 -0.0208  0.0426
 2016W        W 5535   3.391   1.610   2.904 -0.0400 -0.1784 -0.0808
 2017W        W 5536   3.225   4.106  10.494 -0.0398  0.3841  0.0302
 2018W        W 5537   3.344   6.949  11.086  0.1468 -0.2717  0.0690
 2019W        W 5538   1.113   1.838   9.215 -0.1263  0.0849  0.2209
 2020W        W 5539   7.900   8.935  10.030  0.1406  0.0558 -0.2335
 2021W        W 5540   1.634   9.487  11.413  0.0593 -0.0388 -0.0277
 2022W        W 5541   4.056   5.931   3.145 -0.3673 -0.0482  0.3216
 2023W        W 5542   0.937   3.324   2.758 -0.1734 -0.1194  0.0639
 2024W        W 5543   8.729   6.651   0.299 -0.1930  0.1000  0.0179
 2025W        W 5544   0.654   0.908   7.891 -0.1820 -0.2217 -0.2741
 2026W        W 5545   3.615   8.979  10.680  0.0537  0.0159 -0.0371
 2027W        W 5546   0.913   2.224   9.919 -0.1727  0.1689 -0.1703
 2028W        W 5547   2.004   4.549   9.704  0.0446  0.1996 -0.1884
 2029W        W 5548   0.639   6.522   8.691  0.0436  0.3592 -0.0462
 2030W        W 5549   6.987   9.170   2.007  0.5966  0.2103 -0.2295
 2031W        W 5550   7.600   7.659  11.112  0.1727  0.2798 -0.0711
 2032W        W 5551   8.113   1.802   2.872  0.1107 -0.0756 -0.2005
 2033W        W 5552   4.822   4.647   9.403 -0.0627  0.2479 -0.1252
 2034W        W 5553   5.993   1.524   9.976 -0.2189  0.1616  0.0289
 2035W        W 5554   9.012   5.931   0.635  0.0148 -0.0649  0.2942
 2036W        W 5555   4.411   3.739   2.944  0.0313  0.0671 -0.1759
 2037W        W 5556   3.527   3.850   3.343 -0.0068  0.0961 -0.0413
 2038W        W 5557   3.375   0.337  10.116 -0.1997  0.4034 -0.5057
 2039W        W 5558   0.888   6.826   7.730 -0.0864  0.0914 -0.1351
 2040W        W 5559   0.853   0.657   3.317 -0.0432 -0.2360  0.2591
 2041W        W 5560   9.172   0.826  11.611  0.0513 -0.0069  0.1294
 2042W        W 5561   3.429   2.800   2.184 -0.0021 -0.1127  0.0797
 2043W        W 5562   4.975   8.464   9.678 -0.1447 -0.3260 -0.1400
 2044W        W 5563   8.388   0.393   9.271  0.2626 -0.1255  0.0039
 2045W        W 5564   7.019   2.861   3.805 -0.0366  0.0204  0.1462
 2046W        W 5565   8.584   7.482   1.305  0.0425 -0.2579  0.1365
 2047W        W 5566   7.324   9.125   2.347 -0.1033 -0.1217 -0.1964
 2048W        W 5567   3.154   1.690   8.790  0.0882  0.5024  0.2677
 2049W        W 5568   7.513   2.219   9.785  0.1267  0.1485  0.0872
 2050W        W 5569   8.937   4.463   0.409  0.2045 -0.1792  0.0911
 2051W        W 5570   6.481   6.941   3.104  0.1145 -0.0581  0.1438
 2052W        W 5571   6.756   1.899   4.019 -0.1416  0.2708  0.0569
 2053W        W 5572   7.858   2.604   2.118 -0.1608 -0.0225  0.2577
 2054W        W 5573   5.742   9.695  10.979  0.1577 -0.0961  0.2330
 2055W        W 5574   0.741   8.144   0.809 -0.4746  0.0368  0.0876
 2056W        W 5575   0.480   3.529   8.630 -0.0552  0.2495 -0.5721
 2057W        W 5576   4.159   7.764   8.299  0.3255 -0.0552  0.3222
 2058W        W 5577   2.111   8.969   9.779  0.2791 -0.3829  0.0905
 2059W        W 5578   0.530   5.650   8.463  0.4065 -0.1651  0.0213
 2060W        W 5579   1.204   1.121   0.216  0.2072 -0.2882 -0.0034
 2061W        W 5580   8.335   1.993   8.994  0.0455 -0.2643 -0.1692
 2062W        W 5581   8.415   4.518   8.656  0.1393 -0.4774  0.3728
 2063W        W 5582   8.362   3.939  11.776 -0.3482  0.1878 -0.1858
 2064W        W 5583   5.819   8.995   1.119  0.1056 -0.2336  0.1922
 2065W        W 5584   6.408   9.118   8.572  0.3183  0.1381  0.2566
 2066W        W 5585   2.657   8.608  10.515 -0.0686  0.0759 -0.1351
 2067W        W 5586   7.897   4.912   3.479  0.2138  0.1668  0.1737
 2068W        W 5587   5.859   0.455   0.240  0.4597  0.3572  0.1482
 2069W        W 5588   2.506   3.245  11.827  0.4110  0.1471 -0.0938
 2070W        W 5589   6.856   6.099   8.991  0.1392 -0.2898  0.0859
 2071W        W 5590   6.976   6.363   9.408  0.2009  0.1985  0.0396
 2072W        W 5591   5.685   1.756   2.428 -0.2391  0.2019  0.1864
 2073W        W 5592   0.842   7.764  10.144  0.1778 -0.2191  0.1458
 2074W        W 5593   9.583   8.337   9.526 -0.2939 -0.1447  0.0657
 2075W        W 5594   1.124   8.896   1.545 -0.0607  0.0753 -0.0170
 2076W        W 5595   7.021   4.880  10.899 -0.2472  0.0991 -0.1180
 2077W        W 5596   7.215   5.288   1.341  0.1836 -0.3156  0.3229
 2078W        W 5597   9.526   5.171   0.528 -0.0911  0.0606 -0.2436
 2079W        W 5598   5.282   2.876   0.789  0.3079  0.0561 -0.0774
 2080W        W 5599   0.363   6.477   0.893  0.0740 -0.0668  0.0813
 2081W        W 5600   9.108   2.598   8.330  0.1978 -0.2779  0.1005
 2082W        W 5601   3.376   6.237   8.363  0.1376 -0.1076  0.0842
 2083W        W 5602   5.199   3.049   8.093  0.1002  0.1480  0.1642
 2084W        W 5603   2.467   3.854   1.779  0.1838 -0.0317 -0.0104
 2085W        W 5604   5.022   7.904   1.554 -0.0756  0.0478 -0.2203
 2086W        W 5605   7.796   1.175   7.378 -0.3556 -0.2309  0.2281
 2087W        W 5606   5.409   6.476  11.715  0.1121 -0.0113  0.3138
 2088W        W 5607   9.028   6.715   7.925 -0.0412 -0.0916  0.0841
 2089W        W 5608   9.174   2.096   8.626  0.2471 -0.0060  0.1127
 2090W        W 5609   9.543   9.508  11.605  0.3307  0.1954 -0.1505
 2091W        W 5610   5.300   2.163   3.048 -0.3447  0.1746  0.1647
 2092W        W 5611   7.348   0.813  11.068  0.1557 -0.1141 -0.2370
 2093W        W 5612   3.174   1.735   8.142 -0.1594  0.4826 -0.1923
 2094W        W 5613   7.477   2.890   8.805 -0.1244  0.3933  0.1666
 2095W        W 5614   8.927   0.961   2.572 -0.2695 -0.0099  0.0705
 2096W        W 5615   6.750   9.253  11.166 -0.1808  0.4580  0.1118
 2097W        W 5616   0.283   0.818   8.486  0.0195  0.1289  0.4475
 2098W        W 5617   7.367   1.163  10.654  0.1903 -0.3295 -0.1513
 2099W        W 5618   6.926   5.356  10.934 -0.0558  0.0225 -0.1795
 2100W        W 5619   8.838   7.623   0.821  0.0971 -0.1314  0.2048
 2101W        W 5620   6.569   4.949   8.052  0.0062  0.1592 -0.2336
 2102W        W 5621   7.142   9.670  11.735  0.1175 -0.3711  0.1694
 2103W        W 5622   7.563   7.845  10.138  0.0018 -0.1939  0.4734
 2104W        W 5623   2.565   4.019   9.932  0.0864 -0.3947 -0.1902
 2105W        W 5624   8.172   7.486   1.733  0.0524 -0.2369  0.3295
 2106W        W 5625   7.030   3.914  11.270 -0.2497  0.2158  0.1232
 2107W        W 5626   3.799   7.761   9.036  0.1622  0.0689 -0.0739
 2108W        W 5627   8.949   3.443  10.846 -0.1215 -0.0225 -0.0206
 2109W        W 5628   9.505   4.423  10.160 -0.4808  0.0518 -0.4557
 2110W        W 5629   5.124   8.081   2.964  0.1522  0.1245  0.2325
 2111W        W 5630   7.193   0.227   3.110  0.3426 -0.0104  0.1752
 2112W        W 5631   8.108   4.060   1.796 -0.1344  0.0761  0.1236
 2113W        W 5632   4.895   1.867   9.778  0.1417 -0.2421  0.2304
 2114W        W 5633   6.552   5.232   0.429  0.0795  0.0529  0.0518
 2115W        W 5634   5.765   4.476   2.937 -0.1342 -0.2311 -0.1372
 2116W        W 5635   5.218   2.684   9.786 -0.0579  0.0271  0.1778
 2117W        W 5636   4.462   7.531   1.238  0.3965  0.0423  0.1157
 2118W        W 5637   8.684   7.329  11.466  0.1504 -0.0094 -0.2250
 2119W        W 5638   9.788   6.896   8.897  0.0247  0.0291 -0.1340
 2120W        W 5639   4.061   5.129   2.682  0.1899 -0.1853 -0.3666
 2121W        W 5640   2.212   7.624  10.741  0.0645 -0.5274  0.0106
 2122W        W 5641   2.506   5.042   9.218 -0.0561  0.0335 -0.2328
 2123W        W 5642   8.405   7.016   1.572  0.1380  0.1457 -0.0383
 2124W        W 5643   3.936   4.922   9.483 -0.0313 -0.2058 -0.4626
 2125W        W 5644   7.552   8.705  11.675  0.1852 -0.6432  0.3816
 2126W        W 5645   6.244   2.658  11.928  0.5384 -0.0407 -0.1515
 2127W        W 5646   0.186   9.924   1.934  0.1240  0.1315  0.1661
 2128W        W 5647   5.146   2.066  11.535 -0.0496  0.0744  0.2009
 2129W        W 5648   2.334   9.118   3.171  0.0328 -0.3855 -0.2336
 2130W        W 5649   9.015   9.432  10.783  0.2538  0.1632  0.1223
 2131W        W 5650   5.948   1.230   9.121 -0.0466 -0.0271  0.0187
 2132W        W 5651   0.830   9.304   9.860 -0.2779  0.0373 -0.0350
 2133W        W 5652   5.250   3.349   1.899  0.1027  0.1946  0.1232
 2134W        W 5653   3.159   0.443   8.119  0.0944  0.1356  0.0466
 2135W        W 5654   6.963   0.849   7.705 -0.0462  0.2521 -0.0562
 2136W        W 5655   8.642   1.831   2.707 -0.1301 -0.1641  0.0800
 2137W        W 5656   5.407   8.129  11.366  0.0490  0.0896 -0.2094
 2138W        W 5657   6.496   5.096   8.879 -0.1912 -0.0404 -0.0570
 2139W        W 5658   0.359   6.223  10.385 -0.0553  0.1707  0.1479
 2140W        W 5659   5.580   0.768  10.894 -0.4760 -0.1218  0.0988
 2141W        W 5660   9.140   7.062   3.401  0.0605 -0.0499 -0.0558
 2142W        W 5661   8.755   0.748  11.042 -0.0355 -0.1071 -0.7636
 2143W        W 5662   8.130   7.287   1.235 -0.2082  0.0836 -0.2732
 2144W        W 5663   7.696   3.840   9.736  0.1743  0.1029 -0.0499
 2145W        W 5664   3.852   6.985   0.327 -0.0780  0.0329 -0.0193
 2146W        W 5665   8.801   7.545  10.483 -0.1957  0.3143  0.0664
 2147W        W 5666   7.590   4.825  11.246 -0.1705 -0.3537 -0.0860
 2148W        W 5667   0.711   6.103   0.531 -0.1631  0.0516 -0.2068
 2149W        W 5668   9.027   4.028  10.730  0.3038 -0.0524 -0.0424
 2150W        W 5669   3.415   4.120   8.216 -0.1848 -0.2291  0.3211
 2151W        W 5670   1.529   2.979   8.296  0.1985  0.0870  0.3230
 2152W        W 5671   4.493   7.867  11.798 -0.1110 -0.2660 -0.0898
 2153W        W 5672   8.400   8.863   1.700  0.1723  0.1355 -0.0684
 2154W        W 5673   7.778   2.273  10.644 -0.0280  0.0095 -0.3299
 2155W        W 5674   8.183   8.045   1.498  0.0675 -0.2809 -0.2882
 2156W        W 5675   2.994   3.237   3.409 -0.0299 -0.1615  0.0949
 2157W        W 5676   8.333   6.103  10.743 -0.1881  0.2516  0.3144
 2158W        W 5677   5.243   4.214   8.649  0.1995 -0.2261 -0.0270
 2159W        W 5678   9.177   9.300   2.760  0.3771 -0.0348 -0.3539
 2160W        W 5679   4.958   4.861   2.414 -0.2495  0.0342  0.2530
 2161W        W 5680   4.586   8.792   3.601 -0.0855  0.0107 -0.0331
 2162W        W 5681   8.627   9.401   1.772  0.3416  0.0479 -0.2739
 2163W        W 5682   8.146   9.905   9.222 -0.1873  0.2643 -0.1420
 2164W        W 5683   9.316   8.823   1.644 -0.1457  0.1775  0.1188
 2165W        W 5684   5.463   7.676   8.828  0.0397 -0.0679  0.3312
 2166W        W 5685   9.586   2.143   8.222  0.1585  0.1012 -0.1677
 2167W        W 5686   0.788   0.623   8.706 -0.0937  0.1390 -0.0578
 2168W        W 5687   5.742   8.380   9.155 -0.4387  0.0714 -0.1070
 2169W        W 5688   5.270   0.394   0.825 -0.1146  0.1481  0.2376
 2170W        W 5689   9.262   3.324   8.026 -0.0874 -0.3457 -0.0465
 2171W        W 5690   7.968   0.128   7.964 -0.3301 -0.1612  0.0545
 2172W        W 5691   2.675   3.514   3.162 -0.0382  0.0001 -0.0652
 2173W        W 5692   8.484   2.231   3.082 -0.3922  0.2239  0.2271
 2174W        W 5693   6.289   6.575   9.704 -0.1776  0.0362 -0.0593
 2175W        W 5694   4.102   3.990   2.016  0.0263  0.1584  0.0368
 2176W        W 5695   0.131   7.220   1.675 -0.2067  0.1835  0.0554
 2177W        W 5696   7.052   1.391   1.640 -0.3035 -0.2667  0.1398
 2178W        W 5697   4.109   0.525  10.867  0.0699  0.1753 -0.0405
 2179W        W 5698   5.454   8.377  10.948 -0.1083 -0.0906  0.2479
 2180W        W 5699   7.126   5.694  10.614 -0.1478  0.1255  0.1820
 2181W        W 5700   5.950   9.190   3.993 -0.4913 -0.1519  0.1709
 2182W        W 5701   3.616   0.814   1.528  0.0013 -0.1426 -0.0720
 2183W        W 5702   7.021   9.023   1.205 -0.0400  0.1855  0.2806
 2184W        W 5703   1.475   6.671   8.912  0.0364 -0.0640 -0.0048
 2185W        W 5704   0.713   9.304  10.799  0.1104  0.2266  0.0681
 2186W        W 5705   3.287   9.569   0.183 -0.1971  0.2514  0.2901
 2187W        W 5706   8.622   5.934   7.873 -0.0072 -0.0356 -0.1716
 2188W        W 5707   8.500   1.430   3.518 -0.1038 -0.5071  0.1263
 2189W        W 5708   1.044   6.937   2.041 -0.0365  0.0466 -0.2628
 2190W        W 5709   4.606   0.967   8.538  0.1142 -0.2505  0.0042
 2191W        W 5710   5.181   1.743   2.484 -0.0707  0.1888  0.2530
 2192W        W 5711   7.973   3.580   1.140  0.0813  0.0030  0.1940
 2193W        W 5712   6.410   1.492   1.199  0.0381  0.1724 -0.0538
 2194W        W 5713   3.496   1.592   1.206 -0.4306 -0.3369  0.0510
 2195W        W 5714   5.267   2.016   2.126 -0.0086 -0.0407 -0.0893
 2196W        W 5715   3.118   8.853   2.439  0.2200  0.3128  0.2562
 2197W        W 5716   6.604   1.086   1.814 -0.0445  0.3145 -0.2115
 2198W        W 5717   3.942   1.179   8.376 -0.2859  0.0505 -0.1780
 2199W        W 5718   6.970   3.464   0.773  0.2659  0.0371 -0.5212
 2200W        W 5719   4.070   6.133   2.296 -0.2365 -0.3829  0.1961
 2201W        W 5720   7.526   9.235   0.522  0.1409  0.0645  0.1516
 2202W        W 5721   3.564   3.089   9.640  0.0494  0.0392  0.3288
 2203W        W 5722   3.960   2.900   9.348 -0.0501  0.3055  0.2317
 2204W        W 5723   5.735   9.939   8.667  0.0460 -0.2220  0.2269
 2205W        W 5724   7.402   6.293   0.957  0.1144 -0.1393 -0.0983
 2206W        W 5725   5.855   7.686   7.963 -0.0804  0.2154 -0.2528
 2207W        W 5726   0.344   6.341   0.170  0.0731 -0.1197  0.0112
 2208W        W 5727   8.448   8.644   9.697  0.0808  0.1407 -0.1644
 2209W        W 5728   4.252   0.452  10.384  0.0723  0.0971 -0.1257
 2210W        W 5729   4.751   3.300   3.587  0.1496  0.1539  0.1486
 2211W        W 5730   7.208   8.415  11.356  0.0188 -0.3161 -0.3751
 2212W        W 5731   1.899   2.177   3.715 -0.0465  0.0427 -0.2874
 2213W        W 5732   2.775   2.095  11.552 -0.3845 -0.1003 -0.2620
 2214W        W 5733   0.364   2.630   2.661  0.3093  0.0340  0.1933
 2215W        W 5734   1.783   7.574   2.886  0.1501 -0.0874  0.2028
 2216W        W 5735   2.805   2.374   9.881 -0.0837 -0.2016  0.2917
 2217W        W 5736   8.082   2.005  11.508  0.4200  0.2157  0.1701
 2218W        W 5737   8.973   5.056   9.240 -0.2828  0.1223 -0.1256
 2219W        W 5738   3.414   8.709   8.961  0.2007 -0.1320 -0.0741
 2220W        W 5739   7.103   6.717   1.975 -0.2264  0.0336 -0.6935
 2221W        W 5740   3.668   4.004   2.268 -0.0320  0.0187  0.0749
 2222W        W 5741   0.978   0.458  11.459 -0.2494 -0.0768 -0.1844
 2223W        W 5742   5.925   4.320   9.075  0.2191  0.0762 -0.2087
 2224W        W 5743   4.560   4.370   3.614 -0.0705  0.3168  0.1182
 2225W        W 5744   2.338   1.271   0.332  0.1621  0.0116  0.0976
 2226W        W 5745   2.510   6.260   1.645 -0.1955 -0.0611 -0.0454
 2227W        W 5746   8.288   0.272   1.864 -0.2660 -0.1245 -0.4257
 2228W        W 5747   1.818   0.161  10.508 -0.0958  0.2905  0.1564
 2229W        W 5748   3.139   5.407  11.389  0.2323  0.0506  0.4664
 2230W        W 5749   1.730   3.363   8.050 -0.0831 -0.1234 -0.1336
 2231W        W 5750   5.195   1.048  11.672 -0.1182  0.1084  0.2597
 2232W        W 5751   0.072   3.057  10.618 -0.0501  0.0484  0.0536
 2233W        W 5752   4.370   2.143   3.585  0.1807  0.3196 -0.1154
 2234W        W 5753   6.647   3.733   9.265  0.1728  0.1651  0.0771
 2235W        W 5754   0.277   1.962   7.748  0.0316 -0.0331 -0.0776
 2236W        W 5755   1.439   7.931   9.208 -0.1581 -0.1880 -0.0278
 2237W        W 5756   8.967   1.258   9.182 -0.0148  0.3798  0.3348
 2238W        W 5757   4.087   5.609   2.732 -0.0781  0.1930  0.1201
 2239W        W 5758   3.821   4.919   0.993  0.0363 -0.1208 -0.3747
 2240W        W 5759   0.877   0.895  11.168 -0.0039 -0.1957  0.2842
 2241W        W 5760   6.243   7.414  11.479 -0.0834 -0.0254  0.0660
 2242W        W 5761   0.845   0.948   2.027 -0.0446 -0.2453  0.3254
 2243W        W 5762   7.240   5.913   8.736 -0.1015  0.1695  0.0163
 2244W        W 5763   7.894   7.288   8.941 -0.3227  0.1893 -0.2039
 2245W        W 5764   4.770   5.428  10.441 -0.2327  0.0461  0.0639
 2246W        W 5765   9.198   6.382  10.795 -0.0374 -0.0520  0.2882
 2247W        W 5766   1.159   2.944  11.763  0.1808  0.2556 -0.1609
 2248W        W 5767   0.528   0.175   1.587 -0.0186  0.3072 -0.0160
 2249W        W 5768   6.615   5.103   2.425 -0.0114 -0.1244 -0.2447
 2250W        W 5769   0.180   1.011   8.047 -0.0997  0.0390 -0.1052
 2251W        W 5770   2.448   4.618   9.480 -0.1806 -0.0380  0.1868
 2252W        W 5771   6.513   3.520  10.722  0.0753  0.2041 -0.1294
 2253W        W 5772   4.990   1.745   4.177 -0.3846  0.3330  0.3486
 2254W        W 5773   0.068   0.594   1.621  0.0101 -0.2119 -0.0840
 2255W        W 5774   7.502   4.747   3.130 -0.1934  0.0357 -0.1427
 2256W        W 5775   7.472   9.396   8.534 -0.4051  0.0349 -0.0996
 2257W        W 5776   6.669   4.107   2.264 -0.1202  0.2935 -0.1965
 2258W        W 5777   5.160   9.060  11.598 -0.1106  0.0946  0.1513
 2259W        W 5778   1.316   1.596  10.460 -0.1106 -0.0110 -0.3043
 2260W        W 5779   8.019   3.808  10.524 -0.1558 -0.1132 -0.1744
 2261W        W 5780   7.146   1.443   0.338  0.0497 -0.1392  0.0434
 2262W        W 5781   2.331   2.452  10.757 -0.1124  0.0139 -0.2083
 2263W        W 5782   8.106   6.441   2.783 -0.3220 -0.2981  0.2582
 2264W        W 5783   4.068   8.628   8.973 -0.1877 -0.0200 -0.1695
 2265W        W 5784   0.048   2.747   9.803  0.2759  0.2005 -0.0951
 2266W        W 5785   2.029   1.766   1.783 -0.3221 -0.0465  0.5867
 2267W        W 5786   8.102   8.856   1.257 -0.2799  0.0669  0.2452
 2268W        W 5787   3.294   9.878   8.816 -0.1049  0.1792 -0.0764
 2269W        W 5788   9.485   5.347   2.133 -0.1076 -0.2397  0.0036
 2270W        W 5789   6.146   7.989   1.027  0.0692 -0.1021 -0.0091
 2271W        W 5790   5.917   6.468   8.682 -0.0393  0.0530  0.1584
 2272W        W 5791   6.083   2.315   1.839 -0.1691  0.0610 -0.3385
 2273W        W 5792   1.845   3.085   4.744 -0.1226 -0.1172 -0.3192
 2274W        W 5793   8.747   9.401   9.015 -0.2621 -0.1069  0.1507
 2275W        W 5794   1.338   1.316   9.176 -0.0517 -0.2732 -0.2825
 2276W        W 5795   7.127   1.813   3.512 -0.1189  0.1280  0.1652
 2277W        W 5796   2.712   4.934   4.019  0.1511 -0.0148 -0.1124
 2278W        W 5797   1.226   6.610   7.977 -0.0672  0.1359 -0.1770
 2279W        W 5798   1.468   0.781   0.593 -0.1662  0.2014 -0.1041
 2280W        W 5799   7.390   5.995   8.262 -0.1064 -0.1883 -0.2172
 2281W        W 5800   8.589   5.930   0.465  0.1702 -0.2548 -0.0107
 2282W        W 5801   0.715   8.682   8.088  0.1474  0.1246  0.0645
 2283W        W 5802   7.277   5.904   9.231  0.1800 -0.0527  0.0878
 2284W        W 5803   7.626   5.144   2.682  0.0410  0.0391  0.0520
 2285W        W 5804   1.158   0.714   9.891  0.1464 -0.2853  0.2690
 2286W        W 5805   3.438   2.480   1.804  0.0306  0.1926  0.2024
 2287W        W 5806   0.638   5.769   3.930 -0.0576  0.0887 -0.1879
 2288W        W 5807   0.089   3.776   1.932  0.1790  0.1300  0.3153
 2289W        W 5808   5.060   5.768  11.517 -0.0349 -0.2566 -0.2223
 2290W        W 5809   9.654   1.060   2.929  0.2444 -0.1705  0.1030
 2291W        W 5810   4.391   5.615   1.961  0.0043 -0.2552  0.0121
 2292W        W 5811   9.665   4.277   2.997  0.2081  0.0558 -0.0866
 2293W        W 5812   9.040   1.664   0.320 -0.2403 -0.2718 -0.0118
 2294W        W 5813   5.923   3.207   1.136  0.0702 -0.1929 -0.2464
 2295W        W 5814   0.008   6.697   8.406  0.3389  0.1777 -0.0843
 2296W        W 5815   0.950   2.156   0.385 -0.0114 -0.2086 -0.0431
 2297W        W 5816   8.704   4.387  10.462  0.2778 -0.0113 -0.0174
 2298W        W 5817   1.607   3.089   9.165  0.0207 -0.0071 -0.0226
 2299W        W 5818   1.852   8.786   2.452  0.0700 -0.1055  0.2995
 2300W        W 5819   8.942   9.910   9.658  0.0746  0.1136  0.0522
 2301W        W 5820   5.734   0.452   0.732  0.0867  0.0224  0.0884
 2302W        W 5821   0.449   2.341   1.828 -0.1002 -0.0081  0.1254
 2303W        W 5822   6.838   5.898   8.045  0.2846  0.1114 -0.0100
 2304W        W 5823   4.443   5.941   0.289 -0.0261 -0.0716  0.1355
 2305W        W 5824   8.159   3.074  11.351  0.1520 -0.0134  0.2630
 2306W        W 5825   5.434   2.236   2.554  0.2196  0.0016 -0.1207
 2307W        W 5826   7.082   1.512   3.938 -0.1589  0.0366 -0.2794
 2308W        W 5827   7.016   4.014   0.999  0.1386 -0.0025 -0.3019
 2309W        W 5828   5.255   2.712   3.298  0.1479  0.0941 -0.0807
 2310W        W 5829   2.291   3.644   2.187  0.0004  0.2690  0.0977
 2311W        W 5830   3.334   4.216   1.310  0.1160  0.0198 -0.0519
 2312W        W 5831   6.986   3.339   0.320  0.2354  0.2094  0.3164
 2313W        W 5832   3.841   7.599  10.099  0.4505  0.3394  0.3896
 2314W        W 5833   2.036   1.546   2.687  0.0380  0.1211  0.0991
 2315W        W 5834   5.516   2.446   2.013 -0.0485 -0.0342 -0.2506
 2316W        W 5835   8.591   0.071   7.233  0.0061  0.0543  0.0905
 2317W        W 5836   2.587   9.541   0.702 -0.1939  0.2300  0.1547
 2318W        W 5837   2.477   8.558   9.959 -0.1558 -0.2712  0.1876
 2319W        W 5838   5.337   4.324   3.073 -0.0702 -0.3164  0.1315
 2320W        W 5839   1.152   6.012   2.169  0.2480  0.1485  0.1784
 2321W        W 5840   3.371   4.522  10.149 -0.1412 -0.0907  0.1031
 2322W        W 5841   3.423   4.258   0.276 -0.5519  0.2308 -0.0289
 2323W        W 5842   2.135   9.706  11.171  0.0950  0.1256  0.2329
 2324W        W 5843   5.917   9.274   3.475  0.0336  0.2245 -0.0878
 2325W        W 5844   1.623   1.029   3.538 -0.2524  0.2975  0.2617
 2326W        W 5845   5.723   9.794  11.504 -0.1230 -0.0181 -0.0270
 2327W        W 5846   6.456   7.063   2.620 -0.1796 -0.0514  0.4662
 2328W        W 5847   8.848   9.954   2.065  0.0482 -0.2100  0.1346
 2329W        W 5848   1.360   4.906   3.485 -0.1918  0.1660 -0.0498
 2330W        W 5849   3.687   6.580  11.935  0.0220 -0.0138 -0.2485
 2331W        W 5850   7.202   2.525   8.470 -0.0980 -0.1238 -0.0807
 2332W        W 5851   7.482   2.093   8.390  0.2811  0.3902 -0.0504
 2333W        W 5852   6.872   2.919  11.505 -0.1416  0.2625  0.3500
 2334W        W 5853   7.058   3.267   2.169 -0.2249 -0.0190 -0.0628
 2335W        W 5854   4.864   4.192   3.163  0.0766 -0.1040  0.1042
 2336W        W 5855   9.160   2.166   3.874 -0.2084 -0.0265  0.3280
 2337W        W 5856   6.282   9.275   8.161 -0.2354 -0.3194  0.0916
 2338W        W 5857   5.795   5.768   1.634  0.1224  0.1504  0.0920
 2339W        W 5858   7.279   7.468   9.909 -0.3457  0.0615  0.0498
 2340W        W 5859   9.387   8.401   3.063 -0.1334 -0.0129 -0.1167
 2341W        W 5860   6.878   8.035  11.261 -0.0462  0.0782 -0.0984
 2342W        W 5861   7.334   7.989  11.526 -0.0763  0.2459  0.2346
 2343W        W 5862   8.077   9.655   0.931  0.4021  0.2179 -0.0509
 2344W        W 5863   1.958   1.772  11.582 -0.3481  0.1870 -0.0545
 2345W        W 5864   0.066   4.639   9.914 -0.0110  0.1502  0.0962
 2346W        W 5865   3.000   0.899   8.389  0.0992  0.0314 -0.0431
 2347W        W 5866   1.615   5.398   0.358 -0.1441 -0.2488 -0.2455
 2348W        W 5867   6.721   1.352   8.610  0.0862 -0.3722 -0.4714
 2349W        W 5868   8.025   1.936  10.914  0.1659  0.1769  0.3293
 2350W        W 5869   4.810   3.651   9.282 -0.2251 -0.0269 -0.1238
 2351W        W 5870   9.345   3.727  10.548 -0.1381 -0.1126 -0.0064
 2352W        W 5871   8.979   7.008   1.477 -0.1289  0.0585  0.0679
 2353W        W 5872   3.025   8.343   2.249 -0.1844  0.0009 -0.1741
 2354W        W 5873   1.414   5.960   9.312  0.1893 -0.2314  0.4767
 2355W        W 5874   9.262   6.334   7.299  0.0409  0.3120  0.2926
 2356W        W 5875   1.373   7.483   8.227 -0.0093 -0.1227  0.3584
 2357W        W 5876   5.538   0.618  10.407  0.1119  0.0515 -0.1889
 2358W        W 5877   6.027   3.364   0.605 -0.1287 -0.1052 -0.0117
 2359W        W 5878   1.067   5.885   4.161  0.1501 -0.0615  0.3705
 2360W        W 5879   4.513   6.808   8.793  0.0190  0.4597  0.0379
 2361W        W 5880   8.651   2.108   7.725  0.2008  0.0969  0.0746
 2362W        W 5881   0.401   2.938   1.965 -0.3789 -0.0510  0.2331
 2363W        W 5882   5.687   3.219   8.511  0.0909  0.0276  0.2586
 2364W        W 5883   1.937   2.722   3.911  0.0367  0.3035 -0.0181
 2365W        W 5884   7.250   2.122   2.684 -0.3794 -0.4982 -0.2787
 2366W        W 5885   8.861   8.464  11.169  0.0627 -0.3348 -0.0815
 2367W        W 5886   0.560   5.910   9.463  0.2662 -0.2555 -0.2839
 2368W        W 5887   5.198   4.114  10.431  0.0146  0.0708  0.2817
 2369W        W 5888   0.100   7.702   1.237  0.0488  0.0198 -0.2407
 2370W        W 5889   3.028   8.092  10.776 -0.2021  0.4119 -0.0475
 2371W        W 5890   6.536   8.343   8.262 -0.2077  0.0816 -0.0151
 2372W        W 5891   7.055   3.069   1.230 -0.3308 -0.2144 -0.3119
 2373W        W 5892   3.107   3.748  10.861 -0.3334 -0.1184 -0.1366
 2374W        W 5893   0.566   9.791   1.110 -0.1846 -0.2664  0.4634
 2375W        W 5894   6.906   8.110   0.417  0.2184  0.2210  0.0522
 2376W        W 5895   8.501   3.450  10.563  0.0827 -0.0553 -0.1165
 2377W        W 5896   3.801   4.613   0.325 -0.1437 -0.1954  0.0608
 2378W        W 5897   8.822   3.952   2.983  0.0065  0.2801  0.3427
 2379W        W 5898   8.809   4.266  11.110  0.1091 -0.1739  0.1409
 2380W        W 5899   3.482   9.856   2.589  0.2297 -0.2786  0.1701
 2381W        W 5900   3.698   3.745   2.698 -0.2846 -0.0894  0.1261
 2382W        W 5901   1.865   7.061  10.066 -0.1292 -0.1584 -0.0880
 2383W        W 5902   4.360   1.435   8.443  0.0334 -0.0697 -0.1284
 2384W        W 5903   2.195   0.918   8.045 -0.0412  0.0595  0.0173
 2385W        W 5904   7.796   6.764   3.022 -0.0522 -0.2254 -0.1863
 2386W        W 5905   0.158   2.645   0.018  0.0958 -0.0943 -0.2262
 2387W        W 5906   6.673   9.482  11.744  0.1315 -0.0506 -0.0097
 2388W        W 5907   0.122   2.141   4.267 -0.2308 -0.0195  0.1481
 2389W        W 5908   2.987   4.526   1.668  0.2293  0.2602 -0.1811
 2390W        W 5909   3.332   7.522   2.654 -0.3752  0.0880  0.0820
 2391W        W 5910   4.032   8.488   0.362 -0.0726  0.1161  0.1609
 2392W        W 5911   1.100   9.820   0.945  0.2561  0.1164  0.0238
 2393W        W 5912   0.391   8.906   8.618  0.1762  0.0129 -0.1785
 2394W        W 5913   1.968   9.441   1.151 -0.0405 -0.2630 -0.1284
 2395W        W 5914   1.232   0.158   9.871 -0.2070 -0.0859  0.2083
 2396W        W 5915   4.947   4.660   9.919 -0.0673  0.0869 -0.0380
 2397W        W 5916   8.269   6.433   0.279  0.3213  0.0755 -0.1834
 2398W        W 5917   2.014   4.036   9.918 -0.1136 -0.0473  0.2202
 2399W        W 5918   5.916   0.863  10.111  0.0757 -0.0876 -0.1191
 2400W        W 5919   4.371   1.226   9.672  0.4725 -0.0441  0.1646
 2401W        W 5920   3.543   6.239   3.154 -0.3870 -0.1802 -0.3843
 2402W        W 5921   2.692   2.862  11.519  0.2548  0.0618  0.2995
 2403W        W 5922   7.664   4.792   9.663  0.0565 -0.1741 -0.2995
 2404W        W 5923   1.905   2.684   9.920  0.3487 -0.0368 -0.0290
 2405W        W 5924   4.738   9.917   8.694 -0.1505  0.1607 -0.5029
 2406W        W 5925   1.214   8.445   1.770  0.0628 -0.2133 -0.0191
 2407W        W 5926   0.519   4.862   9.159 -0.5232  0.1984  0.0099
 2408W        W 5927   2.209   0.131  11.517 -0.1772 -0.1626  0.1238
 2409W        W 5928   2.532   9.392   9.893  0.0818 -0.0122 -0.0090
 2410W        W 5929   7.601   4.861   8.791 -0.2347 -0.1006  0.1935
 2411W        W 5930   0.839   6.424   2.153 -0.0171 -0.0132  0.0819
 2412W        W 5931   7.119   3.556   9.060 -0.1023 -0.0474 -0.3776
 2413W        W 5932   2.570   6.197   2.710  0.1447  0.2620  0.1806
 2414W        W 5933   6.161   3.943  10.716 -0.0437  0.0985  0.0401
 2415W        W 5934   5.735   3.619  11.425 -0.0926  0.0709 -0.0578
 2416W        W 5935   1.884   2.145   2.995  0.3591 -0.1132  0.0874
 2417W        W 5936   5.761   1.090   0.827 -0.2820 -0.0567 -0.1917
 2418W        W 5937   8.785   5.768   2.714 -0.3811  0.1896 -0.2163
 2419W        W 5938   0.802   0.198   0.303 -0.1495  0.0206  0.0954
 2420W        W 5939   7.839   0.918   8.584 -0.0746  0.0882 -0.0882
 2421W        W 5940   8.856   7.445   2.315 -0.3132 -0.1893  0.0442
 2422W        W 5941   6.708   3.582   2.147 -0.3919 -0.0717 -0.0406
 2423W        W 5942   9.814   0.471   8.692  0.1157  0.1210 -0.0663
 2424W        W 5943   2.271   1.650   9.461  0.0905  0.3278 -0.0100
 2425W        W 5944   5.112   7.983  10.635  0.0608  0.0798  0.0191
 2426W        W 5945   7.701   1.156   9.801  0.3626  0.0652  0.1305
 2427W        W 5946   2.338   7.197   1.051 -0.3013  0.1580  0.1302
 2428W        W 5947   2.747   6.971   9.819 -0.3361 -0.0357 -0.0791
 2429W        W 5948   5.873   7.655   9.883  0.2840 -0.0452 -0.1628
 2430W        W 5949   2.211   1.406   9.883  0.0734  0.0885 -0.1267
 2431W        W 5950   7.493   7.487   1.630 -0.1141  0.2074 -0.0264
 2432W        W 5951   2.113   3.525  10.971  0.0642  0.2603 -0.0617
 2433W        W 5952   9.801   3.079   1.493  0.2475 -0.1081 -0.4671
 2434W        W 5953   4.697   3.690   0.822  0.0044  0.1122  0.1542
 2435W        W 5954   5.923   9.397  11.788  0.1110 -0.0967 -0.2398
 2436W        W 5955   0.254   7.974   0.716 -0.2434  0.1658  0.1911
 2437W        W 5956   9.463   2.587   7.991  0.5022  0.1340  0.1291
 2438W        W 5957   8.965   1.619   1.482 -0.2283 -0.0404 -0.2856
 2439W        W 5958   5.614   9.650   1.204  0.2140 -0.3210  0.0051
 2440W        W 5959   0.827   1.709   3.080 -0.0692  0.0992  0.2176
 2441W        W 5960   1.482   8.982  10.470 -0.1200 -0.1472  0.0146
 2442W        W 5961   5.058   7.310   2.501 -0.4569 -0.0544  0.2790
 2443W        W 5962   9.453   0.453  11.799 -0.1598  0.4542  0.3743
 2444W        W 5963   7.773   9.123  11.146  0.0073 -0.1243 -0.0209
 2445W        W 5964   9.580   0.140   0.793  0.1642 -0.4750  0.2033
 2446W        W 5965   3.114   8.057  11.818  0.2409 -0.0530 -0.2767
 2447W        W 5966   6.293   4.486   8.794 -0.0305 -0.1535 -0.1929
 2448W        W 5967   1.772   8.435   1.072  0.1810 -0.1587 -0.0128
 2449W        W 5968   5.737   7.408  10.661 -0.0390 -0.1503 -0.0219
 2450W        W 5969   5.602   9.250  10.748  0.0565 -0.0450  0.1409
 2451W        W 5970   8.952   0.320  11.682 -0.0424  0.0252 -0.0421
 2452W        W 5971   2.405   4.759  11.432  0.1900 -0.1772  0.1303
 2453W        W 5972   3.751   5.641   1.312 -0.0511  0.1674 -0.2106
 2454W        W 5973   3.800   5.903   9.459 -0.0129 -0.1520  0.2842
 2455W        W 5974   3.269   9.696   9.280 -0.0922 -0.0156 -0.2776
 2456W        W 5975   6.210   1.945   2.514  0.0852  0.0774  0.0816
 2457W        W 5976   6.216   3.972   8.806  0.2121 -0.0740  0.3098
 2458W        W 5977   2.605   1.870   1.992 -0.1465  0.1781  0.2122
 2459W        W 5978   9.779   1.289   0.451  0.0024 -0.2496  0.0574
 2460W        W 5979   9.301   4.943   8.114 -0.0600  0.1494  0.1238
 2461W        W 5980   2.840   0.571   2.176  0.1335 -0.0835  0.3225
 2462W        W 5981   5.383   9.191   9.716 -0.1635 -0.2591 -0.2035
 2463W        W 5982   0.866   8.012   8.652  0.1749 -0.0817  0.1348
 2464W        W 5983   3.445   6.793   4.275 -0.0100 -0.1095 -0.0747
 2465W        W 5984   1.418   5.099   1.150  0.2278 -0.0839  0.5117
 2466W        W 5985   8.565   0.154   2.846 -0.1316 -0.0741  0.2388
 2467W        W 5986   7.190   7.413   2.824 -0.1363 -0.0199 -0.1828
 2468W        W 5987   6.296   0.505  10.249 -0.0021 -0.1992  0.2552
 2469W        W 5988   8.194   4.381  11.777 -0.1515 -0.1274  0.1922
 2470W        W 5989   1.607   3.091   9.686  0.1816  0.2751 -0.1576
 2471W        W 5990   9.399   9.167  10.004 -0.2475 -0.1268  0.2431
 2472W        W 5991   3.869   2.655   8.511  0.1361  0.1201  0.1589
 2473W        W 5992   1.551   5.649   2.288 -0.1247 -0.2624 -0.0738
 2474W        W 5993   7.447   8.002   6.776 -0.0219 -0.2187  0.1655
 2475W        W 5994   4.065   4.622   2.996  0.1553 -0.1567  0.1791
 2476W        W 5995   3.299   1.669   9.340  0.0376 -0.3788 -0.0157
 2477W        W 5996   6.661   1.692   0.833  0.2174 -0.0782  0.0978
 2478W        W 5997   8.496   7.846   1.946  0.3156  0.0298  0.4396
 2479W        W 5998   6.656   1.799   7.686  0.3052  0.0307 -0.0491
 2480W        W 5999   4.584   6.388   4.287 -0.0222  0.0757 -0.2866
 2481W        W 6000   0.576   2.800   9.621  0.1397 -0.2577 -0.2318
 2482W        W 6001   5.401   9.412  11.797  0.2566 -0.2232 -0.2257
 2483W        W 6002   2.114   7.910   9.878  0.2808 -0.1154 -0.1847
 2484W        W 6003   9.770   3.697  10.846  0.2804  0.0420 -0.0926
 2485W        W 6004   5.553   8.166   0.324  0.1160  0.3334  0.0718
 2486W        W 6005   8.277   0.725  10.720 -0.1276  0.1335 -0.1560
 2487W        W 6006   2.486   0.128   2.406  0.0528  0.2492 -0.3651
 2488W        W 6007   9.669   5.236   2.619  0.0619 -0.0345 -0.0093
 2489W        W 6008   6.210   1.290   1.657 -0.1912 -0.0245  0.0808
 2490W        W 6009   2.208   9.184   0.794 -0.1158 -0.0732 -0.4138
 2491W        W 6010   7.217   0.056   1.776 -0.2134  0.1180  0.3116
 2492W        W 6011   8.360   8.642   7.923 -0.0293  0.0656 -0.1949
 2493W        W 6012   2.263   0.380   0.831 -0.2980  0.0025 -0.0468
 2494W        W 6013   5.064   7.834   2.122 -0.0278  0.0719  0.0866
 2495W        W 6014   8.244   3.585   1.561  0.1654 -0.1008 -0.2943
 2496W        W 6015   4.564   5.917  10.403  0.1145  0.2652 -0.1217
 2497W        W 6016   7.056   1.426   9.001  0.1193  0.1704 -0.2444
 2498W        W 6017   5.902   1.612   1.350 -0.2486 -0.0431  0.0995
 2499W        W 6018   4.577   6.353   9.993  0.0899  0.1218 -0.3296
 2500W        W 6019   8.150   9.269   1.891  0.0948  0.2324 -0.0562
 2501W        W 6020   8.835   7.107   8.143  0.1741  0.3336 -0.3876
 2502W        W 6021   0.561   5.015   2.181  0.2638  0.0620  0.0889
 2503W        W 6022   9.652   0.938  11.767  0.1522  0.0423 -0.0286
 2504W        W 6023   8.846   4.143   1.220 -0.0139  0.1041  0.2247
 2505W        W 6024   4.312   1.075  10.793 -0.0964 -0.1054  0.0866
 2506W        W 6025   2.654   3.559   1.459 -0.2135 -0.0075 -0.1029
 2507W        W 6026   9.287   2.402  11.410  0.0034 -0.2890 -0.2891
 2508W        W 6027   6.052   2.983  10.334 -0.0591 -0.2686  0.0195
 2509W        W 6028   1.361   5.075   2.477 -0.0751 -0.0168  0.0918
 2510W        W 6029   6.708   6.368   8.034  0.0607 -0.0591  0.1058
 2511W        W 6030   1.294   7.365  11.769 -0.2228  0.0425 -0.0184
 2512W        W 6031   8.905   9.877   2.537  0.2003  0.1072  0.2115
 2513W        W 6032   3.612   3.208  10.126 -0.2231  0.2395  0.0500
 2514W        W 6033   5.925   1.230   8.000  0.1507 -0.1798  0.2312
 2515W        W 6034   1.614   2.037  10.605  0.1714 -0.0597  0.0914
 2516W        W 6035   7.422   9.928   8.734  0.3483 -0.0114 -0.3670
 2517W        W 6036   0.895   1.870   2.538  0.0338  0.1780 -0.2046
 2518W        W 6037   8.186   4.584   9.626  0.0450 -0.1602 -0.1891
 2519W        W 6038   3.360   3.642  10.357 -0.0357 -0.1434  0.0428
 2520W        W 6039   4.135   0.370   8.137  0.2243 -0.0122  0.0591
 2521W        W 6040   2.071   7.280   3.336 -0.0088 -0.1424  0.0437
 2522W        W 6041   3.880   2.705   1.476  0.4024 -0.0485 -0.2550
 2523W        W 6042   6.937   9.278   3.240  0.1430 -0.0022 -0.0850
 2524W        W 6043   1.436   9.806   7.944  0.1264 -0.2192 -0.0477
 2525W        W 6044   7.795   2.829   2.624  0.2879 -0.0462 -0.3356
 2526W        W 6045   2.041   9.199   3.589 -0.1632 -0.0517  0.0034
 2527W        W 6046   4.382   9.491   2.373 -0.0947  0.0343  0.1837
 2528W        W 6047   5.962   1.071   0.323  0.1251 -0.3907 -0.1130
 2529W        W 6048   8.770   3.810   7.608 -0.1277  0.1108 -0.0794
 2530W        W 6049   1.920   2.685   4.448  0.1485  0.0805 -0.0651
 2531W        W 6050   3.992   2.101   8.714 -0.4873 -0.1002  0.0611
 2532W        W 6051   0.641   1.711   0.601  0.0612 -0.2440  0.0116
 2533W        W 6052   8.706   9.482   7.636 -0.2519 -0.1469  0.2152
 2534W        W 6053   3.445   8.535   0.289 -0.1037  0.1120  0.2006
 2535W        W 6054   1.575   6.171   8.867  0.3004  0.3858 -0.3892
 2536W        W 6055   2.646   8.943   9.541  0.0570 -0.1781 -0.0462
 2537W        W 6056   7.997   5.649  10.896 -0.0150  0.3120  0.3157
 2538W        W 6057   0.294   8.782   7.795 -0.1536 -0.2535 -0.0009
 2539W        W 6058   4.108   9.383   9.007 -0.3185 -0.0528  0.2041
 2540W        W 6059   5.477   5.757   2.959  0.1215 -0.0366 -0.1748
 2541W        W 6060   7.764   3.018   0.573 -0.1396  0.0933  0.1700
 2542W        W 6061   1.083   2.045   0.834  0.1657 -0.1066  0.2996
 2543W        W 6062   1.355   6.736   0.350  0.1424 -0.0328 -0.0307
 2544W        W 6063   8.943   8.629  11.848 -0.1909  0.0556  0.2122
 2545W        W 6064   4.249   6.600   2.556 -0.0038  0.2585 -0.0256
 2546W        W 6065   0.081   3.767   2.461 -0.1850 -0.0635 -0.2383
 2547W        W 6066   2.509   7.649   8.955  0.0415 -0.0773 -0.1047
 2548W        W 6067   7.434   2.434   3.973  0.1379  0.1713  0.0937
 2549W        W 6068   8.751   3.877   1.987  0.4304  0.0876 -0.0862
 2550W        W 6069   1.440   8.498   2.311 -0.3783 -0.0470 -0.2932
 2551W        W 6070   8.130   1.546  11.274 -0.1289 -0.0482 -0.3519
 2552W        W 6071   5.155   6.667  10.401  0.0638  0.0665 -0.1944
 2553W        W 6072   0.348   7.896   0.224 -0.0847  0.1284 -0.1450
 2554W        W 6073   3.852   9.049   8.800 -0.1007  0.1731 -0.0535
 2555W        W 6074   5.586   7.987   9.708 -0.2674 -0.1136  0.1489
 2556W        W 6075   1.995   1.990   0.868 -0.2219  0.2952  0.0955
 2557W        W 6076   7.743   2.707  11.459  0.4258  0.0598 -0.1531
 2558W        W 6077   8.289   5.349   7.132 -0.0333 -0.0315 -0.1372
 2559W        W 6078   7.123   8.700  10.302  0.0340  0.4231  0.2130
 2560W        W 6079   1.899   2.768   2.334  0.2418 -0.0565  0.2637
 2561W        W 6080   3.909   9.343   3.610 -0.0892 -0.0982 -0.3054
 2562W        W 6081   4.521   9.831   0.182  0.0194 -0.1117  0.0652
 2563W        W 6082   4.626   0.513   0.333  0.0841  0.0091 -0.3113
 2564W        W 6083   1.030   3.885   9.326  0.1356 -0.3824  0.1804
 2565W        W 6084   1.143   9.337  10.400 -0.0382  0.1834 -0.3632
 2566W        W 6085   2.941   3.496   8.699  0.1549 -0.0600  0.1062
 2567W        W 6086   5.433   1.147   7.938  0.1283  0.1276 -0.1029
 2568W        W 6087   4.172   0.731   0.330  0.2495 -0.0036  0.1017
 2569W        W 6088   7.074   4.978   1.695  0.2722  0.1980  0.1266
 2570W        W 6089   1.179   2.319   2.448  0.1517  0.0212 -0.1370
 2571W        W 6090   2.775   7.296   9.147 -0.0087  0.2089 -0.0161
 2572W        W 6091   6.568   9.933   9.267  0.1447 -0.0638 -0.0424
 2573W        W 6092   5.772   2.210   9.127 -0.1033  0.1662  0.0714
 2574W        W 6093   4.941   2.268   2.680  0.3970  0.0874 -0.0919
 2575W        W 6094   4.086   6.748   1.538 -0.3903  0.2265  0.0231
 2576W        W 6095   2.913   4.985   1.312  0.1938 -0.2239 -0.2810
 2577W        W 6096   5.046   6.853  11.849  0.0748  0.1515 -0.3219
 2578W        W 6097   3.927   0.920  10.520  0.1320  0.0305 -0.0959
 2579W        W 6098   1.679   5.394  11.434 -0.0321 -0.2219 -0.0070
 2580W        W 6099   6.905   6.047   0.051  0.0475  0.2189  0.3205
 2581W        W 6100   9.872   4.778   2.463  0.0003 -0.2318  0.3588
 2582W        W 6101   4.936   4.687   8.494 -0.3358  0.0908  0.3279
 2583W        W 6102   7.291   9.071  10.793  0.1338  0.1231 -0.1997
 2584W        W 6103   5.546   0.262   3.250 -0.1114 -0.2122 -0.2157
 2585W        W 6104   7.913   5.667   9.090 -0.4714  0.1366 -0.3270
 2586W        W 6105   4.551   5.320   4.873  0.0608  0.4285 -0.0334
 2587W        W 6106   8.433   4.697  11.139  0.2037  0.5182  0.3172
 2588W        W 6107   5.854   1.988   2.892 -0.1616 -0.2391  0.1952
 2589W        W 6108   3.509   0.169  11.531 -0.0504 -0.0571 -0.0342
 2590W        W 6109   4.602   7.538  11.443 -0.0805  0.2944 -0.3120
 2591W        W 6110   6.004   2.597  10.997 -0.2289  0.3885 -0.0277
 2592W        W 6111   5.595   5.251   0.753  0.2018  0.3073  0.0489
 2593W        W 6112   8.655   5.151  10.826  0.0871  0.0791  0.2899
 2594W        W 6113   7.495   1.452   7.715 -0.2018 -0.2406  0.0289
 2595W        W 6114   4.311   8.161   9.056  0.0822  0.1522  0.0010
 2596W        W 6115   3.277   8.136   3.452 -0.2272 -0.4757  0.0414
 2597W        W 6116   6.182   8.514   1.900 -0.0294 -0.3092 -0.0002
 2598W        W 6117   7.638   7.127  10.432  0.0915  0.1763 -0.1093
 2599W        W 6118   4.702   9.557   1.697 -0.1790  0.1466 -0.3716
 2600W        W 6119   8.885   4.317   1.744  0.0598  0.0008  0.0194
 2601W        W 6120   2.088   6.836   4.111 -0.3182  0.0398  0.2426
 2602W        W 6121   3.602   7.324   3.373  0.0724 -0.0125  0.1208
 2603W        W 6122   3.617   8.188  11.881  0.2112 -0.4203  0.0771
 2604W        W 6123   2.352   6.638   1.969 -0.0679  0.1981 -0.0295
 2605W        W 6124   6.715   9.381   2.487  0.4760 -0.1331  0.2356
 2606W        W 6125   4.642   2.791   0.865 -0.0607  0.1125  0.1020
 2607W        W 6126   3.235   2.628   7.769 -0.1662  0.1641 -0.0105
 2608W        W 6127   5.888   3.387   9.978  0.1887 -0.0306 -0.1074
 2609W        W 6128   0.196   9.535   0.775  0.1847 -0.0677 -0.2215
 2610W        W 6129   2.289   8.091   2.375 -0.2236 -0.0018 -0.0341
 2611W        W 6130   0.428   1.193   9.652  0.0130 -0.3235 -0.1129
 2612W        W 6131   4.059   1.065   2.828  0.0450 -0.1513  0.0646
 2613W        W 6132   2.094   7.891   1.975 -0.2880  0.0570 -0.0402
 2614W        W 6133   5.673   1.195   2.746 -0.1441  0.0277  0.0827
 2615W        W 6134   1.693   9.330   8.072  0.2219  0.0876 -0.2071
 2616W        W 6135   6.191   3.841  11.546  0.0945  0.0925  0.0785
 2617W        W 6136   9.463   7.747   9.081  0.1108 -0.2383  0.2598
 2618W        W 6137   7.437   9.504   3.159  0.1004 -0.0337  0.1752
 2619W        W 6138   0.353   5.050  11.215  0.2218  0.2446 -0.0944
 2620W        W 6139   2.854   3.873   9.505  0.1484  0.1204  0.1064
 2621W        W 6140   9.789   7.691  10.059  0.0421 -0.1484 -0.3922
 2622W        W 6141   3.057   4.057   2.397  0.0926 -0.0515  0.1106
 2623W        W 6142   6.481   6.187   9.374  0.0542  0.2802  0.3388
 2624W        W 6143   4.092   7.337   4.645 -0.3616 -0.0383 -0.1230
 2625W        W 6144   2.730   1.048   8.905 -0.2480 -0.1795 -0.2073
 2626W        W 6145   2.691   5.244  11.399 -0.0100  0.1758  0.2964
 2627W        W 6146   1.588   5.489   9.425 -0.0521 -0.0612 -0.1164
 2628W        W 6147   4.390   5.623   0.772  0.2521  0.2283  0.0426
 2629W        W 6148   7.320   7.585   0.931  0.0272  0.1241 -0.3583
 2630W        W 6149   7.177   4.872   1.074  0.0709 -0.4418 -0.5313
 2631W        W 6150   5.450   0.266  11.852 -0.2765 -0.1392 -0.1201
 2632W        W 6151   5.255   4.554  10.523  0.2507  0.0088 -0.1558
 2633W        W 6152   6.317   5.063  10.440  0.0077 -0.0825 -0.0719
 2634W        W 6153   4.599   0.392   9.231 -0.0815  0.0373  0.0819
 2635W        W 6154   1.101   8.398   7.983  0.0643  0.1901  0.0962
 2636W        W 6155   6.999   7.136   2.438  0.0920  0.0616 -0.2123
 2637W        W 6156   1.530   6.101   4.091 -0.4632  0.2042  0.0097
 2638W        W 6157   3.673   8.568   0.772 -0.4114  0.1778  0.0361
 2639W        W 6158   7.405   5.168   8.024  0.2237  0.2774  0.1941
 2640W        W 6159   4.773   2.830   1.425 -0.1356  0.2519 -0.2732
 2641W        W 6160   6.398   5.969   7.868  0.0401  0.0703  0.1637
 2642W        W 6161   5.851   6.690   2.905 -0.3616  0.1868 -0.1055
 2643W        W 6162   0.322   8.156  11.288 -0.3169 -0.0614  0.0432
 2644W        W 6163   8.461   2.078  11.851  0.1796  0.1970  0.3126
 2645W        W 6164   8.596   2.510   1.590  0.1261  0.0927 -0.2404
 2646W        W 6165   0.812   8.440   1.224  0.2986  0.4270 -0.0343
 2647W        W 6166   0.022   5.852  10.515  0.0931  0.3250 -0.0748
 2648W        W 6167   0.096   3.370   2.752 -0.0327  0.1741 -0.0738
 2649W        W 6168   0.798   0.499   7.645 -0.3630 -0.0460  0.1621
 2650W        W 6169   4.749   0.496   8.777  0.0373  0.1056  0.1288
 2651W        W 6170   4.738   4.220   9.774  0.0069 -0.1058 -0.1359
 2652W        W 6171   0.961   4.656  10.009  0.3929  0.2223  0.1942
 2653W        W 6172   5.480   9.648   8.346  0.1167 -0.0500 -0.1145
 2654W        W 6173   6.350   0.144   3.526 -0.2423  0.3787  0.0896
 2655W        W 6174   6.378   9.327   0.848  0.0423  0.0938 -0.1323
 2656W        W 6175   8.844   2.078   3.465 -0.0682  0.2900 -0.0124
 2657W        W 6176   8.967   0.300   8.251  0.0780  0.0193 -0.2148
 2658W        W 6177   0.781   9.409   2.827 -0.0769  0.4134  0.2576
 2659W        W 6178   5.657   3.893   3.105  0.0335  0.0574 -0.3292
 2660W        W 6179   7.285   9.546   1.952 -0.0831 -0.0542 -0.2424
 2661W        W 6180   0.368   9.407  11.445 -0.5334 -0.1383  0.0659
 2662W        W 6181   5.498   3.974   8.324  0.0617 -0.0091 -0.2573
 2663W        W 6182   6.343   0.787   0.130 -0.0298 -0.0453  0.4772
 2664W        W 6183   0.785   0.943  10.645  0.2587 -0.0529  0.3914
 2665W        W 6184   3.311   6.238   0.228  0.1659 -0.0410  0.0901
 2666W        W 6185   7.840   1.451   0.800 -0.3217 -0.1784 -0.0769
 2667W        W 6186   4.827   1.663  10.627  0.2543 -0.3019 -0.1975
 2668W        W 6187   6.453   2.004   2.062  0.1339  0.0623  0.1550
 2669W        W 6188   5.736   1.206  11.862  0.0495  0.1545  0.2314
 2670W        W 6189   7.635   7.304  11.903  0.0915 -0.0708 -0.1489
 2671W        W 6190   1.813   0.096   0.326  0.0214  0.1959 -0.5282
 2672W        W 6191   6.215   4.334  10.470  0.2969 -0.2220  0.5450
 2673W        W 6192   7.251   6.019   0.447  0.1170 -0.2731  0.0540
 2674W        W 6193   2.147   3.116   9.823  0.2207 -0.0917  0.0619
 2675W        W 6194   2.852   1.377   8.462  0.1870  0.2093 -0.1189
 2676W        W 6195   6.112   1.504   0.740 -0.2084 -0.0642  0.0728
 2677W        W 6196   9.417   8.464   9.989  0.1822  0.2852 -0.3617
 2678W        W 6197   2.143   3.000  10.790  0.0134  0.1958 -0.2301
 2679W        W 6198   7.728   8.614   0.972 -0.0980 -0.1970 -0.3887
 2680W        W 6199   8.802   9.179  10.271 -0.1132  0.0274 -0.1442
 2681W        W 6200   6.970   0.138   9.624 -0.2203 -0.1150 -0.1190
 2682W        W 6201   2.473   1.502   1.727 -0.1835  0.2065 -0.0482
 2683W        W 6202   0.038   2.786   3.440  0.3417  0.0007 -0.0427
 2684W        W 6203   5.168   2.691   2.764  0.0724 -0.0341  0.1674
 2685W        W 6204   1.893   8.867   8.580  0.1320  0.1631  0.0789
 2686W        W 6205   5.422   3.890   9.255  0.1840 -0.1790  0.0576
 2687W        W 6206   9.792   1.064   2.420  0.1419 -0.1718 -0.0024
 2688W        W 6207   3.637   3.898  10.747  0.1322 -0.2095 -0.1169
 2689W        W 6208   2.444   3.589   9.368  0.4082  0.1170 -0.4868
 2690W        W 6209   7.613   8.561   8.894 -0.2691 -0.2262 -0.2974
 2691W        W 6210   3.655   7.241   8.304  0.0463 -0.1337 -0.0832
 2692W        W 6211   8.953   9.335   8.547 -0.1714  0.0670  0.1836
 2693W        W 6212   3.342   5.947   1.096  0.0987  0.3646 -0.1074
 2694W        W 6213   3.068   7.052   2.637  0.2094  0.1370 -0.2104
 2695W        W 6214   2.179   0.559  10.609  0.3422  0.0264 -0.1454
 2696W        W 6215   7.598   4.976   0.890  0.3474  0.0293 -0.2555
 2697W        W 6216   8.033   2.893   9.551 -0.1283  0.3279  0.0668
 2698W        W 6217   8.139   0.609   0.939  0.1934 -0.2847 -0.2811
 2699W        W 6218   8.690   3.773  11.419  0.0017 -0.0621 -0.2271
 2700W        W 6219   9.186   9.010   1.122 -0.1453 -0.0028  0.1707
 2701W        W 6220   3.533   4.149   8.733  0.1028 -0.2770 -0.1549
 2702W        W 6221   9.521   1.501   1.460  0.0879 -0.0740 -0.3278
 2703W        W 6222   1.632   6.783  11.091  0.2278  0.0838  0.0750
 2704W        W 6223   4.314   6.023   2.734 -0.0320 -0.0041 -0.1437
 2705W        W 6224   0.640   0.984   9.236 -0.0427  0.0384  0.1288
 2706W        W 6225   3.235   4.949   5.910 -0.1157 -0.1779  0.1854
 2707W        W 6226   5.503   9.116   2.870 -0.2276 -0.1214  0.2371
 2708W        W 6227   6.043   4.582  11.748  0.0623  0.1973 -0.1250
 2709W        W 6228   3.343   8.809   1.062  0.0336 -0.2312  0.1538
 2710W        W 6229   3.026   7.958   2.590 -0.4266  0.1621  0.1055
 2711W        W 6230   8.635   8.781   8.934 -0.0680  0.1859  0.1410
 2712W        W 6231   6.105   7.108   1.184  0.1534 -0.1153 -0.0706
 2713W        W 6232   9.025   3.844   1.583  0.0762  0.0966 -0.1018
 2714W        W 6233   2.836   3.778  10.301  0.0304 -0.0964 -0.4006
 2715W        W 6234   3.174   5.799   0.053 -0.1114  0.2091  0.1202
 2716W        W 6235   4.170   5.321   3.215 -0.0394  0.0076  0.1471
 2717W        W 6236   6.392   5.353   2.049  0.3049  0.1210  0.0244
 2718W        W 6237   5.962   3.828   0.920  0.1468  0.0661 -0.1634
 2719W        W 6238   2.324   5.004   9.815 -0.1290 -0.0873  0.0960
 2720W        W 6239   7.296   9.402  11.190  0.0283 -0.0517 -0.0517
 2721W        W 6240   6.565   1.211   7.471  0.4506 -0.2398 -0.2037
 2722W        W 6241   0.126   3.772   3.502 -0.3210 -0.1437 -0.2081
 2723W        W 6242   2.149   1.907   8.514 -0.1972  0.0640  0.1343
 2724W        W 6243   3.963   4.253   2.628 -0.1686  0.1306  0.0797
 2725W        W 6244   1.701   7.054   2.929 -0.1984  0.3387  0.0690
 2726W        W 6245   2.582   6.080   3.222  0.2673  0.0307  0.0477
 2727W        W 6246   4.101   4.019   9.502  0.0304  0.1341  0.0026
 2728W        W 6247   7.114   3.695   2.460 -0.2799 -0.0802  0.1044
 2729W        W 6248   1.892   8.342   3.542 -0.1139  0.0733 -0.0595
 2730W        W 6249   8.517   3.831  10.944 -0.2668 -0.0690  0.4902
 2731W        W 6250   2.597   9.636   2.571 -0.1276 -0.1113 -0.1767
 2732W        W 6251   6.159   1.507   3.560  0.2565  0.0302 -0.0752
 2733W        W 6252   6.336   8.769   8.138  0.0251  0.2819  0.1975
 2734W        W 6253   4.950   9.923   0.482  0.1677 -0.0007  0.1752
 2735W        W 6254   4.906   9.400   2.324 -0.2684 -0.0899  0.1072
 2736W        W 6255   3.242   0.927   8.833  0.0190 -0.2165 -0.0102
 2737W        W 6256   7.967   7.805   8.652  0.3537  0.0508  0.0586
 2738W        W 6257   7.301   3.739   8.178 -0.2190 -0.1071 -0.0156
 2739W        W 6258   8.016   4.734   0.128  0.0411 -0.2039 -0.0894
 2740W        W 6259   0.676   9.717   0.632 -0.2673 -0.0177  0.0650
 2741W        W 6260   4.607   8.521   2.483 -0.0803  0.0184  0.1285
 2742W        W 6261   2.399   5.892   9.499  0.0424  0.1418 -0.2133
 2743W        W 6262   5.824   6.293   0.010  0.0027  0.0548  0.0600
 2744W        W 6263   3.284   2.655   0.299 -0.2640  0.0678  0.0607
 2745W        W 6264   4.295   9.427   9.681  0.1668  0.1975 -0.2223
 2746W        W 6265   4.993   8.287  10.214  0.0592 -0.0801 -0.2387
 2747W        W 6266   3.948   0.565  11.808  0.0015  0.0416  0.1321
 2748W        W 6267   5.284   4.086  11.701 -0.2612 -0.0033  0.1248
 2749W        W 6268   4.614   7.020  11.643 -0.1848 -0.2932 -0.1038
 2750W        W 6269   8.685   8.993   7.740 -0.0150  0.1066 -0.3055
 2751W        W 6270   7.487   3.858  11.947 -0.2066  0.2822 -0.0174
 2752W        W 6271   3.358   9.391   8.851 -0.1974  0.3202 -0.1254
 2753W        W 6272   7.475   2.696   8.001 -0.0587  0.2714 -0.1529
 2754W        W 6273   1.145   4.075   8.562  0.0934  0.0485  0.3751
 2755W        W 6274   4.433   8.979   8.927 -0.3145 -0.0710  0.0453
 2756W        W 6275   3.874   9.621   9.386  0.1187 -0.1725  0.0029
 2757W        W 6276   4.706   1.047  11.497  0.1079  0.0022  0.2656
 2758W        W 6277   5.275   0.358   0.329 -0.1913  0.2312  0.0398
 2759W        W 6278   1.042   1.639  11.314 -0.1482 -0.0153 -0.0984
 2760W        W 6279   7.095   2.178  10.186  0.1304 -0.0656  0.2826
 2761W        W 6280   6.153   4.705   9.388  0.2829  0.1229 -0.1819
 2762W        W 6281   7.212   5.775   2.048  0.0381 -0.2530  0.1319
 2763W        W 6282   1.942   7.188   7.562  0.1354 -0.0050  0.1679
 2764W        W 6283   3.847   0.374   8.580 -0.0329 -0.0727  0.1658
 2765W        W 6284   4.932   9.117   1.384 -0.0439 -0.4489  0.1327
 2766W        W 6285   3.029   4.959   3.112  0.0573 -0.0042 -0.1539
 2767W        W 6286   2.407   2.279  10.248  0.0081 -0.1627  0.1425
 2768W        W 6287   3.134   1.291   0.986 -0.1358 -0.0318 -0.0743
 2769W        W 6288   9.903   4.351   2.142  0.2672  0.1039 -0.0732
 2770W        W 6289   0.976   0.419   1.847  0.1008 -0.3243  0.1638
 2771W        W 6290   8.416   8.341   1.866 -0.0271 -0.0071  0.1411
 2772W        W 6291   3.429   3.677   8.606  0.0904  0.0128 -0.0165
 2773W        W 6292   5.538   6.006   8.541 -0.3823 -0.0936 -0.4529
 2774W        W 6293   9.868   9.726   2.667 -0.1439 -0.0616 -0.1591
 2775W        W 6294   0.354   8.695  10.282  0.3015  0.2209  0.0513
 2776W        W 6295   6.243   5.091   8.436 -0.0415 -0.4069 -0.1377
 2777W        W 6296   9.807   2.733   0.966  0.1017 -0.1094  0.0629
 2778W        W 6297   6.595   5.846   1.302  0.2769  0.3578  0.0914
 2779W        W 6298   6.835   8.151   2.264 -0.1670 -0.2234  0.0670
 2780W        W 6299   1.568   7.640   2.037  0.1241  0.0605 -0.1579
 2781W        W 6300   4.858   3.811   1.431 -0.3393 -0.1523  0.3297
 2782W        W 6301   6.561   7.769   7.190 -0.1214  0.0201 -0.0970
 2783W        W 6302   5.314   7.335   0.851  0.1534  0.0444  0.0538
 2784W        W 6303   3.299   7.882  10.210  0.1168  0.0805  0.3486
 2785W        W 6304   0.088   7.661   8.740 -0.1628 -0.3452  0.2247
 2786W        W 6305   1.759   9.950  11.525  0.0125 -0.3726 -0.4498
 2787W        W 6306   1.397   2.745   2.438 -0.0290 -0.0786 -0.3073
 2788W        W 6307   4.411   0.096   2.793 -0.0840 -0.1720 -0.0372
 2789W        W 6308   6.116   4.401   1.070  0.1575 -0.1639 -0.1163
 2790W        W 6309   8.500   6.774   7.854 -0.1630  0.0761 -0.1128
 2791W        W 6310   9.602   3.725   3.315  0.1300 -0.1702 -0.0620
 2792W        W 6311   2.875   1.374   2.913  0.0747 -0.1942 -0.0186
 2793W        W 6312   6.457   3.282  10.255  0.1322  0.1023 -0.3462
 2794W        W 6313   3.771   9.080   0.829  0.0544  0.0769 -0.0954
 2795W        W 6314   3.359   5.249   2.808 -0.0261  0.1713 -0.0283
 2796W        W 6315   2.283   9.305   7.468  0.1847  0.2031 -0.1343
 2797W        W 6316   0.034   6.492   8.902 -0.2798  0.1479 -0.1468
 2798W        W 6317   2.943   4.362   9.870  0.2423 -0.0210 -0.1926
 2799W        W 6318   5.128   2.924  11.050  0.0505  0.1342  0.2571
 2800W        W 6319   0.233   8.088   8.004 -0.0484  0.0810 -0.1677
 2801W        W 6320   9.366   4.944  11.522 -0.4436 -0.3363 -0.1635
 2802W        W 6321   8.606   3.414   8.683 -0.3494  0.1176 -0.1679
 2803W        W 6322   3.930   0.289   9.995 -0.2211  0.0609 -0.2297
 2804W        W 6323   5.958   0.349  11.682 -0.0335 -0.1065 -0.2304
 2805W        W 6324   1.457   0.103   1.259 -0.1649 -0.4394 -0.0069
 2806W        W 6325   6.270   7.230   8.564  0.1673 -0.2508  0.1285
 2807W        W 6326   4.237   0.009  10.753  0.1844  0.2204  0.1947
 2808W        W 6327   9.781   8.088   8.991  0.3014  0.0527  0.1855
 2809W        W 6328   5.094   3.700  10.682 -0.1734 -0.0035 -0.1334
 2810W        W 6329   8.073   6.458   8.491 -0.1948  0.2463  0.0217
 2811W        W 6330   3.084   8.132   0.351 -0.1445 -0.1909  0.1825
 2812W        W 6331   8.203   4.448   7.470 -0.1414 -0.1480  0.1408
 2813W        W 6332   3.420   9.899   8.221 -0.0197  0.0946 -0.3897
 2814W        W 6333   0.655   3.995   9.763 -0.0316 -0.2000 -0.0127
 2815W        W 6334   6.071   3.041   2.984 -0.0218  0.0058 -0.1930
 2816W        W 6335   6.754   4.483   8.115 -0.0713  0.1157  0.0009
 2817W        W 6336   8.294   8.152   3.507 -0.3164  0.4861  0.0043
 2818W        W 6337   6.638   9.453   8.960  0.0436  0.0025  0.1042
 2819W        W 6338   7.421   1.564   1.333  0.0859 -0.2185  0.0713
 2820W        W 6339   5.880   4.435   0.237 -0.0667 -0.0125 -0.2311
 2821W        W 6340   2.933   9.626   1.165  0.0710 -0.0713 -0.0931
 2822W        W 6341   5.545   6.956  10.506 -0.3960 -0.0279  0.0930
 2823W        W 6342   5.739   7.943   8.422  0.2224  0.0143  0.4035
 2824W        W 6343   0.999   1.499   0.945  0.3781  0.1338 -0.4234
 2825W        W 6344   2.027   7.415   1.981 -0.1255  0.2129 -0.0594
 2826W        W 6345   9.246   7.077  10.030 -0.0906 -0.2297 -0.1867
 2827W        W 6346   1.465   5.903  11.279  0.0150 -0.0807  0.3446
 2828W        W 6347   7.935   9.567   3.053 -0.2597  0.1577 -0.0968
 2829W        W 6348   3.471   0.845  10.372 -0.0427 -0.0991  0.3556
 2830W        W 6349   0.891   2.558   8.760 -0.0818  0.0772 -0.1152
 2831W        W 6350   1.154   2.456   1.115  0.0549  0.1528 -0.0995
 2832W        W 6351   1.581   5.991   1.893  0.2459 -0.0133 -0.0444
 2833W        W 6352   8.205   3.383   3.345  0.1947 -0.3930  0.0726
 2834W        W 6353   5.263   1.681  11.872 -0.0165  0.1677 -0.0340
 2835W        W 6354   3.345   1.260  10.691 -0.0190  0.0103  0.0981
 2836W        W 6355   2.575   6.500   9.815 -0.0611 -0.1381 -0.1974
 2837W        W 6356   1.317   5.256   2.033  0.4629  0.0109 -0.4543
 2838W        W 6357   1.843   0.443   1.557 -0.0624 -0.0234 -0.0986
 2839W        W 6358   5.180   1.878  10.296 -0.1122 -0.1422  0.1236
 2840W        W 6359   3.371   9.808   0.994 -0.0508 -0.3421 -0.1206
 2841W        W 6360   5.899   0.078   9.155  0.0131 -0.1144  0.3615
 2842W        W 6361   5.817   1.737  10.964 -0.0323 -0.2429  0.4589
 2843W        W 6362   9.313   0.815   7.757 -0.1054 -0.2210 -0.3265
 2844W        W 6363   0.116   2.465   0.580 -0.0726  0.1152  0.0337
 2845W        W 6364   5.465   8.695  11.323 -0.0442 -0.0778 -0.1638
 2846W        W 6365   3.768   2.592   9.676  0.0315  0.0451  0.4182
 2847W        W 6366   9.741   7.827   9.520 -0.0180 -0.2192 -0.2692
 2848W        W 6367   7.031   6.722   7.989 -0.0681  0.1398 -0.1742
 2849W        W 6368   8.170   9.790   2.672  0.0606  0.2356 -0.1226
 2850W        W 6369   0.243   9.011   0.675  0.1485  0.3201 -0.3479
 2851W        W 6370   1.744   8.811   9.463 -0.1378 -0.0200  0.0167
 2852W        W 6371   0.109   0.866  11.492  0.3798  0.1926  0.2376
 2853W        W 6372   8.884   5.585   1.903 -0.0394  0.0921  0.1351
 2854W        W 6373   9.212   2.762   0.722  0.0249 -0.1528  0.0826
 2855W        W 6374   2.795   8.645   9.068 -0.0333 -0.1258 -0.3328
 2856W        W 6375   5.118   1.688   3.296 -0.3564 -0.1432 -0.1235
 2857W        W 6376   2.926   2.208   1.827 -0.1558 -0.1191  0.4634
 2858W        W 6377   8.693   4.489   3.219 -0.2957  0.3214 -0.1108
 2859W        W 6378   7.289   1.057   0.020 -0.2023 -0.1170  0.1059
 2860W        W 6379   3.360   9.543  11.622  0.0732 -0.2118 -0.1727
 2861W        W 6380   7.016   0.331   2.550  0.2229  0.0779  0.0620
 2862W        W 6381   4.180   9.181   8.425 -0.0460 -0.1697 -0.1911
 2863W        W 6382   3.919   8.347   9.354 -0.0765 -0.1369  0.1037
 2864W        W 6383   7.108   8.876   9.724  0.0685 -0.0634  0.2592
 2865W        W 6384   6.407   0.339   0.819  0.2359  0.0100  0.1349
 2866W        W 6385   0.891   8.942   0.413  0.3311  0.2308  0.2695
 2867W        W 6386   5.071   8.329   2.461  0.0498 -0.0302  0.1384
 2868W        W 6387   6.192   2.404   2.715  0.0085  0.4179 -0.1519
 2869W        W 6388   5.696   3.947   8.839 -0.3051 -0.0416  0.0565
 2870W        W 6389   0.943   3.327   2.239  0.0948 -0.1056  0.0021
 2871W        W 6390   9.364   3.034   2.240  0.3270 -0.1725 -0.2808
 2872W        W 6391   9.539   0.293   8.338  0.2583  0.2114  0.2057
 2873W        W 6392   0.665   9.523  10.321 -0.2597  0.2004 -0.0775
 2874W        W 6393   4.942   8.592   0.422 -0.2636  0.2950  0.1024
 2875W        W 6394   2.186   8.033   1.237 -0.0256 -0.0645 -0.1089
 2876W        W 6395   6.861   2.585   3.319 -0.1195 -0.0741  0.1970
 2877W        W 6396   5.249   3.692   1.074  0.0456  0.2833  0.0432
 2878W        W 6397   1.451   1.910  10.136 -0.2115 -0.0992  0.1313
 2879W        W 6398   8.600   9.782   3.410 -0.1653  0.1714 -0.0987
 2880W        W 6399   4.784   3.219  10.896  0.0728 -0.0067  0.3507
 2881W        W 6400   1.679   1.182   8.886  0.1473  0.1345  0.0770
 2882W        W 6401   3.771   7.313   2.912 -0.1773 -0.0856 -0.0145
 2883W        W 6402   5.190   7.832   0.735 -0.2477 -0.2680  0.0735
 2884W        W 6403   7.957   4.421  11.177  0.0604 -0.0060 -0.2653
 2885W        W 6404   1.852   6.278  11.449  0.0478  0.0562 -0.0770
 2886W        W 6405   0.488   7.769  10.515 -0.0898  0.0008  0.0486
 2887W        W 6406   1.892   5.428   3.641  0.0133 -0.3114  0.0816
 2888W        W 6407   0.969   6.566  11.679 -0.0564 -0.2676  0.2043
 2889W        W 6408   2.168   1.755   3.746 -0.1287  0.1613 -0.0310
 2890W        W 6409   7.032   4.155   9.169 -0.0118  0.1770  0.0338
 2891W        W 6410   7.127   8.088   9.974 -0.1530 -0.2994 -0.2492
 2892W        W 6411   5.322   4.841   3.197 -0.1361  0.0681  0.0882
 2893W        W 6412   7.447   0.882   7.783  0.1611  0.2912  0.0184
 2894W        W 6413   9.549   8.337  11.905 -0.2242 -0.2654  0.1728
 2895W        W 6414   1.280   8.024   8.346 -0.2864 -0.0556 -0.2612
 2896W        W 6415   8.427   9.438   3.081 -0.0003  0.0042 -0.2021
 2897W        W 6416   2.563   9.846  11.364  0.2281  0.1182  0.0716
 2898W        W 6417   9.252   1.693   9.301 -0.1201 -0.1048  0.0842
 2899W        W 6418   5.498   1.588  11.418 -0.4433  0.1166 -0.3799
 2900W        W 6419   0.353   8.387   9.745 -0.3767  0.0568 -0.1226
 2901W        W 6420   1.740   8.794   1.910 -0.1287  0.0329 -0.1464
 2902W        W 6421   1.648   2.141   2.540 -0.3366 -0.1535 -0.1322
 2903W        W 6422   5.921   8.916   2.221  0.2395 -0.3590 -0.0968
 2904W        W 6423   7.678   7.869   0.056 -0.1180  0.0756 -0.3016
 2905W        W 6424   5.133   2.299   4.001 -0.0487 -0.0931 -0.0623
 2906W        W 6425   0.544   5.539   9.793 -0.1699 -0.0550  0.0601
 2907W        W 6426   4.641   9.379   9.208  0.2280 -0.0613 -0.0168
 2908W        W 6427   8.121   2.676   1.751 -0.2382  0.0364  0.2050
 2909W        W 6428   2.828   0.515   8.597 -0.0327  0.1887  0.0054
 2910W        W 6429   3.954   3.839   8.930 -0.0953  0.1313 -0.1929
 2911W        W 6430   6.957   8.833   2.633 -0.1547 -0.1371 -0.2716
 2912W        W 6431   1.121   2.733  11.126 -0.1922  0.1700 -0.0921
 2913W        W 6432   7.046   4.903   2.175  0.2249 -0.1580 -0.2190
 2914W        W 6433   8.571   8.028   0.154 -0.0478 -0.0390  0.2959
 2915W        W 6434   9.188   0.977   3.030  0.2956 -0.1466 -0.1036
 2916W        W 6435   6.030   1.322  10.581  0.1525 -0.0095  0.2677
 2917W        W 6436   5.320   7.546   9.726 -0.1756 -0.1154 -0.0244
 2918W        W 6437   0.220   3.648  10.316  0.0339  0.3634 -0.0800
 2919W        W 6438   3.385   6.599  10.238  0.3773  0.0675 -0.4261
 2920W        W 6439   9.631   1.469   3.641  0.0964  0.0394 -0.0012
 2921W        W 6440   4.738   3.234   1.769  0.1971 -0.1055 -0.1037
 2922W        W 6441   0.126   3.234   8.414 -0.0985 -0.0514  0.2154
 2923W        W 6442   0.578   3.304  10.492 -0.1136 -0.1191  0.1388
 2924W        W 6443   3.012   8.325   1.769  0.1334 -0.0173  0.0676
 2925W        W 6444   2.113   9.942   8.830  0.2788  0.2792 -0.2721
 2926W        W 6445   0.099   8.633   3.533 -0.1744  0.2405  0.1996
 2927W        W 6446   0.405   3.548   0.215 -0.1303 -0.1095 -0.1591
 2928W        W 6447   9.686   7.457   2.586 -0.2526  0.1113  0.0046
 2929W        W 6448   5.020   2.281  10.057  0.0446  0.2994 -0.1363
 2930W        W 6449   3.234   8.917   0.622 -0.2915 -0.2313  0.1435
 2931W        W 6450   3.540   5.730   2.758  0.2440  0.0435 -0.1334
 2932W        W 6451   8.023   1.466   9.511 -0.0869  0.2483  0.1703
 2933W        W 6452   5.330   6.986  10.003 -0.3588  0.3216 -0.0174
 2934W        W 6453   5.808   4.112  11.762 -0.1798  0.0827 -0.1349
 2935W        W 6454   4.520   3.103   2.909  0.2499 -0.1154 -0.1100
 2936W        W 6455   5.796   7.608   0.947  0.0062 -0.2538 -0.2190
 2937W        W 6456   4.664   6.506  11.893  0.2500  0.1641 -0.2338
 2938W        W 6457   3.671   3.977   1.018  0.1705  0.0504 -0.0827
 2939W        W 6458   4.894   4.934  11.492  0.1704 -0.1104 -0.0669
 2940W        W 6459   1.267   8.212   1.344 -0.0418 -0.1282  0.0747
 2941W        W 6460   8.737   7.992   1.249 -0.2190 -0.1320 -0.0607
 2942W        W 6461   9.583   3.857   2.224 -0.2379  0.0476 -0.3452
 2943W        W 6462   2.136   4.688   3.066  0.1356 -0.2035 -0.0009
 2944W        W 6463   5.726   7.623  11.195  0.0630 -0.1999 -0.1425
 2945W        W 6464   9.321   7.669   0.769 -0.0770  0.3163  0.2008
 2946W        W 6465   5.829   8.068   7.668  0.1452 -0.1073 -0.3093
 2947W        W 6466   3.131   3.068   8.947 -0.2136  0.1329 -0.1156
 2948W        W 6467   1.822   0.622  11.447  0.0761  0.0616  0.1591
 2949W        W 6468   5.752   2.540   2.830  0.0902  0.1336  0.4818
 2950W        W 6469   2.381   9.360  10.783  0.0033  0.2194 -0.0788
 2951W        W 6470   9.477   0.502  10.387 -0.1546  0.0884  0.1816
 2952W        W 6471   5.256   7.304  10.790  0.1978  0.0009 -0.1497
 2953W        W 6472   8.513   2.997   9.304 -0.1499 -0.2603 -0.0488
 2954W        W 6473   2.027   7.664   2.397  0.2295 -0.1830 -0.1019
 2955W        W 6474   4.606   2.242  10.978 -0.1075 -0.0874  0.3113
 2956W        W 6475   2.598   5.229   8.780  0.1560  0.0746 -0.1805
 2957W        W 6476   9.083   6.378   0.410 -0.1297  0.1924 -0.0722
 2958W        W 6477   8.374   8.566  11.917  0.1123 -0.0682  0.3411
 2959W        W 6478   6.911   2.664   2.691 -0.0369  0.2678  0.1630
 2960W        W 6479   9.795   9.010  11.899 -0.2088 -0.0899  0.2767
 2961W        W 6480   7.934   0.544   3.527  0.0614 -0.0440  0.2492
 2962W        W 6481   9.728   0.648   9.975  0.1240  0.2912  0.1434
 2963W        W 6482   2.749   2.207   2.349 -0.1169 -0.0346 -0.3038
 2964W        W 6483   0.943   0.920   8.261  0.0476  0.0750  0.0751
 2965W        W 6484   7.877   6.471   1.066 -0.1716 -0.1945 -0.0293
 2966W        W 6485   6.328   0.199   9.638  0.1745  0.0790  0.4012
 2967W        W 6486   6.648   0.607   8.780 -0.0787 -0.1406 -0.0198
 2968W        W 6487   7.542   2.968   2.168  0.0551 -0.0770  0.5149
 2969W        W 6488   5.462   7.823   1.751  0.0086  0.0702 -0.0885
 2970W        W 6489   0.568   0.822  11.755 -0.2475  0.1870 -0.0398
 2971W        W 6490   2.670   9.524  11.786 -0.1329 -0.1483 -0.3056
 2972W        W 6491   6.652   9.733   9.775  0.0525 -0.1022  0.0886
 2973W        W 6492   7.686   6.561   1.870  0.1938  0.3751 -0.0498
 2974W        W 6493   3.902   7.159  10.504 -0.1005 -0.0157 -0.0445
 2975W        W 6494   2.416   1.280   2.565  0.3913 -0.0516 -0.0578
 2976W        W 6495   1.241   6.029  10.702 -0.0165 -0.1840  0.3017
 2977W        W 6496   2.821   7.621  11.645  0.2850 -0.2217 -0.0429
 2978W        W 6497   1.904   4.064  10.702  0.1734  0.4014 -0.0195
 2979W        W 6498   7.510   3.446   0.780 -0.1258 -0.2307  0.2212
 2980W        W 6499   7.140   0.403   1.379  0.0487  0.1139 -0.0908
 2981W        W 6500   9.144   5.899   2.134  0.0198 -0.0858  0.1912
 2982W        W 6501   0.217   3.140  10.134  0.0309 -0.4709 -0.2592
 2983W        W 6502   2.755   1.187  11.110  0.0620 -0.0331  0.0041
 2984W        W 6503   0.718   6.399   1.242 -0.2282  0.1846  0.0429
 2985W        W 6504   4.784   0.914   9.319 -0.1013  0.0832  0.0688
 2986W        W 6505   5.558   7.881  10.770  0.1705 -0.1446  0.1960
 2987W        W 6506   9.034   5.114   1.953 -0.2703 -0.0006  0.1619
 2988W        W 6507   1.680   7.684   0.197  0.1046 -0.2074  0.0174
 2989W        W 6508   1.886   6.748   1.837 -0.0738  0.2359  0.3369
 2990W        W 6509   0.683   0.251   2.990 -0.2352 -0.0117 -0.0675
 2991W        W 6510   3.391   4.375   9.171  0.2144  0.1341  0.0714
 2992W        W 6511   5.184   4.368   3.854 -0.0713  0.4326  0.3001
 2993W        W 6512   1.317   2.815  10.685  0.0052  0.0878 -0.0659
 2994W        W 6513   9.800   6.108   9.635  0.0731  0.1305 -0.0598
 2995W        W 6514   1.943   2.182  11.236 -0.0683  0.1345 -0.1866
 2996W        W 6515   2.532   2.654   1.152  0.1215  0.3296 -0.1550
 2997W        W 6516   7.939   9.180   8.692  0.1535 -0.1504  0.1233
 2998W        W 6517   6.479   9.806   0.668 -0.1397 -0.1145 -0.0231
 2999W        W 6518   0.671   9.513   8.128 -0.0257 -0.0130  0.2723
 3000W        W 6519   2.391   2.310   1.822  0.1197  0.1030  0.0253
 3001W        W 6520   8.712   1.319   1.883  0.1207 -0.2928 -0.3123
 3002W        W 6521   7.094   9.769   0.670  0.0758 -0.1734  0.3625
 3003W        W 6522   5.643   6.818   0.956  0.2194  0.1093 -0.1595
 3004W        W 6523   8.195   2.849  11.786  0.1365 -0.0011 -0.0006
 3005W        W 6524   2.874   7.606  10.283 -0.0833  0.0999  0.1061
 3006W        W 6525   7.264   5.395   2.458  0.1985 -0.3988 -0.0868
 3007W        W 6526   5.393   0.279  10.846  0.0178 -0.0457  0.1078
 3008W        W 6527   9.900   8.981   8.460  0.2559 -0.1411 -0.2410
 3009W        W 6528   8.292   9.082  11.126 -0.2211  0.2444 -0.1971
 3010W        W 6529   1.898   8.133   0.047  0.2000  0.1445 -0.0307
 3011W        W 6530   8.728   9.915  11.449  0.0297  0.0288 -0.0008
 3012W        W 6531   8.265   5.748  10.327 -0.1210 -0.1835 -0.0510
 3013W        W 6532   0.926   4.066   1.819  0.0265 -0.2378 -0.1012
 3014W        W 6533   2.173   1.710   3.210  0.0124 -0.0678  0.2262
 3015W        W 6534   2.954   4.259   3.592 -0.1926  0.3504 -0.1320
 3016W        W 6535   1.602   7.403   3.326 -0.1175  0.2982 -0.1289
 3017W        W 6536   1.995   9.001  10.650  0.0473  0.2505 -0.0180
 3018W        W 6537   0.525   3.547   2.518 -0.4083  0.2842 -0.1204
 3019W        W 6538   2.318   9.731   1.983 -0.1475  0.0865  0.1781
 3020W        W 6539   3.288   6.571   1.719  0.0577 -0.0029 -0.0214
 3021W        W 6540   2.092   0.872   3.246 -0.2472 -0.0138 -0.0783
 3022W        W 6541   0.065   9.503   0.043 -0.1854 -0.2443 -0.1097
 3023W        W 6542   8.426   8.673   0.801 -0.1013  0.4050  0.1598
 3024W        W 6543   4.188   7.510  11.193 -0.0950 -0.0570  0.0386
 3025W        W 6544   6.597   7.679   8.718  0.2151  0.1239 -0.1457
 3026W        W 6545   3.811   5.355  10.729  0.1643 -0.1887  0.2244
 3027W        W 6546   7.486   8.058   0.913  0.0766  0.0488 -0.0695
 3028W        W 6547   1.477   0.769   0.035 -0.0983 -0.0075 -0.2559
 3029W        W 6548   2.929   5.506   5.132 -0.0218  0.0630 -0.2166
 3030W        W 6549   0.664   5.922   2.024  0.3516  0.0249 -0.0707
 3031W        W 6550   6.152   3.014   3.804 -0.0873  0.0569 -0.1719
 3032W        W 6551   1.435   3.213   2.293  0.0370  0.2063  0.3623
 3033W        W 6552   6.743   3.829   8.822 -0.2850 -0.3842  0.0448
 3034W        W 6553   6.428   5.189  11.887  0.1518 -0.0618  0.1998
 3035W        W 6554   2.323   8.398  11.178 -0.0679 -0.2163 -0.0029
 3036W        W 6555   3.948   3.324   1.709 -0.0382  0.1979 -0.1184
 3037W        W 6556   2.080   8.731   0.017  0.4780 -0.4168  0.0917
 3038W        W 6557   9.364   8.023  10.410  0.0987 -0.1150 -0.1101
 3039W        W 6558   7.681   6.120   8.916  0.0586  0.0273 -0.1573
 3040W        W 6559   6.129   9.610   9.053 -0.2126  0.2907 -0.1792
 3041W        W 6560   3.614   6.038  11.205  0.2842 -0.1599 -0.2824
 3042W        W 6561   6.144   3.348  11.691 -0.2239  0.0988  0.0919
 3043W        W 6562   4.607   6.498  11.005 -0.0058 -0.1799  0.0248
 3044W        W 6563   6.307   0.361   9.118  0.0528  0.0336 -0.0551
 3045W        W 6564   4.262   3.037   8.588  0.1208  0.1493  0.0004
 3046W        W 6565   0.052   0.822   9.575 -0.0092 -0.0456  0.4422
 3047W        W 6566   5.968   9.520   0.423 -0.3896  0.2344  0.2024
 3048W        W 6567   7.515   8.584   9.848 -0.0535 -0.1058 -0.0547
 3049W        W 6568   7.989   3.927   8.230  0.0170 -0.4673  0.0639
 3050W        W 6569   9.907   7.950  10.443 -0.0521  0.1833 -0.0313
 3051W        W 6570   4.816   2.651   3.146  0.2076 -0.1136  0.5061
 3052W        W 6571   4.224   0.165  11.202  0.0285 -0.0602 -0.1730
 3053W        W 6572   2.688   7.945   2.131  0.1822  0.0899 -0.0080
 3054W        W 6573   1.410   0.872  11.326  0.0920  0.0671  0.2142
 3055W        W 6574   7.000   8.653  11.791 -0.0436  0.2490  0.1698
 3056W        W 6575   6.331   8.153   3.262  0.3360 -0.0768 -0.0292
 3057W        W 6576   6.142   2.603   7.353  0.1302 -0.1808 -0.1634
 3058W        W 6577   4.964   2.638   8.305 -0.0089  0.1176  0.0907
 3059W        W 6578   3.718   0.505   0.401  0.0217  0.3736 -0.0576
 3060W        W 6579   8.562   0.622   1.313  0.1432  0.0815 -0.3058
 3061W        W 6580   3.039   1.616   9.931 -0.2883  0.0804  0.1876
 3062W        W 6581   5.300   5.592   8.690  0.4220  0.4513  0.0870
 3063W        W 6582   7.487   4.136   0.595 -0.0098 -0.1557  0.1045
 3064W        W 6583   6.823   2.585  11.943  0.0142  0.2300 -0.3509
 3065W        W 6584   5.719   6.507   0.588 -0.1337 -0.0333 -0.0458
 3066W        W 6585   3.294   7.563   8.334 -0.0686  0.1451 -0.1721
 3067W        W 6586   3.933   3.571  11.553  0.2581  0.0387  0.0023
 3068W        W 6587   5.815   4.014  11.103 -0.2018  0.0885  0.3446
 3069W        W 6588   8.645   2.695   8.508 -0.0673 -0.0560  0.1646
 3070W        W 6589   5.984   3.015   9.045 -0.1828  0.1650  0.2859
 3071W        W 6590   8.085   3.129   1.505  0.1122 -0.0890  0.0508
 3072W        W 6591   0.966   0.661   0.493  0.3046 -0.0241  0.3342
 3073W        W 6592   5.403   1.408   8.711  0.2253  0.2376  0.0771
 3074W        W 6593   5.112   5.009   1.956  0.1848  0.0569  0.1975
 3075W        W 6594   2.898   0.442   2.625  0.1316 -0.2026 -0.0790
 3076W        W 6595   0.971   7.653   9.176  0.4389 -0.0958 -0.1088
 3077W        W 6596   7.658   2.749   0.015  0.0744  0.0005 -0.0336
 3078W        W 6597   3.121   1.230   1.484  0.0292 -0.0456  0.1738
 3079W        W 6598   0.491   6.824   9.120  0.1391  0.1058  0.2664
 3080W        W 6599   8.453   1.735   1.752  0.0340  0.2443  0.3089
 3081W        W 6600   8.497   9.612   1.156  0.1077 -0.0265  0.0712
 3082W        W 6601   9.265   8.989   0.028 -0.0864  0.2405 -0.1939
 3083W        W 6602   1.016   0.650  11.937 -0.0748  0.2218 -0.0178
 3084W        W 6603   9.001   6.862   2.563  0.0549  0.0845  0.0865
 3085W        W 6604   4.410   5.486  10.144 -0.1199  0.1643 -0.2035
 3086W        W 6605   2.986   2.394   3.168 -0.2098 -0.0990  0.1505
 3087W        W 6606   1.926   6.833   0.384  0.0834 -0.0252 -0.3323
 3088W        W 6607   8.851   8.161   8.985  0.0999 -0.0661 -0.0775
 3089W        W 6608   8.260   4.853   2.142 -0.4078  0.1002  0.0323
 3090W        W 6609   5.891   8.946   8.639  0.2250  0.0864  0.2323
 3091W        W 6610   4.637   5.199  10.897  0.1975  0.0807 -0.1367
 3092W        W 6611   5.425   0.028   1.748 -0.2811 -0.0094  0.2369
 3093W        W 6612   8.264   7.226   7.659 -0.0235 -0.1727  0.2347
 3094W        W 6613   0.027   0.664  11.028 -0.0494 -0.0154  0.0765
 3095W        W 6614   9.396   1.286   0.136  0.1681  0.2276 -0.1016
 3096W        W 6615   7.298   7.020  11.559 -0.0710 -0.2171  0.1644
 3097W        W 6616   2.982   7.597   3.370  0.0764  0.0596 -0.1420
 3098W        W 6617   7.592   4.318   0.159 -0.1024 -0.0612 -0.1643
 3099W        W 6618   6.795   3.856   0.550  0.0346  0.0183  0.2466
 3100W        W 6619   9.282   3.357   9.461  0.4102 -0.1044  0.1455
 3101W        W 6620   0.797   2.702   2.173  0.0095 -0.0007 -0.2510
 3102W        W 6621   0.014   0.716   2.771 -0.1051 -0.0294 -0.1770
 3103W        W 6622   2.971   5.961   8.509 -0.0106  0.0914  0.2916
 3104W        W 6623   1.298   1.829   1.198 -0.1817 -0.2102 -0.1641
 3105W        W 6624   9.383   7.100   8.116  0.0665  0.3094  0.1107
 3106W        W 6625   1.710   2.719   1.810 -0.0471  0.0769 -0.0403
 3107W        W 6626   6.018   5.335   2.452  0.3092 -0.0090 -0.2117
 3108W        W 6627   3.081   9.412   0.698  0.2938 -0.0362 -0.0806
 3109W        W 6628   0.937   7.507   1.401  0.2636 -0.0620  0.0213
 3110W        W 6629   7.429   6.506  11.589 -0.0059  0.2138  0.1474
 3111W        W 6630   7.268   3.918   1.518  0.0087 -0.0616  0.0311
 3112W        W 6631   0.700   4.533   1.961  0.2254 -0.0784 -0.0024
 3113W        W 6632   7.210   7.507  11.420 -0.1499  0.2282 -0.2098
 3114W        W 6633   4.482   6.847   4.068 -0.1262 -0.0582  0.2488
 3115W        W 6634   7.092   0.424   8.687  0.0535  0.2968 -0.2890
 3116W        W 6635   7.134   9.328   9.977 -0.1506 -0.1472 -0.1348
 3117W        W 6636   1.599   4.874  11.538 -0.2945  0.1319 -0.1603
 3118W        W 6637   2.181   5.539   0.741  0.2260 -0.1965  0.1254
 3119W        W 6638   9.477   8.620  10.508  0.2982 -0.1943  0.2217
 3120W        W 6639   6.907   2.135   8.284 -0.0783 -0.1618  0.4169
 3121W        W 6640   5.837   7.289   0.122  0.1280  0.1426  0.2786
 3122W        W 6641   8.404   5.339   8.101 -0.0609 -0.2069 -0.4915
 3123W        W 6642   1.361   5.294  10.793  0.2270 -0.0323 -0.1750
 3124W        W 6643   8.092   6.871  11.272 -0.0836  0.0081  0.3489
 3125W        W 6644   2.047   2.274   8.234  0.1053 -0.2279  0.1869
 3126W        W 6645   0.747   6.393  10.126  0.0965 -0.4893 -0.3089
 3127W        W 6646   2.259   5.378   2.499  0.1022 -0.0162  0.2986
 3128W        W 6647   1.355   0.344   0.261 -0.0631 -0.0038 -0.0968
 3129W        W 6648   6.134   0.687   9.659 -0.1057 -0.2075 -0.0436
 3130W        W 6649   8.795   2.467  11.303  0.1490  0.0944  0.1833
 3131W        W 6650   2.537   2.967   3.910  0.0796 -0.0581  0.1301
 3132W        W 6651   9.070   2.501   8.899  0.1759  0.0187 -0.4571
 3133W        W 6652   0.859   1.127   7.361 -0.1235 -0.0621 -0.2160
 3134W        W 6653   1.105   6.193   1.700  0.2089 -0.1139 -0.0492
 3135W        W 6654   3.351   2.354   0.788  0.3931 -0.1051 -0.2489
 3136W        W 6655   7.654   9.759   1.685 -0.1002  0.0920  0.2678
 3137W        W 6656   8.326   8.091   7.869 -0.0991  0.1786  0.3050
 3138W        W 6657   5.065   9.885  10.519  0.1915 -0.0428 -0.0758
 3139W        W 6658   1.238   0.368   3.320  0.2518 -0.0242 -0.0794
 3140W        W 6659   9.722   5.997   0.043 -0.4477  0.1202  0.0321
 3141W        W 6660   8.416   9.280   8.641 -0.0805  0.1458  0.0872
 3142W        W 6661   4.285   2.477   0.723 -0.2539  0.1025  0.0826
 3143W        W 6662   3.217   5.044   3.966  0.0179  0.0089 -0.2713
 3144W        W 6663   7.863   0.034   9.896 -0.0890  0.1779 -0.4270
 3145W        W 6664   6.476   8.609   0.063 -0.1220 -0.0838 -0.1975
 3146W        W 6665   9.689   5.868   8.272 -0.3565  0.1160  0.1474
 3147W        W 6666   9.339   5.878   7.144  0.0360 -0.4319  0.2730
 3148W        W 6667   5.788   0.243  10.575  0.0721  0.1657 -0.1766
 3149W        W 6668   4.391   6.338   1.509 -0.1683  0.0997 -0.0868
 3150W        W 6669   3.223   6.038  10.863 -0.0367  0.2546  0.2244
 3151W        W 6670   3.286   0.224   3.720  0.0587 -0.0302  0.0540
 3152W        W 6671   8.162   3.471   8.055  0.3007  0.0117  0.1327
 3153W        W 6672   9.574   1.182   8.599  0.0209 -0.3412  0.3018
 3154W        W 6673   4.374   2.111   1.926  0.0673  0.0299 -0.1480
 3155W        W 6674   6.862   2.978   8.575 -0.1009  0.1162 -0.1664
 3156W        W 6675   9.505   1.502   2.108  0.0476  0.2588  0.0762
 3157W        W 6676   7.282   2.270   7.966 -0.0871 -0.1057 -0.0818
 3158W        W 6677   1.171   3.197   9.405  0.2379 -0.2728 -0.2381
 3159W        W 6678   3.320   9.228  10.970  0.2263  0.0603 -0.0399
 3160W        W 6679   3.389   5.854   3.440 -0.6218 -0.2617  0.0091
 3161W        W 6680   9.033   3.735   9.696 -0.1363 -0.1969  0.0429
 3162W        W 6681   8.050   3.404   9.592 -0.1274 -0.2442 -0.2082
 3163W        W 6682   9.661   6.019  10.906 -0.2093 -0.2756  0.1717
 3164W        W 6683   6.815   4.174   0.076  0.2237  0.1795 -0.2275
 3165W        W 6684   0.758   8.261   7.184  0.1683  0.1025  0.0898
 3166W        W 6685   9.369   7.818   8.239 -0.2057 -0.1384 -0.1013
 3167W        W 6686   2.364   9.671   0.269  0.3294  0.1663 -0.0167
 3168W        W 6687   8.485   9.432  11.528 -0.0252 -0.2353  0.0580
 3169W        W 6688   9.112   3.422   3.648  0.3163  0.2120  0.2383
 3170W        W 6689   0.919   3.196   0.209 -0.1018  0.0181 -0.2871
 3171W        W 6690   3.351   6.534   3.484 -0.2030 -0.3139  0.0368
 3172W        W 6691   0.291   9.576  10.953 -0.4203  0.0652 -0.1106
 3173W        W 6692   3.651   0.113   0.039  0.1253 -0.3594  0.0028
 3174W        W 6693   0.259   5.914   8.090  0.3924  0.1020 -0.0159
 3175W        W 6694   4.229   6.553   0.403  0.3033  0.0365 -0.0810
 3176W        W 6695   8.837   2.211   2.491 -0.0882  0.0498 -0.1212
 3177W        W 6696   3.706   8.620   8.562  0.1910  0.0111  0.0209
 3178W        W 6697   6.185   9.933   2.717  0.1928 -0.4308  0.0589
 3179W        W 6698   7.284   4.187   2.379 -0.1806  0.1704  0.1145
 3180W        W 6699   2.246   8.810   1.997 -0.1140 -0.4355 -0.0522
 3181W        W 6700   1.023   4.799   8.972  0.0195  0.2816 -0.0213
 3182W        W 6701   6.291   9.049   9.094  0.0535 -0.1980  0.0178
 3183W        W 6702   4.590   3.981   1.909 -0.2176  0.0731  0.0845
 3184W        W 6703   7.473   9.252  11.706  0.3243 -0.0551  0.0593
 3185W        W 6704   1.710   6.207  10.910  0.1904 -0.0411  0.1414
 3186W        W 6705   3.360   4.202   9.645 -0.2123 -0.3008  0.0524
 3187W        W 6706   3.502   3.246  11.701 -0.3307  0.2605  0.2865
 3188W        W 6707   8.091   5.427   8.508 -0.3215 -0.1511  0.1230
 3189W        W 6708   7.036   9.731   2.973 -0.0505 -0.1611  0.1079
 3190W        W 6709   2.433   4.523   9.979  0.1224  0.1198  0.0894
 3191W        W 6710   4.051   2.552  10.977 -0.0638 -0.1540  0.1790
 3192W        W 6711   8.136   5.859   3.189 -0.1201  0.2575 -0.0637
 3193W        W 6712   8.227   6.254   0.774  0.1317  0.1563 -0.1725
 3194W        W 6713   9.819   8.951  10.225 -0.0492 -0.1562 -0.2907
 3195W        W 6714   1.268   9.815  11.482 -0.1745  0.4706 -0.1270
 3196W        W 6715   1.218   7.900  11.072 -0.0707  0.0655  0.1014
 3197W        W 6716   1.563   1.648   0.083 -0.0709 -0.2801 -0.1131
 3198W        W 6717   0.134   6.446   3.239 -0.1629  0.1294 -0.1839
 3199W        W 6718   4.882   0.697   2.137 -0.2103  0.0735  0.0604
 3200W        W 6719   2.833   9.942  10.954  0.1825 -0.3337 -0.0356
 3201W        W 6720   9.923   1.985   2.848  0.3619  0.3310 -0.1542
 3202W        W 6721   5.268   1.142  11.202 -0.1271  0.0140  0.1170
 3203W        W 6722   2.654   5.086   2.286 -0.0524 -0.1454 -0.0162
 3204W        W 6723   0.299   1.344   9.161 -0.0273  0.0088  0.0139
 3205W        W 6724   6.023   1.077   3.300 -0.3365  0.2719 -0.2301
 3206W        W 6725   5.950   7.803  10.338 -0.3395 -0.1385  0.0454
 3207W        W 6726   4.651   5.399   3.423 -0.0474  0.0464  0.1062
 3208W        W 6727   6.241   9.760   2.257 -0.0048 -0.1065 -0.2560
 3209W        W 6728   2.817   3.920   0.498  0.2892  0.0318  0.1847
 3210W        W 6729   2.588   1.841   9.809 -0.0115  0.1187  0.0866
 3211W        W 6730   0.255   1.838  11.776  0.3738  0.1371 -0.0050
 3212W        W 6731   5.852   2.239   2.323 -0.0396  0.1524 -0.0727
 3213W        W 6732   5.629   4.444   8.454 -0.1387 -0.0409  0.3974
 3214W        W 6733   6.915   6.227   2.162  0.3229  0.1841  0.0846
 3215W        W 6734   1.215   9.197   2.923 -0.0275  0.0706 -0.3668
 3216W        W 6735   4.297   3.067   2.147  0.1133 -0.0860 -0.4333
 3217W        W 6736   2.319   1.410  11.328 -0.0194 -0.0457 -0.3030
 3218W        W 6737   7.842   8.948   2.365  0.2000  0.2475 -0.0629
 3219W        W 6738   8.215   2.690   1.269 -0.1346  0.0599  0.0264
 3220W        W 6739   9.040   4.685  11.783 -0.2629 -0.1133  0.2046
 3221W        W 6740   3.873   5.097   0.152 -0.3886 -0.0122 -0.1087
 3222W        W 6741   8.841   7.031  10.328 -0.0705 -0.2585 -0.0916
 3223W        W 6742   1.008   3.675  11.406  0.3376 -0.0989 -0.0766
 3224W        W 6743   3.136   1.984   1.358  0.0618  0.0722 -0.0515
 3225W        W 6744   0.244   5.706   1.889  0.4394 -0.0311  0.4843
 3226W        W 6745   7.755   6.515   0.079  0.0719  0.0867 -0.2030
 3227W        W 6746   5.201   9.026  10.887  0.0855  0.3034  0.0921
 3228W        W 6747   7.579   4.221   2.009  0.0369 -0.3977  0.3571
 3229W        W 6748   8.611   4.775   1.810 -0.1041  0.0531 -0.0845
 3230W        W 6749   4.927   6.073   9.709  0.2091  0.1076 -0.0257
 3231W        W 6750   3.770   2.648   3.108  0.0548 -0.0036 -0.1308
 3232W        W 6751   7.238   1.039   1.328  0.1205  0.1363  0.1443
 3233W        W 6752   2.961   5.363   9.195 -0.0032 -0.0157  0.1106
 3234W        W 6753   6.226   2.046   8.893 -0.1492  0.2992  0.2168
 3235W        W 6754   0.449   4.943   3.114  0.2499  0.0823  0.0973
 3236W        W 6755   8.480   0.773   1.793 -0.1902 -0.0999 -0.2731
 3237W        W 6756   4.695   9.796   1.075  0.0818  0.1063  0.2304
 3238W        W 6757   9.026   6.562   9.439 -0.0473 -0.1225 -0.2796
 3239W        W 6758   6.580   4.648  10.594 -0.5647  0.2131  0.1263
 3240W        W 6759   1.286   7.582   0.459 -0.1164 -0.0032 -0.0463
 3241W        W 6760   7.341   1.122   2.520  0.2561 -0.1290  0.0366
 3242W        W 6761   2.100   9.807   8.341  0.3066 -0.2709 -0.0626
 3243W        W 6762   5.670   5.773   7.384  0.0409  0.2176 -0.2031
 3244W        W 6763   9.139   3.379   2.663 -0.0917 -0.2124 -0.3018
 3245W        W 6764   5.228   3.546  11.650  0.0038 -0.0139  0.0724
 3246W        W 6765   7.858   1.011   0.603 -0.2828  0.0043  0.0461
 3247W        W 6766   7.393   7.473   2.386 -0.1584  0.2016 -0.1247
 3248W        W 6767   3.484   3.382  10.785 -0.1824 -0.0921  0.0003
 3249W        W 6768   9.089   2.848  10.046  0.1668  0.0774  0.2574
 3250W        W 6769   7.376   6.940   0.134  0.0495 -0.2737  0.2230
 3251W        W 6770   4.812   4.582   1.981 -0.1800  0.0136  0.4937
 3252W        W 6771   1.120   8.000   0.515  0.1210  0.0222  0.1121
 3253W        W 6772   1.266   6.465   1.167  0.2317  0.2946  0.0738
 3254W        W 6773   5.678   7.127  11.088  0.0767 -0.2883 -0.0280
 3255W        W 6774   5.437   4.290   0.345 -0.0312  0.0209  0.1108
 3256W        W 6775   6.324   3.544   1.740 -0.1983  0.0007  0.5344
 3257W        W 6776   9.935   0.560   3.648  0.1608  0.2887 -0.1694
 3258W        W 6777   6.458   4.567   1.440  0.0364 -0.1762 -0.2092
 3259W        W 6778   1.121   3.155  11.346  0.0192  0.1029 -0.1515
 3260W        W 6779   2.678   2.618   2.714  0.0572  0.4570  0.2379
 3261W        W 6780   2.249   1.638   1.342  0.0791  0.1716  0.1068
 3262W        W 6781   6.014   6.929  11.333  0.0262  0.1262 -0.0294
 3263W        W 6782   2.636   9.532  10.367  0.0566 -0.1668  0.0058
 3264W        W 6783   0.417   1.321   2.248 -0.1163 -0.2246 -0.3607
 3265W        W 6784   2.760   6.695  11.009  0.1863 -0.1168  0.0303
 3266W        W 6785   3.009   6.182   7.976  0.1484 -0.0914 -0.1409
 3267W        W 6786   2.111   3.056   8.982  0.1831 -0.1524  0.4291
 3268W        W 6787   7.630   4.483  11.650  0.1174 -0.0960  0.0956
 3269W        W 6788   5.365   3.771   0.121  0.0791 -0.0207  0.3390
 3270W        W 6789   0.899   0.333   1.264  0.1441  0.0368  0.0168
 3271W        W 6790   1.741   1.831   4.138 -0.0062  0.0508 -0.0252
 3272W        W 6791   5.369   6.903  11.436 -0.1733 -0.1851 -0.1316
 3273W        W 6792   5.531   5.509   0.334  0.4279  0.2875 -0.0538
 3274W        W 6793   2.095   8.450   2.687 -0.1311  0.1673  0.0022
 3275W        W 6794   0.031   1.512   1.279 -0.0461  0.2220 -0.2336
 3276W        W 6795   3.005   1.273   9.214 -0.1427 -0.2414 -0.2269
 3277W        W 6796   1.250   0.913   3.172  0.1522  0.0608 -0.0984
 3278W        W 6797   0.181   9.831   8.391 -0.2373  0.1498  0.1833
 3279W        W 6798   9.169   3.229   0.892 -0.2753  0.0688  0.0136
 3280W        W 6799   7.845   0.659  11.146 -0.3975 -0.1610 -0.1607
 3281W        W 6800   7.956   8.621  11.285  0.3142 -0.1509 -0.1619
 3282W        W 6801   1.632   1.989   8.340  0.1780 -0.1357  0.4197
 3283W        W 6802   3.023   9.881  11.522  0.0221 -0.1162 -0.2489
 3284W        W 6803   3.635   0.402   7.978  0.4117  0.3200  0.0923
 3285W        W 6804   0.636   4.474  11.862 -0.2193  0.0316  0.2477
 3286W        W 6805   8.112   6.427   3.262  0.0762  0.1268  0.3136
 3287W        W 6806   8.069   8.814  10.748 -0.0861 -0.1692  0.0721
 3288W        W 6807   3.510   2.932  11.013 -0.1861  0.0042  0.2160
 3289W        W 6808   9.858   8.699   9.806 -0.1476 -0.1739  0.0977
 3290W        W 6809   6.483   6.920   8.081  0.1439 -0.0248  0.2576
 3291W        W 6810   7.458   3.876  10.614  0.1404  0.4354  0.0912
 3292W        W 6811   7.244   1.513  11.721  0.0471 -0.1985  0.1995
 3293W        W 6812   8.518   4.181   0.169  0.0603 -0.1545 -0.4476
 3294W        W 6813   1.109   1.565  11.869 -0.0823 -0.0646  0.1450
 3295W        W 6814   2.587   5.374   9.553 -0.3440 -0.2956 -0.1440
 3296W        W 6815   3.577   5.742  10.541 -0.0237  0.4683  0.0986
 3297W        W 6816   3.437   2.674  11.763  0.0626  0.0006  0.1948
 3298W        W 6817   6.812   3.702   8.025  0.3577 -0.2351 -0.2280
 3299W        W 6818   3.371   1.301   8.496  0.0107 -0.3950 -0.4454
 3300W        W 6819   8.603   1.394   1.172 -0.3427 -0.0251  0.0337
 3301W        W 6820   0.517   8.139   2.081 -0.0183 -0.0192  0.0790
 3302W        W 6821   1.603   0.032   3.181 -0.0370  0.2703 -0.2294
 3303W        W 6822   9.261   0.261   9.892  0.1509  0.0941  0.0129
 3304W        W 6823   9.096   8.944  11.514 -0.1524 -0.1449 -0.4504
 3305W        W 6824   3.202   2.191   0.195  0.1414 -0.0109  0.1640
 3306W        W 6825   2.396   0.078   7.918  0.3177 -0.0243 -0.1493
 3307W        W 6826   1.861   3.627   1.086 -0.2618  0.2270  0.1486
 3308W        W 6827   9.883   5.695   0.823 -0.0838 -0.0304 -0.0762
 3309W        W 6828   7.579   7.579  10.599  0.0375 -0.0018  0.2056
 3310W        W 6829   4.978   7.870  11.593 -0.1996  0.1820 -0.1596
 3311W        W 6830   8.505   7.694  10.870 -0.5562  0.1424  0.2358
 3312W        W 6831   7.989   6.428   7.721  0.0357  0.0483  0.1854
 3313W        W 6832   0.987   5.523  10.021 -0.0041 -0.1306  0.1717
 3314W        W 6833   7.826   5.004   2.201  0.1967 -0.2891  0.1870
 3315W        W 6834   0.799   2.389   8.289  0.1974  0.1141  0.1753
 3316W        W 6835   7.910   4.734   2.705  0.1565 -0.1385  0.0672
 3317W        W 6836   7.832   4.332   9.858  0.2141  0.2406  0.3256
 3318W        W 6837   2.736   4.005   4.110  0.0285 -0.1614 -0.2010
 3319W        W 6838   7.849   4.028  11.539  0.0512  0.3624 -0.1282
 3320W        W 6839   9.750   9.187  10.822  0.1849 -0.3942  0.1621
 3321W        W 6840   3.280   7.191   3.071  0.5642  0.4247 -0.0771
 3322W        W 6841   4.197   7.571   8.748 -0.3166  0.3619  0.1705
 3323W        W 6842   7.631   9.883   9.253 -0.0271 -0.0175 -0.1560
 3324W        W 6843   6.747   4.767   8.509  0.3535  0.0202  0.0667
 3325W        W 6844   0.463   5.385  11.810  0.2237 -0.1850 -0.2315
 3326W        W 6845   6.935   2.414   0.465  0.1653 -0.3848  0.2866
 3327W        W 6846   2.734   3.055   1.498 -0.2753  0.1245  0.3572
 3328W        W 6847   4.545   6.715   3.570 -0.0184 -0.2206  0.2869
 3329W        W 6848   9.237   4.046   3.152 -0.1221 -0.0415  0.0620
 3330W        W 6849   6.229   6.525   3.168  0.1835  0.1786 -0.2154
 3331W        W 6850   1.950   3.503   0.584 -0.3837  0.2520  0.1306
 3332W        W 6851   0.029   8.797   2.597 -0.2783  0.0703 -0.2172
 3333W        W 6852   4.082   6.192  11.290  0.1417 -0.3660 -0.1000
 3334W        W 6853   3.697   8.136   0.446 -0.1156  0.0425 -0.5378
 3335W        W 6854   9.144   2.537  10.848  0.3063 -0.1537 -0.3219
 3336W        W 6855   8.618   1.232   8.811  0.1778  0.2640 -0.2101
 3337W        W 6856   5.320   9.909   9.131 -0.0217 -0.1524  0.4038
 3338W        W 6857   1.311   7.493  10.795 -0.1594 -0.0232  0.2793
 3339W        W 6858   9.612   1.988   2.374 -0.0350 -0.2527  0.1330
 3340W        W 6859   4.067   2.859   2.694 -0.3707  0.5824  0.2670
 3341W        W 6860   2.206   6.217   0.626 -0.0431 -0.3085  0.0982
 3342W        W 6861   2.059   5.491   9.403  0.1618 -0.0751 -0.2408
 3343W        W 6862   8.343   3.743   2.974 -0.0821 -0.2206  0.1296
 3344W        W 6863   2.997   7.565   0.954 -0.1214 -0.4651 -0.2718
 3345W        W 6864   2.386   6.652   2.481 -0.0407 -0.0273  0.2226
 3346W        W 6865   8.653   1.107  10.614  0.2116  0.3432  0.0117
 3347W        W 6866   1.948   5.168   9.048 -0.0795 -0.1252  0.0504
 3348W        W 6867   8.663   0.278  10.036 -0.4190 -0.0583 -0.2599
 3349W        W 6868   2.370   3.539   0.940 -0.0812  0.0617 -0.3395
 3350W        W 6869   5.811   3.820   1.413  0.2498  0.1965  0.1094
 3351W        W 6870   0.976   3.567   8.553 -0.3134 -0.0451  0.2489
 3352W        W 6871   0.519   2.748   8.454  0.1543  0.0155 -0.1593
 3353W        W 6872   5.661   6.369   8.160 -0.3345  0.1340 -0.0759
 3354W        W 6873   2.510   1.540   8.841 -0.1564  0.1026  0.1705
 3355W        W 6874   6.534   7.873   0.692  0.0275 -0.4571 -0.2854
 3356W        W 6875   1.499   7.971  10.590  0.0569  0.2033 -0.0781
 3357W        W 6876   9.673   3.092   8.141 -0.0637 -0.0382 -0.1983
 3358W        W 6877   9.283   2.024   7.755 -0.1206 -0.1390  0.0807
 3359W        W 6878   7.115   0.066   9.141  0.1574  0.0540 -0.0387
 3360W        W 6879   2.060   7.832   0.814  0.2102 -0.1900  0.0862
 3361W        W 6880   8.985   4.302   7.485  0.0897 -0.0662  0.2421
 3362W        W 6881   7.258   5.512   0.695 -0.1003  0.4481  0.0629
 3363W        W 6882   0.007   8.582   8.777  0.0274 -0.1247 -0.1084
 3364W        W 6883   4.839   5.036   3.144  0.1525 -0.2455  0.3249
 3365W        W 6884   1.846   5.527   2.735 -0.1682 -0.1381 -0.2157
 3366W        W 6885   5.984   3.692   0.106  0.5057 -0.0771  0.1162
 3367W        W 6886   2.869   2.853  10.079 -0.0054  0.2094 -0.0885
 3368W        W 6887   4.401   4.602   8.688  0.0461  0.2109  0.2331
 3369W        W 6888   9.309   4.299   1.410  0.0225 -0.0357  0.1443
 3370W        W 6889   8.478   2.007  11.179 -0.0940 -0.1128  0.1531
 3371W        W 6890   4.238   8.416  11.088  0.1924  0.0230 -0.1327
 3372W        W 6891   0.341   2.808  11.002  0.2021 -0.0556 -0.2694
 3373W        W 6892   5.754   4.443  10.900 -0.2652 -0.2403  0.1052
 3374W        W 6893   2.589   7.924  11.943  0.1723  0.1952  0.1073
 3375W        W 6894   5.232   7.715  11.083  0.2190  0.0150 -0.1391
 3376W        W 6895   5.472   3.516   2.838 -0.0132 -0.1403  0.0620
 3377W        W 6896   0.712   3.188   8.288 -0.0050 -0.0031  0.1588
 3378W        W 6897   7.375   9.000   3.220 -0.1736  0.1705 -0.2002
 3379W        W 6898   3.350   5.311  10.515  0.2576 -0.2013  0.0771
 3380W        W 6899   0.682   9.217   0.783  0.0899  0.1084  0.1098
 3381W        W 6900   4.375   2.458   8.436 -0.2044 -0.0235  0.0663
 3382W        W 6901   1.038   8.624   9.009  0.2828  0.0353 -0.0288
 3383W        W 6902   8.347   1.650   8.644 -0.0990 -0.2716 -0.1997
 3384W        W 6903   5.397   2.319   1.110  0.0520  0.1242  0.1856
 3385W        W 6904   1.978   0.057   1.174 -0.2396  0.0419 -0.1740
 3386W        W 6905   5.029   1.840   1.691  0.2764  0.1184 -0.2464
 3387W        W 6906   8.510   3.776   8.202 -0.0461 -0.0380  0.0490
 3388W        W 6907   7.892   5.348   1.850  0.2919  0.3160 -0.4357
 3389W        W 6908   9.330   0.312   0.308  0.0405  0.1361 -0.1663
 3390W        W 6909   7.805   8.675   3.046 -0.0124  0.0818 -0.0737
 3391W        W 6910   6.162   3.434   8.709  0.3477  0.0617 -0.1030
 3392W        W 6911   7.159   0.118  10.516  0.0100 -0.4151  0.1984
 3393W        W 6912   7.296   2.984   3.412 -0.2594  0.0859 -0.2765
 3394W        W 6913   1.414   1.322   0.669  0.2071  0.2806 -0.0473
 3395W        W 6914   2.448   3.965   2.982  0.0792 -0.0225 -0.0830
 3396W        W 6915   7.389   0.881   8.787  0.0178 -0.0311 -0.1808
 3397W        W 6916   6.335   0.005   7.875 -0.2316 -0.0181 -0.3066
 3398W        W 6917   8.307   5.599   2.795 -0.2506  0.1883 -0.0494
 3399W        W 6918   7.539   9.558   2.656 -0.3933 -0.0297  0.0382
 3400W        W 6919   5.665   6.124  10.930  0.2012  0.0080 -0.0208
 3401W        W 6920   7.967   2.620  10.283  0.0035 -0.0770 -0.1201
 3402W        W 6921   6.361   1.419   7.872  0.1803  0.1857 -0.1063
 3403W        W 6922   1.210   5.550   1.017  0.0934  0.1357 -0.0632
 3404W        W 6923   8.547   3.957   1.540 -0.0860  0.1723  0.0780
 3405W        W 6924   7.679   5.728   8.608 -0.0398 -0.0478  0.0100
 3406W        W 6925   5.527   6.159   1.456 -0.3781  0.2993  0.2223
 3407W        W 6926   3.017   1.998   9.614  0.1627 -0.0832  0.3006
 3408W        W 6927   8.008   1.841   2.249 -0.0291  0.1392 -0.1520
 3409W        W 6928   7.668   6.640  10.322  0.1911  0.2639 -0.3193
 3410W        W 6929   5.097   2.418  11.032  0.0762  0.0017 -0.1030
 3411W        W 6930   7.071   3.942   2.035  0.0724  0.0926 -0.0222
 3412W        W 6931   7.129   8.475   1.181 -0.0622  0.1510 -0.1967
 3413W        W 6932   6.138   3.141  10.793 -0.3720 -0.1808  0.0098
 3414W        W 6933   7.206   0.126   3.976 -0.2019  0.0293 -0.1347
 3415W        W 6934   0.667   3.809   3.536 -0.1867  0.2563 -0.2721
 3416W        W 6935   2.470   4.438   1.787  0.1934 -0.2919 -0.2169
 3417W        W 6936   0.586   7.518   2.410 -0.1531 -0.3695  0.1308
 3418W        W 6937   9.239   7.737   2.501  0.2732 -0.0375 -0.1352
 3419W        W 6938   6.021   6.907   2.467 -0.0488 -0.1958 -0.0898
 3420W        W 6939   8.741   8.074  10.746 -0.2200 -0.0167  0.5301
 3421W        W 6940   0.350   7.289  11.674 -0.2170 -0.1361 -0.2146
 3422W        W 6941   8.902   1.410   2.885  0.2645 -0.0384  0.0837
 3423W        W 6942   4.136   6.566  10.891  0.1557 -0.2491  0.1081
 3424W        W 6943   9.050   1.180   8.572 -0.0825 -0.0739  0.1945
 3425W        W 6944   2.079   6.253   1.860  0.2653  0.1201  0.4498
 3426W        W 6945   2.307   8.434  11.699 -0.0230 -0.0467 -0.0117
 3427W        W 6946   7.084   0.359   0.578  0.1969  0.2233  0.0890
 3428W        W 6947   1.663   9.803   0.825 -0.0647  0.0935  0.0821
 3429W        W 6948   0.469   3.028   2.461 -0.0195 -0.3155  0.1455
 3430W        W 6949   1.279   3.926  10.631  0.0019 -0.1485  0.1089
 3431W        W 6950   8.969   3.672   1.077  0.1072 -0.2100 -0.4912
 3432W        W 6951   6.194   4.187   9.608  0.1956  0.0951 -0.0919
 3433W        W 6952   8.987   7.672   8.912  0.0237 -0.0688  0.0556
 3434W        W 6953   6.306   8.808   1.009 -0.0615 -0.3009 -0.1548
 3435W        W 6954   1.294   9.846   0.425 -0.1538  0.0529 -0.0907
 3436W        W 6955   7.664   2.817   1.606  0.1343 -0.1163  0.1946
 3437W        W 6956   3.791   4.227   9.898 -0.0238  0.0563  0.0574
 3438W        W 6957   4.252   7.365  11.889 -0.2158  0.1339  0.0967
 3439W        W 6958   1.558   8.695   1.454 -0.2770 -0.2685  0.0046
 3440W        W 6959   6.683   1.040   8.082  0.0247 -0.1625  0.1451
 3441W        W 6960   2.146   4.107  11.741  0.0751  0.2236  0.0170
 3442W        W 6961   8.593   0.670  10.368 -0.1286  0.0877 -0.1411
 3443W        W 6962   3.149   4.435   3.126  0.0738  0.1991  0.0143
 3444W        W 6963   8.024   4.045   0.170 -0.0065  0.1461 -0.0337
 3445W        W 6964   2.413   8.835  10.942  0.0436  0.0138  0.2882
 3446W        W 6965   5.085   4.309   0.740  0.0996 -0.1324  0.2415
 3447W        W 6966   3.049   5.241   1.758 -0.2869  0.2680 -0.0923
 3448W        W 6967   8.965   8.495   1.476 -0.3597 -0.2041  0.0683
 3449W        W 6968   0.334   4.153   3.233  0.0047 -0.0087  0.1071
 3450W        W 6969   2.609   2.193   9.318 -0.3268 -0.1449 -0.0428
 3451W        W 6970   3.043   3.880   8.440 -0.2791  0.0735  0.1436
 3452W        W 6971   6.813   8.486   9.915 -0.0553  0.2090 -0.4254
 3453W        W 6972   5.055   8.936   3.472 -0.2480 -0.1306 -0.1290
 3454W        W 6973   2.462   4.309  11.143  0.0061  0.2747  0.3603
 3455W        W 6974   3.135   1.677   7.662 -0.2247 -0.2650  0.1278
 3456W        W 6975   1.153   1.228  10.060  0.1109 -0.0250  0.1379
 3457W        W 6976   4.253   9.078  11.024  0.1958 -0.0862 -0.0373
 3458W        W 6977   4.593   1.079   1.353 -0.1927 -0.0351  0.2375
 3459W        W 6978   0.603   1.115   8.681 -0.1062 -0.0640 -0.1331
 3460W        W 6979   8.961   4.730   1.426 -0.3601  0.1620  0.0265
 3461W        W 6980   7.956   9.630   6.985  0.0766  0.0638  0.1858
 3462W        W 6981   9.875   5.719   7.793  0.1254  0.0918 -0.1072
 3463W        W 6982   3.764   7.548   1.318  0.2348 -0.1283 -0.2673
 3464W        W 6983   7.071   8.321   2.712  0.0954  0.0149 -0.0139
 3465W        W 6984   4.354   3.620  10.273 -0.3788 -0.1497  0.1653
 3466W        W 6985   3.867   1.095   9.589 -0.0003  0.0825 -0.2889
 3467W        W 6986   1.968   4.020   2.624  0.2072  0.1226  0.0571
 3468W        W 6987   6.224   6.103  11.792  0.0578  0.0600  0.0596
 3469W        W 6988   6.680   7.704   9.287  0.0158  0.1470 -0.1536
 3470W        W 6989   9.843   8.498   2.963 -0.3441  0.1667  0.4093
 3471W        W 6990   1.218   1.170   1.785 -0.1308  0.1462  0.0210
 3472W        W 6991   7.520   8.237   9.228  0.1084  0.1154  0.2722
 3473W        W 6992   8.991   2.787   2.482  0.0504  0.0988 -0.1896
 3474W        W 6993   2.122   7.985   2.891  0.0706  0.1221  0.3017
 3475W        W 6994   7.998   8.497   1.607  0.0343 -0.1999  0.0175
 3476W        W 6995   9.187   2.493   3.463  0.0389 -0.0765  0.3630
 3477W        W 6996   8.674   0.436   0.821  0.1356  0.0692  0.2447
 3478W        W 6997   4.520   7.035   8.355  0.0537  0.0865  0.1983
 3479W        W 6998   0.903   1.142   1.397  0.0303  0.1543  0.1593
 3480W        W 6999   0.819   7.672   1.971  0.0131 -0.0445  0.0578
 3481W        W 7000   3.850   1.789   2.724  0.2391 -0.2900 -0.2096
 3482W        W 7001   8.314   1.878   3.359  0.0334  0.0389  0.1809
 3483W        W 7002   1.804   3.548   2.483  0.1009  0.0641  0.1522
 3484W        W 7003   0.735   2.774   7.974  0.1220 -0.2877  0.1876
 3485W        W 7004   4.017   8.779   1.790 -0.0418 -0.0084 -0.1473
 3486W        W 7005   0.565   6.959  11.036  0.0755  0.0238 -0.1327
 3487W        W 7006   0.126   2.996   0.614 -0.3421  0.0137  0.0608
 3488W        W 7007   4.157   7.912   1.202 -0.1027  0.0725  0.2669
 3489W        W 7008   3.259   0.264  11.125  0.0419 -0.0109  0.0187
 3490W        W 7009   8.057   5.254   9.552  0.0830  0.0462  0.2936
 3491W        W 7010   0.555   1.451   1.196  0.4199 -0.1349 -0.0928
 3492W        W 7011   0.478   0.623   0.255  0.5357  0.0031 -0.2329
 3493W        W 7012   9.576   7.300   9.648 -0.0635  0.0490 -0.1706
 3494W        W 7013   6.832   4.556  10.095 -0.2953  0.3006 -0.2369
 3495W        W 7014   9.756   7.344   3.052 -0.1501  0.1079 -0.1812
 3496W        W 7015   5.981   1.118  11.414  0.2055 -0.1396  0.0845
 3497W        W 7016   4.181   0.253   0.196 -0.0087 -0.5160  0.0805
 3498W        W 7017   9.694   8.206   8.045 -0.0668  0.0828  0.1963
 3499W        W 7018   8.139   6.538  10.519 -0.0321  0.0576 -0.0845
 3500W        W 7019   6.763   4.203   1.398 -0.2827  0.3596  0.4654
 3501W        W 7020   0.275   6.162   1.327  0.2692  0.1297  0.2993
 3502W        W 7021   5.373   4.779   0.700  0.1462  0.4769  0.0802
 3503W        W 7022   8.711   7.299   8.643 -0.1582  0.2224  0.1278
 3504W        W 7023   9.634   4.934   8.581 -0.1008 -0.1156  0.1004
 3505W        W 7024   6.834   9.956   0.248 -0.1344  0.1469 -0.1172
 3506W        W 7025   2.681   1.057   1.584  0.1100 -0.0310 -0.0887
 3507W        W 7026   3.101   1.844   2.269 -0.0442  0.4651  0.1244
 3508W        W 7027   0.471   9.884   9.967  0.1564 -0.0653  0.0643
 3509W        W 7028   1.450   1.014   2.704  0.1883 -0.1973 -0.1627
 3510W        W 7029   1.226   3.265  10.850  0.1532 -0.1757  0.0858
 3511W        W 7030   3.651   8.143   1.060 -0.0537  0.1896  0.0806
 3512W        W 7031   6.493   5.870  10.455  0.0099  0.3216  0.0535
 3513W        W 7032   1.866   0.702   2.022 -0.0542 -0.0797 -0.0447
 3514W        W 7033   8.580   9.646   9.903  0.1422  0.0775  0.1012
 3515W        W 7034   4.110   4.513   3.467  0.2352 -0.0532 -0.2231
 3516W        W 7035   4.585   3.448   1.249 -0.1152 -0.3763 -0.0335
 3517W        W 7036   9.779   0.790   0.259 -0.0202 -0.0156  0.2489
 3518W        W 7037   6.542   8.272   1.061  0.1693 -0.1188  0.1072
 3519W        W 7038   8.552   1.192   9.496  0.0860 -0.1626 -0.0270
 3520W        W 7039   6.293   1.426   8.343 -0.0162  0.3706  0.2797
 3521W        W 7040   4.222   7.267   2.644  0.0374 -0.0687 -0.0317
 3522W        W 7041   1.246   3.097   1.437  0.1878 -0.5281  0.0991
 3523W        W 7042   6.852   5.486  11.892 -0.0896 -0.0907  0.1127
 3524W        W 7043   7.115   3.188  11.801 -0.2182 -0.1210 -0.1613
 3525W        W 7044   9.099   7.524   7.938 -0.0999  0.2652  0.2979
 3526W        W 7045   8.838   2.937  10.681 -0.3308 -0.3251  0.5273
 3527W        W 7046   9.836   7.630   1.683 -0.0408  0.3770  0.0614
 3528W        W 7047   1.267   3.932   0.866  0.0247 -0.3168 -0.2284
 3529W        W 7048   7.096   8.589   3.613  0.0568 -0.2099 -0.1400
 3530W        W 7049   2.540   3.935   2.525  0.2009 -0.1863 -0.1747
 3531W        W 7050   2.084   4.598   9.072 -0.0232  0.1924 -0.1242
 3532W        W 7051   7.590   0.679   9.749  0.0409  0.1823  0.0246
 3533W        W 7052   5.397   7.628   1.244 -0.0844  0.4128  0.0260
 3534W        W 7053   4.820   0.860   3.620  0.0013 -0.1147 -0.0829
 3535W        W 7054   6.549   1.825   8.555 -0.0473  0.3946  0.1689
 3536W        W 7055   6.717   6.357   2.969 -0.1341 -0.1030 -0.3422
 3537W        W 7056   7.590   5.282   9.465 -0.0795 -0.1373 -0.0408
 3538W        W 7057   1.968   5.744  11.687 -0.0578 -0.0112 -0.0507
 3539W        W 7058   6.628   9.925   2.536 -0.2763 -0.0224 -0.3325
 3540W        W 7059   2.900   7.514   1.875  0.3263  0.1249  0.2184
 3541W        W 7060   3.045   4.655  11.205 -0.0114  0.2719  0.0297
 3542W        W 7061   7.691   3.436   8.331  0.0600  0.2169  0.0860
 3543W        W 7062   0.229   5.854  11.843 -0.0339 -0.0830  0.0202
 3544W        W 7063   0.014   1.086   9.981 -0.1529  0.1036  0.3545
 3545W        W 7064   4.348   1.686   8.946 -0.1783  0.0661 -0.0781
 3546W        W 7065   6.537   5.061  11.054  0.0002  0.0784  0.3579
 3547W        W 7066   8.363   7.781   9.305 -0.0936 -0.3423  0.0734
 3548W        W 7067   7.889   0.389   9.456 -0.1721  0.1871  0.3459
 3549W        W 7068   9.707   7.974   0.859 -0.2585  0.0203 -0.3273
 3550W        W 7069   2.915   5.874   9.015 -0.1209  0.3873  0.1963
 3551W        W 7070   2.352   5.742   1.620  0.1054  0.0055  0.0617
 3552W        W 7071   1.279   9.307  11.848 -0.0849 -0.3220  0.0435
 3553W        W 7072   5.921   6.460   1.308  0.2310  0.0445  0.2574
 3554W        W 7073   5.174   1.289   9.208 -0.0536 -0.3965  0.1725
 3555W        W 7074   4.180   1.760  10.287  0.2190  0.1333  0.0545
 3556W        W 7075   6.228   3.005   7.676 -0.1221  0.0589 -0.0088
 3557W        W 7076   8.470   3.151   2.457 -0.0153 -0.3265 -0.0757
 3558W        W 7077   6.242   0.786   1.618 -0.0525  0.0467 -0.0815
 3559W        W 7078   8.364   2.010   9.494 -0.0793  0.1864 -0.0735
 3560W        W 7079   8.863   4.604   8.799  0.5512  0.1893  0.2227
 3561W        W 7080   9.001   8.007  11.261 -0.1117  0.2565  0.0689
 3562W        W 7081   0.675   7.688   0.556 -0.0773 -0.0076 -0.0826
 3563W        W 7082   5.159   9.653   1.471  0.2241 -0.0965  0.1507
 3564W        W 7083   9.154   7.559  11.387 -0.0963 -0.0507 -0.1440
 3565W        W 7084   1.981   4.261   3.802  0.0796 -0.2981 -0.2322
 3566W        W 7085   9.092   7.457   8.410  0.1232 -0.0573 -0.0862
 3567W        W 7086   6.878   8.757  11.192 -0.0360  0.1821 -0.0651
 3568W        W 7087   7.499   0.528   0.095  0.0995  0.2212 -0.2075
 3569W        W 7088   6.025   2.453  10.505  0.0959 -0.1172  0.2556
 3570W        W 7089   0.753   6.984  11.488  0.0574 -0.1247 -0.4759
 3571W        W 7090   3.334   2.656   2.709  0.2763 -0.0907 -0.1981
 3572W        W 7091   2.058   4.189   1.708  0.1815  0.4548  0.1030
 3573W        W 7092   6.195   1.889   1.584  0.0239  0.0640 -0.0012
 3574W        W 7093   4.521   2.137   8.809  0.0299 -0.1786 -0.0201
 3575W        W 7094   9.297   0.319   2.243 -0.2959 -0.4594  0.3150
 3576W        W 7095   3.639   6.080  11.749  0.1874  0.2562 -0.1056
 3577W        W 7096   6.200   7.805  10.768  0.0117 -0.1476 -0.0882
 3578W        W 7097   9.205   2.481   9.735  0.1661 -0.0553 -0.5074
 3579W        W 7098   6.621   6.929   0.140 -0.0158  0.0359  0.2658
 3580W        W 7099   5.412   9.129   9.068  0.0020 -0.0453  0.1153
 3581W        W 7100   4.872   8.238   1.866  0.2861 -0.2326 -0.2674
 3582W        W 7101   7.414   3.629   3.370  0.2422  0.1096 -0.2023
 3583W        W 7102   7.702   9.555   0.099 -0.1197  0.4164 -0.0183
 3584W        W 7103   5.252   6.566   1.341 -0.0226  0.2331 -0.2413
 3585W        W 7104   3.420   9.812   3.116 -0.2982 -0.0732 -0.1452
 3586W        W 7105   3.307   4.741   1.077 -0.0971  0.0456 -0.0989
 3587W        W 7106   4.313   3.984  11.207  0.2480 -0.1093  0.1635
 3588W        W 7107   5.207   6.366   0.796 -0.3340 -0.1876  0.0741
 3589W        W 7108   8.363   0.374  11.164  0.0636  0.0200 -0.0572
 3590W        W 7109   4.235   7.335   2.019 -0.3460  0.3545  0.1796
 3591W        W 7110   2.960   8.527   9.974 -0.0750 -0.2964  0.1089
 3592W        W 7111   4.563   0.060   1.489 -0.3600  0.1583 -0.1262
 3593W        W 7112   2.233   4.588  11.861 -0.0638 -0.0080 -0.1231
 3594W        W 7113   3.495   9.431   2.820 -0.1107 -0.2617  0.0120
 3595W        W 7114   7.374   6.966   8.339  0.2621  0.2722 -0.1790
 3596W        W 7115   3.881   5.781   9.909  0.0317 -0.0645  0.1798
 3597W        W 7116   7.696   3.196  11.682  0.1193 -0.0985 -0.3355
 3598W        W 7117   4.887   2.441   1.103 -0.0278 -0.0205  0.1866
 3599W        W 7118   9.657   5.092   9.274  0.3735  0.1943 -0.2610
 3600W        W 7119   2.800   4.362   2.717 -0.2096 -0.2662  0.0638
 3601W        W 7120   8.157   1.312   9.055 -0.2940 -0.2617  0.0857
 3602W        W 7121   7.303   9.561  10.543 -0.1376  0.3489 -0.3554
 3603W        W 7122   0.872   1.549   1.978 -0.0328  0.1758  0.0489
 3604W        W 7123   2.148   6.862  11.029  0.2622  0.0274  0.1511
 3605W        W 7124   0.952   4.818   0.168 -0.0921  0.0982 -0.1341
 3606W        W 7125   7.924   4.714   1.226  0.2390  0.0960 -0.1222
 3607W        W 7126   5.907   2.416  11.514 -0.1979 -0.2087  0.4606
 3608W        W 7127   9.940   5.513   0.297 -0.2471 -0.0878  0.2023
 3609W        W 7128   4.434   4.175  10.759 -0.0685 -0.1294  0.1078
 3610W        W 7129   0.827   1.592   3.593 -0.2748  0.1570 -0.3610
 3611W        W 7130   5.932   4.263  10.014  0.2465  0.2208 -0.0686
 3612W        W 7131   6.305   0.180   7.396 -0.1423  0.1478  0.0516
 3613W        W 7132   7.586   8.263   1.340 -0.2317 -0.0365  0.4551
 3614W        W 7133   9.685   8.743   0.340 -0.2696  0.2141  0.2502
 3615W        W 7134   1.662   7.946   1.169 -0.0603  0.0950 -0.1898
 3616W        W 7135   7.838   2.450   0.829 -0.2374  0.0359 -0.0137
 3617W        W 7136   8.144   3.381  10.243  0.2556 -0.0990  0.0027
 3618W        W 7137   9.019   0.568  10.652  0.1942  0.4048  0.1518
 3619W        W 7138   1.480   3.150   0.164 -0.0383 -0.1507  0.0925
 3620W        W 7139   4.480   6.249   8.779 -0.2003  0.1136  0.0917
 3621W        W 7140   1.807   9.326  10.201 -0.0657  0.1230  0.1586
 3622W        W 7141   1.083   9.793   1.976  0.0732  0.0930  0.1171
 3623W        W 7142   0.615   0.536   8.212  0.1248 -0.2929  0.2652
 3624W        W 7143   5.694   8.501   1.443 -0.1194  0.1458  0.0630
 3625W        W 7144   6.395   2.082   0.603 -0.2430  0.3377  0.3476
 3626W        W 7145   5.716   3.554   1.852  0.0178 -0.2749  0.4335
 3627W        W 7146   6.534   3.935  11.070  0.2944  0.4086  0.0007
 3628W        W 7147   1.309   2.375  10.436  0.1209  0.1636 -0.3516
 3629W        W 7148   8.539   9.515   0.396  0.0296  0.0258  0.0068
 3630W        W 7149   5.373   5.239   1.553  0.1105 -0.3799  0.2738
 3631W        W 7150   3.801   7.137   4.304 -0.3529 -0.2102 -0.2620
 3632W        W 7151   8.856   6.259   8.233  0.0530  0.2443  0.0736
 3633W        W 7152   9.899   7.988   2.962  0.0329 -0.1953  0.0075
 3634W        W 7153   8.396   5.899  11.679  0.0615 -0.1140 -0.1525
 3635W        W 7154   6.536   3.962   3.072  0.0210 -0.1695 -0.1289
 3636W        W 7155   4.343   6.857   3.028 -0.1984  0.0811  0.0574
 3637W        W 7156   1.264   4.286   1.334  0.2123  0.0346 -0.1055
 3638W        W 7157   5.401   4.867  11.377  0.0087 -0.2226  0.0234
 3639W        W 7158   0.036   5.000   0.532  0.0073 -0.0291  0.6314
 3640W        W 7159   2.107   8.493  10.752 -0.2154 -0.0693  0.0483
 3641W        W 7160   2.897   0.934  11.547  0.0991  0.1319  0.1781
 3642W        W 7161   1.149   7.629   3.605 -0.1139  0.3801 -0.2295
 3643W        W 7162   8.162   7.393   9.501 -0.1286 -0.4569 -0.0354
 3644W        W 7163   8.432   0.101   9.665  0.2480  0.0799  0.4043
 3645W        W 7164   2.596   0.666   9.526 -0.2884 -0.4801  0.0570
 3646W        W 7165   6.076   5.158  10.939  0.2506 -0.1396 -0.0950
 3647W        W 7166   7.234   7.778   8.469  0.0795  0.0241 -0.0541
 3648W        W 7167   1.375   3.756   9.959  0.0408 -0.1640 -0.0007
 3649W        W 7168   5.997   5.352   0.224 -0.1348 -0.1963 -0.0052
 3650W        W 7169   9.354   1.678   8.209 -0.2160  0.0897 -0.3892
 3651W        W 7170   8.436   3.155   8.290  0.0141  0.2020 -0.0219
 3652W        W 7171   8.679   1.922   0.664 -0.2188 -0.0736 -0.1503
 3653W        W 7172   7.385   0.788   8.297 -0.1614 -0.2572  0.2059
 3654W        W 7173   2.840   5.251   2.756 -0.2407  0.0512  0.2311
 3655W        W 7174   8.356   6.299   8.116  0.0557 -0.0462  0.1003
 3656W        W 7175   5.545   0.453   9.399  0.2595  0.5678  0.0610
 3657W        W 7176   8.065   3.847  10.024  0.3468 -0.1757 -0.0845
 3658W        W 7177   2.600   9.555   8.096  0.0200  0.0524 -0.2063
 3659W        W 7178   5.801   5.399   1.269  0.0124  0.2337 -0.0548
 3660W        W 7179   0.532   4.466   0.532  0.1651 -0.2334  0.1853
 3661W        W 7180   7.614   7.214   1.241  0.1812  0.1965  0.2943
 3662W        W 7181   4.215   3.741   0.581 -0.0672 -0.1864 -0.0288
 3663W        W 7182   6.156   7.000   1.677  0.0035  0.1338 -0.1519
 3664W        W 7183   9.193   4.519  11.304 -0.1706  0.0052 -0.0695
 3665W        W 7184   3.938   7.605   0.826 -0.1965  0.0448 -0.0213
 3666W        W 7185   7.309   5.675   9.793  0.1401  0.2582 -0.1313
 3667W        W 7186   0.421   4.107   1.189  0.0767 -0.1462 -0.2488
 3668W        W 7187   4.516   7.636   0.257  0.0752 -0.0628 -0.1332
 3669W        W 7188   5.970   5.880   2.525 -0.4644 -0.0164  0.1014
 3670W        W 7189   1.665   1.859   9.272  0.0905 -0.0963 -0.2184
 3671W        W 7190   6.365   3.516   0.934  0.3396  0.4404  0.1199
 3672W        W 7191   9.800   8.884   9.218 -0.1340 -0.1999  0.2953
 3673W        W 7192   9.429   9.287   9.363 -0.4562 -0.3187 -0.0954
 3674W        W 7193   7.246   7.782   2.043 -0.0709  0.1297  0.3035
 3675W        W 7194   8.544   0.648   2.595  0.1888  0.0887 -0.0816
 3676W        W 7195   1.039   2.601   1.609  0.0281 -0.2663 -0.0962
 3677W        W 7196   4.729   8.971   3.041  0.2416 -0.1439 -0.1750
 3678W        W 7197   5.042   8.879   9.959 -0.0920 -0.2186 -0.1088
 3679W        W 7198   4.445   1.090   2.262  0.0834  0.2302 -0.2762
 3680W        W 7199   9.536   9.923  10.189 -0.0024  0.1599  0.4860
 3681W        W 7200   7.481   5.979  11.452 -0.0296  0.0008 -0.1857
 3682W        W 7201   3.210   1.676  11.902  0.2725 -0.0768 -0.0964
 3683W        W 7202   1.195   7.746   0.958 -0.2467 -0.2837 -0.0200
 3684W        W 7203   0.797   1.904   9.559  0.4657  0.2485 -0.4265
 3685W        W 7204   3.668   4.006   9.333  0.2434  0.0371  0.4458
 3686W        W 7205   8.068   0.510   1.479  0.0845 -0.2828 -0.1860
 3687W        W 7206   2.535   8.513   7.854  0.0132  0.2061 -0.2395
 3688W        W 7207   9.677   9.429  10.396 -0.0525  0.0181  0.2929
 3689W        W 7208   0.697   8.826   9.857  0.1955 -0.0224  0.1538
 3690W        W 7209   5.722   1.797   0.895  0.1678  0.2076 -0.2065
 3691W        W 7210   3.028   1.478   3.426  0.4120  0.1272 -0.0748
 3692W        W 7211   1.720   1.593   0.913  0.0244  0.1248  0.2576
 3693W        W 7212   6.562   8.491   2.713  0.0616  0.2778  0.0274
 3694W        W 7213   0.185   7.767   2.496  0.0495  0.1540 -0.1212
 3695W        W 7214   5.222   9.820   3.177  0.3304 -0.0128 -0.0393
 3696W        W 7215   8.305   5.552   9.846  0.0080 -0.0783  0.0046
 3697W        W 7216   9.196   7.515   9.459 -0.0527  0.1189 -0.0572
 3698W        W 7217   1.412   4.433   0.670 -0.2225  0.0093 -0.0441
 3699W        W 7218   6.610   5.836  11.635 -0.0426  0.5512 -0.0878
 3700W        W 7219   6.756   7.560   9.812 -0.0352 -0.1156 -0.1689
 3701W        W 7220   1.286   1.757   2.221  0.1070  0.0074  0.0874
 3702W        W 7221   2.992   4.241   8.779  0.1106 -0.0176  0.2571
 3703W        W 7222   3.732   2.370   9.077  0.0808 -0.0383  0.2780
 3704W        W 7223   8.991   2.053   8.136  0.0436  0.0862  0.2436
 3705W        W 7224   2.894   9.530   8.938  0.0014  0.0156  0.1579
 3706W        W 7225   9.659   2.141  11.083  0.1516  0.3376 -0.1189
 3707W        W 7226   8.450   8.794  10.200  0.0368 -0.1652  0.0485
 3708W        W 7227   1.178   4.665  11.008 -0.2743 -0.3191 -0.3278
 3709W        W 7228   6.797   0.896  11.839 -0.1210  0.0843 -0.2037
 3710W        W 7229   5.510   7.391  10.202  0.1369 -0.2089  0.2109
 3711W        W 7230   9.291   0.107   9.313 -0.3499 -0.2446  0.0203
 3712W        W 7231   6.036   5.690  11.248  0.0032 -0.0279  0.0797
 3713W        W 7232   4.363   7.063  11.181  0.0218  0.0342  0.1411
 3714W        W 7233   9.795   5.184   0.970 -0.0871  0.1184 -0.0744
 3715W        W 7234   4.308   7.322  10.725 -0.0673 -0.1385  0.0613
 3716W        W 7235   4.263   9.039   0.669  0.0904  0.3809 -0.2708
 3717W        W 7236   5.965   6.490  10.134 -0.0816 -0.1456 -0.1943
 3718W        W 7237   0.843   7.880   0.071 -0.2015 -0.1080 -0.0180
 3719W        W 7238   0.702   5.894   1.557  0.1268 -0.0941  0.1166
 3720W        W 7239   0.141   7.698  11.547  0.3580 -0.1860 -0.0613
 3721W        W 7240   9.119   6.235   7.815  0.0495  0.3480 -0.2305
 3722W        W 7241   6.981   6.541   0.917  0.0420 -0.1111  0.1294
 3723W        W 7242   0.814   6.335  10.662  0.0038  0.1656  0.0370
 3724W        W 7243   3.166   2.227   9.166 -0.2537  0.0831  0.1760
 3725W        W 7244   4.240   1.361   1.549 -0.0994  0.1284  0.1663
 3726W        W 7245   5.340   8.156   1.176 -0.1969  0.2838 -0.2532
 3727W        W 7246   1.733   4.497   3.416  0.3597  0.1566 -0.1104
 3728W        W 7247   2.894   4.812  11.730 -0.0531  0.1124  0.0761
 3729W        W 7248   9.225   5.542   0.952  0.0021 -0.2302 -0.1159
 3730W        W 7249   2.775   9.248   7.703  0.1508 -0.0815 -0.1033
 3731W        W 7250   4.304   0.605   2.502 -0.2319 -0.1621 -0.0657
 3732W        W 7251   5.479   8.367   8.398  0.0989 -0.3201 -0.1822
 3733W        W 7252   0.774   8.167   3.151  0.0778 -0.0313 -0.0066
 3734W        W 7253   5.699   3.491   2.299 -0.1228  0.2307  0.2207
 3735W        W 7254   4.953   0.808   0.586  0.1372  0.0002 -0.2453
 3736W        W 7255   4.585   1.765  11.249 -0.1261 -0.2036  0.2741
 3737W        W 7256   6.935   4.454   1.898  0.3901  0.2829  0.2500
 3738W        W 7257   4.564   8.540   8.734 -0.0725  0.2084 -0.0594
 3739W        W 7258   2.142   1.089   8.913 -0.1294 -0.1053 -0.0216
 3740W        W 7259   0.758   7.409   0.064 -0.1716 -0.0379  0.0135
 3741W        W 7260   6.880   6.282   1.360 -0.0164 -0.1041 -0.0562
 3742W        W 7261   6.702   2.298   2.884  0.0327 -0.0185  0.1166
 3743W        W 7262   2.039   5.061   0.592 -0.2045  0.1619 -0.2088
 3744W        W 7263   3.833   4.895  11.502 -0.0650  0.0140  0.1568
 3745W        W 7264   2.194   9.309   8.819  0.2410  0.2823  0.0449
 3746W        W 7265   0.749   2.313   7.812 -0.1975  0.0866  0.0219
 3747W        W 7266   2.721   4.134   1.437  0.1005 -0.1096  0.1264
 3748W        W 7267   5.676   2.795   1.060 -0.1168 -0.1118  0.0374
 3749W        W 7268   7.405   8.639   2.571 -0.1205 -0.1383 -0.0318
 3750W        W 7269   7.227   6.518   9.026 -0.2991  0.1296  0.0674
 3751W        W 7270   2.883   6.541   2.643 -0.1867 -0.1183 -0.2765
 3752W        W 7271   1.382   3.099   2.840  0.0516  0.4125  0.2476
 3753W        W 7272   8.801   8.230   3.308 -0.1813  0.0625  0.0021
 3754W        W 7273   2.379   7.412  11.594  0.2486  0.0422 -0.3314
 3755W        W 7274   7.072   1.856  10.855 -0.0895  0.1201 -0.2307
 3756W        W 7275   1.438   9.358   2.058 -0.2032 -0.1535  0.1441
 3757W        W 7276   6.048   3.124   8.151 -0.0282  0.0274 -0.1557
 3758W        W 7277   2.795   0.343   9.886 -0.1126  0.1432  0.0780
 3759W        W 7278   5.578   3.196  10.345 -0.1710  0.1474 -0.0223
 3760W        W 7279   6.791   4.749   3.649 -0.2707 -0.0284 -0.0198
 3761W        W 7280   0.078   4.534  11.777 -0.2028  0.0762  0.0149
 3762W        W 7281   0.057   5.952   2.402  0.3091  0.2061 -0.3002
 3763W        W 7282   8.550   2.489   2.133 -0.0057  0.0145  0.0283
 3764W        W 7283   8.748   8.216  11.632 -0.1579  0.2486  0.0893
 3765W        W 7284   4.734   6.887  10.706 -0.1271 -0.1733 -0.0350
 3766W        W 7285   5.340   4.414   9.075 -0.0448 -0.2137  0.0105
 3767W        W 7286   9.662   5.809   2.042 -0.1326 -0.1482  0.0595
 3768W        W 7287   0.996   4.806   2.167 -0.1094 -0.2233  0.3308
 3769W        W 7288   8.537   7.793   8.783  0.2434  0.1313  0.0756
 3770W        W 7289   7.744   5.208  11.528  0.0873 -0.2305 -0.1219
 3771W        W 7290   1.628   7.597   0.804  0.3780 -0.2415 -0.1837
 3772W        W 7291   0.255   1.184   2.817 -0.3710  0.3981 -0.1070
 3773W        W 7292   4.631   0.188  10.537  0.0618 -0.1674  0.0035
 3774W        W 7293   8.438   1.969  10.080 -0.1951 -0.2973  0.2499
 3775W        W 7294   9.945   2.114  10.356 -0.0153  0.0042  0.0070
 3776W        W 7295   0.489   4.314   7.415  0.0895 -0.1024  0.1856
 3777W        W 7296   3.909   9.842  10.369 -0.0284  0.1751 -0.2660
 3778W        W 7297   0.651   7.769   1.081  0.0043  0.1103  0.0232
 3779W        W 7298   6.220   8.377   1.386 -0.2258  0.0580 -0.1579
 3780W        W 7299   0.948   7.832  10.705 -0.0856 -0.1024  0.0976
 3781W        W 7300   1.135   4.891   3.985 -0.2335  0.0642 -0.1277
 3782W        W 7301   8.343   3.048   9.876 -0.3005 -0.3464 -0.3078
 3783W        W 7302   3.131   3.910   9.961  0.0997  0.0872 -0.0600
 3784W        W 7303   8.559   5.836   1.599 -0.1377  0.0848  0.0279
 3785W        W 7304   9.525   8.554   8.514  0.0127  0.0494 -0.4470
 3786W        W 7305   8.630   7.638   8.274 -0.0098  0.1911  0.0532
 3787W        W 7306   2.025   3.145   0.182 -0.1659  0.0424 -0.0103
 3788W        W 7307   3.718   1.993   0.792  0.2063  0.2748  0.1658
 3789W        W 7308   6.189   1.926   1.059  0.0522  0.0490  0.0154
 3790W        W 7309   0.189   6.147  10.895  0.0921  0.1673  0.1091
 3791W        W 7310   5.413   7.909  10.209  0.0969  0.1696  0.0015
 3792W        W 7311   1.717   3.174   1.415 -0.1338 -0.2023  0.4815
 3793W        W 7312   8.865   2.990   8.905  0.4321 -0.1853 -0.1749
 3794W        W 7313   5.369   0.282   2.742  0.0573 -0.0437  0.1780
 3795W        W 7314   3.946   0.648   2.013  0.1001  0.0842 -0.0574
 3796W        W 7315   0.991   2.048   8.721 -0.2058  0.0054 -0.2655
 3797W        W 7316   7.660   9.463  10.130 -0.0594  0.1444  0.0700
 3798W        W 7317   2.311   0.916   0.704 -0.2844  0.2502  0.1541
 3799W        W 7318   5.728   4.254   3.447  0.2880 -0.2620  0.1071
 3800W        W 7319   5.768   3.464   9.004  0.0679  0.0599 -0.2519
 3801W        W 7320   8.338   3.215   0.999  0.0793 -0.0048  0.1160
 3802W        W 7321   2.447   0.513   3.336  0.1503  0.0803 -0.1681
 3803W        W 7322   6.382   9.579   1.656 -0.1470 -0.0071 -0.0492
 3804W        W 7323   0.348   6.705   7.919  0.0298  0.4033  0.0454
 3805W        W 7324   6.334   1.832   3.001 -0.3800  0.0407  0.0395
 3806W        W 7325   8.834   6.342   2.741  0.2180 -0.2841  0.0577
 3807W        W 7326   6.892   3.116   3.034  0.0615  0.1860 -0.0871
 3808W        W 7327   3.648   9.297  10.131  0.0657  0.1222  0.3515
 3809W        W 7328   8.925   7.454   9.870 -0.1483 -0.0780  0.0018
 3810W        W 7329   2.529   0.804   2.964  0.1495 -0.3761 -0.1009
 3811W        W 7330   3.711   4.445  11.802 -0.4976  0.1535  0.1488
 3812W        W 7331   5.547   1.396   1.152 -0.0057  0.2431  0.1735
 3813W        W 7332   9.601   7.747   2.155  0.1211  0.2127  0.0634
 3814W        W 7333   3.117   3.091   1.181 -0.0001 -0.2429  0.3323
 3815W        W 7334   2.726   4.751   8.928  0.1276 -0.2625 -0.2347
 3816W        W 7335   9.954   4.091   8.286  0.1353 -0.0345  0.1745
 3817W        W 7336   1.759   7.520   3.822  0.3182 -0.2503 -0.1043
 3818W        W 7337   8.885   8.944   1.904 -0.1158 -0.1495 -0.1911
 3819W        W 7338   8.308   1.611   0.815  0.0222  0.1573 -0.4369
 3820W        W 7339   8.752   2.915   7.535  0.0459  0.1053 -0.2791
 3821W        W 7340   1.704   0.666   2.518  0.0235 -0.0166  0.3875
 3822W        W 7341   1.521   2.492   3.737 -0.0111 -0.0177 -0.0050
 3823W        W 7342   8.415   8.293   2.337 -0.0654 -0.2393 -0.1697
 3824W        W 7343   2.765   4.696   3.626  0.0781  0.2199  0.3022
 3825W        W 7344   4.000   2.111   9.956 -0.1542  0.0886  0.0971
 3826W        W 7345   2.472   5.629   9.107  0.0551 -0.0955  0.1208
 3827W        W 7346   7.370   1.000   9.324  0.2905  0.2252  0.1426
 3828W        W 7347   5.754   6.020  11.508  0.0685  0.0876 -0.1120
 3829W        W 7348   5.664   1.986   1.850 -0.2163 -0.3138  0.0564
 3830W        W 7349   4.479   4.132   0.140 -0.0189 -0.1410 -0.3138
 3831W        W 7350   4.869   9.000  10.481 -0.1457  0.0906 -0.3296
 3832W        W 7351   1.479   5.958   0.815  0.1745  0.0056  0.0455
 3833W        W 7352   0.677   3.215   0.665 -0.3263  0.3550  0.1100
 3834W        W 7353   6.925   3.138   9.925  0.1474 -0.1464 -0.2637
 3835W        W 7354   0.655   6.900   2.436 -0.3426 -0.0826  0.0332
 3836W        W 7355   1.305   8.348   0.864 -0.0477 -0.1292 -0.2053
 3837W        W 7356   2.711   1.135  10.149  0.0960 -0.3563  0.1355
 3838W        W 7357   1.673   8.889  11.402  0.0677  0.2973 -0.3103
 3839W        W 7358   0.934   5.413   2.440  0.1681 -0.1091 -0.1342
 3840W        W 7359   3.613   5.647  11.546  0.1708  0.0283 -0.0120
 3841W        W 7360   9.805   8.864   1.985 -0.0281 -0.2831 -0.0640
 3842W        W 7361   2.114   1.387   4.501  0.0294  0.3480 -0.2207
 3843W        W 7362   6.411   8.065  11.705 -0.0166  0.1539 -0.1980
 3844W        W 7363   0.524   2.863   4.140 -0.0064  0.1011  0.1890
 3845W        W 7364   9.820   4.195   9.825 -0.0858 -0.2721  0.1526
 3846W        W 7365   8.500   1.490   7.725  0.1181 -0.2043 -0.0773
 3847W        W 7366   1.116   5.178   2.935  0.0132  0.0369 -0.2006
 3848W        W 7367   8.461   8.575   7.457 -0.2510  0.0763 -0.0544
 3849W        W 7368   5.544   6.564   7.751 -0.3954 -0.1880 -0.1354
 3850W        W 7369   1.601   9.899  10.965 -0.0007 -0.0605 -0.0496
 3851W        W 7370   0.333   9.836  10.489  0.3020  0.0061  0.2508
 3852W        W 7371   7.746   9.682  10.910 -0.1252 -0.1786 -0.3495
 3853W        W 7372   1.374   3.568   2.722  0.1988  0.1734  0.2590
 3854W        W 7373   9.723   8.719   8.045 -0.0922  0.1187 -0.0485
 3855W        W 7374   7.620   7.665   2.886 -0.1837  0.4002  0.4497
 3856W        W 7375   1.936   1.474   8.470 -0.1307 -0.0277 -0.1412
 3857W        W 7376   1.093   5.859   3.631  0.0346  0.0808  0.0916
 3858W        W 7377   6.009   2.122   0.049  0.1460 -0.0046  0.3333
 3859W        W 7378   2.746   8.310   9.514 -0.0172  0.0576 -0.2724
 3860W        W 7379   7.720   0.419  10.282  0.1281 -0.0633 -0.0010
 3861W        W 7380   3.049   9.395  10.062  0.4716  0.2162  0.0472
 3862W        W 7381   6.315   2.906   1.210  0.0345  0.0318  0.2501
 3863W        W 7382   3.486   7.423  10.408  0.2007  0.1421 -0.2382
 3864W        W 7383   9.164   9.873  11.848 -0.2181  0.3122  0.0685
 3865W        W 7384   2.669   8.716  11.500 -0.2485 -0.1262  0.0834
 3866W        W 7385   1.629   2.304   1.021  0.1908 -0.0444  0.0581
 3867W        W 7386   8.118   8.056   0.009 -0.1760 -0.1835 -0.0330
 3868W        W 7387   2.827   2.574   4.198 -0.0484  0.0590 -0.3481
 3869W        W 7388   2.592   6.557   4.118 -0.0833 -0.4034 -0.1481
 3870W        W 7389   7.841   2.313   7.887 -0.0019 -0.0713 -0.1253
 3871W        W 7390   3.449   7.683   3.750 -0.1008  0.2214  0.1243
 3872W        W 7391   8.960   9.434   9.499  0.4906  0.0891  0.0632
 3873W        W 7392   9.378   0.228  10.937 -0.2578 -0.0543 -0.0699
 3874W        W 7393   6.392   1.349   3.027  0.0895  0.1851 -0.1629
 3875W        W 7394   0.498   3.080   2.959  0.0776  0.0659 -0.1414
 3876W        W 7395   2.797   5.342  10.134 -0.0022 -0.1311 -0.0571
 3877W        W 7396   8.701   9.673  10.395  0.1268 -0.2033 -0.1733
 3878W        W 7397   6.725   1.574   8.141  0.0863  0.2171 -0.0936
 3879W        W 7398   8.681   9.385   2.609  0.0594 -0.0857  0.1241
 3880W        W 7399   4.074   8.030   9.669  0.1792  0.3361  0.2114
 3881W        W 7400   9.635   3.167   0.646 -0.0532 -0.0510  0.2503
 3882W        W 7401   1.533   2.771   1.202 -0.0812 -0.2819 -0.2896
 3883W        W 7402   3.098   6.153   3.770 -0.2456  0.1742  0.0749
 3884W        W 7403   7.714   4.651   0.496 -0.1220  0.1655  0.1868
 3885W        W 7404   1.994   8.404   2.155 -0.0790 -0.0888  0.1461
 3886W        W 7405   9.424   3.196  11.913 -0.0189 -0.0320  0.0525
 3887W        W 7406   3.297   5.517  10.064 -0.1282 -0.0945 -0.0037
 3888W        W 7407   4.379   9.282   0.019 -0.0762  0.0136 -0.0173
 3889W        W 7408   1.762   6.407   1.093 -0.2321 -0.4558 -0.1627
 3890W        W 7409   5.621   4.987   0.329  0.0404  0.4088 -0.3397
 3891W        W 7410   9.317   5.947   1.231 -0.3154  0.1779 -0.0763
 3892W        W 7411   9.274   3.360   8.925  0.0702  0.1162  0.1235
 3893W        W 7412   0.505   0.953   0.925  0.0007 -0.1074  0.3716
 3894W        W 7413   5.919   0.290   1.871 -0.1471  0.0952 -0.1074
 3895W        W 7414   9.006   3.683   8.314  0.2602 -0.2741  0.2764
 3896W        W 7415   9.367   1.231   3.963  0.0428 -0.2178 -0.4128
 3897W        W 7416   5.189   9.823   0.901  0.0457  0.3434  0.0318
 3898W        W 7417   3.056   2.128   8.526 -0.0518  0.4094  0.2160
 3899W        W 7418   9.267   3.323   0.380 -0.1707  0.0328 -0.0654
 3900W        W 7419   9.292   1.487  11.557  0.0718  0.1228 -0.0966
 3901W        W 7420   8.236   3.336   0.534  0.1363  0.1353 -0.0173
 3902W        W 7421   9.207   9.003   6.925 -0.0024  0.1144 -0.1070
 3903W        W 7422   7.126   2.640   9.925  0.2945 -0.1914  0.1831
 3904W        W 7423   6.778   8.275   3.110 -0.1017  0.3200  0.1283
 3905W        W 7424   1.273   1.362   3.371 -0.2213 -0.1399 -0.1478
 3906W        W 7425   3.350   2.929   1.622  0.1349  0.3307  0.1063
 3907W        W 7426   1.634   2.981  11.599 -0.5103 -0.0136  0.0784
 3908W        W 7427   7.145   4.517  11.280 -0.2487 -0.0823  0.2232
 3909W        W 7428   6.419   1.522  10.317 -0.2027  0.1517  0.0097
 3910W        W 7429   2.795   2.482   7.726 -0.5831 -0.1819 -0.2116
 3911W        W 7430   1.717   7.694   7.461  0.1915  0.1010  0.2203
 3912W        W 7431   1.767   0.908   1.473  0.1006  0.0656 -0.1383
 3913W        W 7432   4.942   5.276  10.037 -0.2354  0.3780  0.0974
 3914W        W 7433   4.711   0.762   3.139 -0.2776 -0.2166 -0.1666
 3915W        W 7434   8.529   5.505   2.310 -0.1578 -0.0999 -0.1477
 3916W        W 7435   5.520   8.311  11.831  0.5523  0.0700  0.0341
 3917W        W 7436   0.659   3.497  11.731  0.0570  0.0907 -0.0189
 3918W        W 7437   3.216   0.206   2.268  0.0310 -0.0710 -0.2902
 3919W        W 7438   4.624   9.342   0.487  0.0919 -0.0700 -0.1038
 3920W        W 7439   0.653   1.479  11.605  0.3962 -0.2624  0.1597
 3921W        W 7440   8.123   6.237   1.701  0.0251  0.0448 -0.0311
 3922W        W 7441   9.785   9.334   8.102  0.0368 -0.2829  0.2784
 3923W        W 7442   4.526   9.441   8.726 -0.2858  0.0392 -0.1347
 3924W        W 7443   9.021   5.498  10.742  0.1195  0.3772  0.1814
 3925W        W 7444   1.501   7.262   7.286  0.1086 -0.1126  0.3612
 3926W        W 7445   3.373   8.945   2.833  0.5720  0.0550 -0.0586
 3927W        W 7446   8.815   1.865   7.294  0.0265 -0.0914  0.2506
 3928W        W 7447   9.060   9.047   9.095  0.1697  0.0501  0.1406
 3929W        W 7448   4.415   1.966   8.304  0.1135 -0.1515  0.2727
 3930W        W 7449   5.215   7.348   9.253  0.1250 -0.1116  0.2649
 3931W        W 7450   5.353   1.036   8.401 -0.4503 -0.2312 -0.1430
 3932W        W 7451   3.820   5.439   9.336  0.0347  0.1347  0.0976
 3933W        W 7452   4.965   3.135   2.236 -0.0027  0.2674  0.1240
 3934W        W 7453   0.418   7.309   9.305  0.4633  0.1413 -0.0135
 3935W        W 7454   1.897   2.379  11.745 -0.0607 -0.0568  0.1613
 3936W        W 7455   0.783   7.934   9.582  0.3434  0.4921 -0.4157
 3937W        W 7456   7.444   0.424   9.105  0.1294 -0.3371 -0.0009
 3938W        W 7457   5.283   0.510   1.608 -0.0430  0.4334  0.1476
 3939W        W 7458   2.380   6.563   0.269  0.0724  0.0752 -0.0213
 3940W        W 7459   1.397   2.825  10.138 -0.2439 -0.0181 -0.2051
 3941W        W 7460   1.391   1.052   1.099 -0.1122 -0.1698  0.0524
 3942W        W 7461   4.882   5.588   0.979  0.2227 -0.0946  0.0057
 3943W        W 7462   6.721   6.708   2.394 -0.0031 -0.1732  0.2694
 3944W        W 7463   3.596   3.732   9.905 -0.0449  0.4485 -0.0105
 3945W        W 7464   7.274   9.401   0.976  0.1770 -0.1819 -0.2263
 3946W        W 7465   3.754   3.122   2.409  0.1431 -0.2193 -0.0909
 3947W        W 7466   2.398   5.121   3.649 -0.1940  0.0417 -0.2420
 3948W        W 7467   9.501   2.381   1.150 -0.0079  0.0869 -0.2441
 3949W        W 7468   1.291   8.130   2.683  0.2297  0.2273  0.0466
 3950W        W 7469   2.187   7.883  11.653 -0.1654  0.1556  0.2179
 3951W        W 7470   6.663   1.052   1.352 -0.1243 -0.3500  0.1455
 3952W        W 7471   7.530   4.353  10.372  0.1770  0.2097  0.0591
 3953W        W 7472   4.180   5.038  10.124  0.0756 -0.0011 -0.0076
 3954W        W 7473   7.044   8.680   2.166  0.2886  0.0384 -0.2900
 3955W        W 7474   8.836   1.233  11.477  0.0708  0.0980  0.4280
 3956W        W 7475   8.623   0.730  11.532 -0.0106  0.1413 -0.1620
 3957W        W 7476   7.243   7.878   1.345 -0.2866  0.0467 -0.0599
 3958W        W 7477   2.587   9.138   9.088  0.2407 -0.2382  0.1500
 3959W        W 7478   9.424   1.963   0.024  0.1841 -0.1422  0.0348
 3960W        W 7479   7.108   7.210  10.528 -0.3677 -0.0754  0.0523
 3961W        W 7480   7.432   2.590   0.554  0.1170  0.1364  0.0630
 3962W        W 7481   6.296   8.487   0.533 -0.0445  0.1615 -0.0553
 3963W        W 7482   2.444   7.253   8.648 -0.1620  0.2395  0.1788
 3964W        W 7483   3.864   3.420   7.773  0.0539  0.1859  0.3160
 3965W        W 7484   2.195   2.515   2.709  0.0970  0.2935  0.2013
 3966W        W 7485   0.878   5.428  10.522  0.2489  0.3097  0.1812
 3967W        W 7486   1.069   6.012   2.787 -0.0346 -0.0152  0.4179
 3968W        W 7487   6.981   3.820   3.346 -0.1024 -0.0396 -0.1828
 3969W        W 7488   6.076   3.933   1.866 -0.0294  0.0457  0.0799
 3970W        W 7489   1.403   6.746   3.337 -0.0006 -0.1510 -0.2265
 3971W        W 7490   5.775   8.854   9.900 -0.0456  0.1071 -0.0116
 3972W        W 7491   9.299   4.246   9.702 -0.2560  0.0408  0.0267
 3973W        W 7492   1.340   0.847   8.725  0.1953 -0.0087 -0.2464
 3974W        W 7493   1.131   3.287   9.959  0.0233  0.2515 -0.4841
 3975W        W 7494   4.006   1.677   8.154 -0.2365 -0.2637 -0.1751
 3976W        W 7495   0.340   9.351   1.203  0.1822  0.0184 -0.1327
 3977W        W 7496   0.222   7.924   9.330 -0.0715  0.2466  0.0228
 3978W        W 7497   0.406   9.062   9.123  0.1737 -0.1807  0.0482
 3979W        W 7498   4.954   5.696  11.002  0.0766 -0.0199  0.3424
 3980W        W 7499   2.212   6.051   8.745 -0.1797 -0.3245  0.2663
 3981W        W 7500   8.077   9.022   9.495  0.1708 -0.2133  0.1857
 3982W        W 7501   0.642   5.404   2.877  0.1582 -0.0960  0.3861
 3983W        W 7502   2.461   2.331   0.732 -0.0493 -0.1257  0.0479
 3984W        W 7503   9.086   0.671   1.829 -0.2478  0.0410  0.3982
 3985W        W 7504   0.219   6.487   7.149 -0.2671 -0.0309  0.2608
 3986W        W 7505   4.898   8.490   3.289 -0.2012 -0.3036 -0.1690
 3987W        W 7506   7.641   2.259   2.970 -0.1889 -0.0138  0.2028
 3988W        W 7507   7.000   1.460   9.586 -0.4170 -0.1323 -0.3032
 3989W        W 7508   5.683   6.654  10.922  0.0573 -0.1613  0.3426
 3990W        W 7509   0.211   3.080   3.824 -0.0089  0.1682 -0.0283
 3991W        W 7510   8.368   2.985  10.585 -0.2174 -0.1320 -0.4719
 3992W        W 7511   8.229   0.948   1.384  0.0603 -0.2175 -0.0835
 3993W        W 7512   3.459   4.728   9.633  0.0058 -0.1471  0.1343
 3994W        W 7513   0.242   7.430   3.280  0.1550  0.2343 -0.0338
 3995W        W 7514   5.398   9.458  11.302  0.2136  0.1789 -0.0429
 3996W        W 7515   1.891   4.995   1.104 -0.0087 -0.0914  0.0805
 3997W        W 7516   9.563   2.662   3.115  0.1844 -0.1878  0.3199
 3998W        W 7517   4.846   3.399   8.186 -0.1537  0.0191  0.0126
 3999W        W 7518   5.953   7.779   1.989  0.0336  0.1958 -0.1322
 4000W        W 7519   9.287   6.110   9.539  0.0398 -0.0742  0.2720
 4001W        W 7520   9.502   5.672   2.524  0.0056 -0.0776  0.0345
 4002W        W 7521   8.929   9.428   0.801  0.2390 -0.2136  0.2071
 4003W        W 7522   4.166   2.012   7.837  0.3999  0.0981 -0.1884
 4004W        W 7523   6.335   2.880  11.471 -0.2123  0.0180  0.1102
 4005W        W 7524   8.384   6.532   1.216 -0.0814 -0.3475 -0.2634
 4006W        W 7525   6.266   9.842  11.532  0.2978 -0.0953  0.0607
 4007W        W 7526   7.876   6.590   0.565 -0.1661  0.0680  0.1990
 4008W        W 7527   3.587   1.156   2.664 -0.1077  0.0381 -0.0187
 4009W        W 7528   8.447   5.892  11.193 -0.1834 -0.1103 -0.1080
 4010W        W 7529   4.294   2.648  11.401 -0.3132 -0.0651 -0.0570
 4011W        W 7530   2.387   7.578   1.673  0.4291  0.2008  0.1697
 4012W        W 7531   7.907   1.393   8.625 -0.1281 -0.0374 -0.0931
 4013W        W 7532   2.776   6.840   2.211 -0.1295  0.3442 -0.0906
 4014W        W 7533   4.163   4.555  11.944 -0.0367  0.1231  0.0559
 4015W        W 7534   9.943   8.015  11.910  0.2511 -0.0294 -0.0357
 4016W        W 7535   2.848   9.794   0.321 -0.1858 -0.4242 -0.4513
 4017W        W 7536   2.176   6.589   1.506  0.0544 -0.0741  0.2734
 4018W        W 7537   6.543   6.940  11.196 -0.1414 -0.1071  0.1632
 4019W        W 7538   7.215   2.038   1.631 -0.0568  0.2170 -0.1297
 4020W        W 7539   2.872   3.401  11.484  0.0016 -0.0926  0.3946
 4021W        W 7540   4.633   6.492   2.248 -0.0268  0.0350  0.3314
 4022W        W 7541   2.969   2.513   8.221  0.0642 -0.0962 -0.0944
 4023W        W 7542   5.945   5.757   8.812  0.3001 -0.0793  0.3258
 4024W        W 7543   3.839   8.646   2.727 -0.3131 -0.2989  0.0845
 4025W        W 7544   4.668   1.274   8.955  0.0237  0.0321  0.2817
 4026W        W 7545   0.427   2.153   2.839 -0.1689  0.1973  0.1192
 4027W        W 7546   9.016   8.594   0.920  0.3390  0.0856  0.0110
 4028W        W 7547   8.264   7.768   1.074 -0.2239 -0.2855  0.0053
 4029W        W 7548   4.046   3.860   7.994  0.0538  0.0459  0.1858
 4030W        W 7549   2.670   5.396   1.468  0.1449  0.3258 -0.1285
 4031W        W 7550   6.100   7.542   0.473 -0.1753 -0.0141 -0.2111
 4032W        W 7551   8.275   8.796   8.438  0.0443 -0.2232 -0.0060
 4033W        W 7552   2.098   8.414   8.532  0.1034 -0.0010 -0.4631
 4034W        W 7553   3.822   3.475   9.413  0.0413  0.2488  0.0307
 4035W        W 7554   8.180   5.853   0.174  0.1103 -0.0694  0.0986
 4036W        W 7555   0.120   6.597   1.549  0.3984 -0.0157 -0.2224
 4037W        W 7556   9.923   5.167   7.092 -0.0334 -0.0487  0.2091
 4038W        W 7557   7.707   7.877   2.369  0.0646  0.1209 -0.1380
 4039W        W 7558   6.859   9.513   1.625  0.1059  0.2238  0.0409
 4040W        W 7559   7.642   1.871   3.199 -0.0008 -0.2064  0.0510
 4041W        W 7560   1.429   9.079   2.455  0.1442 -0.4529 -0.0197
 4042W        W 7561   5.812   4.996   2.923  0.2662  0.3616  0.0169
 4043W        W 7562   8.481   2.970   3.292 -0.1767 -0.0948 -0.1475
 4044W        W 7563   9.418   0.430   7.356  0.1023  0.0950  0.1141
 4045W        W 7564   2.856   6.638   0.528  0.1191  0.1807  0.0191
 4046W        W 7565   0.107   2.823   9.242  0.1736 -0.4022  0.0934
 4047W        W 7566   7.357   4.770  10.103 -0.0329 -0.0068  0.0801
 4048W        W 7567   3.758   6.188   2.722 -0.2196  0.1380  0.1129
 4049W        W 7568   5.327   6.188  11.263  0.0478  0.3171 -0.1261
 4050W        W 7569   0.223   3.936   8.849 -0.0728 -0.0221  0.0102
 4051W        W 7570   2.288   3.920  10.373 -0.2734 -0.2215  0.1258
 4052W        W 7571   2.822   6.674   1.755 -0.0785  0.1889 -0.2815
 4053W        W 7572   4.737   9.804   3.142 -0.1141 -0.1839 -0.2234
 4054W        W 7573   3.532   9.199   2.345 -0.0592  0.0430  0.0181
 4055W        W 7574   4.322   4.524   0.930 -0.1603  0.1330 -0.1978
 4056W        W 7575   7.134   3.380  11.265  0.0501  0.0389 -0.0647
 4057W        W 7576   2.754   1.444   9.586  0.3237 -0.2322 -0.2184
 4058W        W 7577   0.609   6.932  11.941  0.0279 -0.0036 -0.1857
 4059W        W 7578   2.451   3.171  11.213  0.1588 -0.1918  0.3986
 4060W        W 7579   2.563   6.132   8.229  0.1398 -0.0252 -0.3251
 4061W        W 7580   6.959   3.503   1.658  0.0450 -0.2040 -0.1838
 4062W        W 7581   0.003   5.356  10.420 -0.2850 -0.1332 -0.2270
 4063W        W 7582   2.804   0.660   0.785 -0.0235  0.0935 -0.2503
 4064W        W 7583   0.996   5.551   0.124 -0.1522 -0.0246  0.1315
 4065W        W 7584   1.418   6.478   2.017  0.0098  0.3317  0.0751
 4066W        W 7585   2.461   8.105  10.779 -0.1596 -0.2879 -0.3018
 4067W        W 7586   3.521   1.952   3.770  0.1178 -0.3917  0.1033
 4068W        W 7587   0.371   8.176   1.222  0.1224  0.0978  0.1321
 4069W        W 7588   0.865   2.562   0.706 -0.0452  0.0855  0.1037
 4070W        W 7589   9.464   5.413  10.267 -0.3896  0.0581  0.1591
 4071W        W 7590   2.035   3.401  11.686  0.1088 -0.1378  0.1539
 4072W        W 7591   4.960   6.438   8.971 -0.1985 -0.2138  0.1436
 4073W        W 7592   1.112   1.642   0.415 -0.0033  0.1015 -0.0088
 4074W        W 7593   4.515   3.393   2.452  0.0282  0.0026 -0.0095
 4075W        W 7594   0.323   8.322   3.164 -0.0107  0.0980  0.3158
 4076W        W 7595   2.513   9.292   1.768 -0.2058  0.0031  0.0879
 4077W        W 7596   6.583   1.577   1.737 -0.3168 -0.3447  0.1048
 4078W        W 7597   0.615   2.182  11.013  0.2780  0.0627 -0.3315
 4079W        W 7598   7.683   9.123   2.817  0.0996  0.2303  0.2610
 4080W        W 7599   6.091   8.250   2.833 -0.4372  0.1483 -0.0686
 4081W        W 7600   0.258   3.497  10.808 -0.0850  0.0754 -0.2201
 4082W        W 7601   8.250   2.693   2.441 -0.0757 -0.1582 -0.2197
 4083W        W 7602   2.298   6.773   3.632 -0.2835  0.1009  0.0978
 4084W        W 7603   7.521   5.080   0.428 -0.2287 -0.1151  0.0484
 4085W        W 7604   7.773   1.265  10.320  0.1968 -0.1424  0.0142
 4086W        W 7605   6.388   5.517   8.208  0.0341 -0.5223  0.0814
 4087W        W 7606   4.336   0.722   9.540  0.0646 -0.1027 -0.0313
 4088W        W 7607   0.111   5.886   3.968 -0.4393  0.3304  0.2474
 4089W        W 7608   2.092   0.428   2.868 -0.1203  0.0127 -0.0567
 4090W        W 7609   4.989   5.653   2.726  0.0847 -0.0859 -0.3529
 4091W        W 7610   7.344   9.486   9.087  0.1180 -0.0218  0.4436
 4092W        W 7611   6.572   3.056  11.894 -0.1067 -0.0179 -0.4104
 4093W        W 7612   1.070   6.249   8.897  0.1370 -0.1747  0.2639
 4094W        W 7613   3.887   2.330   1.998  0.1199  0.2508 -0.0109
 4095W        W 7614   8.813   6.827   9.840 -0.0235  0.1972  0.0596
 4096W        W 7615   1.842   2.983  10.330  0.2655  0.1478  0.0606
 4097W        W 7616   9.756   6.419  11.201  0.2356  0.1714  0.1679
 4098W        W 7617   8.002   5.527   2.362 -0.1026 -0.0081  0.0855
 4099W        W 7618   1.214   2.967   3.603  0.1659  0.5524 -0.3116
 4100W        W 7619   0.306   8.903   1.762  0.1467 -0.0451  0.1610
 4101W        W 7620   5.030   6.573   3.132 -0.1435  0.2510  0.2896
 4102W        W 7621   5.148   6.869   0.952 -0.1604 -0.1357  0.2243
 4103W        W 7622   5.362   9.832   0.149  0.1386  0.1410 -0.2215
 4104W        W 7623   6.702   0.555   9.831  0.0873  0.3030  0.1332
 4105W        W 7624   2.922   3.436   9.208 -0.0700  0.2303 -0.1314
 4106W        W 7625   2.313   5.027  10.984  0.2147  0.0761  0.2277
 4107W        W 7626   1.467   6.850   9.472  0.2393  0.3351 -0.0052
 4108W        W 7627   5.940   7.857   2.490 -0.0557  0.1710  0.2072
 4109W        W 7628   3.008   0.747   7.737  0.1097 -0.1709  0.2012
 4110W        W 7629   4.911   0.237   0.023 -0.1847  0.1092  0.0564
 4111W        W 7630   6.679   4.240   3.663 -0.1730  0.1877 -0.0172
 4112W        W 7631   6.026   2.370   0.927 -0.0370 -0.1493  0.1378
 4113W        W 7632   5.707   7.269  11.608 -0.1500  0.2363  0.1383
 4114W        W 7633   2.390   0.212   1.505 -0.0063  0.1383 -0.1785
 4115W        W 7634   7.074   0.732   0.953  0.2251  0.0921  0.0833
 4116W        W 7635   6.515   5.134   9.949  0.2024 -0.0828  0.0696
 4117W        W 7636   0.346   1.653   2.637  0.0968  0.2454  0.1988
 4118W        W 7637   4.854   5.091   8.167  0.0441  0.0543  0.0162
 4119W        W 7638   1.481   9.928   8.914 -0.0158 -0.3157  0.2364
 4120W        W 7639   6.135   7.533   9.103  0.1899 -0.2275 -0.1443
 4121W        W 7640   8.980   9.885   0.343  0.0301  0.2110 -0.1621
 4122W        W 7641   2.965   4.890   9.367 -0.0561 -0.0875 -0.1369
 4123W        W 7642   3.721   3.784   3.986  0.1963  0.1588  0.1199
 4124W        W 7643   8.827   4.744   2.743 -0.2009  0.1721 -0.2023
 4125W        W 7644   0.061   8.408   9.298 -0.1189 -0.2096 -0.0659
 4126W        W 7645   8.748   6.755   8.787 -0.2699  0.2675 -0.4399
 4127W        W 7646   3.198   1.611   3.905  0.0669  0.0158 -0.0997
 4128W        W 7647   5.611   4.777   1.764  0.1022  0.0278  0.1976
 4129W        W 7648   2.838   2.996   0.503 -0.0357  0.1027 -0.1019
 4130W        W 7649   9.842   0.269  11.432 -0.1210 -0.1982  0.2330
 4131W        W 7650   9.079   2.373  10.327  0.0071 -0.0816 -0.0385
 4132W        W 7651   5.919   5.534   2.924  0.1501 -0.0795  0.0690
 4133W        W 7652   4.583   8.060   8.489 -0.4040  0.2361  0.0489
 4134W        W 7653   3.372   9.705   2.114  0.0687 -0.3279  0.0084
 4135W        W 7654   7.436   4.114   3.148  0.4276  0.3151  0.1879
 4136W        W 7655   4.180   0.102   1.088  0.0589  0.0929  0.0442
 4137W        W 7656   2.109   5.500   0.205  0.2571 -0.3883 -0.1148
 4138W        W 7657   3.281   5.078  10.943  0.1402 -0.1267 -0.1338
 4139W        W 7658   6.845   7.945   8.098  0.0252  0.0190  0.1354
 4140W        W 7659   1.606   8.499   2.857  0.1881  0.5342 -0.0957
 4141W        W 7660   8.076   9.874   0.266 -0.3514  0.0377 -0.3894
 4142W        W 7661   1.581   4.022  11.107  0.1297  0.1716  0.2315
 4143W        W 7662   8.418   7.222   2.168  0.3390  0.0129 -0.0116
 4144W        W 7663   6.890   1.784   2.116 -0.0933 -0.0550 -0.2236
 4145W        W 7664   2.251   6.131  10.998  0.3204  0.2762  0.1523
 4146W        W 7665   3.415   6.056   8.878  0.0654  0.0135 -0.1664
 4147W        W 7666   4.776   4.180   7.878  0.4745 -0.0176 -0.1667
 4148W        W 7667   2.876   4.398   0.090  0.0866 -0.1016  0.3297
 4149W        W 7668   1.629   5.792   8.515  0.0820 -0.0945 -0.2347
 4150W        W 7669   9.015   5.504   9.892 -0.2257  0.2142  0.1086
 4151W        W 7670   4.883   9.646  11.214  0.2005  0.1039  0.3184
 4152W        W 7671   7.928   3.862  11.009 -0.2083  0.0011 -0.3341
 4153W        W 7672   4.981   2.196  10.611  0.0913  0.0598  0.2416
 4154W        W 7673   0.178   9.257   2.642 -0.0394 -0.2202  0.0568
 4155W        W 7674   1.099   5.493   7.381  0.1497 -0.0995 -0.0321
 4156W        W 7675   6.210   1.100   3.858 -0.0495 -0.2921 -0.3185
 4157W        W 7676   0.326   5.219   1.768 -0.0139 -0.0427  0.0310
 4158W        W 7677   8.368   2.326   4.166 -0.0404 -0.3213  0.0012
 4159W        W 7678   4.036   3.646  10.922  0.0104  0.1950  0.0869
 4160W        W 7679   9.894   4.990   1.481 -0.3780 -0.1449 -0.1306
 4161W        W 7680   0.435   3.918   0.643 -0.2722 -0.1916 -0.0065
 4162W        W 7681   0.068   3.317   3.295 -0.0167 -0.1410 -0.0740
 4163W        W 7682   3.194   3.413   1.571 -0.1898 -0.1171  0.4175
 4164W        W 7683   2.263   9.211   0.283 -0.3197 -0.1247  0.0005
 4165W        W 7684   4.985   7.542   3.533  0.3372  0.1405 -0.1814
 4166W        W 7685   5.706   4.213   9.500  0.0621 -0.0164 -0.0519
 4167W        W 7686   8.334   2.247   0.869  0.3201  0.0956  0.0176
 4168W        W 7687   0.067   6.242   1.931  0.1204 -0.0536  0.0542
 4169W        W 7688   6.002   9.655   0.884 -0.1200  0.2702 -0.1437
 4170W        W 7689   7.123   4.609   0.089 -0.0947  0.3160  0.1878
 4171W        W 7690   2.484   9.686   8.605 -0.2261 -0.1983 -0.0662
 4172W        W 7691   1.343   9.475   9.960 -0.1849 -0.1813 -0.0630
 4173W        W 7692   6.576   5.683  11.085  0.0605 -0.1194 -0.1653
 4174W        W 7693   0.754   3.494  10.980 -0.2510  0.1730 -0.1649
 4175W        W 7694   1.870   6.746   9.717 -0.0096 -0.1957  0.1094
 4176W        W 7695   5.998   7.283   7.616 -0.0247  0.2044 -0.0573
 4177W        W 7696   3.841   4.089   1.485 -0.0256 -0.0454  0.0249
 4178W        W 7697   7.708   5.217   9.931 -0.1891 -0.0977 -0.2591
 4179W        W 7698   6.571   4.332   2.706  0.1393  0.2842  0.0333
 4180W        W 7699   7.634   0.538   3.055 -0.0713 -0.0686  0.0280
 4181W        W 7700   3.004   0.981   9.609 -0.0406 -0.2018 -0.1507
 4182W        W 7701   1.420   8.052  11.945 -0.1664 -0.1307  0.1269
 4183W        W 7702   6.260   9.265   2.392 -0.1283 -0.3451 -0.2232
 4184W        W 7703   4.594   5.306   2.630 -0.1284  0.3064 -0.2150
 4185W        W 7704   6.563   8.938  11.672 -0.0881 -0.1164  0.0473
 4186W        W 7705   3.768   0.404  11.210 -0.0907 -0.3807  0.0457
 4187W        W 7706   0.266   3.456  11.416  0.2082  0.1951  0.0684
 4188W        W 7707   0.860   5.175   0.974 -0.0650  0.1233 -0.0496
 4189W        W 7708   1.658   7.041   0.028 -0.0722  0.1640 -0.0531
 4190W        W 7709   8.359   2.485  11.497 -0.0067 -0.0284 -0.1448
 4191W        W 7710   3.879   7.430   2.298  0.4321 -0.0526 -0.4190
 4192W        W 7711   5.861   2.183  10.837  0.1308 -0.2940 -0.1855
 4193W        W 7712   2.001   3.793   9.459  0.0842 -0.0803 -0.0637
 4194W        W 7713   3.293   9.625   1.609  0.2246 -0.1324 -0.1153
 4195W        W 7714   0.923   2.291   2.872  0.2184  0.1442 -0.0731
 4196W        W 7715   4.577   8.907   9.792 -0.2941  0.0545  0.1245
 4197W        W 7716   2.387   2.816   0.648  0.1577 -0.3486  0.1848
 4198W        W 7717   8.129   5.124   0.474  0.4181 -0.2472 -0.3043
 4199W        W 7718   4.507   8.372   0.187 -0.0755  0.4958 -0.2699
 4200W        W 7719   8.288   9.909  10.147 -0.2290  0.0688 -0.1263
 4201W        W 7720   9.138   3.556   3.204 -0.2139  0.2737  0.1194
 4202W        W 7721   6.838   5.642   0.492  0.1748  0.1017 -0.0025
 4203W        W 7722   6.280   1.049   0.948 -0.0529 -0.1390 -0.2790
 4204W        W 7723   2.480   6.578   8.539 -0.0977  0.0069  0.1600
 4205W        W 7724   2.116   0.568   8.729 -0.0839  0.1637 -0.2956
 4206W        W 7725   2.933   0.585  11.935 -0.1686 -0.0110  0.1621
 4207W        W 7726   2.929   0.676  11.018 -0.1376 -0.0353 -0.0175
 4208W        W 7727   7.645   3.585  10.196  0.1540  0.1065  0.1823
 4209W        W 7728   1.001   3.073  10.436 -0.3036  0.0174 -0.2627
 4210W        W 7729   6.227   1.951   9.911 -0.0209  0.0375 -0.2369
 4211W        W 7730   7.599   0.213   1.406  0.0066 -0.0279  0.1072
 4212W        W 7731   4.844   4.721  10.781  0.1574  0.3621 -0.0103
 4213W        W 7732   1.621   6.396   9.283 -0.0959  0.0162  0.1678
 4214W        W 7733   8.177   4.312  10.275 -0.0182  0.0612  0.0755
 4215W        W 7734   0.503   3.686   3.034  0.3875  0.1454  0.2413
 4216W        W 7735   9.599   4.214   0.898 -0.1097 -0.0678  0.0943
 4217W        W 7736   5.628   9.236  10.203 -0.0218 -0.2559  0.1423
 4218W        W 7737   1.525   4.774   2.022 -0.0920 -0.1102 -0.2054
 4219W        W 7738   4.457   8.246   1.041 -0.0933  0.0062 -0.1884
 4220W        W 7739   5.821   9.946   0.066  0.0948  0.3279  0.0385
 4221W        W 7740   9.489   4.495  11.782 -0.1457 -0.1625  0.1003
 4222W        W 7741   9.336   3.680  11.653  0.3515 -0.2517  0.0079
 4223W        W 7742   2.877   2.257   0.979  0.4197  0.2212 -0.1316
 4224W        W 7743   1.402   7.688   2.572 -0.0106  0.1333  0.1263
 4225W        W 7744   5.271   4.151   1.222 -0.0728  0.3292 -0.1185
 4226W        W 7745   0.972   1.812  10.852 -0.0667 -0.1374 -0.0909
 4227W        W 7746   6.787   0.785   3.808  0.0116  0.0893 -0.0809
 4228W        W 7747   1.653   5.484   0.830  0.3239 -0.0112 -0.1315
 4229W        W 7748   3.566   2.189   9.499 -0.2357  0.1662 -0.1862
 4230W        W 7749   0.814   4.466   2.460  0.0275 -0.0386 -0.0178
 4231W        W 7750   3.461   0.599  11.893  0.0096  0.1477  0.2165
 4232W        W 7751   3.814   3.574   0.137 -0.0343 -0.0861 -0.1413
 4233W        W 7752   2.402   3.302   0.475 -0.1808 -0.2894  0.0812
 4234W        W 7753   6.497   0.912  10.539 -0.2877 -0.3315  0.1802
 4235W        W 7754   4.662   8.085   9.429  0.0064  0.0173 -0.2608
 4236W        W 7755   6.899   5.370   2.088 -0.2122  0.3188  0.1961
 4237W        W 7756   9.286   7.885   9.832 -0.2864  0.0881  0.1458
 4238W        W 7757   5.529   3.266   0.872 -0.2808 -0.0294 -0.0100
 4239W        W 7758   0.110   2.338   1.083 -0.0929  0.0481 -0.2919
 4240W        W 7759   1.887   5.928   1.445 -0.2653 -0.0292  0.1686
 4241W        W 7760   8.481   5.628  10.755  0.0669 -0.1968  0.1178
 4242W        W 7761   1.728   2.626   2.860 -0.1015  0.2355 -0.0165
 4243W        W 7762   5.785   6.769  11.760 -0.0673  0.0084  0.1019
 4244W        W 7763   8.885   5.980  10.875 -0.0071 -0.0232  0.3278
 4245W        W 7764   0.952   2.143   2.062  0.3019 -0.1684 -0.0460
 4246W        W 7765   9.537   2.210   3.038  0.1766  0.1456  0.3474
 4247W        W 7766   1.262   4.312   9.131  0.0338 -0.2106 -0.1263
 4248W        W 7767   6.916   8.687   7.989 -0.1485  0.0932  0.2377
 4249W        W 7768   8.740   5.154   1.554 -0.0007 -0.2501  0.0723
 4250W        W 7769   0.187   9.761   7.373  0.1771 -0.0495  0.2100
 4251W        W 7770   8.110   2.420  10.986  0.1637 -0.0845  0.1132
 4252W        W 7771   3.547   9.200   9.259  0.4040 -0.1642  0.1237
 4253W        W 7772   0.166   1.385  11.471  0.0238 -0.1210  0.0784
 4254W        W 7773   6.000   6.434  11.388  0.1985  0.2520  0.1576
 4255W        W 7774   2.552   7.442   0.133  0.1829  0.1964 -0.0567
 4256W        W 7775   3.306   7.581  11.723 -0.1516  0.0064  0.0686
 4257W        W 7776   8.518   1.731   0.252  0.0627 -0.0776 -0.3580
 4258W        W 7777   4.803   8.977   0.726  0.1110 -0.2294 -0.0171
 4259W        W 7778   4.609   9.252  10.130 -0.2257  0.1018  0.0754
 4260W        W 7779   7.763   2.219   2.489  0.2506  0.0696 -0.1470
 4261W        W 7780   0.496   8.942   3.464  0.2273 -0.0169  0.1596
 4262W        W 7781   7.237   0.648   2.802 -0.0464  0.0650 -0.0144
 4263W        W 7782   8.487   4.689   1.182  0.2696 -0.3315 -0.0715
 4264W        W 7783   7.148   8.223   1.877 -0.2501 -0.0715  0.0808
 4265W        W 7784   0.496   4.939   0.661 -0.0847 -0.2543  0.1053
 4266W        W 7785   5.096   0.159   1.263 -0.3170  0.1485 -0.1582
 4267W        W 7786   3.749   2.064  10.904 -0.0239  0.2922 -0.0086
 4268W        W 7787   5.686   2.685   1.603  0.1052 -0.1980 -0.0352
 4269W        W 7788   7.451   1.060   2.976  0.2013 -0.1556 -0.2393
 4270W        W 7789   9.810   4.589   8.961 -0.0643 -0.1491  0.4742
 4271W        W 7790   0.939   1.285   9.642 -0.2529 -0.0715  0.2249
 4272W        W 7791   0.737   8.113   2.514  0.0583  0.0822  0.0875
 4273W        W 7792   4.631   3.600  11.386  0.2387  0.0279 -0.2073
 4274W        W 7793   1.348   7.429   9.411 -0.1478 -0.1265 -0.0595
 4275W        W 7794   9.895   3.683  11.778 -0.0208  0.2664 -0.1941
 4276W        W 7795   0.514   1.810  10.433 -0.2040 -0.0852  0.0794
 4277W        W 7796   7.923   2.022   9.677  0.3533  0.2590  0.4786
 4278W        W 7797   1.245   5.177  10.214  0.0698 -0.2731 -0.1024
 4279W        W 7798   0.262   1.574   0.316 -0.0578 -0.2101  0.0514
 4280W        W 7799   9.163   1.795   2.417  0.1851  0.1217 -0.0218
 4281W        W 7800   3.438   1.806   0.425 -0.1573  0.1560  0.1197
 4282W        W 7801   0.500   6.349   1.761  0.0542  0.1251 -0.0021
 4283W        W 7802   6.322   5.524  10.176 -0.0492 -0.0017  0.1149
 4284W        W 7803   4.779   4.228   1.115  0.1509 -0.0188 -0.2546
 4285W        W 7804   7.106   4.189  10.818  0.0035  0.2237 -0.0088
 4286W        W 7805   4.137   8.631   1.060  0.1567 -0.1058 -0.2152
 4287W        W 7806   8.540   3.924  10.444 -0.2011 -0.0348  0.0469
 4288W        W 7807   2.655   8.485   0.674  0.0387 -0.0404  0.0092
 4289W        W 7808   7.900   8.584   0.023 -0.1229 -0.1577  0.2921
 4290W        W 7809   8.016   8.019   2.753 -0.1663  0.3600  0.2983
 4291W        W 7810   7.319   6.349  11.114 -0.0058  0.0740 -0.1800
 4292W        W 7811   2.378   0.885  11.367 -0.1638 -0.0359  0.2994
 4293W        W 7812   2.846   0.159   1.290 -0.1300 -0.2596 -0.0562
 4294W        W 7813   6.940   2.694   8.030 -0.1990  0.1825 -0.1293
 4295W        W 7814   7.718   5.855   9.493 -0.3696 -0.0495 -0.0741
 4296W        W 7815   8.974   6.400   2.197  0.1472 -0.2105 -0.2193
 4297W        W 7816   3.758   0.370  10.476 -0.2718 -0.0210  0.2631
 4298W        W 7817   8.723   7.134   3.098 -0.2373  0.0306  0.0419
 4299W        W 7818   2.889   9.936  10.288 -0.0986 -0.2396 -0.0077
 4300W        W 7819   7.061   4.654   9.611  0.1039  0.2412 -0.0576
 4301W        W 7820   3.962   0.731   7.848 -0.0454 -0.1955  0.2355
 4302W        W 7821   0.341   8.081   8.872 -0.2952  0.0724  0.0871
 4303W        W 7822   1.990   0.481   8.225 -0.1305 -0.0056 -0.1613
 4304W        W 7823   2.798   8.115   3.524 -0.0435  0.0608  0.1394
 4305W        W 7824   9.791   0.831  10.414 -0.3134 -0.1374  0.2518
 4306W        W 7825   8.948   7.963   8.543 -0.0981 -0.0544  0.1166
 4307W        W 7826   7.400   8.010   0.417  0.0705  0.2546 -0.2813
 4308W        W 7827   9.448   8.506   7.676 -0.0297 -0.3375 -0.1293
 4309W        W 7828   9.044   0.664  10.095  0.0831  0.0417 -0.0278
 4310W        W 7829   2.489   4.335   8.945  0.0241  0.0108  0.2450
 4311W        W 7830   8.460   9.139   9.866 -0.3222 -0.2134 -0.0538
 4312W        W 7831   3.216   3.123   2.448  0.0513  0.0606  0.1683
 4313W        W 7832   2.635   0.133  11.832  0.0548  0.0936 -0.1911
 4314W        W 7833   5.283   3.564   3.325 -0.1012  0.1639  0.2666
 4315W        W 7834   6.913   6.499   7.533  0.0658 -0.0211  0.1042
 4316W        W 7835   8.690   5.389   3.623 -0.0935  0.1445  0.2954
 4317W        W 7836   9.753   9.941   8.695 -0.0861 -0.1059  0.0127
 4318W        W 7837   2.455   8.758   8.275  0.1950  0.0994 -0.0145
 4319W        W 7838   0.429   7.860   8.402 -0.0264 -0.0295  0.1497
 4320W        W 7839   6.582   0.531   3.246 -0.1839 -0.1165 -0.0912
 4321W        W 7840   3.465   4.175   1.814 -0.2385 -0.0917  0.1142
 4322W        W 7841   5.412   9.107   2.259  0.0818 -0.1692 -0.0979
 4323W        W 7842   8.658   9.918   9.144  0.4192 -0.0314 -0.0646
 4324W        W 7843   4.109   0.546   3.116 -0.0683  0.2655 -0.0622
 4325W        W 7844   0.498   1.841   2.144  0.0922  0.0908 -0.1614
 4326W        W 7845   4.521   0.256   3.376  0.3410 -0.1395 -0.2615
 4327W        W 7846   0.909   2.568  10.269  0.3633  0.1339 -0.0642
 4328W        W 7847   3.704   0.951  11.503 -0.0604  0.1508 -0.0645
 4329W        W 7848   6.627   8.455  11.467 -0.0704  0.0679 -0.0326
 4330W        W 7849   2.490   9.360  11.332 -0.0922 -0.1173  0.2833
 4331W        W 7850   8.345   9.786   8.758 -0.0568 -0.0641 -0.0406
 4332W        W 7851   9.578   8.129   2.613 -0.2222 -0.0986  0.0141
 4333W        W 7852   0.745   3.953   0.129 -0.0316  0.2408 -0.0432
 4334W        W 7853   9.733   5.540   3.077 -0.0536 -0.0357 -0.2037
 4335W        W 7854   1.583   0.576   9.730  0.0323  0.1760 -0.0810
 4336W        W 7855   3.061   2.486  11.389  0.0337  0.0835  0.0783
 4337W        W 7856   1.371   6.522  10.692 -0.0444  0.1562 -0.2116
 4338W        W 7857   9.338   1.846   3.456 -0.1553 -0.4260 -0.0144
 4339W        W 7858   5.839   9.798   9.941 -0.0781  0.0637 -0.1005
 4340W        W 7859   9.586   6.717  10.230  0.1009  0.0805  0.1370
 4341W        W 7860   4.606   7.569   8.343 -0.0501 -0.0599 -0.1685
 4342W        W 7861   9.931   6.987  10.000 -0.1857 -0.1234 -0.0560
 4343W        W 7862   9.447   5.641   0.309 -0.2490 -0.1517  0.1740
 4344W        W 7863   5.421   8.701   9.571 -0.0935  0.1095  0.2017
 4345W        W 7864   4.735   2.763   9.878 -0.0697  0.1424 -0.2305
 4346W        W 7865   2.843   5.878   1.344  0.0034  0.1670 -0.0772
 4347W        W 7866   9.501   6.728   0.622  0.0906  0.0673  0.1224
 4348W        W 7867   4.898   7.225   2.048 -0.1883  0.1063  0.2061
 4349W        W 7868   8.359   7.684  11.743  0.0067 -0.0205 -0.0846
 4350W        W 7869   6.087   4.820   7.827 -0.1002  0.0824  0.0506
 4351W        W 7870   2.981   3.135   3.972  0.3732  0.1787 -0.1211
 4352W        W 7871   7.321   3.812   8.648 -0.6391  0.2088 -0.2564
 4353W        W 7872   3.799   0.944   8.797 -0.3951 -0.2613 -0.1620
 4354W        W 7873   4.901   4.308   2.532  0.0163  0.0491  0.2621
 4355W        W 7874   6.584   9.158   1.335 -0.1748 -0.1541  0.3272
 4356W        W 7875   5.070   3.343   1.418  0.0033 -0.4017  0.3612
 4357W        W 7876   3.121   5.210   2.273 -0.2874  0.2717 -0.2299
 4358W        W 7877   7.726   5.507  10.444  0.1601 -0.0501  0.3314
 4359W        W 7878   5.711   1.310   2.206  0.0666  0.1681  0.3124
 4360W        W 7879   6.271   4.390   0.585 -0.2055 -0.1109  0.0040
 4361W        W 7880   5.585   8.978  11.844 -0.1806  0.1599 -0.2361
 4362W        W 7881   6.801   9.601   1.041 -0.2754  0.2428  0.3495
 4363W        W 7882   4.309   4.959   1.266 -0.0750 -0.1581 -0.2304
 4364W        W 7883   9.239   8.564   0.302  0.0776  0.2842 -0.0291
 4365W        W 7884   0.118   0.300   9.189  0.0133 -0.0467 -0.0448
 4366W        W 7885   4.090   6.435   1.919 -0.0845  0.0405 -0.1185
 4367W        W 7886   6.657   8.775   8.882  0.0229 -0.3449  0.1874
 4368W        W 7887   7.028   4.897   3.241 -0.1316 -0.0449  0.0541
 4369W        W 7888   1.650   7.226   8.974  0.3074  0.0204 -0.0230
 4370W        W 7889   7.154   9.834   1.314 -0.1969  0.0965  0.0718
 4371W        W 7890   9.489   8.525   1.222  0.1185  0.2123 -0.2280
 4372W        W 7891   7.267   2.302   0.107 -0.2225  0.1110  0.0550
 4373W        W 7892   8.773   0.485   2.172 -0.2485 -0.1904 -0.4697
 4374W        W 7893   8.890   9.640   3.043  0.1235  0.0994  0.1057
 4375W        W 7894   2.395   2.816   1.784  0.0846  0.2132  0.1193
 4376W        W 7895   0.299   1.087  10.398  0.2592  0.3394 -0.0831
 4377W        W 7896   9.339   5.335   8.902 -0.2607  0.0909 -0.0511
 4378W        W 7897   8.947   6.535  11.786  0.2211 -0.0184  0.0677
 4379W        W 7898   4.244   7.671   9.223  0.2832 -0.1796  0.0459
 4380W        W 7899   9.259   6.376   0.901 -0.2301 -0.1712  0.1606
 4381W        W 7900   3.889   2.392  11.609  0.0627 -0.0004  0.1908
 4382W        W 7901   1.579   4.787   8.902 -0.2412  0.0475 -0.0224
 4383W        W 7902   6.302   3.768  10.205  0.1165 -0.0525  0.1235
 4384W        W 7903   2.840   9.736   2.152  0.2026 -0.1001  0.0169
 4385W        W 7904   5.130   7.584   2.997  0.0840  0.3422 -0.1051
 4386W        W 7905   9.098   4.610   7.800 -0.3667 -0.0109  0.1736
 4387W        W 7906   6.449   4.812  11.557  0.1838 -0.2978  0.1555
 4388W        W 7907   0.091   9.606  10.075 -0.1625  0.0180 -0.1756
 4389W        W 7908   1.348   4.321   3.061  0.0054  0.0928  0.1403
 4390W        W 7909   9.231   5.046  10.584 -0.1004 -0.1826 -0.0704
 4391W        W 7910   5.109   0.607  11.074 -0.2534 -0.0908  0.4119
 4392W        W 7911   2.195   8.878  11.388 -0.0389  0.1304  0.1963
 4393W        W 7912   2.892   1.134   0.078 -0.0092  0.0054  0.3188
 4394W        W 7913   0.381   3.635   1.097 -0.1870 -0.4798 -0.2503
 4395W        W 7914   5.160   2.776   8.991 -0.0907  0.0787  0.0003
 4396W        W 7915   1.968   9.604   9.769 -0.1429  0.1361 -0.1513
 4397W        W 7916   5.290   3.661  10.167 -0.1002 -0.3476 -0.0280
 4398W        W 7917   5.964   7.998   8.880  0.0106 -0.0730  0.1894
 4399W        W 7918   6.089   9.765   3.262 -0.3630 -0.0965 -0.0352
 4400W        W 7919   2.526   5.235   0.559 -0.0702  0.0592 -0.0303
 4401W        W 7920   7.317   3.053  10.164  0.2951 -0.4652  0.3958
 4402W        W 7921   3.833   6.854   2.762  0.1192  0.2826  0.2003
 4403W        W 7922   3.419   2.665   9.325  0.0637  0.2505  0.2902
 4404W        W 7923   7.792   0.987   0.074 -0.1514  0.1490 -0.1184
 4405W        W 7924   5.581   2.993   2.014 -0.1471 -0.2018  0.3481
 4406W        W 7925   4.811   0.740   2.608 -0.1011 -0.1185  0.3680
 4407W        W 7926   6.943   7.325   8.457 -0.0209 -0.1689 -0.2408
 4408W        W 7927   5.810   7.625   3.070 -0.0565 -0.0558  0.2026
 4409W        W 7928   9.268   7.111   1.833  0.0080  0.0684  0.1693
 4410W        W 7929   4.651   2.752  11.077 -0.0113  0.2797  0.1896
 4411W        W 7930   0.457   7.804   1.558  0.0718  0.1521 -0.0380
 4412W        W 7931   9.523   8.694  11.042 -0.2137 -0.0547 -0.0722
 4413W        W 7932   7.860   6.940   7.595 -0.0209  0.1766 -0.0190
 4414W        W 7933   4.365   4.976   0.171 -0.2778  0.2619 -0.2473
 4415W        W 7934   4.388   7.648   9.783 -0.1048 -0.1598  0.1069
 4416W        W 7935   6.196   1.149   2.147  0.1424  0.2212 -0.1234
 4417W        W 7936   2.668   1.929  10.615 -0.2910 -0.2690  0.1438
 4418W        W 7937   0.758   8.263  10.459  0.1517  0.1180  0.0785
 4419W        W 7938   9.375   8.567   9.054 -0.1174 -0.2404  0.4314
 4420W        W 7939   7.270   0.678   3.906  0.2276  0.0479 -0.2596
 4421W        W 7940   2.313   2.217   9.718 -0.1388  0.0107 -0.2199
 4422W        W 7941   0.257   9.860   3.141 -0.1710  0.1074  0.0123
 4423W        W 7942   7.941   9.379  11.607  0.0708 -0.1044 -0.0487
 4424W        W 7943   9.694   0.768   8.303 -0.0928  0.2108  0.0088
 4425W        W 7944   1.950   4.850  10.066 -0.1543 -0.2523  0.1357
 4426W        W 7945   9.683   2.025   4.568  0.2541  0.4064 -0.0638
 4427W        W 7946   3.590   8.735   9.429  0.1376 -0.1278  0.2437
 4428W        W 7947   0.652   9.891  10.876  0.0564 -0.2846  0.0429
 4429W        W 7948   5.490   0.709   2.473 -0.0697  0.0406 -0.2979
 4430W        W 7949   7.704   1.222   1.665 -0.0264  0.2633 -0.3101
 4431W        W 7950   5.880   3.028  11.248  0.2112 -0.1251  0.0772
 4432W        W 7951   8.254   5.091  10.083 -0.0356  0.0689  0.1592
 4433W        W 7952   6.948   9.142   8.653 -0.0648 -0.5418 -0.1311
 4434W        W 7953   2.695   0.581   1.644 -0.0732  0.0052  0.0474
 4435W        W 7954   3.584   1.420   0.746  0.1055  0.1609  0.0080
 4436W        W 7955   4.482   1.091   0.426 -0.0471  0.0811 -0.2177
 4437W        W 7956   8.532   0.728   9.828  0.1186 -0.1434  0.0542
 4438W        W 7957   2.629   5.969   0.807 -0.1497  0.2339 -0.2346
 4439W        W 7958   3.377   2.959   3.677 -0.0095  0.2795 -0.1142
 4440W        W 7959   6.586   6.068   3.357  0.0305  0.0250 -0.0451
 4441W        W 7960   9.370   3.027   1.753  0.1091 -0.1988  0.0555
 4442W        W 7961   8.795   2.593   3.938  0.1480 -0.0815  0.1706
 4443W        W 7962   9.117   7.726  10.825  0.3851 -0.0066  0.0976
 4444W        W 7963   0.465   4.553   2.820 -0.1542 -0.1911  0.1629
 4445W        W 7964   2.914   5.250   3.611  0.2584  0.1923  0.0786
 4446W        W 7965   8.870   7.729  11.714  0.0933 -0.0267 -0.1183
 4447W        W 7966   1.101   4.130  11.088  0.2342  0.1038  0.1125
 4448W        W 7967   1.815   4.742   8.414 -0.0221  0.1183 -0.1064
 4449W        W 7968   0.209   0.842   3.325 -0.1575 -0.3832  0.2361
 4450W        W 7969   8.028   3.077   2.209  0.0783 -0.1935  0.0866
 4451W        W 7970   4.530   5.113   2.122  0.2267 -0.0297  0.0967
 4452W        W 7971   1.630   5.731  10.787 -0.0956 -0.1108 -0.3215
 4453W        W 7972   1.529   3.529  11.210  0.0678 -0.0425 -0.0709
 4454W        W 7973   9.165   4.659   3.103  0.0374  0.0368 -0.0920
 4455W        W 7974   2.522   3.806   8.478  0.1106 -0.1303  0.0721
 4456W        W 7975   2.437   3.903  10.843 -0.2345 -0.0944 -0.1078
 4457W        W 7976   6.232   2.370   1.366 -0.3541 -0.1708 -0.0264
 4458W        W 7977   7.112   8.492   8.944 -0.2129 -0.2273  0.1824
 4459W        W 7978   4.125   0.120   9.502  0.1767  0.0082  0.1282
 4460W        W 7979   7.694   4.402   7.477 -0.0386  0.2831 -0.0862
 4461W        W 7980   1.709   4.062   1.270  0.1863  0.0094 -0.1595
 4462W        W 7981   8.098   0.476   9.894 -0.0531 -0.0898  0.1000
 4463W        W 7982   2.929   7.085  10.616  0.2803 -0.1033  0.4840
 4464W        W 7983   6.628   0.765   0.683 -0.1451 -0.1208 -0.0667
 4465W        W 7984   3.476   8.302   9.619 -0.0353 -0.2179  0.0279
 4466W        W 7985   4.080   9.359  11.501  0.0904 -0.3085 -0.2168
 4467W        W 7986   9.609   3.886   1.671 -0.1339  0.0836  0.1544
 4468W        W 7987   2.753   9.068  10.547 -0.2032 -0.2561 -0.1988
 4469W        W 7988   3.383   4.632   8.691  0.1270  0.1421  0.0822
 4470W        W 7989   4.317   4.079   8.648  0.0139  0.2395  0.0377
 4471W        W 7990   5.372   8.461   0.706  0.5008 -0.0509  0.2992
 4472W        W 7991   8.663   5.631   0.920  0.0993 -0.2246  0.0287
 4473W        W 7992   0.687   0.014   8.828 -0.2689 -0.0148  0.1741
 4474W        W 7993   8.026   2.347   9.276  0.2932 -0.0082  0.2017
 4475W        W 7994   4.369   9.820   0.701 -0.2946  0.1606 -0.0406
 4476W        W 7995   4.949   7.218   8.232 -0.0972  0.1579 -0.0401
 4477W        W 7996   0.088   2.401  11.044 -0.1371  0.1353  0.0893
 4478W        W 7997   7.729   3.298   1.764  0.1175  0.3752 -0.1614
 4479W        W 7998   5.499   3.045   2.955 -0.0380 -0.0404  0.1510
 4480W        W 7999   8.080   9.867   1.421  0.2412  0.2365 -0.2948
 4481W        W 8000   3.508   3.276   1.970  0.1957 -0.2501 -0.1016
 4482W        W 8001   8.128   2.175   1.915  0.0122  0.2135  0.0346
 4483W        W 8002   1.730   8.054   2.443  0.0595 -0.0024 -0.1737
 4484W        W 8003   9.747   9.117   1.014 -0.2345 -0.0068 -0.1039
 4485W        W 8004   2.801   7.013   0.901  0.1119 -0.0393  0.2953
 4486W        W 8005   3.801   6.193  10.277  0.1432 -0.0175  0.6506
 4487W        W 8006   2.537   7.775   2.649  0.3030 -0.0458 -0.0437
 4488W        W 8007   2.482   5.921   6.005 -0.0192 -0.0320  0.2091
 4489W        W 8008   0.226   3.297   1.690 -0.1693 -0.0569  0.2190
 4490W        W 8009   2.435   9.768   1.109 -0.2072  0.1021  0.0966
 4491W        W 8010   0.589   2.251   2.379  0.3663  0.0174  0.0477
 4492W        W 8011   2.624   4.298  11.613 -0.4424 -0.0456  0.3121
 4493W        W 8012   0.035   9.297   1.648  0.2781  0.1166 -0.1092
 4494W        W 8013   7.726   9.495   2.116 -0.0666 -0.0135  0.1848
 4495W        W 8014   4.623   2.943  10.476 -0.1815  0.0176 -0.1807
 4496W        W 8015   4.304   8.004   3.537  0.1453  0.3077 -0.2296
 4497W        W 8016   5.035   8.133   0.088 -0.2136 -0.0335  0.1602
 4498W        W 8017   4.373   7.232   9.452 -0.1007 -0.0638  0.0652
 4499W        W 8018   8.024   4.079   3.778  0.1328 -0.3678  0.2141
 4500W        W 8019   5.935   8.489   9.595  0.2399 -0.3175 -0.3600
 4501W        W 8020   9.908   3.611   1.399 -0.0434 -0.1714 -0.0718
 4502W        W 8021   6.103   6.078   3.446 -0.1319  0.1244  0.2095
 4503W        W 8022   9.660   2.784  11.737 -0.1139 -0.2849  0.3427
 4504W        W 8023   1.120   7.365   2.334 -0.0170 -0.1193  0.2499
 4505W        W 8024   1.956   4.540   0.404  0.0551 -0.0033 -0.0304
 4506W        W 8025   6.474   6.573   0.534 -0.2192  0.1739  0.2932
 4507W        W 8026   8.196   5.490   7.688  0.0270 -0.1094  0.1534
 4508W        W 8027   0.171   1.938  10.790  0.1706  0.2117 -0.0617
 4509W        W 8028   4.228   5.961   1.246  0.1277  0.1545  0.1085
 4510W        W 8029   5.767   2.234   1.430 -0.0244  0.1842 -0.0135
 4511W        W 8030   9.187   8.332  10.811 -0.0143 -0.0103  0.3825
 4512W        W 8031   1.986   3.324   9.404 -0.1296  0.0658 -0.2045
 4513W        W 8032   9.244   3.391   9.943 -0.0726 -0.0552 -0.0110
 4514W        W 8033   8.244   6.979   0.274 -0.0010 -0.1351 -0.0265
 4515W        W 8034   3.624   1.652   2.212 -0.3818  0.1211  0.1155
 4516W        W 8035   6.471   9.192   3.283 -0.0443 -0.2415 -0.2406
 4517W        W 8036   5.467   1.883   7.886  0.1422 -0.0338  0.3452
 4518W        W 8037   1.314   3.467  11.751  0.1191  0.1592  0.1350
 4519W        W 8038   9.696   9.788   9.234  0.4081 -0.1697  0.1533
 4520W        W 8039   3.506   4.227   2.740 -0.5303 -0.0742  0.4082
 4521W        W 8040   5.099   1.267   2.901  0.1463 -0.0138 -0.1562
 4522W        W 8041   1.860   8.161   7.371 -0.0098 -0.1285 -0.2166
 4523W        W 8042   2.654   2.076   0.122 -0.1239 -0.1118  0.0042
 4524W        W 8043   2.087   1.955   0.100  0.1375 -0.2061 -0.3468
 4525W        W 8044   9.716   6.896  11.387  0.2033 -0.1810 -0.4393
 4526W        W 8045   2.260   3.878   1.322 -0.3899 -0.1259 -0.3179
 4527W        W 8046   4.213   2.118  11.186  0.3372 -0.0780 -0.0686
 4528W        W 8047   3.119   9.238   2.027 -0.2427  0.1234  0.1221
 4529W        W 8048   0.838   5.241  11.428  0.1212 -0.0299  0.0351
 4530W        W 8049   7.901   0.229   6.861 -0.3031  0.2505  0.0051
 4531W        W 8050   0.685   6.344   3.151 -0.0645  0.2025 -0.0965
 4532W        W 8051   7.264   5.532  11.656 -0.2021  0.0797  0.0711
 4533W        W 8052   1.959   0.651   0.395 -0.1237  0.0385 -0.0816
 4534W        W 8053   9.064   4.315   2.736  0.3127 -0.2543 -0.0080
 4535W        W 8054   1.954   5.779  11.125  0.0461  0.2666 -0.1314
 4536W        W 8055   0.189   2.115   3.679  0.1591 -0.3469 -0.1243
 4537W        W 8056   4.898   4.182  10.794  0.0545  0.1638  0.2770
 4538W        W 8057   4.728   1.249   0.789 -0.0242  0.1849  0.1964
 4539W        W 8058   4.438   1.819   1.498 -0.2961 -0.0713 -0.5293
 4540W        W 8059   2.924   2.029   0.550 -0.2222  0.1974 -0.3793
 4541W        W 8060   2.276   6.823  10.028  0.2069 -0.1783 -0.0322
 4542W        W 8061   7.108   1.844   9.289  0.2614  0.1933 -0.1380
 4543W        W 8062   1.007   5.684  10.988  0.1184 -0.0766  0.1065
 4544W        W 8063   3.861   1.456  10.616 -0.0360 -0.0064 -0.0208
 4545W        W 8064   9.042   8.653   7.820  0.0982 -0.1735  0.1336
 4546W        W 8065   9.000   9.349   0.310  0.1280 -0.1321 -0.0252
 4547W        W 8066   7.685   8.436   0.483 -0.2095  0.1562  0.1754
 4548W        W 8067   4.711   0.158  11.450  0.0121 -0.0395 -0.0679
 4549W        W 8068   8.776   8.983   0.569 -0.3350  0.2500  0.0325
 4550W        W 8069   7.528   8.100   9.679 -0.1564 -0.2435  0.0843
 4551W        W 8070   5.070   3.558  11.174 -0.5838  0.0377 -0.0673
 4552W        W 8071   0.096   6.793  11.045  0.0646 -0.0152  0.1778
 4553W        W 8072   7.428   4.486   7.909  0.2197  0.2308  0.0374
 4554W        W 8073   8.349   8.377  11.064  0.0571 -0.0458 -0.0707
 4555W        W 8074   0.444   6.772   1.976 -0.0571 -0.0512 -0.1875
 4556W        W 8075   1.804   3.826  10.295 -0.1928 -0.0112  0.1147
 4557W        W 8076   1.047   9.372   1.710 -0.3740  0.0596 -0.0347
 4558W        W 8077   9.498   6.869   3.049 -0.1403 -0.1213 -0.2452
 4559W        W 8078   2.671   5.416   3.229 -0.0277 -0.2817  0.1284
 4560W        W 8079   2.004   3.220   2.127 -0.0615 -0.0313 -0.1684
 4561W        W 8080   5.087   8.647   9.215 -0.2184 -0.0838 -0.0689
 4562W        W 8081   6.840   8.169   1.470 -0.0870 -0.2983  0.2305
 4563W        W 8082   7.421   8.681   7.905 -0.1130 -0.1081 -0.0105
 4564W        W 8083   0.119   2.071   2.371  0.0755  0.0937  0.0271
 4565W        W 8084   7.636   9.805   8.332  0.1579  0.0320  0.1493
 4566W        W 8085   8.951   0.320  11.202 -0.0214  0.0809  0.0235
 4567W        W 8086   3.742   6.517   2.364  0.4388 -0.0991  0.2782
 4568W        W 8087   6.723   7.271   0.509  0.0027 -0.0635  0.5269
 4569W        W 8088   8.112   0.331   2.710 -0.4912  0.0445 -0.0934
 4570W        W 8089   9.949   3.278   7.369 -0.2036  0.0608  0.1734
 4571W        W 8090   3.630   0.577   7.486 -0.0259  0.0335 -0.1062
 4572W        W 8091   4.710   1.455   9.384  0.0880  0.0971 -0.0286
 4573W        W 8092   2.248   3.288   1.410  0.2130  0.2534  0.1607
 4574W        W 8093   3.895   6.117  10.744  0.0894 -0.0793 -0.3565
 4575W        W 8094   1.249   4.396   0.004  0.1861 -0.4521  0.2476
 4576W        W 8095   1.941   4.446  11.409  0.0875  0.2756 -0.0673
 4577W        W 8096   7.740   3.119  10.458 -0.1920 -0.0155  0.0736
 4578W        W 8097   8.357   6.038   9.304  0.0576 -0.0694  0.2069
 4579W        W 8098   9.211   0.153   1.740  0.0533  0.2992  0.0702
 4580W        W 8099   4.040   4.696   2.395  0.0384  0.2242 -0.5443
 4581W        W 8100   1.498   9.692  10.443 -0.0204  0.3784 -0.0393
 4582W        W 8101   7.380   1.307   8.589 -0.0881 -0.0492 -0.3035
 4583W        W 8102   4.071   6.649   8.911  0.4409 -0.1737 -0.0750
 4584W        W 8103   0.839   8.284   9.981 -0.0171  0.2115  0.0797
 4585W        W 8104   4.068   2.231   2.684  0.2576  0.3163 -0.0353
 4586W        W 8105   7.853   9.486   7.978 -0.2025 -0.1380  0.0557
 4587W        W 8106   1.316   8.743   3.154  0.3770 -0.2624  0.0413
 4588W        W 8107   7.469   9.909   7.731 -0.1285  0.1461  0.2253
 4589W        W 8108   5.013   0.670   1.157 -0.4496 -0.0165  0.0189
 4590W        W 8109   5.096   7.874   9.236  0.0827 -0.1024 -0.3915
 4591W        W 8110   8.852   3.435   9.201  0.0040 -0.1776 -0.0202
 4592W        W 8111   8.157   0.835   9.458  0.1600  0.0334 -0.0854
 4593W        W 8112   4.431   8.394   3.246 -0.1939 -0.3653  0.2398
 4594W        W 8113   1.836   7.727   9.531  0.2937 -0.4315  0.1032
 4595W        W 8114   7.847   6.176   8.115  0.0279 -0.0666 -0.1387
 4596W        W 8115   3.259   7.785   8.983  0.2727  0.1258  0.3137
 4597W        W 8116   8.788   4.292  11.585 -0.0565  0.0660  0.0720
 4598W        W 8117   7.055   7.664   0.503 -0.1516  0.0662 -0.0363
 4599W        W 8118   6.408   5.693   0.705  0.1800 -0.0591 -0.2185
 4600W        W 8119   2.939   1.520  10.438  0.0033 -0.1634 -0.0357
 4601W        W 8120   1.748   7.183  10.803  0.0756 -0.1803 -0.0543
 4602W        W 8121   0.947   6.615  11.063  0.0505 -0.0628 -0.0390
 4603W        W 8122   9.489   9.440   0.202  0.1038 -0.1776  0.0139
 4604W        W 8123   9.726   4.594  11.342 -0.1607 -0.0227 -0.3280
 4605W        W 8124   2.456   1.620  10.295  0.0536 -0.0613  0.0788
 4606W        W 8125   6.813   5.461   1.052 -0.1365 -0.0042 -0.0619
 4607W        W 8126   2.240   2.229   1.285  0.0532  0.3394  0.1466
 4608W        W 8127   5.031   8.409   8.635  0.2731 -0.2740  0.0127
 4609W        W 8128   1.522   8.606  11.828  0.1699 -0.0599 -0.1637
 4610W        W 8129   4.484   4.145   9.156  0.2447  0.2098 -0.1079
 4611W        W 8130   0.289   9.182   2.134  0.0852  0.0332  0.2808
 4612W        W 8131   5.537   9.256   1.491 -0.0266 -0.0947  0.0116
 4613W        W 8132   4.924   8.968   8.861 -0.0500 -0.3924  0.0601
 4614W        W 8133   2.409   6.849   9.042  0.3355 -0.2008  0.0786
 4615W        W 8134   0.463   2.296  10.566  0.0906 -0.2419  0.2216
 4616W        W 8135   0.322   9.040  11.054 -0.1991 -0.2875 -0.0190
 4617W        W 8136   4.035   7.148   9.807  0.2647 -0.0306  0.1127
 4618W        W 8137   1.131   2.146  11.249  0.2345 -0.2230 -0.0142
 4619W        W 8138   8.857   0.836   7.347 -0.1015 -0.0343 -0.0526
 4620W        W 8139   8.407   6.350  11.467  0.0356  0.1760 -0.0260
 4621W        W 8140   1.787   7.472   7.974 -0.1821 -0.1217  0.0006
 4622W        W 8141   0.635   3.993   8.345  0.2160  0.0497 -0.0899
 4623W        W 8142   2.141   1.155   1.274  0.1883 -0.0806 -0.3506
 4624W        W 8143   4.736   6.832  10.221  0.0812  0.3040  0.1668
 4625W        W 8144   9.324   2.470   1.604 -0.1292  0.0829  0.0482
 4626W        W 8145   0.760   8.999   2.054 -0.2523 -0.0671 -0.1617
 4627W        W 8146   9.521   1.897  10.196  0.0629  0.0832 -0.0738
 4628W        W 8147   3.480   7.385   9.143 -0.0108  0.1779 -0.1094
 4629W        W 8148   8.855   6.954   2.046  0.0004  0.1504  0.0779
 4630W        W 8149   4.573   6.449   2.918  0.3350 -0.0215 -0.1341
 4631W        W 8150   2.347   3.520   8.887  0.0115 -0.1913  0.0405
 4632W        W 8151   5.391   8.139   8.878  0.0031 -0.0595 -0.1513
 4633W        W 8152   1.611   7.873  11.429  0.0290  0.1496  0.5363
 4634W        W 8153   7.608   3.246   1.244  0.0352  0.1197 -0.1031
 4635W        W 8154   8.393   3.345  11.735 -0.1585  0.0963  0.4367
 4636W        W 8155   2.000   1.864  10.121  0.0422 -0.1372 -0.0778
 4637W        W 8156   1.360   5.572   2.782 -0.0532 -0.4725  0.0202
 4638W        W 8157   1.327   2.786   8.862 -0.0997  0.2213  0.2512
 4639W        W 8158   4.595   8.629  10.228 -0.2062 -0.0551  0.1750
 4640W        W 8159   9.530   7.185   7.035  0.2964 -0.1363 -0.0430
 4641W        W 8160   3.819   1.398  11.677 -0.1782  0.0306  0.0976
 4642W        W 8161   0.628   1.807   7.433 -0.0002 -0.2451 -0.1806
 4643W        W 8162   3.740   7.788   1.975  0.1547 -0.0027 -0.0546
 4644W        W 8163   0.334   6.475   2.426 -0.1236  0.0112  0.1788
 4645W        W 8164   0.743   5.849   3.152 -0.1312 -0.1645 -0.3310
 4646W        W 8165   8.009   8.471   9.932  0.1678  0.1480  0.1803
 4647W        W 8166   1.653   8.339   8.300 -0.2675  0.0819 -0.1413
 4648W        W 8167   1.463   3.543   0.547 -0.1759  0.1945 -0.3203
 4649W        W 8168   4.646   9.038   8.422  0.1317 -0.2476 -0.2245
 4650W        W 8169   0.662   1.159   0.135 -0.0463  0.4709  0.2783
 4651W        W 8170   4.808   2.498   0.435  0.2746 -0.0917  0.0816
 4652W        W 8171   6.822   8.664   0.887  0.3202  0.1064  0.1372
 4653W        W 8172   9.811   2.857   7.703  0.0467  0.1899 -0.2376
 4654W        W 8173   8.729   4.639   9.493 -0.0394 -0.0059  0.2117
 4655W        W 8174   7.237   9.540   8.065 -0.0205  0.1412 -0.0360
 4656W        W 8175   5.854   6.362   9.546  0.1326  0.1224 -0.0792
 4657W        W 8176   2.464   7.766  11.209 -0.2493  0.2308 -0.1658
 4658W        W 8177   9.375   5.060   3.818 -0.0299  0.1413  0.2787
 4659W        W 8178   9.823   8.831   1.482  0.0601 -0.1570  0.1842
 4660W        W 8179   8.551   1.604   9.733 -0.1588 -0.1143 -0.2147
 4661W        W 8180   8.938   4.542   2.200 -0.2401  0.4910  0.0515
 4662W        W 8181   3.221   7.514   1.454  0.0317 -0.1450 -0.2495
 4663W        W 8182   9.247   7.255   2.831  0.2892  0.0283  0.1676
 4664W        W 8183   8.549   4.040   3.906 -0.0149 -0.3241 -0.0660
 4665W        W 8184   6.392   9.903   1.163  0.2192 -0.1404  0.1163
 4666W        W 8185   1.915   4.364  10.238 -0.1104 -0.2965 -0.2873
 4667W        W 8186   9.381   9.753   2.907  0.1084 -0.1212  0.2344
 4668W        W 8187   6.849   0.162   1.007  0.5517  0.1359  0.0780
 4669W        W 8188   2.128   9.875   0.734  0.2893  0.4273  0.4156
 4670W        W 8189   8.111   9.731   1.903  0.1036  0.4990  0.1674
 4671W        W 8190   5.517   8.250   2.771  0.0622  0.3721 -0.1534
 4672W        W 8191   6.108   5.302   9.068  0.4462 -0.1015 -0.0559
 4673W        W 8192   4.707   9.234  10.980 -0.0128 -0.3002 -0.1197
 4674W        W 8193   6.367   3.210   9.706  0.1986  0.2965 -0.3027
 4675W        W 8194   3.104   5.239   9.667 -0.0684  0.1102 -0.2843
 4676W        W 8195   7.841   7.899   7.766 -0.3970 -0.2163 -0.1086
 4677W        W 8196   6.683   1.865   9.051 -0.0370 -0.1870 -0.2862
 4678W        W 8197   4.067   8.195   0.785  0.0395 -0.1565 -0.0655
 4679W        W 8198   9.079   6.056   1.655  0.1081  0.1205  0.1142
 4680W        W 8199   5.335   6.430   0.239  0.4153 -0.1144  0.2672
 4681W        W 8200   2.345   1.857   0.490  0.0846 -0.0138 -0.2099
 4682W        W 8201   3.629   5.231   9.772 -0.0409 -0.2130  0.1539
 4683W        W 8202   7.675   5.463   1.054  0.0404 -0.0202 -0.1595
 4684W        W 8203   8.015   0.887   1.827 -0.1401 -0.2053  0.4293
 4685W        W 8204   3.222   7.943   1.189  0.0977 -0.0051 -0.0795
 4686W        W 8205   4.279   3.599   9.240  0.2089 -0.3959  0.1645
 4687W        W 8206   6.226   0.788   8.225 -0.1686  0.0233 -0.2104
 4688W        W 8207   9.910   3.854   2.967 -0.0690 -0.0698 -0.2427
 4689W        W 8208   4.938   4.276   0.084 -0.4552 -0.2338  0.0617
 4690W        W 8209   0.554   2.210   0.773  0.0370 -0.0174  0.1364
 4691W        W 8210   9.281   4.705   1.825  0.0064 -0.1177  0.2612
 4692W        W 8211   6.814   0.465  10.455  0.1540 -0.0898  0.1351
 4693W        W 8212   8.837   5.865   3.700  0.0263  0.2792 -0.0312
 4694W        W 8213   3.212   3.787   0.306  0.2036  0.1926  0.2143
 4695W        W 8214   4.702   2.295   1.598 -0.0760  0.0187 -0.0827
 4696W        W 8215   9.701   3.384   1.895  0.0662  0.1373 -0.1432
 4697W        W 8216   3.684   9.377   1.850  0.0275 -0.2390  0.2258
 4698W        W 8217   1.343   3.772   8.951 -0.1432  0.0161  0.2014
 4699W        W 8218   1.739   7.191   1.657  0.3035  0.0406 -0.0817
 4700W        W 8219   7.841   3.498   2.954  0.1100 -0.0369 -0.1757
 4701W        W 8220   0.097   4.337   3.613  0.1056 -0.0619 -0.0870
 4702W        W 8221   6.506   3.265   0.447 -0.0995  0.1420  0.0235
 4703W        W 8222   6.267   7.261   7.171  0.0903 -0.1856  0.0137
 4704W        W 8223   0.863   4.165   3.193  0.0600  0.1551  0.1743
 4705W        W 8224   6.363   6.798  11.668 -0.2494  0.0187 -0.0969
 4706W        W 8225   9.883   6.779   0.952  0.0151  0.1222 -0.2242
 4707W        W 8226   5.011   4.543   3.437  0.3047 -0.1608  0.0181
 4708W        W 8227   7.801   7.285  11.361 -0.0016  0.4655 -0.4597
 4709W        W 8228   7.162   9.293   2.769  0.0067 -0.0526 -0.1688
 4710W        W 8229   0.657   7.279   1.754  0.0549  0.1609  0.2643
 4711W        W 8230   8.101   1.651  10.350  0.1220 -0.3405 -0.2899
 4712W        W 8231   2.890   4.505  10.379  0.5485  0.1245  0.3536
 4713W        W 8232   1.564   8.758  10.903 -0.1051  0.0716 -0.0751
 4714W        W 8233   4.368   7.914  10.860 -0.2350 -0.1142 -0.3342
 4715W        W 8234   1.418   4.693   9.825  0.2554 -0.0798 -0.1401
 4716W        W 8235   8.827   1.007   3.757 -0.2448  0.0107  0.0021
 4717W        W 8236   7.428   5.241   3.105 -0.3312  0.1106 -0.0985
 4718W        W 8237   8.964   5.295   8.203 -0.1275  0.2395  0.2431
 4719W        W 8238   9.079   1.590  10.635 -0.0362  0.2797  0.0705
 4720W        W 8239   1.704   8.261  11.065 -0.0523 -0.1283  0.0322
 4721W        W 8240   1.781   2.319   0.326 -0.1463  0.1408  0.1630
 4722W        W 8241   6.269   7.120   0.558  0.0794 -0.1571  0.2302
 4723W        W 8242   1.728   3.327   4.276  0.0921 -0.2609  0.0478
 4724W        W 8243   0.837   1.370   2.591  0.2434 -0.1102 -0.2557
 4725W        W 8244   0.309   4.525  11.275 -0.3232  0.0656  0.0858
 4726W        W 8245   6.537   4.637   0.067 -0.1175 -0.4213 -0.0537
 4727W        W 8246   6.819   3.597   2.957 -0.2728  0.0518 -0.0835
 4728W        W 8247   4.340   0.772   3.533 -0.1225 -0.0284  0.0142
 4729W        W 8248   9.080   1.618   0.921  0.1832  0.0083 -0.0786
 4730W        W 8249   7.314   8.451   3.183 -0.2188  0.1584 -0.0962
 4731W        W 8250   4.904   6.682   9.781 -0.0519 -0.2608  0.0230
 4732W        W 8251   0.397   6.939   9.685 -0.0746  0.1051  0.1113
 4733W        W 8252   1.315   4.558   2.553  0.0369  0.2380 -0.0114
 4734W        W 8253   4.428   1.021   7.591 -0.0100 -0.1172  0.2289
 4735W        W 8254   3.621   3.106   1.224 -0.0509  0.2719 -0.4764
 4736W        W 8255   4.904   0.161  10.990  0.0367  0.0108  0.0400
 4737W        W 8256   0.981   1.782  10.033 -0.0135 -0.1102 -0.2205
 4738W        W 8257   3.909   7.022  10.990 -0.0682  0.0466 -0.3265
 4739W        W 8258   7.961   2.221   3.379 -0.0844 -0.1599  0.3966
 4740W        W 8259   3.837   5.023   3.233  0.2459 -0.1198 -0.0232
 4741W        W 8260   1.746   9.059   2.886 -0.1885 -0.3013 -0.1936
 4742W        W 8261   4.554   6.156  11.486 -0.1291 -0.0566 -0.1164
 4743W        W 8262   2.306   3.033   2.503  0.0482 -0.3288 -0.1633
 4744W        W 8263   4.578   9.868   2.067  0.0851  0.4355 -0.3178
 4745W        W 8264   4.241   6.361  10.387 -0.0764 -0.3594 -0.3531
 4746W        W 8265   8.232   8.326  10.519  0.0851 -0.0229 -0.1674
 4747W        W 8266   4.427   2.026   0.452  0.3598 -0.4244 -0.1936
 4748W        W 8267   1.798   8.295  11.541  0.0361  0.3089  0.4195
 4749W        W 8268   9.817   2.467   2.653 -0.1065 -0.1046  0.0324
 4750W        W 8269   6.602   2.924   9.075 -0.0336  0.4139  0.0230
 4751W        W 8270   7.467   0.873  10.235  0.1379 -0.0113 -0.3286
 4752W        W 8271   4.554   4.614   0.465 -0.2178  0.0317  0.1749
 4753W        W 8272   7.276   9.874  10.038 -0.3564  0.1336 -0.1887
 4754W        W 8273   3.535   5.238  11.801 -0.2497 -0.2213 -0.2650
 4755W        W 8274   4.342   7.284  10.173  0.1577  0.0105 -0.0729
 4756W        W 8275   6.427   2.332  11.560  0.2480  0.0362  0.2992
 4757W        W 8276   1.283   6.390   2.484 -0.0055 -0.1422  0.2142
 4758W        W 8277   1.702   3.966   3.052 -0.1521  0.2789 -0.0538
 4759W        W 8278   1.242   6.897   2.529  0.0370  0.0220 -0.2553
 4760W        W 8279   4.715   9.556  10.553 -0.1721  0.0816  0.0369
 4761W        W 8280   5.590   9.561   8.951 -0.1486  0.2001  0.1959
 4762W        W 8281   9.875   9.444   8.652  0.2021  0.0394  0.0281
 4763W        W 8282   8.047   2.354  11.879 -0.0643 -0.2458 -0.1493
 4764W        W 8283   0.872   6.911  10.670 -0.2842  0.0408  0.1751
 4765W        W 8284   8.291   9.371  10.323 -0.1201 -0.4567  0.1724
 4766W        W 8285   9.755   1.818   7.895 -0.0107  0.0117  0.0770
 4767W        W 8286   2.097   3.918  11.291 -0.0333  0.1165  0.1563
 4768W        W 8287   5.164   9.625   7.417  0.3479 -0.1530 -0.1231
 4769W        W 8288   7.500   4.694   2.397 -0.2972  0.0122  0.2012
 4770W        W 8289   9.775   4.137   8.767 -0.2994  0.0368 -0.2684
 4771W        W 8290   4.831   6.407   4.776  0.2736  0.1488 -0.3008
 4772W        W 8291   3.365   1.908   1.824 -0.1438  0.0221 -0.0490
 4773W        W 8292   9.684   0.319   1.892  0.0503  0.1282 -0.2258
 4774W        W 8293   9.433   5.388   8.428 -0.0734 -0.1055  0.1079
 4775W        W 8294   4.723   1.254  11.932 -0.0130  0.0955  0.1977
 4776W        W 8295   7.351   7.854   7.762  0.2073 -0.1282  0.0928
 4777W        W 8296   3.620   9.079  11.555 -0.2299  0.3641 -0.1390
 4778W        W 8297   3.065   4.533   4.019 -0.1418  0.1332 -0.1627
 4779W        W 8298   7.936   7.452   2.532 -0.0584  0.0840  0.0883
 4780W        W 8299   3.485   3.586  11.242  0.1628 -0.0121 -0.0742
 4781W        W 8300   9.877   8.196   9.858 -0.0373  0.1379  0.2193
 4782W        W 8301   3.621   3.149   2.892 -0.0984 -0.2088  0.0148
 4783W        W 8302   0.404   7.944  10.000 -0.1018 -0.1707  0.0914
 4784W        W 8303   7.459   3.287   0.225 -0.0130 -0.0669 -0.1018
 4785W        W 8304   3.312   4.979  10.054 -0.1808  0.1501 -0.1591
 4786W        W 8305   7.125   7.882   9.461 -0.1996  0.5313  0.3368
 4787W        W 8306   8.327   4.325  10.817  0.1877 -0.1365 -0.0696
 4788W        W 8307   9.806   2.871   1.934 -0.1982  0.0278  0.0812
 4789W        W 8308   1.299   8.992   9.202  0.1630 -0.1076 -0.0945
 4790W        W 8309   2.351   6.496  11.356 -0.0985  0.1350 -0.1425
 4791W        W 8310   0.010   2.199   8.676  0.0935  0.0153 -0.1952
 4792W        W 8311   5.055   4.514  11.551  0.0706  0.3202 -0.0797
 4793W        W 8312   5.439   5.903   3.461 -0.1209  0.0710  0.0769
 4794W        W 8313   1.766   2.531   9.056  0.3117 -0.2011 -0.1079
 4795W        W 8314   0.478   1.991  10.007  0.1007 -0.4987  0.0897
 4796W        W 8315   9.617   1.181  10.742  0.0618 -0.2205  0.2169
 4797W        W 8316   9.873   2.247   0.187  0.1147 -0.0434  0.0233
 4798W        W 8317   5.896   4.723   0.712 -0.1873  0.4422 -0.0380
 4799W        W 8318   9.817   9.183  11.337 -0.1501 -0.0560  0.1749
 4800W        W 8319   4.915   1.924   0.332  0.2826  0.0419 -0.2420
 4801W        W 8320   6.530   2.923   3.470 -0.0031 -0.2078 -0.0785
 4802W        W 8321   7.809   1.890   9.202  0.1457 -0.0523 -0.0876
 4803W        W 8322   8.402   7.769   2.515 -0.1739  0.0355 -0.2303
 4804W        W 8323   6.426   7.620   7.664 -0.0089  0.1778 -0.0764
 4805W        W 8324   2.403   0.432   3.856  0.0783  0.3824  0.0367
 4806W        W 8325   0.055   5.586  10.994 -0.0586 -0.1293  0.1072
 4807W        W 8326   8.383   8.402   9.229  0.2545  0.2918 -0.2033
 4808W        W 8327   7.759   0.937   2.251  0.1483 -0.0037 -0.0518
 4809W        W 8328   3.990   4.139   0.221  0.0996 -0.3555 -0.0177
 4810W        W 8329   4.632   4.640   8.114 -0.1250 -0.0905 -0.0342
 4811W        W 8330   5.999   6.849  10.577 -0.5211  0.0026  0.0312
 4812W        W 8331   7.754   1.408   2.383 -0.2303 -0.0551 -0.0561
 4813W        W 8332   4.013   3.019   9.835  0.1613 -0.2145  0.0485
 4814W        W 8333   3.091   8.062   9.840 -0.0806  0.1058  0.2063
 4815W        W 8334   5.958   1.768   8.533  0.3529  0.3334  0.0141
 4816W        W 8335   7.439   9.953   2.178 -0.1410 -0.0201 -0.0475
 4817W        W 8336   8.056   7.974  11.125 -0.0767  0.0410 -0.1845
 4818W        W 8337   2.030   6.319   7.757  0.3265 -0.1827  0.1920
 4819W        W 8338   4.011   6.938   2.270 -0.0479 -0.4639 -0.1730
 4820W        W 8339   7.277   5.670   7.865  0.0685 -0.0470 -0.0861
 4821W        W 8340   2.071   0.978   7.462 -0.3164 -0.3410 -0.0675
 4822W        W 8341   1.612   0.785   4.052  0.1150 -0.1241  0.2774
 4823W        W 8342   0.379   8.005   7.427  0.1573  0.0770 -0.2925
 4824W        W 8343   1.641   3.021  11.004 -0.3328  0.0437  0.2630
 4825W        W 8344   1.128   3.125   7.899 -0.0305  0.1787 -0.6462
 4826W        W 8345   9.517   6.530   8.661 -0.1362  0.1156 -0.0333
 4827W        W 8346   3.257   4.569  10.765  0.0927 -0.0210 -0.2305
 4828W        W 8347   5.620   9.860   0.652 -0.2939 -0.1982  0.1102
 4829W        W 8348   8.423   0.839   0.509 -0.1232  0.1095  0.0232
 4830W        W 8349   6.062   0.323   8.152  0.0768 -0.0448 -0.3106
 4831W        W 8350   5.387   3.084   2.451  0.4478 -0.2437 -0.0967
 4832W        W 8351   7.191   1.015   9.765  0.0963 -0.1832 -0.2911
 4833W        W 8352   2.333   2.628   9.221 -0.0603 -0.0285 -0.4062
 4834W        W 8353   7.212   5.028   8.488 -0.1022 -0.0015  0.2055
 4835W        W 8354   9.938   7.550   7.194  0.2328 -0.0467 -0.2225
 4836W        W 8355   1.681   9.278   0.776  0.0095 -0.2655  0.2009
 4837W        W 8356   2.385   1.424   8.280 -0.3282  0.0348  0.0837
 4838W        W 8357   8.608   7.152   2.623  0.0891 -0.2248  0.2898
 4839W        W 8358   9.747   0.263   2.713  0.1343  0.2585  0.0400
 4840W        W 8359   5.521   7.034   2.453 -0.1302  0.0462  0.0324
 4841W        W 8360   6.986   9.183  11.583 -0.0099  0.1613 -0.2616
 4842W        W 8361   6.388   2.709   1.831 -0.0961 -0.0438  0.1101
 4843W        W 8362   6.177   2.499  10.028  0.0368 -0.2563  0.1496
 4844W        W 8363   9.454   9.342   8.431 -0.1109  0.0958  0.1474
 4845W        W 8364   7.603   0.268  10.842  0.2114  0.0478  0.3321
 4846W        W 8365   0.797   5.407   1.938 -0.0274  0.0866 -0.0168
 4847W        W 8366   2.504   2.261   8.383 -0.2609 -0.1557 -0.0132
 4848W        W 8367   6.934   6.852   2.867  0.0513  0.0373 -0.1004
 4849W        W 8368   6.272   8.537   9.142  0.2585  0.1793 -0.0179
 4850W        W 8369   6.155   0.280   2.308  0.2082 -0.1127 -0.2582
 4851W        W 8370   1.309   6.376   3.607 -0.0701  0.1248 -0.0003
 4852W        W 8371   1.487   4.844   2.976 -0.0023  0.0451 -0.3154
 4853W        W 8372   2.305   2.738  10.276  0.1308 -0.0596 -0.2239
 4854W        W 8373   4.810   8.835  11.266 -0.1470 -0.0024  0.1710
 4855W        W 8374   1.374   6.418  11.300 -0.0561  0.1095 -0.3495
 4856W        W 8375   7.808   3.125   9.976 -0.0468  0.2207  0.0556
 4857W        W 8376   5.392   6.171   2.624  0.1127  0.1916 -0.1338
 4858W        W 8377   3.858   6.987   6.718 -0.1416 -0.1352  0.0870
 4859W        W 8378   9.357   8.118   8.771  0.1541 -0.1955  0.0423
 4860W        W 8379   9.489   3.753   0.169 -0.1309 -0.1522 -0.1500
 4861W        W 8380   5.269   1.481  10.755 -0.1619  0.2647 -0.1257
 4862W        W 8381   7.907   7.792  11.532  0.1627  0.2553  0.0875
 4863W        W 8382   8.856   4.863  10.356  0.0351 -0.1407  0.3277
 4864W        W 8383   8.157   3.119   2.880 -0.1252  0.1327 -0.0268
 4865W        W 8384   0.374   9.396   3.106  0.1207 -0.0872 -0.1200
 4866W        W 8385   8.436   0.149   2.366 -0.0433 -0.3060  0.1905
 4867W        W 8386   5.430   4.568  10.107  0.2292 -0.1727  0.1243
 4868W        W 8387   9.738   4.077  10.421  0.1299  0.2796  0.0414
 4869W        W 8388   5.936   6.099   2.040 -0.0755 -0.1933  0.1633
 4870W        W 8389   0.567   6.312  11.669 -0.0668  0.2056  0.1143
 4871W        W 8390   5.473   2.441  10.661 -0.1627  0.1736 -0.0996
 4872W        W 8391   0.163   0.114   0.946 -0.0469  0.2897  0.2387
 4873W        W 8392   9.319   5.774  11.618  0.0024  0.2526 -0.3038
 4874W        W 8393   4.033   3.430   1.067 -0.0257 -0.2431 -0.0265
 4875W        W 8394   5.146   9.410   0.524 -0.0702 -0.1432 -0.0570
 4876W        W 8395   5.152   9.523   3.741 -0.4022  0.2643 -0.0837
 4877W        W 8396   5.249   1.107   0.846 -0.0636  0.1838 -0.1330
 4878W        W 8397   2.800   7.942   1.517  0.0459 -0.2194  0.3055
 4879W        W 8398   4.503   5.169   8.615 -0.2713 -0.0209  0.0764
 4880W        W 8399   3.414   9.783  10.132  0.0840 -0.2158 -0.0801
 4881W        W 8400   1.272   5.114  11.262  0.2820  0.0182  0.1294
 4882W        W 8401   0.860   4.942  10.536 -0.1803  0.1034 -0.2729
 4883W        W 8402   2.270   3.501   2.694  0.1467  0.5112  0.1262
 4884W        W 8403   2.634   8.889  11.933 -0.0489  0.0706  0.0401
 4885W        W 8404   2.717   9.202   2.805 -0.1627  0.1147 -0.0920
 4886W        W 8405   1.235   7.350   1.805 -0.1527  0.2083 -0.0052
 4887W        W 8406   3.063   9.066   9.179  0.3932 -0.2660  0.2371
 4888W        W 8407   4.210   7.179   3.786  0.0794  0.0669 -0.1868
 4889W        W 8408   6.239   5.612   1.658  0.0721 -0.3417  0.1500
 4890W        W 8409   1.872   5.676   8.982  0.0148 -0.2547  0.2366
 4891W        W 8410   7.905   4.308   0.853 -0.1753 -0.0915  0.1204
 4892W        W 8411   2.464   7.489   2.245 -0.1645 -0.3045  0.1240
 4893W        W 8412   8.648   0.768   9.258 -0.2074 -0.2438  0.1073
 4894W        W 8413   3.177   2.505  10.329  0.1850 -0.3539  0.1751
 4895W        W 8414   9.840   6.421  10.553  0.2304  0.3070  0.0938
 4896W        W 8415   5.949   1.108   1.276  0.1674 -0.0797  0.1528
 4897W        W 8416   1.408   8.505   9.820  0.0221  0.0944 -0.3345
 4898W        W 8417   6.766   1.825   2.602  0.2513 -0.4415  0.0430
 4899W        W 8418   7.185   2.878   0.177  0.4571 -0.0544 -0.0064
 4900W        W 8419   5.923   3.326   9.493  0.4306  0.2879  0.1801
 4901W        W 8420   5.537   1.450   0.572  0.2171 -0.4235  0.2261
 4902W        W 8421   8.728   8.657   2.350 -0.1640  0.0115 -0.4342
 4903W        W 8422   0.978   5.385   8.991 -0.1756  0.0770 -0.2021
 4904W        W 8423   9.505   2.255  10.579 -0.2050 -0.3737 -0.0739
 4905W        W 8424   7.551   2.019  11.024  0.0950 -0.3407 -0.1652
 4906W        W 8425   2.276   0.168   9.329 -0.3306  0.1757  0.2924
 4907W        W 8426   2.748   1.528   0.768  0.0874  0.2328  0.0236
 4908W        W 8427   4.237   1.598   2.943 -0.1327 -0.0513 -0.5189
 4909W        W 8428   5.442   5.090   9.965 -0.2332  0.2564 -0.2238
 4910W        W 8429   9.701   2.381   9.480  0.0794  0.0424  0.3320
 4911W        W 8430   0.686   3.363   1.403  0.0224  0.1406  0.0089
 4912W        W 8431   3.683   0.257   2.270 -0.1312  0.2361  0.0575
 4913W        W 8432   9.223   5.044  10.095  0.0068 -0.0547  0.2380
 4914W        W 8433   0.711   5.581   1.203 -0.0168 -0.3097 -0.1485
 4915W        W 8434   0.141   9.739   9.575 -0.0794  0.2782 -0.0597
 4916W        W 8435   8.998   3.750   7.138 -0.1191 -0.0100  0.2385
 4917W        W 8436   3.066   7.220  11.426  0.1183 -0.1826 -0.1028
 4918W        W 8437   9.520   6.772  10.776 -0.0682  0.1289 -0.1119
 4919W        W 8438   2.832   3.445   0.202 -0.2973 -0.1729  0.2241
 4920W        W 8439   4.660   5.392  11.419 -0.2313  0.0797 -0.2597
 4921W        W 8440   1.919   0.122   1.896 -0.0910 -0.2272  0.2566
 4922W        W 8441   6.798   3.150  10.555 -0.1097 -0.3388  0.2505
 4923W        W 8442   7.339   3.335   2.987 -0.1395 -0.0520 -0.2706
 4924W        W 8443   9.499   5.577   9.554 -0.0806 -0.2229  0.2897
 4925W        W 8444   6.374   8.734   3.190 -0.0923 -0.0669 -0.2752
 4926W        W 8445   1.772   1.873   2.155  0.1305 -0.0140 -0.0236
 4927W        W 8446   4.180   5.286  11.081 -0.0005  0.1168 -0.3104
 4928W        W 8447   1.619   3.208   0.903 -0.2152 -0.0606 -0.2666
 4929W        W 8448   3.942   0.679   1.008  0.3578 -0.1021 -0.2028
 4930W        W 8449   8.092   8.241   7.395 -0.0034 -0.1185 -0.0638
 4931W        W 8450   6.569   9.354   9.446 -0.4119  0.0357  0.0114
 4932W        W 8451   8.764   2.362   9.422 -0.2799 -0.1650  0.2638
 4933W        W 8452   2.651   0.346   0.421  0.1914 -0.2397 -0.2898
 4934W        W 8453   6.919   5.999  10.190 -0.4450 -0.0299  0.0303
 4935W        W 8454   0.981   3.580   3.166  0.1857 -0.0137  0.0855
 4936W        W 8455   7.593   2.815   1.008  0.1198 -0.1309 -0.2405
 4937W        W 8456   9.694   1.479   9.051 -0.0606 -0.0590  0.2311
 4938W        W 8457   3.436   7.759   9.503 -0.1513 -0.0409 -0.2110
 4939W        W 8458   5.213   8.814   1.123  0.4159 -0.1826 -0.0944
 4940W        W 8459   5.439   6.475   9.980  0.0105 -0.2233 -0.0853
 4941W        W 8460   9.838   1.522   2.873  0.2060  0.0033 -0.3698
 4942W        W 8461   9.937   4.062  11.259  0.0989  0.0072  0.0919
 4943W        W 8462   0.489   8.285  11.944 -0.2871 -0.2022  0.0439
 4944W        W 8463   3.459   2.898   0.724  0.1748  0.1173 -0.1360
 4945W        W 8464   3.411   9.308   3.303  0.0361  0.0184 -0.2178
 4946W        W 8465   2.757   9.460   9.467  0.2230  0.2463  0.2612
 4947W        W 8466   1.493   0.590   1.163 -0.2004  0.2914 -0.0225
 4948W        W 8467   2.525   7.516   0.626 -0.2218 -0.3345  0.0994
 4949W        W 8468   8.955   1.764   1.968  0.0980  0.3890  0.2901
 4950W        W 8469   0.740   4.377   1.447  0.2486  0.1722  0.1613
 4951W        W 8470   0.561   7.346  10.742  0.0239  0.3408 -0.1520
 4952W        W 8471   5.704   2.818   7.260  0.2251  0.0561  0.1238
 4953W        W 8472   4.302   2.459   9.488 -0.0220 -0.0710 -0.2330
 4954W        W 8473   0.950   0.900   2.709  0.0186 -0.0443  0.1214
 4955W        W 8474   6.255   0.943   8.793  0.4488 -0.0211 -0.0337
 4956W        W 8475   2.377   4.291   1.049  0.3143  0.3716  0.0812
 4957W        W 8476   2.779   1.099   0.595  0.0258 -0.0841  0.1043
 4958W        W 8477   1.954   0.723  10.990  0.1191  0.0821 -0.1798
 4959W        W 8478   7.936   8.841   0.568  0.1233  0.1930  0.0565
 4960W        W 8479   9.236   6.604  11.240 -0.2108 -0.0514  0.3230
 4961W        W 8480   0.995   0.509  10.372  0.0314 -0.0867 -0.0665
 4962W        W 8481   3.545   1.630  10.985 -0.0799 -0.0043 -0.2861
 4963W        W 8482   6.425   5.741   9.688 -0.0114  0.0141 -0.0182
 4964W        W 8483   9.572   0.506   9.143  0.0505  0.1515 -0.1747
 4965W        W 8484   2.719   6.176  10.814 -0.2192  0.2342 -0.3393
 4966W        W 8485   5.070   2.902  11.864  0.2071 -0.2820  0.1795
 4967W        W 8486   4.013   5.262   8.424 -0.0030  0.2756 -0.0443
 4968W        W 8487   9.375   7.109   8.672  0.2579  0.2212 -0.0770
 4969W        W 8488   5.069   7.911   8.614  0.2236 -0.0738 -0.0929
 4970W        W 8489   1.451   2.001   3.797 -0.0039  0.0526  0.2040
 4971W        W 8490   6.233   1.275  11.912 -0.3051 -0.0994  0.2694
 4972W        W 8491   2.642   6.290   3.696  0.1413 -0.1267  0.3425
 4973W        W 8492   7.235   3.736   0.431 -0.2343 -0.3738 -0.0204
 4974W        W 8493   7.889   3.660   9.187 -0.0744  0.0533 -0.2167
 4975W        W 8494   5.709   2.918   0.473 -0.6191  0.1078  0.1070
 4976W        W 8495   9.522   6.068   0.600 -0.1877 -0.1295 -0.2322
 4977W        W 8496   5.071   9.043   0.157  0.1728  0.1310 -0.0561
 4978W        W 8497   2.350   4.230   0.276  0.0479  0.0190 -0.1171
 4979W        W 8498   5.197   6.025   5.688  0.0813  0.2288  0.1558
 4980W        W 8499   6.778   4.196   9.633 -0.1315 -0.0530 -0.0902
 4981W        W 8500   7.008   2.707  10.449 -0.3453  0.1866  0.1743
 4982W        W 8501   0.458   9.323   0.345  0.0626  0.0112  0.0306
 4983W        W 8502   0.744   2.510  11.367 -0.3990 -0.3547 -0.1851
 4984W        W 8503   4.185   0.168   2.289 -0.1553  0.0896 -0.0686
 4985W        W 8504   7.017   3.786   3.870  0.2325  0.4132 -0.1269
 4986W        W 8505   9.054   8.100   0.058  0.1721  0.1406  0.3567
 4987W        W 8506   3.351   1.129  11.767 -0.3813 -0.0940  0.2172
 4988W        W 8507   9.697   0.089   3.144  0.0835  0.0064  0.0414
 4989W        W 8508   1.317   2.405   8.527  0.0385  0.0705 -0.2267
 4990W        W 8509   6.855   7.947   7.585  0.3963 -0.1307  0.0897
 4991W        W 8510   9.485   3.824  10.043 -0.0537 -0.1836 -0.1792
 4992W        W 8511   4.098   7.196   3.294 -0.1733  0.3166 -0.1941
 4993W        W 8512   5.007   8.804   2.145  0.0673  0.2824  0.4435
 4994W        W 8513   2.182   2.391   8.858 -0.1869 -0.1348 -0.0788
 4995W        W 8514   9.760   6.128  10.173  0.1058  0.0093  0.2712
 4996W        W 8515   8.648   7.701   3.408  0.5694  0.2056  0.1502
 4997W        W 8516   3.274   3.605   2.340  0.1455 -0.3228 -0.0907
 4998W        W 8517   2.164   5.104   1.490  0.1012 -0.4523  0.2611
 4999W        W 8518   6.289   8.170  10.392 -0.1667  0.0752 -0.0054
 5000W        W 8519   6.966   1.651  11.299  0.0301  0.1547  0.0312
 5001W        W 8520   1.945   1.538  10.521 -0.1807  0.0902  0.0385
 5002W        W 8521   1.467   9.226   3.584  0.1425 -0.1005  0.2696
 5003W        W 8522   4.984   1.236   9.737  0.0848  0.1807  0.1424
 5004W        W 8523   5.654   5.197   9.514 -0.1346  0.3375 -0.2871
 5005W        W 8524   5.088   9.773   2.017 -0.1678  0.4309  0.0756
 5006W        W 8525   2.716   7.471   9.817  0.1190  0.1280  0.2583
 5007W        W 8526   0.107   2.665   8.745  0.1556 -0.0294 -0.2900
 5008W        W 8527   7.939   4.347   7.937 -0.0202  0.1575 -0.3177
 5009W        W 8528   7.033   7.091  11.028  0.2631 -0.1364 -0.1667
 5010W        W 8529   5.830   5.601   3.472  0.0504  0.1841  0.0606
 5011W        W 8530   8.120   5.181   0.977 -0.3856 -0.1877  0.2546
 5012W        W 8531   1.514   8.762   0.735  0.1325 -0.3364 -0.0955
 5013W        W 8532   0.348   4.807   0.174 -0.2554  0.0209 -0.1063
 5014W        W 8533   1.978   9.217  11.085  0.1495 -0.1253 -0.1275
 5015W        W 8534   4.230   3.873   1.030 -0.2146 -0.0463  0.0073
 5016W        W 8535   5.815   7.907   1.387  0.2000  0.1782  0.0750
 5017W        W 8536   0.281   7.444   0.876 -0.1524 -0.0538  0.0389
 5018W        W 8537   2.619   8.576   3.312  0.2531  0.0672 -0.2928
 5019W        W 8538   2.251   4.713   0.898  0.0298  0.0547  0.0852
 5020W        W 8539   5.282   7.327   1.762  0.2079  0.0100 -0.0662
 5021W        W 8540   8.796   6.107   1.227 -0.0343  0.0107 -0.1475
 5022W        W 8541   0.941   6.833   2.948  0.3736  0.0189 -0.1695
 5023W        W 8542   7.982   9.354   0.488  0.3133  0.0674  0.0405
 5024W        W 8543   0.257   4.090  10.105 -0.4022  0.0941 -0.1164
 5025W        W 8544   8.273   5.159   2.567  0.0581  0.1939 -0.0824
 5026W        W 8545   7.536   1.595   9.537  0.1338 -0.2181 -0.1016
 5027W        W 8546   2.867   1.217   3.809 -0.1769  0.1040  0.2597
 5028W        W 8547   4.704   3.476   0.372  0.2088 -0.0722  0.1418
 5029W        W 8548   1.678   6.179  10.343  0.0933 -0.0703 -0.0965
 5030W        W 8549   8.732   1.079   3.248  0.4440 -0.2426 -0.3325
 5031W        W 8550   0.842   6.627   0.744  0.1202 -0.1629  0.0956
 5032W        W 8551   1.506   6.805   1.394 -0.1434 -0.2305 -0.0591
 5033W        W 8552   0.221   1.972  11.294  0.2462 -0.1032 -0.0009
 5034W        W 8553   6.523   3.744   3.511  0.0366  0.1718 -0.2596
 5035W        W 8554   5.383   0.157  10.219 -0.2521  0.3242 -0.0006
 5036W        W 8555   3.172   8.408   0.811 -0.1498  0.0892  0.0698
 5037W        W 8556   3.887   2.707   0.068 -0.0166 -0.1792  0.1503
 5038W        W 8557   3.144   1.373   0.458 -0.2994  0.1407 -0.0138
 5039W        W 8558   6.721   4.664   0.521 -0.0637  0.2569 -0.2810
 5040W        W 8559   3.605   0.566   8.962  0.1377  0.3446 -0.0837
 5041W        W 8560   9.656   5.551   3.652  0.1531 -0.1481 -0.0390
 5042W        W 8561   1.165   8.136   7.481 -0.2256 -0.3171  0.5276
 5043W        W 8562   8.746   3.402   7.939 -0.1424  0.1740  0.0883
 5044W        W 8563   2.038   0.950   2.752 -0.0916 -0.0724  0.0511
 5045W        W 8564   2.188   7.769   0.320 -0.2319 -0.0768  0.1646
 5046W        W 8565   2.368   7.661  10.259  0.2020  0.0180 -0.1189
 5047W        W 8566   6.991   0.338  10.963  0.4243  0.0745 -0.5351
 5048W        W 8567   6.165   9.066   7.403  0.0916  0.2584 -0.0377
 5049W        W 8568   7.215   8.424   0.726  0.1006  0.0352  0.2288
 5050W        W 8569   8.689   3.182  10.218  0.0988 -0.2970  0.0018
 5051W        W 8570   7.563   0.861   3.452  0.1955  0.1047 -0.0903
 5052W        W 8571   1.115   4.661   1.698  0.1669 -0.0922 -0.1035
 5053W        W 8572   6.711   7.205  10.177  0.0242  0.1220 -0.3306
 5054W        W 8573   2.421   5.476   7.948  0.0737  0.0030 -0.1317
 5055W        W 8574   0.683   5.769  11.551  0.1554 -0.1872 -0.1665
 5056W        W 8575   9.777   5.818  11.400  0.0860 -0.1404  0.0211
 5057W        W 8576   1.916   5.286  10.991 -0.3111 -0.2355 -0.0638
 5058W        W 8577   4.610   7.711   1.874 -0.0744  0.0817 -0.1453
 5059W        W 8578   7.681   1.618  11.542  0.0241 -0.0757 -0.1987
 5060W        W 8579   5.237   6.497   5.027  0.1067 -0.0871 -0.2053
 5061W        W 8580   8.954   2.441   2.963  0.0509 -0.0515 -0.2572
 5062W        W 8581   2.861   2.881   8.524 -0.0996  0.0226  0.1567
 5063W        W 8582   0.011   7.735   7.696  0.0578  0.1886 -0.0983
 5064W        W 8583   2.789   7.802   9.347 -0.3729  0.0542 -0.2851
 5065W        W 8584   8.710   1.356   2.391 -0.0101  0.2374  0.2165
 5066W        W 8585   1.379   8.523   3.584  0.3325  0.1732 -0.0544
 5067W        W 8586   1.261   1.217   2.260  0.1131  0.2408 -0.1920
 5068W        W 8587   1.256   8.478   0.403 -0.0112 -0.0459  0.4211
 5069W        W 8588   6.194   8.076   9.344 -0.0524 -0.0948  0.1096
 5070W        W 8589   3.314   0.409   2.849  0.1224  0.0536 -0.0405
 5071W        W 8590   5.392   2.170   0.146  0.0011  0.1176 -0.0488
 5072W        W 8591   5.185   7.399  11.490 -0.3161 -0.1585 -0.1397
 5073W        W 8592   7.660   4.750   8.261 -0.0010  0.2860  0.0198
 5074W        W 8593   7.767   0.668   7.221 -0.3971 -0.1626  0.1420
 5075W        W 8594   7.388   5.014  11.838 -0.0294  0.1225 -0.1337
 5076W        W 8595   0.821   8.115   1.692  0.0099  0.0779 -0.3258
 5077W        W 8596   0.616   6.303   9.142  0.2225 -0.1223  0.1550
 5078W        W 8597   6.221   0.319  10.812  0.0137  0.1481 -0.1311
 5079W        W 8598   7.678   7.166   9.439 -0.0559 -0.1912 -0.0586
 5080W        W 8599   7.880   8.412   2.474  0.1792 -0.0125 -0.1416
 5081W        W 8600   6.128   0.295   1.378 -0.1387  0.2056 -0.3467
 5082W        W 8601   3.162   5.631   2.470 -0.3255 -0.3394 -0.0909
 5083W        W 8602   0.186   7.319  11.167 -0.2992  0.0376  0.0940
 5084W        W 8603   6.139   1.944  10.490  0.0973  0.1796  0.1727
 5085W        W 8604   2.307   3.592   9.931  0.1097  0.2884 -0.1925
 5086W        W 8605   0.864   9.082   8.350 -0.0801  0.0206  0.2671
 5087W        W 8606   0.690   4.328  10.899  0.2209  0.1246  0.0703
 5088W        W 8607   9.496   8.980   8.777 -0.1095 -0.1167 -0.3264
 5089W        W 8608   5.930   5.121   9.965 -0.1132 -0.2682  0.0547
 5090W        W 8609   8.137   3.363  10.921  0.0222 -0.2665 -0.1450
 5091W        W 8610   2.698   3.876   8.952 -0.0147 -0.4336 -0.2106
 5092W        W 8611   6.681   9.092   9.905 -0.2191  0.1781 -0.1299
 5093W        W 8612   8.881   0.470   9.585  0.3073  0.0438  0.0249
 5094W        W 8613   4.727   4.906   3.718 -0.2272  0.0085  0.0615
 5095W        W 8614   8.206   1.310   9.984  0.1087 -0.4294 -0.1813
 5096W        W 8615   8.911   6.587   1.205 -0.0171 -0.1465 -0.1146
 5097W        W 8616   6.467   4.168   8.373 -0.0363  0.0430  0.2966
 5098W        W 8617   6.413   8.130   0.219  0.0337  0.1569 -0.2687
 5099W        W 8618   6.478   0.205  11.217 -0.2348 -0.1389  0.0803
 5100W        W 8619   3.976   5.638   2.208  0.2209  0.1480  0.1681
 5101W        W 8620   8.199   9.954   3.209 -0.2175  0.0849 -0.0782
 5102W        W 8621   6.703   9.613   2.060 -0.1980 -0.1457 -0.1390
 5103W        W 8622   8.302   9.211   8.033 -0.2192  0.0969  0.2352
 5104W        W 8623   7.200   5.167  11.337  0.1739  0.3384  0.2753
 5105W        W 8624   6.049   3.033   1.629 -0.2235 -0.0867  0.0755
 5106W        W 8625   6.364   9.768   0.175  0.1074  0.0314  0.2599
 5107W        W 8626   0.086   0.123   7.724  0.2407  0.1878  0.1609
 5108W        W 8627   1.797   3.473   9.875  0.1801 -0.2419 -0.1416
 5109W        W 8628   8.900   9.890   7.908  0.1069 -0.2397  0.1130
 5110W        W 8629   4.118   8.387  11.761  0.1055 -0.3281  0.0494
 5111W        W 8630   7.948   7.952  10.584 -0.2279 -0.0289  0.0493
 5112W        W 8631   4.712   2.782   9.331 -0.1986  0.3300  0.1564
 5113W        W 8632   3.396   6.014   1.588 -0.0861 -0.0058 -0.0032
 5114W        W 8633   9.667   5.279  11.217  0.1346  0.2922 -0.1080
 5115W        W 8634   5.603   3.447   0.384 -0.1998  0.2583  0.0922
 5116W        W 8635   3.658   0.209   0.824  0.1591  0.1162 -0.1868
 5117W        W 8636   1.622   1.449   1.442  0.2085  0.0176 -0.0457
 5118W        W 8637   9.815   9.204   0.453  0.3568 -0.2313  0.1712
 5119W        W 8638   2.057   6.300   9.918 -0.0344 -0.1758 -0.1263
 5120W        W 8639   4.015   4.322   8.945 -0.2241 -0.1537 -0.0525
 5121W        W 8640   1.060   1.549   1.541 -0.3750 -0.4627  0.0252
 5122W        W 8641   5.058   9.480   8.828  0.3234  0.0482  0.1164
 5123W        W 8642   1.054   3.600   1.751 -0.0139  0.0258  0.0152
 5124W        W 8643   4.336   4.795  10.862 -0.1102 -0.1074 -0.4765
 5125W        W 8644   8.867   1.677   8.696  0.2387 -0.2058 -0.1347
 5126W        W 8645   2.964   7.622   0.180  0.1802 -0.3491  0.0305
 5127W        W 8646   1.870   2.321  10.276 -0.1560 -0.0390 -0.0565
 5128W        W 8647   3.739   6.557  11.391 -0.1005  0.0431  0.1279
 5129W        W 8648   2.729   8.968  10.075  0.2301  0.2659  0.1651
 5130W        W 8649   5.741   5.224  10.507  0.0853  0.0463  0.0222
 5131W        W 8650   7.728   2.854   3.112  0.2175 -0.1240 -0.1854
 5132W        W 8651   2.911   5.745   9.543 -0.2264 -0.0634 -0.2419
 5133W        W 8652   1.119   0.103  11.892  0.0264 -0.1723  0.4610
 5134W        W 8653   1.138   3.942   3.604 -0.1693  0.0620  0.2577
 5135W        W 8654   7.950   8.160   9.034  0.2331  0.3161  0.2469
 5136W        W 8655   4.532   1.566   0.356 -0.3122  0.3681 -0.0565
 5137W        W 8656   5.856   1.198   8.563 -0.1348 -0.1413  0.0811
 5138W        W 8657   3.228   2.686   9.830  0.0485 -0.1376  0.3078
 5139W        W 8658   5.691   4.238  10.424 -0.2186  0.1460 -0.0371
 5140W        W 8659   5.135   5.937   9.274 -0.0467  0.1052 -0.1852
 5141W        W 8660   8.390   6.093   3.539  0.0015  0.1168 -0.3309
 5142W        W 8661   7.317   9.369   1.475 -0.1290  0.1326  0.3476
 5143W        W 8662   5.846   0.396   2.722  0.0617 -0.1956 -0.0871
 5144W        W 8663   1.686   7.303   2.400 -0.1252  0.4009 -0.1286
 5145W        W 8664   0.860   3.940   2.332  0.3664  0.0758 -0.0734
 5146W        W 8665   2.596   3.340   4.220  0.2533 -0.0957  0.0968
 5147W        W 8666   6.488   0.364   0.309 -0.2888  0.0622  0.1663
 5148W        W 8667   5.142   4.731   1.567 -0.0120  0.0561 -0.1243
 5149W        W 8668   6.549   7.222   9.295  0.1796  0.0386  0.1412
 5150W        W 8669   4.808   8.756   1.728  0.1032 -0.2202  0.0302
 5151W        W 8670   7.118   8.323   7.703  0.1353 -0.3165  0.0508
 5152W        W 8671   8.429   4.037   3.414  0.2081 -0.0359 -0.3208
 5153W        W 8672   3.989   9.538   0.897  0.1657  0.4834  0.0828
 5154W        W 8673   8.056   6.548  10.029  0.0227  0.3073  0.1209
 5155W        W 8674   8.131   3.498   2.522 -0.2995  0.0954  0.0285
 5156W        W 8675   6.597   2.777   0.379  0.0327  0.2724  0.1355
 5157W        W 8676   0.112   1.927   8.261 -0.3410  0.0777 -0.1288
 5158W        W 8677   2.952   8.702   0.293 -0.3276 -0.2552  0.1252
 5159W        W 8678   6.448   6.393  10.537  0.0542 -0.1343  0.0788
 5160W        W 8679   8.153   9.660   8.289 -0.1870  0.0416 -0.0927
 5161W        W 8680   7.562   2.011   2.047  0.1131 -0.1478 -0.0383
 5162W        W 8681   8.994   3.326  11.512  0.2364  0.0038 -0.0440
 5163W        W 8682   8.005   1.446   7.773 -0.0178  0.1453  0.2046
 5164W        W 8683   8.012   6.088  11.159 -0.0279  0.0277  0.1026
 5165W        W 8684   8.668   5.128   0.611  0.1451 -0.2217 -0.0029
 5166W        W 8685   1.508   5.492   1.439 -0.1734  0.1831 -0.0225
 5167W        W 8686   2.267   3.370   8.004  0.2464 -0.0904 -0.1356
 5168W        W 8687   6.344   7.503   0.952  0.0480 -0.0666 -0.1087
 5169W        W 8688   1.619   4.091   9.562  0.1551  0.3419  0.1597
 5170W        W 8689   4.735   3.043   8.524  0.1512  0.0322 -0.1246
 5171W        W 8690   6.729   5.130   9.447  0.0605 -0.0007 -0.0928
 5172W        W 8691   0.612   7.407   9.797  0.2195  0.1082  0.3272
 5173W        W 8692   3.138   8.269   9.185  0.0159  0.0566  0.3505
 5174W        W 8693   7.960   4.726  10.753 -0.3073  0.0656 -0.1825
 5175W        W 8694   3.498   7.009   2.402  0.0869  0.0486 -0.0773
 5176W        W 8695   8.121   1.298   0.339  0.2965 -0.0718  0.3330
 5177W        W 8696   7.307   1.322  10.174  0.0090 -0.1791  0.0223
 5178W        W 8697   3.207   2.566   8.761 -0.0111 -0.3377  0.0324
 5179W        W 8698   7.204   6.975  10.090 -0.2392 -0.1115 -0.0453
 5180W        W 8699   3.091   7.155  10.159  0.0912 -0.0328 -0.0244
 5181W        W 8700   2.777   2.241  11.039  0.0134  0.0225 -0.0832
 5182W        W 8701   9.571   7.243   0.853  0.2754  0.1318  0.1015
 5183W        W 8702   0.385   5.607   9.145 -0.2026  0.3486  0.0371
 5184W        W 8703   2.827   2.531  11.863 -0.1344 -0.3199  0.0292
 5185W        W 8704   0.383   9.848   0.305  0.1202  0.0465  0.1750
 5186W        W 8705   0.344   4.357   9.513  0.1833  0.0503 -0.3514
 5187W        W 8706   6.942   5.367   3.008  0.1834 -0.0693 -0.1439
 5188W        W 8707   5.725   7.680   9.288 -0.1201 -0.2063  0.1358
 5189W        W 8708   9.407   0.493   1.457  0.1495 -0.3291 -0.0954
 5190W        W 8709   3.648   6.369   4.472 -0.0599  0.1274  0.0175
 5191W        W 8710   5.260   0.963   1.913  0.2719  0.0699  0.2481
 5192W        W 8711   4.184   1.718   0.727  0.0293  0.4042 -0.2814
 5193W        W 8712   5.734   7.435   1.632 -0.1357 -0.1269 -0.3022
 5194W        W 8713   5.234   0.060   8.630  0.0234  0.2089  0.1330
 5195W        W 8714   3.189   5.471   3.212 -0.0255 -0.2927 -0.1881
 5196W        W 8715   6.844   6.622  11.505 -0.2962  0.0304  0.0158
 5197W        W 8716   1.563   1.094  10.912  0.1414  0.4274  0.0973
 5198W        W 8717   1.528   1.701   7.892 -0.0815 -0.0220  0.1394
 5199W        W 8718   9.209   5.058   2.747  0.2241  0.0075  0.0303
 5200W        W 8719   0.321   1.144   4.075 -0.4150  0.0820 -0.0392
 5201W        W 8720   3.613   0.088   1.808 -0.3479  0.0934 -0.1508
 5202W        W 8721   2.556   7.174  10.261 -0.0495  0.0497 -0.0432
 5203W        W 8722   7.069   9.704   2.439 -0.2971 -0.0973  0.0830
 5204W        W 8723   0.136   3.804   9.682 -0.2142  0.1817 -0.1069
 5205W        W 8724   1.111   0.420   8.073 -0.2949  0.0614  0.1424
 5206W        W 8725   9.720   7.213  10.892  0.4115 -0.0304 -0.1483
 5207W        W 8726   4.667   9.219  11.551  0.0947  0.2302  0.1852
 5208W        W 8727   6.057   4.969   2.128 -0.2098  0.1117  0.2800
 5209W        W 8728   9.270   7.249   2.327 -0.1249  0.1037  0.1646
 5210W        W 8729   6.067   7.001   9.406  0.2333 -0.0828 -0.0100
 5211W        W 8730   2.068   7.259   0.133 -0.0604  0.0885 -0.3789
 5212W        W 8731   5.078   6.775   0.471  0.2893  0.0602  0.0821
 5213W        W 8732   8.465   6.764   0.715 -0.1181  0.4490  0.0640
 5214W        W 8733   9.850   2.586   1.500  0.0535 -0.1370 -0.2786
 5215W        W 8734   6.502   0.430   2.682 -0.1724 -0.1527  0.0147
 5216W        W 8735   2.346   0.494   1.957  0.2288  0.1461 -0.3171
 5217W        W 8736   0.944   3.626   0.639 -0.1685  0.2353  0.0676
 5218W        W 8737   6.010   9.767   8.172  0.0053  0.1970 -0.1470
 5219W        W 8738   7.171   3.568   1.206  0.2190 -0.2571 -0.0986
 5220W        W 8739   7.519   6.840   0.821  0.2322  0.1063  0.1016
 5221W        W 8740   8.075   2.484   8.734  0.0506  0.2099 -0.0244
 5222W        W 8741   3.278   8.854  10.338  0.1227 -0.0739  0.4891
 5223W        W 8742   1.358   6.270   0.173 -0.1667  0.2265 -0.1483
 5224W        W 8743   3.324   2.991  10.429 -0.0725 -0.3700  0.0384
 5225W        W 8744   4.146   0.798  11.275  0.0902  0.0243  0.0342
 5226W        W 8745   8.519   6.081   3.013  0.1728 -0.2776  0.1545
 5227W        W 8746   7.660   3.401   8.803 -0.0624 -0.1950  0.0041
 5228W        W 8747   1.137   6.370   4.210 -0.2202  0.0863 -0.2698
 5229W        W 8748   4.119   7.989   0.197  0.4938  0.2529 -0.0589
 5230W        W 8749   0.097   1.685   1.931 -0.2341  0.3339 -0.1983
 5231W        W 8750   6.138   6.200   0.350 -0.1669  0.1597  0.1971
 5232W        W 8751   9.507   5.973   7.673  0.1735 -0.3747 -0.0498
 5233W        W 8752   7.091   7.821   2.522  0.0375 -0.0977  0.0429
 5234W        W 8753   9.314   4.801   8.993  0.0323  0.0015  0.0417
 5235W        W 8754   7.657   6.841   9.844  0.0786 -0.1865 -0.0098
 5236W        W 8755   1.137   1.967   3.375  0.4045 -0.0153  0.0779
 5237W        W 8756   2.632   2.009   1.506  0.2054  0.1845 -0.0491
 5238W        W 8757   3.812   1.372   3.139 -0.1928 -0.1791 -0.1173
 5239W        W 8758   4.333   0.270   8.648  0.0712 -0.0222  0.3014
 5240W        W 8759   7.282   0.722  11.617  0.0865  0.0759 -0.0801
 5241W        W 8760   2.888   8.781   1.870 -0.2664  0.0420  0.0417
 5242W        W 8761   0.337   4.558   2.344  0.0678 -0.1571  0.0243
 5243W        W 8762   7.046   9.072   9.208 -0.2114 -0.2061 -0.4085
 5244W        W 8763   8.530   6.699  10.195  0.0539  0.0761  0.1218
 5245W        W 8764   1.413   2.657   9.452  0.1605 -0.0949  0.2463
 5246W        W 8765   8.237   3.975   2.313  0.2217  0.0505 -0.0811
 5247W        W 8766   6.771   1.425  11.794  0.1653  0.0377 -0.0926
 5248W        W 8767   3.125   5.721   1.851  0.0942 -0.0459  0.0002
 5249W        W 8768   0.047   0.169  10.081 -0.0433 -0.2256  0.2668
 5250W        W 8769   0.231   4.085  10.741 -0.0237  0.0161  0.3758
 5251W        W 8770   6.634   4.083  10.609  0.0485  0.2192  0.2460
 5252W        W 8771   3.796   8.646  10.314 -0.2471 -0.0784  0.3546
 5253W        W 8772   3.281   3.522   9.529 -0.0574 -0.1723  0.0664
 5254W        W 8773   5.054   4.649   1.132 -0.3662  0.2531  0.1320
 5255W        W 8774   9.790   9.437   2.131  0.0917  0.1536 -0.0347
 5256W        W 8775   5.014   7.485   0.377 -0.2448 -0.1498  0.0604
 5257W        W 8776   0.783   6.578   8.117  0.1321 -0.0525 -0.1195
 5258W        W 8777   6.888   6.667  10.468 -0.0689 -0.1449 -0.1255
 5259W        W 8778   6.595   7.189   1.385  0.0700 -0.0724  0.0988
 5260W        W 8779   7.285   2.310  10.727 -0.0002 -0.1941  0.1309
 5261W        W 8780   6.124   5.571  10.669  0.1838 -0.2276 -0.0488
 5262W        W 8781   6.566   0.411   7.857 -0.2497  0.0576  0.1250
 5263W        W 8782   1.597   0.642  10.613  0.1681 -0.0933  0.2115
 5264W        W 8783   6.989   0.942   8.538 -0.0782  0.3051  0.1771
 5265W        W 8784   6.370   6.441   7.641 -0.0943 -0.0585 -0.2829
 5266W        W 8785   8.951   9.427  11.739 -0.4049 -0.0832  0.0542
 5267W        W 8786   2.768   7.310   1.430 -0.0745  0.0809 -0.1110
 5268W        W 8787   3.582   7.955   1.562 -0.0587  0.0417 -0.0496
 5269W        W 8788   9.054   8.531   8.651  0.0776 -0.0757  0.2269
 5270W        W 8789   4.563   7.289   8.989 -0.1249 -0.0060 -0.0680
 5271W        W 8790   3.193   3.902   0.851 -0.0598  0.0017  0.0134
 5272W        W 8791   5.494   1.690   9.882 -0.2392 -0.0686 -0.0514
 5273W        W 8792   2.290   0.817   1.601  0.2801 -0.1973  0.2700
 5274W        W 8793   6.515   4.191   9.138  0.2793  0.0077 -0.2366
 5275W        W 8794   5.665   9.796   2.884 -0.0979 -0.0473 -0.1270
 5276W        W 8795   5.879   5.221   7.547 -0.0178 -0.0335  0.0899
 5277W        W 8796   0.754   4.802   8.515 -0.0981  0.0209  0.0650
 5278W        W 8797   7.125   7.034   1.013 -0.1054  0.0262 -0.0562
 5279W        W 8798   0.578   5.883  10.778 -0.1342  0.2346  0.1257
 5280W        W 8799   6.957   7.931   0.948 -0.2198 -0.1563 -0.1067
 5281W        W 8800   5.120   0.846  10.169 -0.0076  0.0094 -0.2840
 5282W        W 8801   1.783   1.165   2.286  0.1934 -0.0446 -0.0722
 5283W        W 8802   2.945   1.659   1.698 -0.3648  0.0418  0.0784
 5284W        W 8803   9.085   7.230   1.027 -0.2418 -0.1768  0.2312
 5285W        W 8804   7.230   4.729   0.611  0.1732 -0.0380 -0.3008
 5286W        W 8805   6.082   3.226   2.058 -0.0875  0.0073  0.5466
 5287W        W 8806   6.763   0.421   9.302 -0.1412 -0.0197  0.1218
 5288W        W 8807   1.137   0.145   2.347  0.3568  0.1128 -0.1041
 5289W        W 8808   9.942   8.021   1.992 -0.3633  0.1548  0.3523
 5290W        W 8809   6.922   7.104   9.703  0.0256  0.0613 -0.0711
 5291W        W 8810   3.043   6.456   9.088  0.2562  0.2921 -0.0543
 5292W        W 8811   0.641   0.248  11.740  0.2935 -0.0773  0.1000
 5293W        W 8812   2.900   9.048   1.026 -0.1327  0.2344 -0.1204
 5294W        W 8813   1.166   9.431   8.115 -0.1292  0.0945 -0.3114
 5295W        W 8814   2.011   5.746   4.033 -0.2358 -0.0416  0.1930
 5296W        W 8815   5.684   1.227  10.951  0.3197  0.0996  0.1402
 5297W        W 8816   8.095   0.582   2.274  0.0256  0.0714 -0.4190
 5298W        W 8817   7.755   7.723   1.245 -0.1632  0.0866  0.0610
 5299W        W 8818   9.137   5.995   0.068 -0.0198 -0.0424  0.2291
 5300W        W 8819   6.021   9.302   1.915  0.0136 -0.0888 -0.1414
 5301W        W 8820   3.859   3.550  10.424  0.1352  0.1384 -0.3256
 5302W        W 8821   9.749   5.022   8.094 -0.3081 -0.1003 -0.0066
 5303W        W 8822   2.937   5.382  11.905 -0.0532 -0.0647  0.3526
 5304W        W 8823   0.361   0.830   2.393  0.0739 -0.2887 -0.1031
 5305W        W 8824   9.074   6.327   8.899  0.0624 -0.0881  0.1941
 5306W        W 8825   7.866   9.174   7.215 -0.1052 -0.0554 -0.0209
 5307W        W 8826   0.658   8.371   7.662  0.1997  0.2352 -0.0191
 5308W        W 8827   6.753   0.067   1.547 -0.0912  0.3538  0.0376
 5309W        W 8828   1.503   2.646   0.003  0.0925  0.1303 -0.1240
 5310W        W 8829   7.886   7.961   0.610  0.0928 -0.0303  0.2744
 5311W        W 8830   1.327   9.681   3.470  0.0895 -0.0191  0.1537
 5312W        W 8831   2.846   6.819   8.840 -0.1602 -0.3162  0.2004
 5313W        W 8832   5.239   0.661   8.046 -0.1193  0.1539  0.3370
 5314W        W 8833   8.697   3.249   2.889  0.0746 -0.0557  0.3651
 5315W        W 8834   9.216   4.515  10.517 -0.1670  0.2567  0.3557
 5316W        W 8835   5.364   3.555   8.122 -0.1285 -0.0735  0.0014
 5317W        W 8836   0.496   8.598  11.185  0.1900  0.0637 -0.4054
 5318W        W 8837   5.960   2.897   9.837  0.1113 -0.1088  0.1870
 5319W        W 8838   6.645   6.995   8.785 -0.2242  0.2140  0.1140
 5320W        W 8839   3.846   6.662  10.497  0.2951 -0.1517 -0.1340
 5321W        W 8840   0.962   7.456  11.162 -0.0637 -0.0130 -0.0241
 5322W        W 8841   5.000   5.786   2.077  0.2354  0.0103  0.2709
 5323W        W 8842   6.405   8.489   9.625  0.0711  0.4668 -0.1312
 5324W        W 8843   2.176   6.949   2.937  0.0656 -0.1405  0.1874
 5325W        W 8844   5.301   8.953   0.710  0.1062 -0.2249  0.2890
 5326W        W 8845   5.545   9.500   1.983  0.0507 -0.0922 -0.0126
 5327W        W 8846   1.132   4.492  10.523 -0.0404  0.1635  0.2045
 5328W        W 8847   7.969   3.229   4.085 -0.4159 -0.1939  0.1958
 5329W        W 8848   6.687   3.693   1.259 -0.1911 -0.0005 -0.0011
 5330W        W 8849   6.211   9.672   9.613  0.1133 -0.2639 -0.1753
 5331W        W 8850   3.463   5.925   4.235 -0.2888  0.2762 -0.0796
 5332W        W 8851   5.993   9.552  10.539 -0.0585 -0.1485 -0.0282
 5333W        W 8852   0.328   1.473   8.213  0.1731  0.3388  0.0016
 5334W        W 8853   1.872   3.523   3.009  0.3229  0.1992 -0.0935
 5335W        W 8854   3.308   8.995   0.072  0.3414 -0.1058 -0.0780
 5336W        W 8855   6.162   6.715   0.858 -0.1381 -0.0137  0.2781
 5337W        W 8856   4.572   6.237   3.471  0.0958  0.0384  0.0989
 5338W        W 8857   6.881   5.587   8.848  0.1881 -0.3875 -0.0101
 5339W        W 8858   8.752   5.503  11.221  0.2176  0.1993  0.0720
 5340W        W 8859   2.725   1.855   3.101 -0.4944  0.1157 -0.1636
 5341W        W 8860   5.675   2.884  10.703 -0.1533 -0.1148 -0.1623
 5342W        W 8861   6.212   8.624  10.082 -0.0629 -0.0327  0.0716
 5343W        W 8862   5.167   0.220   2.305 -0.2603  0.2147  0.0653
 5344W        W 8863   3.920   7.221   9.168  0.3223  0.2529  0.1396
 5345W        W 8864   3.150   7.090   1.819 -0.1866 -0.4049  0.2122
 5346W        W 8865   5.760   9.363   2.450  0.1019 -0.1316 -0.2665
 5347W        W 8866   6.448   6.171  10.043  0.2086 -0.5080  0.1036
 5348W        W 8867   1.798   6.249   2.335  0.1382 -0.0475 -0.1467
 5349W        W 8868   5.393   9.209   8.580 -0.1636 -0.0222  0.3449
 5350W        W 8869   9.090   2.786  11.690 -0.2948 -0.4232 -0.2416
 5351W        W 8870   1.584   2.962   3.237  0.0124 -0.0184 -0.1737
 5352W        W 8871   3.927   2.262   8.201 -0.0094  0.1413  0.0795
 5353W        W 8872   4.461   8.558   2.012  0.0264  0.0945 -0.5409
 5354W        W 8873   4.257   6.230   9.232  0.0332 -0.2047 -0.2662
 5355W        W 8874   2.145   6.257   3.524  0.0998  0.0776  0.0412
 5356W        W 8875   2.624   4.247   8.405  0.3089  0.0293  0.0284
 5357W        W 8876   8.461   9.080   2.237 -0.0013 -0.4740 -0.0020
 5358W        W 8877   2.536   4.852  10.360 -0.1144  0.0481 -0.1220
 5359W        W 8878   8.502   1.226  11.087  0.4645 -0.3541  0.0330
 5360W        W 8879   8.129   4.009   9.557 -0.1970  0.0214 -0.1207
 5361W        W 8880   2.257   6.211  10.407  0.0027  0.3357  0.1571
 5362W        W 8881   5.997   3.826   9.246  0.1126  0.1778 -0.4118
 5363W        W 8882   2.373   1.017   2.091  0.0717 -0.0086 -0.0490
 5364W        W 8883   8.707   5.065   9.805  0.3240 -0.1196 -0.0499
 5365W        W 8884   3.679   7.523  11.369 -0.1585  0.2057 -0.1445
 5366W        W 8885   3.674   6.901   1.349 -0.0646  0.1766 -0.1442
 5367W        W 8886   4.653   8.168   2.815  0.1182  0.1866 -0.3947
 5368W        W 8887   3.869   0.536   9.532 -0.0965 -0.0521  0.1143
 5369W        W 8888   2.561   7.965   9.872 -0.2038 -0.1556  0.2039
 5370W        W 8889   1.156   5.529   8.466  0.2809 -0.0545 -0.2023
 5371W        W 8890   5.089   5.339   2.347 -0.1737  0.0538 -0.1677
 5372W        W 8891   3.019   9.809   9.764  0.0927 -0.0180  0.2043
 5373W        W 8892   1.997   4.914  10.583 -0.0601  0.0785 -0.2683
 5374W        W 8893   7.444   2.751  10.760  0.1612  0.2950 -0.2267
 5375W        W 8894   9.596   2.396  10.067 -0.0153  0.4194 -0.0129
 5376W        W 8895   8.598   2.745   2.844  0.0446 -0.4061  0.3830
 5377W        W 8896   2.456   0.367  11.116 -0.1149 -0.0263 -0.1825
 5378W        W 8897   3.651   6.472   9.766  0.1605  0.1043  0.0510
 5379W        W 8898   4.970   1.947   1.222 -0.1691 -0.1738 -0.3194
 5380W        W 8899   4.575   9.124   2.069 -0.1173  0.4947 -0.3557
 5381W        W 8900   5.184   9.525  10.821  0.3182  0.1895 -0.0671
 5382W        W 8901   9.079   8.983   2.406  0.2333  0.3694  0.1338
 5383W        W 8902   5.262   2.950   8.550 -0.2446  0.0807  0.0157
 5384W        W 8903   5.739   1.659   0.109  0.0711  0.1320 -0.1990
 5385W        W 8904   2.735   8.462  11.012 -0.1973  0.0202  0.2395
 5386W        W 8905   5.601   7.631   3.750 -0.1765  0.0900 -0.0697
 5387W        W 8906   8.568   8.674  10.698 -0.0615 -0.1569 -0.0758
 5388W        W 8907   0.332   0.663   9.993  0.2013  0.1072 -0.1502
 5389W        W 8908   1.822   0.358  11.879  0.2783  0.3526  0.0832
 5390W        W 8909   8.293   3.407   9.080 -0.4060 -0.3218 -0.0521
 5391W        W 8910   4.945   6.348   2.631 -0.1009 -0.1788 -0.4094
 5392W        W 8911   8.180   9.416  10.819 -0.2063 -0.2872  0.0609
 5393W        W 8912   9.435   3.361   8.478  0.0101  0.0042 -0.0316
 5394W        W 8913   7.083   2.591   9.070 -0.1138  0.0969 -0.0650
 5395W        W 8914   3.130   8.637  11.715 -0.1717  0.2884  0.2135
 5396W        W 8915   2.360   2.250   7.835 -0.0728 -0.0683 -0.1366
 5397W        W 8916   8.918   0.220   1.255 -0.3657  0.3920  0.2697
 5398W        W 8917   4.309   9.208   3.833 -0.1348 -0.1325  0.1793
 5399W        W 8918   4.256   1.817   9.662  0.2499 -0.2993 -0.1258
 5400W        W 8919   6.356   5.352   1.273 -0.3342  0.1213  0.0661
 5401W        W 8920   5.494   8.067   2.245 -0.0555 -0.1559  0.0024
 5402W        W 8921   3.675   3.753   1.849 -0.3045  0.0061 -0.0648
 5403W        W 8922   6.548   2.864  10.089 -0.1840  0.0918  0.0224
 5404W        W 8923   4.319   3.177  11.333 -0.0888 -0.1332 -0.0605
 5405W        W 8924   1.936   6.862   9.258 -0.0453 -0.0561 -0.0275
 5406W        W 8925   8.119   6.425   8.984  0.1999 -0.1132  0.0447
 5407W        W 8926   4.283   3.219  10.772  0.1742  0.0767 -0.0142
 5408W        W 8927   3.298   4.898  11.504 -0.2384 -0.0950 -0.2980
 5409W        W 8928   4.067   0.377   3.593  0.0278 -0.0337 -0.1031
 5410W        W 8929   2.052   4.501  10.937  0.1968 -0.1079 -0.1374
 5411W        W 8930   4.825   5.587   8.492 -0.2571 -0.1772  0.0639
 5412W        W 8931   8.595   1.873   1.187 -0.0218 -0.1362  0.0568
 5413W        W 8932   7.075   3.707  11.794 -0.1005  0.0734  0.0083
 5414W        W 8933   2.888   0.485   3.125  0.0185  0.1414  0.0715
 5415W        W 8934   4.684   2.790   1.954  0.1182  0.2979  0.0273
 5416W        W 8935   0.424   5.245  10.710  0.3101  0.1500  0.0475
 5417W        W 8936   6.324   9.495   4.287  0.3248  0.0417 -0.3054
 5418W        W 8937   5.965   1.566  11.561  0.2236 -0.0696 -0.2081
 5419W        W 8938   2.211   7.160   1.543 -0.1550  0.1794  0.1845
 5420W        W 8939   7.773   6.754   7.143 -0.1025  0.0236 -0.0776
 5421W        W 8940   2.499   5.597  11.790  0.1620  0.1703 -0.1839
 5422W        W 8941   8.680   6.167   0.024  0.2231  0.0810  0.1130
 5423W        W 8942   2.891   3.467   0.797 -0.0804  0.0121  0.1940
 5424W        W 8943   5.033   6.060   1.120 -0.1901  0.0591  0.2168
 5425W        W 8944   5.479   8.859   7.729 -0.2378 -0.0937  0.1100
 5426W        W 8945   9.058   0.070  10.336  0.2472 -0.1755 -0.0194
 5427W        W 8946   9.954   8.121   8.500  0.0437 -0.2350  0.0016
 5428W        W 8947   1.175   9.237   0.744 -0.0433 -0.2219 -0.0863
 5429W        W 8948   1.537   1.859  11.067 -0.1303 -0.4037 -0.0257
 5430W        W 8949   2.602   8.419   8.561 -0.0610  0.0054 -0.0212
 5431W        W 8950   1.969   8.030  10.667  0.0547  0.0004 -0.0939
 5432W        W 8951   6.352   2.835   2.387  0.1548  0.1204  0.2768
 5433W        W 8952   9.671   1.921   0.955 -0.2733  0.3073  0.1882
 5434W        W 8953   1.643   0.404   8.674 -0.1956 -0.3136 -0.3750
 5435W        W 8954   9.700   2.824   0.265  0.0917 -0.1165  0.0441
 5436W        W 8955   1.607   8.035   0.541  0.4376 -0.0883  0.0405
 5437W        W 8956   1.848   9.557   0.338 -0.0182 -0.6758 -0.1334
 5438W        W 8957   9.360   6.518   2.705 -0.0396  0.2515  0.1186
 5439W        W 8958   5.191   2.617   2.314  0.3301 -0.0470  0.1410
 5440W        W 8959   7.552   6.317   9.376 -0.0571 -0.0079 -0.0225
 5441W        W 8960   1.829   3.676   1.575 -0.0370  0.0514 -0.0210
 5442W        W 8961   7.922   0.198   0.971  0.1557  0.3194  0.0313
 5443W        W 8962   0.485   0.781   3.735 -0.0069 -0.0685 -0.3031
 5444W        W 8963   1.398   9.733   8.454 -0.1492  0.0895 -0.0116
 5445W        W 8964   7.625   4.342   1.459 -0.0514  0.1786 -0.1040
 5446W        W 8965   9.516   3.688   0.695  0.1798 -0.0958 -0.3079
 5447W        W 8966   3.945   8.629   9.763 -0.1768 -0.2263  0.1121
 5448W        W 8967   6.988   0.888  10.201  0.1081 -0.1304 -0.0305
 5449W        W 8968   2.436   1.053  11.843  0.1096  0.2514  0.0264
 5450W        W 8969   0.956   5.986   0.994 -0.1580  0.1425  0.0417
 5451W        W 8970   1.577   7.972   7.961 -0.0608  0.2809  0.0108
 5452W        W 8971   1.063   2.824   8.331  0.0017  0.1548  0.0847
 5453W        W 8972   1.633   4.861  10.978 -0.5384 -0.1759 -0.1243
 5454W        W 8973   2.078   4.616   1.366 -0.1078 -0.0045  0.1645
 5455W        W 8974   1.337   6.199   8.409 -0.0267  0.3854 -0.0574
 5456W        W 8975   3.237   0.776   2.360  0.0312 -0.2503 -0.3575
 5457W        W 8976   4.261   2.560   1.748  0.2366 -0.0887  0.4053
 5458W        W 8977   8.802   9.185   3.357 -0.1382 -0.1970  0.1687
 5459W        W 8978   9.603   3.355   2.950  0.0331  0.0974  0.1152
 5460W        W 8979   3.430   4.620   1.579 -0.2911 -0.2486 -0.0749
 5461W        W 8980   2.042   1.633   8.943 -0.1434 -0.1843 -0.0338
 5462W        W 8981   0.302   5.418   0.762  0.0260  0.0021  0.0112
 5463W        W 8982   6.523   4.623   9.712  0.2784 -0.0423 -0.3283
 5464W        W 8983   1.661   3.214   7.201 -0.1509  0.2386 -0.0611
 5465W        W 8984   7.958   5.166   9.022 -0.0710 -0.3193  0.1634
 5466W        W 8985   3.945   1.610  11.244  0.0040 -0.0402  0.1455
 5467W        W 8986   5.163   0.946  10.662 -0.1440 -0.1446 -0.2893
 5468W        W 8987   4.694   6.005   0.750  0.1116  0.2205 -0.0153
 5469W        W 8988   1.436   4.001   1.753  0.1629  0.0054 -0.4101
 5470W        W 8989   1.358   8.981   0.285  0.3165  0.1019 -0.0414
 5471W        W 8990   9.520   4.682   0.716 -0.1583 -0.1305  0.2513
 5472W        W 8991   4.275   4.072   9.977 -0.1088  0.1058 -0.2843
 5473W        W 8992   5.267   2.271   1.598 -0.1349  0.2417  0.0500
 5474W        W 8993   5.603   6.065   0.377  0.0372 -0.2120  0.1550
 5475W        W 8994   5.629   0.235   1.292  0.0857  0.2487  0.0407
 5476W        W 8995   9.849   2.290  11.511 -0.3390  0.0541 -0.1905
 5477W        W 8996   8.336   0.982  11.886  0.0544  0.1242  0.1734
 5478W        W 8997   7.214   2.957   9.536  0.4209 -0.0855 -0.1284
 5479W        W 8998   4.600   1.233   2.838  0.2287 -0.1539  0.0469
 5480W        W 8999   4.121   1.904  11.646 -0.1914  0.1231 -0.0754
 5481W        W 9000   0.391   8.747   1.293  0.0421 -0.0376  0.0931
 5482W        W 9001   8.498   3.671   1.121  0.4812  0.4095 -0.2590
 5483W        W 9002   1.789   2.316   9.543  0.0640 -0.0680  0.0906
 5484W        W 9003   1.399   0.734   1.985  0.3765 -0.0776 -0.0167
 5485W        W 9004   0.022   2.830   2.929  0.1404 -0.1225 -0.1111
 5486W        W 9005   5.538   5.534   2.514 -0.0161  0.1746 -0.0403
 5487W        W 9006   2.965   2.582   1.368 -0.0140 -0.1754  0.2842
 5488W        W 9007   4.226   2.556   8.925 -0.1509  0.1989  0.0258
 5489W        W 9008   8.672   7.340   9.447  0.2090  0.1104  0.2096
 5490W        W 9009   2.251   8.167  10.297  0.0713  0.4004  0.2095
 5491W        W 9010   1.223   8.374  10.754 -0.0709 -0.1914 -0.0508
 5492W        W 9011   3.715   3.348   0.616 -0.2567  0.2013 -0.0984
 5493W        W 9012   3.412   1.708  10.338  0.1321  0.2559  0.4391
 5494W        W 9013   2.063   4.159   3.300  0.0525 -0.0960 -0.1919
 5495W        W 9014   9.319   4.798   0.306  0.1815  0.5033 -0.2136
 5496W        W 9015   7.147   0.607   9.493  0.0619 -0.1396 -0.2681
 5497W        W 9016   1.108   7.535   9.798 -0.1052  0.2018 -0.2975
 5498W        W 9017   5.473   8.351  10.465 -0.0489  0.4024 -0.0848
 5499W        W 9018   3.667   5.527   3.181  0.2248  0.2867  0.0385
 5500W        W 9019   0.157   3.503   0.683  0.0373  0.3219  0.1480
 5501W        W 9020   4.674   5.098   0.680  0.0392 -0.0551 -0.0360
 5502W        W 9021   8.197   9.282   2.626  0.0770 -0.1081 -0.0428
 5503W        W 9022   8.709   6.795  11.406 -0.0782 -0.0466  0.0720
 5504W        W 9023   7.352   2.931  11.310  0.2575 -0.1707  0.1075
 5505W        W 9024   9.849   5.938   1.571 -0.1620  0.1096  0.1888
 5506W        W 9025   7.211   4.519   8.387 -0.4957  0.0930 -0.3738
 5507W        W 9026   9.423   1.032   9.903 -0.3549 -0.0095 -0.1451
 5508W        W 9027   8.164   0.958  11.391  0.1437  0.1225  0.2720
 5509W        W 9028   8.388   1.684   7.052 -0.0989 -0.0957 -0.1757
 5510W        W 9029   4.129   9.007  10.023 -0.0138 -0.3163 -0.2370
 5511W        W 9030   3.076   0.741   1.231 -0.0603 -0.0385  0.2147
 5512W        W 9031   0.969   0.767   1.028 -0.3930  0.1833 -0.1476
 5513W        W 9032   4.027   4.879   5.783 -0.2147  0.2630  0.1152
 5514W        W 9033   3.247   0.282   9.154 -0.3803  0.2017  0.0267
 5515W        W 9034   5.448   0.533   9.871  0.1063  0.0632 -0.3006
 5516W        W 9035   7.433   1.425   3.477  0.0650  0.0604  0.0211
 5517W        W 9036   9.748   9.821   8.089 -0.0734 -0.0968 -0.0018
 5518W        W 9037   5.336   8.777   1.611 -0.0663 -0.0578  0.2154
 5519W        W 9038   4.640   7.504   2.344  0.2531  0.0311  0.1455
 5520W        W 9039   1.898   5.694   3.215 -0.0814 -0.0013  0.1713
 5521W        W 9040   6.999   7.473   1.477  0.1869  0.0578 -0.1248
 5522W        W 9041   1.070   2.628   0.260 -0.0031  0.1399 -0.0701
 5523W        W 9042   5.719   3.908   0.474 -0.0666  0.1879 -0.0711
 5524W        W 9043   9.947   4.041   9.273  0.1971 -0.2581 -0.0015
 5525W        W 9044   0.780   9.185  11.860 -0.1112 -0.2414 -0.0021
 5526W        W 9045   3.525   8.030  10.636 -0.0683  0.1127  0.2202
 5527W        W 9046   8.793   1.112  10.057  0.0657 -0.1495 -0.1143
 5528W        W 9047   9.948   6.356  11.690  0.2959 -0.0230 -0.1521
 5529W        W 9048   2.656   8.996   0.592  0.0084 -0.4858 -0.1776
 5530W        W 9049   4.140   9.468   0.451  0.2377  0.0106 -0.0534
 5531W        W 9050   6.012   7.266   2.088  0.1258  0.0105 -0.0592
 5532W        W 9051   0.709   9.464   2.274 -0.3261 -0.2687 -0.0792
 5533W        W 9052   1.460   3.449   7.599  0.1373  0.0172  0.1234
 5534W        W 9053   0.927   9.602   8.580 -0.0058 -0.1330 -0.1082
 5535W        W 9054   3.873   8.776  11.142 -0.1651  0.0501  0.0704
 5536W        W 9055   3.583   3.057   0.192  0.2320 -0.2353 -0.1703
 5537W        W 9056   7.924   6.154  10.345  0.1347  0.1121 -0.0069
 5538W        W 9057   4.163   5.387   8.924  0.2776 -0.0173 -0.0525
 5539W        W 9058   8.487   4.300   2.064  0.0220 -0.2784  0.1191
 5540W        W 9059   9.537   6.234   2.315  0.4667 -0.0992  0.2090
 5541W        W 9060   0.936   4.002  10.176 -0.2281 -0.2400 -0.4317
 5542W        W 9061   8.866   4.620   8.297 -0.2312  0.2736  0.0397
 5543W        W 9062   7.996   3.994   7.420  0.0522 -0.0059  0.0519
 5544W        W 9063   0.444   9.446   8.570 -0.2319 -0.0719  0.0417
 5545W        W 9064   7.100   9.520   0.232 -0.0591 -0.1913  0.0435
 5546W        W 9065   1.678   7.073   8.167  0.3739  0.0442  0.3145
 5547W        W 9066   1.655   4.532   9.351 -0.0138 -0.0800  0.0613
 5548W        W 9067   1.152   0.428   4.113 -0.0056  0.1888 -0.0218
 5549W        W 9068   7.278   2.660  11.692  0.2020  0.3563  0.0842
 5550W        W 9069   2.380   2.335   3.131 -0.3087  0.0068  0.1225
 5551W        W 9070   7.770   0.604  11.627  0.0463  0.3787 -0.2270
 5552W        W 9071   8.433   1.599  10.759 -0.2098  0.2895  0.2975
 5553W        W 9072   6.084   6.380   9.124 -0.3179 -0.0859 -0.0409
 5554W        W 9073   6.357   2.208  10.837  0.1419  0.0127 -0.0351
 5555W        W 9074   6.981   4.067   8.436 -0.1159 -0.4727  0.0768
 5556W        W 9075   1.910   3.655   7.646  0.2408 -0.0244 -0.0848
 5557W        W 9076   7.807   3.521   7.672 -0.0262 -0.0364 -0.1689
 5558W        W 9077   3.806   8.952   0.321 -0.3000 -0.0911  0.1452
 5559W        W 9078   2.981   3.227   1.984  0.0936 -0.0677  0.0218
 5560W        W 9079   1.038   8.618  11.205  0.2441 -0.1053 -0.2325
 5561W        W 9080   0.896   9.541   0.228 -0.1801 -0.0156 -0.0550
 5562W        W 9081   6.225   6.803   6.947 -0.0881  0.3029  0.3683
 5563W        W 9082   8.231   0.567   7.887  0.0739 -0.1478  0.2013
 5564W        W 9083   7.047   5.839  11.132 -0.0408  0.2511 -0.1405
 5565W        W 9084   3.120   7.321   9.540 -0.1336  0.0792 -0.3350
 5566W        W 9085   5.457   4.992   1.157  0.4073  0.2105 -0.2344
 5567W        W 9086   0.830   4.961   2.594  0.0436  0.0702 -0.0457
 5568W        W 9087   0.361   6.012   3.544  0.1232 -0.2896 -0.0052
 5569W        W 9088   4.977   4.148   9.313 -0.2505 -0.1304  0.0628
 5570W        W 9089   5.797   2.880  11.699  0.0552 -0.2835 -0.5744
 5571W        W 9090   7.231   3.020   1.753 -0.0015  0.3089  0.1910
 5572W        W 9091   7.891   3.611  11.790 -0.1153  0.0128 -0.3460
 5573W        W 9092   3.899   1.693   3.934  0.0428 -0.1521  0.2719
 5574W        W 9093   2.798   3.569   3.767 -0.0465 -0.2627 -0.2372
 5575W        W 9094   1.280   6.765   3.905  0.0502 -0.0160 -0.0455
 5576W        W 9095   5.923   2.645   8.412 -0.0896  0.1944 -0.1784
 5577W        W 9096   5.603   2.131  10.211 -0.1223 -0.1883 -0.0292
 5578W        W 9097   2.144   7.066  10.492 -0.1424  0.0607 -0.1137
 5579W        W 9098   0.813   7.064   0.424  0.1029  0.0467 -0.3472
 5580W        W 9099   3.154   0.103   0.027 -0.2267  0.0882 -0.2738
 5581W        W 9100   0.773   7.295  10.343 -0.0662  0.1832  0.2945
 5582W        W 9101   4.090   0.419   9.074 -0.0382 -0.0917 -0.0162
 5583W        W 9102   1.007   2.047   1.589 -0.1079  0.0936 -0.0976
 5584W        W 9103   4.439   9.321   1.038 -0.1636 -0.1595  0.0113
 5585W        W 9104   0.473   3.807   1.603 -0.0285 -0.0149 -0.0995
 5586W        W 9105   7.332   1.186   0.792 -0.0658 -0.0609 -0.1592
 5587W        W 9106   3.823   2.196  10.400 -0.0963 -0.0553 -0.0889
 5588W        W 9107   9.110   5.095   7.568 -0.1754 -0.2377  0.1686
 5589W        W 9108   4.783   9.830   2.576 -0.4045  0.2503 -0.2416
 5590W        W 9109   0.368   7.329   0.362  0.1669  0.1644  0.2516
 5591W        W 9110   2.930   7.456   2.408 -0.0621 -0.1615  0.2049
 5592W        W 9111   5.079   6.259   2.141  0.1600 -0.0937 -0.0450
 5593W        W 9112   8.690   6.078   1.980 -0.0012  0.0325  0.0518
 5594W        W 9113   9.147   1.041  11.069  0.1585 -0.1154  0.1853
 5595W        W 9114   4.234   2.567   3.302 -0.1332 -0.1326 -0.0560
 5596W        W 9115   4.723   5.455   9.012  0.3682 -0.2283 -0.1081
 5597W        W 9116   6.863   0.575   8.217  0.1171 -0.0542  0.0435
 5598W        W 9117   7.269   0.499   2.121 -0.1642 -0.0180 -0.2077
 5599W        W 9118   0.934   3.079   8.703  0.0867 -0.1981 -0.0704
 5600W        W 9119   7.009   2.790   7.514  0.1187 -0.0060 -0.0847
 5601W        W 9120   4.336   9.189   3.268  0.2502 -0.0753 -0.1789
 5602W        W 9121   3.837   7.023   0.823  0.1472 -0.1472  0.0542
 5603W        W 9122   1.769   0.088   9.576  0.1868  0.3348 -0.0429
 5604W        W 9123   6.033   0.789  10.647  0.0042  0.0078  0.1510
 5605W        W 9124   6.833   7.408   0.937  0.0506 -0.0435  0.2538
 5606W        W 9125   8.417   5.427   0.270 -0.1946 -0.1967 -0.1554
 5607W        W 9126   8.603   5.310  10.308 -0.1725 -0.4966 -0.2614
 5608W        W 9127   3.868   3.581   3.139 -0.0304  0.1625 -0.0227
 5609W        W 9128   4.638   7.725  10.417  0.0476  0.1262 -0.0294
 5610W        W 9129   8.038   2.680   0.340  0.4572  0.0098  0.1157
 5611W        W 9130   4.328   8.758  11.431  0.2526  0.3392  0.4097
 5612W        W 9131   9.547   4.715   2.836  0.1830  0.0690 -0.1425
 5613W        W 9132   2.774   3.469   2.595 -0.0300 -0.0408 -0.1754
 5614W        W 9133   9.955   9.716  11.384  0.0279 -0.3065  0.0818
 5615W        W 9134   0.744   2.907   3.637  0.2709  0.1191 -0.0819
 5616W        W 9135   7.648   9.732   0.629 -0.0074  0.0110 -0.1614
 5617W        W 9136   2.922   5.848  10.011  0.0017 -0.2115  0.0310
 5618W        W 9137   0.119   5.473   9.523 -0.1601  0.1779  0.0928
 5619W        W 9138   5.586   2.872   9.429  0.3096 -0.2683  0.2015
 5620W        W 9139   7.398   2.455  11.197  0.1543 -0.1481 -0.2021
 5621W        W 9140   8.452   0.154   1.146  0.1314  0.2570 -0.0573
 5622W        W 9141   9.391   0.003  11.381  0.2346 -0.0408 -0.1254
 5623W        W 9142   1.734   8.030  10.159 -0.1172  0.2604 -0.0425
 5624W        W 9143   8.450   7.299   0.741  0.0472  0.0921  0.0210
 5625W        W 9144   6.627   7.748   1.288 -0.0552 -0.3855 -0.3150
 5626W        W 9145   4.138   5.944   1.722  0.1391  0.3886 -0.0883
 5627W        W 9146   7.808   3.596   3.755 -0.0536 -0.2328 -0.0850
 5628W        W 9147   0.089   0.386   3.113  0.1946  0.0015 -0.0268
 5629W        W 9148   2.027   0.309   2.339  0.1159 -0.0159  0.0181
 5630W        W 9149   6.241   8.006   7.978 -0.0442 -0.1450 -0.3612
 5631W        W 9150   4.290   2.511   4.386 -0.3151  0.0624 -0.1962
 5632W        W 9151   7.143   8.371   9.550  0.0206 -0.0047  0.0666
 5633W        W 9152   4.642   8.732   1.113  0.0513  0.2554  0.1522
 5634W        W 9153   6.131   0.314   3.148 -0.0645  0.0006  0.0292
 5635W        W 9154   1.216   8.110  10.209  0.0807 -0.2502 -0.0257
 5636W        W 9155   7.963   0.347   8.952 -0.1428  0.1389  0.3503
 5637W        W 9156   0.184   5.451   8.105 -0.1779 -0.2041  0.0704
 5638W        W 9157   7.658   8.019   1.807  0.1171 -0.1443  0.0611
 5639W        W 9158   5.021   3.368   8.858  0.0142  0.2376 -0.1848
 5640W        W 9159   2.080   6.102   3.061 -0.2292  0.0559  0.3443
 5641W        W 9160   7.757   5.288   7.585  0.1786 -0.0166  0.1051
 5642W        W 9161   5.150   5.034  10.512 -0.1351 -0.3136 -0.0493
 5643W        W 9162   0.701   5.955   7.473  0.2096  0.1369 -0.1286
 5644W        W 9163   2.955   9.460  11.192  0.4562  0.0378  0.2316
 5645W        W 9164   4.589   5.722  11.833 -0.2106  0.2932  0.0322
 5646W        W 9165   7.425   3.350   9.781 -0.0674  0.4203  0.1093
 5647W        W 9166   6.317   5.717   7.436 -0.2380 -0.2927  0.2518
 5648W        W 9167   0.916   7.090   9.457 -0.1502 -0.0072  0.0306
 5649W        W 9168   7.202   7.948   3.004  0.1152 -0.3501  0.0859
 5650W        W 9169   6.547   9.025   2.825 -0.1109 -0.2937  0.0431
 5651W        W 9170   1.225   6.117  11.692  0.0939 -0.3499 -0.2398
 5652W        W 9171   1.533   3.354  10.277 -0.0456 -0.0030 -0.1663
 5653W        W 9172   0.476   4.074  11.620 -0.0947 -0.0573 -0.1459
 5654W        W 9173   5.030   6.248  10.174  0.0963 -0.0317  0.0550
 5655W        W 9174   1.716   9.101   8.994 -0.2972  0.2481  0.0914
 5656W        W 9175   8.348   8.983   0.293 -0.0043  0.2663  0.0989
 5657W        W 9176   2.830   2.678   9.252  0.0479  0.1651  0.0102
 5658W        W 9177   7.258   5.514   8.441  0.2696 -0.0180 -0.3192
 5659W        W 9178   2.706   5.481   1.987 -0.3669 -0.1282  0.2309
 5660W        W 9179   5.265   9.352   3.264  0.1840  0.1233  0.3218
 5661W        W 9180   3.098   0.119   1.801  0.2355 -0.1856  0.0723
 5662W        W 9181   1.658   6.367   0.575 -0.3791 -0.1540 -0.2025
 5663W        W 9182   8.342   2.204   0.378 -0.1595 -0.0745 -0.1075
 5664W        W 9183   6.540   0.067   3.014 -0.0254 -0.0534 -0.0377
 5665W        W 9184   7.054   9.564   9.505  0.0985  0.0319  0.1010
 5666W        W 9185   3.558   3.337   9.066  0.1383  0.4761  0.0900
 5667W        W 9186   4.834   3.367  10.415  0.1816 -0.0633  0.1067
 5668W        W 9187   1.784   8.215   8.859 -0.0365 -0.3346 -0.2769
 5669W        W 9188   9.599   6.256   9.186 -0.0429 -0.0411 -0.0387
 5670W        W 9189   2.356   0.549  11.752 -0.2198 -0.3454  0.3217
 5671W        W 9190   0.136   6.455   9.426 -0.0927 -0.1583  0.2158
 5672W        W 9191   7.502   5.386   8.941  0.2541 -0.0233 -0.0046
 5673W        W 9192   5.296   3.305   7.674  0.2762 -0.0990  0.1458
 5674W        W 9193   1.162   5.219   0.480 -0.3078 -0.4386  0.1928
 5675W        W 9194   3.424   2.551   1.256  0.1056 -0.0808 -0.3192
 5676W        W 9195   7.605   3.942   7.840  0.1206 -0.0787  0.3813
 5677W        W 9196   1.473   7.373   1.284  0.1018  0.0491 -0.0172
 5678W        W 9197   9.119   4.534   0.986  0.1335  0.0850  0.0330
 5679W        W 9198   3.773   0.660   2.552  0.0539 -0.3157 -0.3256
 5680W        W 9199   4.392   6.848   1.871  0.2542 -0.0023 -0.1983
 5681W        W 9200   3.913   0.237   2.731  0.1341  0.0914 -0.1669
 5682W        W 9201   2.639   5.690   2.482  0.2102  0.1360  0.3239
 5683W        W 9202   8.599   7.628   7.792 -0.1566 -0.1871 -0.0266
 5684W        W 9203   7.628   7.400   8.517 -0.1075  0.3131  0.2895
 5685W        W 9204   1.559   9.742  11.946  0.1286 -0.0619  0.2412
 5686W        W 9205   6.859   0.567  11.445  0.0266  0.0647 -0.1248
 5687W        W 9206   7.065   1.720   8.540 -0.0789  0.1975 -0.4126
 5688W        W 9207   3.739   8.063   8.033  0.1833  0.1739  0.1269
 5689W        W 9208   6.583   0.571   1.276  0.1201  0.2899  0.0677
 5690W        W 9209   2.379   8.570   9.429  0.1908  0.0030 -0.1840
 5691W        W 9210   1.785   9.515   8.648 -0.1084  0.2216 -0.2131
 5692W        W 9211   8.493   3.616   9.509 -0.2119 -0.0761 -0.1486
 5693W        W 9212   2.881   1.047  10.618  0.4485 -0.0874  0.2308
 5694W        W 9213   2.811   3.657   2.142  0.1777  0.4870 -0.1043
 5695W        W 9214   0.124   5.049   8.942 -0.1583 -0.1406  0.2204
 5696W        W 9215   1.996   3.143  11.274 -0.4446  0.1628 -0.2001
 5697W        W 9216   2.765   1.365   4.281 -0.0124 -0.1203  0.1791
 5698W        W 9217   2.171   2.845  11.658 -0.2252  0.0572  0.0546
 5699W        W 9218   1.999   7.481   1.201  0.0575  0.0643  0.0274
 5700W        W 9219   0.806   5.416   3.465 -0.0018  0.1397 -0.1449
 5701W        W 9220   2.862   5.813   3.497 -0.0297 -0.0032  0.3577
 5702W        W 9221   1.385   7.230   7.780 -0.0037  0.1254 -0.1795
 5703W        W 9222   0.961   6.007   9.823  0.2379 -0.2832  0.0590
 5704W        W 9223   9.384   1.150   9.399 -0.1219 -0.0985 -0.2497
 5705W        W 9224   1.159   0.621  10.835  0.2619  0.1903 -0.1046
 5706W        W 9225   5.575   3.730   9.731  0.3503 -0.1291 -0.0269
 5707W        W 9226   5.461   1.827   1.385  0.1559 -0.0681  0.0162
 5708W        W 9227   7.930   9.494   9.321  0.2903  0.2289 -0.0670
 5709W        W 9228   8.972   7.702   0.357 -0.0655  0.2754 -0.0163
 5710W        W 9229   1.608   4.477   1.609 -0.0995 -0.0074  0.0992
 5711W        W 9230   0.555   5.251   8.756 -0.1874 -0.1515 -0.1088
 5712W        W 9231   5.432   1.935  10.697 -0.1272 -0.1872 -0.1636
 5713W        W 9232   7.947   3.618   2.066 -0.1103 -0.0286 -0.3365
 5714W        W 9233   7.707   7.703   9.438  0.1307  0.0541  0.1461
 5715W        W 9234   2.471   2.835   0.167  0.1018  0.1541  0.3129
 5716W        W 9235   2.128   1.991  10.669 -0.0973 -0.0285 -0.0895
 5717W        W 9236   9.585   1.404   0.992  0.0955  0.0347 -0.0409
 5718W        W 9237   2.563   7.142   2.569 -0.0793  0.0731 -0.0281
 5719W        W 9238   9.664   3.004  10.145 -0.0689 -0.0778  0.1024
 5720W        W 9239   0.268   8.900   0.118 -0.2394  0.1511 -0.0917
 5721W        W 9240   7.795   8.935   8.036 -0.0596 -0.1050 -0.0394
 5722W        W 9241   8.315   1.042   2.233 -0.3366 -0.1181  0.2832
 5723W        W 9242   9.695   4.540   9.465  0.0318  0.2022  0.0999
 5724W        W 9243   1.493   3.366   1.822 -0.0113 -0.0083 -0.2999
 5725W        W 9244   6.419   9.083  10.412  0.1515  0.0661 -0.0181
 5726W        W 9245   3.585   1.319   9.003  0.1250  0.3341 -0.2766
 5727W        W 9246   8.659   4.030   0.651 -0.2329  0.0985 -0.2236
 5728W        W 9247   3.228   3.291   0.474  0.4096  0.0312 -0.1178
 5729W        W 9248   0.064   4.740   0.979  0.0739 -0.0479  0.0994
 5730W        W 9249   1.289   2.130   9.584 -0.1770 -0.0022 -0.1984
 5731W        W 9250   5.466   2.643  11.318  0.2261  0.1505  0.2025
 5732W        W 9251   7.975   4.384   8.482  0.1046 -0.0030 -0.2783
 5733W        W 9252   0.942   2.464  10.750  0.2702  0.1352  0.1361
 5734W        W 9253   6.219   4.270  11.276 -0.2346 -0.0385 -0.2149
 5735W        W 9254   9.276   5.944  10.015  0.0348  0.0605  0.0694
 5736W        W 9255   2.409   5.704   2.933  0.0516  0.0644 -0.1440
 5737W        W 9256   3.576   2.104   2.450 -0.0527 -0.0375  0.1425
 5738W        W 9257   0.617   9.546   9.028 -0.2323  0.0521  0.2053
 5739W        W 9258   6.303   9.445  10.125  0.2716  0.0887 -0.2279
 5740W        W 9259   4.579   2.244  11.496  0.1999  0.2299 -0.0929
 5741W        W 9260   9.671   2.456   4.287 -0.3531 -0.0343 -0.0622
 5742W        W 9261   6.365   4.852   0.775 -0.0874 -0.1028 -0.2158
 5743W        W 9262   7.954   7.499   0.765 -0.2891  0.1260 -0.1913
 5744W        W 9263   0.780   1.882   1.168 -0.1447  0.0172 -0.4178
 5745W        W 9264   6.507   1.035   3.432 -0.2085 -0.2890  0.2804
 5746W        W 9265   3.365   9.760  11.179  0.0266  0.0521  0.1450
 5747W        W 9266   2.485   0.869  10.843 -0.2931 -0.0650 -0.1581
 5748W        W 9267   1.837   4.989   3.419 -0.1357 -0.0319 -0.3161
 5749W        W 9268   6.287   3.989   1.397 -0.0349  0.0014 -0.2453
 5750W        W 9269   4.537   8.698  10.831  0.3385  0.0295  0.2045
 5751W        W 9270   3.059   0.956   1.906  0.0443  0.0638 -0.2220
 5752W        W 9271   9.494   7.190   9.165  0.0940 -0.1354  0.1023
 5753W        W 9272   2.783   6.528  11.943 -0.2398  0.0192 -0.2351
 5754W        W 9273   1.482   1.424  11.315  0.2242  0.1582  0.0860
 5755W        W 9274   6.270   9.909  10.274  0.0436  0.1685  0.0437
 5756W        W 9275   3.290   0.671   3.387 -0.1709  0.0973 -0.3558
 5757W        W 9276   6.349   6.388   2.143  0.0233 -0.0142 -0.0319
 5758W        W 9277   7.935   8.265   8.517  0.1467 -0.0756 -0.2180
 5759W        W 9278   6.463   1.394  11.367  0.2395  0.1732  0.0124
 5760W        W 9279   7.510   2.259   9.319 -0.1327  0.2152  0.0676
 5761W        W 9280   5.419   4.281   2.559  0.2560  0.2186 -0.2763
 5762W        W 9281   2.590   4.369   3.208 -0.1265  0.0451  0.0215
 5763W        W 9282   6.657   2.463   9.228  0.1020  0.2428 -0.0295
 5764W        W 9283   5.640   0.403   7.322 -0.0936 -0.1144  0.1504
 5765W        W 9284   0.074   4.492  10.400  0.0817 -0.1688 -0.2846
 5766W        W 9285   4.937   0.398  10.049 -0.2588 -0.2921 -0.0856
 5767W        W 9286   3.624   7.008  10.095  0.1437 -0.2361 -0.1108
 5768W        W 9287   5.281   2.465  11.757 -0.0721  0.0017  0.0044
 5769W        W 9288   2.364   5.311  10.380  0.1763 -0.0710  0.0960
 5770W        W 9289   2.075   9.756   2.435 -0.2695  0.0292  0.1128
 5771W        W 9290   6.748   8.741   9.395 -0.0705  0.1036  0.3296
 5772W        W 9291   8.979   4.510   9.984  0.3145 -0.1549 -0.0009
 5773W        W 9292   6.078   1.217   9.617 -0.1637 -0.1727 -0.2025
 5774W        W 9293   7.551   2.512   3.464 -0.1223  0.2355 -0.0612
 5775W        W 9294   2.664   3.100   1.028 -0.1010 -0.1060 -0.0963
 5776W        W 9295   9.900   7.426   9.230  0.1766  0.1362 -0.0389
 5777W        W 9296   3.578   7.189   9.588  0.2710  0.2908  0.0211
 5778W        W 9297   6.408   6.990   7.564  0.1394 -0.0004  0.0196
 5779W        W 9298   3.738   9.846   1.333  0.0885 -0.1555  0.1829
 5780W        W 9299   8.392   4.282   2.901  0.3069  0.1680  0.1212
 5781W        W 9300   9.868   6.868   7.937  0.0731  0.0356  0.2368
 5782W        W 9301   8.045   7.503  10.805  0.1302  0.0626 -0.0372
 5783W        W 9302   8.052   1.717   0.018 -0.3927 -0.3105 -0.0566
 5784W        W 9303   1.044   8.392  11.894 -0.2286 -0.0192 -0.3380
 5785W        W 9304   7.040   4.110  10.315  0.0599  0.2345 -0.2397
 5786W        W 9305   9.108   0.369   2.708 -0.2467 -0.0528  0.0627
 5787W        W 9306   3.549   4.878  10.497 -0.1668 -0.0643  0.0795
 5788W        W 9307   6.345   1.089  10.018  0.3122  0.0433  0.0430
 5789W        W 9308   3.218   1.968  11.162  0.0441  0.1612  0.3706
 5790W        W 9309   6.641   1.918  10.595 -0.0884  0.1045  0.3095
 5791W        W 9310   1.983   5.510   1.235  0.4542  0.2246 -0.1654
 5792W        W 9311   1.512   5.760  11.875 -0.0730  0.0332  0.2092
 5793W        W 9312   2.436   5.952   9.989 -0.0114 -0.5223  0.1709
 5794W        W 9313   1.926   0.947   9.707  0.0935  0.3943 -0.2646
 5795W        W 9314   1.215   8.019   2.117  0.3414 -0.6728  0.2352
 5796W        W 9315   4.214   5.687   9.317  0.0594 -0.0742 -0.0648
 5797W        W 9316   4.924   7.824   2.580  0.1224  0.1465  0.3315
 5798W        W 9317   2.576   0.051   3.639  0.2432  0.0949  0.0562
 5799W        W 9318   5.470   6.904   0.201  0.0811 -0.2479 -0.0201
 5800W        W 9319   2.370   0.885   9.887 -0.2673 -0.0686  0.0499
 5801W        W 9320   1.440   1.857  11.548  0.0747 -0.3792  0.2096
 5802W        W 9321   8.033   5.160   3.008  0.2603 -0.1239 -0.0733
 5803W        W 9322   7.931   8.383   8.051 -0.0415 -0.2635 -0.0982
 5804W        W 9323   8.893   3.193   2.157 -0.1717  0.1281  0.2292
 5805W        W 9324   4.994   7.086   3.186  0.0469  0.2071  0.2718
 5806W        W 9325   9.914   7.210   8.386 -0.3883 -0.1273 -0.0843
 5807W        W 9326   7.577   3.927   1.058 -0.2091  0.2441 -0.0752
 5808W        W 9327   6.552   8.909   7.682  0.2684  0.2072 -0.2064
 5809W        W 9328   8.004   3.201   0.130 -0.0805 -0.1971 -0.0467
 5810W        W 9329   3.167   7.297   3.960  0.1679  0.1751 -0.0373
 5811W        W 9330   9.412   1.526   3.111  0.1071 -0.1033 -0.1009
 5812W        W 9331   2.852   8.126  10.348  0.2565 -0.1354 -0.3591
 5813W        W 9332   0.458   3.059   8.851  0.2533  0.0934 -0.1276
 5814W        W 9333   3.541   1.940   9.000  0.4813 -0.0400 -0.1963
 5815W        W 9334   2.239   9.192  11.762 -0.0855 -0.1737  0.0912
 5816W        W 9335   0.438   2.268   9.571 -0.1789  0.4045  0.2304
 5817W        W 9336   3.590   9.495   0.587  0.1204 -0.1330 -0.0643
 5818W        W 9337   8.695   2.551   3.372  0.2436 -0.2863 -0.0888
 5819W        W 9338   0.808   1.136   0.602  0.0854  0.0218  0.1373
 5820W        W 9339   4.534   3.175   9.056 -0.4341  0.1562 -0.0264
 5821W        W 9340   9.209   5.620  11.180 -0.3885  0.0472 -0.0796
 5822W        W 9341   9.866   2.043   1.434 -0.0195  0.1802 -0.0181
 5823W        W 9342   0.912   7.670   8.138 -0.4274  0.0698 -0.2685
 5824W        W 9343   9.945   5.093   2.996 -0.0788  0.0329  0.0299
 5825W        W 9344   7.631   0.196   7.276  0.1276 -0.3988  0.0667
 5826W        W 9345   5.587   3.277   1.457  0.1829  0.0438 -0.0689
 5827W        W 9346   8.594   8.920   2.820  0.1518 -0.2228  0.2743
 5828W        W 9347   5.166   6.718   2.250 -0.3585 -0.0543  0.1128
 5829W        W 9348   1.723   1.818   3.368 -0.1585 -0.5821  0.0417
 5830W        W 9349   3.887   9.882   0.501  0.2281  0.2863 -0.1431
 5831W        W 9350   8.229   1.249   8.199 -0.1053 -0.1280 -0.0725
 5832W        W 9351   9.284   9.029   0.589 -0.1585  0.1679 -0.3057
 5833W        W 9352   9.341   6.105  11.270 -0.1375 -0.1480 -0.2038
 5834W        W 9353   9.891   1.284   1.711 -0.1240 -0.1427 -0.0530
 5835W        W 9354   9.608   6.589   9.509 -0.0479 -0.1118 -0.1091
 5836W        W 9355   6.719   4.704   9.170  0.0889 -0.0830  0.0158
 5837W        W 9356   8.594   5.009   8.450  0.1668  0.1504 -0.0840
 5838W        W 9357   9.625   2.378   0.625 -0.0118 -0.0273 -0.2702
 5839W        W 9358   4.481   3.647   9.757 -0.0040 -0.1609  0.2277
 5840W        W 9359   4.067   5.694  10.515 -0.0959  0.2768 -0.1278
 5841W        W 9360   6.537   8.928   0.578  0.0981  0.0935  0.3111
 5842W        W 9361   4.779   3.838   2.602 -0.0209 -0.0593 -0.0021
 5843W        W 9362   4.201   2.557  10.062  0.1236  0.0056  0.1291
 5844W        W 9363   0.726   4.364   8.650 -0.0232  0.0588 -0.0197
 5845W        W 9364   0.260   7.133   8.743  0.2571  0.2630  0.0451
 5846W        W 9365   1.836   7.500  11.689 -0.0689  0.0306 -0.0777
 5847W        W 9366   9.282   1.206   8.108  0.0709  0.2093 -0.2433
 5848W        W 9367   9.109   0.792   8.263 -0.0457  0.1338 -0.3255
 5849W        W 9368   3.571   8.180   8.995  0.1404 -0.0590  0.2383
 5850W        W 9369   9.769   8.173   0.421 -0.0609 -0.0031  0.0092
 5851W        W 9370   4.131   0.861   1.450 -0.1662  0.4935  0.2713
 5852W        W 9371   7.365   1.424  11.127 -0.1817 -0.0322 -0.0328
 5853W        W 9372   3.289   1.156  11.205  0.0524  0.0112  0.0544
 5854W        W 9373   5.014   3.149   3.112  0.1681 -0.1069 -0.0186
 5855W        W 9374   1.532   6.601  11.831  0.1882  0.4218  0.2423
 5856W        W 9375   9.673   9.138   2.933  0.0693 -0.2374 -0.4734
 5857W        W 9376   3.684   1.845  11.850  0.4204 -0.0307 -0.0727
 5858W        W 9377   0.259   8.924   9.584  0.1058  0.1104 -0.2584
 5859W        W 9378   2.934   9.170   1.504  0.0029  0.2292  0.1994
 5860W        W 9379   9.195   7.574   1.964 -0.3337  0.5014  0.1241
 5861W        W 9380   2.274   4.190   2.172 -0.2706  0.0243  0.1014
 5862W        W 9381   8.213   8.277  11.550 -0.0867 -0.1096  0.0214
 5863W        W 9382   5.828   2.449   9.595 -0.0311 -0.0606 -0.4544
 5864W        W 9383   1.818   8.263   9.356 -0.1559  0.0028 -0.0051
 5865W        W 9384   0.225   5.207   9.966  0.0397  0.0349  0.0598
 5866W        W 9385   7.061   2.298   9.520 -0.0088  0.0015  0.0270
 5867W        W 9386   7.642   1.423   0.265 -0.2252 -0.1251  0.1676
 5868W        W 9387   0.514   4.928  11.650 -0.2879 -0.1295  0.0279
 5869W        W 9388   5.889   8.391   2.361 -0.0390  0.2193  0.0696
 5870W        W 9389   1.074   5.134   9.770  0.4342 -0.0873 -0.1436
 5871W        W 9390   3.414   7.821   0.698  0.1212  0.0960 -0.0976
 5872W        W 9391   2.427   9.656   9.094 -0.2124 -0.1839  0.0816
 5873W        W 9392   9.475   4.189  10.896 -0.3680 -0.1786 -0.0292
 5874W        W 9393   4.646   6.414   1.074 -0.1604 -0.1444  0.0746
 5875W        W 9394   0.585   4.375  10.398 -0.0956 -0.1254  0.1962
 5876W        W 9395   0.614   1.886   8.152  0.2435 -0.0057 -0.1748
 5877W        W 9396   6.023   9.038   0.667  0.1526  0.0403  0.3960
 5878W        W 9397   0.705   8.458   8.602  0.2092  0.0140 -0.1774
 5879W        W 9398   3.197   4.646   0.497 -0.0040  0.3781  0.0333
 5880W        W 9399   9.551   7.675   1.210 -0.1983 -0.1314 -0.0196
 5881W        W 9400   5.260   0.689   2.957  0.4289  0.0228 -0.1445
 5882W        W 9401   0.195   9.558   7.907  0.0259  0.3304 -0.2189
 5883W        W 9402   2.743   1.430   2.200 -0.0652  0.0868 -0.0939
 5884W        W 9403   3.563   2.287   8.607  0.0415 -0.0626  0.4752
 5885W        W 9404   1.451   0.378  11.604  0.0361  0.0764  0.2130
 5886W        W 9405   9.611   2.671  11.177  0.0321 -0.1034  0.3609
 5887W        W 9406   6.869   5.002  10.293  0.1080 -0.3584 -0.0730
 5888W        W 9407   9.100   0.678   1.071 -0.3236 -0.0716  0.2062
 5889W        W 9408   3.825   4.904  10.936  0.0747 -0.0543  0.0658
 5890W        W 9409   4.029   3.056   3.241  0.0085 -0.2584  0.0382
 5891W        W 9410   8.620   2.949  11.522 -0.2181 -0.3049  0.0342
 5892W        W 9411   7.443   6.712   1.274  0.0909  0.1549 -0.3598
 5893W        W 9412   3.638   5.410   4.149  0.0908  0.1231 -0.0953
 5894W        W 9413   5.698   7.170   0.576  0.0762  0.0762  0.0856
 5895W        W 9414   7.419   8.743   9.339 -0.0997 -0.0052  0.1327
 5896W        W 9415   8.662   1.288   0.625  0.0440 -0.2606  0.3765
 5897W        W 9416   0.587   7.582   8.880  0.0147 -0.5048 -0.0271
 5898W        W 9417   0.811   5.899  10.312 -0.4533 -0.0888 -0.5761
 5899W        W 9418   7.604   5.056   1.468 -0.2779  0.2391 -0.0955
 5900W        W 9419   4.897   3.046   0.474  0.2022  0.0961  0.0503
 5901W        W 9420   0.594   7.366   8.359 -0.1066  0.4870  0.5988
 5902W        W 9421   6.473   1.527   2.285  0.3116 -0.1175 -0.0105
 5903W        W 9422   4.636   5.023   1.674 -0.0644  0.0862 -0.1872
 5904W        W 9423   7.903   3.011   8.475 -0.2204 -0.3348  0.3674
 5905W        W 9424   6.727   7.136  11.619  0.0204  0.2405 -0.0064
 5906W        W 9425   9.015   6.785   0.771 -0.1201  0.0597 -0.1957
 5907W        W 9426   2.170   2.813   3.102 -0.0306  0.3705  0.1464
 5908W        W 9427   5.213   5.157   2.820  0.0708 -0.1844 -0.1789
 5909W        W 9428   5.821   0.180  11.136  0.0698  0.0055  0.0381
 5910W        W 9429   3.431   7.793   0.183 -0.1394 -0.2099  0.1380
 5911W        W 9430   3.980   1.686   1.202 -0.4167  0.1907 -0.0408
 5912W        W 9431   7.439   6.462   8.384  0.1738 -0.1032  0.2526
 5913W        W 9432   0.445   6.823  10.218  0.0881 -0.0800  0.0630
 5914W        W 9433   6.676   9.411   7.672  0.1228 -0.2581 -0.2941
 5915W        W 9434   5.623   0.477   3.988  0.4977 -0.2436  0.1769
 5916W        W 9435   7.452   3.623   2.050 -0.4504  0.1299  0.0973
 5917W        W 9436   9.713   8.254   3.400  0.0005  0.4304 -0.1314
 5918W        W 9437   1.578   2.466   8.114 -0.5197 -0.2274  0.1960
 5919W        W 9438   7.414   6.512   0.414 -0.2503  0.4809  0.1380
 5920W        W 9439   6.235   1.108  10.991  0.5679  0.2898  0.0451
 5921W        W 9440   4.793   7.539  10.841 -0.1617 -0.3093  0.0290
 5922W        W 9441   5.658   3.416  10.952  0.0132 -0.1129  0.1393
 5923W        W 9442   2.826   0.043   0.802 -0.1450 -0.1494  0.1493
 5924W        W 9443   2.002   2.691   1.336 -0.1783  0.1448 -0.1594
 5925W        W 9444   2.291   8.079   9.412 -0.2542  0.1313 -0.2585
 5926W        W 9445   2.964   5.890   4.178 -0.0996  0.2007 -0.0764
 5927W        W 9446   2.733   1.496   1.304  0.0062 -0.0356 -0.2061
 5928W        W 9447   2.980   3.941   2.912  0.4324  0.1406  0.1156
 5929W        W 9448   3.080   6.499  10.660 -0.0349 -0.1515 -0.0970
 5930W        W 9449   6.937   5.654   3.473  0.2429 -0.0986 -0.1603
 5931W        W 9450   6.564   7.041  10.689  0.2254 -0.1230  0.4029
 5932W        W 9451   2.278   2.372   0.271  0.0690  0.0738 -0.0393
 5933W        W 9452   9.805   1.875   3.384 -0.2576  0.0881  0.2349
 5934W        W 9453   7.541   4.335   8.764  0.0892 -0.0856  0.0955
 5935W        W 9454   0.571   3.337   3.410 -0.3506 -0.1617 -0.0253
 5936W        W 9455   7.258   8.618   8.490  0.0127  0.2378  0.2032
 5937W        W 9456   4.761   5.587   0.452 -0.0178  0.1781 -0.2008
 5938W        W 9457   8.655   5.668   8.499  0.1774 -0.3619  0.1312
 5939W        W 9458   8.549   3.636  10.019  0.1732 -0.0081  0.0158
 5940W        W 9459   7.274   0.170  11.773  0.0497  0.0319 -0.1388
 5941W        W 9460   6.240   0.747   2.981  0.2520  0.3936  0.2070
 5942W        W 9461   5.175   2.884   1.866  0.1734  0.2602 -0.1153
 5943W        W 9462   6.767   7.529   2.288 -0.0297  0.0934  0.1831
 5944W        W 9463   5.407   7.349   3.396 -0.0607  0.3218 -0.1049
 5945W        W 9464   8.440   1.079   2.741 -0.4184  0.1054  0.2122
 5946W        W 9465   3.931   5.707  11.036 -0.2854  0.0580  0.1756
 5947W        W 9466   9.686   1.398  10.304 -0.0910  0.3055 -0.0451
 5948W        W 9467   2.454   3.707  11.611  0.0549 -0.1307 -0.0368
 5949W        W 9468   7.914   8.529   9.390 -0.2224 -0.3018  0.0038
 5950W        W 9469   6.902   7.055   7.589 -0.0659  0.0135 -0.4137
 5951W        W 9470   5.567   9.266   7.407 -0.0275 -0.1770  0.0011
 5952W        W 9471   3.790   9.379  11.090 -0.0642  0.0345 -0.3007
 5953W        W 9472   1.597   7.213   0.484 -0.1603 -0.1329 -0.2719
 5954W        W 9473   4.645   5.913   9.180 -0.2339  0.1229 -0.0789
 5955W        W 9474   2.280   8.359   8.978  0.0565 -0.1409  0.1618
 5956W        W 9475   8.478   0.187   8.231  0.0284 -0.1875  0.0442
 5957W        W 9476   9.570   7.224   1.434  0.0661  0.0789  0.2493
 5958W        W 9477   9.550   8.814   3.330 -0.3215 -0.2648  0.1660
 5959W        W 9478   1.425   3.984   4.307  0.2431  0.1646  0.2141
 5960W        W 9479   4.214   7.906  10.183  0.0851  0.0881 -0.4571
 5961W        W 9480   4.677   4.939   9.031 -0.1853  0.0492  0.2119
 5962W        W 9481   3.239   6.458  11.281  0.1342  0.0975  0.1219
 5963W        W 9482   7.584   9.742  11.462 -0.2383 -0.3804 -0.2234
 5964W        W 9483   7.941   4.045   2.828  0.0059  0.4092 -0.1163
 5965W        W 9484   2.264   6.169  11.772 -0.0100  0.2248  0.0670
 5966W        W 9485   6.133   6.728   0.249 -0.3828 -0.2877  0.2020
 5967W        W 9486   6.072   6.556   1.821 -0.1777 -0.0002 -0.1202
 5968W        W 9487   0.127   4.315   0.736 -0.0700 -0.1220 -0.1992
 5969W        W 9488   1.248   7.273   2.858 -0.0373  0.0156 -0.0781
 5970W        W 9489   5.370   0.066  11.291  0.1066  0.0500 -0.2740
 5971W        W 9490   1.846   1.112   0.867 -0.2839 -0.0641  0.0705
 5972W        W 9491   1.878   3.121   2.751 -0.0622 -0.2665 -0.0458
 5973W        W 9492   7.449   0.085   2.694 -0.2616  0.0840 -0.2604
 5974W        W 9493   3.463   6.973  10.602 -0.1600  0.2285  0.0969
 5975W        W 9494   6.630   2.201   3.360  0.1500  0.1101 -0.2444
 5976W        W 9495   6.873   1.751   3.047 -0.0151  0.2820 -0.1761
 5977W        W 9496   6.250   4.370   3.368 -0.1650  0.0387 -0.1135
 5978W        W 9497   2.483   5.127  11.938 -0.0094 -0.0822 -0.1914
 5979W        W 9498   8.699   9.908   3.957 -0.2298 -0.0338  0.3560
 5980W        W 9499   6.826   4.572   0.992  0.0089 -0.5480 -0.1109
 5981W        W 9500   6.274   1.538   8.840  0.0760  0.1342 -0.1088
 5982W        W 9501   6.874   1.888   0.326  0.1880 -0.1640  0.3737
 5983W        W 9502   5.831   1.725   9.054 -0.1010  0.1529 -0.0524
 5984W        W 9503   9.278   0.989   2.223  0.3029 -0.1086  0.0092
 5985W        W 9504   4.232   6.858  11.928  0.4065 -0.0665  0.5432
 5986W        W 9505   9.948   5.015  10.906  0.0024  0.0565 -0.4009
 5987W        W 9506   2.511   0.512   8.993  0.3710 -0.0634 -0.1329
 5988W        W 9507   5.279   8.651   2.974 -0.2124 -0.0263 -0.1526
 5989W        W 9508   0.829   6.431   2.662 -0.1655 -0.1166 -0.0379
 5990W        W 9509   2.916   4.380   1.042  0.0882  0.2119  0.0722
 5991W        W 9510   8.739   7.022  11.898 -0.0683 -0.0992 -0.1711
 5992W        W 9511   3.161   0.433   0.411 -0.0917  0.0351  0.1896
 5993W        W 9512   4.306   3.046   1.443  0.2428  0.1891 -0.0818
 5994W        W 9513   7.781   0.118  11.926  0.1441 -0.0314 -0.1019
 5995W        W 9514   9.318   6.744   9.065  0.2905  0.2010 -0.0261
 5996W        W 9515   9.686   9.939  11.859  0.0923 -0.2273  0.0583
 5997W        W 9516   5.398   5.504   1.978  0.0558 -0.0226 -0.0120
 5998W        W 9517   9.532   2.413   8.679 -0.3441  0.0744 -0.0474
 5999W        W 9518   2.021   5.729   2.158 -0.0359 -0.0160 -0.3358
 6000W        W 9519   6.656   7.723   0.146  0.0582 -0.0128 -0.1473
 6001W        W 9520   8.940   8.557   9.272 -0.1611  0.0776 -0.3104
 6002W        W 9521   3.631   1.760   9.815 -0.0963 -0.6392  0.1383
 6003W        W 9522   7.507   6.584   7.855 -0.0858 -0.3413 -0.1021
 6004W        W 9523   3.706   5.040   6.118 -0.0341  0.3818 -0.1347
 6005W        W 9524   9.849   1.551   2.412 -0.1077 -0.1762 -0.0271
 6006W        W 9525   0.593   1.496   9.983  0.1898 -0.1930 -0.1209
 6007W        W 9526   7.299   5.319  10.200  0.1576 -0.3171 -0.1581
 6008W        W 9527   7.218   1.692   0.884  0.0400  0.0163 -0.0892
 6009W        W 9528   4.986   0.370   3.363 -0.1441 -0.0877  0.3280
 6010W        W 9529   3.992   9.114   2.177  0.2860  0.0491 -0.0223
 6011W        W 9530   2.530   2.680   8.158  0.1581 -0.1443  0.0126
 6012W        W 9531   5.980   8.321   0.048  0.0518 -0.2626  0.0402
 6013W        W 9532   9.479   1.520   9.771 -0.0367  0.2867 -0.0592
 6014W        W 9533   3.097   0.740  10.064  0.1237  0.0673 -0.1365
 6015W        W 9534   2.145   8.950   9.194 -0.3612  0.0285  0.2968
 6016W        W 9535   4.380   3.199   9.578  0.1084 -0.1538  0.2573
 6017W        W 9536   2.603   6.618   8.005  0.1258 -0.2425 -0.1389
 6018W        W 9537   5.379   6.698   2.740  0.1362  0.0745  0.2737
 6019W        W 9538   8.599   9.204  10.754  0.2050 -0.0864 -0.2243
 6020W        W 9539   8.507   8.727  11.434  0.1199 -0.1733  0.2283
 6021W        W 9540   6.409   3.338   3.183 -0.2866  0.1042 -0.1808
 6022W        W 9541   4.845   3.632   2.128 -0.1307  0.1352 -0.0599
 6023W        W 9542   3.000   2.007  10.223 -0.0216  0.0155 -0.0121
 6024W        W 9543   8.096   8.068   9.607  0.0114 -0.1294  0.0122
 6025W        W 9544   6.662   5.421  10.522 -0.2507 -0.3227 -0.0417
 6026W        W 9545   6.935   9.140  10.417 -0.1794  0.0697  0.0301
 6027W        W 9546   0.307   9.143  10.059 -0.0665  0.0705  0.1668
 6028W        W 9547   6.972   4.018   2.852 -0.3875  0.1754  0.3156
 6029W        W 9548   5.523   0.942   9.369  0.3358  0.1167 -0.2028
 6030W        W 9549   4.249   4.314   1.656 -0.3034 -0.4220  0.0603
 6031W        W 9550   4.442   0.349   9.875 -0.4059  0.0930  0.1173
 6032W        W 9551   3.684   1.352   1.594 -0.1284 -0.1113  0.2207
 6033W        W 9552   9.861   6.209   1.003  0.1244  0.0401  0.0193
 6034W        W 9553   0.225   1.481   0.773 -0.0366 -0.0960  0.2043
 6035W        W 9554   8.760   5.680   0.031 -0.2788 -0.2992 -0.3838
 6036W        W 9555   3.867   2.833   1.954  0.2522  0.2569  0.0322
 6037W        W 9556   4.658   1.953  10.250 -0.2062  0.1022  0.3533
 6038W        W 9557   2.222   5.462   9.938  0.2284  0.0215 -0.2571
 6039W        W 9558   6.530   3.801   2.630  0.1356 -0.1049  0.3660
 6040W        W 9559   0.945   8.932   2.500 -0.0230  0.0078  0.0475
 6041W        W 9560   8.001   4.133   9.107 -0.0523  0.0505  0.1662
 6042W        W 9561   7.965   4.695   9.168 -0.0164 -0.2192 -0.1104
 6043W        W 9562   3.930   7.692  10.592  0.0690 -0.1345 -0.1259
 6044W        W 9563   9.110   1.897   2.883  0.1580  0.0706 -0.2418
 6045W        W 9564   4.422   9.482   8.074 -0.1491  0.0763 -0.0840
 6046W        W 9565   7.520   3.296   9.323  0.1051  0.2537 -0.2330
 6047W        W 9566   7.852   9.067   0.091 -0.0039  0.0712  0.2165
 6048W        W 9567   8.909   6.261  10.015  0.1404 -0.1772 -0.0812
 6049W        W 9568   9.006   2.430   7.802  0.1747 -0.2225  0.1070
 6050W        W 9569   9.407   9.169   2.006  0.0039  0.2638  0.2060
 6051W        W 9570   7.726   3.777   1.601  0.3241  0.1230 -0.1897
 6052W        W 9571   6.591   6.759   9.377  0.1788 -0.1476  0.1665
 6053W        W 9572   9.798   8.800   7.549  0.2924 -0.1859 -0.1520
 6054W        W 9573   0.467   6.872   8.355  0.0872 -0.0172 -0.0493
 6055W        W 9574   3.823   7.773   2.708  0.0055  0.3548 -0.1220
 6056W        W 9575   0.484   2.592   9.060 -0.1695  0.1240 -0.0309
 6057W        W 9576   6.384   0.901   9.288 -0.2517 -0.0564 -0.0174
 6058W        W 9577   5.624   4.899  10.889 -0.0461  0.1646 -0.0669
 6059W        W 9578   8.617   2.529  11.952  0.1011 -0.0352  0.0981
 6060W        W 9579   9.897   4.264   1.315  0.3172 -0.1306 -0.0598
 6061W        W 9580   8.391   6.210  10.208 -0.0672  0.0319 -0.2954
 6062W        W 9581   8.883   3.591   4.055 -0.0054  0.1558 -0.0507
 6063W        W 9582   5.548   5.691  11.156  0.1114  0.2574  0.2604
 6064W        W 9583   1.288   8.188   8.854 -0.3264  0.0875 -0.0490
 6065W        W 9584   1.446   3.476   3.339  0.0796 -0.1197 -0.0353
 6066W        W 9585   2.592   7.134   1.878 -0.2492 -0.2082  0.2718
 6067W        W 9586   9.338   1.524  11.050  0.1177  0.1749 -0.0328
 6068W        W 9587   7.246   6.215   1.708 -0.1802  0.2048  0.1610
 6069W        W 9588   3.044   2.132   3.719  0.1573 -0.1563 -0.1354
 6070W        W 9589   0.763   4.092   7.888  0.0445  0.0118  0.1510
 6071W        W 9590   8.561   5.307   9.361 -0.1376 -0.0343 -0.3719
 6072W        W 9591   4.424   0.488   1.337  0.0403 -0.0389 -0.1482
 6073W        W 9592   4.280   5.890   6.847 -0.5335  0.0173 -0.1046
 6074W        W 9593   5.925   9.452   8.587  0.0275 -0.3125  0.0624
 6075W        W 9594   4.533   7.994   1.524 -0.4132 -0.1262  0.0162
 6076W        W 9595   4.349   7.794   2.658  0.1417  0.1467 -0.2930
 6077W        W 9596   6.457   9.534   2.923  0.3919 -0.3303 -0.0478
 6078W        W 9597   3.852   5.464   0.580 -0.1704 -0.0229 -0.0212
 6079W        W 9598   4.645   2.503  10.329  0.0379  0.1403 -0.0332
 6080W        W 9599   0.838   8.950   9.381  0.1795  0.3702  0.0025
 6081W        W 9600   9.588   9.078   2.422  0.3129 -0.1077  0.1208
 6082W        W 9601   7.789   4.810   7.780  0.1402 -0.1527 -0.1426
 6083W        W 9602   0.995   9.708   7.213  0.2813  0.1484  0.0311
 6084W        W 9603   7.651   5.935   7.700 -0.1697 -0.0246 -0.2590
 6085W        W 9604   7.813   1.359   2.948 -0.0780 -0.3967 -0.2626
 6086W        W 9605   3.255   6.137   2.723  0.2480  0.2297  0.0009
 6087W        W 9606   5.349   9.700   9.857 -0.2962  0.1262  0.1981
 6088W        W 9607   6.107   2.866   0.753 -0.3702 -0.0177  0.2559
 6089W        W 9608   0.102   7.443   9.698 -0.0968 -0.0336 -0.0940
 6090W        W 9609   4.797   1.247  10.948 -0.1580  0.1704 -0.0606
 6091W        W 9610   9.145   6.606   1.697 -0.3250  0.2483 -0.0336
 6092W        W 9611   4.948   6.534  11.419  0.1506  0.1397 -0.2768
 6093W        W 9612   6.176   7.337  10.485  0.1739 -0.0504 -0.0179
 6094W        W 9613   7.146   3.722   7.647 -0.2303 -0.0238 -0.4387
 6095W        W 9614   2.102   3.125   0.886  0.1930  0.2507 -0.0729
 6096W        W 9615   6.045   6.812   8.324  0.0630 -0.0752 -0.2257
 6097W        W 9616   8.118   9.671  11.255  0.0015 -0.1798 -0.1651
 6098W        W 9617   2.347   2.574   4.140  0.1783  0.0483  0.2990
 6099W        W 9618   4.748   7.550   9.410  0.3170 -0.1886 -0.5982
 6100W        W 9619   1.872   6.935   1.129  0.0027 -0.0154  0.0348
 6101W        W 9620   5.423   8.387   3.363 -0.5732  0.0553  0.1733
 6102W        W 9621   1.894   1.131  11.366 -0.0964  0.0717 -0.3174
 6103W        W 9622   3.448   2.737   8.319  0.2389 -0.1936  0.3181
 6104W        W 9623   9.481   9.776   3.464  0.2242 -0.0451  0.0340
 6105W        W 9624   4.217   6.192   0.706  0.0860 -0.3589  0.0773
 6106W        W 9625   4.768   5.212   0.048 -0.1017  0.0776 -0.2994
 6107W        W 9626   5.525   1.287   3.246  0.0004  0.0750  0.3672
 6108W        W 9627   9.203   5.134  11.070  0.0718 -0.1991 -0.0437
 6109W        W 9628   0.224   4.703   4.042  0.0725 -0.0511 -0.3728
 6110W        W 9629   0.520   2.337   0.200 -0.0252  0.0904  0.1029
 6111W        W 9630   8.125   3.497   8.582 -0.0804  0.0343  0.2203
 6112W        W 9631   6.601   3.243   1.431  0.1389 -0.0395  0.0496
 6113W        W 9632   8.233   7.710   7.456 -0.0408  0.0009 -0.1467
 6114W        W 9633   6.211   6.115   1.570  0.3732 -0.1978  0.3164
 6115W        W 9634   7.563   7.195  10.937  0.4106  0.0301  0.3376
 6116W        W 9635   7.689   2.252   1.506 -0.1491 -0.0174  0.1780
 6117W        W 9636   6.947   2.541   1.733  0.3413  0.1038 -0.2347
 6118W        W 9637   3.225   5.621   3.837  0.1543  0.0644  0.1010
 6119W        W 9638   0.646   3.056  11.446 -0.3167 -0.3980  0.0964
 6120W        W 9639   9.884   1.281   9.507 -0.0371  0.0580  0.1819
 6121W        W 9640   7.722   2.259   0.327  0.1194 -0.0874  0.0257
 6122W        W 9641   4.723   6.427   9.426 -0.1462  0.0398 -0.0785
 6123W        W 9642   2.688   6.990   3.940 -0.0440  0.0695 -0.0391
 6124W        W 9643   7.771   6.638   2.405 -0.0750  0.0837  0.3563
 6125W        W 9644   4.118   8.168   1.875 -0.3167 -0.1093 -0.2623
 6126W        W 9645   3.958   8.291   1.418 -0.2070  0.0035  0.1740
 6127W        W 9646   5.822   5.276   8.034  0.1344  0.0559  0.0262
 6128W        W 9647   5.919   8.484   1.000  0.0373  0.1103  0.3621
 6129W        W 9648   6.124   0.110   0.490 -0.0431 -0.1311  0.2432
 6130W        W 9649   9.261   5.524   2.966 -0.0200 -0.1240  0.0601
 6131W        W 9650   4.158   2.600  10.534  0.0433  0.2621  0.1615
 6132W        W 9651   8.850   4.682  10.810 -0.1307  0.0399 -0.1844
 6133W        W 9652   4.480   3.519   8.712 -0.0339  0.1614 -0.3505
 6134W        W 9653   6.453   0.474  11.710  0.2885  0.1212 -0.2251
 6135W        W 9654   3.554   0.849   9.894  0.3128  0.0508 -0.2209
 6136W        W 9655   9.369   4.824   2.291  0.2867  0.2011  0.1855
 6137W        W 9656   1.794   6.780   2.458 -0.1896  0.2182  0.1282
 6138W        W 9657   5.168   9.190   1.828 -0.1848 -0.3303 -0.0180
 6139W        W 9658   5.311   7.445   0.028  0.2045  0.1025 -0.2398
 6140W        W 9659   3.574   7.347   0.550 -0.1629  0.0687  0.1638
 6141W        W 9660   8.022   6.466   9.519  0.0019  0.0890 -0.0866
 6142W        W 9661   0.579   2.812   0.380  0.0276  0.2148  0.2444
 6143W        W 9662   0.017   6.440   0.531 -0.1342  0.2052  0.0166
 6144W        W 9663   1.637   8.031   2.999  0.2515  0.2194  0.1832
 6145W        W 9664   6.938   8.195   8.495 -0.0708  0.1863 -0.0150
 6146W        W 9665   8.291   4.471   1.586 -0.1943 -0.0028  0.2642
 6147W        W 9666   8.994   2.880  11.141  0.0973 -0.1772  0.1481
 6148W        W 9667   1.582   6.562   2.879  0.2120 -0.1855 -0.2250
 6149W        W 9668   5.967   5.946  10.344 -0.0807  0.1493 -0.2973
 6150W        W 9669   0.012   3.884   0.904  0.3172 -0.0853  0.1205
 6151W        W 9670   9.284   0.199   8.771  0.4208 -0.1391 -0.2691
 6152W        W 9671   4.326   9.596  11.133  0.0312  0.1170 -0.2514
 6153W        W 9672   0.715   1.843   0.101 -0.1081 -0.0522 -0.0017
 6154W        W 9673   1.191   4.969   8.429  0.1216 -0.1570  0.1201
 6155W        W 9674   8.910   5.607   1.359 -0.1042  0.0230  0.0798
 6156W        W 9675   8.418   7.283   9.022  0.1946  0.2510 -0.0274
 6157W        W 9676   6.613   8.352   7.757  0.2627  0.2171 -0.2709
 6158W        W 9677   8.880   5.937  11.514 -0.0710 -0.1542  0.0525
 6159W        W 9678   3.055   3.848  11.655  0.1790 -0.0566 -0.0505
 6160W        W 9679   9.896   3.191  11.644  0.3371 -0.2981  0.0678
 6161W        W 9680   1.097   9.643  10.777 -0.0792 -0.4608 -0.2147
 6162W        W 9681   9.250   3.564   1.987  0.2985 -0.0366 -0.3482
 6163W        W 9682   3.416   4.343   0.829 -0.0053 -0.1632 -0.1756
 6164W        W 9683   9.241   8.025   1.094 -0.1198 -0.1389 -0.1181
 6165W        W 9684   9.199   3.786  11.177 -0.4209  0.2664 -0.3238
 6166W        W 9685   6.461   5.750   0.177 -0.0325 -0.2413 -0.2839
 6167W        W 9686   9.728   6.258   7.059  0.3335  0.3219  0.0464
 6168W        W 9687   2.224   8.737   0.482  0.0777  0.1252 -0.2276
 6169W        W 9688   9.277   7.992   3.391  0.3256  0.2262  0.3891
 6170W        W 9689   8.441   9.502   9.450  0.0617 -0.0102  0.0816
 6171W        W 9690   5.093   0.117   9.627  0.0576  0.1181  0.3550
 6172W        W 9691   6.788   3.279   9.460 -0.3209 -0.3683 -0.1089
 6173W        W 9692   4.359   5.760  11.268  0.0719  0.1934 -0.2313
 6174W        W 9693   2.657   6.495   0.935  0.1455  0.0566 -0.1025
 6175W        W 9694   6.672   6.938   0.839 -0.0386 -0.0981  0.0494
 6176W        W 9695   4.175   5.469   0.153 -0.0200  0.1126 -0.2700
 6177W        W 9696   8.706   8.541   0.338  0.1176 -0.0113  0.3144
 6178W        W 9697   5.385   4.104   9.971 -0.2234 -0.0079  0.0198
 6179W        W 9698   0.205   8.881   3.096  0.0233 -0.5998  0.2472
 6180W        W 9699   6.487   2.504   0.793 -0.0114 -0.0497  0.0116
 6181W        W 9700   3.114   0.897   2.830 -0.0773 -0.0840 -0.0667
 6182W        W 9701   5.905   4.584   2.473  0.0644 -0.0270  0.1200
 6183W        W 9702   7.623   9.694   1.166 -0.3614  0.0801 -0.2766
 6184W        W 9703   6.645   3.638   9.809 -0.4638  0.1033 -0.0422
 6185W        W 9704   4.925   1.205   8.100 -0.0643 -0.1440 -0.1211
 6186W        W 9705   1.078   2.683   9.770 -0.0907  0.1123 -0.3713
 6187W        W 9706   8.269   0.792   8.919 -0.0418 -0.1201 -0.0662
 6188W        W 9707   4.666   7.551   2.922  0.3649  0.1238 -0.2387
 6189W        W 9708   9.532   5.477  10.774 -0.0434 -0.0017  0.0735
 6190W        W 9709   6.928   7.281   3.232 -0.2996  0.1944  0.3019
 6191W        W 9710   7.005   6.144  11.558  0.3802  0.0053 -0.1548
 6192W        W 9711   9.451   6.327   3.192 -0.0741 -0.0954 -0.2022
 6193W        W 9712   8.206   1.128   0.896 -0.0281  0.2768  0.0013
 6194W        W 9713   5.804   4.400   2.034 -0.3240 -0.0587 -0.2289
 6195W        W 9714   4.084   6.541   1.076  0.0220  0.0358  0.0744
 6196W        W 9715   4.493   5.639  10.804  0.1736  0.2081 -0.2826
 6197W        W 9716   7.021   9.102   0.618  0.0185  0.0046 -0.0616
 6198W        W 9717   0.815   5.586   0.661 -0.0729 -0.0722  0.0603
 6199W        W 9718   0.642   0.007   2.207  0.0205  0.1548 -0.0105
 6200W        W 9719   7.781   9.277  10.595  0.0383  0.2417 -0.1449
 6201W        W 9720   6.714   8.867  10.743 -0.2886  0.1068 -0.3558
 6202W        W 9721   1.020   6.695   9.139  0.1681  0.2386  0.0077
 6203W        W 9722   1.769   4.490   2.783 -0.1808  0.2225 -0.2259
 6204W        W 9723   8.487   1.849   2.244  0.2167 -0.1162 -0.1653
 6205W        W 9724   1.232   6.207  10.224  0.1195  0.0209 -0.0832
 6206W        W 9725   2.569   4.598   2.320  0.1678  0.2030  0.0652
 6207W        W 9726   6.250   2.772   9.399 -0.1628  0.1696  0.1142
 6208W        W 9727   5.050   0.478  10.576 -0.1445 -0.2696  0.0556
 6209W        W 9728   6.463   0.162   8.377 -0.1160  0.0375 -0.1947
 6210W        W 9729   1.835   0.301   9.098  0.1711 -0.2712 -0.1576
 6211W        W 9730   5.716   0.723   7.939  0.0145 -0.1525 -0.0651
 6212W        W 9731   6.020   8.062   0.524 -0.0461  0.0463  0.0800
 6213W        W 9732   6.176   5.629  11.719 -0.1225  0.0996 -0.0453
 6214W        W 9733   8.662   8.208   0.744 -0.0078  0.2057 -0.1457
 6215W        W 9734   1.564   5.014   0.658 -0.1928  0.0334  0.0537
 6216W        W 9735   1.046   5.603   9.522  0.0629 -0.0860 -0.2245
 6217W        W 9736   4.623   7.056   0.240 -0.2359  0.0618  0.0599
 6218W        W 9737   3.985   1.293   2.330  0.0291  0.0382  0.0680
 6219W        W 9738   5.248   5.572   9.661  0.2318  0.2624  0.1596
 6220W        W 9739   6.664   6.132   0.518 -0.0194  0.1337 -0.0492
 6221W        W 9740   6.894   8.130  11.812  0.0221 -0.0890 -0.3323
 6222W        W 9741   1.189   5.715   1.760  0.2136 -0.1518  0.1891
 6223W        W 9742   9.671   8.266  10.871 -0.0068  0.2011 -0.0165
 6224W        W 9743   4.766   1.739   2.866  0.0022 -0.2309  0.1976
 6225W        W 9744   1.919   1.649   0.421 -0.0877  0.1339  0.1259
 6226W        W 9745   1.754   2.121   8.776 -0.0411  0.0599 -0.0615
 6227W        W 9746   8.299   2.825   0.720 -0.1423  0.1517 -0.0516
 6228W        W 9747   2.513   0.173   2.953 -0.0518  0.2653  0.3582
 6229W        W 9748   7.784   6.850   8.597  0.2016  0.0414 -0.4320
 6230W        W 9749   7.250   1.625   2.434 -0.0024  0.0845 -0.0420
 6231W        W 9750   3.537   5.751   8.461  0.1258 -0.0702 -0.3121
 6232W        W 9751   1.099   6.688  10.297 -0.0087 -0.1287  0.1060
 6233W        W 9752   0.066   2.331   3.197  0.0066  0.1839 -0.2130
 6234W        W 9753   9.448   0.691   2.593 -0.1266  0.1675 -0.0119
 6235W        W 9754   3.709   9.357   0.021  0.1425 -0.0375  0.3909
 6236W        W 9755   7.108   6.185  10.701  0.3354 -0.2832 -0.2245
 6237W        W 9756   0.160   2.598   2.193  0.0768  0.0009 -0.2465
 6238W        W 9757   1.064   4.438   3.636  0.2588  0.0622 -0.0249
 6239W        W 9758   8.185   0.894  10.215  0.0504  0.0606  0.1861
 6240W        W 9759   1.732   1.162   0.364 -0.1255 -0.2465  0.0996
 6241W        W 9760   8.731   5.281   2.751 -0.0303 -0.1674  0.1765
 6242W        W 9761   4.924   2.308   9.577  0.0302 -0.0745 -0.2201
 6243W        W 9762   0.424   4.472   8.193 -0.0256 -0.0746  0.0923
 6244W        W 9763   7.031   3.754   9.532 -0.0189 -0.1273  0.1204
 6245W        W 9764   8.285   5.321  11.737 -0.4421  0.1013  0.0279
 6246W        W 9765   6.454   0.909  11.466 -0.0339  0.1641 -0.0241
 6247W        W 9766   6.988   6.965   9.165  0.0215 -0.1349 -0.2717
 6248W        W 9767   0.678   3.889  10.635 -0.0798  0.3360 -0.0024
 6249W        W 9768   5.517   7.501   2.132  0.1417 -0.2355 -0.1027
 6250W        W 9769   4.431   4.350   2.260  0.1282  0.6183 -0.1877
 6251W        W 9770   0.005   7.230   1.168  0.0707 -0.0094 -0.1314
 6252W        W 9771   8.912   3.611  10.372  0.1424 -0.0216 -0.2143
 6253W        W 9772   6.863   6.800   1.390  0.3338  0.1497 -0.2181
 6254W        W 9773   2.116   7.259   9.056 -0.2983 -0.0705  0.1666
 6255W        W 9774   0.138   4.989   9.468  0.2846  0.0884  0.2171
 6256W        W 9775   5.579   7.637   0.452  0.0692 -0.0513 -0.1807
 6257W        W 9776   0.530   3.763   9.344 -0.1701  0.1211 -0.0173
 6258W        W 9777   6.958   6.738   8.549 -0.0156 -0.2022 -0.0095
 6259W        W 9778   4.752   6.885   6.182 -0.0141  0.1092 -0.1466
 6260W        W 9779   6.591   8.847   2.230 -0.1112  0.0346  0.3244
 6261W        W 9780   0.866   2.885   1.148 -0.0827  0.1056  0.0702
 6262W        W 9781   7.385   7.087   7.759 -0.1993 -0.0009  0.2677
 6263W        W 9782   8.367   7.796   0.584 -0.0304 -0.2565  0.1735
 6264W        W 9783   4.654   1.789  11.763 -0.0163  0.0890 -0.4524
 6265W        W 9784   4.842   3.111  11.455 -0.0279  0.1102 -0.0654
 6266W        W 9785   0.843   9.110   8.830 -0.1890  0.1130 -0.0427
 6267W        W 9786   2.592   7.067  11.336 -0.1735  0.3310  0.0876
 6268W        W 9787   0.313   6.014  11.371  0.2825  0.4222  0.0669
 6269W        W 9788   5.255   5.126  11.890 -0.1745  0.0454  0.1590
 6270W        W 9789   1.608   8.465  10.420 -0.0215 -0.0741 -0.1595
 6271W        W 9790   4.872   9.448   9.712  0.0788  0.1439 -0.2863
 6272W        W 9791   8.106   8.950  11.654  0.0736 -0.2321 -0.0619
 6273W        W 9792   1.478   7.394  11.287  0.0244 -0.1215 -0.2323
 6274W        W 9793   7.494   5.572  11.055  0.0023 -0.0037 -0.1536
 6275W        W 9794   9.413   6.826   1.148 -0.3083  0.1505 -0.2086
 6276W        W 9795   9.817   9.163   9.631 -0.0509 -0.0053 -0.0295
 6277W        W 9796   3.324   0.491   9.640 -0.0726 -0.0812 -0.1593
 6278W        W 9797   7.017   9.657   8.709 -0.1170  0.0213  0.1567
 6279W        W 9798   3.883   2.407   1.077  0.1492 -0.2508 -0.0194
 6280W        W 9799   2.551   4.887   3.243 -0.0578  0.2763  0.0239
 6281W        W 9800   4.345   1.286  11.213  0.2869 -0.1565  0.0780
 6282W        W 9801   8.464   7.304  10.038 -0.2751 -0.2138  0.2104
 6283W        W 9802   2.126   4.356   8.607 -0.0507  0.1123  0.2428
 6284W        W 9803   3.105   8.682   9.464 -0.3624 -0.1852  0.0750
 6285W        W 9804   4.090   8.194   2.887 -0.1731 -0.1143 -0.1372
 6286W        W 9805   3.368   8.381   1.398 -0.2076 -0.0297  0.1900
 6287W        W 9806   3.450   3.338   3.293  0.1145  0.1648  0.0315
 6288W        W 9807   2.657   7.974   0.639 -0.4129  0.3271 -0.2108
 6289W        W 9808   0.174   3.153   1.109  0.1145 -0.0976 -0.2958
 6290W        W 9809   3.450   2.475   3.494  0.0019 -0.0170 -0.2555
 6291W        W 9810   8.808   3.175   9.685 -0.2828  0.1305  0.1896
 6292W        W 9811   0.039   5.363   2.238  0.0084 -0.1835 -0.1221
 6293W        W 9812   3.097   8.312  11.297  0.1230 -0.2132  0.0245
 6294W        W 9813   6.218   4.672   2.897 -0.1561 -0.1114  0.0731
 6295W        W 9814   9.951   1.688   9.996  0.0238 -0.1738 -0.1245
 6296W        W 9815   6.995   5.077   8.974  0.3283 -0.4694 -0.1091
 6297W        W 9816   8.778   0.780   0.099 -0.2780 -0.0438 -0.3304
 6298W        W 9817   1.945   8.411   9.820 -0.3258 -0.0406 -0.1444
 6299W        W 9818   3.433   9.353   1.083  0.0089 -0.1223  0.0870
 6300W        W 9819   1.782   1.912   1.313 -0.0553  0.0663 -0.0851
 6301W        W 9820   1.226   0.471   2.788 -0.1671  0.1388  0.0612
 6302W        W 9821   4.683   6.378  10.534  0.1156  0.0258  0.0560
 6303W        W 9822   0.218   9.916  11.770 -0.0458 -0.2043 -0.1172
 6304W        W 9823   1.462   0.424  10.212 -0.1059 -0.3709 -0.2648
 6305W        W 9824   2.751   8.381  11.884  0.0121 -0.0804 -0.0853
 6306W        W 9825   4.072   1.202   9.153  0.2191  0.1819 -0.1063
 6307W        W 9826   0.951   6.705   1.606  0.1100 -0.1717  0.2060
 6308W        W 9827   4.044   5.177   4.871  0.3466  0.0268  0.0480
 6309W        W 9828   8.180   2.606   7.199 -0.0233 -0.0652  0.2274
 6310W        W 9829   8.208   9.382   0.062 -0.0871 -0.2828  0.0793
 6311W        W 9830   4.835   1.264   3.281  0.1773 -0.1688 -0.1795
 6312W        W 9831   8.361   0.307  11.728  0.1023  0.1620 -0.1453
 6313W        W 9832   5.715   2.335   7.685  0.2193  0.1974 -0.0378
 6314W        W 9833   8.178   5.002   1.531 -0.1055 -0.0150 -0.0047
 6315W        W 9834   9.586   2.080   9.003 -0.1600  0.1236  0.3104
 6316W        W 9835   6.205   7.382   8.080  0.0460  0.1516  0.1652
 6317W        W 9836   9.715   6.949   2.606 -0.0630  0.2349 -0.1765
 6318W        W 9837   3.281   2.168  10.653 -0.0602  0.4187  0.0003
 6319W        W 9838   3.597   2.586  10.635 -0.2693  0.2420  0.0523
 6320W        W 9839   1.586   0.758   9.186  0.1599 -0.0669  0.3553
 6321W        W 9840   7.672   8.442   2.035  0.6578 -0.4692  0.1556
 6322W        W 9841   5.448   4.266   1.729 -0.1578 -0.0805 -0.2065
 6323W        W 9842   4.116   6.370  11.880 -0.1074 -0.2570  0.1451
 6324W        W 9843   8.472   1.895   8.123  0.1557  0.0990 -0.0983
 6325W        W 9844   7.831   6.054   3.614  0.3457 -0.0724  0.1332
 6326W        W 9845   0.771   6.701   4.004 -0.3361  0.1339  0.2646
 6327W        W 9846   8.838   7.557   2.780 -0.1260  0.0848  0.0293
 6328W        W 9847   3.741   4.402   7.838 -0.0122 -0.2397 -0.0282
 6329W        W 9848   0.483   1.602  11.051 -0.2738  0.2864  0.0705
 6330W        W 9849   7.029   7.603   3.601  0.0075  0.0836 -0.0465
 6331W        W 9850   7.756   3.260   3.415 -0.1836 -0.1413 -0.1678
 6332W        W 9851   7.660   2.707   9.813  0.1230 -0.5097  0.1485
 6333W        W 9852   8.785   3.231   1.246 -0.0010  0.0646 -0.1589
 6334W        W 9853   6.381   6.675   1.317 -0.3750 -0.2918 -0.3549
 6335W        W 9854   5.623   2.764   8.831  0.0561  0.1286 -0.1196
 6336W        W 9855   4.837   3.849  10.249  0.2005 -0.5663  0.0971
 6337W        W 9856   1.316   5.715   8.904 -0.6222 -0.3151 -0.0581
 6338W        W 9857   3.889   3.242  11.162 -0.2322 -0.2085  0.1352
 6339W        W 9858   5.225   2.787   1.321  0.0095  0.1970 -0.0896
 6340W        W 9859   3.873   9.735   2.192 -0.3717  0.0397 -0.0078
 6341W        W 9860   2.249   9.375   9.436  0.0942 -0.1278 -0.1721
 6342W        W 9861   6.705   3.183   2.577 -0.1420 -0.0193  0.2134
 6343W        W 9862   6.741   5.346   1.631  0.0572  0.3921 -0.0309
 6344W        W 9863   0.644   8.678  11.716 -0.2597 -0.2081  0.1735
 6345W        W 9864   8.703   1.934   3.911 -0.1697 -0.0256  0.0962
 6346W        W 9865   9.405   4.279   0.459 -0.0264  0.3375  0.1922
 6347W        W 9866   5.445   3.200   9.864  0.0834  0.3578  0.0109
 6348W        W 9867   6.655   9.427   0.423 -0.0927  0.1059 -0.3446
 6349W        W 9868   9.310   1.918   1.345  0.1513  0.1276  0.3579
 6350W        W 9869   0.164   1.824   9.000 -0.1341  0.0483 -0.0925
 6351W        W 9870   6.775   8.219   9.226 -0.1448 -0.0802  0.2658
 6352W        W 9871   8.310   6.777   7.407 -0.2192  0.2523  0.3097
 6353W        W 9872   7.942   0.964   7.802 -0.0747  0.0923 -0.1077
 6354W        W 9873   5.796   9.153  11.351  0.0551 -0.0485  0.1169
 6355W        W 9874   5.019   1.864  11.063 -0.0830  0.0292  0.0022
 6356W        W 9875   6.801   2.372  10.752 -0.1447 -0.1858  0.1000
 6357W        W 9876   0.374   1.088  11.026  0.2065  0.2815  0.0795
 6358W        W 9877   4.089   5.410  11.552  0.3074  0.1457  0.0157
 6359W        W 9878   2.975   7.450   8.715 -0.1937  0.2070 -0.0060
 6360W        W 9879   8.827   3.700  11.871  0.0231  0.0307 -0.1986
 6361W        W 9880   8.215   5.832   2.048  0.1845 -0.0677  0.1572
 6362W        W 9881   2.781   1.002   2.458 -0.1308  0.1443  0.0394
 6363W        W 9882   0.945   8.890   1.008  0.4161  0.6049 -0.1251
 6364W        W 9883   1.223   0.369   0.826 -0.0932 -0.0077  0.1604
 6365W        W 9884   5.344   2.429   9.321  0.2801 -0.0333 -0.0826
 6366W        W 9885   2.019   8.540   1.505 -0.2409 -0.0117 -0.2057
 6367W        W 9886   4.100   1.914   2.310 -0.2667  0.2869  0.0761
 6368W        W 9887   0.699   9.075   7.739  0.1793  0.0529  0.2043
 6369W        W 9888   4.331   2.039   1.049  0.1304 -0.2055  0.3055
 6370W        W 9889   2.746   3.397   9.709 -0.2055 -0.0505 -0.1677
 6371W        W 9890   9.410   0.631   9.600 -0.2985 -0.1679  0.0122
 6372W        W 9891   7.956   5.793   1.517 -0.2520 -0.1503  0.1382
 6373W        W 9892   2.737   3.849  11.254 -0.1722  0.2733  0.0353
 6374W        W 9893   0.901   4.889   3.555 -0.0449 -0.1727 -0.0945
 6375W        W 9894   5.517   0.510   2.020  0.0032 -0.2211 -0.1527
 6376W        W 9895   1.282   3.699   2.201  0.0062 -0.1098  0.1658
 6377W        W 9896   9.330   1.411   4.422 -0.0626  0.0369 -0.1248
 6378W        W 9897   8.633   2.417  10.772  0.0841  0.1185  0.0130
 6379W        W 9898   8.722   5.151   1.067 -0.2188 -0.0055 -0.1867
 6380W        W 9899   3.911   7.486   5.182 -0.1278  0.5038 -0.0079
 6381W        W 9900   9.224   8.360  11.506  0.0924  0.1927  0.1244
 6382W        W 9901   2.826   9.278   0.247 -0.2018  0.0625 -0.1929
 6383W        W 9902   7.556   1.086  11.492  0.2758 -0.1235  0.0877
 6384W        W 9903   7.804   8.340  10.875 -0.3966 -0.0228 -0.1995
 6385W        W 9904   4.472   4.156   0.676  0.0835 -0.1186 -0.0631
 6386W        W 9905   7.259   9.608   4.021  0.0088  0.0829  0.1148
 6387W        W 9906   9.198   8.130   0.605  0.2540  0.1551 -0.0252
 6388W        W 9907   3.031   4.820   2.628  0.2572 -0.2525  0.0962
 6389W        W 9908   3.654   3.864   0.566 -0.0578 -0.1721  0.3859
 6390W        W 9909   4.371   3.543   2.003  0.4251  0.2553 -0.0210
 6391W        W 9910   5.079   4.986  11.044 -0.3102 -0.0306 -0.1712
 6392W        W 9911   6.414   9.632   8.558  0.0863 -0.0853 -0.1204
 6393W        W 9912   7.013   3.645  10.842  0.3531  0.5075 -0.1905
 6394W        W 9913   7.478   8.164   8.639 -0.2539 -0.3420  0.1433
 6395W        W 9914   2.725   1.669  11.085 -0.0381  0.0789 -0.3176
 6396W        W 9915   7.764   6.127   0.345  0.0754 -0.4046  0.1863
 6397W        W 9916   9.249   3.403   1.481 -0.0556  0.0493 -0.1732
 6398W        W 9917   9.845   6.514   2.824 -0.0456  0.0679  0.1356
 6399W        W 9918   5.013   8.582  10.628  0.0285  0.2859  0.1386
 6400W        W 9919   4.888   8.353   1.351  0.0794 -0.0077  0.0327
 6401W        W 9920   4.026   8.204   8.619  0.0777  0.1635  0.2453
 6402W        W 9921   5.886   4.728  10.455  0.4331  0.1190  0.0681
 6403W        W 9922   7.685   7.820   8.250 -0.0960  0.1497 -0.0873
 6404W        W 9923   8.708   3.534   0.687 -0.2346  0.2278  0.2081
 6405W        W 9924   5.706   0.016   2.270  0.2080 -0.0603 -0.2779
 6406W        W 9925   9.413   9.276   1.457  0.1763  0.0250 -0.1416
 6407W        W 9926   1.075   8.112   3.673  0.1434 -0.2631  0.0367
 6408W        W 9927   4.997   9.366   2.870  0.2868  0.2094  0.3392
 6409W        W 9928   8.799   0.714   8.742 -0.2010  0.0083  0.2137
 6410W        W 9929   0.722   8.169   8.127  0.1793  0.0082  0.0880
 6411W        W 9930   3.642   2.299   0.053  0.2328  0.2203 -0.0512
 6412W        W 9931   9.757   0.765   7.372 -0.1280 -0.1819 -0.1922
 6413W        W 9932   6.912   8.645   0.339 -0.0914 -0.3880  0.0186
 6414W        W 9933   1.840   2.636  11.277 -0.2813 -0.1308 -0.1919
 6415W        W 9934   3.365   5.564   8.993  0.4284 -0.1953 -0.0644
 6416W        W 9935   5.706   0.784   3.024  0.0079  0.2496 -0.0732
 6417W        W 9936   7.199   7.720   0.030 -0.3718  0.0312 -0.1858
 6418W        W 9937   6.539   6.292  11.385 -0.2862 -0.1152 -0.1732
 6419W        W 9938   1.092   6.968   0.040 -0.2863 -0.0769  0.1894
 6420W        W 9939   4.217   6.335   9.693 -0.0402 -0.0534  0.0590
 6421W        W 9940   2.003   1.230   1.804 -0.1288 -0.0699  0.0686
 6422W        W 9941   6.859   0.230   3.478 -0.4425  0.0724  0.0086
 6423W        W 9942   6.718   8.444   1.896 -0.2309  0.0570 -0.0482
 6424W        W 9943   0.504   6.073   2.661 -0.0795  0.0454 -0.0628
 6425W        W 9944   1.776   8.992   7.682 -0.0006  0.3744 -0.1119
 6426W        W 9945   2.034   5.735  10.560 -0.1882 -0.0441  0.0023
 6427W        W 9946   7.216   6.466   9.900 -0.3193  0.0694 -0.1068
 6428W        W 9947   3.057   7.249   0.547 -0.0555  0.4004  0.3745
 6429W        W 9948   1.319   7.601  10.307  0.1640 -0.1428 -0.2281
 6430W        W 9949   0.224   8.370   1.680  0.3633  0.3882 -0.2675
 6431W        W 9950   5.046   9.371   1.026 -0.0869 -0.0579  0.0220
 6432W        W 9951   7.962   1.304  11.746  0.2851 -0.0786  0.0053
 6433W        W 9952   1.057   9.866  10.250 -0.0963 -0.1173 -0.1679
 6434W        W 9953   4.002   1.111   1.869 -0.2027  0.0792 -0.0983
 6435W        W 9954   1.543   6.651  10.092  0.0982 -0.1675  0.1416
 6436W        W 9955   1.160   6.609   9.799  0.2173  0.3539 -0.1983
 6437W        W 9956   8.104   1.179  10.680  0.0893 -0.0566  0.0890
 6438W        W 9957   8.825   5.325   8.827 -0.3325  0.3230 -0.0374
 6439W        W 9958   8.140   6.013   8.740  0.0396  0.0215 -0.2644
 6440W        W 9959   5.657   8.074   0.823  0.0628 -0.2291  0.0697
 6441W        W 9960   5.522   6.366  10.535 -0.0620 -0.1338  0.0094
 6442W        W 9961   3.989   4.764   1.573  0.1251  0.0873 -0.1286
 6443W        W 9962   1.633   9.737   1.688 -0.4612  0.0026  0.0581
 6444W        W 9963   9.170   0.221   3.165 -0.4993  0.0207 -0.1814
 6445W        W 9964   5.653   1.301   1.617 -0.1694 -0.0918 -0.2131
 6446W        W 9965   0.695   9.085   1.493 -0.1615  0.1590 -0.0193
 6447W        W 9966   4.892   1.768   9.042  0.0677  0.0319  0.2440
 6448W        W 9967   6.181   7.571   1.483  0.3566 -0.0090  0.1347
 6449W        W 9968   9.706   0.225   9.649  0.1906 -0.0602 -0.1104
 6450W        W 9969   7.559   5.810   2.457 -0.0390 -0.0740  0.0044
 6451W        W 9970   3.501   0.346   1.284 -0.1617 -0.1890  0.2050
 6452W        W 9971   7.348   5.842   1.159  0.1093 -0.1623  0.1864
 6453W        W 9972   4.879   2.243  11.939  0.1645 -0.1196  0.2598
 6454W        W 9973   0.866   6.986   9.967 -0.2761 -0.2067 -0.0971
 6455W        W 9974   7.991   6.002   2.723  0.0730  0.3057  0.1342
 6456W        W 9975   5.547   4.353  11.385 -0.1403 -0.2361  0.1184
 6457W        W 9976   9.817   8.441   2.246 -0.3522 -0.1213 -0.0218
 6458W        W 9977   1.382   7.115   8.578  0.2113  0.2153  0.2185
 6459W        W 9978   9.149   6.633  10.349  0.0135 -0.0941  0.0247
 6460W        W 9979   2.062   9.660  11.830 -0.2161  0.0166 -0.1089
 6461W        W 9980   3.841   7.733  11.800  0.2175  0.0504 -0.2419
 6462W        W 9981   2.114   9.686   1.534  0.0924 -0.1140  0.4118
 6463W        W 9982   4.996   3.871   8.352 -0.1181  0.0927  0.3385
 6464W        W 9983   1.267   5.788   0.432  0.0934 -0.0517  0.3135
 6465W        W 9984   7.464   0.167   9.624  0.0032 -0.1604 -0.2120
 6466W        W 9985   6.635   9.655   3.387 -0.2870  0.0722  0.0162
 6467W        W 9986   3.634   6.433   9.232  0.0326 -0.1775  0.0481
 6468W        W 9987   1.682   2.666   7.321  0.0358 -0.0941 -0.1658
 6469W        W 9988   5.168   5.977   0.500 -0.1534 -0.0008  0.1859
 6470W        W 9989   0.211   7.350   2.797 -0.1197  0.0706  0.0288
 6471W        W 9990   5.232   1.037   1.404 -0.1058 -0.3085  0.0314
 6472W        W 9991   2.319   4.396   2.735  0.0032  0.2616  0.0122
 6473W        W 9992   2.754   0.117   8.877 -0.0215  0.1319 -0.0661
 6474W        W 9993   3.370   7.499   9.923  0.1040  0.0625 -0.1394
 6475W        W 9994   9.517   0.727  10.850  0.1092 -0.2472 -0.3346
 6476W        W 9995   7.057   4.571  10.502 -0.0706  0.2870  0.3010
 6477W        W 9996   4.275   7.991  11.392  0.2256 -0.1660 -0.0057
 6478W        W 9997   8.868   4.902  11.279  0.0412 -0.1236  0.0180
 6479W        W 9998   3.644   3.615   1.327 -0.0219  0.1417 -0.1197
 6480W        W 9999   7.777   0.783   9.105  0.0196 -0.1993 -0.0304
 6481W        W10000   4.894   4.114  11.292  0.1982  0.2633  0.0671
 6482W        W10001   1.617   9.562   2.772  0.3277  0.4488 -0.1292
 6483W        W10002   5.158   1.419  10.240 -0.0114 -0.1730  0.4690
 6484W        W10003   3.357   1.407   1.906  0.1622  0.0660 -0.3614
 6485W        W10004   3.844   2.893  11.474 -0.0728  0.1001  0.2151
 6486W        W10005   9.607   7.049  11.892 -0.1035  0.3891  0.0575
 6487W        W10006   0.343   4.419   8.951 -0.0430  0.2717  0.0691
 6488W        W10007   4.795   6.826   2.772 -0.0606 -0.1572  0.2245
 6489W        W10008   5.181   0.564   8.514  0.0053  0.1919  0.0713
 6490W        W10009   1.488   3.304   8.773  0.0241 -0.0151 -0.2013
 6491W        W10010   2.941   5.783   2.932 -0.1337  0.1333 -0.1273
 6492W        W10011   6.775   0.051  11.652  0.0727  0.1642  0.0165
 6493W        W10012   8.230   7.383   8.582  0.0267  0.0583 -0.0342
 6494W        W10013   7.839   1.888   1.049 -0.0721  0.5044 -0.0140
 6495W        W10014   7.504   2.527  10.264  0.4181  0.2479  0.2726
 6496W        W10015   9.670   7.425  11.395  0.2510  0.0665  0.0147
 6497W        W10016   6.717   0.144  10.083 -0.0457 -0.0937 -0.3723
 6498W        W10017   5.701   3.881   2.616 -0.0423  0.1762 -0.1040
 6499W        W10018   5.169   5.416   9.152 -0.1284 -0.0352  0.1816
 6500W        W10019   2.843   5.596   0.395 -0.0695 -0.0164 -0.3333
 6501W        W10020   3.392   6.585   2.743 -0.0335 -0.3139  0.2175
 6502W        W10021   7.209   3.747   9.992  0.0902 -0.0066 -0.0639
 6503W        W10022   5.936   8.081  11.515  0.0073 -0.0676 -0.1859
 6504W        W10023   4.246   9.487   1.871  0.0999  0.1218 -0.3417
 6505W        W10024   0.068   6.985  10.589 -0.2293 -0.1379  0.1278
 6506W        W10025   9.191   8.048   9.336  0.1661  0.0448 -0.1291
 6507W        W10026   4.084   1.665   3.450 -0.0615 -0.2930  0.1228
 6508W        W10027   9.890   7.471   0.008 -0.1433  0.0397  0.1440
 6509W        W10028   7.647   6.205   1.409  0.3133 -0.2846  0.1797
 6510W        W10029   1.620   9.202   1.603  0.2160  0.1976 -0.0723
 6511W        W10030   0.834   5.249   8.162  0.0568 -0.0070 -0.3101
 6512W        W10031   4.935   1.411   1.234  0.0564  0.1556  0.1158
 6513W        W10032   5.438   7.172   2.941 -0.0657  0.0757  0.2892
 6514W        W10033   7.334   8.146  10.581 -0.0878  0.0467 -0.0194
 6515W        W10034   5.282   1.180   0.199 -0.0725  0.2200  0.1747
 6516W        W10035   4.121   5.019   0.624 -0.3658  0.0893 -0.2685
 6517W        W10036   9.497   4.108  11.454 -0.1533  0.0231 -0.0677
 6518W        W10037   8.861   5.853   8.878 -0.2848  0.0657 -0.0800
 6519W        W10038   9.364   9.579   2.398  0.1970 -0.0744  0.0322
 6520W        W10039   7.386   8.223   8.128  0.1732  0.1774 -0.1958
 6521W        W10040   2.763   2.520   0.399  0.0974  0.0149  0.1646
 6522W        W10041   0.242   1.873   1.061  0.0646 -0.1645 -0.4392
 6523W        W10042   4.000   1.770   1.806 -0.1668  0.0152 -0.1568
 6524W        W10043   3.411   4.780   0.025  0.0565  0.1353  0.0137
 6525W        W10044   4.877   8.250   9.033  0.0063 -0.0162  0.0816
 6526W        W10045   8.966   3.753   8.770 -0.2372  0.0445  0.1100
 6527W        W10046   7.897   4.652   1.792 -0.2200 -0.1888 -0.1333
 6528W        W10047   3.638   0.802   3.035 -0.4184  0.1834 -0.3832
 6529W        W10048   8.532   2.978   1.828  0.3584  0.0475 -0.0794
 6530W        W10049   8.090   7.481   0.251  0.0694 -0.0146  0.2120
 6531W        W10050   1.658   7.583   9.951 -0.1922 -0.3524  0.0596
 6532W        W10051   7.426   0.319  11.331  0.1404  0.0214 -0.1197
 6533W        W10052   4.964   2.251   9.076  0.0022 -0.0032  0.0220
 6534W        W10053   6.593   6.534   8.913 -0.1322 -0.0324  0.0697
 6535W        W10054   7.336   8.185   2.327 -0.1395  0.0603  0.2084
 6536W        W10055   8.365   5.364   1.819 -0.2120  0.0765 -0.0789
 6537W        W10056   0.583   4.541   3.387 -0.1242  0.1510 -0.1493
 6538W        W10057   9.421   8.822   9.621  0.1133  0.0914  0.0367
 6539W        W10058   7.772   8.725   8.475  0.0671 -0.1065 -0.1537
 6540W        W10059   5.825   5.704   0.777 -0.0736  0.0933 -0.1616
 6541W        W10060   6.541   2.341  10.320  0.3871 -0.2109 -0.0748
 6542W        W10061   4.241   1.251  10.324 -0.3058  0.0718 -0.1036
 6543W        W10062   5.340   5.375  10.834  0.0042 -0.2185 -0.1083
 6544W        W10063   3.165   7.918   1.990 -0.0441 -0.3255 -0.1904
 6545W        W10064   3.943   8.241   2.405 -0.0593  0.0185 -0.2604
 6546W        W10065   1.776   4.931   4.407  0.1751 -0.3643  0.1259
 6547W        W10066   0.417   8.612   2.180 -0.0145 -0.2010  0.0666
 6548W        W10067   1.838   7.875   8.368 -0.1905  0.2986 -0.5005
 6549W        W10068   0.925   9.403   1.201  0.0171 -0.1337  0.0504
 6550W        W10069   3.455   9.511   9.706 -0.1519  0.2001  0.0179
 6551W        W10070   8.816   7.109   7.647  0.1060 -0.2149  0.2573
 6552W        W10071   5.331   3.774   1.570  0.1321 -0.1575 -0.0748
 6553W        W10072   9.915   1.608  11.095 -0.1769 -0.0656  0.3815
 6554W        W10073   3.209   7.566  10.778  0.0916  0.1226  0.2802
 6555W        W10074   1.946   9.589  10.639 -0.0691  0.1226 -0.1767
 6556W        W10075   3.970   1.880   0.306 -0.0467  0.0808 -0.1267
 6557W        W10076   5.889   0.604   3.447 -0.2636 -0.1964 -0.1721
 6558W        W10077   1.831   5.701  10.098 -0.2576 -0.1072  0.1903
 6559W        W10078   0.889   5.164  10.935 -0.0331  0.0191  0.1560
 6560W        W10079   1.929   2.802   9.450 -0.2131  0.0514 -0.2400
 6561W        W10080   8.450   3.685   0.240  0.0231 -0.0452 -0.2536
 6562W        W10081   6.610   6.484   1.748 -0.0681  0.3698 -0.0649
 6563W        W10082   1.477   1.889   1.697 -0.1634  0.1470 -0.1608
 6564W        W10083   0.155   8.268   2.620 -0.2747 -0.0856 -0.1551
 6565W        W10084   5.767   2.853   3.375  0.1639 -0.0672  0.0475
 6566W        W10085   3.832   7.944  11.019 -0.0708 -0.0307  0.4714
 6567W        W10086   5.270   2.095   0.647 -0.0952  0.1950  0.0657
 6568W        W10087   8.433   6.710   2.401  0.0296  0.1611  0.1304
 6569W        W10088   9.836   2.603   8.312  0.0903 -0.2534 -0.1859
 6570W        W10089   3.548   8.606   2.326 -0.0273 -0.0944 -0.0621
 6571W        W10090   6.313   8.105   2.250  0.0000  0.1546  0.1263
 6572W        W10091   0.018   2.164   9.820  0.1090  0.0154 -0.3792
 6573W        W10092   9.768   3.424   9.866  0.2391 -0.1056  0.1752
 6574W        W10093   5.105   4.080   2.161  0.1020 -0.2320  0.3019
 6575W        W10094   6.250   4.997   1.619 -0.1363 -0.0866  0.1013
 6576W        W10095   9.622   1.764  10.674  0.1960  0.1171 -0.0457
 6577W        W10096   0.768   1.410   8.298 -0.1376  0.0641 -0.2193
 6578W        W10097   7.216   1.799   9.890 -0.1402  0.0118 -0.0043
 6579W        W10098   2.212   6.812   7.752  0.1532  0.0224 -0.3616
 6580W        W10099   6.571   3.102   2.030  0.0939  0.1489 -0.3249
 6581W        W10100   4.696   4.279   8.447  0.3288 -0.0020  0.1259
 6582W        W10101   5.433   1.902   8.833  0.0706  0.0172  0.0280
 6583W        W10102   1.624   3.100   3.835  0.1657 -0.0199  0.2202
 6584W        W10103   5.332   3.954  11.091 -0.0490 -0.0051 -0.0194
 6585W        W10104   8.352   2.981   8.768  0.2571 -0.1059 -0.0342
 6586W        W10105   2.139   5.011   8.093  0.1425  0.1543 -0.0724
 6587W        W10106   7.619   8.335  10.231  0.1410  0.2620 -0.3523
 6588W        W10107   1.837   9.034   0.412  0.0953 -0.0488  0.4143
 6589W        W10108   2.778   2.965   2.395 -0.0114  0.2322  0.0095
 6590W        W10109   0.092   1.305   8.713  0.1025  0.0153  0.0287
 6591W        W10110   0.297   7.155   7.839 -0.2033  0.0689  0.0014
 6592W        W10111   2.217   9.299   8.328  0.0243 -0.0609  0.2025
 6593W        W10112   8.014   8.008  10.134 -0.0008 -0.4570 -0.0656
 6594W        W10113   8.985   1.857  10.122  0.0486 -0.2115  0.0059
 6595W        W10114   6.140   4.139   2.418  0.2432  0.1494  0.1266
 6596W        W10115   0.508   2.800  10.496  0.1065  0.3292 -0.0754
 6597W        W10116   1.015   0.290   9.420  0.0494 -0.1170 -0.2700
 6598W        W10117   8.173   4.393   0.473  0.1736  0.1444 -0.1001
 6599W        W10118   7.634   6.166   9.833 -0.0180 -0.3087  0.0338
 6600W        W10119   1.750   8.532   0.326 -0.1864 -0.2812  0.0860
 6601W        W10120   4.047   0.794  10.031 -0.0784 -0.2280  0.1409
 6602W        W10121   7.321   6.761   9.475  0.0719  0.0189 -0.1515
 6603W        W10122   1.022   9.815   9.142 -0.1509  0.0856  0.0865
 6604W        W10123   0.928   2.063  10.441 -0.0767 -0.0569  0.3209
 6605W        W10124   4.823   1.972   3.684 -0.1817 -0.1162 -0.1453
 6606W        W10125   9.434   2.882   1.234  0.1908  0.0436  0.1527
 6607W        W10126   3.031   3.346  10.559 -0.2641 -0.0478 -0.0718
 6608W        W10127   8.577   1.494  10.276 -0.0468 -0.4091 -0.0759
 6609W        W10128   1.127   7.804  11.524  0.0752  0.0318 -0.1227
 6610W        W10129   3.900   8.567   7.997  0.1124  0.0880  0.0140
 6611W        W10130   9.839   3.662   8.561 -0.2612  0.0127  0.1543
 6612W        W10131   0.946   5.060   7.679 -0.1617 -0.0084  0.1763
 6613W        W10132   9.090   4.960   8.602 -0.0008 -0.3245 -0.0011
 6614W        W10133   3.706   2.713  10.149  0.1056 -0.2121  0.0250
 6615W        W10134   4.928   1.245   2.195  0.1646 -0.2471  0.2714
 6616W        W10135   4.890   5.464   1.693  0.2415  0.1165  0.0225
 6617W        W10136   5.561   0.386   8.885 -0.0117 -0.1166  0.0907
 6618W        W10137   9.450   3.311  10.880 -0.1439  0.1351 -0.0848
 6619W        W10138   5.121   7.667   7.326 -0.3268 -0.1991  0.0021
 6620W        W10139   3.389   5.004   8.369 -0.2248 -0.1118  0.0670
 6621W        W10140   0.326   0.329   8.685  0.1075 -0.2660 -0.0192
 6622W        W10141   3.600   1.840   8.437  0.2157  0.1024 -0.1807
 6623W        W10142   9.269   2.256   9.324  0.0544  0.1681 -0.2071
 6624W        W10143   0.550   4.816   9.730  0.1076  0.1446  0.1848
 6625W        W10144   7.439   9.031  10.196 -0.2342 -0.0870 -0.1365
 6626W        W10145   1.613   5.271   9.851 -0.1048  0.1758 -0.3972
 6627W        W10146   9.656   6.776   1.755  0.1524  0.0309  0.3726
 6628W        W10147   9.257   9.803   1.319 -0.2358  0.0976  0.3154
 6629W        W10148   0.050   9.386   9.135  0.4157  0.3233  0.0658
 6630W        W10149   6.303   7.492   2.395  0.2891 -0.2197 -0.0326
 6631W        W10150   5.525   0.959   8.884 -0.0966  0.1195  0.0902
 6632W        W10151   8.533   4.914   9.061 -0.0983 -0.2593  0.3890
 6633W        W10152   0.406   6.614  10.657  0.0150  0.2627  0.1541
 6634W        W10153   5.905   5.624   2.090 -0.0795  0.2897  0.0765
 6635W        W10154   5.089   7.981   9.712  0.3367 -0.2123  0.3543
 6636W        W10155   5.906   3.631   8.309  0.1105  0.0135  0.0735
 6637W        W10156   3.181   5.978  11.490  0.3103  0.2790  0.0137
 6638W        W10157   9.539   1.761   0.487  0.0162  0.0298 -0.1550
 6639W        W10158   6.798   9.503  10.785 -0.0481 -0.2029 -0.0651
 6640W        W10159   0.850   7.345   0.878 -0.2921  0.0238 -0.1057
 6641W        W10160   3.419   7.730   3.096  0.1030 -0.0711  0.0035
 6642W        W10161   7.204   1.754   8.066  0.1150 -0.0198  0.0615
 6643W        W10162   8.656   2.764   1.073  0.2679  0.2616  0.0930
 6644W        W10163   6.793   7.862   1.858  0.3409 -0.0874  0.0500
 6645W        W10164   6.849   7.396   7.961  0.5232 -0.1607 -0.1457
 6646W        W10165   7.769   1.630   9.931  0.1067  0.1669  0.2195
 6647W        W10166   2.776   5.227  10.801 -0.0717 -0.0977 -0.1230
 6648W        W10167   7.789   1.090   1.167  0.2603  0.1669  0.0504
 6649W        W10168   6.901   7.387   8.949  0.0340 -0.1938 -0.0302
 6650W        W10169   9.329   2.461   0.087  0.0148 -0.3075  0.0520
 6651W        W10170   5.406   5.199   8.319 -0.0030  0.1322 -0.0292
 6652W        W10171   0.931   8.442   9.540  0.0444 -0.0423  0.2400
 6653W        W10172   2.285   7.973   8.589  0.2829  0.1654  0.1327
 6654W        W10173   2.984   9.141  11.593  0.1291 -0.1373 -0.0787
 6655W        W10174   5.465   0.747   0.015 -0.1295  0.1338 -0.2505
 6656W        W10175   4.061   5.117   2.174  0.1556  0.0196  0.2357
 6657W        W10176   9.016   8.038   2.850 -0.0442 -0.0699  0.3209
 6658W        W10177   9.680   9.694   1.048  0.2741  0.1411 -0.3066
 6659W        W10178   9.086   5.771   8.163 -0.0156  0.5075  0.0198
 6660W        W10179   6.499   3.679   0.084 -0.3837 -0.0076 -0.0676
 6661W        W10180   7.699   3.270  11.168 -0.3511 -0.2039 -0.1025
 6662W        W10181   1.751   4.497  11.848 -0.0110  0.0471 -0.0082
 6663W        W10182   7.797   5.983   0.894  0.0641 -0.3948  0.1547
 6664W        W10183   8.231   5.833   8.277  0.0969 -0.0139 -0.1555
 6665W        W10184   3.559   6.482  10.839  0.1533 -0.0710 -0.0140
 6666W        W10185   2.627   8.143  11.459  0.0199 -0.0177 -0.2541
 6667W        W10186   3.353   8.724  11.236  0.0471 -0.3085  0.0237
 6668W        W10187   2.480   2.715   9.774  0.1722 -0.2407 -0.1675
 6669W        W10188   2.943   6.548   8.397  0.0928  0.0500 -0.2508
 6670W        W10189   8.225   8.355   0.375 -0.0562 -0.1291  0.1156
 6671W        W10190   4.149   5.405   9.749 -0.0623  0.2026  0.1016
 6672W        W10191   6.025   8.880   0.094 -0.1258  0.1040  0.0638
 6673W        W10192   1.583   1.465   1.927 -0.2769  0.0379  0.3123
 6674W        W10193   8.307   0.638   3.079 -0.1632 -0.3423 -0.3228
 6675W        W10194   6.597   0.686  11.023  0.1357  0.2984 -0.1660
 6676W        W10195   5.664   7.255   9.544  0.0761 -0.2106  0.1281
 6677W        W10196   7.356   1.423   4.341  0.2742  0.0700 -0.2561
 6678W        W10197   4.395   3.310   8.207  0.0518 -0.2087 -0.2038
 6679W        W10198   4.458   8.508   0.665  0.0637 -0.3317  0.2885
 6680W        W10199   6.593   4.945   1.962 -0.1724  0.3789  0.0664
 6681W        W10200   5.782   8.927   1.779  0.2701 -0.2159  0.0187
 6682W        W10201   0.267   5.011   8.373 -0.0871 -0.1722 -0.0132
 6683W        W10202   6.237   9.310  11.456  0.0541 -0.0204 -0.1205
 6684W        W10203   1.213   0.759   1.520  0.1010  0.0454 -0.2476
 6685W        W10204   7.318   7.473   8.089 -0.1672 -0.1072 -0.2209
 6686W        W10205   3.582   5.563   1.792 -0.3311 -0.1776  0.3335
 6687W        W10206   0.858   6.535   0.245  0.0807 -0.1972 -0.3225
 6688W        W10207   2.796   6.004  11.785  0.1609  0.1062 -0.0603
 6689W        W10208   3.002   6.809   3.052  0.1290 -0.0144  0.0388
 6690W        W10209   0.471   1.883   1.585  0.0555 -0.1697 -0.2016
 6691W        W10210   7.585   6.345   2.702 -0.3164  0.1096  0.0783
 6692W        W10211   0.717   7.220   2.852  0.0517  0.0897  0.1607
 6693W        W10212   2.658   2.504   8.831 -0.0267 -0.1963  0.2598
 6694W        W10213   6.684   4.456  11.017 -0.0303  0.0425  0.0220
 6695W        W10214   2.806   8.263   1.098  0.2792 -0.3347 -0.3266
 6696W        W10215   7.551   4.170   8.328  0.0203  0.2843  0.0586
 6697W        W10216   2.850   7.509   2.914  0.0185  0.0348 -0.1343
 6698W        W10217   9.622   8.441   1.737 -0.1894  0.0095 -0.2725
 6699W        W10218   9.449   2.945   9.694 -0.4006 -0.0767  0.1389
 6700W        W10219   2.974   0.037   3.330  0.2516 -0.2363  0.2494
 6701W        W10220   7.182   6.204   7.866  0.0629 -0.2677  0.2554
 6702W        W10221   5.173   8.548   7.947 -0.0851  0.0340 -0.2047
 6703W        W10222   3.255   6.062  10.346 -0.1970  0.0244  0.1832
 6704W        W10223   9.323   2.423   2.503 -0.0318 -0.2881 -0.0529
 6705ION    NA+10224   5.499   0.749   1.062 -0.1613 -0.0901  0.2398
 6706ION    NA+10225   2.773   6.272  11.332  0.0649  0.2422 -0.0741
 6707ION    NA+10226   2.736   7.086   8.301  0.0725  0.0877 -0.1489
 6708ION    NA+10227   0.114   6.900   0.061 -0.2889  0.0178 -0.0000
 6709ION    NA+10228   5.878   8.738  10.418 -0.1258  0.1511 -0.0815
 6710ION    NA+10229   8.763   7.393   1.772  0.2147 -0.1517 -0.1200
 6711ION    NA+10230   6.763   5.804   1.911  0.1584  0.0870 -0.1419
 6712ION    NA+10231   1.496   2.286   3.279  0.0964  0.1337  0.0804
 6713ION    NA+10232   8.757   3.404   1.712  0.2292  0.0256 -0.1343
 6714ION    NA+10233   8.145   2.169   8.330 -0.3378  0.0050  0.0303
 6715ION    NA+10234   7.253   3.017   2.647 -0.2562 -0.0482 -0.0673
 6716ION    NA+10235   1.480   4.772   0.201  0.1358 -0.0081 -0.1196
 6717ION    NA+10236   5.486   9.728   7.797  0.1816 -0.0382  0.0254
 6718ION    NA+10237   8.917   8.416   1.977  0.0033 -0.2159 -0.1591
 6719ION    NA+10238   3.641   5.024   1.889 -0.1885  0.0988  0.1395
 6720ION    NA+10239   0.867   9.950   3.441 -0.0376  0.2774 -0.1284
 6721ION    NA+10240   7.294   8.378   7.141 -0.0031 -0.0969  0.0617
 6722ION    NA+10241   9.396   5.098   1.547  0.2276 -0.2598 -0.1248
 6723ION    NA+10242   2.900   8.960   8.128 -0.2868 -0.1843 -0.3693
 6724ION    NA+10243   2.463   6.104   2.132 -0.1587 -0.4730  0.0067
 6725ION    NA+10244   5.235   3.433   3.772  0.0831  0.1082 -0.1461
 6726ION    NA+10245   3.714   5.746   3.789  0.0454 -0.2189  0.0201
 6727ION    NA+10246   4.261   9.933   3.808  0.0282  0.1060 -0.3651
 6728ION    NA+10247   5.461   5.983   1.993  0.1380  0.0197 -0.0378
 6729ION    NA+10248   5.994   8.401   8.280 -0.0983 -0.0533  0.2462
 6730ION    NA+10249   8.007   0.994   3.258 -0.1242  0.0590  0.1171
 6731ION    NA+10250   8.994   4.822   3.538  0.2455 -0.1144 -0.2378
 6732ION    NA+10251   4.156   9.484  10.653 -0.5100  0.2899  0.1976
 6733ION    NA+10252   2.098   7.388  11.198  0.0005 -0.1587  0.0338
 6734ION    NA+10253   1.175   2.627   7.819  0.3717 -0.1476 -0.4716
 6735ION    NA+10254   6.200   8.029   9.825  0.0371  0.3339 -0.2980
 6736ION    NA+10255   6.678   3.423  11.482  0.1173  0.2404 -0.1419
 6737ION    NA+10256   2.558   9.568   3.247  0.1152  0.0247  0.0005
 6738ION    NA+10257   9.159   8.424   2.573  0.0401 -0.2984  0.1205
 6739ION    NA+10258   6.673   5.210   3.507 -0.3498 -0.2964 -0.2907
 6740ION    NA+10259   9.482   7.293   0.344  0.0840 -0.1948  0.2149
 6741ION    NA+10260   6.268   3.788   0.516  0.0727  0.1409  0.0765
 6742ION    NA+10261   9.496   0.628  11.324  0.2190 -0.3009 -0.0286
 6743ION    NA+10262   0.901   6.749   3.488  0.0096 -0.0224  0.2078
 6744ION    NA+10263   1.977   7.776   3.351  0.1807 -0.0925 -0.1476
 6745ION    NA+10264   5.435   2.006   8.356  0.0505 -0.2532 -0.0160
 6746ION    NA+10265   9.003   8.802   3.085  0.1621 -0.2756 -0.1335
 6747ION    NA+10266   8.040   0.182   8.464  0.1109  0.3498  0.0372
 6748ION    NA+10267   4.388   9.464   2.879 -0.1428 -0.0924  0.0729
 6749ION    NA+10268   4.942   9.062   9.442 -0.3064 -0.0284  0.0663
 6750ION    NA+10269   7.706   3.907   2.411 -0.2000 -0.2235  0.0249
 6751ION    NA+10270   4.341   1.192   3.263 -0.2110  0.4079  0.0130
 6752ION    NA+10271   6.588   8.333  10.913 -0.1092 -0.3368  0.0714
 6753ION    NA+10272   3.078   9.617  10.661  0.0851  0.1876  0.1033
 6754ION    NA+10273   0.517   6.840   1.467  0.2773 -0.1613 -0.2015
 6755ION    NA+10274   9.128   2.217   2.114 -0.0821  0.1457 -0.1990
 6756ION    NA+10275   9.256   4.122   8.187  0.1103 -0.1204 -0.2391
 6757ION    NA+10276   2.654   3.745   7.955  0.1690  0.1271  0.2521
 6758ION    NA+10277   1.059   7.047   8.190  0.0172  0.1036 -0.0633
 6759ION    NA+10278   9.238   2.110   0.762  0.1984  0.1421 -0.0266
 6760ION    NA+10279   6.198   8.890   3.628  0.0609 -0.2686 -0.0726
 6761ION    NA+10280   7.408   5.172   1.993  0.0142  0.1236  0.1987
 6762ION    NA+10281   0.349   0.508   1.181  0.0214 -0.3166  0.1489
 6763ION    NA+10282   8.599   3.674   2.547 -0.4379 -0.0458  0.1059
 6764ION    NA+10283   9.491   7.901  11.193 -0.2664 -0.1505  0.3716
 6765ION    NA+10284   3.556   2.251   2.950 -0.1123 -0.1787 -0.1657
 6766ION    NA+10285   4.316   3.687  11.888  0.1579  0.1013  0.1521
 6767ION    NA+10286   2.080   0.142   3.453 -0.0339 -0.0353  0.0546
 6768ION    NA+10287   1.837   3.885   4.092  0.1947  0.0287  0.2389
 6769ION    NA+10288   6.317   8.132   7.454 -0.0255 -0.0617  0.1582
 6770ION    NA+10289   8.155   1.403   1.931  0.1336  0.2663 -0.0671
 6771ION    NA+10290   8.281   6.898   8.736  0.1976 -0.4682  0.1202
 6772ION    NA+10291   0.817   3.616   8.027 -0.1140 -0.0507  0.2062
 6773ION    NA+10292   7.095   7.655  10.318  0.1777 -0.2293  0.0209
 6774ION    NA+10293   1.240   1.440   2.906  0.0941  0.1254  0.2751
 6775ION    NA+10294   9.023   6.693   3.071 -0.1811 -0.1006 -0.1076
 6776ION    CL-10295   9.631   1.122  11.245  0.3154  0.1034 -0.2440
 6777ION    CL-10296   8.432   1.472   3.035 -0.0309  0.2291  0.1567
 6778ION    CL-10297   6.217   8.559   8.655 -0.0075  0.2004  0.0741
 6779ION    CL-10298   5.158   9.467   9.313  0.2004  0.1292  0.1007
 6780ION    CL-10299   3.657   4.760   9.068 -0.1001 -0.1740  0.1904
 6781ION    CL-10300   1.867   3.578   9.001  0.3913  0.2355  0.2537
 6782ION    CL-10301   8.844   4.193   7.952  0.1714 -0.0808 -0.0370
 6783ION    CL-10302   4.256   2.083   3.098  0.2685  0.1474 -0.0504
 6784ION    CL-10303   9.419   8.766   2.755 -0.0185  0.1315 -0.0873
 6785ION    CL-10304   6.683   4.972   1.253 -0.0672  0.2937 -0.2367
 6786ION    CL-10305   2.962   0.717   9.188  0.0919  0.0551 -0.0704
 6787ION    CL-10306   0.048   7.816  11.049 -0.1719 -0.2179 -0.0525
 6788ION    CL-10307   5.581   6.428   1.854  0.0605  0.1909 -0.1279
 6789ION    CL-10308   1.097   6.671   8.540 -0.1504  0.1505 -0.0298
 6790ION    CL-10309   2.119   9.855   2.940  0.7797 -0.0867 -0.3960
 6791ION    CL-10310   5.178   3.956   2.853 -0.0865 -0.1048 -0.1436
 6792ION    CL-10311   6.215   3.291   2.568 -0.0586 -0.0547 -0.0417
 6793ION    CL-10312   3.118   2.154   2.707  0.0142  0.0514 -0.0693
 6794ION    CL-10313   7.632   7.118   2.676  0.1913  0.0653 -0.4976
 6795ION    CL-10314   4.555   5.064   9.766  0.1362 -0.1235 -0.3346
 6796ION    CL-10315   9.363   8.167   2.146  0.4123 -0.1247 -0.1441
 6797ION    CL-10316   0.155   1.517  10.595 -0.2336 -0.2988 -0.1775
 6798ION    CL-10317   6.698   7.975  10.195  0.3124 -0.1264  0.4354
 6799ION    CL-10318   7.924   4.383   2.298 -0.3970  0.2327 -0.3572
 6800ION    CL-10319   0.204   5.968   3.047 -0.1605 -0.3715 -0.1821
 6801ION    CL-10320   6.189   0.401   8.665  0.1643 -0.1595  0.0895
 6802ION    CL-10321   7.032   5.770   1.519 -0.1489  0.1821  0.2074
 6803ION    CL-10322   5.946   8.925   7.876 -0.2648 -0.0282  0.1226
 6804ION    CL-10323   5.843   8.226  10.126 -0.1675  0.1041 -0.0490
 6805ION    CL-10324   0.421   0.506   2.017 -0.0651  0.0329  0.1542
 6806ION    CL-10325   0.183   7.120   2.383  0.2160  0.3277 -0.0766
 6807ION    CL-10326   8.308   7.092   8.184 -0.2534 -0.1245 -0.4024
 6808ION    CL-10327   7.419   2.557   2.438 -0.1094 -0.0008 -0.0075
 6809ION    CL-10328   7.795   3.102   7.960 -0.2110  0.1837  0.2773
 6810ION    CL-10329   0.482   7.323   1.283  0.5221  0.2166  0.0916
 6811ION    CL-10330   2.721   7.684  10.765  0.1660 -0.3951 -0.0761
 6812ION    CL-10331   2.392   0.254   8.427 -0.0603  0.0513  0.0484
 6813ION    CL-10332   7.793   7.456   9.846 -0.0094  0.2833 -0.0648
 6814ION    CL-10333   8.414   3.413   2.046 -0.0478 -0.3694  0.2855
 6815ION    CL-10334   1.405   1.894   2.912  0.1631 -0.3511  0.0937
 6816ION    CL-10335   6.251   5.969   2.921 -0.2953 -0.0091  0.4636
 6817ION    CL-10336   8.583   2.390   8.090  0.1398  0.1648 -0.3710
 6818ION    CL-10337   7.855   1.910   8.663  0.0624 -0.1963  0.2154
 6819ION    CL-10338   7.057   7.931   8.957 -0.0218  0.0849  0.1690
 6820ION    CL-10339   1.850   2.569   3.388  0.2257 -0.0984 -0.1434
 6821ION    CL-10340   8.833   8.045   2.294  0.0134  0.1888 -0.1784
 6822ION    CL-10341   9.774   5.398   1.743 -0.0929  0.0768 -0.0533
 6823ION    CL-10342   9.886   7.049   0.540 -0.0133  0.1794  0.1220
 6824ION    CL-10343   4.529   9.046   2.584 -0.2147 -0.1461 -0.1440
 6825ION    CL-10344   9.569   8.701  11.581 -0.1643  0.2252  0.2881
 6826ION    CL-10345   7.848   0.598   8.166  0.1202  0.2336  0.0335
 6827ION    CL-10346   0.033   0.606   0.676 -0.3290 -0.1327 -0.0992
 6828ION    CL-10347   9.018   2.393   1.158  0.1162 -0.1564  0.1553
 6829ION    CL-10348   3.183   7.033   3.531  0.1244 -0.0598  0.0411
 6830ION    CL-10349   6.275   8.588  10.643  0.3524  0.0572  0.2854
 6831ION    CL-10350   2.513   1.511   3.510 -0.0237  0.0405  0.0102
 6832ION    CL-10351   9.626   4.646   1.222  0.1874  0.0327  0.0227
 6833ION    CL-10352   9.240   7.376  11.817 -0.2027  0.0623 -0.1023
 6834ION    CL-10353   1.833   5.064   0.095 -0.0154  0.1066  0.3040
 6835ION    CL-10354   1.066   2.524   3.436  0.0472 -0.3408  0.3035
 6836ION    CL-10355   7.469   3.778   2.807  0.1414 -0.3228  0.1779
 6837ION    CL-10356   9.909   7.709   8.220  0.0103 -0.0197 -0.2830
 6838ION    CL-10357   5.975   0.633   1.099  0.2294  0.3043 -0.2939
 6839ION    CL-10358   6.471   6.030   8.363  0.0743 -0.2824 -0.0074
 6840ION    CL-10359   0.277   6.761  11.560  0.2227  0.0507  0.2622
 6841ION    CL-10360   4.036   4.092  11.658 -0.1290  0.1892  0.0882
 6842ION    CL-10361   5.751   2.237   8.621 -0.1151 -0.3599 -0.2492
 6843ION    CL-10362   3.870   9.474   3.137 -0.1700  0.0627 -0.0721
 6844ION    CL-10363   2.684   9.225   8.543  0.2080  0.0793  0.0891
 6845ION    CL-10364   6.656   3.865  11.613  0.0685 -0.3673  0.1405
 6846ION    CL-10365   2.377   2.566   3.620 -0.0528  0.0158 -0.1556
   9.95587   9.95587  11.95369
