Protein in INSANE! Membrane UpperLeaflet>POPC=1.0 LowerLeaflet>POPC=1.0
10365
    1AU     AUC    1   4.991   4.945   5.909
    1AU     AUC    2   5.429   5.095   5.958
    1AU     AUC    3   5.462   4.934   6.163
    1AU     AUC    4   4.925   5.347   5.897
    1AU     AUC    5   4.952   5.479   6.309
    1AU     AUC    6   5.081   5.360   6.125
    1AU     AUC    7   5.349   5.333   6.054
    1AU     AUC    8   4.982   4.950   5.906
    1AU     AUC    9   5.235   4.843   6.295
    1AU     AUC   10   4.994   5.083   6.127
    1AU     AUC   11   5.264   5.146   6.206
    1AU     AUC   12   4.995   4.955   5.881
    1AU     AUC   13   5.183   5.183   5.932
    1AU     AUC   14   5.451   5.101   5.947
    1AU     AUC   15   5.660   5.044   5.934
    1AU     AUC   16   5.461   4.939   6.182
    1AU     AUC   17   4.926   5.331   5.894
    1AU     AUC   18   4.913   5.369   5.896
    1AU     AUC   19   4.896   5.553   6.127
    1AU     AUC   20   5.086   5.354   6.120
    1AU     AUC   21   5.212   4.918   6.045
    1AU     AUC   22   5.220   4.925   6.041
    1AU     AUC   23   4.802   5.285   6.155
    1AU     AUC   24   5.224   4.830   6.293
    1AU     AUC   25   5.637   4.736   6.139
    1AU     AUC   26   5.000   5.092   6.141
    1AU     AUC   27   5.021   5.078   6.143
    1AU     AUC   28   5.255   5.116   6.230
    1AU     AUC   29   5.108   5.036   5.680
    1AU     AUC   30   5.163   5.162   5.920
    1AU     AUC   31   5.171   5.170   5.939
    1AU     AUC   32   5.463   4.943   6.201
    1AU     AUC   33   5.044   5.001   6.393
    1AU     AUC   34   5.221   4.970   5.765
    1AU     AUC   35   5.397   5.091   5.946
    1AU     AUC   36   4.989   5.102   6.135
    1AU     AUC   37   5.279   5.380   6.313
    1AU     AUC   38   4.990   5.155   5.738
    1AU     AUC   39   5.149   5.185   5.931
    1AU     AUC   40   5.432   5.080   5.937
    1AU     AUC   41   5.358   5.347   6.045
    1AU     AUC   42   4.966   5.342   5.951
    1AU     AUC   43   4.933   5.496   6.316
    1AU     AUC   44   5.602   5.165   6.114
    1AU     AUC   45   5.524   4.917   6.163
    1AU     AUC   46   4.708   5.395   5.943
    1AU     AUC   47   4.791   5.312   6.150
    1AU     AUC   48   5.275   5.136   6.222
    1AU     AUC   49   5.275   5.140   6.189
    1AU     AUC   50   4.840   5.247   6.207
    1AU     AUC   51   5.237   4.846   6.316
    1AU     AUC   52   5.089   5.343   6.109
    1AU     AUC   53   5.221   4.919   6.040
    1AU     AUC   54   4.993   5.140   5.721
    1AU     AUC   55   5.248   4.939   5.778
    1AU    AUSL   56   5.429   4.995   6.411
    1AU    AUSL   57   5.231   4.905   6.569
    1AU     AUL   58   5.271   5.271   6.744
    1AU       S   59   5.750   5.029   7.045
    1AU     LIG   60   5.277   5.529   7.238
    1AU     LIG   61   5.168   5.684   7.718
    1AU     LIG   62   4.827   6.014   7.780
    1AU       S   63   5.655   4.825   5.223
    1AU     LIG   64   5.644   5.197   4.881
    1AU     LIG   65   5.010   5.543   4.863
    1AU     LIG   66   5.005   5.920   4.567
    1AU    AUSL   67   5.344   5.208   5.715
    1AU    AUSL   68   5.445   4.827   5.923
    1AU     AUL   69   5.376   5.233   5.711
    1AU       S   70   5.480   4.790   5.153
    1AU     LIG   71   5.283   4.331   4.786
    1AU     LIG   72   5.050   4.072   4.571
    1AU     LIG   73   4.636   3.991   4.618
    1AU       S   74   4.804   4.597   6.820
    1AU     LIG   75   4.505   4.867   7.295
    1AU     LIG   76   4.447   5.308   7.399
    1AU     LIG   77   4.531   5.572   7.801
    1AU    AUSL   78   4.793   4.700   6.258
    1AU    AUSL   79   4.631   5.082   6.123
    1AU     AUL   80   4.641   4.954   5.828
    1AU       S   81   5.220   4.655   5.153
    1AU     LIG   82   4.869   4.568   4.768
    1AU     LIG   83   4.448   4.774   4.746
    1AU     LIG   84   4.121   5.079   4.941
    1AU       S   85   4.721   4.718   5.224
    1AU     LIG   86   4.977   5.040   4.673
    1AU     LIG   87   5.410   5.546   4.639
    1AU     LIG   88   5.761   5.736   4.892
    1AU    AUSL   89   5.320   5.057   5.504
    1AU    AUSL   90   5.379   4.676   6.125
    1AU     AUL   91   5.369   4.717   5.667
    1AU       S   92   5.389   5.488   5.148
    1AU     LIG   93   5.735   5.770   5.411
    1AU     LIG   94   5.854   6.080   5.817
    1AU     LIG   95   5.527   6.200   6.157
    1AU       S   96   4.780   4.295   6.518
    1AU     LIG   97   3.893   4.830   6.293
    1AU     LIG   98   3.754   5.546   6.571
    1AU     LIG   99   3.917   5.988   6.551
    1AU    AUSL  100   4.724   5.190   5.709
    1AU    AUSL  101   5.054   5.248   6.357
    1AU     AUL  102   4.727   5.229   5.722
    1AU       S  103   4.771   4.210   5.983
    1AU     LIG  104   5.376   3.780   6.082
    1AU     LIG  105   5.883   3.841   6.225
    1AU     LIG  106   6.089   4.177   6.492
    1AU       S  107   5.209   5.167   5.043
    1AU     LIG  108   5.700   4.454   4.939
    1AU     LIG  109   5.678   3.950   5.223
    1AU     LIG  110   5.452   3.535   5.218
    1AU    AUSL  111   4.798   5.121   5.946
    1AU    AUSL  112   4.781   4.736   5.794
    1AU     AUL  113   4.480   4.875   6.033
    1AU       S  114   5.189   4.255   6.706
    1AU     LIG  115   4.554   4.186   6.911
    1AU     LIG  116   4.325   4.545   6.931
    1AU     LIG  117   4.398   5.042   6.885
    1AU       S  118   5.225   5.656   5.290
    1AU     LIG  119   5.385   6.027   5.676
    1AU     LIG  120   5.127   6.429   5.900
    1AU     LIG  121   4.709   6.583   6.114
    1AU    AUSL  122   5.271   5.406   6.318
    1AU    AUSL  123   5.513   5.175   6.598
    1AU     AUL  124   5.564   5.462   6.192
    1AU       S  125   4.797   4.689   6.858
    1AU     LIG  126   5.117   4.541   7.488
    1AU     LIG  127   5.013   4.103   7.602
    1AU     LIG  128   4.749   3.847   7.309
    1AU       S  129   5.248   5.004   7.224
    1AU     LIG  130   4.969   4.286   7.130
    1AU     LIG  131   4.902   3.871   6.812
    1AU     LIG  132   4.862   3.580   6.451
    1AU    AUSL  133   4.846   4.943   5.656
    1AU    AUSL  134   4.909   5.580   6.063
    1AU     AUL  135   5.384   5.490   5.805
    1AU       S  136   4.965   6.094   6.224
    1AU     LIG  137   4.675   6.390   5.657
    1AU     LIG  138   4.306   6.565   5.268
    1AU     LIG  139   4.141   6.413   4.843
    1AU       S  140   5.051   4.075   6.296
    1AU     LIG  141   4.490   3.892   6.395
    1AU     LIG  142   3.940   3.888   6.224
    1AU     LIG  143   3.784   3.925   5.669
    1AU    AUSL  144   5.214   4.697   5.904
    1AU    AUSL  145   5.026   5.147   5.681
    1AU     AUL  146   5.223   4.667   5.895
    1AU       S  147   5.530   4.373   6.728
    1AU     LIG  148   5.730   3.948   6.765
    1AU     LIG  149   5.809   3.802   7.203
    1AU     LIG  150   5.761   4.136   7.551
    1AU       S  151   4.532   6.047   6.193
    1AU     LIG  152   5.193   5.840   6.858
    1AU     LIG  153   5.611   5.306   7.440
    1AU     LIG  154   5.380   4.974   7.698
    1AU    AUSL  155   5.261   5.171   6.487
    1AU    AUSL  156   4.632   5.185   6.361
    1AU     AUL  157   5.002   4.733   6.434
    1AU       S  158   4.036   5.148   5.966
    1AU     LIG  159   3.925   4.475   6.568
    1AU     LIG  160   3.933   4.614   7.207
    1AU     LIG  161   4.132   4.809   7.630
    1AU       S  162   5.639   4.631   6.842
    1AU     LIG  163   5.726   5.478   7.004
    1AU     LIG  164   5.718   5.775   7.418
    1AU     LIG  165   5.792   5.586   7.851
    1AU    AUSL  166   5.578   5.362   5.933
    1AU    AUSL  167   5.790   4.974   6.170
    1AU     AUL  168   5.786   5.313   6.291
    1AU       S  169   5.612   4.241   6.276
    1AU     LIG  170   6.095   4.301   5.839
    1AU     LIG  171   6.317   4.545   5.339
    1AU     LIG  172   6.519   4.960   5.043
    1AU       S  173   5.612   4.410   5.407
    1AU     LIG  174   5.417   4.787   4.711
    1AU     LIG  175   5.297   5.051   4.288
    1AU     LIG  176   5.390   5.544   4.115
    1AU    AUSL  177   5.765   4.962   5.658
    1AU    AUSL  178   5.694   4.961   5.920
    1AU     AUL  179   5.567   5.200   5.510
    1AU       S  180   5.775   4.383   5.475
    1AU     LIG  181   6.079   4.185   5.097
    1AU     LIG  182   6.204   4.334   4.691
    1AU     LIG  183   6.493   4.678   4.584
    1AU       S  184   6.222   4.992   5.533
    1AU     LIG  185   6.059   4.805   4.959
    1AU     LIG  186   5.821   4.619   4.492
    1AU     LIG  187   5.349   4.519   4.297
    1AU    AUSL  188   5.643   5.178   5.769
    1AU    AUSL  189   5.148   5.377   5.743
    1AU     AUL  190   5.146   5.394   5.728
    1AU       S  191   4.782   4.921   5.100
    1AU     LIG  192   4.564   5.262   4.819
    1AU     LIG  193   4.134   5.588   4.846
    1AU     LIG  194   3.831   5.471   5.176
    1AU       S  195   5.278   4.184   5.899
    1AU     LIG  196   4.372   4.347   6.386
    1AU     LIG  197   3.963   4.869   6.805
    1AU     LIG  198   4.009   5.107   7.244
    1AU    AUSL  199   4.672   5.487   6.315
    1AU    AUSL  200   4.833   5.313   6.485
    1AU     AUL  201   4.637   5.566   6.174
    1AU       S  202   4.966   4.898   7.250
    1AU     LIG  203   4.620   4.429   7.423
    1AU     LIG  204   4.215   4.199   7.297
    1AU     LIG  205   3.823   4.188   6.993
    1AU       S  206   4.059   5.605   6.192
    1AU     LIG  207   3.579   5.118   6.470
    1AU     LIG  208   3.482   4.759   6.869
    1AU     LIG  209   3.457   4.498   7.300
    1AU    AUSL  210   4.847   5.187   5.479
    1AU    AUSL  211   4.902   5.406   5.623
    1AU     AUL  212   4.519   5.183   5.903
    1AU       S  213   4.034   5.231   5.514
    1AU     LIG  214   4.118   4.637   5.112
    1AU     LIG  215   4.071   4.424   4.687
    1AU     LIG  216   3.878   4.008   4.595
    1AU       S  217   4.344   5.395   5.235
    1AU     LIG  218   3.762   5.333   4.731
    1AU     LIG  219   3.579   5.809   4.658
    1AU     LIG  220   3.455   6.157   5.003
    1AU    AUSL  221   4.728   5.715   5.934
    1AU    AUSL  222   4.685   5.556   5.714
    1AU     AUL  223   4.637   5.477   5.669
    1AU       S  224   4.080   5.713   5.500
    1AU     LIG  225   4.567   5.745   4.813
    1AU     LIG  226   5.001   5.451   4.397
    1AU     LIG  227   5.703   5.284   4.380
    1AU       S  228   4.455   5.941   5.568
    1AU     LIG  229   4.891   6.103   5.013
    1AU     LIG  230   5.411   6.081   5.087
    1AU     LIG  231   5.831   6.246   5.294
    1AU    AUSL  232   5.658   4.749   6.078
    1AU    AUSL  233   5.742   4.795   6.387
    1AU     AUL  234   5.946   4.733   6.152
    1AU       S  235   6.238   4.793   5.767
    1AU     LIG  236   6.699   4.821   5.575
    1AU     LIG  237   6.885   5.152   5.778
    1AU     LIG  238   6.639   5.009   6.134
    1AU       S  239   6.035   4.880   6.753
    1AU     LIG  240   6.485   5.026   6.629
    1AU     LIG  241   6.766   5.376   6.467
    1AU     LIG  242   6.602   5.798   6.435
    1AU    AUSL  243   5.800   5.213   6.016
    1AU    AUSL  244   5.562   5.189   6.174
    1AU     AUL  245   5.503   5.244   6.342
    1AU       S  246   6.233   5.160   5.846
    1AU     LIG  247   6.536   5.491   5.991
    1AU     LIG  248   6.956   5.665   6.060
    1AU     LIG  249   7.096   5.965   6.385
    1AU       S  250   4.701   4.247   6.063
    1AU     LIG  251   4.095   4.510   6.066
    1AU     LIG  252   4.063   5.199   6.463
    1AU     LIG  253   3.650   5.246   6.933
    1AU    AUSL  254   4.451   5.368   6.110
    1AU    AUSL  255   4.660   5.406   5.939
    1AU     AUL  256   4.397   5.387   5.770
    1AU       S  257   4.299   6.007   6.107
    1AU     LIG  258   3.737   5.957   6.085
    1AU     LIG  259   3.471   5.771   5.732
    1AU     LIG  260   3.345   5.334   5.688
    1AU       S  261   4.042   5.773   5.758
    1AU     LIG  262   3.998   6.313   5.923
    1AU     LIG  263   4.219   6.641   5.756
    1AU     LIG  264   4.018   6.926   5.421
    1AU    AUSL  265   4.485   5.596   5.938
    1AU    AUSL  266   4.805   5.293   6.187
    1AU     AUL  267   4.507   5.320   6.160
    1AU       S  268   4.380   5.787   6.531
    1AU     LIG  269   3.635   5.477   6.130
    1AU     LIG  270   3.210   5.426   6.430
    1AU     LIG  271   3.127   5.135   6.801
    1AU       S  272   3.941   5.601   5.746
    1AU     LIG  273   3.824   4.805   5.786
    1AU     LIG  274   4.187   4.081   5.875
    1AU     LIG  275   4.482   3.633   5.986
    1AU    AUSL  276   5.474   4.734   6.371
    1AU    AUSL  277   5.126   5.417   6.551
    1AU     AUL  278   5.429   5.050   6.684
    1AU       S  279   5.274   5.075   7.178
    1AU     LIG  280   5.592   4.640   7.327
    1AU     LIG  281   5.921   4.298   7.088
    1AU     LIG  282   6.225   3.903   6.921
    1AU       S  283   5.169   4.316   5.493
    1AU     LIG  284   5.701   4.013   5.759
    1AU     LIG  285   6.080   3.866   5.547
    1AU     LIG  286   6.362   3.767   5.189
    1AU    AUSL  287   5.493   4.971   5.699
    1AU    AUSL  288   5.035   4.750   5.713
    1AU     AUL  289   5.058   4.732   5.685
    1AU       S  290   5.017   4.338   5.381
    1AU     LIG  291   4.506   4.321   4.991
    1AU     LIG  292   3.998   4.145   5.093
    1AU     LIG  293   3.528   4.140   5.024
    1AU       S  294   4.306   4.854   5.468
    1AU     LIG  295   3.723   4.785   5.328
    1AU     LIG  296   3.475   4.341   5.515
    1AU     LIG  297   3.401   4.025   5.953
    1AU    AUSL  298   4.767   4.859   6.044
    1AU    AUSL  299   5.031   4.994   6.406
    1AU     AUL  300   4.777   4.875   6.050
    1AU       S  301   4.635   4.564   5.383
    1AU     LIG  302   3.984   4.407   5.559
    1AU     LIG  303   3.565   4.479   5.989
    1AU     LIG  304   3.360   4.928   6.052
    1AU       S  305   4.429   4.446   5.769
    1AU     LIG  306   4.309   4.788   6.496
    1AU     LIG  307   4.114   5.408   6.869
    1AU     LIG  308   3.848   5.758   7.025
    1AU    AUSL  309   5.030   5.164   6.620
    1AU    AUSL  310   5.685   5.059   6.404
    1AU     AUL  311   5.413   5.419   6.554
    1AU       S  312   4.816   5.220   6.995
    1AU     LIG  313   4.500   5.657   6.997
    1AU     LIG  314   4.305   6.127   6.864
    1AU     LIG  315   4.303   6.411   6.450
    1AU       S  316   6.005   5.168   6.758
    1AU     LIG  317   6.041   5.720   6.647
    1AU     LIG  318   6.018   6.179   6.378
    1AU     LIG  319   5.841   6.609   6.193
    1AU    AUSL  320   4.801   5.046   6.535
    1AU    AUSL  321   5.155   5.619   6.214
    1AU     AUL  322   4.878   5.559   6.578
    1AU       S  323   4.875   5.319   7.075
    1AU     LIG  324   5.167   5.973   7.314
    1AU     LIG  325   5.591   6.104   7.063
    1AU     LIG  326   6.052   6.200   6.903
    1AU       S  327   4.883   6.044   6.505
    1AU     LIG  328   4.782   6.065   7.009
    1AU     LIG  329   4.783   5.696   7.385
    1AU     LIG  330   4.926   5.269   7.576
    1AU    AUSL  331   5.248   4.600   6.415
    1AU    AUSL  332   4.964   4.686   5.967
    1AU     AUL  333   4.939   4.652   5.992
    1AU       S  334   4.993   3.831   5.819
    1AU     LIG  335   5.104   3.394   6.056
    1AU     LIG  336   5.631   3.432   6.309
    1AU     LIG  337   5.914   3.454   6.706
    1AU       S  338   5.222   4.640   6.981
    1AU     LIG  339   5.391   4.073   7.119
    1AU     LIG  340   5.219   3.570   7.047
    1AU     LIG  341   4.854   3.272   6.867
    1AU    AUSL  342   4.800   4.981   6.285
    1AU    AUSL  343   5.140   4.599   6.162
    1AU     AUL  344   5.052   4.568   6.221
    1AU       S  345   4.242   4.809   5.601
    1AU     LIG  346   4.367   4.157   5.421
    1AU     LIG  347   4.484   3.701   5.510
    1AU     LIG  348   4.856   3.406   5.590
    1AU       S  349   5.477   4.158   6.332
    1AU     LIG  350   5.325   3.741   6.575
    1AU     LIG  351   5.246   3.243   6.534
    1AU     LIG  352   5.436   3.034   6.124
    1AU    AUSL  353   4.999   4.830   6.177
    1AU    AUSL  354   5.152   5.566   5.942
    1AU     AUL  355   5.168   5.540   5.954
    1AU       S  356   4.395   4.974   5.404
    1AU     LIG  357   4.765   5.724   5.239
    1AU     LIG  358   5.071   6.255   5.417
    1AU     LIG  359   5.508   6.508   5.588
    1AU       S  360   4.398   5.471   5.281
    1AU     LIG  361   4.413   6.080   5.122
    1AU     LIG  362   4.761   6.548   5.152
    1AU     LIG  363   4.761   6.864   5.517
    1AU    AUSL  364   5.089   4.924   5.505
    1AU    AUSL  365   4.941   5.612   5.787
    1AU     AUL  366   5.120   5.243   5.501
    1AU       S  367   4.477   6.136   5.984
    1AU     LIG  368   4.073   6.199   5.477
    1AU     LIG  369   3.883   5.960   5.112
    1AU     LIG  370   3.407   5.677   5.112
    1AU       S  371   5.024   3.901   5.551
    1AU     LIG  372   4.740   3.940   5.181
    1AU     LIG  373   4.378   3.827   5.014
    1AU     LIG  374   4.528   3.500   4.830
    1AU    AUSL  375   5.487   4.568   5.902
    1AU    AUSL  376   5.233   4.942   5.750
    1AU     AUL  377   5.635   4.745   5.762
    1AU       S  378   5.300   3.872   5.584
    1AU     LIG  379   5.484   3.434   5.722
    1AU     LIG  380   5.477   2.957   5.615
    1AU     LIG  381   5.647   2.731   5.233
    1AU       S  382   4.812   4.235   5.764
    1AU     LIG  383   5.202   3.996   5.126
    1AU     LIG  384   5.481   3.836   4.777
    1AU     LIG  385   5.854   3.538   4.722
    2POPC   NC3  386   3.499   1.426   8.069
    2POPC   PO4  387   3.114   0.841   8.215
    2POPC   GL1  388   3.304   0.881   7.763
    2POPC   GL2  389   3.524   1.166   7.641
    2POPC   C1A  390   3.288   0.893   7.283
    2POPC   D2A  391   3.150   0.943   6.839
    2POPC   C3A  392   3.422   0.991   6.448
    2POPC   C4A  393   3.335   0.930   5.958
    2POPC   C1B  394   3.497   1.387   7.230
    2POPC   C2B  395   3.471   1.416   6.768
    2POPC   C3B  396   3.750   1.403   6.437
    2POPC   C4B  397   3.781   1.159   6.079
    3POPC   NC3  398   7.261   0.357   8.119
    3POPC   PO4  399   7.832   9.963   7.962
    3POPC   GL1  400   7.516   0.200   7.709
    3POPC   GL2  401   7.394   0.572   7.672
    3POPC   C1A  402   7.379   0.166   7.309
    3POPC   D2A  403   7.602   0.286   6.941
    3POPC   C3A  404   7.415   0.361   6.555
    3POPC   C4A  405   7.402   0.144   6.166
    3POPC   C1B  406   7.169   0.642   7.290
    3POPC   C2B  407   7.271   0.759   6.880
    3POPC   C3B  408   7.142   0.867   6.465
    3POPC   C4B  409   7.289   0.657   6.143
    4POPC   NC3  410   1.145   1.405   8.114
    4POPC   PO4  411   0.796   0.795   8.046
    4POPC   GL1  412   0.901   1.110   7.741
    4POPC   GL2  413   1.227   0.990   7.737
    4POPC   C1A  414   1.149   1.317   7.363
    4POPC   D2A  415   1.395   1.421   6.964
    4POPC   C3A  416   1.232   1.320   6.550
    4POPC   C4A  417   1.038   1.451   6.143
    4POPC   C1B  418   1.362   0.824   7.369
    4POPC   C2B  419   1.288   0.908   6.986
    4POPC   C3B  420   1.499   0.772   6.657
    4POPC   C4B  421   1.379   0.922   6.284
    5POPC   NC3  422   0.673   5.082   8.083
    5POPC   PO4  423   0.222   4.572   7.895
    5POPC   GL1  424   0.564   4.779   7.643
    5POPC   GL2  425   0.629   5.126   7.600
    5POPC   C1A  426   0.746   4.871   7.191
    5POPC   D2A  427   0.524   4.980   6.787
    5POPC   C3A  428   0.714   4.917   6.381
    5POPC   C4A  429   0.742   4.860   5.943
    5POPC   C1B  430   0.350   5.183   7.279
    5POPC   C2B  431   0.044   5.372   7.049
    5POPC   C3B  432   0.065   5.273   6.630
    5POPC   C4B  433   0.222   5.039   6.259
    6POPC   NC3  434   6.270   7.534   8.574
    6POPC   PO4  435   5.745   7.733   8.092
    6POPC   GL1  436   5.647   7.977   7.670
    6POPC   GL2  437   5.701   8.333   7.729
    6POPC   C1A  438   5.761   7.970   7.213
    6POPC   D2A  439   5.532   7.928   6.811
    6POPC   C3A  440   5.820   7.857   6.458
    6POPC   C4A  441   6.220   7.624   6.453
    6POPC   C1B  442   5.525   8.410   7.328
    6POPC   C2B  443   5.709   8.383   6.913
    6POPC   C3B  444   5.636   8.342   6.465
    6POPC   C4B  445   5.665   8.357   5.997
    7POPC   NC3  446   0.313   8.152   8.145
    7POPC   PO4  447   0.828   7.693   8.007
    7POPC   GL1  448   0.449   7.897   7.728
    7POPC   GL2  449   0.389   8.297   7.667
    7POPC   C1A  450   0.171   7.912   7.355
    7POPC   D2A  451   0.377   7.861   6.948
    7POPC   C3A  452   0.154   7.985   6.569
    7POPC   C4A  453   0.148   7.841   6.144
    7POPC   C1B  454   0.568   8.233   7.244
    7POPC   C2B  455   0.467   8.334   6.793
    7POPC   C3B  456   0.605   8.186   6.384
    7POPC   C4B  457   0.898   8.344   6.024
    8POPC   NC3  458   8.498   6.382   8.127
    8POPC   PO4  459   9.187   6.279   8.309
    8POPC   GL1  460   8.976   6.418   7.909
    8POPC   GL2  461   9.070   6.706   7.717
    8POPC   C1A  462   8.783   6.361   7.470
    8POPC   D2A  463   8.709   6.446   7.017
    8POPC   C3A  464   8.741   6.527   6.563
    8POPC   C4A  465   9.021   6.344   6.292
    8POPC   C1B  466   8.894   6.858   7.280
    8POPC   C2B  467   9.088   7.058   6.890
    8POPC   C3B  468   8.944   6.992   6.449
    8POPC   C4B  469   8.692   6.774   6.108
    9POPC   NC3  470   2.563   6.284   8.019
    9POPC   PO4  471   2.645   6.918   8.060
    9POPC   GL1  472   2.616   6.678   7.682
    9POPC   GL2  473   2.904   6.446   7.671
    9POPC   C1A  474   2.489   6.704   7.264
    9POPC   D2A  475   2.529   6.551   6.868
    9POPC   C3A  476   2.419   6.775   6.529
    9POPC   C4A  477   2.650   6.755   6.125
    9POPC   C1B  478   3.001   6.691   7.274
    9POPC   C2B  479   3.004   6.718   6.799
    9POPC   C3B  480   3.104   6.691   6.347
    9POPC   C4B  481   3.014   6.429   5.978
   10POPC   NC3  482   7.518   9.610   7.947
   10POPC   PO4  483   6.944   9.934   8.098
   10POPC   GL1  484   7.114   9.834   7.671
   10POPC   GL2  485   7.174   9.458   7.600
   10POPC   C1A  486   7.012   9.781   7.231
   10POPC   D2A  487   7.133   0.042   6.870
   10POPC   C3A  488   7.111   9.885   6.490
   10POPC   C4A  489   6.845   0.008   6.165
   10POPC   C1B  490   7.482   9.625   7.292
   10POPC   C2B  491   7.326   9.553   6.872
   10POPC   C3B  492   7.467   9.502   6.461
   10POPC   C4B  493   7.642   9.669   6.055
   11POPC   NC3  494   7.937   4.810   8.017
   11POPC   PO4  495   7.979   4.167   8.298
   11POPC   GL1  496   8.125   4.332   7.845
   11POPC   GL2  497   8.454   4.381   7.749
   11POPC   C1A  498   8.119   4.221   7.362
   11POPC   D2A  499   8.213   4.009   6.944
   11POPC   C3A  500   8.086   4.183   6.524
   11POPC   C4A  501   7.797   4.213   6.169
   11POPC   C1B  502   8.516   4.540   7.318
   11POPC   C2B  503   8.579   4.374   6.894
   11POPC   C3B  504   8.554   4.478   6.457
   11POPC   C4B  505   8.264   4.473   6.133
   12POPC   NC3  506   3.318   2.081   8.106
   12POPC   PO4  507   3.776   2.580   8.108
   12POPC   GL1  508   3.637   2.263   7.762
   12POPC   GL2  509   3.531   1.891   7.679
   12POPC   C1A  510   3.524   2.289   7.342
   12POPC   D2A  511   3.465   2.503   6.965
   12POPC   C3A  512   3.329   2.239   6.656
   12POPC   C4A  513   3.353   2.244   6.204
   12POPC   C1B  514   3.791   1.804   7.312
   12POPC   C2B  515   3.895   1.730   6.843
   12POPC   C3B  516   3.685   1.898   6.446
   12POPC   C4B  517   3.248   1.786   6.437
   13POPC   NC3  518   9.181   5.939   8.002
   13POPC   PO4  519   9.476   5.339   8.128
   13POPC   GL1  520   9.119   5.439   7.865
   13POPC   GL2  521   9.358   5.628   7.645
   13POPC   C1A  522   8.887   5.493   7.461
   13POPC   D2A  523   9.028   5.311   7.061
   13POPC   C3A  524   9.026   5.605   6.733
   13POPC   C4A  525   9.026   5.804   6.324
   13POPC   C1B  526   9.216   5.804   7.247
   13POPC   C2B  527   8.830   5.934   7.092
   13POPC   C3B  528   8.755   6.043   6.684
   13POPC   C4B  529   8.569   6.062   6.295
   14POPC   NC3  530   1.999   4.425   8.269
   14POPC   PO4  531   1.379   4.251   7.986
   14POPC   GL1  532   1.737   4.304   7.739
   14POPC   GL2  533   1.921   4.605   7.774
   14POPC   C1A  534   1.739   4.380   7.274
   14POPC   D2A  535   1.713   4.134   6.870
   14POPC   C3A  536   1.766   4.402   6.509
   14POPC   C4A  537   1.793   4.200   6.097
   14POPC   C1B  538   2.195   4.330   7.510
   14POPC   C2B  539   2.187   4.147   7.069
   14POPC   C3B  540   2.149   4.066   6.589
   14POPC   C4B  541   2.227   4.409   6.253
   15POPC   NC3  542   4.346   9.049   8.046
   15POPC   PO4  543   3.902   8.558   8.153
   15POPC   GL1  544   3.868   8.780   7.688
   15POPC   GL2  545   4.133   9.008   7.601
   15POPC   C1A  546   3.836   8.972   7.213
   15POPC   D2A  547   4.010   8.780   6.821
   15POPC   C3A  548   4.112   9.046   6.474
   15POPC   C4A  549   4.170   9.231   6.014
   15POPC   C1B  550   4.395   8.857   7.239
   15POPC   C2B  551   4.559   8.584   6.959
   15POPC   C3B  552   4.566   8.836   6.617
   15POPC   C4B  553   4.451   8.824   6.183
   16POPC   NC3  554   0.383   1.110   7.936
   16POPC   PO4  555   0.709   1.646   8.037
   16POPC   GL1  556   0.543   1.503   7.644
   16POPC   GL2  557   0.208   1.393   7.534
   16POPC   C1A  558   0.651   1.238   7.293
   16POPC   D2A  559   0.897   1.214   6.917
   16POPC   C3A  560   0.738   1.136   6.495
   16POPC   C4A  561   0.534   1.472   6.301
   16POPC   C1B  562   0.205   0.994   7.284
   16POPC   C2B  563   0.378   1.095   6.879
   16POPC   C3B  564   0.199   1.152   6.495
   16POPC   C4B  565   0.222   1.000   6.098
   17POPC   NC3  566   7.929   5.742   7.980
   17POPC   PO4  567   8.592   5.860   8.007
   17POPC   GL1  568   8.349   5.741   7.647
   17POPC   GL2  569   8.157   6.069   7.650
   17POPC   C1A  570   8.449   5.611   7.206
   17POPC   D2A  571   8.492   5.610   6.757
   17POPC   C3A  572   8.142   5.463   6.483
   17POPC   C4A  573   7.857   5.557   6.128
   17POPC   C1B  574   8.360   6.130   7.239
   17POPC   C2B  575   8.260   6.074   6.784
   17POPC   C3B  576   8.052   6.035   6.369
   17POPC   C4B  577   7.879   6.149   5.955
   18POPC   NC3  578   5.737   0.439   8.199
   18POPC   PO4  579   6.212   9.944   8.250
   18POPC   GL1  580   6.036   0.307   7.819
   18POPC   GL2  581   5.678   0.503   7.716
   18POPC   C1A  582   5.897   0.273   7.339
   18POPC   D2A  583   6.018   0.013   7.000
   18POPC   C3A  584   6.044   0.190   6.611
   18POPC   C4A  585   5.919   0.032   6.256
   18POPC   C1B  586   5.581   0.691   7.316
   18POPC   C2B  587   5.793   0.682   6.919
   18POPC   C3B  588   5.663   0.503   6.509
   18POPC   C4B  589   5.941   0.551   6.176
   19POPC   NC3  590   9.482   6.554   8.073
   19POPC   PO4  591   0.168   6.249   8.115
   19POPC   GL1  592   9.966   6.574   7.748
   19POPC   GL2  593   9.684   6.718   7.666
   19POPC   C1A  594   9.828   6.584   7.224
   19POPC   D2A  595   9.785   6.432   6.780
   19POPC   C3A  596   9.846   6.599   6.331
   19POPC   C4A  597   9.938   6.374   5.837
   19POPC   C1B  598   9.393   6.837   7.352
   19POPC   C2B  599   9.259   6.583   6.997
   19POPC   C3B  600   9.348   6.633   6.565
   19POPC   C4B  601   9.380   6.888   6.222
   20POPC   NC3  602   9.585   1.006   8.373
   20POPC   PO4  603   9.990   1.376   7.989
   20POPC   GL1  604   9.726   1.265   7.671
   20POPC   GL2  605   9.411   1.327   7.802
   20POPC   C1A  606   9.771   1.258   7.232
   20POPC   D2A  607   9.851   1.019   6.854
   20POPC   C3A  608   9.697   1.128   6.425
   20POPC   C4A  609   9.758   0.802   6.129
   20POPC   C1B  610   9.289   1.205   7.379
   20POPC   C2B  611   9.342   1.173   6.911
   20POPC   C3B  612   9.387   1.510   6.580
   20POPC   C4B  613   9.480   1.537   6.132
   21POPC   NC3  614   1.814   8.051   7.991
   21POPC   PO4  615   2.262   7.576   8.008
   21POPC   GL1  616   2.144   7.799   7.612
   21POPC   GL2  617   1.822   8.004   7.486
   21POPC   C1A  618   2.240   7.963   7.207
   21POPC   D2A  619   2.055   7.896   6.826
   21POPC   C3A  620   2.367   7.932   6.489
   21POPC   C4A  621   2.472   8.012   6.044
   21POPC   C1B  622   1.551   8.337   7.317
   21POPC   C2B  623   1.455   8.367   6.872
   21POPC   C3B  624   1.723   8.172   6.559
   21POPC   C4B  625   2.015   8.189   6.236
   22POPC   NC3  626   4.146   1.521   8.124
   22POPC   PO4  627   4.685   1.135   8.304
   22POPC   GL1  628   4.576   1.367   7.867
   22POPC   GL2  629   4.268   1.202   7.729
   22POPC   C1A  630   4.609   1.289   7.339
   22POPC   D2A  631   4.405   1.140   6.890
   22POPC   C3A  632   4.612   0.932   6.479
   22POPC   C4A  633   4.641   1.193   6.056
   22POPC   C1B  634   3.981   1.245   7.388
   22POPC   C2B  635   3.868   1.150   6.954
   22POPC   C3B  636   3.955   0.955   6.567
   22POPC   C4B  637   4.214   1.194   6.324
   23POPC   NC3  638   7.694   6.983   8.034
   23POPC   PO4  639   8.279   7.468   8.054
   23POPC   GL1  640   7.981   7.298   7.755
   23POPC   GL2  641   8.220   7.287   7.572
   23POPC   C1A  642   7.872   7.071   7.313
   23POPC   D2A  643   8.125   7.138   6.911
   23POPC   C3A  644   7.932   7.105   6.497
   23POPC   C4A  645   7.681   7.017   6.143
   23POPC   C1B  646   8.195   7.564   7.235
   23POPC   C2B  647   8.370   7.690   6.847
   23POPC   C3B  648   8.306   7.623   6.421
   23POPC   C4B  649   8.269   7.407   6.025
   24POPC   NC3  650   9.198   3.487   7.979
   24POPC   PO4  651   8.734   3.963   7.977
   24POPC   GL1  652   8.859   3.682   7.641
   24POPC   GL2  653   8.801   3.295   7.736
   24POPC   C1A  654   9.112   3.754   7.254
   24POPC   D2A  655   9.332   3.601   6.881
   24POPC   C3A  656   9.107   3.751   6.538
   24POPC   C4A  657   8.818   3.612   6.280
   24POPC   C1B  658   9.026   3.264   7.333
   24POPC   C2B  659   8.885   3.355   6.912
   24POPC   C3B  660   9.020   3.207   6.517
   24POPC   C4B  661   8.796   3.135   6.120
   25POPC   NC3  662   0.220   1.774   8.050
   25POPC   PO4  663   0.450   2.217   8.412
   25POPC   GL1  664   0.413   2.152   7.813
   25POPC   GL2  665   0.674   2.005   7.646
   25POPC   C1A  666   0.192   2.072   7.392
   25POPC   D2A  667   9.929   2.179   7.012
   25POPC   C3A  668   0.106   2.010   6.649
   25POPC   C4A  669   0.162   2.043   6.216
   25POPC   C1B  670   0.618   1.827   7.236
   25POPC   C2B  671   0.583   2.070   6.846
   25POPC   C3B  672   0.653   2.005   6.400
   25POPC   C4B  673   0.550   1.840   5.972
   26POPC   NC3  674   9.873   4.345   8.101
   26POPC   PO4  675   9.369   4.718   7.813
   26POPC   GL1  676   9.710   4.492   7.616
   26POPC   GL2  677   9.753   4.093   7.664
   26POPC   C1A  678   9.636   4.606   7.172
   26POPC   D2A  679   9.367   4.608   6.817
   26POPC   C3A  680   9.514   4.470   6.423
   26POPC   C4A  681   9.516   4.697   6.024
   26POPC   C1B  682   9.872   4.176   7.233
   26POPC   C2B  683   9.899   4.346   6.816
   26POPC   C3B  684   0.043   4.154   6.468
   26POPC   C4B  685   9.942   3.883   6.134
   27POPC   NC3  686   7.292   0.988   8.057
   27POPC   PO4  687   7.682   1.461   7.722
   27POPC   GL1  688   7.259   1.389   7.601
   27POPC   GL2  689   7.123   1.050   7.597
   27POPC   C1A  690   7.176   1.308   7.163
   27POPC   D2A  691   7.377   1.256   6.758
   27POPC   C3A  692   7.093   1.382   6.450
   27POPC   C4A  693   6.976   1.268   6.036
   27POPC   C1B  694   7.537   0.974   7.336
   27POPC   C2B  695   7.758   0.936   6.922
   27POPC   C3B  696   7.643   0.881   6.494
   27POPC   C4B  697   7.460   1.151   6.156
   28POPC   NC3  698   9.225   4.955   8.178
   28POPC   PO4  699   8.580   4.908   8.018
   28POPC   GL1  700   8.867   4.755   7.664
   28POPC   GL2  701   9.078   5.032   7.540
   28POPC   C1A  702   9.009   4.640   7.205
   28POPC   D2A  703   8.877   4.774   6.761
   28POPC   C3A  704   9.094   4.812   6.346
   28POPC   C4A  705   9.073   4.844   5.861
   28POPC   C1B  706   8.649   5.056   7.338
   28POPC   C2B  707   8.547   5.132   6.942
   28POPC   C3B  708   8.735   5.216   6.536
   28POPC   C4B  709   8.589   5.529   6.260
   29POPC   NC3  710   6.010   8.834   8.184
   29POPC   PO4  711   5.481   9.276   8.112
   29POPC   GL1  712   5.734   9.210   7.749
   29POPC   GL2  713   5.835   8.857   7.691
   29POPC   C1A  714   5.761   9.198   7.312
   29POPC   D2A  715   5.974   9.120   6.934
   29POPC   C3A  716   5.743   9.206   6.558
   29POPC   C4A  717   5.417   9.157   6.238
   29POPC   C1B  718   5.978   8.655   7.312
   29POPC   C2B  719   6.184   8.631   6.922
   29POPC   C3B  720   5.920   8.728   6.620
   29POPC   C4B  721   5.766   8.792   6.256
   30POPC   NC3  722   5.015   8.897   8.108
   30POPC   PO4  723   4.447   8.653   7.840
   30POPC   GL1  724   4.839   8.744   7.613
   30POPC   GL2  725   4.921   9.120   7.627
   30POPC   C1A  726   4.944   8.840   7.179
   30POPC   D2A  727   4.761   9.209   7.022
   30POPC   C3A  728   4.878   9.256   6.641
   30POPC   C4A  729   4.951   8.973   6.335
   30POPC   C1B  730   5.348   8.923   7.473
   30POPC   C2B  731   5.534   8.830   7.040
   30POPC   C3B  732   5.385   8.804   6.618
   30POPC   C4B  733   5.293   8.643   6.188
   31POPC   NC3  734   5.888   9.659   8.017
   31POPC   PO4  735   5.373   0.082   8.144
   31POPC   GL1  736   5.626   9.992   7.723
   31POPC   GL2  737   5.773   9.698   7.511
   31POPC   C1A  738   5.438   0.024   7.293
   31POPC   D2A  739   5.554   0.226   6.922
   31POPC   C3A  740   5.497   9.987   6.534
   31POPC   C4A  741   5.593   9.632   6.256
   31POPC   C1B  742   6.111   9.548   7.195
   31POPC   C2B  743   6.260   9.550   6.777
   31POPC   C3B  744   6.071   9.534   6.350
   31POPC   C4B  745   5.916   9.227   6.039
   32POPC   NC3  746   7.128   2.447   8.116
   32POPC   PO4  747   7.206   3.117   8.102
   32POPC   GL1  748   7.277   2.810   7.784
   32POPC   GL2  749   7.581   2.952   7.662
   32POPC   C1A  750   7.071   2.640   7.424
   32POPC   D2A  751   7.246   2.737   7.029
   32POPC   C3A  752   7.082   2.687   6.620
   32POPC   C4A  753   7.147   3.003   6.302
   32POPC   C1B  754   7.786   2.767   7.312
   32POPC   C2B  755   7.742   2.611   6.910
   32POPC   C3B  756   7.613   2.820   6.533
   32POPC   C4B  757   7.606   2.908   6.064
   33POPC   NC3  758   8.975   9.281   8.186
   33POPC   PO4  759   9.198   8.588   8.121
   33POPC   GL1  760   9.040   8.849   7.785
   33POPC   GL2  761   8.674   8.845   7.905
   33POPC   C1A  762   9.112   8.978   7.325
   33POPC   D2A  763   9.175   8.763   6.938
   33POPC   C3A  764   9.152   9.031   6.606
   33POPC   C4A  765   8.971   8.993   6.245
   33POPC   C1B  766   8.641   8.827   7.451
   33POPC   C2B  767   8.694   8.933   7.005
   33POPC   C3B  768   8.709   8.743   6.608
   33POPC   C4B  769   8.468   8.657   6.229
   34POPC   NC3  770   5.031   0.386   8.035
   34POPC   PO4  771   4.640   0.881   7.822
   34POPC   GL1  772   4.896   0.603   7.591
   34POPC   GL2  773   4.754   0.252   7.580
   34POPC   C1A  774   5.104   0.485   7.212
   34POPC   D2A  775   5.286   0.660   6.850
   34POPC   C3A  776   5.076   0.585   6.462
   34POPC   C4A  777   5.107   0.556   6.013
   34POPC   C1B  778   4.755   0.102   7.144
   34POPC   C2B  779   5.065   0.165   6.774
   34POPC   C3B  780   5.062   0.100   6.288
   34POPC   C4B  781   4.884   0.116   5.837
   35POPC   NC3  782   0.281   6.772   8.126
   35POPC   PO4  783   0.821   6.597   8.098
   35POPC   GL1  784   0.781   6.407   7.703
   35POPC   GL2  785   0.458   6.440   7.736
   35POPC   C1A  786   0.772   6.583   7.303
   35POPC   D2A  787   0.730   6.864   6.958
   35POPC   C3A  788   0.760   6.600   6.599
   35POPC   C4A  789   0.641   6.723   6.206
   35POPC   C1B  790   0.287   6.488   7.370
   35POPC   C2B  791   0.418   6.407   6.958
   35POPC   C3B  792   0.266   6.491   6.586
   35POPC   C4B  793   0.249   6.313   6.215
   36POPC   NC3  794   7.579   8.613   7.920
   36POPC   PO4  795   7.809   9.247   8.009
   36POPC   GL1  796   7.519   9.081   7.708
   36POPC   GL2  797   7.174   8.956   7.825
   36POPC   C1A  798   7.513   9.117   7.258
   36POPC   D2A  799   7.769   9.194   6.897
   36POPC   C3A  800   7.669   9.000   6.508
   36POPC   C4A  801   7.554   9.165   6.073
   36POPC   C1B  802   7.189   8.762   7.430
   36POPC   C2B  803   7.285   8.673   7.022
   36POPC   C3B  804   7.018   8.700   6.665
   36POPC   C4B  805   7.222   8.839   6.300
   37POPC   NC3  806   1.893   8.780   8.089
   37POPC   PO4  807   2.148   8.271   7.770
   37POPC   GL1  808   1.922   8.598   7.596
   37POPC   GL2  809   2.014   8.961   7.632
   37POPC   C1A  810   1.906   8.702   7.173
   37POPC   D2A  811   1.928   9.016   6.885
   37POPC   C3A  812   2.059   8.756   6.554
   37POPC   C4A  813   1.733   8.627   6.274
   37POPC   C1B  814   2.171   9.281   7.334
   37POPC   C2B  815   2.398   9.234   6.934
   37POPC   C3B  816   2.242   9.250   6.520
   37POPC   C4B  817   1.915   9.122   6.237
   38POPC   NC3  818   0.650   6.181   8.142
   38POPC   PO4  819   0.436   5.543   7.997
   38POPC   GL1  820   0.492   5.923   7.748
   38POPC   GL2  821   0.830   5.884   7.698
   38POPC   C1A  822   0.523   6.056   7.323
   38POPC   D2A  823   0.378   5.779   6.972
   38POPC   C3A  824   0.400   5.983   6.578
   38POPC   C4A  825   0.721   6.156   6.284
   38POPC   C1B  826   0.635   5.579   7.386
   38POPC   C2B  827   0.730   5.390   6.993
   38POPC   C3B  828   0.631   5.431   6.528
   38POPC   C4B  829   0.267   5.588   6.274
   39POPC   NC3  830   2.078   7.156   8.083
   39POPC   PO4  831   1.507   7.670   8.049
   39POPC   GL1  832   1.713   7.537   7.645
   39POPC   GL2  833   1.977   7.302   7.618
   39POPC   C1A  834   1.895   7.563   7.193
   39POPC   D2A  835   1.772   7.420   6.759
   39POPC   C3A  836   1.922   7.664   6.407
   39POPC   C4A  837   2.080   7.597   5.989
   39POPC   C1B  838   2.243   7.150   7.305
   39POPC   C2B  839   2.143   7.075   6.885
   39POPC   C3B  840   2.223   7.254   6.500
   39POPC   C4B  841   2.250   7.096   6.082
   40POPC   NC3  842   6.520   0.143   7.940
   40POPC   PO4  843   6.959   0.679   7.952
   40POPC   GL1  844   6.931   0.331   7.678
   40POPC   GL2  845   6.676   0.570   7.556
   40POPC   C1A  846   6.868   0.254   7.237
   40POPC   D2A  847   6.793   0.557   6.912
   40POPC   C3A  848   6.902   0.426   6.474
   40POPC   C4A  849   6.751   0.661   6.110
   40POPC   C1B  850   6.388   0.362   7.335
   40POPC   C2B  851   6.270   0.475   6.956
   40POPC   C3B  852   6.410   0.580   6.548
   40POPC   C4B  853   6.386   0.324   6.219
   41POPC   NC3  854   8.871   7.346   8.083
   41POPC   PO4  855   8.437   6.838   8.141
   41POPC   GL1  856   8.654   7.061   7.730
   41POPC   GL2  857   9.029   7.212   7.599
   41POPC   C1A  858   8.654   7.496   7.475
   41POPC   D2A  859   8.653   7.341   7.086
   41POPC   C3A  860   8.792   7.431   6.678
   41POPC   C4A  861   8.753   7.464   6.230
   41POPC   C1B  862   9.126   7.531   7.264
   41POPC   C2B  863   9.314   7.584   6.849
   41POPC   C3B  864   9.168   7.691   6.427
   41POPC   C4B  865   9.207   7.672   5.949
   42POPC   NC3  866   2.391   3.739   8.087
   42POPC   PO4  867   1.806   4.016   8.291
   42POPC   GL1  868   1.797   3.802   7.859
   42POPC   GL2  869   2.015   3.493   7.751
   42POPC   C1A  870   1.827   3.878   7.412
   42POPC   D2A  871   2.071   3.653   7.105
   42POPC   C3A  872   1.859   3.611   6.721
   42POPC   C4A  873   1.660   3.810   6.388
   42POPC   C1B  874   1.753   3.335   7.379
   42POPC   C2B  875   1.605   3.186   6.958
   42POPC   C3B  876   1.763   3.117   6.530
   42POPC   C4B  877   2.011   3.398   6.267
   43POPC   NC3  878   1.003   3.106   8.015
   43POPC   PO4  879   0.750   2.498   7.920
   43POPC   GL1  880   0.969   2.752   7.633
   43POPC   GL2  881   1.331   2.812   7.711
   43POPC   C1A  882   0.914   2.728   7.217
   43POPC   D2A  883   0.785   2.545   6.851
   43POPC   C3A  884   0.927   2.786   6.539
   43POPC   C4A  885   1.059   2.676   6.116
   43POPC   C1B  886   1.579   2.792   7.322
   43POPC   C2B  887   1.369   2.716   6.927
   43POPC   C3B  888   1.459   2.681   6.510
   43POPC   C4B  889   1.466   2.947   6.158
   44POPC   NC3  890   9.407   1.866   7.896
   44POPC   PO4  891   9.965   2.255   8.002
   44POPC   GL1  892   9.754   2.142   7.634
   44POPC   GL2  893   9.862   1.781   7.667
   44POPC   C1A  894   9.488   2.266   7.263
   44POPC   D2A  895   9.489   2.500   6.856
   44POPC   C3A  896   9.813   2.404   6.498
   44POPC   C4A  897   9.765   2.270   5.987
   44POPC   C1B  898   9.737   1.767   7.239
   44POPC   C2B  899   9.854   1.551   6.826
   44POPC   C3B  900   9.922   1.594   6.394
   44POPC   C4B  901   9.665   1.947   6.352
   45POPC   NC3  902   0.329   2.538   8.119
   45POPC   PO4  903   0.472   3.169   8.059
   45POPC   GL1  904   0.377   2.910   7.690
   45POPC   GL2  905   0.132   2.621   7.662
   45POPC   C1A  906   0.266   3.000   7.252
   45POPC   D2A  907   0.545   2.988   6.904
   45POPC   C3A  908   0.489   3.075   6.478
   45POPC   C4A  909   0.581   2.808   6.155
   45POPC   C1B  910   0.413   2.521   7.297
   45POPC   C2B  911   0.274   2.528   6.867
   45POPC   C3B  912   0.375   2.451   6.453
   45POPC   C4B  913   0.201   2.520   6.029
   46POPC   NC3  914   8.142   7.130   8.326
   46POPC   PO4  915   7.874   6.553   8.070
   46POPC   GL1  916   8.108   6.805   7.739
   46POPC   GL2  917   8.342   6.565   7.678
   46POPC   C1A  918   8.381   6.902   7.299
   46POPC   D2A  919   8.588   6.913   6.849
   46POPC   C3A  920   8.439   7.104   6.455
   46POPC   C4A  921   8.206   6.915   6.094
   46POPC   C1B  922   8.028   6.525   7.335
   46POPC   C2B  923   8.218   6.563   6.946
   46POPC   C3B  924   8.236   6.638   6.540
   46POPC   C4B  925   7.915   6.544   6.308
   47POPC   NC3  926   4.968   1.502   8.276
   47POPC   PO4  927   4.475   1.864   8.103
   47POPC   GL1  928   4.744   1.840   7.764
   47POPC   GL2  929   5.077   1.871   7.906
   47POPC   C1A  930   4.758   1.795   7.314
   47POPC   D2A  931   4.963   1.952   6.931
   47POPC   C3A  932   4.751   1.996   6.544
   47POPC   C4A  933   4.904   2.342   6.313
   47POPC   C1B  934   5.289   1.982   7.495
   47POPC   C2B  935   5.454   2.075   7.071
   47POPC   C3B  936   5.374   2.184   6.633
   47POPC   C4B  937   5.203   1.906   6.326
   48POPC   NC3  938   2.643   4.602   7.971
   48POPC   PO4  939   2.755   5.244   8.098
   48POPC   GL1  940   2.617   5.154   7.687
   48POPC   GL2  941   2.496   4.826   7.529
   48POPC   C1A  942   2.724   5.238   7.258
   48POPC   D2A  943   2.587   5.068   6.875
   48POPC   C3A  944   2.732   5.102   6.437
   48POPC   C4A  945   2.637   5.170   5.986
   48POPC   C1B  946   2.821   4.731   7.180
   48POPC   C2B  947   2.903   4.681   6.704
   48POPC   C3B  948   2.943   4.662   6.227
   48POPC   C4B  949   3.055   4.495   5.793
   49POPC   NC3  950   4.288   2.305   8.124
   49POPC   PO4  951   3.742   1.819   8.139
   49POPC   GL1  952   4.048   1.957   7.819
   49POPC   GL2  953   4.234   1.704   7.658
   49POPC   C1A  954   4.171   2.137   7.410
   49POPC   D2A  955   3.944   2.217   7.022
   49POPC   C3A  956   4.096   2.162   6.607
   49POPC   C4A  957   4.358   2.198   6.248
   49POPC   C1B  958   4.265   1.644   7.227
   49POPC   C2B  959   4.413   1.817   6.877
   49POPC   C3B  960   4.287   1.704   6.468
   49POPC   C4B  961   4.356   1.601   6.061
   50POPC   NC3  962   6.375   7.288   7.966
   50POPC   PO4  963   6.864   7.077   8.397
   50POPC   GL1  964   6.803   7.127   7.775
   50POPC   GL2  965   6.991   7.377   7.628
   50POPC   C1A  966   6.627   7.185   7.301
   50POPC   D2A  967   6.387   7.220   6.870
   50POPC   C3A  968   6.585   7.262   6.459
   50POPC   C4A  969   6.634   7.114   6.036
   50POPC   C1B  970   7.000   7.515   7.236
   50POPC   C2B  971   6.922   7.300   6.873
   50POPC   C3B  972   7.020   7.504   6.502
   50POPC   C4B  973   6.809   7.594   6.091
   51POPC   NC3  974   9.705   2.631   8.079
   51POPC   PO4  975   9.138   3.073   8.186
   51POPC   GL1  976   9.361   2.923   7.753
   51POPC   GL2  977   9.600   2.639   7.606
   51POPC   C1A  978   9.334   2.862   7.268
   51POPC   D2A  979   9.439   3.107   6.931
   51POPC   C3A  980   9.488   2.905   6.549
   51POPC   C4A  981   9.291   2.962   6.155
   51POPC   C1B  982   9.854   2.643   7.230
   51POPC   C2B  983   9.916   2.898   6.869
   51POPC   C3B  984   0.028   2.865   6.453
   51POPC   C4B  985   9.757   2.741   6.123
   52POPC   NC3  986   6.661   1.875   8.271
   52POPC   PO4  987   7.086   1.405   8.094
   52POPC   GL1  988   6.845   1.647   7.816
   52POPC   GL2  989   6.796   2.024   7.795
   52POPC   C1A  990   6.806   1.616   7.374
   52POPC   D2A  991   6.548   1.429   7.063
   52POPC   C3A  992   6.643   1.555   6.638
   52POPC   C4A  993   6.822   1.813   6.295
   52POPC   C1B  994   6.522   2.064   7.395
   52POPC   C2B  995   6.405   1.920   6.932
   52POPC   C3B  996   6.350   1.982   6.454
   52POPC   C4B  997   6.576   2.269   6.136
   53POPC   NC3  998   0.191   3.477   7.861
   53POPC   PO4  999   9.845   3.032   8.277
   53POPC   GL1 1000   9.850   3.082   7.803
   53POPC   GL2 1001   9.676   3.434   7.728
   53POPC   C1A 1002   9.784   3.145   7.337
   53POPC   D2A 1003   0.006   3.392   7.005
   53POPC   C3A 1004   9.768   3.392   6.627
   53POPC   C4A 1005   9.723   3.221   6.239
   53POPC   C1B 1006   9.666   3.682   7.302
   53POPC   C2B 1007   9.777   3.845   6.869
   53POPC   C3B 1008   9.579   3.946   6.491
   53POPC   C4B 1009   9.493   3.650   6.191
   54POPC   NC3 1010   6.973   8.762   8.442
   54POPC   PO4 1011   6.434   8.999   8.220
   54POPC   GL1 1012   6.393   8.889   7.762
   54POPC   GL2 1013   6.716   8.685   7.703
   54POPC   C1A 1014   6.319   9.046   7.310
   54POPC   D2A 1015   6.530   9.106   6.875
   54POPC   C3A 1016   6.269   9.093   6.514
   54POPC   C4A 1017   6.274   8.759   6.262
   54POPC   C1B 1018   6.807   9.083   7.481
   54POPC   C2B 1019   7.031   9.192   7.087
   54POPC   C3B 1020   7.047   9.199   6.626
   54POPC   C4B 1021   6.738   8.993   6.342
   55POPC   NC3 1022   9.737   0.304   7.880
   55POPC   PO4 1023   9.281   0.685   8.130
   55POPC   GL1 1024   9.529   0.782   7.717
   55POPC   GL2 1025   9.915   0.758   7.661
   55POPC   C1A 1026   9.571   0.789   7.254
   55POPC   D2A 1027   9.634   0.552   6.866
   55POPC   C3A 1028   9.402   0.736   6.541
   55POPC   C4A 1029   9.258   0.661   6.141
   55POPC   C1B 1030   9.924   0.431   7.291
   55POPC   C2B 1031   9.989   0.168   6.918
   55POPC   C3B 1032   9.983   0.392   6.514
   55POPC   C4B 1033   9.640   0.327   6.272
   56POPC   NC3 1034   0.050   5.808   7.991
   56POPC   PO4 1035   9.506   6.179   7.758
   56POPC   GL1 1036   9.958   6.095   7.575
   56POPC   GL2 1037   0.111   5.734   7.478
   56POPC   C1A 1038   0.029   6.115   7.134
   56POPC   D2A 1039   9.896   5.892   6.781
   56POPC   C3A 1040   9.543   6.049   6.519
   56POPC   C4A 1041   9.820   6.011   6.192
   56POPC   C1B 1042   9.721   5.718   7.269
   56POPC   C2B 1043   9.522   5.562   6.892
   56POPC   C3B 1044   9.656   5.553   6.458
   56POPC   C4B 1045   9.445   5.667   6.082
   57POPC   NC3 1046   8.132   9.589   8.029
   57POPC   PO4 1047   8.629   0.052   7.890
   57POPC   GL1 1048   8.257   9.892   7.618
   57POPC   GL2 1049   8.336   9.521   7.574
   57POPC   C1A 1050   7.884   9.997   7.308
   57POPC   D2A 1051   7.762   9.794   6.890
   57POPC   C3A 1052   7.813   9.939   6.468
   57POPC   C4A 1053   8.122   9.848   6.140
   57POPC   C1B 1054   8.052   9.513   7.230
   57POPC   C2B 1055   8.170   9.483   6.788
   57POPC   C3B 1056   7.962   9.419   6.379
   57POPC   C4B 1057   8.056   9.381   5.914
   58POPC   NC3 1058   3.850   7.470   7.979
   58POPC   PO4 1059   3.512   6.962   7.987
   58POPC   GL1 1060   3.760   7.169   7.577
   58POPC   GL2 1061   3.619   7.501   7.487
   58POPC   C1A 1062   3.866   7.311   7.096
   58POPC   D2A 1063   3.614   7.482   6.751
   58POPC   C3A 1064   3.421   7.165   6.530
   58POPC   C4A 1065   3.506   6.967   6.149
   58POPC   C1B 1066   3.291   7.662   7.210
   58POPC   C2B 1067   3.138   7.697   6.763
   58POPC   C3B 1068   3.304   7.641   6.341
   58POPC   C4B 1069   3.716   7.557   6.170
   59POPC   NC3 1070   8.813   2.238   7.854
   59POPC   PO4 1071   9.020   1.620   7.998
   59POPC   GL1 1072   9.044   1.630   7.553
   59POPC   GL2 1073   8.742   1.814   7.532
   59POPC   C1A 1074   9.247   1.655   7.121
   59POPC   D2A 1075   9.448   1.970   6.833
   59POPC   C3A 1076   9.179   1.994   6.465
   59POPC   C4A 1077   9.009   1.681   6.233
   59POPC   C1B 1078   9.002   2.084   7.257
   59POPC   C2B 1079   8.964   2.240   6.855
   59POPC   C3B 1080   8.676   2.052   6.571
   59POPC   C4B 1081   8.520   1.750   6.303
   60POPC   NC3 1082   6.719   1.106   8.122
   60POPC   PO4 1083   6.077   0.792   8.134
   60POPC   GL1 1084   6.368   0.913   7.775
   60POPC   GL2 1085   6.598   1.186   7.630
   60POPC   C1A 1086   6.274   0.855   7.326
   60POPC   D2A 1087   6.374   0.974   6.905
   60POPC   C3A 1088   6.085   0.967   6.589
   60POPC   C4A 1089   6.249   0.949   6.193
   60POPC   C1B 1090   6.769   0.985   7.249
   60POPC   C2B 1091   6.866   1.083   6.825
   60POPC   C3B 1092   6.668   1.078   6.431
   60POPC   C4B 1093   6.470   1.409   6.169
   61POPC   NC3 1094   0.981   4.089   7.835
   61POPC   PO4 1095   0.955   4.688   7.991
   61POPC   GL1 1096   0.997   4.525   7.577
   61POPC   GL2 1097   1.286   4.346   7.504
   61POPC   C1A 1098   0.941   4.407   7.127
   61POPC   D2A 1099   0.921   4.626   6.770
   61POPC   C3A 1100   0.908   4.446   6.411
   61POPC   C4A 1101   1.009   4.394   5.981
   61POPC   C1B 1102   1.310   4.059   7.170
   61POPC   C2B 1103   1.207   4.137   6.726
   61POPC   C3B 1104   1.345   4.212   6.325
   61POPC   C4B 1105   1.353   3.970   5.961
   62POPC   NC3 1106   7.610   3.323   8.086
   62POPC   PO4 1107   7.115   3.791   7.963
   62POPC   GL1 1108   7.415   3.591   7.702
   62POPC   GL2 1109   7.199   3.300   7.625
   62POPC   C1A 1110   7.634   3.372   7.361
   62POPC   D2A 1111   7.561   3.138   6.980
   62POPC   C3A 1112   7.608   3.333   6.557
   62POPC   C4A 1113   7.476   3.380   6.148
   62POPC   C1B 1114   7.151   3.546   7.261
   62POPC   C2B 1115   7.305   3.594   6.866
   62POPC   C3B 1116   7.098   3.481   6.486
   62POPC   C4B 1117   7.074   3.681   6.088
   63POPC   NC3 1118   1.877   2.906   8.148
   63POPC   PO4 1119   2.460   3.275   8.136
   63POPC   GL1 1120   2.321   3.029   7.746
   63POPC   GL2 1121   2.065   2.743   7.707
   63POPC   C1A 1122   2.181   3.037   7.293
   63POPC   D2A 1123   2.119   3.195   6.888
   63POPC   C3A 1124   2.259   2.973   6.524
   63POPC   C4A 1125   2.158   2.928   6.090
   63POPC   C1B 1126   2.046   2.549   7.307
   63POPC   C2B 1127   1.913   2.731   6.898
   63POPC   C3B 1128   1.977   2.547   6.502
   63POPC   C4B 1129   1.805   2.574   6.096
   64POPC   NC3 1130   8.009   7.806   7.870
   64POPC   PO4 1131   8.232   8.394   8.229
   64POPC   GL1 1132   8.346   8.456   7.764
   64POPC   GL2 1133   8.310   8.108   7.587
   64POPC   C1A 1134   8.280   8.498   7.289
   64POPC   D2A 1135   8.379   8.171   7.019
   64POPC   C3A 1136   8.398   8.330   6.638
   64POPC   C4A 1137   8.380   8.157   6.255
   64POPC   C1B 1138   7.954   8.028   7.259
   64POPC   C2B 1139   7.877   7.808   6.873
   64POPC   C3B 1140   7.946   7.997   6.499
   64POPC   C4B 1141   8.002   7.874   6.090
   65POPC   NC3 1142   4.221   9.801   8.092
   65POPC   PO4 1143   4.746   9.303   8.123
   65POPC   GL1 1144   4.449   9.452   7.758
   65POPC   GL2 1145   4.397   9.820   7.618
   65POPC   C1A 1146   4.381   9.360   7.327
   65POPC   D2A 1147   4.462   9.648   6.991
   65POPC   C3A 1148   4.405   9.447   6.571
   65POPC   C4A 1149   4.625   9.338   6.197
   65POPC   C1B 1150   4.047   9.709   7.418
   65POPC   C2B 1151   3.952   9.769   6.993
   65POPC   C3B 1152   4.194   9.906   6.617
   65POPC   C4B 1153   4.095   9.770   6.171
   66POPC   NC3 1154   2.089   1.268   8.030
   66POPC   PO4 1155   1.586   0.892   8.078
   66POPC   GL1 1156   1.768   1.031   7.709
   66POPC   GL2 1157   2.126   0.992   7.597
   66POPC   C1A 1158   1.675   1.225   7.351
   66POPC   D2A 1159   1.777   1.059   6.975
   66POPC   C3A 1160   1.747   1.206   6.558
   66POPC   C4A 1161   2.016   1.118   6.216
   66POPC   C1B 1162   2.170   1.344   7.279
   66POPC   C2B 1163   2.140   1.397   6.818
   66POPC   C3B 1164   2.094   1.611   6.419
   66POPC   C4B 1165   1.991   1.622   5.974
   67POPC   NC3 1166   7.328   4.197   7.989
   67POPC   PO4 1167   7.469   4.778   7.987
   67POPC   GL1 1168   7.671   4.488   7.665
   67POPC   GL2 1169   7.717   4.077   7.665
   67POPC   C1A 1170   7.647   4.377   7.224
   67POPC   D2A 1171   7.708   4.131   6.858
   67POPC   C3A 1172   7.491   4.349   6.557
   67POPC   C4A 1173   7.402   4.590   6.207
   67POPC   C1B 1174   7.527   3.893   7.285
   67POPC   C2B 1175   7.208   4.083   6.984
   67POPC   C3B 1176   7.138   3.988   6.547
   67POPC   C4B 1177   7.523   3.831   6.428
   68POPC   NC3 1178   2.086   5.414   8.146
   68POPC   PO4 1179   2.252   4.794   8.152
   68POPC   GL1 1180   2.119   5.068   7.787
   68POPC   GL2 1181   1.774   5.122   7.715
   68POPC   C1A 1182   2.207   5.223   7.360
   68POPC   D2A 1183   2.195   5.454   6.970
   68POPC   C3A 1184   2.190   5.177   6.601
   68POPC   C4A 1185   2.246   4.931   6.224
   68POPC   C1B 1186   1.756   4.947   7.301
   68POPC   C2B 1187   1.638   5.062   6.868
   68POPC   C3B 1188   1.743   4.990   6.432
   68POPC   C4B 1189   1.774   4.716   6.082
   69POPC   NC3 1190   7.922   2.781   7.992
   69POPC   PO4 1191   8.456   2.445   8.026
   69POPC   GL1 1192   8.370   2.706   7.686
   69POPC   GL2 1193   8.156   3.001   7.607
   69POPC   C1A 1194   8.294   2.615   7.258
   69POPC   D2A 1195   8.439   2.483   6.854
   69POPC   C3A 1196   8.128   2.622   6.567
   69POPC   C4A 1197   7.899   2.536   6.201
   69POPC   C1B 1198   8.099   3.196   7.221
   69POPC   C2B 1199   8.025   3.132   6.784
   69POPC   C3B 1200   8.021   3.105   6.362
   69POPC   C4B 1201   8.291   2.878   6.139
   70POPC   NC3 1202   1.115   7.322   8.086
   70POPC   PO4 1203   1.654   6.788   8.104
   70POPC   GL1 1204   1.509   7.075   7.677
   70POPC   GL2 1205   1.228   7.361   7.606
   70POPC   C1A 1206   1.487   7.266   7.199
   70POPC   D2A 1207   1.211   7.151   6.840
   70POPC   C3A 1208   1.373   7.271   6.420
   70POPC   C4A 1209   1.763   7.229   6.205
   70POPC   C1B 1210   0.977   7.459   7.214
   70POPC   C2B 1211   0.947   7.562   6.757
   70POPC   C3B 1212   0.851   7.233   6.427
   70POPC   C4B 1213   0.989   7.283   5.991
   71POPC   NC3 1214   0.757   9.638   8.134
   71POPC   PO4 1215   1.289   9.251   8.072
   71POPC   GL1 1216   1.339   9.421   7.654
   71POPC   GL2 1217   1.015   9.575   7.648
   71POPC   C1A 1218   1.224   9.341   7.204
   71POPC   D2A 1219   0.972   9.183   6.851
   71POPC   C3A 1220   1.083   9.415   6.482
   71POPC   C4A 1221   0.929   9.319   6.081
   71POPC   C1B 1222   1.256   9.821   7.356
   71POPC   C2B 1223   1.258   9.896   6.944
   71POPC   C3B 1224   0.941   0.022   6.694
   71POPC   C4B 1225   0.895   9.890   6.304
   72POPC   NC3 1226   6.719   6.775   8.103
   72POPC   PO4 1227   6.202   6.917   7.738
   72POPC   GL1 1228   6.555   6.733   7.527
   72POPC   GL2 1229   6.825   6.530   7.654
   72POPC   C1A 1230   6.512   6.727   7.078
   72POPC   D2A 1231   6.721   6.833   6.725
   72POPC   C3A 1232   6.467   6.754   6.382
   72POPC   C4A 1233   6.293   6.687   5.950
   72POPC   C1B 1234   6.823   6.348   7.200
   72POPC   C2B 1235   6.660   6.311   6.734
   72POPC   C3B 1236   6.553   6.269   6.269
   72POPC   C4B 1237   6.558   6.238   5.811
   73POPC   NC3 1238   7.512   6.305   7.929
   73POPC   PO4 1239   7.173   6.849   7.970
   73POPC   GL1 1240   7.220   6.831   7.578
   73POPC   GL2 1241   7.579   6.734   7.613
   73POPC   C1A 1242   7.008   6.831   7.171
   73POPC   D2A 1243   7.142   6.548   6.829
   73POPC   C3A 1244   7.002   6.504   6.391
   73POPC   C4A 1245   6.810   6.643   6.017
   73POPC   C1B 1246   7.541   6.687   7.187
   73POPC   C2B 1247   7.757   6.746   6.817
   73POPC   C3B 1248   7.484   6.682   6.477
   73POPC   C4B 1249   7.474   6.285   6.244
   74POPC   NC3 1250   6.176   2.685   8.001
   74POPC   PO4 1251   6.674   2.333   8.211
   74POPC   GL1 1252   6.712   2.568   7.804
   74POPC   GL2 1253   6.779   2.932   7.796
   74POPC   C1A 1254   6.514   2.653   7.393
   74POPC   D2A 1255   6.332   2.412   7.059
   74POPC   C3A 1256   6.435   2.480   6.632
   74POPC   C4A 1257   6.240   2.645   6.279
   74POPC   C1B 1258   6.818   3.074   7.347
   74POPC   C2B 1259   6.687   2.875   6.943
   74POPC   C3B 1260   6.642   2.948   6.497
   74POPC   C4B 1261   6.713   2.780   6.104
   75POPC   NC3 1262   3.562   0.553   8.114
   75POPC   PO4 1263   3.892   1.114   8.077
   75POPC   GL1 1264   3.901   0.817   7.715
   75POPC   GL2 1265   3.729   0.498   7.639
   75POPC   C1A 1266   3.970   0.727   7.257
   75POPC   D2A 1267   3.621   0.696   6.947
   75POPC   C3A 1268   3.669   0.523   6.572
   75POPC   C4A 1269   3.726   0.669   6.177
   75POPC   C1B 1270   3.304   0.413   7.474
   75POPC   C2B 1271   3.190   0.394   7.040
   75POPC   C3B 1272   3.230   0.247   6.623
   75POPC   C4B 1273   3.228   0.543   6.283
   76POPC   NC3 1274   2.471   2.102   8.113
   76POPC   PO4 1275   2.992   2.476   8.220
   76POPC   GL1 1276   3.046   2.324   7.732
   76POPC   GL2 1277   2.772   2.084   7.685
   76POPC   C1A 1278   3.010   2.175   7.242
   76POPC   D2A 1279   2.718   2.091   6.870
   76POPC   C3A 1280   2.851   2.125   6.421
   76POPC   C4A 1281   2.921   2.100   5.958
   76POPC   C1B 1282   2.719   1.758   7.378
   76POPC   C2B 1283   2.525   1.640   7.012
   76POPC   C3B 1284   2.600   1.659   6.559
   76POPC   C4B 1285   2.854   1.644   6.159
   77POPC   NC3 1286   1.428   4.700   7.907
   77POPC   PO4 1287   1.395   5.260   8.021
   77POPC   GL1 1288   1.165   5.057   7.659
   77POPC   GL2 1289   1.062   5.399   7.609
   77POPC   C1A 1290   1.268   4.789   7.255
   77POPC   D2A 1291   1.426   4.570   6.894
   77POPC   C3A 1292   1.330   4.717   6.470
   77POPC   C4A 1293   1.239   4.853   6.046
   77POPC   C1B 1294   1.276   5.284   7.217
   77POPC   C2B 1295   1.120   5.075   6.851
   77POPC   C3B 1296   1.132   5.207   6.449
   77POPC   C4B 1297   1.423   5.318   6.147
   78POPC   NC3 1298   8.032   0.911   8.155
   78POPC   PO4 1299   8.018   1.558   8.175
   78POPC   GL1 1300   8.112   1.233   7.784
   78POPC   GL2 1301   8.406   1.194   7.691
   78POPC   C1A 1302   8.068   1.079   7.312
   78POPC   D2A 1303   8.315   1.071   6.904
   78POPC   C3A 1304   8.153   0.883   6.500
   78POPC   C4A 1305   7.930   0.963   6.066
   78POPC   C1B 1306   8.334   1.521   7.367
   78POPC   C2B 1307   8.039   1.523   6.997
   78POPC   C3B 1308   7.910   1.339   6.589
   78POPC   C4B 1309   8.210   1.342   6.240
   79POPC   NC3 1310   1.958   0.626   8.046
   79POPC   PO4 1311   1.913   9.978   8.056
   79POPC   GL1 1312   1.827   0.241   7.690
   79POPC   GL2 1313   1.612   0.546   7.697
   79POPC   C1A 1314   1.985   0.172   7.285
   79POPC   D2A 1315   2.208   0.195   6.917
   79POPC   C3A 1316   1.925   0.191   6.576
   79POPC   C4A 1317   2.072   0.222   6.188
   79POPC   C1B 1318   1.854   0.669   7.321
   79POPC   C2B 1319   2.117   0.695   6.931
   79POPC   C3B 1320   2.013   0.698   6.500
   79POPC   C4B 1321   1.687   0.530   6.239
   80POPC   NC3 1322   5.154   9.627   8.160
   80POPC   PO4 1323   4.621   0.089   8.055
   80POPC   GL1 1324   4.846   9.781   7.807
   80POPC   GL2 1325   5.137   9.884   7.685
   80POPC   C1A 1326   4.818   9.607   7.387
   80POPC   D2A 1327   5.017   9.687   6.998
   80POPC   C3A 1328   4.795   9.767   6.616
   80POPC   C4A 1329   4.618   9.846   6.206
   80POPC   C1B 1330   5.302   9.472   7.479
   80POPC   C2B 1331   5.288   9.266   7.060
   80POPC   C3B 1332   5.324   9.478   6.652
   80POPC   C4B 1333   5.090   9.557   6.263
   81POPC   NC3 1334   1.031   8.843   8.063
   81POPC   PO4 1335   1.520   8.415   8.011
   81POPC   GL1 1336   1.495   8.858   7.772
   81POPC   GL2 1337   1.174   8.958   7.601
   81POPC   C1A 1338   1.605   9.055   7.368
   81POPC   D2A 1339   1.354   8.851   7.042
   81POPC   C3A 1340   1.377   8.828   6.592
   81POPC   C4A 1341   1.401   9.087   6.209
   81POPC   C1B 1342   1.012   8.655   7.368
   81POPC   C2B 1343   0.878   8.596   6.971
   81POPC   C3B 1344   0.727   8.759   6.619
   81POPC   C4B 1345   0.971   8.814   6.269
   82POPC   NC3 1346   9.504   8.938   8.047
   82POPC   PO4 1347   9.959   8.466   8.132
   82POPC   GL1 1348   9.883   8.703   7.760
   82POPC   GL2 1349   9.567   8.516   7.744
   82POPC   C1A 1350   0.012   8.951   7.354
   82POPC   D2A 1351   9.956   9.212   6.953
   82POPC   C3A 1352   9.865   9.003   6.541
   82POPC   C4A 1353   9.849   8.760   6.106
   82POPC   C1B 1354   9.546   8.713   7.344
   82POPC   C2B 1355   9.672   8.731   6.924
   82POPC   C3B 1356   9.478   8.688   6.460
   82POPC   C4B 1357   9.469   9.100   6.154
   83POPC   NC3 1358   2.521   5.618   7.939
   83POPC   PO4 1359   1.922   5.780   8.354
   83POPC   GL1 1360   1.789   5.774   7.840
   83POPC   GL2 1361   2.047   5.583   7.671
   83POPC   C1A 1362   1.902   5.972   7.383
   83POPC   D2A 1363   2.264   6.037   7.049
   83POPC   C3A 1364   2.183   5.846   6.635
   83POPC   C4A 1365   1.783   5.997   6.420
   83POPC   C1B 1366   1.741   5.484   7.333
   83POPC   C2B 1367   1.680   5.585   6.879
   83POPC   C3B 1368   1.838   5.495   6.442
   83POPC   C4B 1369   2.248   5.479   6.198
   84POPC   NC3 1370   7.418   5.229   8.012
   84POPC   PO4 1371   7.498   5.851   7.896
   84POPC   GL1 1372   7.680   5.452   7.601
   84POPC   GL2 1373   7.711   5.054   7.611
   84POPC   C1A 1374   7.639   5.270   7.145
   84POPC   D2A 1375   7.673   5.388   6.671
   84POPC   C3A 1376   7.371   5.500   6.323
   84POPC   C4A 1377   7.381   5.357   5.867
   84POPC   C1B 1378   7.425   4.831   7.344
   84POPC   C2B 1379   7.349   4.684   6.935
   84POPC   C3B 1380   7.476   4.916   6.593
   84POPC   C4B 1381   7.652   5.087   6.225
   85POPC   NC3 1382   1.236   6.646   8.260
   85POPC   PO4 1383   0.704   7.089   8.183
   85POPC   GL1 1384   0.939   6.950   7.750
   85POPC   GL2 1385   1.199   6.687   7.766
   85POPC   C1A 1386   1.142   6.919   7.310
   85POPC   D2A 1387   1.203   6.635   6.931
   85POPC   C3A 1388   1.214   6.775   6.485
   85POPC   C4A 1389   1.083   6.498   6.138
   85POPC   C1B 1390   1.499   6.568   7.479
   85POPC   C2B 1391   1.621   6.403   7.112
   85POPC   C3B 1392   1.622   6.421   6.671
   85POPC   C4B 1393   1.567   6.499   6.262
   86POPC   NC3 1394   0.322   8.740   8.059
   86POPC   PO4 1395   0.385   9.346   8.042
   86POPC   GL1 1396   0.722   9.162   7.785
   86POPC   GL2 1397   0.653   8.808   7.679
   86POPC   C1A 1398   0.773   9.152   7.334
   86POPC   D2A 1399   0.460   9.230   7.037
   86POPC   C3A 1400   0.381   9.156   6.622
   86POPC   C4A 1401   0.541   9.064   6.243
   86POPC   C1B 1402   0.466   8.728   7.267
   86POPC   C2B 1403   0.198   8.753   6.891
   86POPC   C3B 1404   0.249   8.680   6.439
   86POPC   C4B 1405   0.480   8.584   6.104
   87POPC   NC3 1406   0.431   7.438   8.051
   87POPC   PO4 1407   9.898   7.034   8.097
   87POPC   GL1 1408   0.123   7.139   7.732
   87POPC   GL2 1409   0.038   7.501   7.654
   87POPC   C1A 1410   0.360   6.984   7.364
   87POPC   D2A 1411   0.182   6.865   6.960
   87POPC   C3A 1412   0.380   6.991   6.571
   87POPC   C4A 1413   0.342   7.235   6.217
   87POPC   C1B 1414   0.431   7.483   7.363
   87POPC   C2B 1415   0.489   7.357   6.917
   87POPC   C3B 1416   0.500   7.609   6.514
   87POPC   C4B 1417   0.839   7.740   6.252
   88POPC   NC3 1418   8.201   0.315   7.928
   88POPC   PO4 1419   7.643   0.656   8.122
   88POPC   GL1 1420   7.877   0.730   7.707
   88POPC   GL2 1421   8.234   0.691   7.577
   88POPC   C1A 1422   7.837   0.548   7.304
   88POPC   D2A 1423   8.110   0.572   6.938
   88POPC   C3A 1424   7.945   0.418   6.587
   88POPC   C4A 1425   7.779   0.482   6.197
   88POPC   C1B 1426   8.318   0.304   7.307
   88POPC   C2B 1427   8.237   0.024   6.944
   88POPC   C3B 1428   8.341   0.070   6.529
   88POPC   C4B 1429   8.288   0.403   6.207
   89POPC   NC3 1430   5.021   1.059   7.980
   89POPC   PO4 1431   5.430   1.571   8.138
   89POPC   GL1 1432   5.373   1.513   7.667
   89POPC   GL2 1433   5.034   1.426   7.633
   89POPC   C1A 1434   5.211   1.568   7.192
   89POPC   D2A 1435   4.824   1.466   6.899
   89POPC   C3A 1436   4.898   1.504   6.451
   89POPC   C4A 1437   5.371   1.425   6.347
   89POPC   C1B 1438   5.111   1.068   7.346
   89POPC   C2B 1439   4.895   0.960   7.007
   89POPC   C3B 1440   5.071   1.072   6.633
   89POPC   C4B 1441   5.081   1.037   6.200
   90POPC   NC3 1442   5.324   7.940   8.059
   90POPC   PO4 1443   4.895   8.452   8.210
   90POPC   GL1 1444   4.822   8.252   7.782
   90POPC   GL2 1445   5.178   8.266   7.677
   90POPC   C1A 1446   4.857   8.308   7.293
   90POPC   D2A 1447   5.173   8.385   6.946
   90POPC   C3A 1448   4.965   8.494   6.569
   90POPC   C4A 1449   4.734   8.255   6.299
   90POPC   C1B 1450   5.251   7.961   7.321
   90POPC   C2B 1451   5.022   7.748   6.992
   90POPC   C3B 1452   4.921   7.830   6.583
   90POPC   C4B 1453   5.228   8.066   6.425
   91POPC   NC3 1454   9.622   7.507   8.107
   91POPC   PO4 1455   9.233   7.076   8.029
   91POPC   GL1 1456   9.565   7.191   7.716
   91POPC   GL2 1457   9.489   7.475   7.608
   91POPC   C1A 1458   9.811   7.134   7.314
   91POPC   D2A 1459   9.644   6.944   6.914
   91POPC   C3A 1460   9.557   7.195   6.583
   91POPC   C4A 1461   9.840   7.109   6.239
   91POPC   C1B 1462   9.668   7.705   7.274
   91POPC   C2B 1463   9.919   7.648   6.923
   91POPC   C3B 1464   9.982   7.510   6.518
   91POPC   C4B 1465   9.639   7.591   6.255
   92POPC   NC3 1466   7.882   1.849   7.844
   92POPC   PO4 1467   7.610   2.441   7.941
   92POPC   GL1 1468   7.957   2.390   7.632
   92POPC   GL2 1469   8.292   2.180   7.623
   92POPC   C1A 1470   7.964   2.218   7.220
   92POPC   D2A 1471   7.721   1.971   6.941
   92POPC   C3A 1472   7.720   2.216   6.576
   92POPC   C4A 1473   7.672   2.064   6.181
   92POPC   C1B 1474   8.470   2.102   7.202
   92POPC   C2B 1475   8.232   1.978   6.832
   92POPC   C3B 1476   8.039   1.825   6.468
   92POPC   C4B 1477   8.222   2.153   6.250
   93POPC   NC3 1478   1.227   8.040   7.994
   93POPC   PO4 1479   0.702   8.487   8.068
   93POPC   GL1 1480   0.900   8.250   7.657
   93POPC   GL2 1481   0.963   7.868   7.563
   93POPC   C1A 1482   1.078   8.180   7.203
   93POPC   D2A 1483   0.915   8.076   6.813
   93POPC   C3A 1484   1.063   8.366   6.528
   93POPC   C4A 1485   1.357   8.288   6.241
   93POPC   C1B 1486   1.373   7.783   7.336
   93POPC   C2B 1487   1.466   7.823   6.891
   93POPC   C3B 1488   1.368   7.798   6.437
   93POPC   C4B 1489   1.637   7.896   6.075
   94POPC   NC3 1490   0.800   2.100   8.138
   94POPC   PO4 1491   1.410   1.794   8.180
   94POPC   GL1 1492   1.145   1.854   7.802
   94POPC   GL2 1493   1.146   2.220   7.746
   94POPC   C1A 1494   1.127   1.857   7.315
   94POPC   D2A 1495   0.992   1.731   6.859
   94POPC   C3A 1496   1.229   1.827   6.457
   94POPC   C4A 1497   1.035   1.964   6.058
   94POPC   C1B 1498   1.269   2.368   7.336
   94POPC   C2B 1499   1.173   2.222   6.911
   94POPC   C3B 1500   1.084   2.306   6.484
   94POPC   C4B 1501   1.399   2.292   6.173
   95POPC   NC3 1502   8.281   3.872   8.071
   95POPC   PO4 1503   8.063   3.223   8.056
   95POPC   GL1 1504   7.989   3.508   7.733
   95POPC   GL2 1505   8.343   3.518   7.682
   95POPC   C1A 1506   8.029   3.708   7.324
   95POPC   D2A 1507   7.828   3.618   6.939
   95POPC   C3A 1508   8.031   3.671   6.561
   95POPC   C4A 1509   7.905   3.602   6.184
   95POPC   C1B 1510   8.534   3.524   7.284
   95POPC   C2B 1511   8.369   3.512   6.904
   95POPC   C3B 1512   8.452   3.356   6.517
   95POPC   C4B 1513   8.360   3.429   6.090
   96POPC   NC3 1514   8.149   8.853   8.118
   96POPC   PO4 1515   7.865   8.261   7.855
   96POPC   GL1 1516   7.935   8.713   7.597
   96POPC   GL2 1517   8.197   9.011   7.653
   96POPC   C1A 1518   7.801   8.692   7.167
   96POPC   D2A 1519   7.902   8.369   6.859
   96POPC   C3A 1520   7.951   8.521   6.433
   96POPC   C4A 1521   7.663   8.663   6.106
   96POPC   C1B 1522   8.210   9.020   7.221
   96POPC   C2B 1523   8.218   8.793   6.852
   96POPC   C3B 1524   8.262   9.023   6.516
   96POPC   C4B 1525   8.056   8.958   6.170
   97POPC   NC3 1526   3.283   8.157   8.107
   97POPC   PO4 1527   3.403   7.557   7.934
   97POPC   GL1 1528   3.680   7.936   7.767
   97POPC   GL2 1529   3.597   8.321   7.750
   97POPC   C1A 1530   3.801   8.052   7.343
   97POPC   D2A 1531   3.645   7.929   6.971
   97POPC   C3A 1532   3.838   7.991   6.608
   97POPC   C4A 1533   3.631   8.038   6.273
   97POPC   C1B 1534   3.305   8.153   7.445
   97POPC   C2B 1535   3.180   8.127   7.027
   97POPC   C3B 1536   3.294   8.179   6.607
   97POPC   C4B 1537   3.235   8.332   6.178
   98POPC   NC3 1538   2.264   9.675   8.058
   98POPC   PO4 1539   2.912   9.986   8.098
   98POPC   GL1 1540   2.880   9.676   7.742
   98POPC   GL2 1541   2.549   9.527   7.653
   98POPC   C1A 1542   2.997   9.714   7.300
   98POPC   D2A 1543   2.777   9.603   6.933
   98POPC   C3A 1544   2.798   9.808   6.553
   98POPC   C4A 1545   2.457   9.924   6.305
   98POPC   C1B 1546   2.729   9.258   7.324
   98POPC   C2B 1547   2.937   9.113   6.925
   98POPC   C3B 1548   2.939   9.316   6.533
   98POPC   C4B 1549   2.625   9.429   6.227
   99POPC   NC3 1550   3.237   9.629   8.138
   99POPC   PO4 1551   3.919   9.377   8.052
   99POPC   GL1 1552   3.727   9.753   7.819
   99POPC   GL2 1553   3.395   9.662   7.660
   99POPC   C1A 1554   3.654   0.022   7.401
   99POPC   D2A 1555   3.451   9.925   6.991
   99POPC   C3A 1556   3.693   0.008   6.596
   99POPC   C4A 1557   3.573   0.187   6.202
   99POPC   C1B 1558   3.610   9.478   7.323
   99POPC   C2B 1559   3.562   9.403   6.897
   99POPC   C3B 1560   3.374   9.604   6.555
   99POPC   C4B 1561   3.574   9.696   6.173
  100POPC   NC3 1562   8.859   4.426   8.043
  100POPC   PO4 1563   9.478   4.557   8.284
  100POPC   GL1 1564   9.290   4.233   7.844
  100POPC   GL2 1565   8.949   4.240   7.595
  100POPC   C1A 1566   9.364   4.200   7.343
  100POPC   D2A 1567   9.308   4.107   6.895
  100POPC   C3A 1568   9.032   4.278   6.548
  100POPC   C4A 1569   9.112   4.381   6.090
  100POPC   C1B 1570   8.653   4.037   7.306
  100POPC   C2B 1571   8.736   3.867   6.903
  100POPC   C3B 1572   8.531   3.935   6.530
  100POPC   C4B 1573   8.695   4.098   6.141
  101POPC   NC3 1574   7.541   1.537   8.148
  101POPC   PO4 1575   7.126   2.009   8.246
  101POPC   GL1 1576   7.310   1.898   7.817
  101POPC   GL2 1577   7.250   2.222   7.664
  101POPC   C1A 1578   7.287   1.836   7.321
  101POPC   D2A 1579   7.170   1.733   6.865
  101POPC   C3A 1580   7.492   1.713   6.524
  101POPC   C4A 1581   7.298   1.702   6.108
  101POPC   C1B 1582   7.469   2.331   7.287
  101POPC   C2B 1583   7.290   2.239   6.892
  101POPC   C3B 1584   7.210   2.149   6.477
  101POPC   C4B 1585   7.370   2.479   6.249
  102POPC   NC3 1586   1.234   0.601   8.068
  102POPC   PO4 1587   1.034   9.987   7.978
  102POPC   GL1 1588   1.298   0.160   7.722
  102POPC   GL2 1589   1.081   0.442   7.614
  102POPC   C1A 1590   1.457   0.287   7.297
  102POPC   D2A 1591   1.189   0.412   6.971
  102POPC   C3A 1592   1.365   0.289   6.576
  102POPC   C4A 1593   1.337   0.151   6.164
  102POPC   C1B 1594   0.865   0.756   7.363
  102POPC   C2B 1595   0.753   0.726   6.937
  102POPC   C3B 1596   0.997   0.702   6.579
  102POPC   C4B 1597   0.925   0.765   6.153
  103POPC   NC3 1598   1.798   2.078   8.184
  103POPC   PO4 1599   2.311   1.664   8.094
  103POPC   GL1 1600   2.295   1.859   7.678
  103POPC   GL2 1601   2.128   2.177   7.714
  103POPC   C1A 1602   2.307   2.052   7.254
  103POPC   D2A 1603   2.087   1.970   6.873
  103POPC   C3A 1604   2.303   2.096   6.527
  103POPC   C4A 1605   2.433   1.930   6.159
  103POPC   C1B 1606   1.792   2.115   7.415
  103POPC   C2B 1607   1.680   2.295   7.018
  103POPC   C3B 1608   1.634   2.171   6.601
  103POPC   C4B 1609   1.884   2.075   6.225
  104POPC   NC3 1610   7.769   8.056   8.266
  104POPC   PO4 1611   7.192   8.473   8.155
  104POPC   GL1 1612   7.281   8.190   7.776
  104POPC   GL2 1613   7.489   8.354   7.491
  104POPC   C1A 1614   7.310   7.886   7.420
  104POPC   D2A 1615   7.488   8.079   7.030
  104POPC   C3A 1616   7.429   7.920   6.581
  104POPC   C4A 1617   7.239   7.839   6.198
  104POPC   C1B 1618   7.050   8.291   7.297
  104POPC   C2B 1619   7.051   8.225   6.844
  104POPC   C3B 1620   7.428   8.416   6.588
  104POPC   C4B 1621   7.142   8.337   6.283
  105POPC   NC3 1622   3.075   7.188   8.015
  105POPC   PO4 1623   2.918   7.878   8.117
  105POPC   GL1 1624   2.752   7.594   7.786
  105POPC   GL2 1625   3.016   7.473   7.591
  105POPC   C1A 1626   2.519   7.566   7.376
  105POPC   D2A 1627   2.374   7.522   6.955
  105POPC   C3A 1628   2.662   7.556   6.628
  105POPC   C4A 1629   2.554   7.510   6.204
  105POPC   C1B 1630   2.769   7.133   7.384
  105POPC   C2B 1631   2.648   7.072   6.936
  105POPC   C3B 1632   2.794   7.094   6.501
  105POPC   C4B 1633   3.053   7.199   6.191
  106POPC   NC3 1634   3.169   5.446   8.072
  106POPC   PO4 1635   2.846   5.935   7.999
  106POPC   GL1 1636   2.686   5.954   7.603
  106POPC   GL2 1637   2.455   6.187   7.528
  106POPC   C1A 1638   2.660   5.746   7.200
  106POPC   D2A 1639   2.806   5.533   6.824
  106POPC   C3A 1640   2.704   5.599   6.399
  106POPC   C4A 1641   2.992   5.552   6.006
  106POPC   C1B 1642   2.747   6.250   7.206
  106POPC   C2B 1643   2.729   6.092   6.793
  106POPC   C3B 1644   2.643   6.306   6.422
  106POPC   C4B 1645   2.757   6.031   6.173
  107POPC   NC3 1646   0.579   4.463   8.159
  107POPC   PO4 1647   0.197   3.887   8.100
  107POPC   GL1 1648   0.462   4.092   7.768
  107POPC   GL2 1649   0.237   4.210   7.565
  107POPC   C1A 1650   0.636   4.051   7.303
  107POPC   D2A 1651   0.786   3.928   6.909
  107POPC   C3A 1652   0.570   4.102   6.563
  107POPC   C4A 1653   0.419   3.956   6.199
  107POPC   C1B 1654   0.371   4.493   7.268
  107POPC   C2B 1655   0.456   4.468   6.883
  107POPC   C3B 1656   0.286   4.601   6.517
  107POPC   C4B 1657   9.983   4.575   6.171
  108POPC   NC3 1658   7.126   7.306   8.110
  108POPC   PO4 1659   7.722   7.537   8.166
  108POPC   GL1 1660   7.546   7.576   7.757
  108POPC   GL2 1661   7.477   7.256   7.672
  108POPC   C1A 1662   7.681   7.567   7.299
  108POPC   D2A 1663   7.401   7.552   6.913
  108POPC   C3A 1664   7.517   7.409   6.469
  108POPC   C4A 1665   7.639   7.519   6.028
  108POPC   C1B 1666   7.371   7.172   7.250
  108POPC   C2B 1667   7.346   7.038   6.824
  108POPC   C3B 1668   7.102   7.007   6.451
  108POPC   C4B 1669   7.151   7.197   6.095
  109POPC   NC3 1670   6.578   9.656   8.229
  109POPC   PO4 1671   6.212   9.849   7.742
  109POPC   GL1 1672   6.578   9.879   7.516
  109POPC   GL2 1673   6.672   9.567   7.676
  109POPC   C1A 1674   6.512   9.936   7.086
  109POPC   D2A 1675   6.601   0.111   6.731
  109POPC   C3A 1676   6.422   9.886   6.438
  109POPC   C4A 1677   6.314   9.841   6.017
  109POPC   C1B 1678   6.616   9.468   7.218
  109POPC   C2B 1679   6.785   9.605   6.806
  109POPC   C3B 1680   6.763   9.530   6.378
  109POPC   C4B 1681   6.493   9.382   6.131
  110POPC   NC3 1682   3.842   3.021   7.973
  110POPC   PO4 1683   4.403   2.758   8.105
  110POPC   GL1 1684   4.358   2.572   7.670
  110POPC   GL2 1685   4.022   2.570   7.648
  110POPC   C1A 1686   4.376   2.539   7.168
  110POPC   D2A 1687   4.517   2.423   6.716
  110POPC   C3A 1688   4.524   2.697   6.311
  110POPC   C4A 1689   4.845   2.891   5.998
  110POPC   C1B 1690   3.886   2.680   7.221
  110POPC   C2B 1691   4.012   2.664   6.756
  110POPC   C3B 1692   4.056   2.931   6.364
  110POPC   C4B 1693   4.063   3.397   6.225
  111POPC   NC3 1694   1.517   9.705   8.030
  111POPC   PO4 1695   2.140   9.232   8.046
  111POPC   GL1 1696   1.882   9.469   7.735
  111POPC   GL2 1697   2.069   9.763   7.597
  111POPC   C1A 1698   1.711   9.568   7.298
  111POPC   D2A 1699   1.775   9.844   6.921
  111POPC   C3A 1700   1.542   9.805   6.491
  111POPC   C4A 1701   1.738   9.862   6.037
  111POPC   C1B 1702   2.354   9.769   7.225
  111POPC   C2B 1703   2.294   9.715   6.777
  111POPC   C3B 1704   2.030   9.695   6.426
  111POPC   C4B 1705   2.160   9.528   6.030
  112POPC   NC3 1706   9.485   8.203   8.161
  112POPC   PO4 1707   0.013   7.774   8.105
  112POPC   GL1 1708   9.911   8.092   7.782
  112POPC   GL2 1709   9.596   7.950   7.741
  112POPC   C1A 1710   9.957   8.371   7.390
  112POPC   D2A 1711   9.893   8.179   6.991
  112POPC   C3A 1712   9.877   8.402   6.616
  112POPC   C4A 1713   9.852   8.252   6.217
  112POPC   C1B 1714   9.476   8.172   7.384
  112POPC   C2B 1715   9.360   8.102   6.980
  112POPC   C3B 1716   9.549   8.002   6.587
  112POPC   C4B 1717   9.356   8.124   6.188
  113POPC   NC3 1718   0.110   9.717   8.053
  113POPC   PO4 1719   0.653   0.036   8.353
  113POPC   GL1 1720   0.538   9.929   7.809
  113POPC   GL2 1721   0.499   9.619   7.638
  113POPC   C1A 1722   0.761   9.987   7.386
  113POPC   D2A 1723   0.812   9.641   7.092
  113POPC   C3A 1724   0.641   9.596   6.674
  113POPC   C4A 1725   0.481   9.594   6.252
  113POPC   C1B 1726   0.180   9.532   7.342
  113POPC   C2B 1727   0.212   9.687   6.935
  113POPC   C3B 1728   0.045   9.539   6.552
  113POPC   C4B 1729   0.098   9.255   6.188
  114POPC   NC3 1730   3.646   8.964   8.111
  114POPC   PO4 1731   3.071   8.555   8.027
  114POPC   GL1 1732   3.335   8.763   7.701
  114POPC   GL2 1733   3.438   9.134   7.685
  114POPC   C1A 1734   3.513   8.595   7.303
  114POPC   D2A 1735   3.636   8.427   6.897
  114POPC   C3A 1736   3.593   8.606   6.461
  114POPC   C4A 1737   3.438   8.795   6.059
  114POPC   C1B 1738   3.309   9.065   7.268
  114POPC   C2B 1739   3.435   8.908   6.867
  114POPC   C3B 1740   3.402   9.092   6.476
  114POPC   C4B 1741   3.721   9.219   6.225
  115POPC   NC3 1742   3.388   2.693   8.321
  115POPC   PO4 1743   3.454   3.293   8.034
  115POPC   GL1 1744   3.271   2.897   7.776
  115POPC   GL2 1745   3.537   2.750   7.598
  115POPC   C1A 1746   3.103   2.666   7.339
  115POPC   D2A 1747   2.935   2.568   6.888
  115POPC   C3A 1748   3.073   2.608   6.424
  115POPC   C4A 1749   3.116   2.616   5.936
  115POPC   C1B 1750   3.452   2.979   7.165
  115POPC   C2B 1751   3.380   2.950   6.683
  115POPC   C3B 1752   3.585   3.152   6.300
  115POPC   C4B 1753   3.849   3.055   5.908
  116POPC   NC3 1754   3.206   3.683   8.035
  116POPC   PO4 1755   2.677   4.121   8.020
  116POPC   GL1 1756   2.784   3.715   7.732
  116POPC   GL2 1757   2.791   3.324   7.773
  116POPC   C1A 1758   2.959   3.486   7.329
  116POPC   D2A 1759   3.024   3.260   6.924
  116POPC   C3A 1760   2.935   3.503   6.499
  116POPC   C4A 1761   3.136   3.595   6.066
  116POPC   C1B 1762   2.454   3.446   7.447
  116POPC   C2B 1763   2.543   3.449   7.001
  116POPC   C3B 1764   2.417   3.477   6.573
  116POPC   C4B 1765   2.543   3.267   6.201
  117POPC   NC3 1766   5.681   1.986   8.097
  117POPC   PO4 1767   6.243   1.561   8.102
  117POPC   GL1 1768   5.890   1.633   7.784
  117POPC   GL2 1769   6.001   1.980   7.688
  117POPC   C1A 1770   5.737   1.703   7.330
  117POPC   D2A 1771   5.894   1.855   6.908
  117POPC   C3A 1772   5.695   1.790   6.522
  117POPC   C4A 1773   5.942   1.796   6.166
  117POPC   C1B 1774   5.915   2.196   7.295
  117POPC   C2B 1775   5.846   2.366   6.872
  117POPC   C3B 1776   5.909   2.268   6.463
  117POPC   C4B 1777   5.603   2.205   6.143
  118POPC   NC3 1778   2.679   2.846   8.184
  118POPC   PO4 1779   2.121   2.441   8.146
  118POPC   GL1 1780   2.508   2.515   7.797
  118POPC   GL2 1781   2.768   2.764   7.707
  118POPC   C1A 1782   2.581   2.491   7.315
  118POPC   D2A 1783   2.348   2.451   6.906
  118POPC   C3A 1784   2.556   2.543   6.528
  118POPC   C4A 1785   2.662   2.768   6.144
  118POPC   C1B 1786   2.703   3.008   7.345
  118POPC   C2B 1787   2.565   2.927   6.945
  118POPC   C3B 1788   2.770   3.006   6.577
  118POPC   C4B 1789   3.067   3.082   6.256
  119POPC   NC3 1790   2.757   1.145   8.067
  119POPC   PO4 1791   3.114   1.689   7.973
  119POPC   GL1 1792   2.929   1.387   7.662
  119POPC   GL2 1793   2.521   1.371   7.682
  119POPC   C1A 1794   2.993   1.333   7.227
  119POPC   D2A 1795   3.011   1.601   6.876
  119POPC   C3A 1796   3.001   1.328   6.525
  119POPC   C4A 1797   2.914   0.939   6.340
  119POPC   C1B 1798   2.586   1.060   7.354
  119POPC   C2B 1799   2.647   1.150   6.890
  119POPC   C3B 1800   2.465   1.169   6.481
  119POPC   C4B 1801   2.435   1.373   6.087
  120POPC   NC3 1802   1.490   5.645   8.228
  120POPC   PO4 1803   1.181   6.194   8.148
  120POPC   GL1 1804   1.255   6.173   7.715
  120POPC   GL2 1805   1.344   5.843   7.592
  120POPC   C1A 1806   1.153   6.242   7.284
  120POPC   D2A 1807   1.340   6.048   6.898
  120POPC   C3A 1808   1.206   6.176   6.501
  120POPC   C4A 1809   1.390   6.057   6.095
  120POPC   C1B 1810   1.078   5.748   7.226
  120POPC   C2B 1811   1.163   5.583   6.819
  120POPC   C3B 1812   1.363   5.690   6.479
  120POPC   C4B 1813   1.023   5.738   6.258
  121POPC   NC3 1814   4.575   7.322   8.244
  121POPC   PO4 1815   5.143   7.499   8.037
  121POPC   GL1 1816   4.708   7.621   7.771
  121POPC   GL2 1817   4.368   7.422   7.706
  121POPC   C1A 1818   4.605   7.643   7.282
  121POPC   D2A 1819   4.484   7.419   6.872
  121POPC   C3A 1820   4.609   7.456   6.412
  121POPC   C4A 1821   4.718   7.370   5.960
  121POPC   C1B 1822   4.105   7.646   7.394
  121POPC   C2B 1823   4.133   7.773   6.968
  121POPC   C3B 1824   4.080   7.540   6.574
  121POPC   C4B 1825   3.933   7.165   6.403
  122POPC   NC3 1826   1.633   6.301   8.053
  122POPC   PO4 1827   2.218   5.971   7.974
  122POPC   GL1 1828   2.034   6.359   7.745
  122POPC   GL2 1829   2.023   6.762   7.704
  122POPC   C1A 1830   2.073   6.443   7.315
  122POPC   D2A 1831   2.043   6.586   6.910
  122POPC   C3A 1832   2.135   6.347   6.563
  122POPC   C4A 1833   2.224   6.485   6.164
  122POPC   C1B 1834   1.817   6.892   7.278
  122POPC   C2B 1835   1.658   6.907   6.832
  122POPC   C3B 1836   1.911   6.817   6.446
  122POPC   C4B 1837   1.863   6.768   5.964
  123POPC   NC3 1838   4.392   8.298   8.124
  123POPC   PO4 1839   4.249   7.620   8.151
  123POPC   GL1 1840   4.251   7.941   7.772
  123POPC   GL2 1841   4.095   8.290   7.714
  123POPC   C1A 1842   4.372   8.094   7.330
  123POPC   D2A 1843   4.587   8.054   6.903
  123POPC   C3A 1844   4.390   7.922   6.489
  123POPC   C4A 1845   4.553   7.863   6.048
  123POPC   C1B 1846   4.037   8.492   7.299
  123POPC   C2B 1847   4.129   8.290   6.923
  123POPC   C3B 1848   4.298   8.412   6.554
  123POPC   C4B 1849   4.012   8.365   6.310
  124POPC   NC3 1850   0.728   0.331   8.009
  124POPC   PO4 1851   0.047   0.160   8.216
  124POPC   GL1 1852   0.228   0.319   7.770
  124POPC   GL2 1853   0.438   0.638   7.703
  124POPC   C1A 1854   0.257   0.048   7.364
  124POPC   D2A 1855   0.509   0.128   6.957
  124POPC   C3A 1856   0.358   0.014   6.548
  124POPC   C4A 1857   0.023   9.958   6.272
  124POPC   C1B 1858   0.423   0.520   7.289
  124POPC   C2B 1859   0.231   0.619   6.899
  124POPC   C3B 1860   0.437   0.682   6.500
  124POPC   C4B 1861   0.699   0.351   6.362
  125POPC   NC3 1862   5.915   1.228   8.110
  125POPC   PO4 1863   5.374   0.747   8.059
  125POPC   GL1 1864   5.538   1.034   7.751
  125POPC   GL2 1865   5.880   0.974   7.669
  125POPC   C1A 1866   5.606   1.207   7.313
  125POPC   D2A 1867   5.480   1.273   6.885
  125POPC   C3A 1868   5.573   0.999   6.562
  125POPC   C4A 1869   5.530   0.841   6.154
  125POPC   C1B 1870   6.102   1.315   7.436
  125POPC   C2B 1871   6.035   1.370   6.993
  125POPC   C3B 1872   6.119   1.483   6.562
  125POPC   C4B 1873   5.855   1.289   6.237
  126POPC   NC3 1874   4.278   0.799   8.099
  126POPC   PO4 1875   3.845   0.248   8.343
  126POPC   GL1 1876   4.128   0.241   7.843
  126POPC   GL2 1877   4.317   0.525   7.662
  126POPC   C1A 1878   4.191   0.188   7.332
  126POPC   D2A 1879   3.948   0.286   6.972
  126POPC   C3A 1880   4.175   0.492   6.653
  126POPC   C4A 1881   4.092   0.278   6.294
  126POPC   C1B 1882   4.515   0.614   7.236
  126POPC   C2B 1883   4.694   0.523   6.847
  126POPC   C3B 1884   4.607   0.238   6.556
  126POPC   C4B 1885   4.638   0.400   6.199
  127POPC   NC3 1886   9.728   4.919   8.039
  127POPC   PO4 1887   0.362   4.844   8.341
  127POPC   GL1 1888   0.188   5.073   7.872
  127POPC   GL2 1889   9.916   5.340   7.784
  127POPC   C1A 1890   9.971   4.912   7.429
  127POPC   D2A 1891   0.082   4.821   6.987
  127POPC   C3A 1892   9.819   4.819   6.635
  127POPC   C4A 1893   9.702   5.070   6.312
  127POPC   C1B 1894   9.600   5.248   7.437
  127POPC   C2B 1895   9.611   5.084   7.030
  127POPC   C3B 1896   9.347   5.104   6.694
  127POPC   C4B 1897   9.209   5.311   6.359
  128POPC   NC3 1898   9.625   0.007   8.407
  128POPC   PO4 1899   9.388   9.424   8.064
  128POPC   GL1 1900   9.676   9.616   7.785
  128POPC   GL2 1901   9.926   9.332   7.747
  128POPC   C1A 1902   9.759   9.839   7.383
  128POPC   D2A 1903   9.712   9.678   6.969
  128POPC   C3A 1904   9.633   9.922   6.607
  128POPC   C4A 1905   9.311   9.795   6.332
  128POPC   C1B 1906   9.627   9.284   7.391
  128POPC   C2B 1907   9.452   9.212   6.987
  128POPC   C3B 1908   9.528   9.396   6.573
  128POPC   C4B 1909   9.705   9.557   6.163
  129POPC   NC3 1910   2.488   7.996   7.963
  129POPC   PO4 1911   2.273   8.565   8.262
  129POPC   GL1 1912   2.583   8.494   7.757
  129POPC   GL2 1913   2.859   8.229   7.712
  129POPC   C1A 1914   2.597   8.362   7.265
  129POPC   D2A 1915   2.310   8.334   6.846
  129POPC   C3A 1916   2.429   8.447   6.396
  129POPC   C4A 1917   2.767   8.517   6.130
  129POPC   C1B 1918   2.855   7.930   7.387
  129POPC   C2B 1919   2.695   7.942   6.976
  129POPC   C3B 1920   2.792   8.206   6.656
  129POPC   C4B 1921   2.901   7.959   6.317
  130POPC   NC3 1922   9.034   9.798   7.853
  130POPC   PO4 1923   8.533   9.333   8.075
  130POPC   GL1 1924   8.791   9.305   7.698
  130POPC   GL2 1925   9.154   9.360   7.629
  130POPC   C1A 1926   8.760   9.373   7.278
  130POPC   D2A 1927   8.980   9.397   6.905
  130POPC   C3A 1928   8.702   9.287   6.583
  130POPC   C4A 1929   8.450   9.567   6.372
  130POPC   C1B 1930   9.277   9.643   7.264
  130POPC   C2B 1931   9.187   9.904   6.893
  130POPC   C3B 1932   8.869   9.809   6.578
  130POPC   C4B 1933   8.911   9.535   6.168
  131POPC   NC3 1934   8.728   2.812   8.114
  131POPC   PO4 1935   9.259   2.318   7.894
  131POPC   GL1 1936   9.089   2.515   7.540
  131POPC   GL2 1937   8.884   2.792   7.637
  131POPC   C1A 1938   8.827   2.592   7.190
  131POPC   D2A 1939   8.986   2.841   6.883
  131POPC   C3A 1940   9.063   2.621   6.524
  131POPC   C4A 1941   9.357   2.426   6.270
  131POPC   C1B 1942   8.594   3.019   7.355
  131POPC   C2B 1943   8.496   3.009   6.936
  131POPC   C3B 1944   8.606   2.874   6.539
  131POPC   C4B 1945   8.578   2.491   6.357
  132POPC   NC3 1946   2.674   8.768   8.155
  132POPC   PO4 1947   3.200   9.178   8.152
  132POPC   GL1 1948   2.913   9.070   7.773
  132POPC   GL2 1949   2.527   9.024   7.741
  132POPC   C1A 1950   2.900   8.779   7.398
  132POPC   D2A 1951   3.063   8.600   7.008
  132POPC   C3A 1952   3.072   8.688   6.543
  132POPC   C4A 1953   2.985   8.983   6.166
  132POPC   C1B 1954   2.398   8.827   7.336
  132POPC   C2B 1955   2.576   8.751   6.928
  132POPC   C3B 1956   2.616   8.911   6.533
  132POPC   C4B 1957   2.435   8.959   6.143
  133POPC   NC3 1958   2.864   0.452   8.118
  133POPC   PO4 1959   2.354   0.884   8.046
  133POPC   GL1 1960   2.448   0.590   7.756
  133POPC   GL2 1961   2.816   0.636   7.623
  133POPC   C1A 1962   2.394   0.549   7.332
  133POPC   D2A 1963   2.741   0.668   7.065
  133POPC   C3A 1964   2.578   0.681   6.672
  133POPC   C4A 1965   2.472   0.698   6.262
  133POPC   C1B 1966   2.800   0.231   7.343
  133POPC   C2B 1967   2.727   0.193   6.867
  133POPC   C3B 1968   2.785   0.303   6.388
  133POPC   C4B 1969   3.024   0.164   5.996
  134POPC   NC3 1970   5.789   3.096   8.225
  134POPC   PO4 1971   5.781   2.446   8.034
  134POPC   GL1 1972   5.764   2.830   7.757
  134POPC   GL2 1973   5.999   2.630   7.535
  134POPC   C1A 1974   5.849   3.076   7.370
  134POPC   D2A 1975   6.026   2.805   7.057
  134POPC   C3A 1976   6.168   2.942   6.705
  134POPC   C4A 1977   5.899   3.016   6.372
  134POPC   C1B 1978   5.609   2.618   7.276
  134POPC   C2B 1979   5.552   2.797   6.839
  134POPC   C3B 1980   5.546   2.636   6.419
  134POPC   C4B 1981   5.270   2.591   6.044
  135POPC   NC3 1982   8.559   5.379   8.011
  135POPC   PO4 1983   7.883   5.278   8.046
  135POPC   GL1 1984   8.181   5.210   7.715
  135POPC   GL2 1985   8.257   4.858   7.631
  135POPC   C1A 1986   8.145   5.217   7.276
  135POPC   D2A 1987   8.024   5.057   6.867
  135POPC   C3A 1988   8.303   4.924   6.553
  135POPC   C4A 1989   8.149   5.034   6.188
  135POPC   C1B 1990   8.005   4.728   7.295
  135POPC   C2B 1991   8.045   4.546   6.874
  135POPC   C3B 1992   7.886   4.655   6.432
  135POPC   C4B 1993   7.825   4.700   5.952
  136POPC   NC3 1994   6.801   8.247   8.010
  136POPC   PO4 1995   6.733   7.594   8.029
  136POPC   GL1 1996   6.813   7.880   7.628
  136POPC   GL2 1997   6.575   8.188   7.564
  136POPC   C1A 1998   6.707   7.920   7.167
  136POPC   D2A 1999   6.611   7.698   6.806
  136POPC   C3A 2000   6.761   7.936   6.475
  136POPC   C4A 2001   6.456   7.962   6.187
  136POPC   C1B 2002   6.234   8.184   7.241
  136POPC   C2B 2003   6.103   8.066   6.823
  136POPC   C3B 2004   6.164   8.286   6.451
  136POPC   C4B 2005   6.619   8.424   6.431
  137POPC   NC3 2006   8.862   0.460   8.019
  137POPC   PO4 2007   9.410   0.011   8.005
  137POPC   GL1 2008   9.266   0.320   7.691
  137POPC   GL2 2009   8.944   0.302   7.556
  137POPC   C1A 2010   9.349   0.309   7.237
  137POPC   D2A 2011   9.118   0.452   6.867
  137POPC   C3A 2012   9.184   0.256   6.478
  137POPC   C4A 2013   9.224   0.169   6.021
  137POPC   C1B 2014   8.806   0.163   7.177
  137POPC   C2B 2015   8.596   0.398   6.872
  137POPC   C3B 2016   8.711   0.424   6.484
  137POPC   C4B 2017   8.795   0.487   6.071
  138POPC   NC3 2018   5.554   7.312   8.039
  138POPC   PO4 2019   6.084   7.192   8.317
  138POPC   GL1 2020   5.945   7.343   7.760
  138POPC   GL2 2021   6.035   7.662   7.658
  138POPC   C1A 2022   6.099   7.359   7.277
  138POPC   D2A 2023   5.959   7.574   6.900
  138POPC   C3A 2024   5.875   7.276   6.560
  138POPC   C4A 2025   6.148   7.114   6.213
  138POPC   C1B 2026   5.625   7.522   7.380
  138POPC   C2B 2027   5.463   7.442   6.915
  138POPC   C3B 2028   5.413   7.539   6.434
  138POPC   C4B 2029   5.377   7.367   5.974
  139POPC   NC3 2030   0.357   3.509   8.358
  139POPC   PO4 2031   0.936   3.691   8.057
  139POPC   GL1 2032   0.812   3.456   7.717
  139POPC   GL2 2033   0.562   3.632   7.562
  139POPC   C1A 2034   0.724   3.202   7.364
  139POPC   D2A 2035   0.539   3.475   7.053
  139POPC   C3A 2036   0.759   3.464   6.684
  139POPC   C4A 2037   0.660   3.530   6.287
  139POPC   C1B 2038   0.200   3.782   7.304
  139POPC   C2B 2039   0.258   3.980   6.943
  139POPC   C3B 2040   0.264   3.689   6.625
  139POPC   C4B 2041   0.166   3.446   6.289
  140POPC   NC3 2042   8.725   8.315   8.128
  140POPC   PO4 2043   9.222   7.790   8.124
  140POPC   GL1 2044   9.055   7.886   7.729
  140POPC   GL2 2045   9.125   8.231   7.759
  140POPC   C1A 2046   8.795   7.998   7.359
  140POPC   D2A 2047   8.882   7.866   6.942
  140POPC   C3A 2048   8.717   7.929   6.547
  140POPC   C4A 2049   8.844   7.967   6.118
  140POPC   C1B 2050   9.042   8.472   7.395
  140POPC   C2B 2051   8.836   8.395   7.003
  140POPC   C3B 2052   9.045   8.319   6.615
  140POPC   C4B 2053   8.928   8.449   6.223
  141POPC   NC3 2054   6.857   3.402   7.997
  141POPC   PO4 2055   6.207   3.145   8.060
  141POPC   GL1 2056   6.298   3.058   7.635
  141POPC   GL2 2057   6.500   3.353   7.627
  141POPC   C1A 2058   6.333   3.172   7.179
  141POPC   D2A 2059   6.491   3.355   6.791
  141POPC   C3A 2060   6.302   3.334   6.391
  141POPC   C4A 2061   6.274   3.088   6.003
  141POPC   C1B 2062   6.643   3.578   7.248
  141POPC   C2B 2063   6.799   3.748   6.843
  141POPC   C3B 2064   6.653   3.752   6.384
  141POPC   C4B 2065   6.666   3.971   5.949
  142POPC   NC3 2066   1.398   3.816   8.186
  142POPC   PO4 2067   1.470   3.131   8.107
  142POPC   GL1 2068   1.350   3.363   7.723
  142POPC   GL2 2069   1.300   3.727   7.668
  142POPC   C1A 2070   1.241   3.176   7.333
  142POPC   D2A 2071   1.045   3.132   6.947
  142POPC   C3A 2072   1.250   3.188   6.574
  142POPC   C4A 2073   1.013   3.181   6.226
  142POPC   C1B 2074   1.033   3.642   7.287
  142POPC   C2B 2075   1.237   3.613   6.877
  142POPC   C3B 2076   1.154   3.693   6.444
  142POPC   C4B 2077   0.917   3.970   6.232
  143POPC   NC3 2078   8.690   1.314   8.092
  143POPC   PO4 2079   8.447   0.720   8.033
  143POPC   GL1 2080   8.727   0.812   7.668
  143POPC   GL2 2081   9.037   0.948   7.748
  143POPC   C1A 2082   8.773   1.186   7.346
  143POPC   D2A 2083   8.713   1.490   6.991
  143POPC   C3A 2084   8.641   1.316   6.556
  143POPC   C4A 2085   8.694   1.315   6.090
  143POPC   C1B 2086   9.058   0.750   7.300
  143POPC   C2B 2087   8.834   0.882   6.899
  143POPC   C3B 2088   8.895   0.890   6.440
  143POPC   C4B 2089   9.178   1.155   6.248
  144POPC   NC3 2090   1.939   3.850   3.826
  144POPC   PO4 2091   1.962   3.124   3.971
  144POPC   GL1 2092   2.028   3.478   4.234
  144POPC   GL2 2093   1.681   3.605   4.251
  144POPC   C1A 2094   2.270   3.490   4.630
  144POPC   D2A 2095   2.422   3.589   5.041
  144POPC   C3A 2096   2.336   3.305   5.362
  144POPC   C4A 2097   2.251   3.386   5.809
  144POPC   C1B 2098   1.812   3.695   4.705
  144POPC   C2B 2099   1.927   3.419   5.053
  144POPC   C3B 2100   1.873   3.505   5.485
  144POPC   C4B 2101   1.816   3.700   5.896
  145POPC   NC3 2102   2.541   2.100   4.055
  145POPC   PO4 2103   2.574   1.516   3.761
  145POPC   GL1 2104   2.430   1.574   4.193
  145POPC   GL2 2105   2.749   1.747   4.336
  145POPC   C1A 2106   2.364   1.730   4.637
  145POPC   D2A 2107   2.698   1.659   4.941
  145POPC   C3A 2108   2.606   1.543   5.349
  145POPC   C4A 2109   2.502   1.712   5.718
  145POPC   C1B 2110   2.913   2.031   4.648
  145POPC   C2B 2111   3.051   2.054   5.071
  145POPC   C3B 2112   2.860   1.982   5.449
  145POPC   C4B 2113   3.029   1.643   5.673
  146POPC   NC3 2114   7.327   6.981   3.863
  146POPC   PO4 2115   7.677   6.576   4.147
  146POPC   GL1 2116   7.433   6.722   4.418
  146POPC   GL2 2117   7.087   6.887   4.323
  146POPC   C1A 2118   7.429   6.639   4.853
  146POPC   D2A 2119   7.267   6.823   5.205
  146POPC   C3A 2120   7.443   6.657   5.561
  146POPC   C4A 2121   7.316   6.700   5.989
  146POPC   C1B 2122   7.020   6.494   4.590
  146POPC   C2B 2123   7.012   6.393   5.061
  146POPC   C3B 2124   6.978   6.443   5.540
  146POPC   C4B 2125   7.070   6.212   5.935
  147POPC   NC3 2126   5.663   9.222   4.075
  147POPC   PO4 2127   5.416   8.612   3.993
  147POPC   GL1 2128   5.695   8.740   4.324
  147POPC   GL2 2129   5.998   8.876   4.454
  147POPC   C1A 2130   5.611   8.850   4.755
  147POPC   D2A 2131   5.834   9.055   5.063
  147POPC   C3A 2132   5.726   8.787   5.405
  147POPC   C4A 2133   5.544   8.885   5.804
  147POPC   C1B 2134   6.072   8.579   4.750
  147POPC   C2B 2135   6.194   8.688   5.108
  147POPC   C3B 2136   6.240   8.674   5.498
  147POPC   C4B 2137   6.007   8.723   5.829
  148POPC   NC3 2138   0.968   5.123   3.873
  148POPC   PO4 2139   1.578   5.329   4.012
  148POPC   GL1 2140   1.162   5.323   4.301
  148POPC   GL2 2141   1.223   4.995   4.427
  148POPC   C1A 2142   0.903   5.241   4.739
  148POPC   D2A 2143   0.970   5.023   5.161
  148POPC   C3A 2144   1.048   5.113   5.603
  148POPC   C4A 2145   0.924   5.312   5.995
  148POPC   C1B 2146   1.379   5.113   4.846
  148POPC   C2B 2147   1.474   5.027   5.277
  148POPC   C3B 2148   1.568   5.068   5.707
  148POPC   C4B 2149   1.879   5.215   5.991
  149POPC   NC3 2150   6.531   8.103   3.937
  149POPC   PO4 2151   6.141   8.587   4.071
  149POPC   GL1 2152   6.310   8.284   4.396
  149POPC   GL2 2153   6.439   7.921   4.409
  149POPC   C1A 2154   6.478   8.228   4.819
  149POPC   D2A 2155   6.283   8.205   5.225
  149POPC   C3A 2156   6.493   8.241   5.588
  149POPC   C4A 2157   6.336   8.373   5.949
  149POPC   C1B 2158   6.777   7.833   4.767
  149POPC   C2B 2159   6.776   8.022   5.179
  149POPC   C3B 2160   6.824   7.865   5.597
  149POPC   C4B 2161   6.846   8.119   5.950
  150POPC   NC3 2162   9.000   2.468   3.963
  150POPC   PO4 2163   8.934   3.097   3.937
  150POPC   GL1 2164   9.008   2.991   4.351
  150POPC   GL2 2165   9.097   2.643   4.425
  150POPC   C1A 2166   8.788   3.157   4.701
  150POPC   D2A 2167   8.632   2.970   5.071
  150POPC   C3A 2168   8.787   3.108   5.458
  150POPC   C4A 2169   8.481   3.079   5.733
  150POPC   C1B 2170   9.091   2.774   4.869
  150POPC   C2B 2171   8.948   2.542   5.226
  150POPC   C3B 2172   8.867   2.639   5.647
  150POPC   C4B 2173   8.918   2.653   6.042
  151POPC   NC3 2174   8.055   2.147   4.024
  151POPC   PO4 2175   8.667   2.188   4.145
  151POPC   GL1 2176   8.426   1.917   4.388
  151POPC   GL2 2177   8.084   2.001   4.497
  151POPC   C1A 2178   8.482   1.810   4.808
  151POPC   D2A 2179   8.645   1.773   5.212
  151POPC   C3A 2180   8.320   1.699   5.492
  151POPC   C4A 2181   8.208   1.758   5.908
  151POPC   C1B 2182   7.929   2.277   4.800
  151POPC   C2B 2183   8.063   2.059   5.143
  151POPC   C3B 2184   8.198   2.189   5.494
  151POPC   C4B 2185   7.990   2.209   5.819
  152POPC   NC3 2186   8.778   4.130   4.072
  152POPC   PO4 2187   8.968   4.758   3.921
  152POPC   GL1 2188   8.979   4.547   4.321
  152POPC   GL2 2189   9.102   4.235   4.424
  152POPC   C1A 2190   9.083   4.594   4.776
  152POPC   D2A 2191   9.302   4.572   5.173
  152POPC   C3A 2192   8.934   4.556   5.455
  152POPC   C4A 2193   8.686   4.505   5.840
  152POPC   C1B 2194   8.854   4.061   4.789
  152POPC   C2B 2195   8.729   3.971   5.238
  152POPC   C3B 2196   8.906   4.055   5.642
  152POPC   C4B 2197   9.121   3.893   5.984
  153POPC   NC3 2198   7.334   7.735   4.231
  153POPC   PO4 2199   7.633   7.284   3.710
  153POPC   GL1 2200   7.498   7.209   4.268
  153POPC   GL2 2201   7.612   7.469   4.568
  153POPC   C1A 2202   7.329   7.111   4.710
  153POPC   D2A 2203   7.540   7.261   5.055
  153POPC   C3A 2204   7.242   7.306   5.346
  153POPC   C4A 2205   7.453   7.148   5.698
  153POPC   C1B 2206   7.253   7.634   4.842
  153POPC   C2B 2207   7.247   7.837   5.205
  153POPC   C3B 2208   7.511   7.698   5.508
  153POPC   C4B 2209   7.201   7.577   5.775
  154POPC   NC3 2210   1.227   3.550   3.952
  154POPC   PO4 2211   0.612   3.703   3.846
  154POPC   GL1 2212   0.865   3.766   4.286
  154POPC   GL2 2213   1.158   3.526   4.434
  154POPC   C1A 2214   0.857   3.687   4.778
  154POPC   D2A 2215   1.021   3.436   5.150
  154POPC   C3A 2216   0.874   3.631   5.497
  154POPC   C4A 2217   0.971   3.603   5.903
  154POPC   C1B 2218   1.373   3.479   4.797
  154POPC   C2B 2219   1.510   3.669   5.176
  154POPC   C3B 2220   1.388   3.620   5.611
  154POPC   C4B 2221   1.420   3.457   6.083
  155POPC   NC3 2222   0.190   4.922   4.199
  155POPC   PO4 2223   0.781   4.648   3.872
  155POPC   GL1 2224   0.831   4.696   4.290
  155POPC   GL2 2225   0.679   5.013   4.350
  155POPC   C1A 2226   0.815   4.740   4.741
  155POPC   D2A 2227   0.487   4.964   5.021
  155POPC   C3A 2228   0.538   4.966   5.465
  155POPC   C4A 2229   0.284   4.738   5.781
  155POPC   C1B 2230   0.398   5.297   4.658
  155POPC   C2B 2231   0.096   5.348   5.029
  155POPC   C3B 2232   0.187   5.474   5.473
  155POPC   C4B 2233   0.391   5.284   5.844
  156POPC   NC3 2234   9.058   8.114   3.758
  156POPC   PO4 2235   8.593   7.740   3.849
  156POPC   GL1 2236   8.720   7.917   4.236
  156POPC   GL2 2237   9.054   7.873   4.228
  156POPC   C1A 2238   8.573   8.107   4.649
  156POPC   D2A 2239   8.430   8.294   5.066
  156POPC   C3A 2240   8.739   8.307   5.410
  156POPC   C4A 2241   8.592   8.329   5.829
  156POPC   C1B 2242   9.102   8.196   4.534
  156POPC   C2B 2243   9.327   8.293   4.910
  156POPC   C3B 2244   9.311   8.366   5.352
  156POPC   C4B 2245   9.113   8.242   5.756
  157POPC   NC3 2246   7.602   2.607   3.956
  157POPC   PO4 2247   7.012   2.264   3.934
  157POPC   GL1 2248   7.204   2.470   4.298
  157POPC   GL2 2249   7.293   2.839   4.279
  157POPC   C1A 2250   7.095   2.660   4.717
  157POPC   D2A 2251   6.975   2.535   5.139
  157POPC   C3A 2252   7.230   2.643   5.448
  157POPC   C4A 2253   7.171   2.746   5.868
  157POPC   C1B 2254   7.587   2.635   4.599
  157POPC   C2B 2255   7.578   2.624   5.036
  157POPC   C3B 2256   7.745   2.421   5.391
  157POPC   C4B 2257   7.567   2.460   5.792
  158POPC   NC3 2258   5.042   0.546   4.048
  158POPC   PO4 2259   5.098   9.924   4.010
  158POPC   GL1 2260   5.223   0.125   4.424
  158POPC   GL2 2261   5.281   0.512   4.501
  158POPC   C1A 2262   5.110   0.219   4.870
  158POPC   D2A 2263   5.313   0.507   5.194
  158POPC   C3A 2264   5.357   0.266   5.594
  158POPC   C4A 2265   5.534   0.289   6.032
  158POPC   C1B 2266   4.972   0.724   4.759
  158POPC   C2B 2267   4.803   0.556   5.132
  158POPC   C3B 2268   4.906   0.554   5.542
  158POPC   C4B 2269   4.665   0.739   5.841
  159POPC   NC3 2270   1.375   6.717   4.072
  159POPC   PO4 2271   0.855   6.225   3.921
  159POPC   GL1 2272   1.024   6.383   4.272
  159POPC   GL2 2273   1.349   6.367   4.458
  159POPC   C1A 2274   0.914   6.612   4.632
  159POPC   D2A 2275   0.991   6.829   5.008
  159POPC   C3A 2276   1.169   6.602   5.331
  159POPC   C4A 2277   0.962   6.706   5.710
  159POPC   C1B 2278   1.428   6.732   4.730
  159POPC   C2B 2279   1.512   6.943   5.109
  159POPC   C3B 2280   1.636   6.790   5.507
  159POPC   C4B 2281   1.435   6.443   5.748
  160POPC   NC3 2282   0.549   5.834   3.831
  160POPC   PO4 2283   0.488   5.154   3.896
  160POPC   GL1 2284   0.622   5.496   4.220
  160POPC   GL2 2285   0.330   5.683   4.305
  160POPC   C1A 2286   0.708   5.695   4.666
  160POPC   D2A 2287   0.593   5.523   5.102
  160POPC   C3A 2288   0.798   5.566   5.526
  160POPC   C4A 2289   0.642   5.725   5.940
  160POPC   C1B 2290   0.207   5.777   4.743
  160POPC   C2B 2291   0.365   6.017   5.089
  160POPC   C3B 2292   0.466   5.956   5.510
  160POPC   C4B 2293   0.197   5.933   5.863
  161POPC   NC3 2294   0.549   7.574   3.880
  161POPC   PO4 2295   0.068   7.072   3.892
  161POPC   GL1 2296   0.190   7.365   4.240
  161POPC   GL2 2297   0.543   7.308   4.297
  161POPC   C1A 2298   0.250   7.372   4.718
  161POPC   D2A 2299   0.258   7.595   5.120
  161POPC   C3A 2300   0.294   7.370   5.496
  161POPC   C4A 2301   0.523   7.545   5.869
  161POPC   C1B 2302   0.725   7.136   4.657
  161POPC   C2B 2303   0.643   7.232   5.082
  161POPC   C3B 2304   0.784   7.276   5.505
  161POPC   C4B 2305   0.582   7.035   5.808
  162POPC   NC3 2306   4.028   3.638   3.956
  162POPC   PO4 2307   4.267   4.131   4.044
  162POPC   GL1 2308   4.268   3.742   4.385
  162POPC   GL2 2309   4.478   3.423   4.320
  162POPC   C1A 2310   4.037   3.524   4.757
  162POPC   D2A 2311   4.189   3.408   5.217
  162POPC   C3A 2312   4.047   3.474   5.679
  162POPC   C4A 2313   3.637   3.523   5.937
  162POPC   C1B 2314   4.715   3.095   4.631
  162POPC   C2B 2315   4.558   3.025   5.085
  162POPC   C3B 2316   4.448   3.099   5.530
  162POPC   C4B 2317   4.368   3.088   5.965
  163POPC   NC3 2318   8.111   7.030   3.912
  163POPC   PO4 2319   7.758   7.586   4.117
  163POPC   GL1 2320   8.137   7.365   4.311
  163POPC   GL2 2321   8.396   7.582   4.440
  163POPC   C1A 2322   8.326   7.111   4.683
  163POPC   D2A 2323   8.425   6.933   5.101
  163POPC   C3A 2324   8.048   6.879   5.366
  163POPC   C4A 2325   7.948   7.142   5.713
  163POPC   C1B 2326   8.068   7.547   4.769
  163POPC   C2B 2327   8.077   7.321   5.120
  163POPC   C3B 2328   8.302   7.426   5.470
  163POPC   C4B 2329   7.994   7.646   5.656
  164POPC   NC3 2330   8.158   7.767   4.005
  164POPC   PO4 2331   7.546   8.100   3.963
  164POPC   GL1 2332   7.819   8.032   4.340
  164POPC   GL2 2333   8.139   8.215   4.276
  164POPC   C1A 2334   8.047   8.051   4.756
  164POPC   D2A 2335   8.012   7.888   5.186
  164POPC   C3A 2336   8.275   8.057   5.511
  164POPC   C4A 2337   8.442   7.847   5.847
  164POPC   C1B 2338   7.861   8.485   4.559
  164POPC   C2B 2339   7.926   8.494   5.005
  164POPC   C3B 2340   8.024   8.507   5.457
  164POPC   C4B 2341   8.075   8.402   5.933
  165POPC   NC3 2342   6.397   0.493   3.963
  165POPC   PO4 2343   6.093   1.047   4.120
  165POPC   GL1 2344   6.406   0.818   4.361
  165POPC   GL2 2345   6.681   0.562   4.370
  165POPC   C1A 2346   6.513   0.827   4.775
  165POPC   D2A 2347   6.327   0.592   5.053
  165POPC   C3A 2348   6.269   0.786   5.439
  165POPC   C4A 2349   6.306   0.624   5.815
  165POPC   C1B 2350   6.630   0.300   4.711
  165POPC   C2B 2351   6.572   0.143   5.105
  165POPC   C3B 2352   6.653   0.411   5.440
  165POPC   C4B 2353   6.566   0.195   5.776
  166POPC   NC3 2354   3.167   8.754   3.987
  166POPC   PO4 2355   3.797   8.982   4.048
  166POPC   GL1 2356   3.453   8.890   4.397
  166POPC   GL2 2357   3.353   9.188   4.608
  166POPC   C1A 2358   3.265   8.729   4.816
  166POPC   D2A 2359   3.344   9.046   5.140
  166POPC   C3A 2360   3.224   9.049   5.585
  166POPC   C4A 2361   3.337   9.305   5.936
  166POPC   C1B 2362   3.790   9.107   4.762
  166POPC   C2B 2363   3.866   8.892   5.137
  166POPC   C3B 2364   3.628   8.721   5.471
  166POPC   C4B 2365   3.720   9.046   5.719
  167POPC   NC3 2366   7.179   9.293   3.891
  167POPC   PO4 2367   6.932   9.923   3.942
  167POPC   GL1 2368   7.075   9.648   4.312
  167POPC   GL2 2369   7.423   9.545   4.295
  167POPC   C1A 2370   7.120   9.402   4.743
  167POPC   D2A 2371   7.329   9.294   5.147
  167POPC   C3A 2372   7.110   9.451   5.550
  167POPC   C4A 2373   7.150   9.527   6.044
  167POPC   C1B 2374   7.408   9.823   4.681
  167POPC   C2B 2375   7.588   9.737   5.093
  167POPC   C3B 2376   7.570   9.636   5.509
  167POPC   C4B 2377   7.317   9.906   5.739
  168POPC   NC3 2378   9.010   7.469   3.919
  168POPC   PO4 2379   8.540   7.076   4.078
  168POPC   GL1 2380   8.850   7.081   4.369
  168POPC   GL2 2381   8.905   7.413   4.404
  168POPC   C1A 2382   8.816   7.153   4.822
  168POPC   D2A 2383   8.775   7.328   5.227
  168POPC   C3A 2384   8.808   7.001   5.561
  168POPC   C4A 2385   9.032   7.135   5.950
  168POPC   C1B 2386   8.938   7.726   4.713
  168POPC   C2B 2387   8.964   7.979   5.087
  168POPC   C3B 2388   8.925   7.826   5.515
  168POPC   C4B 2389   8.753   7.482   5.725
  169POPC   NC3 2390   3.924   8.053   4.075
  169POPC   PO4 2391   3.262   7.848   3.890
  169POPC   GL1 2392   3.424   8.077   4.283
  169POPC   GL2 2393   3.615   8.414   4.287
  169POPC   C1A 2394   3.419   8.188   4.731
  169POPC   D2A 2395   3.273   7.983   5.100
  169POPC   C3A 2396   3.442   8.115   5.492
  169POPC   C4A 2397   3.376   7.896   5.875
  169POPC   C1B 2398   3.737   8.583   4.715
  169POPC   C2B 2399   3.847   8.377   5.122
  169POPC   C3B 2400   3.956   8.346   5.582
  169POPC   C4B 2401   3.673   8.367   5.899
  170POPC   NC3 2402   7.263   0.928   3.958
  170POPC   PO4 2403   7.385   1.570   3.950
  170POPC   GL1 2404   7.394   1.225   4.326
  170POPC   GL2 2405   7.723   1.234   4.482
  170POPC   C1A 2406   7.403   0.989   4.777
  170POPC   D2A 2407   7.479   1.216   5.189
  170POPC   C3A 2408   7.424   0.941   5.531
  170POPC   C4A 2409   7.048   0.834   5.732
  170POPC   C1B 2410   7.347   1.484   4.734
  170POPC   C2B 2411   7.084   1.543   5.070
  170POPC   C3B 2412   7.241   1.644   5.430
  170POPC   C4B 2413   7.447   1.419   5.707
  171POPC   NC3 2414   2.255   6.243   3.981
  171POPC   PO4 2415   1.612   6.328   4.047
  171POPC   GL1 2416   1.907   6.105   4.327
  171POPC   GL2 2417   1.906   5.746   4.307
  171POPC   C1A 2418   2.154   6.034   4.725
  171POPC   D2A 2419   2.013   5.922   5.189
  171POPC   C3A 2420   2.130   5.924   5.665
  171POPC   C4A 2421   2.240   5.981   6.142
  171POPC   C1B 2422   1.696   5.846   4.727
  171POPC   C2B 2423   1.483   5.931   5.123
  171POPC   C3B 2424   1.610   5.960   5.579
  171POPC   C4B 2425   1.764   5.716   5.972
  172POPC   NC3 2426   0.745   4.149   3.892
  172POPC   PO4 2427   1.438   3.902   3.759
  172POPC   GL1 2428   1.342   3.988   4.219
  172POPC   GL2 2429   1.105   4.240   4.255
  172POPC   C1A 2430   1.300   3.977   4.698
  172POPC   D2A 2431   1.108   3.946   5.133
  172POPC   C3A 2432   1.069   4.115   5.540
  172POPC   C4A 2433   0.678   4.018   5.772
  172POPC   C1B 2434   1.250   4.487   4.601
  172POPC   C2B 2435   1.251   4.608   5.029
  172POPC   C3B 2436   1.199   4.624   5.485
  172POPC   C4B 2437   1.457   4.451   5.800
  173POPC   NC3 2438   2.166   7.298   3.879
  173POPC   PO4 2439   2.441   6.656   3.910
  173POPC   GL1 2440   2.194   6.587   4.364
  173POPC   GL2 2441   1.818   6.617   4.405
  173POPC   C1A 2442   2.048   6.786   4.808
  173POPC   D2A 2443   2.001   7.065   5.185
  173POPC   C3A 2444   2.326   7.089   5.490
  173POPC   C4A 2445   2.319   6.734   5.729
  173POPC   C1B 2446   1.767   6.354   4.768
  173POPC   C2B 2447   1.733   6.386   5.199
  173POPC   C3B 2448   1.950   6.394   5.578
  173POPC   C4B 2449   1.849   6.229   5.959
  174POPC   NC3 2450   7.099   4.552   4.035
  174POPC   PO4 2451   7.460   4.006   4.016
  174POPC   GL1 2452   7.405   4.193   4.381
  174POPC   GL2 2453   7.676   4.046   4.511
  174POPC   C1A 2454   7.308   4.272   4.818
  174POPC   D2A 2455   7.349   4.257   5.269
  174POPC   C3A 2456   7.034   4.338   5.618
  174POPC   C4A 2457   7.129   4.184   6.061
  174POPC   C1B 2458   7.856   4.346   4.747
  174POPC   C2B 2459   7.944   4.402   5.164
  174POPC   C3B 2460   7.680   4.592   5.458
  174POPC   C4B 2461   7.514   4.339   5.764
  175POPC   NC3 2462   4.168   7.337   4.170
  175POPC   PO4 2463   3.993   6.746   4.155
  175POPC   GL1 2464   3.956   6.997   4.542
  175POPC   GL2 2465   3.937   7.375   4.629
  175POPC   C1A 2466   4.171   6.978   4.941
  175POPC   D2A 2467   4.436   7.193   5.275
  175POPC   C3A 2468   4.358   7.118   5.725
  175POPC   C4A 2469   4.383   6.992   6.163
  175POPC   C1B 2470   4.081   7.488   5.002
  175POPC   C2B 2471   4.000   7.435   5.412
  175POPC   C3B 2472   4.291   7.612   5.685
  175POPC   C4B 2473   4.219   7.471   6.090
  176POPC   NC3 2474   8.613   4.895   4.185
  176POPC   PO4 2475   8.219   5.362   3.752
  176POPC   GL1 2476   8.330   5.338   4.141
  176POPC   GL2 2477   8.110   5.055   4.210
  176POPC   C1A 2478   8.374   5.353   4.575
  176POPC   D2A 2479   8.302   5.204   4.973
  176POPC   C3A 2480   8.229   5.345   5.404
  176POPC   C4A 2481   8.357   5.339   5.849
  176POPC   C1B 2482   7.938   5.005   4.628
  176POPC   C2B 2483   7.926   4.903   5.075
  176POPC   C3B 2484   8.114   4.847   5.418
  176POPC   C4B 2485   8.282   4.808   5.761
  177POPC   NC3 2486   0.324   4.747   3.744
  177POPC   PO4 2487   0.271   4.128   4.034
  177POPC   GL1 2488   0.387   4.438   4.360
  177POPC   GL2 2489   0.629   4.221   4.425
  177POPC   C1A 2490   0.394   4.468   4.860
  177POPC   D2A 2491   0.745   4.548   5.199
  177POPC   C3A 2492   0.687   4.486   5.618
  177POPC   C4A 2493   0.524   4.435   6.100
  177POPC   C1B 2494   0.832   4.206   4.803
  177POPC   C2B 2495   0.618   4.059   5.197
  177POPC   C3B 2496   0.280   4.308   5.389
  177POPC   C4B 2497   0.174   4.222   5.829
  178POPC   NC3 2498   8.673   9.710   4.105
  178POPC   PO4 2499   9.294   9.435   3.880
  178POPC   GL1 2500   9.118   9.589   4.284
  178POPC   GL2 2501   9.093   9.958   4.395
  178POPC   C1A 2502   8.974   9.531   4.695
  178POPC   D2A 2503   9.141   9.409   5.069
  178POPC   C3A 2504   8.953   9.491   5.475
  178POPC   C4A 2505   9.028   9.211   5.795
  178POPC   C1B 2506   8.827   0.012   4.792
  178POPC   C2B 2507   8.961   9.937   5.235
  178POPC   C3B 2508   8.902   9.946   5.718
  178POPC   C4B 2509   8.701   0.006   6.148
  179POPC   NC3 2510   3.514   7.460   3.729
  179POPC   PO4 2511   4.094   7.679   3.827
  179POPC   GL1 2512   3.689   7.624   4.179
  179POPC   GL2 2513   3.615   7.317   4.260
  179POPC   C1A 2514   3.475   7.661   4.634
  179POPC   D2A 2515   3.306   7.484   5.037
  179POPC   C3A 2516   3.505   7.590   5.431
  179POPC   C4A 2517   3.381   7.380   5.836
  179POPC   C1B 2518   3.486   7.136   4.657
  179POPC   C2B 2519   3.687   7.155   5.062
  179POPC   C3B 2520   3.555   7.082   5.476
  179POPC   C4B 2521   3.861   7.181   5.847
  180POPC   NC3 2522   9.978   2.673   3.925
  180POPC   PO4 2523   0.105   3.276   4.269
  180POPC   GL1 2524   9.813   3.088   4.427
  180POPC   GL2 2525   9.534   2.900   4.351
  180POPC   C1A 2526   9.760   2.974   4.799
  180POPC   D2A 2527   9.561   3.059   5.084
  180POPC   C3A 2528   9.779   2.887   5.423
  180POPC   C4A 2529   9.625   3.067   5.772
  180POPC   C1B 2530   9.515   2.542   4.703
  180POPC   C2B 2531   9.473   2.545   5.144
  180POPC   C3B 2532   9.277   2.852   5.446
  180POPC   C4B 2533   9.373   2.605   5.797
  181POPC   NC3 2534   1.016   1.240   4.025
  181POPC   PO4 2535   0.897   0.661   3.698
  181POPC   GL1 2536   1.172   0.778   4.161
  181POPC   GL2 2537   1.425   1.023   4.337
  181POPC   C1A 2538   1.027   0.966   4.632
  181POPC   D2A 2539   1.198   1.259   4.947
  181POPC   C3A 2540   1.187   1.193   5.392
  181POPC   C4A 2541   1.197   1.084   5.822
  181POPC   C1B 2542   1.613   1.368   4.692
  181POPC   C2B 2543   1.611   1.515   5.171
  181POPC   C3B 2544   1.614   1.382   5.632
  181POPC   C4B 2545   1.558   1.359   6.107
  182POPC   NC3 2546   2.187   1.678   3.558
  182POPC   PO4 2547   1.933   1.821   4.129
  182POPC   GL1 2548   1.848   2.052   4.479
  182POPC   GL2 2549   1.668   2.322   4.355
  182POPC   C1A 2550   1.899   1.869   4.890
  182POPC   D2A 2551   2.295   1.920   5.112
  182POPC   C3A 2552   2.352   2.159   5.429
  182POPC   C4A 2553   2.132   2.061   5.777
  182POPC   C1B 2554   1.707   2.543   4.749
  182POPC   C2B 2555   1.907   2.334   5.134
  182POPC   C3B 2556   1.791   1.991   5.398
  182POPC   C4B 2557   1.660   2.242   5.735
  183POPC   NC3 2558   7.757   1.260   3.965
  183POPC   PO4 2559   8.361   1.581   3.751
  183POPC   GL1 2560   8.113   1.551   4.212
  183POPC   GL2 2561   8.261   1.265   4.382
  183POPC   C1A 2562   8.053   1.527   4.742
  183POPC   D2A 2563   8.195   1.333   5.177
  183POPC   C3A 2564   7.966   1.329   5.640
  183POPC   C4A 2565   7.782   1.548   6.063
  183POPC   C1B 2566   8.451   1.070   4.779
  183POPC   C2B 2567   8.438   0.879   5.212
  183POPC   C3B 2568   8.442   1.095   5.653
  183POPC   C4B 2569   8.446   0.881   6.087
  184POPC   NC3 2570   8.280   8.923   3.866
  184POPC   PO4 2571   7.612   9.095   3.883
  184POPC   GL1 2572   7.948   9.001   4.239
  184POPC   GL2 2573   8.213   8.744   4.315
  184POPC   C1A 2574   8.088   9.130   4.656
  184POPC   D2A 2575   7.862   9.296   5.010
  184POPC   C3A 2576   8.025   9.216   5.412
  184POPC   C4A 2577   7.835   8.946   5.709
  184POPC   C1B 2578   8.341   8.661   4.709
  184POPC   C2B 2579   8.287   8.856   5.090
  184POPC   C3B 2580   8.482   8.732   5.428
  184POPC   C4B 2581   8.312   8.806   5.773
  185POPC   NC3 2582   8.142   9.464   3.756
  185POPC   PO4 2583   8.368   0.097   4.013
  185POPC   GL1 2584   8.223   9.785   4.311
  185POPC   GL2 2585   7.967   9.517   4.267
  185POPC   C1A 2586   8.408   9.615   4.703
  185POPC   D2A 2587   8.626   9.581   5.076
  185POPC   C3A 2588   8.512   9.789   5.436
  185POPC   C4A 2589   8.499   9.645   5.858
  185POPC   C1B 2590   7.916   9.722   4.703
  185POPC   C2B 2591   8.099   9.733   5.142
  185POPC   C3B 2592   8.034   9.778   5.602
  185POPC   C4B 2593   7.826   0.099   5.854
  186POPC   NC3 2594   4.998   2.145   3.946
  186POPC   PO4 2595   5.176   1.443   4.085
  186POPC   GL1 2596   5.093   1.671   4.408
  186POPC   GL2 2597   5.143   2.018   4.401
  186POPC   C1A 2598   4.889   1.764   4.780
  186POPC   D2A 2599   5.022   1.935   5.166
  186POPC   C3A 2600   4.806   2.017   5.558
  186POPC   C4A 2601   4.739   1.918   6.034
  186POPC   C1B 2602   5.003   2.285   4.763
  186POPC   C2B 2603   4.856   2.434   5.168
  186POPC   C3B 2604   5.067   2.464   5.569
  186POPC   C4B 2605   5.153   2.149   5.893
  187POPC   NC3 2606   3.377   2.892   3.923
  187POPC   PO4 2607   4.016   3.174   4.022
  187POPC   GL1 2608   3.779   2.964   4.374
  187POPC   GL2 2609   3.518   2.691   4.400
  187POPC   C1A 2610   3.520   3.025   4.778
  187POPC   D2A 2611   3.268   2.833   5.108
  187POPC   C3A 2612   3.492   3.012   5.448
  187POPC   C4A 2613   3.352   3.076   5.848
  187POPC   C1B 2614   3.831   2.615   4.757
  187POPC   C2B 2615   3.693   2.582   5.209
  187POPC   C3B 2616   3.593   2.577   5.690
  187POPC   C4B 2617   3.627   2.664   6.148
  188POPC   NC3 2618   2.862   8.086   3.806
  188POPC   PO4 2619   2.262   7.833   3.916
  188POPC   GL1 2620   2.539   8.011   4.260
  188POPC   GL2 2621   2.866   8.213   4.287
  188POPC   C1A 2622   2.461   8.150   4.693
  188POPC   D2A 2623   2.218   8.045   5.080
  188POPC   C3A 2624   2.452   8.059   5.441
  188POPC   C4A 2625   2.533   8.408   5.689
  188POPC   C1B 2626   2.952   8.004   4.648
  188POPC   C2B 2627   2.887   8.296   4.981
  188POPC   C3B 2628   2.929   8.210   5.405
  188POPC   C4B 2629   2.920   8.112   5.826
  189POPC   NC3 2630   9.290   5.090   3.986
  189POPC   PO4 2631   9.949   5.315   4.167
  189POPC   GL1 2632   9.630   5.033   4.372
  189POPC   GL2 2633   9.510   4.698   4.297
  189POPC   C1A 2634   9.453   4.959   4.796
  189POPC   D2A 2635   9.605   5.124   5.149
  189POPC   C3A 2636   9.483   4.939   5.541
  189POPC   C4A 2637   9.427   5.194   5.916
  189POPC   C1B 2638   9.818   4.654   4.684
  189POPC   C2B 2639   9.903   4.621   5.129
  189POPC   C3B 2640   0.016   4.964   5.410
  189POPC   C4B 2641   9.899   5.035   5.839
  190POPC   NC3 2642   8.739   1.274   3.781
  190POPC   PO4 2643   9.331   1.459   3.987
  190POPC   GL1 2644   8.931   1.353   4.247
  190POPC   GL2 2645   8.695   1.044   4.234
  190POPC   C1A 2646   8.818   1.417   4.676
  190POPC   D2A 2647   9.047   1.481   5.057
  190POPC   C3A 2648   8.860   1.370   5.450
  190POPC   C4A 2649   9.117   1.411   5.805
  190POPC   C1B 2650   8.906   0.901   4.564
  190POPC   C2B 2651   8.930   0.974   4.992
  190POPC   C3B 2652   8.916   0.877   5.412
  190POPC   C4B 2653   8.907   0.932   5.852
  191POPC   NC3 2654   0.760   2.700   4.197
  191POPC   PO4 2655   1.355   2.418   3.972
  191POPC   GL1 2656   1.269   2.684   4.316
  191POPC   GL2 2657   1.310   3.023   4.150
  191POPC   C1A 2658   1.053   2.863   4.729
  191POPC   D2A 2659   0.944   2.926   5.175
  191POPC   C3A 2660   1.237   2.703   5.386
  191POPC   C4A 2661   1.550   2.739   5.690
  191POPC   C1B 2662   1.513   3.055   4.549
  191POPC   C2B 2663   1.462   3.015   4.996
  191POPC   C3B 2664   1.480   3.169   5.398
  191POPC   C4B 2665   1.178   3.134   5.737
  192POPC   NC3 2666   1.906   9.677   3.817
  192POPC   PO4 2667   1.359   9.718   4.109
  192POPC   GL1 2668   1.757   9.596   4.293
  192POPC   GL2 2669   2.087   9.804   4.271
  192POPC   C1A 2670   1.814   9.389   4.684
  192POPC   D2A 2671   1.933   9.519   5.090
  192POPC   C3A 2672   1.896   9.555   5.538
  192POPC   C4A 2673   1.666   9.378   5.868
  192POPC   C1B 2674   2.199   9.718   4.686
  192POPC   C2B 2675   2.377   9.887   5.038
  192POPC   C3B 2676   2.235   0.075   5.388
  192POPC   C4B 2677   2.168   9.960   5.774
  193POPC   NC3 2678   7.936   6.201   4.157
  193POPC   PO4 2679   8.348   6.635   3.782
  193POPC   GL1 2680   8.218   6.660   4.252
  193POPC   GL2 2681   7.949   6.912   4.393
  193POPC   C1A 2682   8.263   6.585   4.723
  193POPC   D2A 2683   8.381   6.436   5.183
  193POPC   C3A 2684   8.386   6.619   5.638
  193POPC   C4A 2685   8.307   6.412   6.040
  193POPC   C1B 2686   7.869   6.905   4.838
  193POPC   C2B 2687   7.876   6.499   5.068
  193POPC   C3B 2688   7.952   6.359   5.486
  193POPC   C4B 2689   7.874   6.644   5.821
  194POPC   NC3 2690   7.768   5.348   3.901
  194POPC   PO4 2691   7.503   4.737   3.968
  194POPC   GL1 2692   7.585   4.668   4.395
  194POPC   GL2 2693   7.234   4.806   4.456
  194POPC   C1A 2694   7.533   4.721   4.845
  194POPC   D2A 2695   7.453   5.103   5.043
  194POPC   C3A 2696   7.615   5.106   5.452
  194POPC   C4A 2697   7.882   5.181   5.771
  194POPC   C1B 2698   7.032   4.795   4.890
  194POPC   C2B 2699   7.198   4.757   5.335
  194POPC   C3B 2700   7.309   4.843   5.781
  194POPC   C4B 2701   7.145   5.043   6.205
  195POPC   NC3 2702   3.612   1.842   4.073
  195POPC   PO4 2703   3.674   2.508   3.947
  195POPC   GL1 2704   3.731   2.235   4.367
  195POPC   GL2 2705   3.380   2.104   4.434
  195POPC   C1A 2706   3.827   1.867   4.685
  195POPC   D2A 2707   3.960   1.703   5.119
  195POPC   C3A 2708   3.809   1.818   5.562
  195POPC   C4A 2709   3.874   1.662   5.996
  195POPC   C1B 2710   3.485   2.248   4.840
  195POPC   C2B 2711   3.530   2.109   5.254
  195POPC   C3B 2712   3.339   2.122   5.639
  195POPC   C4B 2713   3.411   1.838   5.939
  196POPC   NC3 2714   4.726   1.395   4.045
  196POPC   PO4 2715   4.020   1.571   3.977
  196POPC   GL1 2716   4.077   1.398   4.403
  196POPC   GL2 2717   4.085   1.057   4.335
  196POPC   C1A 2718   4.075   1.227   4.855
  196POPC   D2A 2719   3.965   1.229   5.329
  196POPC   C3A 2720   4.229   1.542   5.538
  196POPC   C4A 2721   4.643   1.550   5.660
  196POPC   C1B 2722   4.476   1.010   4.591
  196POPC   C2B 2723   4.572   0.996   5.032
  196POPC   C3B 2724   4.526   1.081   5.472
  196POPC   C4B 2725   4.204   1.126   5.801
  197POPC   NC3 2726   7.405   7.686   3.764
  197POPC   PO4 2727   6.902   7.931   4.137
  197POPC   GL1 2728   7.094   8.115   4.472
  197POPC   GL2 2729   7.375   8.339   4.398
  197POPC   C1A 2730   7.012   8.353   4.816
  197POPC   D2A 2731   7.205   8.551   5.150
  197POPC   C3A 2732   7.073   8.310   5.474
  197POPC   C4A 2733   7.289   8.082   5.744
  197POPC   C1B 2734   7.517   8.139   4.803
  197POPC   C2B 2735   7.602   8.189   5.257
  197POPC   C3B 2736   7.775   8.107   5.674
  197POPC   C4B 2737   7.613   8.175   6.132
  198POPC   NC3 2738   8.902   3.499   3.720
  198POPC   PO4 2739   9.316   3.837   4.098
  198POPC   GL1 2740   9.098   3.705   4.405
  198POPC   GL2 2741   8.873   3.488   4.268
  198POPC   C1A 2742   9.062   3.582   4.813
  198POPC   D2A 2743   9.105   3.291   5.102
  198POPC   C3A 2744   9.090   3.544   5.451
  198POPC   C4A 2745   9.202   3.380   5.865
  198POPC   C1B 2746   8.601   3.643   4.597
  198POPC   C2B 2747   8.607   3.511   5.046
  198POPC   C3B 2748   8.493   3.537   5.462
  198POPC   C4B 2749   8.731   3.586   5.797
  199POPC   NC3 2750   1.889   9.033   3.897
  199POPC   PO4 2751   2.350   9.474   3.964
  199POPC   GL1 2752   2.185   9.304   4.343
  199POPC   GL2 2753   2.137   8.960   4.351
  199POPC   C1A 2754   2.303   9.193   4.773
  199POPC   D2A 2755   2.113   8.891   5.040
  199POPC   C3A 2756   1.945   9.043   5.388
  199POPC   C4A 2757   2.117   9.095   5.771
  199POPC   C1B 2758   1.788   8.872   4.645
  199POPC   C2B 2759   1.569   8.837   5.036
  199POPC   C3B 2760   1.549   8.703   5.460
  199POPC   C4B 2761   1.693   8.870   5.826
  200POPC   NC3 2762   7.929   0.374   4.112
  200POPC   PO4 2763   7.676   0.853   3.765
  200POPC   GL1 2764   8.021   0.870   4.153
  200POPC   GL2 2765   8.331   0.636   4.277
  200POPC   C1A 2766   8.031   0.833   4.629
  200POPC   D2A 2767   7.885   0.956   5.025
  200POPC   C3A 2768   7.866   0.646   5.360
  200POPC   C4A 2769   8.046   0.564   5.771
  200POPC   C1B 2770   8.263   0.252   4.630
  200POPC   C2B 2771   8.386   0.148   5.037
  200POPC   C3B 2772   8.178   0.220   5.407
  200POPC   C4B 2773   8.356   0.135   5.795
  201POPC   NC3 2774   8.954   9.233   3.633
  201POPC   PO4 2775   8.428   9.313   4.084
  201POPC   GL1 2776   8.736   9.219   4.361
  201POPC   GL2 2777   9.077   9.088   4.217
  201POPC   C1A 2778   8.614   9.138   4.792
  201POPC   D2A 2779   8.756   9.100   5.213
  201POPC   C3A 2780   8.525   9.225   5.585
  201POPC   C4A 2781   8.528   9.168   6.062
  201POPC   C1B 2782   9.105   9.026   4.687
  201POPC   C2B 2783   9.051   8.721   5.038
  201POPC   C3B 2784   9.045   8.773   5.489
  201POPC   C4B 2785   8.805   8.769   5.835
  202POPC   NC3 2786   7.293   3.573   3.969
  202POPC   PO4 2787   7.618   3.053   3.834
  202POPC   GL1 2788   7.586   3.270   4.275
  202POPC   GL2 2789   7.478   3.585   4.407
  202POPC   C1A 2790   7.331   3.174   4.678
  202POPC   D2A 2791   7.177   3.025   5.078
  202POPC   C3A 2792   7.275   3.289   5.419
  202POPC   C4A 2793   7.142   3.239   5.818
  202POPC   C1B 2794   7.290   3.753   4.745
  202POPC   C2B 2795   7.219   3.757   5.176
  202POPC   C3B 2796   7.215   3.840   5.614
  202POPC   C4B 2797   7.539   3.845   5.919
  203POPC   NC3 2798   5.808   0.150   3.541
  203POPC   PO4 2799   5.514   0.502   4.065
  203POPC   GL1 2800   5.930   0.491   4.237
  203POPC   GL2 2801   5.897   0.756   4.475
  203POPC   C1A 2802   6.140   0.338   4.631
  203POPC   D2A 2803   6.069   0.087   5.022
  203POPC   C3A 2804   6.158   0.271   5.412
  203POPC   C4A 2805   6.022   0.206   5.804
  203POPC   C1B 2806   5.690   0.581   4.791
  203POPC   C2B 2807   5.836   0.623   5.162
  203POPC   C3B 2808   5.761   0.569   5.550
  203POPC   C4B 2809   5.406   0.783   5.660
  204POPC   NC3 2810   4.436   7.948   3.710
  204POPC   PO4 2811   4.144   7.750   4.343
  204POPC   GL1 2812   3.866   7.968   4.574
  204POPC   GL2 2813   4.060   8.254   4.528
  204POPC   C1A 2814   3.761   7.886   4.995
  204POPC   D2A 2815   4.042   7.927   5.315
  204POPC   C3A 2816   3.852   7.855   5.710
  204POPC   C4A 2817   4.065   7.947   6.054
  204POPC   C1B 2818   4.461   8.200   4.737
  204POPC   C2B 2819   4.599   8.267   5.160
  204POPC   C3B 2820   4.453   8.144   5.580
  204POPC   C4B 2821   4.360   8.378   5.945
  205POPC   NC3 2822   5.753   8.289   4.048
  205POPC   PO4 2823   6.154   7.778   3.958
  205POPC   GL1 2824   5.915   7.923   4.378
  205POPC   GL2 2825   5.727   8.272   4.526
  205POPC   C1A 2826   6.022   8.054   4.820
  205POPC   D2A 2827   5.785   8.322   5.129
  205POPC   C3A 2828   5.927   8.244   5.577
  205POPC   C4A 2829   6.014   7.970   5.946
  205POPC   C1B 2830   5.515   7.956   4.760
  205POPC   C2B 2831   5.366   7.987   5.175
  205POPC   C3B 2832   5.462   8.007   5.609
  205POPC   C4B 2833   5.520   7.870   6.035
  206POPC   NC3 2834   9.612   9.165   4.068
  206POPC   PO4 2835   0.005   8.669   3.911
  206POPC   GL1 2836   9.969   8.911   4.292
  206POPC   GL2 2837   9.696   8.710   4.356
  206POPC   C1A 2838   9.933   9.079   4.718
  206POPC   D2A 2839   0.219   9.134   5.067
  206POPC   C3A 2840   0.114   9.336   5.443
  206POPC   C4A 2841   9.830   9.240   5.773
  206POPC   C1B 2842   9.531   8.758   4.765
  206POPC   C2B 2843   9.541   8.821   5.213
  206POPC   C3B 2844   9.540   8.837   5.652
  206POPC   C4B 2845   9.293   8.673   5.973
  207POPC   NC3 2846   2.896   1.346   4.065
  207POPC   PO4 2847   2.330   1.008   3.980
  207POPC   GL1 2848   2.627   0.994   4.333
  207POPC   GL2 2849   2.738   1.282   4.537
  207POPC   C1A 2850   2.565   0.882   4.797
  207POPC   D2A 2851   2.717   1.116   5.091
  207POPC   C3A 2852   2.429   1.058   5.397
  207POPC   C4A 2853   2.493   0.934   5.818
  207POPC   C1B 2854   3.079   1.361   4.788
  207POPC   C2B 2855   3.234   1.115   5.090
  207POPC   C3B 2856   3.129   1.152   5.512
  207POPC   C4B 2857   2.901   1.204   5.899
  208POPC   NC3 2858   6.395   9.002   4.169
  208POPC   PO4 2859   6.944   8.892   3.862
  208POPC   GL1 2860   6.784   8.762   4.350
  208POPC   GL2 2861   6.687   9.125   4.581
  208POPC   C1A 2862   6.604   8.702   4.790
  208POPC   D2A 2863   6.681   8.522   5.188
  208POPC   C3A 2864   6.747   8.695   5.567
  208POPC   C4A 2865   6.769   8.619   6.001
  208POPC   C1B 2866   6.321   9.162   4.845
  208POPC   C2B 2867   6.370   9.147   5.265
  208POPC   C3B 2868   6.657   9.204   5.556
  208POPC   C4B 2869   6.450   8.982   5.858
  209POPC   NC3 2870   2.958   5.742   4.043
  209POPC   PO4 2871   2.295   5.766   3.947
  209POPC   GL1 2872   2.436   5.877   4.317
  209POPC   GL2 2873   2.744   6.072   4.374
  209POPC   C1A 2874   2.558   5.728   4.704
  209POPC   D2A 2875   2.544   5.984   5.053
  209POPC   C3A 2876   2.541   5.768   5.424
  209POPC   C4A 2877   2.554   5.713   5.852
  209POPC   C1B 2878   2.987   6.055   4.788
  209POPC   C2B 2879   3.004   5.930   5.259
  209POPC   C3B 2880   2.990   5.986   5.715
  209POPC   C4B 2881   3.243   5.976   6.140
  210POPC   NC3 2882   1.232   7.456   3.903
  210POPC   PO4 2883   0.938   6.857   4.011
  210POPC   GL1 2884   1.131   7.137   4.301
  210POPC   GL2 2885   1.011   7.503   4.356
  210POPC   C1A 2886   1.226   7.195   4.727
  210POPC   D2A 2887   1.143   7.303   5.153
  210POPC   C3A 2888   1.254   7.102   5.556
  210POPC   C4A 2889   1.373   6.926   5.982
  210POPC   C1B 2890   0.934   7.630   4.785
  210POPC   C2B 2891   1.183   7.813   5.135
  210POPC   C3B 2892   1.227   7.636   5.531
  210POPC   C4B 2893   1.458   7.464   5.877
  211POPC   NC3 2894   2.121   7.650   4.315
  211POPC   PO4 2895   1.681   7.306   3.927
  211POPC   GL1 2896   1.835   7.118   4.285
  211POPC   GL2 2897   2.175   7.093   4.360
  211POPC   C1A 2898   1.740   7.176   4.699
  211POPC   D2A 2899   1.567   7.492   4.952
  211POPC   C3A 2900   1.643   7.389   5.368
  211POPC   C4A 2901   1.878   7.210   5.703
  211POPC   C1B 2902   2.233   7.270   4.782
  211POPC   C2B 2903   2.055   7.561   5.051
  211POPC   C3B 2904   2.150   7.599   5.460
  211POPC   C4B 2905   2.517   7.612   5.688
  212POPC   NC3 2906   9.500   1.891   3.965
  212POPC   PO4 2907   9.582   2.489   4.071
  212POPC   GL1 2908   9.677   2.151   4.402
  212POPC   GL2 2909   9.887   1.825   4.353
  212POPC   C1A 2910   9.718   2.065   4.857
  212POPC   D2A 2911   9.832   2.136   5.285
  212POPC   C3A 2912   9.494   2.153   5.565
  212POPC   C4A 2913   9.316   1.994   5.952
  212POPC   C1B 2914   9.687   1.569   4.706
  212POPC   C2B 2915   9.521   1.643   5.156
  212POPC   C3B 2916   9.563   1.632   5.607
  212POPC   C4B 2917   9.864   1.779   5.903
  213POPC   NC3 2918   2.036   5.360   3.982
  213POPC   PO4 2919   2.472   4.883   4.044
  213POPC   GL1 2920   2.214   5.098   4.398
  213POPC   GL2 2921   1.834   5.098   4.385
  213POPC   C1A 2922   2.034   5.441   4.716
  213POPC   D2A 2923   1.693   5.465   5.067
  213POPC   C3A 2924   1.846   5.487   5.504
  213POPC   C4A 2925   2.244   5.366   5.679
  213POPC   C1B 2926   1.686   4.766   4.644
  213POPC   C2B 2927   1.783   4.660   5.061
  213POPC   C3B 2928   1.792   4.652   5.486
  213POPC   C4B 2929   2.116   4.856   5.727
  214POPC   NC3 2930   1.306   8.445   4.032
  214POPC   PO4 2931   0.928   7.853   3.960
  214POPC   GL1 2932   1.113   8.058   4.334
  214POPC   GL2 2933   1.501   8.115   4.362
  214POPC   C1A 2934   1.008   8.146   4.773
  214POPC   D2A 2935   0.713   7.989   5.130
  214POPC   C3A 2936   0.903   8.072   5.537
  214POPC   C4A 2937   1.161   7.935   5.917
  214POPC   C1B 2938   1.488   8.411   4.722
  214POPC   C2B 2939   1.299   8.361   5.140
  214POPC   C3B 2940   1.399   8.214   5.546
  214POPC   C4B 2941   1.683   8.351   5.846
  215POPC   NC3 2942   5.199   8.685   3.594
  215POPC   PO4 2943   4.796   8.971   4.026
  215POPC   GL1 2944   4.901   8.823   4.427
  215POPC   GL2 2945   5.204   8.752   4.438
  215POPC   C1A 2946   4.805   8.597   4.790
  215POPC   D2A 2947   4.746   8.799   5.159
  215POPC   C3A 2948   4.728   8.602   5.554
  215POPC   C4A 2949   4.839   8.616   5.960
  215POPC   C1B 2950   5.212   9.166   4.631
  215POPC   C2B 2951   5.102   9.201   5.061
  215POPC   C3B 2952   5.155   8.975   5.444
  215POPC   C4B 2953   5.078   9.049   5.864
  216POPC   NC3 2954   2.893   6.614   3.923
  216POPC   PO4 2955   3.351   7.070   3.938
  216POPC   GL1 2956   3.168   6.866   4.349
  216POPC   GL2 2957   2.897   6.573   4.446
  216POPC   C1A 2958   3.006   6.979   4.789
  216POPC   D2A 2959   2.740   6.662   5.105
  216POPC   C3A 2960   2.797   6.712   5.572
  216POPC   C4A 2961   3.160   6.883   5.790
  216POPC   C1B 2962   2.538   6.382   4.700
  216POPC   C2B 2963   2.259   6.409   5.066
  216POPC   C3B 2964   2.439   6.307   5.433
  216POPC   C4B 2965   2.538   6.281   5.819
  217POPC   NC3 2966   2.847   3.788   3.504
  217POPC   PO4 2967   2.854   4.128   4.074
  217POPC   GL1 2968   2.743   4.311   4.467
  217POPC   GL2 2969   2.562   4.637   4.497
  217POPC   C1A 2970   2.968   4.229   4.856
  217POPC   D2A 2971   2.989   4.286   5.306
  217POPC   C3A 2972   3.033   3.977   5.632
  217POPC   C4A 2973   2.915   4.098   6.095
  217POPC   C1B 2974   2.500   4.415   4.915
  217POPC   C2B 2975   2.508   4.095   5.253
  217POPC   C3B 2976   2.589   4.196   5.699
  217POPC   C4B 2977   2.544   4.615   5.905
  218POPC   NC3 2978   3.096   7.499   4.153
  218POPC   PO4 2979   2.498   7.455   4.178
  218POPC   GL1 2980   2.728   7.266   4.440
  218POPC   GL2 2981   2.667   6.969   4.250
  218POPC   C1A 2982   2.864   7.500   4.791
  218POPC   D2A 2983   2.772   7.792   5.122
  218POPC   C3A 2984   3.015   7.716   5.500
  218POPC   C4A 2985   2.957   7.620   5.935
  218POPC   C1B 2986   2.529   6.882   4.681
  218POPC   C2B 2987   2.618   7.153   5.076
  218POPC   C3B 2988   2.864   7.224   5.445
  218POPC   C4B 2989   2.702   7.162   5.842
  219POPC   NC3 2990   2.485   4.423   4.035
  219POPC   PO4 2991   1.877   4.095   4.200
  219POPC   GL1 2992   2.217   4.205   4.437
  219POPC   GL2 2993   2.090   4.468   4.621
  219POPC   C1A 2994   2.213   4.006   4.829
  219POPC   D2A 2995   1.995   3.913   5.194
  219POPC   C3A 2996   2.218   3.854   5.606
  219POPC   C4A 2997   2.227   3.918   6.081
  219POPC   C1B 2998   1.730   4.226   4.821
  219POPC   C2B 2999   1.531   4.207   5.231
  219POPC   C3B 3000   1.736   4.093   5.592
  219POPC   C4B 3001   2.108   4.336   5.742
  220POPC   NC3 3002   5.552   9.967   4.053
  220POPC   PO4 3003   6.202   0.088   3.857
  220POPC   GL1 3004   6.020   9.957   4.308
  220POPC   GL2 3005   5.782   9.684   4.391
  220POPC   C1A 3006   5.693   0.088   4.669
  220POPC   D2A 3007   5.539   0.051   5.097
  220POPC   C3A 3008   5.783   9.908   5.440
  220POPC   C4A 3009   5.839   9.726   5.834
  220POPC   C1B 3010   5.900   9.631   4.814
  220POPC   C2B 3011   6.036   9.522   5.207
  220POPC   C3B 3012   5.793   9.294   5.525
  220POPC   C4B 3013   5.445   9.387   5.783
  221POPC   NC3 3014   9.765   3.986   4.011
  221POPC   PO4 3015   9.953   4.599   3.978
  221POPC   GL1 3016   9.902   4.323   4.339
  221POPC   GL2 3017   9.596   4.193   4.433
  221POPC   C1A 3018   9.976   4.185   4.769
  221POPC   D2A 3019   9.708   4.118   5.106
  221POPC   C3A 3020   9.815   4.132   5.493
  221POPC   C4A 3021   9.821   4.545   5.654
  221POPC   C1B 3022   9.368   3.988   4.769
  221POPC   C2B 3023   9.232   4.029   5.232
  221POPC   C3B 3024   9.350   4.292   5.621
  221POPC   C4B 3025   9.585   4.194   5.994
  222POPC   NC3 3026   9.341   3.305   4.086
  222POPC   PO4 3027   9.920   3.392   3.808
  222POPC   GL1 3028   9.717   3.568   4.261
  222POPC   GL2 3029   9.924   3.768   4.476
  222POPC   C1A 3030   9.536   3.448   4.675
  222POPC   D2A 3031   9.541   3.612   5.066
  222POPC   C3A 3032   9.594   3.440   5.426
  222POPC   C4A 3033   9.501   3.780   5.684
  222POPC   C1B 3034   0.016   3.488   4.842
  222POPC   C2B 3035   0.070   3.213   5.150
  222POPC   C3B 3036   0.084   3.294   5.545
  222POPC   C4B 3037   9.886   3.493   5.847
  223POPC   NC3 3038   1.204   0.156   4.116
  223POPC   PO4 3039   0.710   0.612   4.210
  223POPC   GL1 3040   1.088   0.432   4.528
  223POPC   GL2 3041   1.463   0.449   4.440
  223POPC   C1A 3042   1.377   0.248   4.887
  223POPC   D2A 3043   1.164   0.225   5.244
  223POPC   C3A 3044   1.271   0.139   5.644
  223POPC   C4A 3045   0.912   0.260   5.903
  223POPC   C1B 3046   1.456   0.742   4.756
  223POPC   C2B 3047   1.196   0.737   5.094
  223POPC   C3B 3048   1.298   0.676   5.499
  223POPC   C4B 3049   1.314   0.578   5.902
  224POPC   NC3 3050   8.045   3.030   3.670
  224POPC   PO4 3051   8.497   3.475   3.924
  224POPC   GL1 3052   8.178   3.391   4.285
  224POPC   GL2 3053   7.984   3.654   4.351
  224POPC   C1A 3054   8.249   3.310   4.741
  224POPC   D2A 3055   8.100   3.486   5.139
  224POPC   C3A 3056   8.083   3.204   5.452
  224POPC   C4A 3057   7.954   3.208   5.867
  224POPC   C1B 3058   7.803   3.600   4.760
  224POPC   C2B 3059   7.696   3.935   5.034
  224POPC   C3B 3060   7.735   3.969   5.459
  224POPC   C4B 3061   8.011   3.685   5.685
  225POPC   NC3 3062   6.560   9.649   3.968
  225POPC   PO4 3063   6.073   9.323   4.242
  225POPC   GL1 3064   6.399   9.562   4.444
  225POPC   GL2 3065   6.559   9.927   4.381
  225POPC   C1A 3066   6.403   9.725   4.834
  225POPC   D2A 3067   6.599   9.629   5.196
  225POPC   C3A 3068   6.351   9.805   5.494
  225POPC   C4A 3069   6.237   9.445   5.703
  225POPC   C1B 3070   6.881   9.859   4.723
  225POPC   C2B 3071   7.082   9.801   5.114
  225POPC   C3B 3072   6.895   9.945   5.475
  225POPC   C4B 3073   6.735   9.678   5.796
  226POPC   NC3 3074   9.914   5.792   4.025
  226POPC   PO4 3075   9.341   5.511   3.796
  226POPC   GL1 3076   9.468   5.508   4.236
  226POPC   GL2 3077   9.479   5.827   4.323
  226POPC   C1A 3078   9.607   5.467   4.706
  226POPC   D2A 3079   9.653   5.667   5.139
  226POPC   C3A 3080   9.671   5.447   5.543
  226POPC   C4A 3081   9.900   5.520   5.939
  226POPC   C1B 3082   9.503   5.982   4.745
  226POPC   C2B 3083   9.877   6.110   4.968
  226POPC   C3B 3084   9.952   6.036   5.406
  226POPC   C4B 3085   9.662   5.935   5.711
  227POPC   NC3 3086   8.965   5.726   3.986
  227POPC   PO4 3087   9.217   6.354   3.937
  227POPC   GL1 3088   9.061   6.107   4.348
  227POPC   GL2 3089   8.822   5.834   4.454
  227POPC   C1A 3090   9.013   6.121   4.818
  227POPC   D2A 3091   9.123   5.797   5.123
  227POPC   C3A 3092   9.069   5.973   5.511
  227POPC   C4A 3093   9.192   6.055   5.899
  227POPC   C1B 3094   8.723   5.624   4.818
  227POPC   C2B 3095   8.719   5.414   5.189
  227POPC   C3B 3096   8.653   5.609   5.544
  227POPC   C4B 3097   8.758   5.814   5.884
  228POPC   NC3 3098   8.488   3.045   4.111
  228POPC   PO4 3099   8.070   2.593   3.850
  228POPC   GL1 3100   8.004   2.571   4.297
  228POPC   GL2 3101   7.939   2.910   4.263
  228POPC   C1A 3102   8.186   2.717   4.702
  228POPC   D2A 3103   8.076   2.780   5.146
  228POPC   C3A 3104   8.411   2.653   5.430
  228POPC   C4A 3105   8.434   2.470   5.868
  228POPC   C1B 3106   7.822   3.072   4.680
  228POPC   C2B 3107   7.683   3.148   5.101
  228POPC   C3B 3108   7.657   2.923   5.511
  228POPC   C4B 3109   8.005   2.724   5.729
  229POPC   NC3 3110   5.915   2.858   3.998
  229POPC   PO4 3111   5.328   3.089   4.197
  229POPC   GL1 3112   5.645   2.914   4.439
  229POPC   GL2 3113   5.629   2.581   4.353
  229POPC   C1A 3114   5.882   3.005   4.822
  229POPC   D2A 3115   6.166   2.921   5.152
  229POPC   C3A 3116   5.988   2.944   5.571
  229POPC   C4A 3117   5.838   2.724   5.961
  229POPC   C1B 3118   5.763   2.476   4.752
  229POPC   C2B 3119   6.037   2.439   5.054
  229POPC   C3B 3120   5.979   2.422   5.481
  229POPC   C4B 3121   5.579   2.415   5.668
  230POPC   NC3 3122   1.284   6.054   3.916
  230POPC   PO4 3123   0.955   5.600   3.827
  230POPC   GL1 3124   1.009   5.833   4.267
  230POPC   GL2 3125   1.381   5.833   4.343
  230POPC   C1A 3126   1.048   6.064   4.688
  230POPC   D2A 3127   0.867   5.996   5.081
  230POPC   C3A 3128   1.093   6.005   5.446
  230POPC   C4A 3129   0.969   6.097   5.833
  230POPC   C1B 3130   1.255   5.604   4.706
  230POPC   C2B 3131   1.124   5.533   5.101
  230POPC   C3B 3132   1.335   5.509   5.449
  230POPC   C4B 3133   1.257   5.657   5.815
  231POPC   NC3 3134   4.958   8.513   4.044
  231POPC   PO4 3135   5.439   7.937   4.089
  231POPC   GL1 3136   5.251   8.245   4.367
  231POPC   GL2 3137   4.884   8.236   4.440
  231POPC   C1A 3138   5.317   8.426   4.808
  231POPC   D2A 3139   5.098   8.431   5.212
  231POPC   C3A 3140   5.259   8.490   5.632
  231POPC   C4A 3141   5.147   8.219   5.962
  231POPC   C1B 3142   4.965   8.060   4.840
  231POPC   C2B 3143   4.866   7.842   5.230
  231POPC   C3B 3144   4.910   7.878   5.673
  231POPC   C4B 3145   5.037   7.732   6.095
  232POPC   NC3 3146   7.150   1.892   3.683
  232POPC   PO4 3147   7.602   2.133   4.094
  232POPC   GL1 3148   7.577   2.115   4.457
  232POPC   GL2 3149   7.645   1.737   4.409
  232POPC   C1A 3150   7.324   2.214   4.809
  232POPC   D2A 3151   7.398   2.093   5.218
  232POPC   C3A 3152   7.087   2.137   5.507
  232POPC   C4A 3153   7.082   2.158   5.973
  232POPC   C1B 3154   7.674   1.838   4.858
  232POPC   C2B 3155   7.773   1.630   5.211
  232POPC   C3B 3156   7.813   1.806   5.565
  232POPC   C4B 3157   7.501   1.968   5.729
  233POPC   NC3 3158   0.462   0.893   3.940
  233POPC   PO4 3159   0.688   1.576   3.945
  233POPC   GL1 3160   0.543   1.263   4.297
  233POPC   GL2 3161   0.193   1.158   4.297
  233POPC   C1A 3162   0.510   1.019   4.717
  233POPC   D2A 3163   0.773   1.029   5.113
  233POPC   C3A 3164   0.774   0.864   5.553
  233POPC   C4A 3165   0.683   1.134   5.919
  233POPC   C1B 3166   0.180   1.406   4.668
  233POPC   C2B 3167   0.453   1.425   5.027
  233POPC   C3B 3168   0.442   1.286   5.458
  233POPC   C4B 3169   0.276   1.442   5.854
  234POPC   NC3 3170   3.030   3.703   3.992
  234POPC   PO4 3171   2.432   3.954   3.671
  234POPC   GL1 3172   2.445   3.823   4.165
  234POPC   GL2 3173   2.591   3.481   4.227
  234POPC   C1A 3174   2.652   3.847   4.643
  234POPC   D2A 3175   2.892   3.784   5.090
  234POPC   C3A 3176   2.678   3.652   5.487
  234POPC   C4A 3177   2.649   3.699   5.927
  234POPC   C1B 3178   2.800   3.365   4.663
  234POPC   C2B 3179   3.069   3.302   5.045
  234POPC   C3B 3180   3.131   3.406   5.492
  234POPC   C4B 3181   2.865   3.249   5.814
  235POPC   NC3 3182   0.433   3.244   3.954
  235POPC   PO4 3183   0.438   2.541   3.892
  235POPC   GL1 3184   0.266   2.814   4.297
  235POPC   GL2 3185   9.977   2.604   4.451
  235POPC   C1A 3186   0.260   2.926   4.765
  235POPC   D2A 3187   0.435   2.833   5.165
  235POPC   C3A 3188   0.278   2.809   5.598
  235POPC   C4A 3189   0.157   3.045   5.980
  235POPC   C1B 3190   9.989   2.509   4.918
  235POPC   C2B 3191   0.314   2.312   5.175
  235POPC   C3B 3192   0.690   2.458   5.398
  235POPC   C4B 3193   0.809   2.766   5.674
  236POPC   NC3 3194   1.896   1.337   4.088
  236POPC   PO4 3195   1.682   0.663   4.054
  236POPC   GL1 3196   1.903   0.871   4.381
  236POPC   GL2 3197   2.202   0.764   4.464
  236POPC   C1A 3198   1.895   0.979   4.837
  236POPC   D2A 3199   1.633   1.000   5.179
  236POPC   C3A 3200   1.800   0.799   5.514
  236POPC   C4A 3201   1.677   0.919   5.887
  236POPC   C1B 3202   2.250   1.230   4.609
  236POPC   C2B 3203   2.192   1.424   5.016
  236POPC   C3B 3204   2.085   1.539   5.437
  236POPC   C4B 3205   2.074   1.194   5.725
  237POPC   NC3 3206   2.715   9.796   3.930
  237POPC   PO4 3207   3.105   9.207   4.148
  237POPC   GL1 3208   2.910   9.455   4.499
  237POPC   GL2 3209   2.604   9.626   4.406
  237POPC   C1A 3210   2.698   9.509   4.936
  237POPC   D2A 3211   2.376   9.360   5.257
  237POPC   C3A 3212   2.508   9.356   5.662
  237POPC   C4A 3213   2.873   9.356   5.789
  237POPC   C1B 3214   2.842   9.925   4.673
  237POPC   C2B 3215   2.898   9.966   5.114
  237POPC   C3B 3216   2.695   9.761   5.432
  237POPC   C4B 3217   2.655   9.815   5.861
  238POPC   NC3 3218   7.789   4.355   4.013
  238POPC   PO4 3219   8.466   4.471   4.001
  238POPC   GL1 3220   8.168   4.533   4.344
  238POPC   GL2 3221   8.162   4.162   4.387
  238POPC   C1A 3222   8.285   4.642   4.777
  238POPC   D2A 3223   8.575   4.424   5.036
  238POPC   C3A 3224   8.409   4.422   5.429
  238POPC   C4A 3225   8.041   4.316   5.693
  238POPC   C1B 3226   8.196   3.940   4.813
  238POPC   C2B 3227   8.220   3.968   5.274
  238POPC   C3B 3228   8.416   3.988   5.696
  238POPC   C4B 3229   8.230   3.954   6.089
  239POPC   NC3 3230   9.567   6.640   3.979
  239POPC   PO4 3231   9.927   6.165   4.289
  239POPC   GL1 3232   9.668   6.507   4.465
  239POPC   GL2 3233   9.842   6.850   4.349
  239POPC   C1A 3234   9.529   6.491   4.898
  239POPC   D2A 3235   9.452   6.192   5.234
  239POPC   C3A 3236   9.472   6.394   5.613
  239POPC   C4A 3237   9.487   6.387   6.089
  239POPC   C1B 3238   9.690   6.968   4.741
  239POPC   C2B 3239   9.698   6.917   5.166
  239POPC   C3B 3240   9.851   7.030   5.549
  239POPC   C4B 3241   9.698   6.801   5.858
  240POPC   NC3 3242   5.629   0.963   4.095
  240POPC   PO4 3243   5.904   1.493   3.727
  240POPC   GL1 3244   5.850   1.463   4.232
  240POPC   GL2 3245   5.558   1.395   4.371
  240POPC   C1A 3246   5.904   1.270   4.695
  240POPC   D2A 3247   6.104   1.105   5.063
  240POPC   C3A 3248   5.848   1.078   5.432
  240POPC   C4A 3249   5.904   0.954   5.836
  240POPC   C1B 3250   5.439   1.522   4.766
  240POPC   C2B 3251   5.694   1.499   5.113
  240POPC   C3B 3252   5.648   1.528   5.517
  240POPC   C4B 3253   5.484   1.260   5.851
  241POPC   NC3 3254   2.136   0.583   3.985
  241POPC   PO4 3255   1.716   0.168   3.607
  241POPC   GL1 3256   1.720   0.127   4.105
  241POPC   GL2 3257   1.957   0.314   4.342
  241POPC   C1A 3258   1.715   9.993   4.593
  241POPC   D2A 3259   1.873   0.022   5.008
  241POPC   C3A 3260   1.697   0.317   5.312
  241POPC   C4A 3261   1.751   0.322   5.767
  241POPC   C1B 3262   1.889   0.469   4.764
  241POPC   C2B 3263   2.122   0.629   5.129
  241POPC   C3B 3264   2.271   0.562   5.543
  241POPC   C4B 3265   2.094   0.660   5.942
  242POPC   NC3 3266   6.460   3.207   3.474
  242POPC   PO4 3267   6.269   3.389   4.042
  242POPC   GL1 3268   6.507   3.277   4.431
  242POPC   GL2 3269   6.897   3.220   4.393
  242POPC   C1A 3270   6.338   3.325   4.871
  242POPC   D2A 3271   6.006   3.402   5.203
  242POPC   C3A 3272   6.261   3.382   5.570
  242POPC   C4A 3273   6.292   3.617   5.971
  242POPC   C1B 3274   6.891   3.408   4.840
  242POPC   C2B 3275   6.790   3.503   5.281
  242POPC   C3B 3276   6.736   3.513   5.717
  242POPC   C4B 3277   6.736   3.300   6.124
  243POPC   NC3 3278   3.503   0.407   3.860
  243POPC   PO4 3279   3.202   0.996   3.963
  243POPC   GL1 3280   3.413   0.706   4.285
  243POPC   GL2 3281   3.634   0.417   4.330
  243POPC   C1A 3282   3.412   0.549   4.749
  243POPC   D2A 3283   3.359   0.144   4.980
  243POPC   C3A 3284   3.247   0.224   5.429
  243POPC   C4A 3285   3.399   0.456   5.794
  243POPC   C1B 3286   3.816   0.243   4.675
  243POPC   C2B 3287   3.782   0.419   5.068
  243POPC   C3B 3288   3.792   0.334   5.446
  243POPC   C4B 3289   3.914   0.353   5.837
  244POPC   NC3 3290   8.725   1.769   3.976
  244POPC   PO4 3291   9.190   2.129   3.739
  244POPC   GL1 3292   9.161   2.121   4.284
  244POPC   GL2 3293   8.964   1.844   4.411
  244POPC   C1A 3294   8.929   2.256   4.743
  244POPC   D2A 3295   8.553   2.263   5.081
  244POPC   C3A 3296   8.701   2.175   5.541
  244POPC   C4A 3297   8.821   2.154   6.036
  244POPC   C1B 3298   9.256   1.855   4.734
  244POPC   C2B 3299   9.217   2.055   5.137
  244POPC   C3B 3300   9.083   1.836   5.511
  244POPC   C4B 3301   8.720   1.728   5.795
  245POPC   NC3 3302   0.345   9.842   4.018
  245POPC   PO4 3303   0.743   9.340   3.886
  245POPC   GL1 3304   0.588   9.426   4.294
  245POPC   GL2 3305   0.314   9.274   4.455
  245POPC   C1A 3306   0.655   9.535   4.745
  245POPC   D2A 3307   0.528   9.567   5.167
  245POPC   C3A 3308   0.809   9.388   5.478
  245POPC   C4A 3309   0.504   9.337   5.800
  245POPC   C1B 3310   0.146   9.564   4.802
  245POPC   C2B 3311   0.110   9.871   5.137
  245POPC   C3B 3312   0.299   9.826   5.543
  245POPC   C4B 3313   0.126   9.661   5.885
  246POPC   NC3 3314   7.330   8.703   3.982
  246POPC   PO4 3315   6.784   9.285   4.133
  246POPC   GL1 3316   7.147   9.093   4.347
  246POPC   GL2 3317   7.464   9.035   4.381
  246POPC   C1A 3318   7.111   8.872   4.744
  246POPC   D2A 3319   6.897   8.990   5.126
  246POPC   C3A 3320   7.169   8.947   5.493
  246POPC   C4A 3321   7.009   9.062   5.900
  246POPC   C1B 3322   7.626   8.888   4.787
  246POPC   C2B 3323   7.641   8.850   5.240
  246POPC   C3B 3324   7.527   8.567   5.580
  246POPC   C4B 3325   7.237   8.585   5.859
  247POPC   NC3 3326   5.706   7.582   3.995
  247POPC   PO4 3327   6.111   7.063   4.011
  247POPC   GL1 3328   6.059   7.410   4.331
  247POPC   GL2 3329   5.750   7.272   4.408
  247POPC   C1A 3330   5.891   7.579   4.788
  247POPC   D2A 3331   5.860   7.808   5.233
  247POPC   C3A 3332   5.800   7.600   5.649
  247POPC   C4A 3333   5.853   7.497   6.093
  247POPC   C1B 3334   6.057   7.106   4.741
  247POPC   C2B 3335   6.164   7.291   5.173
  247POPC   C3B 3336   6.134   7.194   5.630
  247POPC   C4B 3337   5.777   7.024   5.868
  248POPC   NC3 3338   2.754   0.901   3.833
  248POPC   PO4 3339   2.584   0.245   3.942
  248POPC   GL1 3340   2.897   0.556   4.197
  248POPC   GL2 3341   3.095   0.316   4.413
  248POPC   C1A 3342   3.021   0.824   4.603
  248POPC   D2A 3343   3.018   0.637   5.050
  248POPC   C3A 3344   2.840   0.742   5.454
  248POPC   C4A 3345   2.902   0.652   5.900
  248POPC   C1B 3346   2.700   0.411   4.667
  248POPC   C2B 3347   2.575   0.379   5.118
  248POPC   C3B 3348   2.712   0.258   5.546
  248POPC   C4B 3349   2.514   0.309   5.940
  249POPC   NC3 3350   8.786   6.686   3.951
  249POPC   PO4 3351   8.572   6.077   4.093
  249POPC   GL1 3352   8.687   6.449   4.393
  249POPC   GL2 3353   9.065   6.613   4.367
  249POPC   C1A 3354   8.766   6.600   4.814
  249POPC   D2A 3355   9.067   6.541   5.140
  249POPC   C3A 3356   8.843   6.445   5.474
  249POPC   C4A 3357   8.758   6.312   5.868
  249POPC   C1B 3358   9.203   6.841   4.712
  249POPC   C2B 3359   9.204   7.034   5.136
  249POPC   C3B 3360   9.310   6.885   5.537
  249POPC   C4B 3361   9.121   6.650   5.861
  250POPC   NC3 3362   4.817   9.536   3.954
  250POPC   PO4 3363   5.495   9.559   3.816
  250POPC   GL1 3364   5.310   9.538   4.270
  250POPC   GL2 3365   4.999   9.613   4.409
  250POPC   C1A 3366   5.380   9.659   4.731
  250POPC   D2A 3367   5.506   9.522   5.150
  250POPC   C3A 3368   5.278   9.753   5.462
  250POPC   C4A 3369   5.311   9.857   5.901
  250POPC   C1B 3370   4.763   9.434   4.728
  250POPC   C2B 3371   4.872   9.668   5.074
  250POPC   C3B 3372   4.762   9.769   5.461
  250POPC   C4B 3373   4.904   9.533   5.799
  251POPC   NC3 3374   7.175   1.914   4.204
  251POPC   PO4 3375   6.512   1.854   3.931
  251POPC   GL1 3376   6.617   1.795   4.301
  251POPC   GL2 3377   6.283   1.709   4.400
  251POPC   C1A 3378   6.772   1.718   4.705
  251POPC   D2A 3379   6.860   2.018   5.037
  251POPC   C3A 3380   6.740   1.787   5.391
  251POPC   C4A 3381   6.876   1.709   5.797
  251POPC   C1B 3382   6.379   2.057   4.694
  251POPC   C2B 3383   6.349   2.061   5.163
  251POPC   C3B 3384   6.418   2.127   5.604
  251POPC   C4B 3385   6.394   1.839   5.928
  252POPC   NC3 3386   1.555   2.012   3.920
  252POPC   PO4 3387   1.438   1.424   4.047
  252POPC   GL1 3388   1.442   1.753   4.375
  252POPC   GL2 3389   1.229   2.035   4.317
  252POPC   C1A 3390   1.341   1.829   4.840
  252POPC   D2A 3391   1.072   1.687   5.216
  252POPC   C3A 3392   1.201   1.678   5.655
  252POPC   C4A 3393   1.510   1.826   5.958
  252POPC   C1B 3394   1.148   2.297   4.650
  252POPC   C2B 3395   0.996   2.193   5.053
  252POPC   C3B 3396   1.262   2.147   5.394
  252POPC   C4B 3397   1.153   2.357   5.744
  253POPC   NC3 3398   0.219   3.671   4.066
  253POPC   PO4 3399   0.868   3.282   4.104
  253POPC   GL1 3400   0.621   3.196   4.427
  253POPC   GL2 3401   0.469   3.524   4.490
  253POPC   C1A 3402   0.659   3.220   4.848
  253POPC   D2A 3403   0.503   3.496   5.142
  253POPC   C3A 3404   0.580   3.223   5.469
  253POPC   C4A 3405   0.662   3.199   5.875
  253POPC   C1B 3406   0.378   3.873   4.750
  253POPC   C2B 3407   0.146   3.874   5.139
  253POPC   C3B 3408   0.235   3.802   5.535
  253POPC   C4B 3409   0.388   3.599   5.851
  254POPC   NC3 3410   3.888   9.726   3.637
  254POPC   PO4 3411   4.361   9.422   3.860
  254POPC   GL1 3412   4.377   9.366   4.293
  254POPC   GL2 3413   4.493   9.698   4.361
  254POPC   C1A 3414   4.226   9.454   4.729
  254POPC   D2A 3415   4.350   9.595   5.156
  254POPC   C3A 3416   4.124   9.326   5.476
  254POPC   C4A 3417   3.826   9.525   5.769
  254POPC   C1B 3418   4.253   9.965   4.670
  254POPC   C2B 3419   4.053   0.001   5.086
  254POPC   C3B 3420   4.092   9.884   5.519
  254POPC   C4B 3421   4.395   9.627   5.780
  255POPC   NC3 3422   2.648   9.161   4.177
  255POPC   PO4 3423   2.702   8.532   3.915
  255POPC   GL1 3424   2.570   8.647   4.316
  255POPC   GL2 3425   2.907   8.784   4.434
  255POPC   C1A 3426   2.523   8.677   4.763
  255POPC   D2A 3427   2.439   8.509   5.162
  255POPC   C3A 3428   2.435   8.849   5.448
  255POPC   C4A 3429   2.736   8.879   5.746
  255POPC   C1B 3430   2.875   9.060   4.802
  255POPC   C2B 3431   2.825   9.095   5.229
  255POPC   C3B 3432   2.951   8.701   5.330
  255POPC   C4B 3433   3.171   8.543   5.708
  256POPC   NC3 3434   0.317   9.058   3.934
  256POPC   PO4 3435   0.909   8.680   4.089
  256POPC   GL1 3436   0.638   8.889   4.302
  256POPC   GL2 3437   0.396   8.653   4.269
  256POPC   C1A 3438   0.552   8.905   4.720
  256POPC   D2A 3439   0.730   9.111   5.036
  256POPC   C3A 3440   0.572   8.947   5.412
  256POPC   C4A 3441   0.761   8.896   5.812
  256POPC   C1B 3442   0.131   8.610   4.657
  256POPC   C2B 3443   0.248   8.625   5.097
  256POPC   C3B 3444   0.044   8.770   5.460
  256POPC   C4B 3445   0.234   8.916   5.819
  257POPC   NC3 3446   6.338   1.349   3.871
  257POPC   PO4 3447   6.790   0.767   3.920
  257POPC   GL1 3448   6.870   1.058   4.269
  257POPC   GL2 3449   6.600   1.284   4.302
  257POPC   C1A 3450   6.920   1.176   4.715
  257POPC   D2A 3451   7.009   1.023   5.151
  257POPC   C3A 3452   6.887   1.265   5.514
  257POPC   C4A 3453   6.573   1.061   5.804
  257POPC   C1B 3454   6.423   1.325   4.697
  257POPC   C2B 3455   6.579   1.365   5.108
  257POPC   C3B 3456   6.387   1.445   5.520
  257POPC   C4B 3457   6.060   1.445   5.807
  258POPC   NC3 3458   5.182   1.445   3.633
  258POPC   PO4 3459   4.802   0.925   3.905
  258POPC   GL1 3460   5.140   0.977   4.268
  258POPC   GL2 3461   4.950   1.157   4.447
  258POPC   C1A 3462   5.406   0.999   4.672
  258POPC   D2A 3463   5.458   1.026   5.094
  258POPC   C3A 3464   5.073   0.978   5.294
  258POPC   C4A 3465   4.995   1.089   5.700
  258POPC   C1B 3466   4.990   1.249   4.848
  258POPC   C2B 3467   4.859   1.440   5.206
  258POPC   C3B 3468   5.131   1.555   5.536
  258POPC   C4B 3469   5.051   1.526   5.969
  259POPC   NC3 3470   6.428   7.405   3.967
  259POPC   PO4 3471   7.068   7.353   3.987
  259POPC   GL1 3472   7.011   7.390   4.412
  259POPC   GL2 3473   6.705   7.489   4.379
  259POPC   C1A 3474   6.864   7.298   4.835
  259POPC   D2A 3475   6.791   7.528   5.205
  259POPC   C3A 3476   6.770   7.343   5.600
  259POPC   C4A 3477   6.989   6.952   5.662
  259POPC   C1B 3478   6.396   7.501   4.705
  259POPC   C2B 3479   6.350   7.744   5.064
  259POPC   C3B 3480   6.302   7.755   5.527
  259POPC   C4B 3481   6.335   7.539   5.935
  260POPC   NC3 3482   6.032   1.851   3.969
  260POPC   PO4 3483   6.053   2.414   4.088
  260POPC   GL1 3484   5.930   2.108   4.410
  260POPC   GL2 3485   5.642   1.915   4.363
  260POPC   C1A 3486   5.936   1.835   4.795
  260POPC   D2A 3487   5.820   1.991   5.215
  260POPC   C3A 3488   5.927   1.947   5.664
  260POPC   C4A 3489   6.078   2.251   5.976
  260POPC   C1B 3490   5.469   2.048   4.782
  260POPC   C2B 3491   5.399   2.276   5.168
  260POPC   C3B 3492   5.405   1.978   5.509
  260POPC   C4B 3493   5.495   1.766   5.926
  261POPC   NC3 3494   0.675   8.250   4.070
  261POPC   PO4 3495   0.163   7.828   3.919
  261POPC   GL1 3496   0.398   7.859   4.277
  261POPC   GL2 3497   0.255   8.181   4.388
  261POPC   C1A 3498   0.455   7.854   4.712
  261POPC   D2A 3499   0.215   8.102   5.037
  261POPC   C3A 3500   0.303   7.981   5.487
  261POPC   C4A 3501   0.528   8.047   5.887
  261POPC   C1B 3502   0.563   8.371   4.724
  261POPC   C2B 3503   0.735   8.492   5.145
  261POPC   C3B 3504   0.531   8.466   5.575
  261POPC   C4B 3505   0.135   8.378   5.808
  262POPC   NC3 3506   9.905   8.221   3.916
  262POPC   PO4 3507   9.384   7.796   3.803
  262POPC   GL1 3508   9.543   7.979   4.196
  262POPC   GL2 3509   9.851   7.858   4.314
  262POPC   C1A 3510   9.450   7.840   4.654
  262POPC   D2A 3511   9.667   7.913   5.057
  262POPC   C3A 3512   9.450   7.900   5.476
  262POPC   C4A 3513   9.693   7.869   5.851
  262POPC   C1B 3514   9.773   8.236   4.599
  262POPC   C2B 3515   9.804   8.411   5.013
  262POPC   C3B 3516   9.842   8.263   5.409
  262POPC   C4B 3517   9.623   8.354   5.775
  263POPC   NC3 3518   9.631   0.602   4.114
  263POPC   PO4 3519   0.055   0.129   3.786
  263POPC   GL1 3520   9.862   0.174   4.255
  263POPC   GL2 3521   9.546   0.253   4.487
  263POPC   C1A 3522   9.979   0.173   4.699
  263POPC   D2A 3523   9.785   0.322   5.095
  263POPC   C3A 3524   9.971   0.243   5.511
  263POPC   C4A 3525   0.050   0.384   5.956
  263POPC   C1B 3526   9.535   0.655   4.745
  263POPC   C2B 3527   9.349   0.706   5.127
  263POPC   C3B 3528   9.648   0.723   5.438
  263POPC   C4B 3529   9.588   0.477   5.784
  264POPC   NC3 3530   4.308   8.968   3.951
  264POPC   PO4 3531   4.556   8.354   3.874
  264POPC   GL1 3532   4.458   8.602   4.307
  264POPC   GL2 3533   4.109   8.745   4.388
  264POPC   C1A 3534   4.485   8.995   4.632
  264POPC   D2A 3535   4.348   9.095   5.060
  264POPC   C3A 3536   4.658   9.252   5.374
  264POPC   C4A 3537   4.596   9.085   5.759
  264POPC   C1B 3538   4.227   8.630   4.849
  264POPC   C2B 3539   4.277   8.630   5.298
  264POPC   C3B 3540   4.179   8.807   5.683
  264POPC   C4B 3541   3.950   8.776   6.065
  265POPC   NC3 3542   8.362   5.790   3.815
  265POPC   PO4 3543   7.767   5.795   3.993
  265POPC   GL1 3544   7.975   5.641   4.355
  265POPC   GL2 3545   8.278   5.829   4.412
  265POPC   C1A 3546   8.051   5.646   4.835
  265POPC   D2A 3547   8.158   5.832   5.245
  265POPC   C3A 3548   7.866   5.735   5.630
  265POPC   C4A 3549   7.468   5.854   5.926
  265POPC   C1B 3550   8.477   6.079   4.775
  265POPC   C2B 3551   8.650   6.012   5.204
  265POPC   C3B 3552   8.404   6.084   5.603
  265POPC   C4B 3553   8.264   5.825   5.951
  266POPC   NC3 3554   8.781   0.451   3.864
  266POPC   PO4 3555   9.349   0.253   4.033
  266POPC   GL1 3556   9.079   0.489   4.281
  266POPC   GL2 3557   8.728   0.333   4.365
  266POPC   C1A 3558   9.101   0.437   4.691
  266POPC   D2A 3559   9.317   0.168   4.944
  266POPC   C3A 3560   9.344   0.248   5.390
  266POPC   C4A 3561   9.102   0.495   5.660
  266POPC   C1B 3562   8.625   0.555   4.781
  266POPC   C2B 3563   8.867   0.445   5.132
  266POPC   C3B 3564   8.683   0.311   5.445
  266POPC   C4B 3565   8.532   0.602   5.665
  267POPC   NC3 3566   6.523   2.339   3.967
  267POPC   PO4 3567   6.240   2.841   3.665
  267POPC   GL1 3568   6.386   2.836   4.165
  267POPC   GL2 3569   6.710   2.723   4.341
  267POPC   C1A 3570   6.258   2.715   4.622
  267POPC   D2A 3571   6.525   2.491   4.916
  267POPC   C3A 3572   6.465   2.565   5.341
  267POPC   C4A 3573   6.334   2.639   5.775
  267POPC   C1B 3574   6.687   2.945   4.768
  267POPC   C2B 3575   6.665   3.028   5.191
  267POPC   C3B 3576   6.760   2.924   5.601
  267POPC   C4B 3577   6.793   2.473   5.706
  268POPC   NC3 3578   1.071   9.165   4.145
  268POPC   PO4 3579   1.581   9.341   3.752
  268POPC   GL1 3580   1.555   9.133   4.260
  268POPC   GL2 3581   1.352   8.805   4.380
  268POPC   C1A 3582   1.359   9.179   4.712
  268POPC   D2A 3583   1.218   9.312   5.096
  268POPC   C3A 3584   1.466   9.211   5.407
  268POPC   C4A 3585   1.224   9.111   5.729
  268POPC   C1B 3586   1.078   8.743   4.776
  268POPC   C2B 3587   1.095   8.835   5.233
  268POPC   C3B 3588   1.049   8.581   5.559
  268POPC   C4B 3589   1.271   8.644   5.910
  269POPC   NC3 3590   1.741   2.697   4.003
  269POPC   PO4 3591   2.350   2.481   3.894
  269POPC   GL1 3592   2.186   2.477   4.328
  269POPC   GL2 3593   2.090   2.810   4.355
  269POPC   C1A 3594   2.217   2.579   4.817
  269POPC   D2A 3595   2.360   2.672   5.278
  269POPC   C3A 3596   2.132   2.553   5.682
  269POPC   C4A 3597   2.287   2.418   6.107
  269POPC   C1B 3598   1.988   3.034   4.722
  269POPC   C2B 3599   1.927   2.897   5.142
  269POPC   C3B 3600   1.976   3.005   5.549
  269POPC   C4B 3601   1.774   3.184   5.860
  270POPC   NC3 3602   0.549   6.594   3.941
  270POPC   PO4 3603   0.161   6.087   3.743
  270POPC   GL1 3604   0.411   6.181   4.187
  270POPC   GL2 3605   0.274   6.526   4.368
  270POPC   C1A 3606   0.553   6.195   4.631
  270POPC   D2A 3607   0.540   6.508   4.979
  270POPC   C3A 3608   0.682   6.401   5.390
  270POPC   C4A 3609   0.554   6.381   5.826
  270POPC   C1B 3610   0.054   6.582   4.790
  270POPC   C2B 3611   0.026   6.524   5.241
  270POPC   C3B 3612   0.249   6.705   5.576
  270POPC   C4B 3613   0.184   6.797   6.011
  271POPC   NC3 3614   9.798   7.458   3.913
  271POPC   PO4 3615   9.255   7.003   3.987
  271POPC   GL1 3616   9.388   7.152   4.341
  271POPC   GL2 3617   9.415   7.490   4.259
  271POPC   C1A 3618   9.297   7.343   4.741
  271POPC   D2A 3619   9.271   7.575   5.109
  271POPC   C3A 3620   9.247   7.396   5.514
  271POPC   C4A 3621   9.511   7.273   5.861
  271POPC   C1B 3622   9.764   7.440   4.571
  271POPC   C2B 3623   9.777   7.407   5.025
  271POPC   C3B 3624   9.801   7.534   5.463
  271POPC   C4B 3625   9.990   7.438   5.887
  272POPC   NC3 3626   7.035   0.366   4.002
  272POPC   PO4 3627   7.560   0.647   4.227
  272POPC   GL1 3628   7.183   0.653   4.404
  272POPC   GL2 3629   7.106   0.262   4.490
  272POPC   C1A 3630   6.998   0.655   4.785
  272POPC   D2A 3631   7.038   0.307   5.038
  272POPC   C3A 3632   7.167   0.421   5.413
  272POPC   C4A 3633   7.048   0.331   5.830
  272POPC   C1B 3634   7.473   0.336   4.769
  272POPC   C2B 3635   7.826   0.188   5.005
  272POPC   C3B 3636   7.640   0.164   5.402
  272POPC   C4B 3637   7.536   0.484   5.741
  273POPC   NC3 3638   9.627   9.918   3.887
  273POPC   PO4 3639   0.016   9.406   4.066
  273POPC   GL1 3640   9.896   9.684   4.398
  273POPC   GL2 3641   9.579   9.741   4.359
  273POPC   C1A 3642   9.682   9.806   4.843
  273POPC   D2A 3643   9.469   9.767   5.228
  273POPC   C3A 3644   9.756   9.733   5.537
  273POPC   C4A 3645   9.701   9.989   5.887
  273POPC   C1B 3646   9.499   9.378   4.667
  273POPC   C2B 3647   9.670   9.308   5.100
  273POPC   C3B 3648   9.432   9.316   5.488
  273POPC   C4B 3649   9.317   9.639   5.822
  274POPC   NC3 3650   0.555   2.044   3.939
  274POPC   PO4 3651   0.506   2.418   4.453
  274POPC   GL1 3652   0.704   2.017   4.438
  274POPC   GL2 3653   0.431   1.770   4.373
  274POPC   C1A 3654   0.766   1.783   4.809
  274POPC   D2A 3655   0.575   1.869   5.230
  274POPC   C3A 3656   0.802   2.014   5.587
  274POPC   C4A 3657   0.684   2.333   5.955
  274POPC   C1B 3658   0.228   1.901   4.776
  274POPC   C2B 3659   0.022   1.677   5.097
  274POPC   C3B 3660   0.137   1.756   5.483
  274POPC   C4B 3661   0.261   2.150   5.678
  275POPC   NC3 3662   9.552   1.088   3.832
  275POPC   PO4 3663   8.968   0.878   3.840
  275POPC   GL1 3664   9.274   0.972   4.238
  275POPC   GL2 3665   9.659   1.065   4.330
  275POPC   C1A 3666   9.310   1.189   4.668
  275POPC   D2A 3667   9.588   1.154   5.017
  275POPC   C3A 3668   9.361   1.182   5.396
  275POPC   C4A 3669   9.405   0.993   5.795
  275POPC   C1B 3670   9.949   0.943   4.682
  275POPC   C2B 3671   0.099   1.056   5.097
  275POPC   C3B 3672   9.909   1.268   5.455
  275POPC   C4B 3673   9.818   1.257   5.903
  276POPC   NC3 3674   3.685   1.162   4.013
  276POPC   PO4 3675   3.213   1.649   4.170
  276POPC   GL1 3676   3.531   1.473   4.427
  276POPC   GL2 3677   3.342   1.191   4.408
  276POPC   C1A 3678   3.593   1.429   4.881
  276POPC   D2A 3679   3.421   1.587   5.288
  276POPC   C3A 3680   3.534   1.390   5.696
  276POPC   C4A 3681   3.325   1.392   6.130
  276POPC   C1B 3682   3.664   0.983   4.630
  276POPC   C2B 3683   3.694   0.907   5.030
  276POPC   C3B 3684   3.475   0.754   5.376
  276POPC   C4B 3685   3.767   0.831   5.693
  277POPC   NC3 3686   2.380   2.953   3.868
  277POPC   PO4 3687   3.019   3.220   3.964
  277POPC   GL1 3688   2.728   2.973   4.230
  277POPC   GL2 3689   2.754   2.613   4.169
  277POPC   C1A 3690   2.495   2.970   4.617
  277POPC   D2A 3691   2.758   2.839   4.962
  277POPC   C3A 3692   2.773   3.008   5.370
  277POPC   C4A 3693   2.480   2.944   5.703
  277POPC   C1B 3694   2.654   2.480   4.578
  277POPC   C2B 3695   2.631   2.325   4.995
  277POPC   C3B 3696   2.849   2.484   5.352
  277POPC   C4B 3697   2.646   2.459   5.735
  278POPC   NC3 3698   0.518   0.391   3.847
  278POPC   PO4 3699   9.965   0.884   3.930
  278POPC   GL1 3700   0.158   0.617   4.300
  278POPC   GL2 3701   0.351   0.268   4.316
  278POPC   C1A 3702   0.288   0.558   4.761
  278POPC   D2A 3703   0.431   0.657   5.187
  278POPC   C3A 3704   0.244   0.767   5.598
  278POPC   C4A 3705   0.498   0.611   5.961
  278POPC   C1B 3706   0.456   0.016   4.691
  278POPC   C2B 3707   0.563   0.135   5.123
  278POPC   C3B 3708   0.497   0.290   5.568
  278POPC   C4B 3709   0.444   0.072   6.000
  279POPC   NC3 3710   4.079   2.724   4.000
  279POPC   PO4 3711   4.570   2.300   3.968
  279POPC   GL1 3712   4.591   2.639   4.272
  279POPC   GL2 3713   4.376   2.919   4.327
  279POPC   C1A 3714   4.561   2.609   4.738
  279POPC   D2A 3715   4.287   2.589   5.098
  279POPC   C3A 3716   4.467   2.525   5.503
  279POPC   C4A 3717   4.654   2.409   5.880
  279POPC   C1B 3718   4.188   3.018   4.717
  279POPC   C2B 3719   3.958   2.989   5.099
  279POPC   C3B 3720   4.032   2.812   5.514
  279POPC   C4B 3721   4.145   2.604   5.927
  280POPC   NC3 3722   4.277   1.954   3.861
  280POPC   PO4 3723   4.862   1.750   3.761
  280POPC   GL1 3724   4.645   1.855   4.218
  280POPC   GL2 3725   4.649   2.159   4.437
  280POPC   C1A 3726   4.389   1.782   4.619
  280POPC   D2A 3727   4.520   2.092   4.956
  280POPC   C3A 3728   4.356   1.998   5.336
  280POPC   C4A 3729   4.303   2.015   5.773
  280POPC   C1B 3730   4.199   2.267   4.600
  280POPC   C2B 3731   3.988   2.202   5.030
  280POPC   C3B 3732   3.981   2.296   5.504
  280POPC   C4B 3733   3.828   2.184   5.951
  281POPC   NC3 3734   3.568   9.356   4.179
  281POPC   PO4 3735   3.528   9.943   3.808
  281POPC   GL1 3736   3.607   9.895   4.274
  281POPC   GL2 3737   3.314   9.774   4.453
  281POPC   C1A 3738   3.778   9.719   4.691
  281POPC   D2A 3739   3.814   9.523   5.094
  281POPC   C3A 3740   3.588   9.807   5.351
  281POPC   C4A 3741   3.596   9.977   5.748
  281POPC   C1B 3742   3.243   9.610   4.884
  281POPC   C2B 3743   3.137   9.514   5.314
  281POPC   C3B 3744   3.153   9.757   5.695
  281POPC   C4B 3745   3.067   9.681   6.147
  282POPC   NC3 3746   8.602   4.855   3.654
  282POPC   PO4 3747   8.858   5.291   4.100
  282POPC   GL1 3748   9.036   5.359   4.459
  282POPC   GL2 3749   9.094   5.019   4.467
  282POPC   C1A 3750   9.145   5.340   4.886
  282POPC   D2A 3751   9.096   5.056   5.217
  282POPC   C3A 3752   9.117   5.348   5.542
  282POPC   C4A 3753   8.936   5.351   5.944
  282POPC   C1B 3754   8.757   5.012   4.807
  282POPC   C2B 3755   8.601   4.894   5.226
  282POPC   C3B 3756   8.692   5.046   5.611
  282POPC   C4B 3757   8.640   4.955   6.103
  283POPC   NC3 3758   3.576   6.630   4.036
  283POPC   PO4 3759   3.089   6.191   4.027
  283POPC   GL1 3760   3.337   6.337   4.445
  283POPC   GL2 3761   3.589   6.610   4.530
  283POPC   C1A 3762   3.196   6.535   4.865
  283POPC   D2A 3763   3.134   6.410   5.340
  283POPC   C3A 3764   3.421   6.282   5.701
  283POPC   C4A 3765   3.514   6.421   6.145
  283POPC   C1B 3766   3.716   6.667   4.936
  283POPC   C2B 3767   3.695   6.533   5.347
  283POPC   C3B 3768   3.710   6.698   5.769
  283POPC   C4B 3769   3.946   6.719   6.187
  284POPC   NC3 3770   1.149   9.540   3.734
  284POPC   PO4 3771   0.786   0.035   3.962
  284POPC   GL1 3772   0.860   9.863   4.368
  284POPC   GL2 3773   1.074   9.559   4.484
  284POPC   C1A 3774   0.956   9.982   4.778
  284POPC   D2A 3775   0.990   9.758   5.132
  284POPC   C3A 3776   0.830   9.908   5.488
  284POPC   C4A 3777   0.797   9.748   5.845
  284POPC   C1B 3778   1.390   9.692   4.806
  284POPC   C2B 3779   1.486   9.779   5.246
  284POPC   C3B 3780   1.265   9.631   5.608
  284POPC   C4B 3781   1.279   9.660   6.052
  285POPC   NC3 3782   4.394   0.834   3.703
  285POPC   PO4 3783   3.835   0.719   3.948
  285POPC   GL1 3784   4.125   0.559   4.297
  285POPC   GL2 3785   4.498   0.641   4.243
  285POPC   C1A 3786   4.097   0.688   4.746
  285POPC   D2A 3787   4.282   0.526   5.135
  285POPC   C3A 3788   4.236   0.652   5.583
  285POPC   C4A 3789   4.224   0.715   6.085
  285POPC   C1B 3790   4.549   0.421   4.673
  285POPC   C2B 3791   4.582   0.106   5.038
  285POPC   C3B 3792   4.510   0.212   5.472
  285POPC   C4B 3793   4.362   0.138   5.876
  286POPC   NC3 3794   2.285   8.291   3.898
  286POPC   PO4 3795   1.715   8.640   4.033
  286POPC   GL1 3796   2.004   8.471   4.318
  286POPC   GL2 3797   2.037   8.142   4.360
  286POPC   C1A 3798   2.057   8.456   4.766
  286POPC   D2A 3799   1.837   8.410   5.142
  286POPC   C3A 3800   2.044   8.523   5.514
  286POPC   C4A 3801   2.138   8.599   5.953
  286POPC   C1B 3802   1.809   8.004   4.766
  286POPC   C2B 3803   1.672   7.928   5.187
  286POPC   C3B 3804   1.728   7.838   5.589
  286POPC   C4B 3805   2.066   8.046   5.752
  287W        W 3806   8.837   1.860   0.256
  288W        W 3807   4.609   0.968  10.791
  289W        W 3808   8.961   1.367   2.307
  290W        W 3809   0.002   7.990   1.694
  291W        W 3810   8.848   3.464   9.105
  292W        W 3811   7.141   7.409   9.527
  293W        W 3812   0.675   0.250   0.950
  294W        W 3813   3.513   7.660  11.166
  295W        W 3814   1.677   8.397   1.921
  296W        W 3815   8.581   1.759   3.321
  297W        W 3816   6.978   1.984  11.733
  298W        W 3817   2.181   0.751   8.887
  299W        W 3818   7.770   4.002   3.619
  300W        W 3819   4.672   3.683   8.881
  301W        W 3820   1.212   0.936   9.498
  302W        W 3821   5.684   6.385   2.491
  303W        W 3822   6.708   9.080  11.833
  304W        W 3823   8.701   2.678   2.455
  305W        W 3824   6.161   8.176   9.273
  306W        W 3825   4.598   6.783   9.451
  307W        W 3826   4.126   6.741   3.634
  308W        W 3827   5.168   4.678   0.954
  309W        W 3828   0.427   8.494   2.622
  310W        W 3829   7.241   6.032   1.995
  311W        W 3830   8.080   6.340  10.520
  312W        W 3831   4.466   1.863   0.416
  313W        W 3832   6.152   2.712  10.952
  314W        W 3833   2.711   3.274   3.539
  315W        W 3834   6.439   3.045  11.854
  316W        W 3835   7.000   6.929   2.777
  317W        W 3836   8.241   2.076   3.550
  318W        W 3837   5.493   0.540   1.680
  319W        W 3838   4.967   5.157  10.473
  320W        W 3839   2.702   4.689   9.496
  321W        W 3840   5.450   2.280  11.451
  322W        W 3841   2.216   9.346  10.393
  323W        W 3842   9.297   8.834   3.770
  324W        W 3843   3.653   0.503   3.276
  325W        W 3844   6.396   8.389   1.285
  326W        W 3845   8.745   4.497  11.092
  327W        W 3846   4.564   4.156  11.792
  328W        W 3847   9.519   0.686   9.511
  329W        W 3848   5.237   6.596  11.804
  330W        W 3849   8.697   2.262   3.318
  331W        W 3850   7.030   9.229   9.926
  332W        W 3851   3.315   4.638   0.898
  333W        W 3852   9.297   5.212   9.609
  334W        W 3853   5.762   7.961   3.646
  335W        W 3854   2.685   7.024   3.357
  336W        W 3855   2.638   6.634   9.571
  337W        W 3856   5.245   1.211   2.347
  338W        W 3857   1.391   2.110  10.582
  339W        W 3858   4.612   5.103   9.479
  340W        W 3859   0.431   5.928   1.694
  341W        W 3860   8.344   8.507   8.781
  342W        W 3861   6.900   2.810   0.169
  343W        W 3862   3.559   9.094   0.315
  344W        W 3863   4.101   1.830   9.467
  345W        W 3864   1.602   5.186   3.499
  346W        W 3865   0.346   3.414   2.137
  347W        W 3866   9.490   6.242   0.318
  348W        W 3867   3.117   4.736   8.658
  349W        W 3868   3.363   4.190   2.863
  350W        W 3869   2.881   0.462  11.525
  351W        W 3870   5.378   9.842   9.702
  352W        W 3871   7.982   2.408   0.539
  353W        W 3872   4.855   7.677   8.510
  354W        W 3873   4.656   0.926   0.718
  355W        W 3874   9.934   3.330  10.407
  356W        W 3875   9.363   0.627  10.013
  357W        W 3876   5.156   3.280   9.474
  358W        W 3877   7.350   3.575   9.708
  359W        W 3878   0.821   7.488   0.187
  360W        W 3879   3.079   4.138   1.799
  361W        W 3880   8.985   7.404  10.029
  362W        W 3881   0.322   0.821   8.815
  363W        W 3882   3.567   2.370  10.902
  364W        W 3883   4.540   5.198   3.072
  365W        W 3884   9.343   8.442   1.345
  366W        W 3885   1.387   3.563  11.555
  367W        W 3886   4.882   7.059   9.112
  368W        W 3887   0.116   1.080   8.419
  369W        W 3888   4.751   7.837   1.848
  370W        W 3889   9.424   9.654  11.251
  371W        W 3890   6.001   3.264   2.431
  372W        W 3891   5.558   1.732  10.780
  373W        W 3892   5.475   9.868   1.478
  374W        W 3893   2.305   4.030  11.425
  375W        W 3894   4.526   5.043  11.988
  376W        W 3895   2.645   2.167   9.272
  377W        W 3896   2.598   1.069   2.455
  378W        W 3897   6.036   8.063   1.088
  379W        W 3898   2.202   7.937  11.600
  380W        W 3899   4.588   6.181   0.281
  381W        W 3900   8.427   0.201   0.226
  382W        W 3901   3.739   3.363   2.729
  383W        W 3902   2.351   8.054   1.313
  384W        W 3903   3.970   6.369   1.311
  385W        W 3904   7.158   4.704  11.023
  386W        W 3905   9.627   2.362   9.685
  387W        W 3906   4.198   9.913   8.687
  388W        W 3907   6.915   1.471   2.721
  389W        W 3908   4.861   2.743   8.361
  390W        W 3909   3.548   8.092   9.834
  391W        W 3910   9.311   7.551   1.326
  392W        W 3911   1.161   7.340   1.480
  393W        W 3912   4.032   2.860   8.480
  394W        W 3913   2.390   1.565  11.287
  395W        W 3914   8.704   4.837   0.518
  396W        W 3915   2.577   2.679   8.713
  397W        W 3916   0.588   9.597  11.552
  398W        W 3917   7.950   9.860  11.378
  399W        W 3918   1.861   2.990   9.932
  400W        W 3919   5.255   2.684  11.204
  401W        W 3920   0.414   8.640  11.180
  402W        W 3921   5.041   5.564   8.798
  403W        W 3922   2.717   8.085   3.043
  404W        W 3923   0.394   3.235   1.115
  405W        W 3924   3.852   4.616  11.046
  406W        W 3925   1.677   0.457  10.582
  407W        W 3926   6.722   4.714   8.687
  408W        W 3927   4.791   2.396   1.077
  409W        W 3928   7.938   5.189   2.538
  410W        W 3929   4.083   6.156   0.187
  411W        W 3930   8.455   2.145   9.185
  412W        W 3931   5.994   7.393   3.606
  413W        W 3932   5.526   7.386  10.200
  414W        W 3933   2.739   6.655   9.037
  415W        W 3934   8.014   2.364   0.042
  416W        W 3935   3.268   3.177   9.473
  417W        W 3936   5.107   4.512   0.365
  418W        W 3937   8.785   1.768   1.305
  419W        W 3938   0.300   4.599   3.209
  420W        W 3939   1.914   5.365   2.708
  421W        W 3940   2.903   2.592   0.705
  422W        W 3941   3.699   4.049   9.012
  423W        W 3942   0.357   5.535   9.480
  424W        W 3943   4.205   2.777   2.664
  425W        W 3944   1.805   2.555   0.159
  426W        W 3945   5.531   0.065   9.271
  427W        W 3946   1.921   4.209   8.754
  428W        W 3947   2.780   7.625   3.324
  429W        W 3948   3.296   8.573   9.023
  430W        W 3949   6.537   5.130   8.439
  431W        W 3950   9.369   2.851   3.771
  432W        W 3951   9.814   7.797   0.701
  433W        W 3952   3.067   2.238   1.996
  434W        W 3953   0.469   7.442  11.809
  435W        W 3954   8.393   0.696   8.943
  436W        W 3955   4.956   3.565   0.331
  437W        W 3956   8.775   8.956  11.244
  438W        W 3957   4.151   9.902   3.222
  439W        W 3958   6.198   7.579   2.590
  440W        W 3959   3.560   3.667   1.215
  441W        W 3960   2.062   7.415   1.933
  442W        W 3961   6.174   1.403   1.866
  443W        W 3962   8.122   7.410   9.732
  444W        W 3963   9.648   2.837   0.825
  445W        W 3964   2.859   0.954   2.862
  446W        W 3965   8.050   5.617  11.487
  447W        W 3966   7.106   6.715   0.864
  448W        W 3967   9.179   7.422  11.506
  449W        W 3968   7.948   1.634   0.828
  450W        W 3969   6.871   9.485   0.155
  451W        W 3970   0.690   6.632   0.027
  452W        W 3971   4.266   2.099   0.866
  453W        W 3972   8.425   1.376   2.971
  454W        W 3973   2.265   8.057   2.291
  455W        W 3974   1.771   4.958   8.204
  456W        W 3975   9.874   3.597   3.266
  457W        W 3976   6.465   8.357  10.777
  458W        W 3977   4.032   6.181   0.802
  459W        W 3978   4.000   5.095   1.597
  460W        W 3979   8.491   4.663  10.110
  461W        W 3980   8.274   3.677   9.150
  462W        W 3981   3.314   2.043   0.839
  463W        W 3982   5.456   7.488  11.619
  464W        W 3983   0.844   4.601   9.123
  465W        W 3984   6.979   1.265  11.926
  466W        W 3985   0.539   4.441   0.889
  467W        W 3986   9.564   1.868   9.519
  468W        W 3987   8.973   7.053  10.436
  469W        W 3988   0.087   1.224   9.029
  470W        W 3989   5.154   3.504  11.862
  471W        W 3990   9.031   9.038   9.040
  472W        W 3991   3.239   7.387  11.490
  473W        W 3992   1.413   1.387  11.371
  474W        W 3993   1.785   6.062   3.301
  475W        W 3994   4.486   4.534   2.772
  476W        W 3995   9.414   7.698   9.963
  477W        W 3996   9.839   6.140   8.990
  478W        W 3997   6.603   2.108  10.344
  479W        W 3998   7.014   7.951  11.358
  480W        W 3999   7.548   2.612  11.964
  481W        W 4000   6.614   4.267   3.697
  482W        W 4001   7.234   5.627   2.643
  483W        W 4002   4.133   5.705   0.983
  484W        W 4003   0.532   2.721  10.760
  485W        W 4004   6.158   3.184   0.715
  486W        W 4005   8.571   1.065   0.058
  487W        W 4006   6.481   6.819   2.082
  488W        W 4007   6.604   9.803   0.887
  489W        W 4008   8.491   0.567  10.564
  490W        W 4009   0.745   8.409   8.937
  491W        W 4010   1.675   1.445   1.746
  492W        W 4011   5.543   6.657  11.313
  493W        W 4012   5.250   2.939   1.701
  494W        W 4013   6.702   9.987  10.009
  495W        W 4014   3.974   7.918   0.252
  496W        W 4015   4.143   1.776  11.585
  497W        W 4016   7.446   0.321   9.148
  498W        W 4017   6.899   4.129   9.335
  499W        W 4018   3.865   1.748   1.410
  500W        W 4019   2.293   4.610   8.664
  501W        W 4020   2.863   4.124  10.549
  502W        W 4021   5.471   5.187  11.807
  503W        W 4022   2.942   1.183  11.997
  504W        W 4023   9.506   5.091   9.151
  505W        W 4024   4.923   4.162  10.498
  506W        W 4025   4.201   1.459  10.756
  507W        W 4026   2.613   3.920   0.908
  508W        W 4027   3.754   8.800  11.958
  509W        W 4028   6.331   6.159   9.802
  510W        W 4029   9.750   4.628   3.228
  511W        W 4030   4.741   4.949   2.660
  512W        W 4031   2.962   0.787   0.373
  513W        W 4032   4.911   3.683   3.651
  514W        W 4033   8.382   3.862   1.757
  515W        W 4034   1.567   5.116   2.992
  516W        W 4035   2.954   1.390   2.262
  517W        W 4036   9.171   0.847   1.610
  518W        W 4037   2.497   5.269   0.685
  519W        W 4038   3.129   7.520   8.890
  520W        W 4039   3.304   2.089  11.887
  521W        W 4040   8.862   6.358   1.592
  522W        W 4041   0.397   5.425   1.674
  523W        W 4042   8.462   9.806  11.168
  524W        W 4043   3.275   0.971  10.879
  525W        W 4044   6.922   2.478   2.992
  526W        W 4045   4.554   5.477  10.566
  527W        W 4046   3.711   5.427   8.902
  528W        W 4047   1.365   1.762   3.509
  529W        W 4048   0.303   9.739  11.972
  530W        W 4049   5.055   2.903  10.189
  531W        W 4050   5.762   2.556   3.563
  532W        W 4051   9.524   9.757   8.882
  533W        W 4052   9.267   3.729   9.287
  534W        W 4053   7.429   7.152  11.900
  535W        W 4054   2.305   7.405   3.385
  536W        W 4055   1.272   6.460  11.430
  537W        W 4056   0.547   0.340   9.908
  538W        W 4057   1.292   5.377  11.738
  539W        W 4058   5.630   8.620   0.166
  540W        W 4059   4.080   3.815   8.322
  541W        W 4060   1.390   3.535   1.505
  542W        W 4061   1.447   8.633   3.577
  543W        W 4062   2.574   5.381   4.103
  544W        W 4063   2.709   2.649  10.761
  545W        W 4064   8.367   2.679   1.608
  546W        W 4065   6.115   6.345   1.354
  547W        W 4066   6.667   5.721   1.421
  548W        W 4067   4.992   9.581   1.771
  549W        W 4068   8.060   0.191  11.869
  550W        W 4069   7.960   9.673   0.999
  551W        W 4070   1.460   3.566  10.975
  552W        W 4071   1.686   3.302   1.945
  553W        W 4072   7.611   2.337   1.317
  554W        W 4073   7.074   5.552   2.153
  555W        W 4074   9.637   5.317   1.965
  556W        W 4075   1.700   2.768  11.694
  557W        W 4076   8.474   1.480   9.991
  558W        W 4077   3.675   8.847   2.152
  559W        W 4078   5.058   8.054   0.111
  560W        W 4079   7.615   4.603   1.322
  561W        W 4080   2.359   7.038   2.098
  562W        W 4081   7.055   0.664   0.762
  563W        W 4082   5.983   9.969  10.486
  564W        W 4083   8.016   5.162   9.095
  565W        W 4084   5.892   7.536   9.852
  566W        W 4085   0.956   9.508   1.912
  567W        W 4086   1.950   3.100   2.850
  568W        W 4087   9.480   3.396   9.708
  569W        W 4088   6.558   8.863   1.210
  570W        W 4089   7.731   6.170   2.060
  571W        W 4090   5.124   6.951   1.436
  572W        W 4091   0.403   0.831   9.828
  573W        W 4092   4.531   3.084   3.694
  574W        W 4093   1.373   6.150   2.529
  575W        W 4094   7.000   4.546   1.863
  576W        W 4095   9.565   2.948  11.044
  577W        W 4096   1.125   4.667   9.576
  578W        W 4097   0.361   9.573  11.072
  579W        W 4098   6.544   4.294   9.002
  580W        W 4099   4.312   1.125   2.432
  581W        W 4100   9.433   2.920   1.479
  582W        W 4101   9.738   9.335   1.267
  583W        W 4102   9.671   6.089  11.022
  584W        W 4103   0.228   0.459  11.766
  585W        W 4104   6.957   5.117  11.228
  586W        W 4105   4.954   2.354   2.145
  587W        W 4106   1.363   6.484   1.457
  588W        W 4107   5.768   0.190   9.899
  589W        W 4108   6.114   0.846   2.734
  590W        W 4109   5.103   3.133  11.492
  591W        W 4110   8.198   7.144  11.335
  592W        W 4111   1.700   4.530   2.729
  593W        W 4112   3.671   6.487   2.191
  594W        W 4113   2.273   2.403  11.049
  595W        W 4114   8.998   4.717   0.928
  596W        W 4115   6.492   5.114   4.274
  597W        W 4116   1.239   5.281   8.536
  598W        W 4117   3.585   7.318  10.356
  599W        W 4118   2.858   0.893   1.813
  600W        W 4119   8.410   2.248   2.487
  601W        W 4120   2.264   8.847   0.784
  602W        W 4121   9.976   6.201   1.905
  603W        W 4122   5.771   5.912   1.308
  604W        W 4123   6.962   3.813   3.263
  605W        W 4124   4.762   3.330   3.291
  606W        W 4125   4.280   2.717   1.907
  607W        W 4126   9.931   4.609  10.511
  608W        W 4127   3.289   5.543   0.888
  609W        W 4128   4.143   0.492   8.694
  610W        W 4129   0.338   4.165   2.913
  611W        W 4130   0.769   4.269  11.723
  612W        W 4131   1.657   2.294  11.432
  613W        W 4132   1.212   8.035  11.242
  614W        W 4133   4.013   0.283  10.909
  615W        W 4134   5.604   7.888   2.852
  616W        W 4135   0.192   0.040   2.228
  617W        W 4136   1.312   1.226   2.024
  618W        W 4137   2.152   3.719  10.408
  619W        W 4138   8.423   2.889   2.075
  620W        W 4139   5.498   5.700   3.240
  621W        W 4140   8.348   8.527  10.644
  622W        W 4141   6.455   2.542   3.317
  623W        W 4142   9.900   5.707   1.013
  624W        W 4143   6.676   1.743  11.068
  625W        W 4144   5.287   2.022   1.959
  626W        W 4145   5.880   6.019   9.969
  627W        W 4146   7.615   8.275   9.411
  628W        W 4147   2.339   5.854   9.224
  629W        W 4148   7.268   0.749  11.777
  630W        W 4149   4.946   4.066   1.998
  631W        W 4150   3.805   5.507   0.130
  632W        W 4151   7.857   4.992   2.995
  633W        W 4152   7.217   0.006  10.961
  634W        W 4153   6.144   6.871   3.201
  635W        W 4154   5.004   7.429  10.322
  636W        W 4155   0.735   7.398   0.698
  637W        W 4156   9.447   9.962  10.829
  638W        W 4157   7.984   1.194  10.103
  639W        W 4158   5.199   6.773   3.717
  640W        W 4159   4.744   3.785   9.883
  641W        W 4160   5.280   5.323   0.883
  642W        W 4161   7.440   1.265  11.040
  643W        W 4162   2.120   8.000   0.453
  644W        W 4163   9.837   1.493  10.484
  645W        W 4164   5.291   0.977   1.884
  646W        W 4165   2.894   8.363  10.835
  647W        W 4166   6.071   8.543  10.410
  648W        W 4167   9.972   9.358   9.563
  649W        W 4168   9.353   6.053   0.770
  650W        W 4169   7.039   0.923   1.211
  651W        W 4170   4.707   4.610   1.250
  652W        W 4171   8.334   2.080   2.984
  653W        W 4172   9.468   8.489   9.773
  654W        W 4173   1.764   3.692   0.245
  655W        W 4174   7.194   3.547  11.953
  656W        W 4175   6.962   0.402   0.325
  657W        W 4176   4.189   3.531  11.959
  658W        W 4177   9.303   3.492   0.322
  659W        W 4178   8.817   6.627   9.189
  660W        W 4179   3.666   5.440   1.247
  661W        W 4180   2.880   9.382   3.288
  662W        W 4181   9.747   1.879   9.006
  663W        W 4182   2.344   7.646  11.053
  664W        W 4183   6.966   5.113   4.047
  665W        W 4184   5.525   9.469   1.154
  666W        W 4185   9.188   3.279   1.787
  667W        W 4186   4.589   5.919   3.166
  668W        W 4187   0.311   7.105   9.751
  669W        W 4188   1.938   6.395   1.724
  670W        W 4189   2.045   0.380  10.966
  671W        W 4190   2.733   0.412   1.157
  672W        W 4191   3.830   2.893  11.251
  673W        W 4192   5.775   9.072   9.264
  674W        W 4193   5.538   7.175   0.423
  675W        W 4194   8.078   6.630  11.921
  676W        W 4195   6.082   7.571  10.332
  677W        W 4196   7.612   6.088   0.327
  678W        W 4197   3.061   1.311   3.594
  679W        W 4198   6.577   1.513   0.937
  680W        W 4199   3.600   3.329   3.760
  681W        W 4200   9.437   5.278   1.454
  682W        W 4201   3.617   0.694   1.346
  683W        W 4202   5.012   2.347   1.603
  684W        W 4203   5.706   7.138   3.175
  685W        W 4204   9.873   0.847  11.767
  686W        W 4205   5.239   7.503   0.103
  687W        W 4206   6.583   5.570   9.253
  688W        W 4207   2.292   9.120   0.332
  689W        W 4208   2.134   5.501  11.641
  690W        W 4209   8.811   9.078   2.829
  691W        W 4210   6.814   4.481  10.008
  692W        W 4211   4.032   9.312   2.808
  693W        W 4212   8.443   8.419   3.268
  694W        W 4213   2.220   7.545   2.401
  695W        W 4214   6.451   2.180  10.961
  696W        W 4215   4.239   1.426  10.241
  697W        W 4216   6.479   1.613   2.956
  698W        W 4217   4.670   0.745   1.188
  699W        W 4218   4.138   9.884   1.450
  700W        W 4219   5.447   7.033  11.934
  701W        W 4220   5.148   2.741  10.694
  702W        W 4221   0.066   9.541  11.543
  703W        W 4222   7.962   5.074   0.020
  704W        W 4223   4.255   5.092   2.638
  705W        W 4224   4.469   6.666   3.153
  706W        W 4225   3.910   3.930  10.327
  707W        W 4226   3.965   4.555   4.143
  708W        W 4227   0.839   9.900   9.738
  709W        W 4228   9.373   1.356   0.291
  710W        W 4229   9.793   3.770   0.674
  711W        W 4230   2.776   0.011  10.503
  712W        W 4231   3.160   4.924   8.180
  713W        W 4232   9.917   7.083   9.000
  714W        W 4233   2.387   8.397   9.070
  715W        W 4234   8.749   7.956   3.396
  716W        W 4235   4.213   3.847  11.569
  717W        W 4236   9.406   6.998  10.700
  718W        W 4237   5.665   6.449   1.114
  719W        W 4238   3.372   5.398   0.387
  720W        W 4239   5.638   7.831  10.436
  721W        W 4240   9.036   7.455   2.364
  722W        W 4241   8.616   4.815   3.109
  723W        W 4242   9.796   1.380   3.045
  724W        W 4243   2.779   1.465  11.609
  725W        W 4244   7.688   3.154   3.298
  726W        W 4245   5.038   5.454   3.130
  727W        W 4246   4.438   0.100   2.412
  728W        W 4247   9.554   0.232   9.754
  729W        W 4248   9.745   2.421  10.857
  730W        W 4249   7.648   5.304  11.674
  731W        W 4250   3.127   6.916   1.202
  732W        W 4251   8.861   6.224   0.836
  733W        W 4252   5.125   2.038   1.194
  734W        W 4253   4.212   5.729   3.426
  735W        W 4254   6.692   1.204   3.166
  736W        W 4255   3.829   4.606   0.045
  737W        W 4256   8.402   3.787   2.282
  738W        W 4257   8.144   5.920   1.194
  739W        W 4258   4.485   2.569   1.457
  740W        W 4259   7.164   7.237   0.820
  741W        W 4260   3.871   3.668   9.874
  742W        W 4261   8.896   4.577   0.070
  743W        W 4262   3.555   7.869  10.311
  744W        W 4263   4.035   8.256   1.535
  745W        W 4264   8.975   8.351   2.106
  746W        W 4265   7.530   8.923  10.523
  747W        W 4266   9.074   4.192   0.858
  748W        W 4267   0.315   2.929   3.583
  749W        W 4268   4.764   2.753  11.365
  750W        W 4269   1.780   0.733   2.235
  751W        W 4270   7.797   1.257  10.629
  752W        W 4271   2.833   3.315   2.968
  753W        W 4272   4.145   0.928  11.013
  754W        W 4273   2.801   7.997   1.641
  755W        W 4274   3.621   4.467   9.333
  756W        W 4275   7.573   4.482   3.059
  757W        W 4276   7.887   4.642   0.327
  758W        W 4277   9.892   7.635   2.049
  759W        W 4278   8.386   4.566  11.486
  760W        W 4279   1.506   0.524   9.359
  761W        W 4280   5.142   2.750   2.716
  762W        W 4281   8.737   6.113  11.974
  763W        W 4282   0.068   5.644   9.057
  764W        W 4283   8.953   7.079   9.447
  765W        W 4284   3.337   9.253   1.365
  766W        W 4285   0.462   6.641   9.882
  767W        W 4286   4.588   5.754   2.220
  768W        W 4287   7.903   1.860   1.356
  769W        W 4288   3.230   3.575  11.925
  770W        W 4289   7.033   6.365   8.208
  771W        W 4290   2.332   2.135  10.095
  772W        W 4291   7.011   6.401   8.735
  773W        W 4292   5.040   9.927   9.289
  774W        W 4293   2.314   1.897  10.889
  775W        W 4294   8.860   6.180  10.610
  776W        W 4295   7.354   3.173   2.699
  777W        W 4296   5.197   3.881  10.134
  778W        W 4297   2.617   7.999  11.296
  779W        W 4298   5.933   2.244  11.008
  780W        W 4299   9.093   9.203  11.587
  781W        W 4300   7.166   6.489   4.033
  782W        W 4301   8.472   7.895  11.041
  783W        W 4302   9.910   1.225  10.043
  784W        W 4303   1.655   3.760   0.748
  785W        W 4304   0.938   8.813   3.562
  786W        W 4305   2.048   3.455   3.247
  787W        W 4306   9.535   8.065   2.023
  788W        W 4307   9.349   4.785  11.873
  789W        W 4308   3.109   3.711   0.895
  790W        W 4309   2.244   3.762   1.773
  791W        W 4310   8.363   8.741   0.277
  792W        W 4311   5.183   8.727  10.938
  793W        W 4312   6.170   9.892   0.385
  794W        W 4313   5.852   1.633   8.449
  795W        W 4314   2.768   4.395   2.143
  796W        W 4315   2.785   2.111   0.929
  797W        W 4316   0.342   6.080   3.185
  798W        W 4317   6.556   9.287   2.362
  799W        W 4318   9.606   7.501  11.787
  800W        W 4319   4.127   8.909   8.843
  801W        W 4320   2.911   0.422   9.328
  802W        W 4321   8.736   6.422  11.242
  803W        W 4322   2.735   3.633  10.563
  804W        W 4323   5.480   0.872  11.049
  805W        W 4324   5.647   1.677   2.344
  806W        W 4325   5.168   8.884  10.466
  807W        W 4326   1.404   0.260   8.924
  808W        W 4327   5.980   8.045   3.175
  809W        W 4328   6.974   2.558   9.853
  810W        W 4329   3.515   4.648   3.896
  811W        W 4330   3.884   1.354   8.769
  812W        W 4331   9.883   6.851   9.960
  813W        W 4332   3.954   8.041   8.980
  814W        W 4333   6.836   2.821  10.251
  815W        W 4334   1.767   5.668   9.545
  816W        W 4335   8.862   0.924   8.922
  817W        W 4336   0.483   1.695   9.850
  818W        W 4337   3.332   8.476  10.600
  819W        W 4338   4.757   7.524   2.331
  820W        W 4339   3.850   9.797  11.903
  821W        W 4340   2.705   3.699   0.048
  822W        W 4341   5.063   6.374   0.222
  823W        W 4342   3.503   0.659   2.315
  824W        W 4343   5.188   5.690   1.203
  825W        W 4344   8.310   4.287   2.344
  826W        W 4345   6.692   8.488   1.784
  827W        W 4346   3.375   9.396   8.570
  828W        W 4347   7.202   1.980   1.468
  829W        W 4348   3.747   9.018   1.645
  830W        W 4349   8.973   9.859  10.961
  831W        W 4350   3.153   8.351   3.160
  832W        W 4351   0.009   1.709   2.694
  833W        W 4352   6.753   6.000   8.913
  834W        W 4353   0.302   0.018  11.514
  835W        W 4354   4.845   1.806   1.796
  836W        W 4355   6.565   8.745  10.460
  837W        W 4356   1.176   0.379  10.734
  838W        W 4357   6.416   2.791  10.538
  839W        W 4358   2.800   9.238  10.646
  840W        W 4359   6.208   3.700   0.767
  841W        W 4360   0.423   1.359  11.269
  842W        W 4361   4.523   9.207   2.764
  843W        W 4362   6.404   9.299   2.844
  844W        W 4363   5.880   4.621  10.433
  845W        W 4364   9.628   1.761   0.085
  846W        W 4365   6.130   9.039  11.172
  847W        W 4366   2.223   3.838   8.963
  848W        W 4367   7.590   2.585  11.457
  849W        W 4368   2.716   6.842   2.879
  850W        W 4369   1.365   3.897   9.254
  851W        W 4370   0.863   2.921  11.514
  852W        W 4371   2.151   0.990   0.848
  853W        W 4372   6.173   5.942   1.693
  854W        W 4373   0.635   2.851   9.510
  855W        W 4374   4.213   2.775   9.476
  856W        W 4375   9.428   0.617   3.662
  857W        W 4376   7.962   7.370   0.413
  858W        W 4377   9.419   8.592  10.294
  859W        W 4378   5.262   5.483   0.218
  860W        W 4379   2.787   3.329   9.600
  861W        W 4380   8.654   3.454   3.283
  862W        W 4381   8.320   1.979   1.725
  863W        W 4382   3.890   8.525   3.831
  864W        W 4383   8.317   3.247  11.480
  865W        W 4384   9.551   3.010   0.278
  866W        W 4385   3.983   2.343  11.279
  867W        W 4386   8.024   6.012   9.556
  868W        W 4387   3.523   4.265   4.238
  869W        W 4388   7.406   4.795   0.407
  870W        W 4389   5.206   2.299   0.188
  871W        W 4390   3.825   7.864   9.471
  872W        W 4391   7.764   1.644  10.279
  873W        W 4392   0.952   9.266   9.522
  874W        W 4393   5.044   6.044   8.228
  875W        W 4394   9.473   1.572   9.948
  876W        W 4395   6.556   2.410   0.928
  877W        W 4396   7.059   6.546   1.355
  878W        W 4397   7.551   3.729   1.971
  879W        W 4398   9.080   9.790  10.433
  880W        W 4399   9.932   4.736   0.885
  881W        W 4400   2.171   9.589   2.163
  882W        W 4401   0.365   4.548   1.766
  883W        W 4402   7.306   2.186   3.221
  884W        W 4403   2.186   3.044  11.462
  885W        W 4404   7.833   3.639   9.481
  886W        W 4405   1.320   9.473   2.669
  887W        W 4406   6.381   6.006   4.174
  888W        W 4407   8.636   5.093  10.387
  889W        W 4408   9.025   4.291  10.639
  890W        W 4409   4.534   7.664  11.377
  891W        W 4410   6.481   1.183   2.703
  892W        W 4411   7.979   0.186   0.972
  893W        W 4412   8.352   3.672  10.193
  894W        W 4413   8.967   4.718  10.300
  895W        W 4414   3.177   6.677  10.926
  896W        W 4415   6.447   7.162   3.513
  897W        W 4416   9.266   2.575  10.824
  898W        W 4417   9.923   9.779   9.260
  899W        W 4418   0.678   4.638  10.885
  900W        W 4419   4.179   4.280  10.574
  901W        W 4420   4.701   2.286   9.007
  902W        W 4421   0.256   3.945   2.163
  903W        W 4422   7.101   2.793  10.710
  904W        W 4423   1.756   6.168   1.280
  905W        W 4424   0.217   5.562   8.473
  906W        W 4425   2.445   3.208   0.247
  907W        W 4426   4.822   6.617   1.997
  908W        W 4427   1.483   8.587   2.856
  909W        W 4428   5.162   0.954   3.346
  910W        W 4429   0.800   7.981   0.020
  911W        W 4430   9.280   7.531   2.865
  912W        W 4431   6.569   7.092   3.004
  913W        W 4432   5.022   3.987  11.985
  914W        W 4433   3.061   7.437   2.940
  915W        W 4434   6.912   2.988   2.855
  916W        W 4435   7.581   1.233   0.522
  917W        W 4436   7.677   9.963   0.350
  918W        W 4437   3.203   7.919   2.877
  919W        W 4438   4.233   6.807   1.426
  920W        W 4439   6.108   3.333   9.110
  921W        W 4440   2.603   8.717   2.414
  922W        W 4441   0.938   7.605  11.682
  923W        W 4442   5.059   8.930   9.053
  924W        W 4443   0.974   5.510  10.869
  925W        W 4444   4.431   4.073   1.996
  926W        W 4445   6.057   5.125   9.300
  927W        W 4446   3.818   9.927   1.028
  928W        W 4447   5.637   0.583   0.712
  929W        W 4448   0.623   7.524  10.857
  930W        W 4449   6.681   9.910   0.392
  931W        W 4450   6.736   0.299   3.622
  932W        W 4451   6.229   4.210   8.199
  933W        W 4452   6.492   4.613   0.462
  934W        W 4453   0.508   3.547  11.770
  935W        W 4454   2.625   0.754   0.781
  936W        W 4455   1.982   2.661   9.542
  937W        W 4456   0.187   0.573  10.743
  938W        W 4457   3.342   2.196   3.489
  939W        W 4458   5.747   2.060  10.432
  940W        W 4459   9.966   2.159  11.468
  941W        W 4460   9.802   1.448   8.641
  942W        W 4461   3.305   3.668  11.097
  943W        W 4462   1.246   3.796   1.953
  944W        W 4463   4.704   2.814   0.801
  945W        W 4464   5.013   9.798   1.297
  946W        W 4465   3.992   3.384  10.435
  947W        W 4466   2.590   3.338  11.645
  948W        W 4467   0.031   6.603   8.862
  949W        W 4468   3.298   1.355   9.898
  950W        W 4469   5.311   6.428   0.698
  951W        W 4470   9.354   2.615  11.373
  952W        W 4471   9.634   7.025   3.630
  953W        W 4472   1.693   2.202   2.409
  954W        W 4473   3.290   3.047   2.403
  955W        W 4474   5.758   1.844   2.832
  956W        W 4475   0.292   0.959   3.365
  957W        W 4476   4.726   5.518   2.710
  958W        W 4477   4.362   7.693   1.103
  959W        W 4478   6.216   7.254  11.383
  960W        W 4479   8.650   2.400   9.614
  961W        W 4480   1.393   9.336   9.798
  962W        W 4481   4.956   9.363  10.495
  963W        W 4482   5.840   0.905   1.760
  964W        W 4483   6.543   3.746   3.586
  965W        W 4484   2.636   0.839  10.624
  966W        W 4485   1.844   7.058   0.919
  967W        W 4486   3.101   7.073   2.593
  968W        W 4487   9.852   4.363   1.267
  969W        W 4488   8.493   4.635   1.430
  970W        W 4489   2.241   1.264  10.908
  971W        W 4490   5.857   5.048   1.345
  972W        W 4491   7.497   6.322   1.627
  973W        W 4492   0.755   5.785   3.215
  974W        W 4493   2.896   0.665  11.032
  975W        W 4494   4.141   1.358   1.620
  976W        W 4495   7.335   6.164   9.530
  977W        W 4496   9.017   6.210   2.702
  978W        W 4497   0.517   7.603   3.192
  979W        W 4498   9.779   0.309   2.172
  980W        W 4499   1.971   9.916   0.003
  981W        W 4500   2.224   5.108   1.861
  982W        W 4501   9.171   7.208   3.531
  983W        W 4502   5.759   6.708   2.873
  984W        W 4503   1.757   2.234   1.443
  985W        W 4504   1.651   5.192   1.110
  986W        W 4505   7.414   3.041  11.568
  987W        W 4506   9.398   5.720   1.161
  988W        W 4507   0.867   7.909   8.870
  989W        W 4508   1.767   5.184  11.782
  990W        W 4509   3.234   8.251   0.466
  991W        W 4510   3.041   7.889  11.026
  992W        W 4511   9.564   5.009  10.461
  993W        W 4512   1.851   8.196   2.919
  994W        W 4513   6.096   1.405   2.385
  995W        W 4514   3.344   3.883  11.535
  996W        W 4515   8.866   3.276  10.456
  997W        W 4516   2.905   2.875   3.212
  998W        W 4517   3.077   9.486   2.217
  999W        W 4518   2.774   1.221  10.952
 1000W        W 4519   1.306   3.329   9.282
 1001W        W 4520   7.040   7.938   0.253
 1002W        W 4521   2.400   8.952  11.364
 1003W        W 4522   3.056   6.571   9.899
 1004W        W 4523   6.674   1.288   1.774
 1005W        W 4524   6.987   4.242   2.280
 1006W        W 4525   9.883   8.281   0.848
 1007W        W 4526   5.097   3.749   8.593
 1008W        W 4527   2.104   1.773   0.385
 1009W        W 4528   4.297   8.435   8.924
 1010W        W 4529   7.855   1.736   3.760
 1011W        W 4530   0.612   0.727   1.201
 1012W        W 4531   6.019   8.539   8.941
 1013W        W 4532   3.100   8.544   2.649
 1014W        W 4533   3.013   1.880   0.460
 1015W        W 4534   9.351   7.942   0.037
 1016W        W 4535   9.982   8.433  11.557
 1017W        W 4536   5.676   8.099   1.850
 1018W        W 4537   1.279   4.034  11.460
 1019W        W 4538   9.115   5.210  10.310
 1020W        W 4539   1.274   0.218   2.600
 1021W        W 4540   2.373   6.657   1.759
 1022W        W 4541   4.180   1.857  11.092
 1023W        W 4542   3.996   7.966   3.412
 1024W        W 4543   8.455   1.186   0.542
 1025W        W 4544   9.821   4.579  11.830
 1026W        W 4545   5.689   0.747  11.935
 1027W        W 4546   3.985   4.939   8.779
 1028W        W 4547   6.510   4.656   2.906
 1029W        W 4548   6.168   5.190   3.878
 1030W        W 4549   8.932   6.468   9.683
 1031W        W 4550   9.042   8.551  11.016
 1032W        W 4551   2.712   2.729   0.224
 1033W        W 4552   9.447   4.727   2.812
 1034W        W 4553   8.627   6.052   1.264
 1035W        W 4554   3.059   6.886  11.465
 1036W        W 4555   7.983   2.773   3.000
 1037W        W 4556   2.179   4.529   1.328
 1038W        W 4557   5.535   3.204   0.053
 1039W        W 4558   5.545   2.296   0.556
 1040W        W 4559   9.834   5.230   0.920
 1041W        W 4560   1.215   5.534   3.221
 1042W        W 4561   6.035   3.544  11.393
 1043W        W 4562   2.259   2.845   9.126
 1044W        W 4563   5.510   4.418  10.726
 1045W        W 4564   4.689   8.226   8.637
 1046W        W 4565   0.754   8.564   1.770
 1047W        W 4566   8.702   9.930   2.011
 1048W        W 4567   1.357   9.969   0.831
 1049W        W 4568   3.556   2.020  11.351
 1050W        W 4569   5.601   5.198   3.177
 1051W        W 4570   4.138   8.596  11.230
 1052W        W 4571   6.789   9.380   1.912
 1053W        W 4572   3.472   2.629   0.614
 1054W        W 4573   0.200   4.286  11.494
 1055W        W 4574   5.180   8.010   2.090
 1056W        W 4575   7.527   7.519   2.327
 1057W        W 4576   7.903   0.631   0.765
 1058W        W 4577   4.223   4.233   2.431
 1059W        W 4578   4.250   3.693   1.708
 1060W        W 4579   4.196   9.809  10.748
 1061W        W 4580   7.896   2.945  10.266
 1062W        W 4581   3.205   9.082   9.787
 1063W        W 4582   6.959   6.945   3.298
 1064W        W 4583   8.257   6.408  11.036
 1065W        W 4584   9.456   4.119   0.548
 1066W        W 4585   5.322   4.366  10.260
 1067W        W 4586   6.974   9.482   0.646
 1068W        W 4587   3.843   9.284   2.347
 1069W        W 4588   3.622   1.801   8.649
 1070W        W 4589   9.776   3.829  11.055
 1071W        W 4590   4.865   5.404  11.885
 1072W        W 4591   6.987   8.603  10.784
 1073W        W 4592   9.657   3.839   0.164
 1074W        W 4593   4.169   2.699  10.918
 1075W        W 4594   1.233   6.728  10.561
 1076W        W 4595   0.964   3.264   0.436
 1077W        W 4596   1.779   8.457  11.805
 1078W        W 4597   1.287   9.749   9.541
 1079W        W 4598   5.630   9.006   0.939
 1080W        W 4599   0.200   7.293  11.148
 1081W        W 4600   0.277   5.919  11.825
 1082W        W 4601   7.576   4.679   1.840
 1083W        W 4602   9.813   5.620  11.812
 1084W        W 4603   4.472   2.271  11.606
 1085W        W 4604   8.265   4.645  11.016
 1086W        W 4605   3.577   6.003   2.905
 1087W        W 4606   4.215   6.992   9.698
 1088W        W 4607   5.270   0.579  11.427
 1089W        W 4608   1.028   1.550   1.731
 1090W        W 4609   5.413   1.210   9.236
 1091W        W 4610   6.767   8.385  11.187
 1092W        W 4611   1.853   2.296   9.911
 1093W        W 4612   8.913   5.689  10.446
 1094W        W 4613   7.117   3.567   0.882
 1095W        W 4614   9.454   8.390  10.762
 1096W        W 4615   8.054   5.003  11.493
 1097W        W 4616   5.539   0.641  10.039
 1098W        W 4617   2.498   3.651   3.173
 1099W        W 4618   7.617   3.895  10.843
 1100W        W 4619   6.118   4.628   9.487
 1101W        W 4620   9.341   9.500   0.916
 1102W        W 4621   4.699   8.664  10.465
 1103W        W 4622   6.976   8.035   2.721
 1104W        W 4623   9.787   7.364   1.086
 1105W        W 4624   6.973   5.358   0.242
 1106W        W 4625   0.661   6.634   2.174
 1107W        W 4626   3.654   2.466   2.699
 1108W        W 4627   7.518   1.579   1.516
 1109W        W 4628   1.873   9.613   3.306
 1110W        W 4629   3.647   8.482   1.766
 1111W        W 4630   3.695   4.212  10.763
 1112W        W 4631   3.751   8.894   2.666
 1113W        W 4632   6.589   6.574   3.274
 1114W        W 4633   8.924   6.505  11.730
 1115W        W 4634   0.431   8.451   9.366
 1116W        W 4635   3.126   9.850   2.630
 1117W        W 4636   0.539   0.469   3.342
 1118W        W 4637   1.181   8.858   0.331
 1119W        W 4638   8.534   5.460  10.776
 1120W        W 4639   6.013   5.509   3.318
 1121W        W 4640   3.690   9.590   8.923
 1122W        W 4641   0.826   8.938  11.442
 1123W        W 4642   4.237   0.658  10.590
 1124W        W 4643   2.149   6.514  11.446
 1125W        W 4644   0.954   4.997  10.475
 1126W        W 4645   6.469   8.225  11.548
 1127W        W 4646   3.811   5.971  10.768
 1128W        W 4647   9.801   4.062  11.716
 1129W        W 4648   0.679   7.573   2.715
 1130W        W 4649   3.164   7.407   0.865
 1131W        W 4650   0.051   5.404   2.921
 1132W        W 4651   1.441   2.952   0.186
 1133W        W 4652   3.675   5.963   0.452
 1134W        W 4653   8.526   8.970   8.961
 1135W        W 4654   9.751   6.530   9.308
 1136W        W 4655   9.109   5.727   2.833
 1137W        W 4656   8.470   2.754  11.468
 1138W        W 4657   6.931   4.962  10.175
 1139W        W 4658   1.653   3.501  10.509
 1140W        W 4659   8.610   3.970   0.876
 1141W        W 4660   7.442   9.456  11.745
 1142W        W 4661   0.338   2.604   9.944
 1143W        W 4662   5.596   7.112   1.193
 1144W        W 4663   8.839   1.331   3.295
 1145W        W 4664   9.944   0.051   8.801
 1146W        W 4665   4.920   3.322   1.526
 1147W        W 4666   4.825   3.080   4.117
 1148W        W 4667   3.065   6.191   2.183
 1149W        W 4668   7.971   3.893   1.418
 1150W        W 4669   3.127   3.339   2.011
 1151W        W 4670   0.638   9.790   2.223
 1152W        W 4671   1.356   9.323   2.187
 1153W        W 4672   1.165   4.597  10.825
 1154W        W 4673   2.147   9.254   3.543
 1155W        W 4674   4.765   3.692  10.379
 1156W        W 4675   2.150   7.123  10.390
 1157W        W 4676   6.268   6.427   2.416
 1158W        W 4677   1.138   7.159  10.309
 1159W        W 4678   6.940   9.489  11.648
 1160W        W 4679   8.556   7.623   9.886
 1161W        W 4680   2.763   7.886   2.154
 1162W        W 4681   6.147   3.305   1.386
 1163W        W 4682   3.050   9.268   1.770
 1164W        W 4683   4.931   2.258  10.810
 1165W        W 4684   8.920   6.660   1.167
 1166W        W 4685   1.221   6.153  11.024
 1167W        W 4686   6.469   2.631   9.558
 1168W        W 4687   1.775   5.194   9.142
 1169W        W 4688   3.224   5.142   2.344
 1170W        W 4689   6.869   7.159  11.895
 1171W        W 4690   7.445   9.883  11.403
 1172W        W 4691   0.708   6.086  10.215
 1173W        W 4692   6.071   9.991   2.663
 1174W        W 4693   9.279   3.656   0.823
 1175W        W 4694   7.572   7.600   0.147
 1176W        W 4695   3.031   2.852   1.379
 1177W        W 4696   0.744   2.630   0.764
 1178W        W 4697   3.773   6.710   8.810
 1179W        W 4698   5.546   4.547   0.630
 1180W        W 4699   3.894   4.038   0.840
 1181W        W 4700   4.563   8.130   0.294
 1182W        W 4701   9.892   9.150   0.298
 1183W        W 4702   1.940   8.698   3.044
 1184W        W 4703   8.887   3.954   3.225
 1185W        W 4704   7.671   1.466   2.951
 1186W        W 4705   4.625   3.992  11.317
 1187W        W 4706   4.881   2.194   2.617
 1188W        W 4707   3.635   3.399   2.202
 1189W        W 4708   3.209   3.226   3.422
 1190W        W 4709   9.740   1.472   3.566
 1191W        W 4710   0.356   9.455   9.236
 1192W        W 4711   2.637   0.587   2.590
 1193W        W 4712   3.148   7.591  11.954
 1194W        W 4713   2.609   6.199   1.661
 1195W        W 4714   7.316   8.975   9.594
 1196W        W 4715   5.560   8.326  10.272
 1197W        W 4716   6.900   4.648  11.480
 1198W        W 4717   8.521   3.511   0.153
 1199W        W 4718   4.495   8.288   2.733
 1200W        W 4719   3.743   8.273  11.927
 1201W        W 4720   7.136   8.647  11.832
 1202W        W 4721   7.858   9.264   8.697
 1203W        W 4722   2.085   6.477  10.005
 1204W        W 4723   3.719   8.103   0.646
 1205W        W 4724   1.644   4.645   1.283
 1206W        W 4725   1.796   1.690   8.555
 1207W        W 4726   5.204   3.223   2.469
 1208W        W 4727   3.772   6.403   7.860
 1209W        W 4728   5.070   8.052  10.131
 1210W        W 4729   9.611   3.301   0.670
 1211W        W 4730   8.249   5.310   1.913
 1212W        W 4731   1.256   0.777  10.368
 1213W        W 4732   8.787   6.435   3.503
 1214W        W 4733   8.781   3.814   9.929
 1215W        W 4734   9.433   8.026   1.011
 1216W        W 4735   6.451   6.016  11.981
 1217W        W 4736   4.156   4.879  11.375
 1218W        W 4737   0.427   6.213   2.690
 1219W        W 4738   3.598   4.073   0.260
 1220W        W 4739   0.838   2.597   9.107
 1221W        W 4740   8.640   7.474  11.879
 1222W        W 4741   8.416   1.376   1.019
 1223W        W 4742   6.081   0.004  11.382
 1224W        W 4743   2.745   9.697  10.887
 1225W        W 4744   9.105   4.166   9.073
 1226W        W 4745   9.269   7.401   8.688
 1227W        W 4746   6.305   1.734   0.265
 1228W        W 4747   6.660   1.669  10.054
 1229W        W 4748   1.029   4.171   0.187
 1230W        W 4749   2.722   0.403   1.696
 1231W        W 4750   1.857   1.297  11.891
 1232W        W 4751   8.479   7.082   2.534
 1233W        W 4752   1.448   1.798   1.488
 1234W        W 4753   8.577   4.928   1.834
 1235W        W 4754   0.434   2.956   2.348
 1236W        W 4755   9.842   8.019  11.295
 1237W        W 4756   3.515   6.324   0.787
 1238W        W 4757   5.021   0.256  11.838
 1239W        W 4758   7.864   4.531  11.372
 1240W        W 4759   4.169   7.020   0.481
 1241W        W 4760   9.054   2.384  10.397
 1242W        W 4761   6.475   9.790   2.417
 1243W        W 4762   7.466   1.921   1.035
 1244W        W 4763   0.100   2.435  10.459
 1245W        W 4764   2.200   2.372   2.498
 1246W        W 4765   5.768   6.523   9.963
 1247W        W 4766   7.556   8.827   1.396
 1248W        W 4767   2.745   1.671  10.674
 1249W        W 4768   0.697   2.587  10.306
 1250W        W 4769   9.016   1.708  10.846
 1251W        W 4770   4.957   7.034   2.348
 1252W        W 4771   5.735   6.474  11.748
 1253W        W 4772   9.065   5.517   0.314
 1254W        W 4773   7.016   7.647   1.612
 1255W        W 4774   4.575   6.787   8.407
 1256W        W 4775   5.520   3.415   8.953
 1257W        W 4776   8.896   4.960   9.382
 1258W        W 4777   7.404   0.325   1.911
 1259W        W 4778   5.647   8.933  11.063
 1260W        W 4779   3.092   6.057   2.703
 1261W        W 4780   1.653   6.726  11.959
 1262W        W 4781   7.595   3.570   2.484
 1263W        W 4782   2.058   7.839   3.252
 1264W        W 4783   9.235   6.701   3.558
 1265W        W 4784   3.180   8.979   2.317
 1266W        W 4785   8.762   8.453   0.372
 1267W        W 4786   2.592   0.871   1.315
 1268W        W 4787   4.769   8.751   2.696
 1269W        W 4788   3.957   8.028  10.976
 1270W        W 4789   2.701   6.207   9.287
 1271W        W 4790   5.427   6.047   9.094
 1272W        W 4791   0.363   8.994   9.492
 1273W        W 4792   9.103   0.955   9.392
 1274W        W 4793   7.603   6.239   3.747
 1275W        W 4794   3.871   3.882   2.158
 1276W        W 4795   0.420   5.136   2.608
 1277W        W 4796   8.940   8.471  10.480
 1278W        W 4797   9.829   0.434  11.458
 1279W        W 4798   2.764   1.294   8.873
 1280W        W 4799   2.704   8.831   9.085
 1281W        W 4800   8.653   9.433  11.466
 1282W        W 4801   8.834   0.426   9.050
 1283W        W 4802   5.576   3.198   0.564
 1284W        W 4803   8.041   7.143  10.815
 1285W        W 4804   6.206   4.615  10.851
 1286W        W 4805   9.715   8.150  10.236
 1287W        W 4806   3.051   9.136   2.812
 1288W        W 4807   1.424   1.781  11.022
 1289W        W 4808   0.385   3.366  11.295
 1290W        W 4809   9.757   1.256   0.973
 1291W        W 4810   6.898   0.441   1.307
 1292W        W 4811   2.030   5.190   3.194
 1293W        W 4812   2.161   2.287   0.432
 1294W        W 4813   4.299   9.436   8.457
 1295W        W 4814   0.214   1.509   3.355
 1296W        W 4815   1.872   5.201   9.710
 1297W        W 4816   9.984   5.065  10.751
 1298W        W 4817   6.952   2.091   1.038
 1299W        W 4818   2.160   6.557   9.035
 1300W        W 4819   3.888   4.195   2.938
 1301W        W 4820   3.758   2.156   9.022
 1302W        W 4821   0.659   7.175  10.439
 1303W        W 4822   7.455   7.153   0.398
 1304W        W 4823   8.099   3.304   9.920
 1305W        W 4824   0.235   2.918  10.354
 1306W        W 4825   5.255   0.710   2.498
 1307W        W 4826   8.961   0.180   0.941
 1308W        W 4827   3.802   8.528   9.055
 1309W        W 4828   7.142   4.009   1.805
 1310W        W 4829   2.803   1.782   1.954
 1311W        W 4830   8.375   7.098   3.050
 1312W        W 4831   7.359   9.802  10.522
 1313W        W 4832   3.746   0.536   2.762
 1314W        W 4833   9.388   0.604  11.687
 1315W        W 4834   3.169   4.897  11.628
 1316W        W 4835   4.745   3.156   8.056
 1317W        W 4836   3.272   4.194   3.770
 1318W        W 4837   6.972   3.686  10.082
 1319W        W 4838   6.420   8.995   9.915
 1320W        W 4839   0.012   6.482  10.894
 1321W        W 4840   5.097   2.747   9.703
 1322W        W 4841   8.029   8.554   3.565
 1323W        W 4842   6.917   3.308   2.444
 1324W        W 4843   3.865   7.123   3.836
 1325W        W 4844   1.735   9.641  10.460
 1326W        W 4845   6.667   1.684   1.432
 1327W        W 4846   2.162   7.531   8.852
 1328W        W 4847   4.964   9.030   0.407
 1329W        W 4848   9.843   0.401   0.591
 1330W        W 4849   8.899   7.647  11.153
 1331W        W 4850   5.633   9.818  11.507
 1332W        W 4851   5.053   3.033   0.006
 1333W        W 4852   7.580   0.703   3.286
 1334W        W 4853   3.992   3.244   1.859
 1335W        W 4854   7.358   3.079   0.082
 1336W        W 4855   0.746   0.535   9.008
 1337W        W 4856   2.553   1.327   9.347
 1338W        W 4857   9.268   1.445   9.489
 1339W        W 4858   0.831   1.805  11.741
 1340W        W 4859   7.048   9.717   9.729
 1341W        W 4860   0.272   9.909   9.597
 1342W        W 4861   6.081   7.992   9.733
 1343W        W 4862   3.261   8.976  10.746
 1344W        W 4863   1.575   0.785   1.337
 1345W        W 4864   8.515   3.596   2.770
 1346W        W 4865   1.397   7.037   9.021
 1347W        W 4866   0.704   7.525   2.202
 1348W        W 4867   8.482   3.635  11.183
 1349W        W 4868   3.472   5.479  11.719
 1350W        W 4869   2.290   3.208  10.136
 1351W        W 4870   0.843   6.372   1.402
 1352W        W 4871   3.534   5.760   9.774
 1353W        W 4872   8.927   1.366   2.811
 1354W        W 4873   2.663   8.494  11.298
 1355W        W 4874   1.838   9.262   2.408
 1356W        W 4875   4.525   2.368  10.050
 1357W        W 4876   7.852   3.204   2.798
 1358W        W 4877   2.267   3.790  10.931
 1359W        W 4878   1.427   9.284  11.992
 1360W        W 4879   7.351   7.959  11.848
 1361W        W 4880   4.677   1.429   0.182
 1362W        W 4881   7.416   8.447   1.680
 1363W        W 4882   4.061   2.853  10.416
 1364W        W 4883   5.683   4.166   1.571
 1365W        W 4884   3.692   0.373   0.749
 1366W        W 4885   1.728   9.997  10.828
 1367W        W 4886   9.003   7.001   8.903
 1368W        W 4887   0.987   4.114   8.973
 1369W        W 4888   9.423   0.408   0.907
 1370W        W 4889   6.518   8.010   2.514
 1371W        W 4890   2.160   0.374  10.453
 1372W        W 4891   5.232   8.983  11.388
 1373W        W 4892   2.923   3.887   8.421
 1374W        W 4893   1.847   5.422  10.806
 1375W        W 4894   2.278   3.520   1.307
 1376W        W 4895   4.379   4.012   0.653
 1377W        W 4896   4.090   6.048   3.057
 1378W        W 4897   9.095   4.996  11.230
 1379W        W 4898   1.930   7.049   8.979
 1380W        W 4899   6.580   5.509   2.374
 1381W        W 4900   8.555   3.747  11.683
 1382W        W 4901   6.989   1.887  10.615
 1383W        W 4902   5.811   2.622  11.332
 1384W        W 4903   7.431   8.178   2.945
 1385W        W 4904   6.267   6.113  10.300
 1386W        W 4905   6.507   5.746  11.041
 1387W        W 4906   3.065   2.153  11.427
 1388W        W 4907   4.328   7.582   3.209
 1389W        W 4908   7.693   4.655   0.811
 1390W        W 4909   6.681   4.189   1.675
 1391W        W 4910   4.026   2.291   1.817
 1392W        W 4911   4.774   9.564   2.496
 1393W        W 4912   0.962   1.228  10.397
 1394W        W 4913   4.469   7.425   1.913
 1395W        W 4914   4.921   7.969   3.955
 1396W        W 4915   9.374   9.703  11.778
 1397W        W 4916   4.689   2.303   0.601
 1398W        W 4917   5.349   3.428   1.829
 1399W        W 4918   1.213   0.983   0.476
 1400W        W 4919   8.246   5.622   2.555
 1401W        W 4920   0.014   0.199   1.730
 1402W        W 4921   3.569   6.910   2.490
 1403W        W 4922   1.335   4.618   0.319
 1404W        W 4923   2.964   4.650  10.527
 1405W        W 4924   8.704   7.243  11.407
 1406W        W 4925   0.728   2.111  11.106
 1407W        W 4926   1.097   3.115   3.128
 1408W        W 4927   1.038   8.407   9.356
 1409W        W 4928   1.870   7.077   2.336
 1410W        W 4929   4.592   4.171   9.099
 1411W        W 4930   6.088   7.110   0.878
 1412W        W 4931   9.229   5.216   2.796
 1413W        W 4932   4.207   6.370   9.505
 1414W        W 4933   2.471   1.687   1.130
 1415W        W 4934   4.290   3.763   9.625
 1416W        W 4935   5.897   9.475   2.985
 1417W        W 4936   8.454   6.573   1.372
 1418W        W 4937   1.413   7.092   9.888
 1419W        W 4938   3.102   9.513  10.024
 1420W        W 4939   4.160   0.382   9.207
 1421W        W 4940   3.297   1.137   1.311
 1422W        W 4941   3.134   6.554   9.401
 1423W        W 4942   8.909   4.654   9.796
 1424W        W 4943   2.210   0.143   0.433
 1425W        W 4944   3.237   1.744   2.676
 1426W        W 4945   0.344   4.004  11.876
 1427W        W 4946   5.424   5.732  10.267
 1428W        W 4947   8.866   7.961   0.227
 1429W        W 4948   2.594   9.986   1.369
 1430W        W 4949   5.530   4.043   3.367
 1431W        W 4950   3.548   0.874   0.850
 1432W        W 4951   0.086   3.146   3.174
 1433W        W 4952   5.501   1.213  10.662
 1434W        W 4953   7.791   7.418   1.285
 1435W        W 4954   4.730   4.000   1.555
 1436W        W 4955   4.054   8.071   9.937
 1437W        W 4956   8.572   5.377   0.670
 1438W        W 4957   5.057   4.649  10.669
 1439W        W 4958   9.750   8.623   2.846
 1440W        W 4959   9.027   5.494  11.365
 1441W        W 4960   9.997   3.067  11.985
 1442W        W 4961   2.267   1.270   1.468
 1443W        W 4962   6.952   6.838  10.167
 1444W        W 4963   7.640   8.886   1.886
 1445W        W 4964   2.045   1.270   0.398
 1446W        W 4965   1.703   2.716   3.106
 1447W        W 4966   5.965   0.483   8.945
 1448W        W 4967   7.897   0.813   1.247
 1449W        W 4968   1.889   5.696   0.512
 1450W        W 4969   1.758   9.846   8.776
 1451W        W 4970   2.285   2.126   1.313
 1452W        W 4971   4.867   2.766   8.866
 1453W        W 4972   2.172   1.703   9.875
 1454W        W 4973   9.337   3.190   2.967
 1455W        W 4974   2.668   9.500   9.759
 1456W        W 4975   6.911   5.954   2.400
 1457W        W 4976   6.381   6.744  11.007
 1458W        W 4977   8.334   2.868   9.997
 1459W        W 4978   0.201   9.159   1.127
 1460W        W 4979   8.227   9.394   9.075
 1461W        W 4980   3.672   1.597   2.430
 1462W        W 4981   3.736   8.973   9.805
 1463W        W 4982   1.978   8.603   3.578
 1464W        W 4983   3.951   9.214   3.619
 1465W        W 4984   6.034   5.992   2.590
 1466W        W 4985   7.441   6.076   2.470
 1467W        W 4986   5.681   7.031   9.799
 1468W        W 4987   1.733   1.826  10.116
 1469W        W 4988   9.793   9.826   2.034
 1470W        W 4989   7.805   1.617  11.936
 1471W        W 4990   8.524   5.543   1.166
 1472W        W 4991   4.899   2.672   0.322
 1473W        W 4992   2.487   1.895   8.838
 1474W        W 4993   6.199   5.944   0.422
 1475W        W 4994   8.400   3.174   9.004
 1476W        W 4995   6.146   5.465   0.270
 1477W        W 4996   9.384   3.754   3.188
 1478W        W 4997   3.087   1.118   0.836
 1479W        W 4998   8.505   8.370   1.907
 1480W        W 4999   8.435   0.060   9.690
 1481W        W 5000   9.420   1.384  11.242
 1482W        W 5001   6.889   0.183   9.557
 1483W        W 5002   7.030   4.821   3.617
 1484W        W 5003   1.398   1.506   1.060
 1485W        W 5004   8.502   0.300  11.658
 1486W        W 5005   2.298   5.976  10.065
 1487W        W 5006   5.796   7.289  10.647
 1488W        W 5007   2.715   8.906   0.543
 1489W        W 5008   6.669   4.137   0.352
 1490W        W 5009   3.716   4.624   1.668
 1491W        W 5010   6.940   3.408   3.614
 1492W        W 5011   3.227   4.142   9.569
 1493W        W 5012   0.891   9.360   2.404
 1494W        W 5013   7.359   6.550   2.067
 1495W        W 5014   9.286   3.191   9.286
 1496W        W 5015   7.139   6.044   3.753
 1497W        W 5016   2.204   4.981  11.544
 1498W        W 5017   6.496   4.889  11.233
 1499W        W 5018   9.480   9.009   0.578
 1500W        W 5019   5.047   6.686   8.613
 1501W        W 5020   1.215   2.846   0.656
 1502W        W 5021   7.093   2.487   1.341
 1503W        W 5022   1.149   7.464   3.014
 1504W        W 5023   8.100   3.836   0.915
 1505W        W 5024   7.550   0.795  10.827
 1506W        W 5025   8.461   9.848   3.007
 1507W        W 5026   7.757   4.740   2.363
 1508W        W 5027   9.404   0.439  10.668
 1509W        W 5028   9.938   3.060   2.181
 1510W        W 5029   8.566   2.265  10.488
 1511W        W 5030   3.038   5.040   3.245
 1512W        W 5031   4.841   6.051   1.428
 1513W        W 5032   4.002   3.913   1.316
 1514W        W 5033   3.556   3.778   8.411
 1515W        W 5034   3.642   0.083   1.518
 1516W        W 5035   8.422   7.075  10.018
 1517W        W 5036   5.119   5.287   1.885
 1518W        W 5037   3.366   0.899   1.769
 1519W        W 5038   9.474   2.457   1.772
 1520W        W 5039   8.341   6.652   8.992
 1521W        W 5040   8.907   3.102   2.687
 1522W        W 5041   1.776   6.345   2.825
 1523W        W 5042   5.009   0.674  10.969
 1524W        W 5043   8.972   7.092   0.801
 1525W        W 5044   4.021   4.329   0.455
 1526W        W 5045   1.531   6.918   3.628
 1527W        W 5046   9.179   6.070   1.881
 1528W        W 5047   1.332   6.697   0.354
 1529W        W 5048   7.486   0.908   0.903
 1530W        W 5049   9.806   3.242   2.781
 1531W        W 5050   3.998   3.248  10.931
 1532W        W 5051   5.485   2.283   9.901
 1533W        W 5052   8.121   8.397   9.444
 1534W        W 5053   7.627   2.327   2.229
 1535W        W 5054   7.587   1.084   8.448
 1536W        W 5055   6.099   6.704   9.615
 1537W        W 5056   7.423   8.531   9.824
 1538W        W 5057   9.243   4.478  11.128
 1539W        W 5058   3.316   7.947   0.901
 1540W        W 5059   4.232   2.560   3.119
 1541W        W 5060   0.208   1.817  10.285
 1542W        W 5061   9.169   3.132   0.786
 1543W        W 5062   3.449   1.213  10.451
 1544W        W 5063   5.927   2.715  10.337
 1545W        W 5064   4.315   4.451   8.534
 1546W        W 5065   7.373   9.532   0.278
 1547W        W 5066   4.996   6.584  10.592
 1548W        W 5067   7.877   6.311   3.277
 1549W        W 5068   1.710   5.731   9.054
 1550W        W 5069   6.396   1.370  11.497
 1551W        W 5070   0.004   5.868   0.220
 1552W        W 5071   1.843   9.231   9.581
 1553W        W 5072   5.490   8.493  11.282
 1554W        W 5073   1.853   4.698  11.322
 1555W        W 5074   4.706   1.432   0.691
 1556W        W 5075   9.570   7.469   3.368
 1557W        W 5076   5.531   2.228   1.561
 1558W        W 5077   6.924   5.483   8.413
 1559W        W 5078   9.635   6.435   8.572
 1560W        W 5079   1.367   8.458   0.076
 1561W        W 5080   6.472   7.803   9.470
 1562W        W 5081   8.488   6.930   1.012
 1563W        W 5082   9.451   4.180   2.841
 1564W        W 5083   5.129   6.430  11.080
 1565W        W 5084   5.833   1.890   1.293
 1566W        W 5085   4.631   3.633   8.370
 1567W        W 5086   8.133   9.415  11.219
 1568W        W 5087   4.131   3.289   9.506
 1569W        W 5088   9.847   1.314  11.478
 1570W        W 5089   0.226   1.037   1.050
 1571W        W 5090   6.369   3.743   0.295
 1572W        W 5091   2.598   1.961  11.554
 1573W        W 5092   7.666   2.127  11.749
 1574W        W 5093   5.183   7.060   9.973
 1575W        W 5094   3.769   1.784   0.909
 1576W        W 5095   4.177   3.172   9.999
 1577W        W 5096   0.283   3.727  10.940
 1578W        W 5097   8.565   6.624   0.093
 1579W        W 5098   1.268   1.608  11.901
 1580W        W 5099   9.419   3.172   2.449
 1581W        W 5100   2.899   0.160  11.083
 1582W        W 5101   7.523   1.173   0.003
 1583W        W 5102   2.915   4.314   0.848
 1584W        W 5103   0.879   0.056   8.871
 1585W        W 5104   7.045   5.514   1.653
 1586W        W 5105   8.847   6.921   3.281
 1587W        W 5106   8.098   0.092  10.893
 1588W        W 5107   7.277   4.609  10.182
 1589W        W 5108   4.724   3.761   9.376
 1590W        W 5109   6.665   5.165   8.939
 1591W        W 5110   5.455   7.615   1.872
 1592W        W 5111   5.743   6.084  10.440
 1593W        W 5112   7.828   6.662  10.879
 1594W        W 5113   7.462   1.878   1.968
 1595W        W 5114   9.099   3.057   9.902
 1596W        W 5115   1.063   5.746   2.206
 1597W        W 5116   2.115   2.587   1.372
 1598W        W 5117   8.753   4.316   0.500
 1599W        W 5118   8.051   2.800   8.873
 1600W        W 5119   3.591   3.658   0.704
 1601W        W 5120   3.420   0.298  11.059
 1602W        W 5121   9.745   8.583   8.578
 1603W        W 5122   0.223   0.019   0.834
 1604W        W 5123   7.022   9.025  10.477
 1605W        W 5124   5.020   4.116   3.320
 1606W        W 5125   7.109   5.994  11.475
 1607W        W 5126   3.292   0.749  11.370
 1608W        W 5127   5.212   0.072  11.362
 1609W        W 5128   3.810   8.284  10.524
 1610W        W 5129   1.778   3.113   9.400
 1611W        W 5130   9.840   8.030  10.730
 1612W        W 5131   7.377   7.509   9.986
 1613W        W 5132   4.950   5.291   1.378
 1614W        W 5133   7.579   5.597  10.253
 1615W        W 5134   4.969   7.513  11.648
 1616W        W 5135   5.174   0.728  11.917
 1617W        W 5136   8.952   3.189   8.667
 1618W        W 5137   3.089   7.884  11.530
 1619W        W 5138   4.030   2.223  10.770
 1620W        W 5139   9.350   9.962   0.681
 1621W        W 5140   9.525   6.473   2.765
 1622W        W 5141   2.297   0.180   1.903
 1623W        W 5142   8.687   1.815  11.703
 1624W        W 5143   3.766   3.684   7.945
 1625W        W 5144   8.472   0.325   0.769
 1626W        W 5145   6.637   3.245  10.447
 1627W        W 5146   7.845   6.104  10.900
 1628W        W 5147   3.186   2.887   0.303
 1629W        W 5148   2.754   6.406  11.037
 1630W        W 5149   3.632   0.974   3.053
 1631W        W 5150   7.780   8.457  11.261
 1632W        W 5151   3.730   8.802  10.549
 1633W        W 5152   9.844   0.002  11.772
 1634W        W 5153   4.656   3.255  10.156
 1635W        W 5154   1.021   9.726   0.500
 1636W        W 5155   6.679   7.516   3.259
 1637W        W 5156   1.073   2.847  10.766
 1638W        W 5157   5.424   2.762   0.310
 1639W        W 5158   3.199   8.297  10.132
 1640W        W 5159   3.598   4.236  11.259
 1641W        W 5160   0.665   4.930   0.985
 1642W        W 5161   3.573   5.902   9.200
 1643W        W 5162   4.201   0.045   1.931
 1644W        W 5163   1.844   5.868   2.693
 1645W        W 5164   0.448   9.272   8.762
 1646W        W 5165   4.143   2.236   2.717
 1647W        W 5166   3.672   6.338  10.445
 1648W        W 5167   3.815   6.115  10.016
 1649W        W 5168   2.065   1.490   0.878
 1650W        W 5169   9.683   1.022   1.444
 1651W        W 5170   4.657   7.200   3.203
 1652W        W 5171   2.707   8.995   9.608
 1653W        W 5172   6.780   9.960   1.360
 1654W        W 5173   5.155   4.997   3.375
 1655W        W 5174   3.354   1.122   0.349
 1656W        W 5175   4.303   9.090  11.278
 1657W        W 5176   3.797   9.187   1.158
 1658W        W 5177   0.457   4.139   9.560
 1659W        W 5178   1.955   2.681   2.170
 1660W        W 5179   2.319   8.802   8.741
 1661W        W 5180   1.287   7.597   9.974
 1662W        W 5181   0.010   8.085   2.241
 1663W        W 5182   8.077   5.524   0.827
 1664W        W 5183   0.893   0.866  10.002
 1665W        W 5184   1.322   4.912  11.921
 1666W        W 5185   4.253   8.608   0.722
 1667W        W 5186   5.204   5.946   0.440
 1668W        W 5187   2.588   6.405  10.046
 1669W        W 5188   0.787   7.175   9.496
 1670W        W 5189   7.997   6.883   2.187
 1671W        W 5190   0.007   2.147   9.388
 1672W        W 5191   1.697   9.970   9.297
 1673W        W 5192   8.865   0.910   2.574
 1674W        W 5193   4.522   5.070   1.782
 1675W        W 5194   7.461   9.413   0.856
 1676W        W 5195   5.532   3.869  11.813
 1677W        W 5196   6.428   5.980   2.261
 1678W        W 5197   7.453   0.334   0.075
 1679W        W 5198   6.467   0.482   9.352
 1680W        W 5199   0.570   9.050  10.011
 1681W        W 5200   7.981   0.188   2.632
 1682W        W 5201   2.766   5.488   3.178
 1683W        W 5202   7.278   1.799   2.855
 1684W        W 5203   6.067   4.523   3.145
 1685W        W 5204   0.872   2.501   9.834
 1686W        W 5205   2.906   9.597   1.421
 1687W        W 5206   5.092   4.962   0.054
 1688W        W 5207   9.289   0.136   3.520
 1689W        W 5208   5.591   2.631   9.521
 1690W        W 5209   7.462   8.843  11.030
 1691W        W 5210   6.161   4.731   4.154
 1692W        W 5211   6.908   8.190  11.807
 1693W        W 5212   6.136   7.632  10.851
 1694W        W 5213   6.387   6.912   8.690
 1695W        W 5214   3.533   7.592   0.567
 1696W        W 5215   7.980   9.521   1.623
 1697W        W 5216   7.193   6.141  10.095
 1698W        W 5217   0.805   3.967   2.979
 1699W        W 5218   4.575   6.611   2.417
 1700W        W 5219   6.696   0.536  10.467
 1701W        W 5220   8.562   9.067   9.848
 1702W        W 5221   4.250   8.778   2.916
 1703W        W 5222   7.871   8.849   0.450
 1704W        W 5223   3.353   9.203   3.242
 1705W        W 5224   9.832   6.671  10.455
 1706W        W 5225   8.662   3.132  11.843
 1707W        W 5226   2.117   1.487   1.960
 1708W        W 5227   7.178   7.064  11.467
 1709W        W 5228   9.998   7.080   3.283
 1710W        W 5229   3.202   6.388   8.516
 1711W        W 5230   0.733   8.017  10.989
 1712W        W 5231   1.218   3.169  11.182
 1713W        W 5232   1.575   1.208   8.785
 1714W        W 5233   9.746   7.569   8.939
 1715W        W 5234   5.919   9.522  11.810
 1716W        W 5235   4.036   7.187  10.630
 1717W        W 5236   3.287   0.402  10.119
 1718W        W 5237   0.873   8.522   1.259
 1719W        W 5238   8.074   0.261  10.008
 1720W        W 5239   9.479   9.194   3.452
 1721W        W 5240   4.983   8.513  11.360
 1722W        W 5241   2.665   8.318  10.371
 1723W        W 5242   5.995   9.302   1.265
 1724W        W 5243   8.224   7.490   2.735
 1725W        W 5244   0.877   4.087   1.174
 1726W        W 5245   2.076   0.807   1.312
 1727W        W 5246   9.817   8.313   3.246
 1728W        W 5247   5.119   8.015   9.556
 1729W        W 5248   8.389   1.706   0.574
 1730W        W 5249   0.475   5.711   0.334
 1731W        W 5250   0.304   7.994   0.761
 1732W        W 5251   6.281   5.903   1.178
 1733W        W 5252   8.715   8.862  10.745
 1734W        W 5253   4.321   9.752   0.623
 1735W        W 5254   5.343   7.492  10.715
 1736W        W 5255   6.553   0.220   2.121
 1737W        W 5256   3.842   5.109  10.913
 1738W        W 5257   1.762   2.637   9.071
 1739W        W 5258   7.591   0.381  10.114
 1740W        W 5259   1.657   8.009  10.493
 1741W        W 5260   4.748   6.115   4.168
 1742W        W 5261   2.147   2.537  11.535
 1743W        W 5262   0.163   7.482   3.539
 1744W        W 5263   1.369   5.302   0.253
 1745W        W 5264   7.069   7.853   3.238
 1746W        W 5265   2.312   7.417  11.568
 1747W        W 5266   5.889   9.522   8.653
 1748W        W 5267   8.638   3.298   9.981
 1749W        W 5268   4.539   7.897  10.009
 1750W        W 5269   4.606   9.490   1.328
 1751W        W 5270   3.008   1.814   9.928
 1752W        W 5271   6.360   5.123   1.561
 1753W        W 5272   4.370   5.087  10.858
 1754W        W 5273   3.429   6.834   0.781
 1755W        W 5274   9.583   1.783  11.524
 1756W        W 5275   4.881   5.561   8.314
 1757W        W 5276   3.145   6.012   1.057
 1758W        W 5277   5.093   0.113   1.716
 1759W        W 5278   1.390   0.189   2.068
 1760W        W 5279   9.104   6.684   2.558
 1761W        W 5280   7.188   0.772   2.152
 1762W        W 5281   7.698   4.560   9.488
 1763W        W 5282   3.776   4.436  10.309
 1764W        W 5283   8.428   2.588   0.446
 1765W        W 5284   1.230   3.322   2.176
 1766W        W 5285   2.780   8.883   1.965
 1767W        W 5286   1.382   9.402  10.901
 1768W        W 5287   3.313   3.146   2.914
 1769W        W 5288   2.794   5.528   8.933
 1770W        W 5289   8.346   4.531   8.281
 1771W        W 5290   1.322   6.141   2.029
 1772W        W 5291   1.991   0.474   9.487
 1773W        W 5292   1.876   9.285  10.774
 1774W        W 5293   9.984   6.495   1.437
 1775W        W 5294   9.122   6.530   3.086
 1776W        W 5295   8.818   3.137  11.343
 1777W        W 5296   5.766   4.164   3.800
 1778W        W 5297   7.278   9.007   8.754
 1779W        W 5298   0.462   5.682   2.783
 1780W        W 5299   7.671   9.903   1.788
 1781W        W 5300   0.678   5.177   2.020
 1782W        W 5301   6.491   9.813   2.931
 1783W        W 5302   7.077   1.431   1.282
 1784W        W 5303   6.902   0.061  10.530
 1785W        W 5304   1.137   3.325  10.662
 1786W        W 5305   5.454   8.953   1.918
 1787W        W 5306   1.370   4.019   1.370
 1788W        W 5307   5.130   1.744   2.390
 1789W        W 5308   7.927   9.808   3.218
 1790W        W 5309   3.200   0.851   9.889
 1791W        W 5310   6.102   0.254   0.723
 1792W        W 5311   9.877   2.763   1.754
 1793W        W 5312   5.914   6.430   3.363
 1794W        W 5313   6.346   9.025   0.184
 1795W        W 5314   4.240   8.005   8.543
 1796W        W 5315   3.147   6.049   9.519
 1797W        W 5316   8.021   1.408   0.362
 1798W        W 5317   7.546   9.873   9.498
 1799W        W 5318   1.669   7.479   0.714
 1800W        W 5319   6.048   3.756  11.864
 1801W        W 5320   5.741   0.648   3.631
 1802W        W 5321   4.635   1.351   9.933
 1803W        W 5322   2.887   1.709  11.176
 1804W        W 5323   7.994   7.006   2.679
 1805W        W 5324   3.065   5.603   9.763
 1806W        W 5325   2.786   3.078   0.586
 1807W        W 5326   3.997   1.823   9.988
 1808W        W 5327   2.706   9.383   8.145
 1809W        W 5328   5.242   6.217   8.657
 1810W        W 5329   8.033   8.882  10.371
 1811W        W 5330   1.349   4.091  10.950
 1812W        W 5331   5.036   4.544   3.611
 1813W        W 5332   8.205   4.281   3.584
 1814W        W 5333   5.596   6.177   8.230
 1815W        W 5334   8.615   0.809  11.624
 1816W        W 5335   1.298   6.509   2.897
 1817W        W 5336   3.561   5.300  10.493
 1818W        W 5337   6.652   8.108   0.537
 1819W        W 5338   6.562   6.453   8.493
 1820W        W 5339   4.473   9.292  10.822
 1821W        W 5340   9.967   9.052   8.598
 1822W        W 5341   8.850   7.367   1.870
 1823W        W 5342   8.451   4.746   9.577
 1824W        W 5343   8.842   5.797  10.985
 1825W        W 5344   3.704   5.534   2.737
 1826W        W 5345   1.234   2.238  11.108
 1827W        W 5346   6.463   2.152   9.250
 1828W        W 5347   0.988   1.754   1.256
 1829W        W 5348   1.437   4.975  11.433
 1830W        W 5349   2.789   3.181   2.451
 1831W        W 5350   0.015   3.882   1.144
 1832W        W 5351   3.382   0.272   1.123
 1833W        W 5352   3.828   1.167   1.246
 1834W        W 5353   9.078   3.759   8.740
 1835W        W 5354   3.763   7.036   1.326
 1836W        W 5355   0.449   1.869   9.377
 1837W        W 5356   4.630   8.627   0.360
 1838W        W 5357   4.687   6.915   9.987
 1839W        W 5358   3.703   0.766  11.788
 1840W        W 5359   0.189   8.029   0.256
 1841W        W 5360   3.981   0.332   2.292
 1842W        W 5361   7.571   9.867   2.709
 1843W        W 5362   4.985   6.074   0.934
 1844W        W 5363   4.770   8.389  10.914
 1845W        W 5364   6.125   1.356  10.802
 1846W        W 5365   6.018   2.284   3.186
 1847W        W 5366   6.138   4.037   8.681
 1848W        W 5367   0.698   3.608  10.633
 1849W        W 5368   4.731   6.912   2.787
 1850W        W 5369   7.578   4.875   9.875
 1851W        W 5370   5.053   6.084  10.321
 1852W        W 5371   7.312   1.167  10.490
 1853W        W 5372   9.930   7.110   1.942
 1854W        W 5373   2.568   5.990  11.676
 1855W        W 5374   6.329   7.815   3.487
 1856W        W 5375   8.586   3.553   8.667
 1857W        W 5376   2.661   4.080   0.411
 1858W        W 5377   8.232   1.468  10.454
 1859W        W 5378   8.882   5.474   9.464
 1860W        W 5379   1.196   3.733   0.494
 1861W        W 5380   8.381   5.236   2.881
 1862W        W 5381   2.715   4.069   8.859
 1863W        W 5382   0.585   0.221   0.051
 1864W        W 5383   6.919   2.877   8.876
 1865W        W 5384   1.293   5.465   9.064
 1866W        W 5385   3.715   4.262   2.475
 1867W        W 5386   9.993   1.975  10.728
 1868W        W 5387   6.049   6.497   8.635
 1869W        W 5388   5.658   8.505   0.661
 1870W        W 5389   9.704   3.265   1.721
 1871W        W 5390   4.031   9.564   1.930
 1872W        W 5391   9.355   5.690  11.020
 1873W        W 5392   2.662   8.607   0.992
 1874W        W 5393   2.416   0.353   9.213
 1875W        W 5394   8.504   6.047   2.462
 1876W        W 5395   6.821   2.002   2.757
 1877W        W 5396   0.690   3.563   0.749
 1878W        W 5397   9.030   5.333  10.823
 1879W        W 5398   5.794   5.137  10.186
 1880W        W 5399   8.895   0.206   0.428
 1881W        W 5400   2.713   3.415   1.023
 1882W        W 5401   1.965   2.611  10.719
 1883W        W 5402   7.479   1.316   9.983
 1884W        W 5403   9.537   3.701   3.664
 1885W        W 5404   6.776   5.615   2.854
 1886W        W 5405   3.238   8.986   0.932
 1887W        W 5406   7.308   5.488  11.321
 1888W        W 5407   3.774   2.495   9.450
 1889W        W 5408   9.871   9.350  11.096
 1890W        W 5409   0.017   3.593  11.859
 1891W        W 5410   6.330   9.704   1.342
 1892W        W 5411   4.695   1.438  10.546
 1893W        W 5412   5.581   4.704   2.967
 1894W        W 5413   1.806   7.793   2.605
 1895W        W 5414   2.386   4.614   2.411
 1896W        W 5415   0.940   6.578  11.014
 1897W        W 5416   9.959   5.245  11.219
 1898W        W 5417   2.230   9.684   9.988
 1899W        W 5418   3.771   2.651   1.042
 1900W        W 5419   2.316   7.041   0.689
 1901W        W 5420   8.535   6.228   0.425
 1902W        W 5421   3.919   6.688   0.891
 1903W        W 5422   0.471   4.121   9.049
 1904W        W 5423   4.247   8.847  10.680
 1905W        W 5424   3.183   0.735   3.280
 1906W        W 5425   0.358   2.092   1.332
 1907W        W 5426   9.442   9.344  10.811
 1908W        W 5427   8.034   1.991   2.220
 1909W        W 5428   6.480   9.331   1.028
 1910W        W 5429   8.504   6.810  11.583
 1911W        W 5430   2.368   8.470   0.451
 1912W        W 5431   6.834   9.762   9.267
 1913W        W 5432   7.433   2.029  10.363
 1914W        W 5433   2.611   7.016  11.280
 1915W        W 5434   4.609   4.690   9.829
 1916W        W 5435   4.615   1.285   2.965
 1917W        W 5436   0.234   0.382   9.063
 1918W        W 5437   9.461   5.895  11.477
 1919W        W 5438   1.351   9.231   1.671
 1920W        W 5439   3.631   9.220  10.260
 1921W        W 5440   4.713   9.485   0.816
 1922W        W 5441   8.539   8.110  11.513
 1923W        W 5442   0.164   3.722   9.787
 1924W        W 5443   8.526   8.549   9.743
 1925W        W 5444   8.762   5.616  11.803
 1926W        W 5445   9.003   2.602   1.999
 1927W        W 5446   4.145   7.612   9.174
 1928W        W 5447   8.456   8.036  10.536
 1929W        W 5448   7.870   5.919   1.636
 1930W        W 5449   3.198   4.248   9.058
 1931W        W 5450   8.177   6.622   8.509
 1932W        W 5451   2.702   5.269   1.162
 1933W        W 5452   5.420   9.774   1.976
 1934W        W 5453   8.031   0.635   2.382
 1935W        W 5454   0.265   6.033   8.717
 1936W        W 5455   4.673   8.495   1.461
 1937W        W 5456   8.586   8.448   9.240
 1938W        W 5457   1.555   6.672   8.685
 1939W        W 5458   2.322   3.283   0.736
 1940W        W 5459   6.672   4.557  11.966
 1941W        W 5460   0.778   2.314   2.509
 1942W        W 5461   4.995   0.988   9.035
 1943W        W 5462   4.698   2.792   3.275
 1944W        W 5463   8.008   7.755   3.128
 1945W        W 5464   8.447   4.140   1.325
 1946W        W 5465   9.970   6.843   0.541
 1947W        W 5466   1.298   6.326   9.523
 1948W        W 5467   6.434   1.017   0.854
 1949W        W 5468   1.631   7.499   2.229
 1950W        W 5469   4.282   3.581   2.206
 1951W        W 5470   1.202   8.523  10.004
 1952W        W 5471   4.779   1.976   9.449
 1953W        W 5472   5.703   9.703  10.070
 1954W        W 5473   1.896   3.957   9.772
 1955W        W 5474   9.154   6.184  11.032
 1956W        W 5475   5.988   4.447   0.389
 1957W        W 5476   8.814   7.712   1.473
 1958W        W 5477   7.381   0.826   9.863
 1959W        W 5478   0.050   9.670   0.452
 1960W        W 5479   5.182   6.569   2.389
 1961W        W 5480   7.126   1.077   1.718
 1962W        W 5481   1.379   7.109   8.479
 1963W        W 5482   4.728   7.963   1.334
 1964W        W 5483   0.636   3.886  11.402
 1965W        W 5484   0.446   2.371  11.443
 1966W        W 5485   5.880   9.391  10.833
 1967W        W 5486   5.577   1.878   0.853
 1968W        W 5487   7.347   7.712   2.767
 1969W        W 5488   4.276   3.072   2.255
 1970W        W 5489   8.880   9.248   0.951
 1971W        W 5490   0.971   5.801   2.728
 1972W        W 5491   1.641   4.989   2.507
 1973W        W 5492   5.107   2.563   4.238
 1974W        W 5493   4.685   6.981   1.204
 1975W        W 5494   2.144   3.544  11.408
 1976W        W 5495   8.346   3.834   3.216
 1977W        W 5496   6.473   8.820   3.621
 1978W        W 5497   1.382   8.083   2.788
 1979W        W 5498   3.541   4.150   8.071
 1980W        W 5499   6.218   5.701   3.750
 1981W        W 5500   8.381   4.546   0.243
 1982W        W 5501   9.998   9.820  10.275
 1983W        W 5502   5.230   3.536   0.790
 1984W        W 5503   5.622   7.916   2.329
 1985W        W 5504   5.780   7.387   0.025
 1986W        W 5505   2.649   8.592   2.921
 1987W        W 5506   2.900   1.882   3.537
 1988W        W 5507   4.485   2.327  10.564
 1989W        W 5508   5.327   9.469   3.048
 1990W        W 5509   6.878   8.970   1.582
 1991W        W 5510   8.487   7.080  10.559
 1992W        W 5511   0.101   4.083   1.673
 1993W        W 5512   9.761   0.962   3.381
 1994W        W 5513   5.050   9.196   2.703
 1995W        W 5514   1.121   8.479  10.529
 1996W        W 5515   9.639   2.369   3.571
 1997W        W 5516   0.875   0.648   0.268
 1998W        W 5517   1.622   9.083   1.244
 1999W        W 5518   5.485   7.249   3.641
 2000W        W 5519   7.508   1.090   1.395
 2001W        W 5520   6.217   0.741   0.023
 2002W        W 5521   7.890   0.411  10.526
 2003W        W 5522   0.504   1.598   1.384
 2004W        W 5523   5.536   5.043  11.301
 2005W        W 5524   2.354   4.381   0.810
 2006W        W 5525   7.628   7.620  10.428
 2007W        W 5526   4.783   9.958   0.566
 2008W        W 5527   7.355   2.150   9.023
 2009W        W 5528   7.272   5.616   4.058
 2010W        W 5529   1.257   2.220   1.289
 2011W        W 5530   4.130   5.221   3.391
 2012W        W 5531   3.483   5.795   7.879
 2013W        W 5532   1.040   7.056   3.554
 2014W        W 5533   0.318   3.455   3.518
 2015W        W 5534   8.930   7.860  11.722
 2016W        W 5535   5.491   4.253  11.460
 2017W        W 5536   2.604   7.962  10.754
 2018W        W 5537   5.574   1.129   3.619
 2019W        W 5538   4.212   4.651   1.799
 2020W        W 5539   4.979   6.811   3.231
 2021W        W 5540   9.407   7.958  11.028
 2022W        W 5541   9.319   8.964  11.184
 2023W        W 5542   5.994   8.821   0.474
 2024W        W 5543   0.362   7.598   0.441
 2025W        W 5544   8.174   2.977   9.526
 2026W        W 5545   6.161   7.924   0.612
 2027W        W 5546   2.781   7.510  11.291
 2028W        W 5547   0.360   2.707   1.919
 2029W        W 5548   6.862   6.285  11.857
 2030W        W 5549   6.895   7.360   9.061
 2031W        W 5550   2.756   9.781   8.972
 2032W        W 5551   6.861   3.471   8.501
 2033W        W 5552   1.765   8.832   9.288
 2034W        W 5553   5.652   3.794   9.897
 2035W        W 5554   5.940   7.521   1.823
 2036W        W 5555   6.247   4.012   3.951
 2037W        W 5556   6.644   7.343   9.501
 2038W        W 5557   2.241   2.792   0.465
 2039W        W 5558   7.966   2.283   9.056
 2040W        W 5559   9.117   8.111   1.689
 2041W        W 5560   0.853   5.216  11.525
 2042W        W 5561   4.970   0.552   2.994
 2043W        W 5562   6.089   7.399   0.442
 2044W        W 5563   6.326   0.845  11.531
 2045W        W 5564   3.049   6.488   0.892
 2046W        W 5565   9.950   2.122   2.152
 2047W        W 5566   8.724   3.855   9.413
 2048W        W 5567   0.860   7.110  11.840
 2049W        W 5568   2.475   3.550   2.269
 2050W        W 5569   0.858   6.989   9.025
 2051W        W 5570   1.370   7.369   9.438
 2052W        W 5571   2.957   7.064   9.264
 2053W        W 5572   2.828   3.838   9.729
 2054W        W 5573   7.196   3.241   3.194
 2055W        W 5574   5.223   7.058  11.469
 2056W        W 5575   7.175   8.664   0.706
 2057W        W 5576   6.584   3.814   2.910
 2058W        W 5577   0.005   9.522   8.843
 2059W        W 5578   0.282   7.220   2.824
 2060W        W 5579   9.754   7.716   2.529
 2061W        W 5580   2.743   3.639   1.853
 2062W        W 5581   9.273   1.820   0.525
 2063W        W 5582   9.356   2.090  10.666
 2064W        W 5583   0.167   6.639   2.101
 2065W        W 5584   3.290   4.234   8.551
 2066W        W 5585   2.881   5.949  11.287
 2067W        W 5586   8.200   5.399   0.329
 2068W        W 5587   4.555   8.528   2.296
 2069W        W 5588   4.228   7.241  11.422
 2070W        W 5589   9.670   9.094   2.993
 2071W        W 5590   5.094   8.306   1.244
 2072W        W 5591   5.380   5.187   8.710
 2073W        W 5592   1.621   8.226   1.013
 2074W        W 5593   2.715   9.116   1.017
 2075W        W 5594   9.370   5.502   2.396
 2076W        W 5595   1.727   1.426   3.611
 2077W        W 5596   0.932   6.707   3.200
 2078W        W 5597   7.079   0.843   3.121
 2079W        W 5598   0.357   2.710   3.096
 2080W        W 5599   7.936   2.122   0.929
 2081W        W 5600   1.597   7.508   1.208
 2082W        W 5601   9.216   0.400   1.376
 2083W        W 5602   6.235   3.615   3.208
 2084W        W 5603   5.189   4.490   2.061
 2085W        W 5604   5.586   3.090   3.225
 2086W        W 5605   4.893   7.424   1.000
 2087W        W 5606   6.498   9.881   3.490
 2088W        W 5607   5.198   7.275   3.227
 2089W        W 5608   3.309   2.956  11.168
 2090W        W 5609   1.057   5.738   8.701
 2091W        W 5610   0.804   1.183   0.800
 2092W        W 5611   5.448   1.401  11.152
 2093W        W 5612   9.257   7.051   1.231
 2094W        W 5613   3.620   3.473   0.244
 2095W        W 5614   2.648   4.323   1.271
 2096W        W 5615   7.762   8.467   2.664
 2097W        W 5616   9.003   2.226  11.502
 2098W        W 5617   0.740   2.676   3.462
 2099W        W 5618   6.425   7.603   1.777
 2100W        W 5619   8.335   1.331   8.528
 2101W        W 5620   0.654   4.148   1.754
 2102W        W 5621   7.457   4.931  11.377
 2103W        W 5622   9.000   1.326  10.073
 2104W        W 5623   3.255   2.505   1.058
 2105W        W 5624   6.014   8.118  10.730
 2106W        W 5625   0.506   1.400   9.226
 2107W        W 5626   2.801   6.417  10.532
 2108W        W 5627   7.146   7.355   3.498
 2109W        W 5628   7.484   1.844   9.896
 2110W        W 5629   4.950   8.464   1.922
 2111W        W 5630   7.927   8.867   2.347
 2112W        W 5631   4.017   3.140   8.959
 2113W        W 5632   9.557   4.845  11.407
 2114W        W 5633   1.800   2.161  10.949
 2115W        W 5634   0.479   1.251  10.117
 2116W        W 5635   0.090   9.305   3.206
 2117W        W 5636   4.090   4.128  11.991
 2118W        W 5637   7.377   2.731   0.454
 2119W        W 5638   9.415   6.902  10.198
 2120W        W 5639   2.203   6.144   3.002
 2121W        W 5640   5.394   7.105   8.475
 2122W        W 5641   7.166   2.109   0.575
 2123W        W 5642   8.346   3.089   0.436
 2124W        W 5643   3.538   4.092   1.524
 2125W        W 5644   9.899   2.241   1.587
 2126W        W 5645   0.828   2.863   1.741
 2127W        W 5646   5.123   3.837  11.479
 2128W        W 5647   2.455   2.779   2.322
 2129W        W 5648   5.168   8.247   0.741
 2130W        W 5649   2.792   1.342   1.357
 2131W        W 5650   6.414   7.519   0.815
 2132W        W 5651   5.723   5.617  11.992
 2133W        W 5652   8.891   2.207  10.889
 2134W        W 5653   1.656   6.609   9.735
 2135W        W 5654   6.473   3.708  10.518
 2136W        W 5655   0.849   5.367   2.452
 2137W        W 5656   0.803   1.267  11.739
 2138W        W 5657   0.429   5.140   3.116
 2139W        W 5658   9.056   5.660   9.027
 2140W        W 5659   5.717   9.882  10.992
 2141W        W 5660   5.256   4.974   0.524
 2142W        W 5661   4.284   7.816   1.608
 2143W        W 5662   2.080   4.848   2.817
 2144W        W 5663   1.809   6.900   2.836
 2145W        W 5664   8.073   8.689   0.915
 2146W        W 5665   8.366   9.331   8.572
 2147W        W 5666   1.859   5.224  11.268
 2148W        W 5667   5.435   8.456   2.138
 2149W        W 5668   3.383   2.448   8.796
 2150W        W 5669   4.795   8.426   9.103
 2151W        W 5670   1.847   9.626  11.159
 2152W        W 5671   8.964   7.124   2.797
 2153W        W 5672   2.763   3.048  10.434
 2154W        W 5673   6.601   4.231   3.184
 2155W        W 5674   9.127   4.921   3.207
 2156W        W 5675   5.847   5.965   4.069
 2157W        W 5676   8.754   7.876   1.942
 2158W        W 5677   0.861   6.092   0.843
 2159W        W 5678   1.222   2.575  10.337
 2160W        W 5679   7.281   9.846   9.025
 2161W        W 5680   0.298   9.291   1.597
 2162W        W 5681   1.606   8.899  10.910
 2163W        W 5682   3.213   5.648   1.427
 2164W        W 5683   3.341   0.425   9.021
 2165W        W 5684   3.261   9.693   3.094
 2166W        W 5685   7.265   1.540   8.573
 2167W        W 5686   2.306   4.847   9.160
 2168W        W 5687   8.509   4.907   9.034
 2169W        W 5688   0.281   8.853   0.169
 2170W        W 5689   9.867   4.156   9.791
 2171W        W 5690   5.880   1.927   0.451
 2172W        W 5691   3.551   0.154   2.475
 2173W        W 5692   4.185   0.230   0.817
 2174W        W 5693   9.337   9.011   1.072
 2175W        W 5694   3.606   9.541   9.862
 2176W        W 5695   1.010   4.723  11.544
 2177W        W 5696   7.976   6.389   1.287
 2178W        W 5697   1.293   4.271  10.464
 2179W        W 5698   9.260   2.653   0.523
 2180W        W 5699   3.836   1.280   0.741
 2181W        W 5700   2.322   5.406   1.473
 2182W        W 5701   0.513   8.054   2.889
 2183W        W 5702   4.119   1.924   8.463
 2184W        W 5703   9.480   0.585   3.156
 2185W        W 5704   0.886   6.365   9.835
 2186W        W 5705   6.184   9.962  11.882
 2187W        W 5706   6.253   6.617  10.105
 2188W        W 5707   9.291   7.182   0.393
 2189W        W 5708   2.259   9.643   0.385
 2190W        W 5709   6.544   3.329   1.694
 2191W        W 5710   8.209   4.792   0.694
 2192W        W 5711   4.586   7.663   9.488
 2193W        W 5712   7.927   1.363   9.146
 2194W        W 5713   7.106   2.661  11.711
 2195W        W 5714   3.461   6.498   3.141
 2196W        W 5715   7.000   5.166   2.803
 2197W        W 5716   7.130   2.693  11.211
 2198W        W 5717   9.728   9.507   8.423
 2199W        W 5718   8.868   4.610   8.732
 2200W        W 5719   6.226   8.306   1.842
 2201W        W 5720   3.515   7.424   2.653
 2202W        W 5721   6.470   3.207   2.205
 2203W        W 5722   6.553   5.026   0.163
 2204W        W 5723   5.923   5.604  10.380
 2205W        W 5724   9.866   0.737   9.871
 2206W        W 5725   2.183   0.653   0.477
 2207W        W 5726   2.633   8.256  11.759
 2208W        W 5727   1.245   6.848   9.474
 2209W        W 5728   2.633   9.124   1.514
 2210W        W 5729   7.572   4.250  10.460
 2211W        W 5730   8.345   1.007   1.394
 2212W        W 5731   6.295   7.404  11.919
 2213W        W 5732   0.942   2.203   0.049
 2214W        W 5733   2.774   5.078   3.685
 2215W        W 5734   5.102   8.562  10.088
 2216W        W 5735   0.244   7.465   8.848
 2217W        W 5736   7.446   2.347   9.977
 2218W        W 5737   9.231   3.780   1.738
 2219W        W 5738   0.077   1.783   1.689
 2220W        W 5739   2.474   7.991   3.493
 2221W        W 5740   9.904   2.150   1.068
 2222W        W 5741   5.542   8.793  10.049
 2223W        W 5742   5.371   4.228   2.913
 2224W        W 5743   1.171   6.957  11.295
 2225W        W 5744   3.779   5.036   0.387
 2226W        W 5745   3.572   3.074  10.308
 2227W        W 5746   8.386   0.987   9.836
 2228W        W 5747   7.584   6.050   1.217
 2229W        W 5748   2.677   6.508  11.526
 2230W        W 5749   8.937   7.934   9.773
 2231W        W 5750   7.167   9.715   1.713
 2232W        W 5751   4.711   9.727  10.856
 2233W        W 5752   4.846   9.840   9.739
 2234W        W 5753   5.470   6.704   3.294
 2235W        W 5754   9.501   7.351   2.178
 2236W        W 5755   0.024   2.984   0.519
 2237W        W 5756   4.517   6.595  10.811
 2238W        W 5757   5.322   6.132  10.726
 2239W        W 5758   3.109   2.114   3.965
 2240W        W 5759   4.502   5.082   1.261
 2241W        W 5760   0.998   5.598   0.904
 2242W        W 5761   9.420   7.013  11.716
 2243W        W 5762   2.263   0.721  11.563
 2244W        W 5763   6.801   7.697   3.705
 2245W        W 5764   4.489   8.201  11.380
 2246W        W 5765   1.688   3.951  10.240
 2247W        W 5766   3.623   9.342  10.789
 2248W        W 5767   0.959   0.891  10.787
 2249W        W 5768   5.889   9.798   9.574
 2250W        W 5769   9.556   8.876   8.962
 2251W        W 5770   7.617   6.735   9.505
 2252W        W 5771   5.531   8.529   1.133
 2253W        W 5772   7.447   2.790   1.102
 2254W        W 5773   7.352   1.836   0.070
 2255W        W 5774   8.889   3.759   0.493
 2256W        W 5775   3.669   5.063   4.160
 2257W        W 5776   0.526   9.473   9.713
 2258W        W 5777   7.428   9.345  10.795
 2259W        W 5778   8.011   3.553   1.899
 2260W        W 5779   8.081   8.185  10.913
 2261W        W 5780   7.847   9.374  10.408
 2262W        W 5781   2.759   0.974  11.420
 2263W        W 5782   0.420   8.802   8.982
 2264W        W 5783   3.644   3.137   0.664
 2265W        W 5784   1.733   5.115   2.035
 2266W        W 5785   6.682   7.100   0.804
 2267W        W 5786   9.893   8.941   2.016
 2268W        W 5787   0.808   9.724   9.273
 2269W        W 5788   2.014   4.258  11.074
 2270W        W 5789   9.446   0.144  10.263
 2271W        W 5790   4.852   4.857   2.148
 2272W        W 5791   5.982   3.229   3.476
 2273W        W 5792   1.065   3.610   8.933
 2274W        W 5793   8.120   8.046   8.653
 2275W        W 5794   2.206   9.160  11.807
 2276W        W 5795   1.357   8.831   2.054
 2277W        W 5796   1.121   8.918   3.060
 2278W        W 5797   9.858   9.309   0.783
 2279W        W 5798   8.615   1.631  11.201
 2280W        W 5799   8.660   5.234   0.177
 2281W        W 5800   5.822   1.526  10.414
 2282W        W 5801   0.926   9.006  10.478
 2283W        W 5802   7.181   4.618   9.645
 2284W        W 5803   1.396   5.294   9.536
 2285W        W 5804   0.977   1.829  10.756
 2286W        W 5805   4.645   4.844   3.424
 2287W        W 5806   2.689   3.762   2.710
 2288W        W 5807   2.377   6.876  11.766
 2289W        W 5808   8.398   8.466   1.366
 2290W        W 5809   4.255   7.624   2.330
 2291W        W 5810   2.824   2.339  11.882
 2292W        W 5811   0.918   3.138   0.932
 2293W        W 5812   6.048   2.285   8.983
 2294W        W 5813   9.261   5.570  11.830
 2295W        W 5814   1.756   0.782  11.754
 2296W        W 5815   0.966   9.303   0.234
 2297W        W 5816   8.934   2.677   3.497
 2298W        W 5817   6.277   1.340   8.569
 2299W        W 5818   5.747   5.501   3.770
 2300W        W 5819   3.561   4.612   8.328
 2301W        W 5820   8.028   9.178   0.831
 2302W        W 5821   2.327   4.416   0.223
 2303W        W 5822   9.087   8.350   2.588
 2304W        W 5823   4.193   6.254  11.069
 2305W        W 5824   5.549   7.969  11.428
 2306W        W 5825   2.659   7.307  10.243
 2307W        W 5826   6.675   0.496   9.885
 2308W        W 5827   7.776   7.900   9.055
 2309W        W 5828   2.467   8.542   9.562
 2310W        W 5829   1.122   6.052   3.437
 2311W        W 5830   7.893   3.755   9.985
 2312W        W 5831   6.783   8.278  10.387
 2313W        W 5832   3.256   7.039  10.063
 2314W        W 5833   0.225   8.982   0.656
 2315W        W 5834   8.309   3.764   9.689
 2316W        W 5835   8.532   4.310   3.190
 2317W        W 5836   8.528   6.567  10.614
 2318W        W 5837   5.422   7.480   9.692
 2319W        W 5838   8.969   7.982   2.925
 2320W        W 5839   4.180   2.539  11.961
 2321W        W 5840   7.893   9.134  10.857
 2322W        W 5841   1.290   4.076   0.881
 2323W        W 5842   3.347   5.875   3.696
 2324W        W 5843   6.032   8.604  10.919
 2325W        W 5844   6.497   3.041   1.119
 2326W        W 5845   9.042   6.780   8.405
 2327W        W 5846   6.663   3.692  11.036
 2328W        W 5847   9.775   4.006   2.422
 2329W        W 5848   8.481   3.168  10.952
 2330W        W 5849   1.372   7.046   2.158
 2331W        W 5850   3.099   3.745   3.043
 2332W        W 5851   2.353   6.158  10.568
 2333W        W 5852   0.271   7.517   0.951
 2334W        W 5853   7.839   7.014   9.895
 2335W        W 5854   9.887   8.567  10.033
 2336W        W 5855   3.265   6.113  10.036
 2337W        W 5856   5.988   9.004  10.190
 2338W        W 5857   3.804   3.771  11.296
 2339W        W 5858   7.506   5.035   9.394
 2340W        W 5859   0.356   0.238   1.353
 2341W        W 5860   3.265   0.357   8.491
 2342W        W 5861   5.399   5.746   8.462
 2343W        W 5862   7.438   1.404   9.026
 2344W        W 5863   5.588   5.604   8.912
 2345W        W 5864   9.435   7.076   2.601
 2346W        W 5865   9.921   3.521   2.385
 2347W        W 5866   7.111   6.905   1.735
 2348W        W 5867   3.713   1.293  10.902
 2349W        W 5868   7.891   6.147  11.908
 2350W        W 5869   4.363   5.358  11.299
 2351W        W 5870   6.936   6.920   9.494
 2352W        W 5871   8.418   7.542   8.859
 2353W        W 5872   4.470   2.296  11.091
 2354W        W 5873   9.573   8.765   0.128
 2355W        W 5874   4.620   9.003   1.439
 2356W        W 5875   2.809   5.320   1.658
 2357W        W 5876   1.537   0.392  11.105
 2358W        W 5877   0.224   4.561   0.500
 2359W        W 5878   3.352   5.830   0.077
 2360W        W 5879   6.110   3.716   2.665
 2361W        W 5880   1.701   8.196   3.400
 2362W        W 5881   1.979   4.893  10.867
 2363W        W 5882   3.275   1.777   2.162
 2364W        W 5883   8.396   9.199  10.496
 2365W        W 5884   4.248   8.423   3.474
 2366W        W 5885   1.866   4.208   1.006
 2367W        W 5886   8.852   1.112   0.915
 2368W        W 5887   1.582   8.887   9.962
 2369W        W 5888   5.991   0.773   3.210
 2370W        W 5889   5.502   5.328  10.569
 2371W        W 5890   7.563   9.702   1.332
 2372W        W 5891   9.416   8.027   9.560
 2373W        W 5892   0.713   5.605  10.443
 2374W        W 5893   2.067   4.200   1.974
 2375W        W 5894   3.775   1.277  10.073
 2376W        W 5895   7.393   5.129  10.297
 2377W        W 5896   7.877   0.725   9.829
 2378W        W 5897   0.605   0.197   9.368
 2379W        W 5898   9.856   8.381   1.347
 2380W        W 5899   9.442   9.847   9.406
 2381W        W 5900   8.104   7.525  11.936
 2382W        W 5901   9.477   4.515   0.926
 2383W        W 5902   0.099   3.494   1.459
 2384W        W 5903   9.875   7.883   9.815
 2385W        W 5904   8.032   5.797   9.076
 2386W        W 5905   0.413   0.206  10.434
 2387W        W 5906   5.607   4.573   9.415
 2388W        W 5907   5.667   3.543  10.793
 2389W        W 5908   9.128   7.560   9.515
 2390W        W 5909   6.612   4.742   3.917
 2391W        W 5910   1.626   1.389   3.106
 2392W        W 5911   2.605   2.314   2.183
 2393W        W 5912   0.171   6.373  10.197
 2394W        W 5913   4.950   3.190   2.027
 2395W        W 5914   8.649   0.742   1.712
 2396W        W 5915   2.063   1.352   9.496
 2397W        W 5916   5.095   4.679   9.655
 2398W        W 5917   7.336   6.567   9.112
 2399W        W 5918   2.970   1.336  10.316
 2400W        W 5919   3.670   4.700  11.557
 2401W        W 5920   3.712   1.515   9.623
 2402W        W 5921   1.962   2.160  11.850
 2403W        W 5922   4.055   4.952   3.824
 2404W        W 5923   8.050   4.104  11.072
 2405W        W 5924   7.567   3.996   2.750
 2406W        W 5925   6.175   2.972  11.417
 2407W        W 5926   9.792   7.509  10.787
 2408W        W 5927   8.762   1.671   1.798
 2409W        W 5928   7.502   5.615   1.484
 2410W        W 5929   3.031   8.290   1.159
 2411W        W 5930   4.428   1.515   8.573
 2412W        W 5931   3.176   9.998   2.147
 2413W        W 5932   0.941   2.867   2.252
 2414W        W 5933   7.016   3.939   3.750
 2415W        W 5934   5.483   1.777   3.886
 2416W        W 5935   6.983   5.560  10.913
 2417W        W 5936   7.151   5.698   3.183
 2418W        W 5937   9.431   4.220   8.682
 2419W        W 5938   7.234   3.731   9.230
 2420W        W 5939   8.584   9.773   9.269
 2421W        W 5940   9.718   5.166   2.581
 2422W        W 5941   5.049   0.978  10.448
 2423W        W 5942   8.939   6.028   3.212
 2424W        W 5943   5.080   9.639   3.514
 2425W        W 5944   1.237   8.331   3.221
 2426W        W 5945   8.579   5.668   9.843
 2427W        W 5946   7.444   7.819   9.529
 2428W        W 5947   9.246   9.366  10.182
 2429W        W 5948   3.730   7.270  11.598
 2430W        W 5949   4.636   3.665   7.867
 2431W        W 5950   4.472   7.987   9.072
 2432W        W 5951   5.939   5.967   3.084
 2433W        W 5952   6.710   9.779   8.737
 2434W        W 5953   1.439   5.733  10.877
 2435W        W 5954   0.923   1.989   9.797
 2436W        W 5955   3.584   5.796  10.342
 2437W        W 5956   2.335   9.361   0.790
 2438W        W 5957   1.146   1.063   2.471
 2439W        W 5958   1.727   3.563   2.826
 2440W        W 5959   1.873   0.811  11.203
 2441W        W 5960   4.672   4.625   9.327
 2442W        W 5961   0.817   9.292   3.390
 2443W        W 5962   6.509   7.137   0.301
 2444W        W 5963   1.350   7.085   0.670
 2445W        W 5964   1.832   7.607  11.738
 2446W        W 5965   2.103   7.024  11.300
 2447W        W 5966   3.783   1.801   1.925
 2448W        W 5967   3.087   7.604   1.843
 2449W        W 5968   2.166   8.425  10.385
 2450W        W 5969   7.414   9.022   8.263
 2451W        W 5970   7.433   9.892  10.023
 2452W        W 5971   1.479   6.630  10.986
 2453W        W 5972   7.667   9.377   2.545
 2454W        W 5973   1.673   9.750   2.284
 2455W        W 5974   8.117   6.596   9.897
 2456W        W 5975   7.620   6.976   0.835
 2457W        W 5976   8.440   5.235   9.447
 2458W        W 5977   6.108   1.037   1.348
 2459W        W 5978   5.902   7.583   0.895
 2460W        W 5979   4.122   4.158   9.308
 2461W        W 5980   7.675   9.420   2.035
 2462W        W 5981   9.348   0.438   0.388
 2463W        W 5982   5.456   3.398   8.462
 2464W        W 5983   1.444   2.169  11.892
 2465W        W 5984   6.875   1.852   0.252
 2466W        W 5985   7.192   4.074   0.677
 2467W        W 5986   6.959   7.861   9.309
 2468W        W 5987   9.399   2.197   1.345
 2469W        W 5988   1.769   3.842  11.242
 2470W        W 5989   3.674   9.707  10.429
 2471W        W 5990   2.242   6.137   2.487
 2472W        W 5991   7.459   8.620   0.235
 2473W        W 5992   1.253   4.586   2.977
 2474W        W 5993   9.334   3.867  11.772
 2475W        W 5994   6.233   0.445   2.442
 2476W        W 5995   4.780   7.667   3.437
 2477W        W 5996   3.682   2.931   0.194
 2478W        W 5997   9.447   1.164  10.290
 2479W        W 5998   7.334   7.063   9.217
 2480W        W 5999   3.588   6.282   9.587
 2481W        W 6000   5.404   6.199   3.332
 2482W        W 6001   1.469   3.913   8.728
 2483W        W 6002   6.450   4.392  11.520
 2484W        W 6003   5.992   0.518   1.481
 2485W        W 6004   6.321   4.364   9.888
 2486W        W 6005   1.901   6.995   9.967
 2487W        W 6006   2.689   5.750   1.383
 2488W        W 6007   3.369   6.999   9.574
 2489W        W 6008   2.657   9.571  10.288
 2490W        W 6009   8.454   8.939   3.160
 2491W        W 6010   9.768   7.020   9.485
 2492W        W 6011   6.195   9.242   3.754
 2493W        W 6012   5.699   8.805   3.545
 2494W        W 6013   4.935   5.932  11.971
 2495W        W 6014   4.605   1.185   1.459
 2496W        W 6015   7.054   4.338   3.427
 2497W        W 6016   3.574   4.193   3.345
 2498W        W 6017   8.821   3.483   0.981
 2499W        W 6018   5.421   8.385   9.740
 2500W        W 6019   2.659   2.244   0.423
 2501W        W 6020   3.186   0.722  11.895
 2502W        W 6021   6.018   6.906   0.422
 2503W        W 6022   8.687   9.139   0.282
 2504W        W 6023   8.529   7.529   2.268
 2505W        W 6024   0.268   6.897  10.294
 2506W        W 6025   1.451   2.837   2.124
 2507W        W 6026   0.070   3.893   3.619
 2508W        W 6027   8.573   1.209   1.931
 2509W        W 6028   9.023   6.018   0.386
 2510W        W 6029   1.138   6.538   9.068
 2511W        W 6030   5.924   3.557   8.629
 2512W        W 6031   4.068   8.908   0.332
 2513W        W 6032   8.344   1.879   1.102
 2514W        W 6033   8.678   8.234  10.098
 2515W        W 6034   7.961   2.322   3.206
 2516W        W 6035   6.886   3.435   9.512
 2517W        W 6036   0.878   6.652   8.630
 2518W        W 6037   7.983   5.017   9.587
 2519W        W 6038   8.119   0.840  11.503
 2520W        W 6039   2.737   3.577   0.540
 2521W        W 6040   0.691   8.872   0.462
 2522W        W 6041   7.476   2.138  10.842
 2523W        W 6042   4.719   3.628   1.915
 2524W        W 6043   7.177   5.949   8.529
 2525W        W 6044   1.143   7.428   0.984
 2526W        W 6045   0.533   0.826  11.958
 2527W        W 6046   1.445   3.357   8.684
 2528W        W 6047   8.871   8.171   1.256
 2529W        W 6048   4.042   3.779   2.626
 2530W        W 6049   7.298   7.570   1.184
 2531W        W 6050   9.544   8.356  11.817
 2532W        W 6051   4.971   7.944   8.994
 2533W        W 6052   4.727   3.680   0.773
 2534W        W 6053   6.280   5.676  10.024
 2535W        W 6054   5.208   1.835  11.393
 2536W        W 6055   0.837   8.095   1.551
 2537W        W 6056   3.383   7.644   9.339
 2538W        W 6057   5.881   2.325   2.719
 2539W        W 6058   8.047   4.406  10.643
 2540W        W 6059   2.701   6.138   0.660
 2541W        W 6060   7.760   9.340   3.067
 2542W        W 6061   4.551   5.252   2.266
 2543W        W 6062   3.102   1.383   1.767
 2544W        W 6063   5.011   0.014   8.781
 2545W        W 6064   7.543   2.906  11.047
 2546W        W 6065   2.323   6.675  10.987
 2547W        W 6066   1.403   7.166  11.694
 2548W        W 6067   9.495   6.916   8.761
 2549W        W 6068   6.519   1.142   2.213
 2550W        W 6069   0.636   7.157  11.372
 2551W        W 6070   2.128   8.861  10.937
 2552W        W 6071   4.448   7.370   2.747
 2553W        W 6072   5.611   4.002  10.446
 2554W        W 6073   8.025   7.335  10.270
 2555W        W 6074   0.636   8.964   0.947
 2556W        W 6075   2.815   3.130   9.124
 2557W        W 6076   5.466   0.692   2.972
 2558W        W 6077   6.022   2.851   1.151
 2559W        W 6078   7.360   3.257   2.175
 2560W        W 6079   9.227   1.022   3.431
 2561W        W 6080   5.481   4.074   9.267
 2562W        W 6081   1.050   4.554   0.999
 2563W        W 6082   6.958   2.087   1.902
 2564W        W 6083   4.221   2.336   0.426
 2565W        W 6084   6.507   5.290   0.592
 2566W        W 6085   6.533   7.977   1.002
 2567W        W 6086   5.999   8.289   0.284
 2568W        W 6087   2.580   1.265   0.860
 2569W        W 6088   6.667   6.427   3.877
 2570W        W 6089   5.869   4.786   8.963
 2571W        W 6090   5.482   0.303   8.819
 2572W        W 6091   8.400   6.328  11.653
 2573W        W 6092   6.492   9.765  10.470
 2574W        W 6093   7.158   5.652   0.617
 2575W        W 6094   0.352   6.940  11.773
 2576W        W 6095   7.073   1.597   1.788
 2577W        W 6096   8.115   1.081   2.165
 2578W        W 6097   5.684   3.092   9.301
 2579W        W 6098   8.830   9.574   2.734
 2580W        W 6099   4.119   3.622   3.112
 2581W        W 6100   9.354   3.999  10.295
 2582W        W 6101   4.113   3.313  11.461
 2583W        W 6102   6.615   7.113   2.490
 2584W        W 6103   1.868   3.115   8.890
 2585W        W 6104   8.198   2.243  10.859
 2586W        W 6105   2.254   6.977   3.074
 2587W        W 6106   7.790   1.312  11.507
 2588W        W 6107   0.469   1.132   2.035
 2589W        W 6108   8.965   1.260  11.100
 2590W        W 6109   3.682   3.214   9.820
 2591W        W 6110   3.541   4.268   1.997
 2592W        W 6111   1.284   6.590  10.078
 2593W        W 6112   2.172   8.920   2.640
 2594W        W 6113   4.321   1.169   1.023
 2595W        W 6114   1.322   2.903   8.991
 2596W        W 6115   7.086   6.519   3.056
 2597W        W 6116   5.569   6.145  11.159
 2598W        W 6117   8.451   6.051   3.375
 2599W        W 6118   7.520   3.402  10.970
 2600W        W 6119   7.049   2.559   0.823
 2601W        W 6120   3.649   2.104   2.315
 2602W        W 6121   5.617   3.596   9.420
 2603W        W 6122   4.312   3.649  10.128
 2604W        W 6123   0.773   7.894   0.522
 2605W        W 6124   6.624   2.130   2.317
 2606W        W 6125   6.519   7.937  11.075
 2607W        W 6126   9.840   4.166  10.294
 2608W        W 6127   9.792   1.144   9.518
 2609W        W 6128   9.454   2.249   0.812
 2610W        W 6129   5.199   9.257   0.815
 2611W        W 6130   1.111   0.189   9.348
 2612W        W 6131   1.182   4.727   1.462
 2613W        W 6132   9.947   8.327   9.563
 2614W        W 6133   9.900   2.635  11.308
 2615W        W 6134   3.886   5.107   2.965
 2616W        W 6135   6.999   5.868   8.038
 2617W        W 6136   9.406   7.922  11.539
 2618W        W 6137   4.600   5.978   3.691
 2619W        W 6138   4.619   2.058   1.402
 2620W        W 6139   7.535   1.752   0.550
 2621W        W 6140   2.992   5.688  11.745
 2622W        W 6141   2.145   7.941   9.178
 2623W        W 6142   6.873   1.490   3.917
 2624W        W 6143   2.585   2.835  11.728
 2625W        W 6144   3.172   3.332   1.243
 2626W        W 6145   1.849   5.967   3.809
 2627W        W 6146   1.615   4.808   9.472
 2628W        W 6147   9.873   1.463   0.472
 2629W        W 6148   1.374   9.787  10.059
 2630W        W 6149   1.287   5.811   9.536
 2631W        W 6150   9.682   3.896   9.009
 2632W        W 6151   0.966   8.459   2.791
 2633W        W 6152   7.893   5.175  10.152
 2634W        W 6153   8.240   6.008   8.370
 2635W        W 6154   7.096   6.534   9.773
 2636W        W 6155   7.489   7.109   3.160
 2637W        W 6156   0.558   7.086   3.771
 2638W        W 6157   9.692   0.724  10.369
 2639W        W 6158   2.610   7.447   1.933
 2640W        W 6159   1.747   6.071   0.186
 2641W        W 6160   2.605   5.516  11.470
 2642W        W 6161   3.194   9.433   9.031
 2643W        W 6162   1.914   5.935  10.827
 2644W        W 6163   9.028   8.366   9.521
 2645W        W 6164   3.031   7.780   0.483
 2646W        W 6165   1.304   8.825   9.531
 2647W        W 6166   9.355   3.977  11.263
 2648W        W 6167   0.250   9.419  10.133
 2649W        W 6168   1.788   3.934  10.739
 2650W        W 6169   0.239   6.502   9.447
 2651W        W 6170   7.663   0.846  10.312
 2652W        W 6171   7.796   5.141   2.045
 2653W        W 6172   5.628   1.143   3.118
 2654W        W 6173   9.917   0.750   9.212
 2655W        W 6174   3.285   2.209   2.978
 2656W        W 6175   7.510   1.732   3.358
 2657W        W 6176   2.665   0.089   2.723
 2658W        W 6177   7.786   5.316   3.401
 2659W        W 6178   8.049   8.024  11.391
 2660W        W 6179   5.323   6.155   1.319
 2661W        W 6180   4.148   7.052   3.234
 2662W        W 6181   0.358   7.697   1.426
 2663W        W 6182   5.085   3.184   3.682
 2664W        W 6183   7.466   3.196   0.758
 2665W        W 6184   2.231   7.400   1.062
 2666W        W 6185   6.778   9.295   9.489
 2667W        W 6186   1.419   1.474   2.560
 2668W        W 6187   3.591   7.802  11.676
 2669W        W 6188   9.925   9.720   3.510
 2670W        W 6189   5.527   8.740   8.982
 2671W        W 6190   5.003   6.533  10.091
 2672W        W 6191   0.522   0.191   1.874
 2673W        W 6192   2.122   8.731   0.060
 2674W        W 6193   9.767   4.982   9.663
 2675W        W 6194   9.864   7.365   9.878
 2676W        W 6195   5.672   2.648   8.994
 2677W        W 6196   7.448   1.635  10.685
 2678W        W 6197   9.309   7.483  10.889
 2679W        W 6198   7.575   5.736   9.351
 2680W        W 6199   7.718   6.551   2.435
 2681W        W 6200   0.842   6.139   1.884
 2682W        W 6201   1.658   1.967   1.023
 2683W        W 6202   2.319   7.575  10.531
 2684W        W 6203   0.979   5.353  10.075
 2685W        W 6204   6.924   7.769  10.322
 2686W        W 6205   0.976   1.758   8.465
 2687W        W 6206   5.933   1.125   0.854
 2688W        W 6207   6.537   9.820   1.794
 2689W        W 6208   2.646   9.823  11.383
 2690W        W 6209   0.923   9.986  10.228
 2691W        W 6210   6.098   6.594   0.867
 2692W        W 6211   9.394   4.368  11.591
 2693W        W 6212   8.051   3.906  10.567
 2694W        W 6213   7.998   3.689   2.817
 2695W        W 6214   0.489   3.772   2.584
 2696W        W 6215   9.297   9.797   9.929
 2697W        W 6216   0.266   1.183  11.716
 2698W        W 6217   6.725   6.942  10.616
 2699W        W 6218   8.959   4.251  10.108
 2700W        W 6219   3.147   2.375  10.558
 2701W        W 6220   4.201   0.629  11.953
 2702W        W 6221   4.368   4.050   2.897
 2703W        W 6222   9.984   9.345  10.578
 2704W        W 6223   2.142   8.566   2.181
 2705W        W 6224   0.542   3.056   9.960
 2706W        W 6225   0.589   4.969   1.553
 2707W        W 6226   5.306   5.242  10.071
 2708W        W 6227   1.163   6.533   3.639
 2709W        W 6228   1.054   5.163   1.674
 2710W        W 6229   3.340   0.220   2.943
 2711W        W 6230   8.843   6.909   1.638
 2712W        W 6231   4.519   9.524  11.782
 2713W        W 6232   0.846   5.345   2.945
 2714W        W 6233   9.674   1.744   0.840
 2715W        W 6234   7.081   7.348   2.508
 2716W        W 6235   8.271   1.910  10.239
 2717W        W 6236   6.086   2.801   2.667
 2718W        W 6237   5.582   9.026   3.055
 2719W        W 6238   6.470   9.432   0.506
 2720W        W 6239   5.630   1.445   1.114
 2721W        W 6240   0.644   2.834   1.254
 2722W        W 6241   2.403   7.003   9.259
 2723W        W 6242   5.487   9.243   8.873
 2724W        W 6243   3.910   1.278  11.760
 2725W        W 6244   7.685   7.115  11.305
 2726W        W 6245   7.306   1.182   9.483
 2727W        W 6246   6.437   5.608  10.509
 2728W        W 6247   6.225   0.922   8.864
 2729W        W 6248   2.746   0.985   3.342
 2730W        W 6249   3.041   8.083   0.002
 2731W        W 6250   2.778   7.469  10.749
 2732W        W 6251   1.112   2.698   1.153
 2733W        W 6252   8.891   4.931   1.394
 2734W        W 6253   2.633   5.996   8.799
 2735W        W 6254   4.042   7.544  10.225
 2736W        W 6255   1.180   8.365   1.920
 2737W        W 6256   6.929   8.504   1.340
 2738W        W 6257   9.517   7.822   8.538
 2739W        W 6258   0.877   0.242   2.280
 2740W        W 6259   6.715   7.211   1.687
 2741W        W 6260   1.094   8.894  10.941
 2742W        W 6261   3.726   0.627   9.305
 2743W        W 6262   5.692   4.495   1.984
 2744W        W 6263   0.074   0.891  11.297
 2745W        W 6264   1.956   3.385  10.934
 2746W        W 6265   0.189   7.775  10.994
 2747W        W 6266   4.480   5.015  10.323
 2748W        W 6267   5.521   9.699  10.543
 2749W        W 6268   9.754   5.443   9.437
 2750W        W 6269   4.718   1.949   8.555
 2751W        W 6270   5.144   0.764   1.386
 2752W        W 6271   3.180   5.598   9.280
 2753W        W 6272   0.627   6.533   0.922
 2754W        W 6273   3.672   1.663   9.148
 2755W        W 6274   8.999   0.552   3.399
 2756W        W 6275   0.768   1.189   0.272
 2757W        W 6276   6.078   5.062  10.598
 2758W        W 6277   0.406   1.437   2.457
 2759W        W 6278   5.503   0.697  10.560
 2760W        W 6279   0.007   6.406   2.928
 2761W        W 6280   9.148   5.554   1.942
 2762W        W 6281   2.821   8.484   0.225
 2763W        W 6282   9.042   6.514   0.243
 2764W        W 6283   0.867   4.137  10.746
 2765W        W 6284   4.919   0.415   0.325
 2766W        W 6285   3.499   5.089   0.799
 2767W        W 6286   4.941   6.916  10.975
 2768W        W 6287   0.283   5.913  10.425
 2769W        W 6288   8.783   2.963   1.701
 2770W        W 6289   7.644   4.293  11.776
 2771W        W 6290   3.094   2.510  11.063
 2772W        W 6291   9.847   7.966  11.850
 2773W        W 6292   6.543   6.475   8.992
 2774W        W 6293   6.158   4.172  10.472
 2775W        W 6294   0.737   8.141  10.465
 2776W        W 6295   1.977   5.561   2.003
 2777W        W 6296   1.415   8.876  10.441
 2778W        W 6297   2.227   7.705   0.053
 2779W        W 6298   9.072   8.835   0.121
 2780W        W 6299   0.788   3.631   3.379
 2781W        W 6300   9.805   7.880   3.536
 2782W        W 6301   1.807   4.227   1.533
 2783W        W 6302   8.394   0.824   0.905
 2784W        W 6303   3.973   5.985   2.581
 2785W        W 6304   4.348   5.991   1.748
 2786W        W 6305   4.583   0.769   8.803
 2787W        W 6306   3.653   5.883   0.984
 2788W        W 6307   0.342   1.365   0.676
 2789W        W 6308   7.526   6.572   1.149
 2790W        W 6309   2.678   6.204   1.154
 2791W        W 6310   0.150   8.947   2.831
 2792W        W 6311   0.556   5.649   8.909
 2793W        W 6312   8.778   1.284   9.609
 2794W        W 6313   2.647   0.235   0.689
 2795W        W 6314   6.760   7.521   1.198
 2796W        W 6315   2.681   6.694   1.356
 2797W        W 6316   6.273   8.762   1.622
 2798W        W 6317   1.777   2.823   1.709
 2799W        W 6318   4.747   2.900   9.351
 2800W        W 6319   0.620   7.544   9.179
 2801W        W 6320   3.308   3.821  10.629
 2802W        W 6321   4.261   5.850  11.393
 2803W        W 6322   6.072   9.376   9.831
 2804W        W 6323   6.257   4.690   1.309
 2805W        W 6324   8.225   5.045   3.344
 2806W        W 6325   7.918   4.370   2.675
 2807W        W 6326   9.266   0.185  11.937
 2808W        W 6327   1.338   5.972   1.033
 2809W        W 6328   4.820   6.108   1.930
 2810W        W 6329   8.798   2.802   0.711
 2811W        W 6330   5.161   6.974   0.906
 2812W        W 6331   8.572   6.973   8.625
 2813W        W 6332   9.904   8.515  10.550
 2814W        W 6333   9.033   6.829  11.357
 2815W        W 6334   6.233   1.926   1.627
 2816W        W 6335   8.137   0.709   1.787
 2817W        W 6336   8.336   0.109  10.418
 2818W        W 6337   8.198   9.237   0.350
 2819W        W 6338   5.757   0.455   2.619
 2820W        W 6339   6.508   6.694   0.575
 2821W        W 6340   4.594   1.872  10.808
 2822W        W 6341   4.521   5.977   0.746
 2823W        W 6342   0.765   4.826   2.911
 2824W        W 6343   2.426   8.894  10.527
 2825W        W 6344   9.835   6.128  10.522
 2826W        W 6345   9.805   4.920   1.346
 2827W        W 6346   9.568   2.777   2.767
 2828W        W 6347   6.917   4.585  10.543
 2829W        W 6348   2.122   2.152   8.581
 2830W        W 6349   1.327   7.832   8.563
 2831W        W 6350   2.182   2.321   9.088
 2832W        W 6351   5.706   6.908  10.313
 2833W        W 6352   9.501   0.415   2.611
 2834W        W 6353   4.159   4.614   9.570
 2835W        W 6354   3.644   1.353   3.428
 2836W        W 6355   2.231   4.876   0.020
 2837W        W 6356   3.718   6.460   2.699
 2838W        W 6357   1.505   4.142   0.421
 2839W        W 6358   2.198   2.670   2.924
 2840W        W 6359   2.282   3.465   3.754
 2841W        W 6360   1.408   9.033   0.762
 2842W        W 6361   2.779   9.343   8.691
 2843W        W 6362   3.449   8.148  11.297
 2844W        W 6363   6.414   9.241   1.570
 2845W        W 6364   2.822   5.840   3.558
 2846W        W 6365   3.780   2.258  11.745
 2847W        W 6366   7.530   2.385   0.802
 2848W        W 6367   5.626   4.507   2.488
 2849W        W 6368   8.611   1.694   9.344
 2850W        W 6369   8.921   2.386   9.164
 2851W        W 6370   8.946   1.392   9.103
 2852W        W 6371   2.304   9.728   1.699
 2853W        W 6372   9.299   1.359   0.797
 2854W        W 6373   5.467   7.418   2.787
 2855W        W 6374   6.626   4.244   2.633
 2856W        W 6375   2.168   0.002   9.567
 2857W        W 6376   2.599   8.015   0.256
 2858W        W 6377   6.463   3.343   2.696
 2859W        W 6378   5.712   5.666   0.516
 2860W        W 6379   3.224   9.455  10.498
 2861W        W 6380   4.708   4.103   8.594
 2862W        W 6381   2.382   4.069   2.364
 2863W        W 6382   0.877   4.539   0.527
 2864W        W 6383   6.418   8.849   2.598
 2865W        W 6384   8.847   8.839   9.480
 2866W        W 6385   0.685   5.606  11.853
 2867W        W 6386   4.089   6.011   8.628
 2868W        W 6387   8.019   7.473   9.184
 2869W        W 6388   6.875   3.372   9.004
 2870W        W 6389   2.870   1.822  11.967
 2871W        W 6390   6.016   6.837   1.310
 2872W        W 6391   6.873   4.128  11.310
 2873W        W 6392   5.361   6.939   8.952
 2874W        W 6393   2.743   9.310  11.213
 2875W        W 6394   5.125   0.510   2.031
 2876W        W 6395   3.793   0.515  11.335
 2877W        W 6396   1.797   8.257   2.409
 2878W        W 6397   7.239   7.648  10.752
 2879W        W 6398   0.906   1.043   1.788
 2880W        W 6399   2.072   4.490   9.537
 2881W        W 6400   3.723   1.021  11.332
 2882W        W 6401   9.548   1.855   2.922
 2883W        W 6402   8.109   1.720   2.677
 2884W        W 6403   0.806   3.475   2.893
 2885W        W 6404   6.937   1.916   8.745
 2886W        W 6405   6.615   1.639  11.873
 2887W        W 6406   2.906   8.746  10.462
 2888W        W 6407   0.697   8.019   9.363
 2889W        W 6408   7.161   4.430  11.868
 2890W        W 6409   8.935   1.424   0.029
 2891W        W 6410   7.591   0.763   0.354
 2892W        W 6411   8.717   7.558   2.760
 2893W        W 6412   5.602   7.893  10.930
 2894W        W 6413   7.868   7.730   3.605
 2895W        W 6414   9.345   5.516   8.608
 2896W        W 6415   9.284   1.179   8.755
 2897W        W 6416   8.868   8.780   2.444
 2898W        W 6417   8.263   9.639  10.240
 2899W        W 6418   8.436   3.141   1.330
 2900W        W 6419   8.558   3.065   3.604
 2901W        W 6420   6.182   6.239   3.774
 2902W        W 6421   1.406   3.176   9.771
 2903W        W 6422   3.966   6.550   3.167
 2904W        W 6423   0.934   3.766   1.562
 2905W        W 6424   1.248   7.932   9.215
 2906W        W 6425   6.921   7.025   1.253
 2907W        W 6426   9.893   5.407   0.430
 2908W        W 6427   6.080   0.908   2.232
 2909W        W 6428   5.234   6.449   2.903
 2910W        W 6429   6.937   9.058   0.927
 2911W        W 6430   5.467   9.377   1.655
 2912W        W 6431   3.817   4.212   8.540
 2913W        W 6432   1.777   0.950   9.203
 2914W        W 6433   6.247   7.583   1.287
 2915W        W 6434   7.044   5.220   9.273
 2916W        W 6435   6.989   1.410  10.806
 2917W        W 6436   9.783   9.944   2.572
 2918W        W 6437   3.940   5.865   1.432
 2919W        W 6438   6.158   3.684  10.915
 2920W        W 6439   1.312   5.917  11.474
 2921W        W 6440   6.531   5.480  11.921
 2922W        W 6441   7.710   8.511  10.259
 2923W        W 6442   3.750   2.403   0.232
 2924W        W 6443   4.843   0.578   3.522
 2925W        W 6444   9.937   6.228   2.434
 2926W        W 6445   3.169   2.209   2.484
 2927W        W 6446   0.313   0.078  10.922
 2928W        W 6447   1.231   2.853   2.686
 2929W        W 6448   0.415   6.948   1.777
 2930W        W 6449   8.565   8.403  11.087
 2931W        W 6450   8.611   4.472   2.710
 2932W        W 6451   9.341   6.028  10.585
 2933W        W 6452   9.755   0.263   9.267
 2934W        W 6453   3.666   3.509   9.355
 2935W        W 6454   8.068   7.212   0.906
 2936W        W 6455   5.545   3.410  11.543
 2937W        W 6456   0.906   5.150   9.588
 2938W        W 6457   4.573   0.046  10.095
 2939W        W 6458   5.680   5.477   9.388
 2940W        W 6459   6.158   6.100   8.340
 2941W        W 6460   6.665   6.553   2.767
 2942W        W 6461   8.535   2.256  11.262
 2943W        W 6462   1.010   0.508   1.868
 2944W        W 6463   0.255   1.287   9.654
 2945W        W 6464   3.130   3.533   2.530
 2946W        W 6465   6.222   6.691   8.199
 2947W        W 6466   3.541   7.561   2.131
 2948W        W 6467   9.422   8.540   0.845
 2949W        W 6468   5.208   4.711   8.645
 2950W        W 6469   8.986   8.900   3.262
 2951W        W 6470   7.975   1.918   0.337
 2952W        W 6471   1.417   5.589   9.986
 2953W        W 6472   6.460   8.115   0.065
 2954W        W 6473   0.910   0.671   0.786
 2955W        W 6474   5.769   9.308   3.456
 2956W        W 6475   6.089   5.606   9.070
 2957W        W 6476   1.887   0.919   9.725
 2958W        W 6477   0.426   6.120   9.760
 2959W        W 6478   5.703   1.234   2.106
 2960W        W 6479   5.418   2.210  10.938
 2961W        W 6480   1.398   2.408   0.838
 2962W        W 6481   5.299   8.961  11.981
 2963W        W 6482   2.704   0.248   2.201
 2964W        W 6483   1.575   5.727   2.275
 2965W        W 6484   8.990   6.500   2.079
 2966W        W 6485   7.009   3.039   0.983
 2967W        W 6486   7.129   9.540  11.178
 2968W        W 6487   6.537   0.188  11.269
 2969W        W 6488   3.742   1.455   0.268
 2970W        W 6489   3.744   5.594   3.251
 2971W        W 6490   8.861   8.549  11.511
 2972W        W 6491   4.448   3.096  11.131
 2973W        W 6492   8.130   5.977   2.984
 2974W        W 6493   0.752   1.148   9.595
 2975W        W 6494   7.009   6.891   2.245
 2976W        W 6495   0.510   9.321   2.062
 2977W        W 6496   2.124   2.039  11.371
 2978W        W 6497   2.644   2.446  11.380
 2979W        W 6498   7.147   4.216  10.841
 2980W        W 6499   7.912   7.080  11.763
 2981W        W 6500   5.992   4.125  11.469
 2982W        W 6501   8.765   1.836   8.871
 2983W        W 6502   1.687   1.822   2.812
 2984W        W 6503   0.244   1.165   0.225
 2985W        W 6504   7.428   3.590   3.496
 2986W        W 6505   1.475   1.252  10.453
 2987W        W 6506   6.612   3.812   8.199
 2988W        W 6507   6.062   8.791   1.102
 2989W        W 6508   8.356   7.621  11.475
 2990W        W 6509   0.262   4.680   1.277
 2991W        W 6510   9.065   1.659   3.600
 2992W        W 6511   4.214   1.035   8.545
 2993W        W 6512   0.432   9.340   2.634
 2994W        W 6513   5.755   1.818   1.839
 2995W        W 6514   7.266   9.446   9.365
 2996W        W 6515   9.749   9.384  10.071
 2997W        W 6516   1.309   5.423  11.243
 2998W        W 6517   2.333   7.180  10.863
 2999W        W 6518   9.666   6.493   0.737
 3000W        W 6519   5.619   9.884   2.884
 3001W        W 6520   4.917   4.274   9.952
 3002W        W 6521   8.425   9.557   9.744
 3003W        W 6522   0.810   3.349   1.896
 3004W        W 6523   0.348   4.824   2.185
 3005W        W 6524   6.583   5.998  11.492
 3006W        W 6525   2.229   7.205   0.153
 3007W        W 6526   3.992   7.683  11.334
 3008W        W 6527   6.096   1.703  11.729
 3009W        W 6528   7.628   6.602  10.390
 3010W        W 6529   7.600   4.187   1.650
 3011W        W 6530   3.270   1.982   9.019
 3012W        W 6531   2.372   5.155   9.559
 3013W        W 6532   9.998   6.266  11.376
 3014W        W 6533   2.195   8.231   0.012
 3015W        W 6534   0.310   9.819   2.649
 3016W        W 6535   9.752   7.353   2.910
 3017W        W 6536   2.699   3.166   8.585
 3018W        W 6537   8.684   6.453   8.639
 3019W        W 6538   0.027   4.895   2.884
 3020W        W 6539   1.312   2.450   0.327
 3021W        W 6540   1.793   5.024   0.262
 3022W        W 6541   3.894   8.026   1.980
 3023W        W 6542   3.228   1.487  10.836
 3024W        W 6543   1.236   4.959   9.159
 3025W        W 6544   7.554   6.721  11.630
 3026W        W 6545   7.305   3.181   9.260
 3027W        W 6546   0.865   5.231   8.908
 3028W        W 6547   2.607   3.679   9.276
 3029W        W 6548   7.254   3.978  11.666
 3030W        W 6549   9.587   1.941   1.858
 3031W        W 6550   0.518   7.074   3.275
 3032W        W 6551   3.066   5.249  11.999
 3033W        W 6552   5.412   7.444   0.859
 3034W        W 6553   4.182   1.786   3.010
 3035W        W 6554   7.463   7.370   1.683
 3036W        W 6555   5.694   2.169   2.242
 3037W        W 6556   1.981   5.241   0.730
 3038W        W 6557   5.722   0.941   8.949
 3039W        W 6558   2.459   2.126   3.513
 3040W        W 6559   5.564   2.718   1.364
 3041W        W 6560   2.267   0.543   2.253
 3042W        W 6561   2.637   7.351   8.947
 3043W        W 6562   4.558   9.949   1.068
 3044W        W 6563   5.196   5.050   2.860
 3045W        W 6564   7.465   5.341   2.995
 3046W        W 6565   2.682   7.815  10.266
 3047W        W 6566   6.475   0.454   8.836
 3048W        W 6567   9.192   9.726   8.437
 3049W        W 6568   9.994   1.724  11.204
 3050W        W 6569   9.932   8.828   3.382
 3051W        W 6570   7.012   4.737   3.114
 3052W        W 6571   5.580   7.870  11.934
 3053W        W 6572   7.772   8.771   9.477
 3054W        W 6573   3.518   9.321   1.968
 3055W        W 6574   8.679   4.967  10.885
 3056W        W 6575   8.718   9.429  10.183
 3057W        W 6576   8.502   4.154  10.289
 3058W        W 6577   0.285   4.622   9.118
 3059W        W 6578   9.095   9.331   0.478
 3060W        W 6579   8.844   5.148   9.876
 3061W        W 6580   1.905   0.377  11.473
 3062W        W 6581   7.571   9.113   9.150
 3063W        W 6582   7.239   0.374  11.331
 3064W        W 6583   2.134   9.931  11.507
 3065W        W 6584   4.665   6.928   0.700
 3066W        W 6585   2.777   5.976  10.262
 3067W        W 6586   6.933   1.783   3.220
 3068W        W 6587   5.250   7.018  10.521
 3069W        W 6588   8.131   9.351   2.317
 3070W        W 6589   0.504   9.974   3.517
 3071W        W 6590   8.374   7.515   1.765
 3072W        W 6591   8.973   9.829  11.476
 3073W        W 6592   4.356   8.253   1.140
 3074W        W 6593   9.123   1.831   2.604
 3075W        W 6594   1.408   7.633  11.479
 3076W        W 6595   8.366   1.177   3.441
 3077W        W 6596   3.226   0.234   3.448
 3078W        W 6597   8.385   9.324   2.767
 3079W        W 6598   7.419   7.841   1.934
 3080W        W 6599   8.236   2.648  10.482
 3081W        W 6600   6.914   1.547  11.469
 3082W        W 6601   2.225   9.880   2.909
 3083W        W 6602   9.314   7.796   9.092
 3084W        W 6603   9.871   3.274   9.377
 3085W        W 6604   8.013   5.507   9.488
 3086W        W 6605   7.936   4.372   2.029
 3087W        W 6606   6.041   2.317   9.501
 3088W        W 6607   9.494   2.253  11.721
 3089W        W 6608   0.956   9.294   0.752
 3090W        W 6609   2.056   2.401   3.332
 3091W        W 6610   2.549   6.374   0.011
 3092W        W 6611   5.534   6.472   9.499
 3093W        W 6612   7.650   0.313  11.599
 3094W        W 6613   8.345   0.240   9.206
 3095W        W 6614   4.269   3.294   8.179
 3096W        W 6615   5.450   9.761   8.842
 3097W        W 6616   0.276   9.117  11.340
 3098W        W 6617   6.348   1.980   1.125
 3099W        W 6618   1.371   4.421   9.180
 3100W        W 6619   2.287   0.376   1.439
 3101W        W 6620   7.008   4.974   8.267
 3102W        W 6621   4.063   9.341  10.529
 3103W        W 6622   3.724   6.039   8.254
 3104W        W 6623   1.381   8.992  11.353
 3105W        W 6624   6.026   1.027   9.910
 3106W        W 6625   1.852   7.906   1.990
 3107W        W 6626   0.210   6.795  11.304
 3108W        W 6627   4.239   7.061  10.194
 3109W        W 6628   7.036   5.220   3.298
 3110W        W 6629   7.095   6.038   1.499
 3111W        W 6630   1.837   8.470  10.755
 3112W        W 6631   7.539   9.428   9.796
 3113W        W 6632   6.163   4.308   1.711
 3114W        W 6633   4.319   9.423   2.335
 3115W        W 6634   7.175   5.906  10.574
 3116W        W 6635   3.366   6.391   1.814
 3117W        W 6636   3.977   2.498   2.284
 3118W        W 6637   0.361   8.067   8.934
 3119W        W 6638   0.757   6.669  10.320
 3120W        W 6639   1.198   4.578   3.517
 3121W        W 6640   0.811   9.999  10.720
 3122W        W 6641   1.200   7.815   1.304
 3123W        W 6642   7.786   0.715  11.887
 3124W        W 6643   9.443   8.964   9.941
 3125W        W 6644   3.328   8.953  11.739
 3126W        W 6645   3.140   2.776  10.185
 3127W        W 6646   9.432   4.517  10.380
 3128W        W 6647   5.231   2.000  10.478
 3129W        W 6648   9.031   5.132   8.918
 3130W        W 6649   4.004   9.815   2.392
 3131W        W 6650   5.717   7.584   1.371
 3132W        W 6651   0.525   5.665   2.150
 3133W        W 6652   4.664   7.852  11.861
 3134W        W 6653   5.100   1.160   9.877
 3135W        W 6654   4.066   9.460  11.575
 3136W        W 6655   7.426   5.228   2.399
 3137W        W 6656   4.572   2.798  10.367
 3138W        W 6657   2.454   6.531   3.232
 3139W        W 6658   0.247   9.733   1.825
 3140W        W 6659   7.826   7.950   2.715
 3141W        W 6660   1.376   2.177  10.038
 3142W        W 6661   8.550   8.437  11.908
 3143W        W 6662   3.564   4.548   0.468
 3144W        W 6663   1.698   6.614   3.253
 3145W        W 6664   8.288   7.938   2.505
 3146W        W 6665   9.238   6.077  11.906
 3147W        W 6666   9.282   0.990   2.928
 3148W        W 6667   0.332   7.812  10.501
 3149W        W 6668   1.905   2.408   0.924
 3150W        W 6669   3.591   2.575  10.347
 3151W        W 6670   6.183   2.674   0.704
 3152W        W 6671   7.494   5.364   8.999
 3153W        W 6672   9.814   7.081   0.076
 3154W        W 6673   7.928   1.657   1.827
 3155W        W 6674   2.895   8.625   9.905
 3156W        W 6675   4.985   1.391  11.392
 3157W        W 6676   4.659   6.521   1.500
 3158W        W 6677   5.642   6.821   0.764
 3159W        W 6678   5.969   0.290   9.413
 3160W        W 6679   2.193   7.942  10.203
 3161W        W 6680   0.015   4.173  10.790
 3162W        W 6681   9.891   3.424   0.303
 3163W        W 6682   8.030   5.805  10.479
 3164W        W 6683   4.715   6.318   9.365
 3165W        W 6684   8.549   0.557  11.194
 3166W        W 6685   8.955   5.710   0.809
 3167W        W 6686   6.106   6.676   9.095
 3168W        W 6687   1.298   3.092  11.692
 3169W        W 6688   4.266   5.503   1.907
 3170W        W 6689   4.117   1.370  11.262
 3171W        W 6690   9.202   4.576   0.483
 3172W        W 6691   4.840   0.893   2.202
 3173W        W 6692   6.996   2.264  10.940
 3174W        W 6693   4.888   1.600   1.328
 3175W        W 6694   5.228   0.245   0.732
 3176W        W 6695   2.149   4.963   3.644
 3177W        W 6696   3.298   6.591  11.802
 3178W        W 6697   4.660   1.744   2.749
 3179W        W 6698   3.605   1.141   9.173
 3180W        W 6699   3.470   4.650   7.826
 3181W        W 6700   2.810   3.798  11.032
 3182W        W 6701   2.579   4.304   9.801
 3183W        W 6702   1.319   2.693  11.331
 3184W        W 6703   3.253   0.806   9.385
 3185W        W 6704   6.140   5.549   4.242
 3186W        W 6705   0.839   6.999   0.375
 3187W        W 6706   1.567   3.060  10.830
 3188W        W 6707   9.274   8.423   0.376
 3189W        W 6708   6.912   5.103   2.321
 3190W        W 6709   5.430   7.094  11.014
 3191W        W 6710   6.024   9.505  11.316
 3192W        W 6711   8.166   2.737   2.505
 3193W        W 6712   5.235   9.979   0.296
 3194W        W 6713   6.897   9.813   2.164
 3195W        W 6714   5.207   5.103  10.923
 3196W        W 6715   3.836   8.971   3.175
 3197W        W 6716   9.376   3.439  11.087
 3198W        W 6717   4.449   7.099   2.311
 3199W        W 6718   0.439   6.438   1.718
 3200W        W 6719   5.568   4.552   3.461
 3201W        W 6720   0.811   1.035   9.072
 3202W        W 6721   5.071   1.447   3.147
 3203W        W 6722   6.599   9.213  11.345
 3204W        W 6723   1.761   4.249  11.545
 3205W        W 6724   8.352   7.079   0.018
 3206W        W 6725   4.570   6.448   9.841
 3207W        W 6726   6.665   3.854   9.703
 3208W        W 6727   8.609   1.051  10.308
 3209W        W 6728   3.377   2.582  11.928
 3210W        W 6729   0.413   9.706  10.562
 3211W        W 6730   1.378   5.979   2.997
 3212W        W 6731   7.329   4.371   9.211
 3213W        W 6732   5.175   1.490  10.364
 3214W        W 6733   3.641   4.969   9.161
 3215W        W 6734   8.538   4.255  11.854
 3216W        W 6735   4.340   4.288   1.428
 3217W        W 6736   9.507   1.893   3.421
 3218W        W 6737   3.087   3.791  10.178
 3219W        W 6738   6.457   6.254  11.057
 3220W        W 6739   5.264   7.723   3.613
 3221W        W 6740   0.414   4.311  10.526
 3222W        W 6741   1.388   0.318   1.574
 3223W        W 6742   1.230   2.392   2.263
 3224W        W 6743   9.958   1.713   9.847
 3225W        W 6744   1.761   7.498   9.763
 3226W        W 6745   2.378   3.345   2.737
 3227W        W 6746   5.202   3.651   3.219
 3228W        W 6747   0.513   2.156  10.056
 3229W        W 6748   1.618   1.021   2.700
 3230W        W 6749   7.550   4.789  11.883
 3231W        W 6750   6.533   7.655   0.341
 3232W        W 6751   6.580   4.697   3.406
 3233W        W 6752   6.830   9.263   3.134
 3234W        W 6753   2.062   9.206   3.042
 3235W        W 6754   0.466   6.404  11.130
 3236W        W 6755   4.268   3.069   3.151
 3237W        W 6756   2.229   5.629  11.117
 3238W        W 6757   5.692   3.600   2.202
 3239W        W 6758   9.001   0.980   0.358
 3240W        W 6759   3.119   7.122  10.537
 3241W        W 6760   4.291   4.609  11.848
 3242W        W 6761   0.717   8.302   0.826
 3243W        W 6762   0.897   7.639  10.439
 3244W        W 6763   0.878   1.546   2.693
 3245W        W 6764   4.229   2.374   8.682
 3246W        W 6765   0.111   0.696   1.438
 3247W        W 6766   0.366   1.823   0.435
 3248W        W 6767   0.304   5.586   3.381
 3249W        W 6768   4.714   1.235   3.492
 3250W        W 6769   9.501   6.615   1.196
 3251W        W 6770   6.938   0.174   1.788
 3252W        W 6771   4.181   1.601   2.534
 3253W        W 6772   5.061   5.881  11.122
 3254W        W 6773   6.632   8.182   9.053
 3255W        W 6774   8.088   9.102   1.878
 3256W        W 6775   4.370   6.171   9.027
 3257W        W 6776   7.104   1.733   9.223
 3258W        W 6777   8.901   3.997  11.053
 3259W        W 6778   2.961   6.512   3.264
 3260W        W 6779   6.013   4.320   9.092
 3261W        W 6780   1.637   3.586   9.572
 3262W        W 6781   9.818   9.538  11.989
 3263W        W 6782   6.915   7.697   0.739
 3264W        W 6783   9.853   6.873   2.851
 3265W        W 6784   2.002   0.835  10.710
 3266W        W 6785   4.159   2.007   2.224
 3267W        W 6786   6.911   7.812   8.801
 3268W        W 6787   9.354   0.724   9.018
 3269W        W 6788   0.608   4.654   9.566
 3270W        W 6789   6.642   5.957   3.724
 3271W        W 6790   8.595   5.760   2.910
 3272W        W 6791   8.454   1.353   2.448
 3273W        W 6792   9.229   2.686   1.043
 3274W        W 6793   5.952   6.098   0.853
 3275W        W 6794   1.963   1.716   1.361
 3276W        W 6795   7.875   9.820   2.298
 3277W        W 6796   6.978   6.948   0.407
 3278W        W 6797   9.341   0.047   2.259
 3279W        W 6798   0.449   0.376   0.511
 3280W        W 6799   3.634   0.728  10.325
 3281W        W 6800   2.350   0.714   3.549
 3282W        W 6801   8.614   4.121   8.444
 3283W        W 6802   6.506   4.670   1.772
 3284W        W 6803   2.493   5.533   8.472
 3285W        W 6804   7.576   2.234   0.300
 3286W        W 6805   0.771   3.971  10.279
 3287W        W 6806   3.649   1.524  11.369
 3288W        W 6807   4.879   7.161   8.611
 3289W        W 6808   1.237   6.264   8.639
 3290W        W 6809   9.534   5.028   0.539
 3291W        W 6810   4.643   2.734  11.873
 3292W        W 6811   8.064   6.497   9.404
 3293W        W 6812   1.828   3.256   1.442
 3294W        W 6813   7.690   9.867  11.847
 3295W        W 6814   7.053   4.897   0.033
 3296W        W 6815   7.581   8.398  11.745
 3297W        W 6816   9.958   0.956   0.605
 3298W        W 6817   6.341   5.373  11.386
 3299W        W 6818   5.161   4.633   9.152
 3300W        W 6819   4.124   4.122   3.385
 3301W        W 6820   4.489   3.186   1.791
 3302W        W 6821   9.940   9.466   2.734
 3303W        W 6822   7.041   8.129   1.733
 3304W        W 6823   7.681   3.108   9.638
 3305W        W 6824   0.825   9.752   0.015
 3306W        W 6825   3.538   3.807   2.553
 3307W        W 6826   5.464   7.851   8.976
 3308W        W 6827   5.911   9.654   1.680
 3309W        W 6828   3.969   2.744   0.573
 3310W        W 6829   5.050   3.279  10.529
 3311W        W 6830   6.580   6.994   4.247
 3312W        W 6831   8.072   8.606   1.799
 3313W        W 6832   3.881   0.282  11.798
 3314W        W 6833   0.331   0.458  11.242
 3315W        W 6834   7.937   1.359   1.251
 3316W        W 6835   0.171   1.722   0.994
 3317W        W 6836   3.532   8.883   3.607
 3318W        W 6837   3.903   6.309   3.823
 3319W        W 6838   6.371   0.108   9.658
 3320W        W 6839   8.053   6.402   0.390
 3321W        W 6840   6.381   4.765   9.078
 3322W        W 6841   0.811   4.826   2.396
 3323W        W 6842   2.868   2.358   3.249
 3324W        W 6843   5.447   1.475   9.677
 3325W        W 6844   6.635   5.550   4.040
 3326W        W 6845   8.458   7.947   2.985
 3327W        W 6846   9.863   9.910  11.269
 3328W        W 6847   2.210   1.042   2.157
 3329W        W 6848   2.390   6.892   9.963
 3330W        W 6849   8.997   3.554   2.932
 3331W        W 6850   7.485   3.728   1.455
 3332W        W 6851   1.034   6.614   1.823
 3333W        W 6852   6.004   2.728   9.809
 3334W        W 6853   8.881   1.449   0.533
 3335W        W 6854   9.026   9.651   2.284
 3336W        W 6855   4.692   7.041  10.508
 3337W        W 6856   3.902   5.863  11.772
 3338W        W 6857   6.036   3.198  10.504
 3339W        W 6858   9.830   8.821   9.513
 3340W        W 6859   9.249   0.857  10.894
 3341W        W 6860   5.625   8.363  11.749
 3342W        W 6861   0.657   8.642  10.725
 3343W        W 6862   7.370   9.072   0.480
 3344W        W 6863   1.153   5.083   1.072
 3345W        W 6864   4.620   1.769   9.020
 3346W        W 6865   2.059   2.676   8.636
 3347W        W 6866   5.683   5.201   0.305
 3348W        W 6867   1.272   6.271   0.076
 3349W        W 6868   5.567   9.311   9.753
 3350W        W 6869   1.740   0.880  10.246
 3351W        W 6870   6.533   2.130   0.011
 3352W        W 6871   2.274   9.896  11.005
 3353W        W 6872   5.817   9.062   0.029
 3354W        W 6873   0.157   1.539   3.947
 3355W        W 6874   3.748   3.763  11.835
 3356W        W 6875   2.215   6.041   1.974
 3357W        W 6876   8.121   7.092   8.841
 3358W        W 6877   4.880   4.062   0.471
 3359W        W 6878   5.132   6.839   0.386
 3360W        W 6879   7.981   5.475   1.359
 3361W        W 6880   6.156   5.614   0.784
 3362W        W 6881   0.991   4.166   9.488
 3363W        W 6882   3.364   0.367   9.582
 3364W        W 6883   6.407   8.721  11.459
 3365W        W 6884   8.427   2.664   9.211
 3366W        W 6885   9.448   0.257   8.842
 3367W        W 6886   7.769   5.137   1.022
 3368W        W 6887   7.932   7.551  11.168
 3369W        W 6888   3.498   6.098   1.423
 3370W        W 6889   0.819   1.703   8.954
 3371W        W 6890   6.806   7.485  11.303
 3372W        W 6891   0.870   9.777   0.990
 3373W        W 6892   4.096   3.075   0.937
 3374W        W 6893   7.860   8.242   9.854
 3375W        W 6894   1.912   7.112  11.766
 3376W        W 6895   0.189   7.894   9.374
 3377W        W 6896   5.395   4.227   9.760
 3378W        W 6897   7.471   5.695   3.578
 3379W        W 6898   8.207   4.257   0.619
 3380W        W 6899   0.948   2.294  11.541
 3381W        W 6900   4.797   6.449   0.660
 3382W        W 6901   4.684   0.865   2.680
 3383W        W 6902   6.400   7.514   9.908
 3384W        W 6903   3.681   0.477   1.861
 3385W        W 6904   9.768   6.728   2.382
 3386W        W 6905   4.795   0.404  11.394
 3387W        W 6906   7.433   8.345  10.882
 3388W        W 6907   3.747   9.984  11.412
 3389W        W 6908   0.538   3.702   1.222
 3390W        W 6909   3.161   5.897   0.558
 3391W        W 6910   7.834   8.169   1.782
 3392W        W 6911   3.960   5.919   9.542
 3393W        W 6912   9.277   5.514   3.273
 3394W        W 6913   8.554   7.424   0.828
 3395W        W 6914   9.556   5.231   0.067
 3396W        W 6915   8.171   0.737  10.233
 3397W        W 6916   2.746   4.419   8.472
 3398W        W 6917   0.469   0.869   0.588
 3399W        W 6918   7.037   6.507   3.554
 3400W        W 6919   9.565   3.357  11.902
 3401W        W 6920   9.226   8.176  10.096
 3402W        W 6921   3.096   4.369   0.388
 3403W        W 6922   4.664   6.709   3.626
 3404W        W 6923   3.714   0.708  10.843
 3405W        W 6924   9.691   1.780   1.342
 3406W        W 6925   9.835   0.254   1.223
 3407W        W 6926   2.654   0.787  11.884
 3408W        W 6927   5.028   6.282   3.762
 3409W        W 6928   8.950   9.918   9.575
 3410W        W 6929   5.753   0.133   1.802
 3411W        W 6930   4.990   9.366  11.919
 3412W        W 6931   0.354   7.959  11.774
 3413W        W 6932   7.820   6.699   8.998
 3414W        W 6933   4.594   7.920  10.925
 3415W        W 6934   8.656   0.326   3.103
 3416W        W 6935   3.056   3.332  11.424
 3417W        W 6936   2.244   6.075   0.917
 3418W        W 6937   9.054   0.768  10.401
 3419W        W 6938   8.407   9.349  11.905
 3420W        W 6939   5.238   1.902   8.497
 3421W        W 6940   0.788   8.075  11.515
 3422W        W 6941   7.910   3.390   1.315
 3423W        W 6942   2.196   4.332   2.807
 3424W        W 6943   8.052   4.615   9.865
 3425W        W 6944   3.737   8.888   0.759
 3426W        W 6945   0.449   4.202  11.050
 3427W        W 6946   5.008   2.101  11.775
 3428W        W 6947   5.022   9.988   2.234
 3429W        W 6948   4.307   8.928   3.402
 3430W        W 6949   0.267   8.792  10.337
 3431W        W 6950   2.582   4.702   2.885
 3432W        W 6951   3.159   2.246   9.452
 3433W        W 6952   6.296   3.020  10.106
 3434W        W 6953   1.463   2.157   3.201
 3435W        W 6954   2.499   2.626   9.529
 3436W        W 6955   6.591   1.756   1.942
 3437W        W 6956   2.775   5.956   0.191
 3438W        W 6957   7.395   2.662   9.588
 3439W        W 6958   3.580   4.571   8.838
 3440W        W 6959   8.432   2.669  10.955
 3441W        W 6960   0.357   5.961   0.775
 3442W        W 6961   1.248   8.058  11.763
 3443W        W 6962   9.260   3.800  10.756
 3444W        W 6963   9.581   1.724  10.908
 3445W        W 6964   1.436   3.077  10.298
 3446W        W 6965   7.135   5.048   8.772
 3447W        W 6966   1.300   9.365  10.348
 3448W        W 6967   6.417   0.977  10.613
 3449W        W 6968   3.139   8.977   9.293
 3450W        W 6969   6.221   1.822   8.774
 3451W        W 6970   3.742   8.517  10.079
 3452W        W 6971   3.756   7.892   2.481
 3453W        W 6972   1.786   1.784   9.580
 3454W        W 6973   8.081   3.081   1.696
 3455W        W 6974   6.092   1.853  10.735
 3456W        W 6975   5.973   3.400  10.012
 3457W        W 6976   6.017   9.499   9.160
 3458W        W 6977   6.060   4.227   1.217
 3459W        W 6978   9.540   5.338  10.042
 3460W        W 6979   6.388   0.203   1.140
 3461W        W 6980   0.453   9.337   0.324
 3462W        W 6981   7.877   3.214   9.166
 3463W        W 6982   1.711   2.689   2.602
 3464W        W 6983   6.911   2.353   9.135
 3465W        W 6984   3.159   9.978   9.242
 3466W        W 6985   3.475   9.415   3.683
 3467W        W 6986   5.274   6.947   2.831
 3468W        W 6987   1.833   3.776  11.737
 3469W        W 6988   8.168   1.477  10.976
 3470W        W 6989   5.109   3.517   8.098
 3471W        W 6990   0.898   3.156   3.618
 3472W        W 6991   8.729   9.353   1.449
 3473W        W 6992   5.277   4.611  11.131
 3474W        W 6993   4.972   7.631   9.854
 3475W        W 6994   7.916   2.251  10.392
 3476W        W 6995   6.015   4.798   1.751
 3477W        W 6996   1.541   4.319   9.661
 3478W        W 6997   6.178   6.393   2.927
 3479W        W 6998   5.521   3.489  10.286
 3480W        W 6999   5.330   2.962   8.717
 3481W        W 7000   7.585   8.473   2.168
 3482W        W 7001   3.732   3.555   8.843
 3483W        W 7002   3.286   4.632   3.444
 3484W        W 7003   4.621   3.609   2.873
 3485W        W 7004   3.477   7.921   0.183
 3486W        W 7005   6.956   4.666   2.632
 3487W        W 7006   2.245   4.573   3.274
 3488W        W 7007   8.474   3.350   1.839
 3489W        W 7008   4.247   7.506   0.270
 3490W        W 7009   0.265   5.428  10.569
 3491W        W 7010   2.348   0.185  10.017
 3492W        W 7011   1.316   2.340   9.046
 3493W        W 7012   7.369   6.149   3.304
 3494W        W 7013   2.680   7.038   0.313
 3495W        W 7014   3.734   5.332   3.717
 3496W        W 7015   2.735   6.884  10.768
 3497W        W 7016   1.738   8.959  11.753
 3498W        W 7017   4.138   8.570  11.742
 3499W        W 7018   5.542   2.907  11.640
 3500W        W 7019   5.434   0.442   0.264
 3501W        W 7020   0.386   4.183   1.287
 3502W        W 7021   9.656   6.065   8.219
 3503W        W 7022   4.430   7.050   8.810
 3504W        W 7023   8.901   9.476  11.950
 3505W        W 7024   6.108   5.124   0.904
 3506W        W 7025   9.042   2.672   2.922
 3507W        W 7026   2.745   3.270   1.508
 3508W        W 7027   5.726   7.075   1.909
 3509W        W 7028   5.140   7.751   3.081
 3510W        W 7029   4.145   7.531   9.716
 3511W        W 7030   3.529   6.887  11.266
 3512W        W 7031   0.904   2.778   0.256
 3513W        W 7032   1.354   1.863   9.301
 3514W        W 7033   4.197   5.557   2.918
 3515W        W 7034   9.387   7.255   9.174
 3516W        W 7035   5.156   9.970   3.128
 3517W        W 7036   6.563   6.727   1.579
 3518W        W 7037   2.107   4.785  10.352
 3519W        W 7038   3.387   0.300  11.619
 3520W        W 7039   3.536   9.406   0.772
 3521W        W 7040   5.553   1.959  11.836
 3522W        W 7041   8.524   6.864  11.049
 3523W        W 7042   8.785   0.067   2.637
 3524W        W 7043   7.294   0.120   1.415
 3525W        W 7044   2.006   8.382   9.396
 3526W        W 7045   1.980   1.398   2.700
 3527W        W 7046   4.427   7.077  10.962
 3528W        W 7047   5.143   1.396   0.400
 3529W        W 7048   9.929   8.458  11.048
 3530W        W 7049   0.018   0.388   2.688
 3531W        W 7050   6.252   6.487  11.885
 3532W        W 7051   2.864   7.794   1.071
 3533W        W 7052   5.628   0.698   2.165
 3534W        W 7053   0.345   6.037   9.237
 3535W        W 7054   1.851   9.506   1.428
 3536W        W 7055   4.997   6.997   8.145
 3537W        W 7056   9.508   8.467   9.275
 3538W        W 7057   6.702   4.503  11.010
 3539W        W 7058   0.992   0.762  11.719
 3540W        W 7059   7.158   6.482   0.399
 3541W        W 7060   8.968   3.564  11.936
 3542W        W 7061   2.316   1.207   9.920
 3543W        W 7062   1.304   8.282   1.430
 3544W        W 7063   9.369   8.552   1.838
 3545W        W 7064   5.496   3.858   8.242
 3546W        W 7065   9.888   0.264  10.475
 3547W        W 7066   8.226   4.788   2.692
 3548W        W 7067   8.982   8.225   0.769
 3549W        W 7068   6.138   0.731   0.524
 3550W        W 7069   5.492   5.040   9.195
 3551W        W 7070   5.842   6.962   8.743
 3552W        W 7071   0.787   7.864  10.000
 3553W        W 7072   6.558   5.617   3.332
 3554W        W 7073   0.360   3.965   0.788
 3555W        W 7074   2.184   1.677  11.749
 3556W        W 7075   5.152   1.612  11.875
 3557W        W 7076   7.914   6.807   3.142
 3558W        W 7077   0.921   1.466   9.951
 3559W        W 7078   0.634   9.819   1.499
 3560W        W 7079   4.318   9.075   9.711
 3561W        W 7080   7.832   3.222  11.330
 3562W        W 7081   6.967   3.764  10.605
 3563W        W 7082   6.954   8.450   0.286
 3564W        W 7083   6.926   1.126   9.881
 3565W        W 7084   1.729   2.638  10.283
 3566W        W 7085   0.948   9.473  11.206
 3567W        W 7086   6.535   7.989  10.015
 3568W        W 7087   6.972   9.642  10.224
 3569W        W 7088   1.844   8.887   1.878
 3570W        W 7089   1.141   5.023   3.248
 3571W        W 7090   9.851   6.041   0.644
 3572W        W 7091   8.684   2.963   3.131
 3573W        W 7092   4.549   7.398  10.002
 3574W        W 7093   4.659   7.000   1.714
 3575W        W 7094   4.513   9.125  10.333
 3576W        W 7095   9.306   7.172   1.722
 3577W        W 7096   8.736   4.480   9.237
 3578W        W 7097   9.813   8.834   1.016
 3579W        W 7098   9.235   0.307   9.344
 3580W        W 7099   1.325   1.158   9.973
 3581W        W 7100   8.073   8.728   9.882
 3582W        W 7101   7.707   6.208   9.182
 3583W        W 7102   4.286   8.357  10.804
 3584W        W 7103   1.772   6.139   0.745
 3585W        W 7104   1.681   0.679   8.751
 3586W        W 7105   4.184   7.854   2.788
 3587W        W 7106   6.713   9.296   3.623
 3588W        W 7107   6.486   0.890  10.122
 3589W        W 7108   4.875   8.214   3.472
 3590W        W 7109   5.257   7.453   2.316
 3591W        W 7110   5.781   7.474   8.743
 3592W        W 7111   1.745   2.050   8.932
 3593W        W 7112   2.770   0.886   9.564
 3594W        W 7113   5.033   7.304   0.533
 3595W        W 7114   9.926   9.797  10.784
 3596W        W 7115   3.281   5.145   9.492
 3597W        W 7116   1.543   9.899   1.311
 3598W        W 7117   0.451   1.712   2.943
 3599W        W 7118   7.295   9.085  11.448
 3600W        W 7119   1.934   0.305   9.003
 3601W        W 7120   7.334   5.212   3.711
 3602W        W 7121   9.562   9.663  10.441
 3603W        W 7122   4.751   0.735   1.712
 3604W        W 7123   7.008   1.283   2.194
 3605W        W 7124   1.802   5.710   1.048
 3606W        W 7125   2.300   1.207   3.434
 3607W        W 7126   6.567   4.888   0.927
 3608W        W 7127   9.533   0.096   3.049
 3609W        W 7128   5.530   8.322   2.622
 3610W        W 7129   1.344   7.620  11.990
 3611W        W 7130   6.643   3.391   0.788
 3612W        W 7131   4.743   1.110   9.465
 3613W        W 7132   2.628   2.182   1.696
 3614W        W 7133   0.590   3.157   3.213
 3615W        W 7134   8.561   8.927   1.197
 3616W        W 7135   6.180   1.261   3.340
 3617W        W 7136   5.212   7.428   4.039
 3618W        W 7137   6.105   4.777  11.515
 3619W        W 7138   2.327   9.886   0.866
 3620W        W 7139   2.409   2.464   0.850
 3621W        W 7140   7.246   2.570   3.567
 3622W        W 7141   5.580   6.592   2.038
 3623W        W 7142   4.745   2.234   3.492
 3624W        W 7143   1.846   9.964   1.752
 3625W        W 7144   6.618   8.267   9.565
 3626W        W 7145   1.343   4.162   2.652
 3627W        W 7146   6.443   3.107   8.766
 3628W        W 7147   3.206   5.588   2.879
 3629W        W 7148   5.384   5.921   3.806
 3630W        W 7149   9.618   5.131   3.127
 3631W        W 7150   5.498   9.022   0.455
 3632W        W 7151   3.632   2.084  10.444
 3633W        W 7152   6.887   7.316   9.967
 3634W        W 7153   3.070   9.471   0.962
 3635W        W 7154   3.355   3.650   9.753
 3636W        W 7155   5.590   9.951   0.997
 3637W        W 7156   8.896   5.986   9.529
 3638W        W 7157   8.596   5.732   0.290
 3639W        W 7158   7.611   3.265   1.732
 3640W        W 7159   5.197   5.801   1.696
 3641W        W 7160   7.886   0.052   9.013
 3642W        W 7161   0.481   9.211  10.521
 3643W        W 7162   1.542   5.067   1.578
 3644W        W 7163   8.364   8.830   2.661
 3645W        W 7164   4.274   0.733   0.457
 3646W        W 7165   5.187   9.360   2.211
 3647W        W 7166   4.673   3.657  11.753
 3648W        W 7167   4.490   1.871   9.868
 3649W        W 7168   8.834   2.226   2.820
 3650W        W 7169   5.397   7.630   8.458
 3651W        W 7170   0.428   1.851  11.438
 3652W        W 7171   1.866   9.045   8.826
 3653W        W 7172   0.389   7.029   0.827
 3654W        W 7173   4.246   3.308   2.697
 3655W        W 7174   8.110   3.725  11.935
 3656W        W 7175   6.818   2.346  11.401
 3657W        W 7176   0.944   2.367  10.717
 3658W        W 7177   2.892   2.790   3.711
 3659W        W 7178   6.094   9.949   2.125
 3660W        W 7179   6.768   4.646   1.335
 3661W        W 7180   6.569   8.817   3.089
 3662W        W 7181   8.080   9.237   9.974
 3663W        W 7182   3.127   7.553  10.237
 3664W        W 7183   9.660   2.829  11.716
 3665W        W 7184   9.652   4.709  10.917
 3666W        W 7185   6.075   9.911   3.189
 3667W        W 7186   1.767   8.054   1.473
 3668W        W 7187   3.560   6.599   9.997
 3669W        W 7188   1.830   1.724   2.318
 3670W        W 7189   0.712   5.972  10.902
 3671W        W 7190   7.171   0.247   3.224
 3672W        W 7191   1.608   7.474   1.716
 3673W        W 7192   4.642   8.759   8.699
 3674W        W 7193   2.295   7.064   2.594
 3675W        W 7194   7.659   7.882  10.895
 3676W        W 7195   1.296   0.426   1.072
 3677W        W 7196   0.567   0.854  11.450
 3678W        W 7197   3.221   4.661   2.065
 3679W        W 7198   7.135   5.310  11.755
 3680W        W 7199   5.173   7.843   1.068
 3681W        W 7200   4.520   0.169  10.599
 3682W        W 7201   4.960   3.102  11.004
 3683W        W 7202   8.427   9.906   1.052
 3684W        W 7203   1.659   4.497  10.811
 3685W        W 7204   8.426   0.447   2.689
 3686W        W 7205   4.031   3.386   1.356
 3687W        W 7206   0.425   1.761  10.924
 3688W        W 7207   5.118   5.711   2.191
 3689W        W 7208   6.810   5.554  11.430
 3690W        W 7209   5.588   2.613   1.901
 3691W        W 7210   0.790   4.334   9.919
 3692W        W 7211   3.005   8.815   1.366
 3693W        W 7212   9.043   9.934   9.033
 3694W        W 7213   2.226   4.462  11.699
 3695W        W 7214   6.293   9.105   9.419
 3696W        W 7215   9.336   5.721   9.511
 3697W        W 7216   8.034   6.237   8.798
 3698W        W 7217   4.255   7.554  10.919
 3699W        W 7218   8.355   6.588   3.268
 3700W        W 7219   7.442   4.025   8.837
 3701W        W 7220   7.813   2.698   9.317
 3702W        W 7221   0.388   4.821  10.516
 3703W        W 7222   3.096   8.415  11.588
 3704W        W 7223   2.240   7.406   9.951
 3705W        W 7224   7.963   7.899   1.297
 3706W        W 7225   2.184   1.893   2.633
 3707W        W 7226   6.166   5.243   9.784
 3708W        W 7227   2.352   0.271   3.253
 3709W        W 7228   0.375   6.409  11.677
 3710W        W 7229   4.810   9.552   3.050
 3711W        W 7230   2.590   0.452   0.239
 3712W        W 7231   3.849   4.641   2.175
 3713W        W 7232   2.279   5.209  10.617
 3714W        W 7233   5.411   1.082   0.830
 3715W        W 7234   9.290   2.056  10.070
 3716W        W 7235   2.277   0.894   9.367
 3717W        W 7236   1.786   8.690   0.807
 3718W        W 7237   7.237   6.835  10.618
 3719W        W 7238   4.081   8.547   2.039
 3720W        W 7239   2.846   4.629  11.033
 3721W        W 7240   4.719   5.613   1.709
 3722W        W 7241   1.722   8.767   2.418
 3723W        W 7242   0.269   8.282  10.269
 3724W        W 7243   6.667   6.689   0.094
 3725W        W 7244   6.568   5.075   9.442
 3726W        W 7245   0.439   2.102  11.889
 3727W        W 7246   7.578   8.929   2.815
 3728W        W 7247   3.680   0.056  10.031
 3729W        W 7248   2.241   6.403   1.313
 3730W        W 7249   5.454   3.648   0.284
 3731W        W 7250   3.594   5.043   1.968
 3732W        W 7251   1.141   4.285   1.722
 3733W        W 7252   5.989   8.454  11.396
 3734W        W 7253   8.752   8.565   2.899
 3735W        W 7254   0.928   7.955   2.060
 3736W        W 7255   3.258   9.927   9.767
 3737W        W 7256   7.476   7.003   2.619
 3738W        W 7257   4.833   5.261   0.390
 3739W        W 7258   2.710   8.439   3.420
 3740W        W 7259   5.481   9.449   0.163
 3741W        W 7260   2.368   4.606   1.882
 3742W        W 7261   3.545   9.253   9.420
 3743W        W 7262   5.665   3.998   2.531
 3744W        W 7263   8.870   9.747   0.672
 3745W        W 7264   3.861   2.652   8.965
 3746W        W 7265   6.010   2.784   1.653
 3747W        W 7266   9.059   0.496   2.850
 3748W        W 7267   1.249   8.290   8.817
 3749W        W 7268   6.791   1.240  10.360
 3750W        W 7269   5.114   8.549   8.709
 3751W        W 7270   9.428   4.659   1.925
 3752W        W 7271   9.776   9.792   0.938
 3753W        W 7272   4.974   0.300   1.215
 3754W        W 7273   0.411   5.555  11.045
 3755W        W 7274   8.094   4.139  11.624
 3756W        W 7275   0.367   4.639  10.051
 3757W        W 7276   2.234   8.417   2.668
 3758W        W 7277   3.972   1.874   0.444
 3759W        W 7278   3.798   2.770  11.728
 3760W        W 7279   1.192   2.124   1.801
 3761W        W 7280   6.349   4.122   9.430
 3762W        W 7281   6.243   6.061   8.860
 3763W        W 7282   5.987   9.436   0.307
 3764W        W 7283   4.923   1.157  11.835
 3765W        W 7284   5.929   5.296   1.848
 3766W        W 7285   2.770   5.962  10.779
 3767W        W 7286   1.320   2.370   2.778
 3768W        W 7287   2.258   0.020   2.410
 3769W        W 7288   7.187   9.116   0.009
 3770W        W 7289   6.911   4.933   0.539
 3771W        W 7290   6.911   5.298   0.885
 3772W        W 7291   9.056   3.879   1.252
 3773W        W 7292   4.209   0.930  11.522
 3774W        W 7293   6.891   8.807  11.421
 3775W        W 7294   6.702   9.017   8.793
 3776W        W 7295   4.571   0.259   8.919
 3777W        W 7296   8.455   8.057   9.635
 3778W        W 7297   8.930   4.389   1.302
 3779W        W 7298   1.799   9.592   2.801
 3780W        W 7299   2.699   9.261  11.722
 3781W        W 7300   2.261   9.498   9.453
 3782W        W 7301   8.008   7.868   0.336
 3783W        W 7302   6.945   4.728   9.154
 3784W        W 7303   0.110   0.140   0.216
 3785W        W 7304   7.577   5.629   1.998
 3786W        W 7305   4.533   0.819   3.181
 3787W        W 7306   4.271   1.849   1.725
 3788W        W 7307   7.199   1.344   3.114
 3789W        W 7308   2.317   9.890   3.596
 3790W        W 7309   6.858   2.877   3.359
 3791W        W 7310   0.069   7.617  11.532
 3792W        W 7311   4.939   1.463   8.785
 3793W        W 7312   7.550   7.112  10.305
 3794W        W 7313   4.792   8.997   0.974
 3795W        W 7314   2.388   0.789  11.071
 3796W        W 7315   5.060   3.104   0.547
 3797W        W 7316   5.625   5.948   9.544
 3798W        W 7317   3.223   9.892  10.782
 3799W        W 7318   1.629   2.370   1.928
 3800W        W 7319   2.243   4.024   1.320
 3801W        W 7320   0.834   8.913   2.156
 3802W        W 7321   2.132   3.159   2.323
 3803W        W 7322   6.082   2.644  11.815
 3804W        W 7323   9.709   4.571   0.434
 3805W        W 7324   1.509   4.507   0.795
 3806W        W 7325   5.179   4.125   2.445
 3807W        W 7326   8.941   7.541   0.505
 3808W        W 7327   3.255   6.634  10.414
 3809W        W 7328   4.542   2.259   1.868
 3810W        W 7329   2.825   1.455   2.752
 3811W        W 7330   5.765   4.291   8.437
 3812W        W 7331   8.334   9.050  11.484
 3813W        W 7332   8.180   1.892  11.280
 3814W        W 7333   0.367   0.717   2.908
 3815W        W 7334   5.779   5.569   2.814
 3816W        W 7335   4.793   4.326  10.972
 3817W        W 7336   1.867   2.277   2.884
 3818W        W 7337   4.416   2.819   0.349
 3819W        W 7338   8.212   3.886   8.669
 3820W        W 7339   1.276   0.622   2.299
 3821W        W 7340   2.058   7.440   2.901
 3822W        W 7341   3.432   4.681   2.540
 3823W        W 7342   7.822   9.522   0.528
 3824W        W 7343   7.611   0.776  11.375
 3825W        W 7344   5.415   8.134   3.251
 3826W        W 7345   1.317   4.411  11.815
 3827W        W 7346   9.513   1.249  10.772
 3828W        W 7347   3.971   7.498   1.896
 3829W        W 7348   6.259   0.387   3.445
 3830W        W 7349   4.691   7.463   1.458
 3831W        W 7350   3.501   3.309  10.795
 3832W        W 7351   7.912   3.944   2.341
 3833W        W 7352   2.413   2.003   0.054
 3834W        W 7353   7.319   7.015   9.831
 3835W        W 7354   3.637   2.019   9.514
 3836W        W 7355   9.314   1.340   1.307
 3837W        W 7356   5.387   9.244  10.749
 3838W        W 7357   3.630   6.425  10.960
 3839W        W 7358   2.269   3.675   0.380
 3840W        W 7359   1.272   0.361  11.537
 3841W        W 7360   3.770   3.266  11.820
 3842W        W 7361   0.429   9.502   0.807
 3843W        W 7362   2.280   3.101   9.618
 3844W        W 7363   4.241   5.940   4.059
 3845W        W 7364   1.387   5.507   2.702
 3846W        W 7365   9.997   1.277  10.959
 3847W        W 7366   6.600   6.638   1.078
 3848W        W 7367   4.535   8.785   1.878
 3849W        W 7368   5.857   4.097  10.902
 3850W        W 7369   1.752   5.722  11.290
 3851W        W 7370   0.869   1.923   2.165
 3852W        W 7371   0.824   7.102   2.875
 3853W        W 7372   6.568   5.142   3.112
 3854W        W 7373   7.739   1.962   2.959
 3855W        W 7374   2.800   5.100   9.230
 3856W        W 7375   7.477   5.228   0.160
 3857W        W 7376   0.403   3.455  10.208
 3858W        W 7377   1.115   7.472   9.003
 3859W        W 7378   0.213   3.836  10.453
 3860W        W 7379   7.410   1.696  11.577
 3861W        W 7380   7.949   2.845   1.253
 3862W        W 7381   8.915   7.023  11.825
 3863W        W 7382   5.438   3.649   3.670
 3864W        W 7383   3.746   4.398   1.171
 3865W        W 7384   2.851   1.712   9.157
 3866W        W 7385   0.162   2.415   3.480
 3867W        W 7386   9.165   5.056   1.800
 3868W        W 7387   3.505   8.749   1.307
 3869W        W 7388   5.548   2.268   3.979
 3870W        W 7389   8.976   8.856   1.973
 3871W        W 7390   1.611   9.083   2.843
 3872W        W 7391   6.621   1.937   0.678
 3873W        W 7392   0.953   2.119  10.292
 3874W        W 7393   3.896   5.449   9.984
 3875W        W 7394   3.182   1.263  11.299
 3876W        W 7395   2.157   5.081   2.356
 3877W        W 7396   3.101   9.272   0.503
 3878W        W 7397   8.286   1.463  11.566
 3879W        W 7398   1.176   8.011   0.823
 3880W        W 7399   6.656   3.753   2.427
 3881W        W 7400   5.556   7.922   9.937
 3882W        W 7401   9.366   1.359  11.749
 3883W        W 7402   4.646   8.149  10.457
 3884W        W 7403   3.647   6.261  11.960
 3885W        W 7404   8.492   7.927   1.047
 3886W        W 7405   0.386   2.846  11.259
 3887W        W 7406   1.839   8.414   0.353
 3888W        W 7407   1.884   3.493  10.022
 3889W        W 7408   8.435   9.481   0.753
 3890W        W 7409   6.975   0.173   0.879
 3891W        W 7410   7.267   8.539   2.595
 3892W        W 7411   8.828   4.074   1.680
 3893W        W 7412   7.920   4.094   3.128
 3894W        W 7413   9.190   3.520  10.139
 3895W        W 7414   4.501   0.412   2.818
 3896W        W 7415   5.572   1.620   3.305
 3897W        W 7416   4.259   4.402   0.930
 3898W        W 7417   2.663   7.644   9.793
 3899W        W 7418   4.412   0.617   2.314
 3900W        W 7419   3.728   3.667   1.718
 3901W        W 7420   4.137   3.660   9.150
 3902W        W 7421   4.761   9.170  11.491
 3903W        W 7422   5.046   8.036  11.564
 3904W        W 7423   3.575   6.913   3.471
 3905W        W 7424   9.885   7.130  11.530
 3906W        W 7425   5.224   9.723   2.623
 3907W        W 7426   9.853   6.379   9.785
 3908W        W 7427   3.276   1.572   0.110
 3909W        W 7428   2.165   7.509   0.562
 3910W        W 7429   1.362   8.458  10.981
 3911W        W 7430   3.815   3.337   8.393
 3912W        W 7431   8.864   8.532   1.599
 3913W        W 7432   7.511   3.073  10.562
 3914W        W 7433   4.312   3.788  10.623
 3915W        W 7434   6.977   8.319   2.232
 3916W        W 7435   2.879   2.253   8.790
 3917W        W 7436   0.495   8.023   2.382
 3918W        W 7437   6.094   8.989   3.207
 3919W        W 7438   7.636   0.791   1.877
 3920W        W 7439   2.837   3.569   8.842
 3921W        W 7440   4.679   9.403   9.936
 3922W        W 7441   8.959   8.643   1.088
 3923W        W 7442   5.125   8.362  10.556
 3924W        W 7443   1.800   7.019   0.405
 3925W        W 7444   9.948   7.879   1.183
 3926W        W 7445   4.099   9.413  10.023
 3927W        W 7446   3.277   5.084   3.752
 3928W        W 7447   4.266   9.014   1.056
 3929W        W 7448   6.254   6.838   2.702
 3930W        W 7449   9.144   3.097  11.982
 3931W        W 7450   3.514   6.030   2.385
 3932W        W 7451   0.139   2.602  11.775
 3933W        W 7452   0.840   6.120   9.381
 3934W        W 7453   3.384   2.698   3.257
 3935W        W 7454   7.153   1.590  10.246
 3936W        W 7455   7.924   9.771   9.884
 3937W        W 7456   5.673   0.304  11.291
 3938W        W 7457   3.758   5.508   1.756
 3939W        W 7458   7.713   3.376  11.835
 3940W        W 7459   4.069   0.152   2.778
 3941W        W 7460   9.595   2.908   9.651
 3942W        W 7461   3.641   7.576   9.877
 3943W        W 7462   2.948   2.678   2.297
 3944W        W 7463   5.633   4.705  11.659
 3945W        W 7464   4.130   4.099  11.049
 3946W        W 7465   7.536   8.000  11.377
 3947W        W 7466   1.982   1.281  10.453
 3948W        W 7467   3.589   9.043   8.967
 3949W        W 7468   5.072   9.293   1.326
 3950W        W 7469   2.862   0.444   9.825
 3951W        W 7470   8.048   4.604  11.850
 3952W        W 7471   2.968   7.021   8.735
 3953W        W 7472   9.522   4.222  10.781
 3954W        W 7473   5.513   0.271  11.780
 3955W        W 7474   9.382   7.014   3.109
 3956W        W 7475   6.538   1.629  10.588
 3957W        W 7476   2.744   4.713   0.593
 3958W        W 7477   3.504   3.211   1.661
 3959W        W 7478   4.722   9.240   3.560
 3960W        W 7479   4.799   5.153   9.954
 3961W        W 7480   1.905   6.137  10.335
 3962W        W 7481   7.317   2.873   1.597
 3963W        W 7482   2.230   6.588   2.740
 3964W        W 7483   0.505   4.065   3.424
 3965W        W 7484   5.378   6.168   9.938
 3966W        W 7485   4.691   9.090   2.277
 3967W        W 7486   0.030   5.085   9.212
 3968W        W 7487   4.484   3.269   9.117
 3969W        W 7488   4.669   7.511   8.970
 3970W        W 7489   5.946   9.139   1.745
 3971W        W 7490   7.617   3.847   0.034
 3972W        W 7491   9.584   5.578   2.866
 3973W        W 7492   6.928   6.421   1.818
 3974W        W 7493   5.427   6.110  11.992
 3975W        W 7494   4.291   9.849   0.117
 3976W        W 7495   8.987   9.946   3.099
 3977W        W 7496   7.718   4.092   0.657
 3978W        W 7497   4.429   1.507   2.068
 3979W        W 7498   6.155   1.247   0.394
 3980W        W 7499   9.295   7.913   0.537
 3981W        W 7500   9.377   8.708   2.325
 3982W        W 7501   0.668   9.371   1.249
 3983W        W 7502   2.814   6.554   0.408
 3984W        W 7503   8.773   4.138   2.222
 3985W        W 7504   3.744   7.817   1.553
 3986W        W 7505   2.609   9.399   1.959
 3987W        W 7506   2.646   2.851   2.790
 3988W        W 7507   6.156   4.531   3.677
 3989W        W 7508   9.762   2.591   2.295
 3990W        W 7509   7.835   5.105   0.522
 3991W        W 7510   5.242   3.873   1.615
 3992W        W 7511   1.363   0.272  10.241
 3993W        W 7512   8.235   8.359   2.798
 3994W        W 7513   4.964   7.368   2.771
 3995W        W 7514   3.891   2.844   3.496
 3996W        W 7515   9.919   5.127  11.723
 3997W        W 7516   6.083   5.491  10.854
 3998W        W 7517   3.964   2.720   9.922
 3999W        W 7518   0.303   2.669   9.144
 4000W        W 7519   6.352   6.099   3.319
 4001W        W 7520   7.084   7.368   3.008
 4002W        W 7521   1.438   6.968   1.659
 4003W        W 7522   2.346   4.613  11.209
 4004W        W 7523   0.387   2.816   0.203
 4005W        W 7524   3.630   3.122   1.174
 4006W        W 7525   8.442   7.544   0.344
 4007W        W 7526   4.994   5.124   9.097
 4008W        W 7527   4.291   4.517   3.673
 4009W        W 7528   1.466   5.674   3.631
 4010W        W 7529   8.558   2.357   1.976
 4011W        W 7530   4.488   7.408   0.702
 4012W        W 7531   5.609   8.002   0.822
 4013W        W 7532   1.940   4.748   0.896
 4014W        W 7533   7.420   8.080   2.428
 4015W        W 7534   4.786   9.053   9.464
 4016W        W 7535   7.627   5.627  10.752
 4017W        W 7536   9.394   4.212   1.512
 4018W        W 7537   4.124   1.791   8.951
 4019W        W 7538   7.008   2.413   8.626
 4020W        W 7539   8.897   2.196   2.317
 4021W        W 7540   7.020   8.007   1.190
 4022W        W 7541   3.101   9.787   0.302
 4023W        W 7542   8.102   4.572   3.145
 4024W        W 7543   3.150   3.355  10.437
 4025W        W 7544   3.112   7.180  11.041
 4026W        W 7545   7.369   6.214  11.851
 4027W        W 7546   0.856   5.686  11.344
 4028W        W 7547   4.266   2.747  11.481
 4029W        W 7548   8.520   8.738  10.226
 4030W        W 7549   6.918   8.934   2.433
 4031W        W 7550   0.323   7.447   1.868
 4032W        W 7551   4.978   9.052   1.804
 4033W        W 7552   3.613   0.227  10.546
 4034W        W 7553   7.059   5.715   9.409
 4035W        W 7554   2.250   6.891   1.176
 4036W        W 7555   7.193   6.514   2.553
 4037W        W 7556   4.374   1.637   1.265
 4038W        W 7557   4.168   8.747   1.509
 4039W        W 7558   1.842   7.520   9.255
 4040W        W 7559   4.150   5.760   0.476
 4041W        W 7560   7.148   0.624   3.569
 4042W        W 7561   5.761   8.529   9.391
 4043W        W 7562   5.085   9.559  11.421
 4044W        W 7563   6.431   6.952  11.741
 4045W        W 7564   1.774   9.399   1.918
 4046W        W 7565   9.441   2.267   9.203
 4047W        W 7566   2.526   4.912   1.498
 4048W        W 7567   8.576   0.445  10.059
 4049W        W 7568   0.857   9.874   2.715
 4050W        W 7569   8.790   2.657  10.058
 4051W        W 7570   5.947   0.039   1.330
 4052W        W 7571   5.514   3.105  11.102
 4053W        W 7572   8.572   4.998   1.005
 4054W        W 7573   5.678   0.058   0.531
 4055W        W 7574   3.082   2.866   8.745
 4056W        W 7575   7.082   9.985   2.768
 4057W        W 7576   0.244   5.063   0.645
 4058W        W 7577   6.551   1.630   2.425
 4059W        W 7578   1.211   3.790  10.520
 4060W        W 7579   2.358   3.329   8.963
 4061W        W 7580   4.125   5.702   9.098
 4062W        W 7581   2.020   8.783   9.735
 4063W        W 7582   6.569   6.473   4.363
 4064W        W 7583   6.692   9.904  11.880
 4065W        W 7584   0.665   0.472  10.826
 4066W        W 7585   7.115   2.311   2.326
 4067W        W 7586   2.661   7.752  11.758
 4068W        W 7587   6.903   0.398  10.934
 4069W        W 7588   6.174   1.729  11.209
 4070W        W 7589   7.062   4.206   2.909
 4071W        W 7590   1.728   4.445  10.310
 4072W        W 7591   7.989   1.126   0.811
 4073W        W 7592   4.122   5.060   9.297
 4074W        W 7593   5.162   1.875   2.889
 4075W        W 7594   0.798   2.159   0.532
 4076W        W 7595   4.000   0.364   1.283
 4077W        W 7596   7.444   3.887  10.112
 4078W        W 7597   6.440   6.221   0.810
 4079W        W 7598   6.427   8.483  10.025
 4080W        W 7599   5.742   5.543   9.889
 4081W        W 7600   0.963   0.260   3.057
 4082W        W 7601   8.630   1.771   2.718
 4083W        W 7602   2.302   6.151  11.102
 4084W        W 7603   4.236   9.934  11.585
 4085W        W 7604   2.369   8.831   3.315
 4086W        W 7605   6.542   4.637   8.219
 4087W        W 7606   6.757   5.929   1.881
 4088W        W 7607   8.001   4.180   0.146
 4089W        W 7608   7.855   6.679   3.666
 4090W        W 7609   9.278   0.869   1.114
 4091W        W 7610   0.891   0.801   3.170
 4092W        W 7611   7.383   8.404   1.138
 4093W        W 7612   9.557   0.906  11.329
 4094W        W 7613   6.955   8.072  10.829
 4095W        W 7614   7.433   2.766   2.073
 4096W        W 7615   6.427   2.606   1.395
 4097W        W 7616   3.277   1.219   2.628
 4098W        W 7617   6.331   2.482  11.369
 4099W        W 7618   7.081   0.496   2.752
 4100W        W 7619   4.241   4.575   9.041
 4101W        W 7620   8.794   9.987  11.937
 4102W        W 7621   3.219   1.781  10.420
 4103W        W 7622   3.702   8.485  10.985
 4104W        W 7623   2.934   5.826   1.837
 4105W        W 7624   3.183   4.960   1.665
 4106W        W 7625   7.513   0.357   3.808
 4107W        W 7626   2.563   3.946  10.171
 4108W        W 7627   6.064   9.743   0.888
 4109W        W 7628   4.097   1.273   2.958
 4110W        W 7629   3.613   3.762   3.051
 4111W        W 7630   9.838   2.834   3.481
 4112W        W 7631   5.314   0.344   9.646
 4113W        W 7632   9.534   5.734   1.645
 4114W        W 7633   7.619   7.487   0.774
 4115W        W 7634   6.689   7.566   2.750
 4116W        W 7635   9.271   6.655   1.646
 4117W        W 7636   1.327   1.199   1.493
 4118W        W 7637   2.349   4.088   8.480
 4119W        W 7638   4.136   0.825   9.543
 4120W        W 7639   3.101   0.267   0.476
 4121W        W 7640   4.519   1.245   9.013
 4122W        W 7641   9.369   6.173   9.737
 4123W        W 7642   8.968   2.264   1.061
 4124W        W 7643   1.296   3.451   0.081
 4125W        W 7644   0.729   3.723   0.251
 4126W        W 7645   4.506   3.296  10.656
 4127W        W 7646   7.254   8.449  11.353
 4128W        W 7647   3.547   3.800   4.015
 4129W        W 7648   6.150   5.731  11.707
 4130W        W 7649   5.431   1.195   0.026
 4131W        W 7650   6.638   4.547   9.514
 4132W        W 7651   0.907   6.960   0.892
 4133W        W 7652   3.682   8.464   3.323
 4134W        W 7653   7.136   3.487   1.739
 4135W        W 7654   6.087   6.724  11.440
 4136W        W 7655   5.195   2.804   3.340
 4137W        W 7656   6.204   6.969  10.553
 4138W        W 7657   8.650   3.986   8.936
 4139W        W 7658   0.724   8.916   2.690
 4140W        W 7659   6.163   4.083   3.432
 4141W        W 7660   5.155   3.713   9.121
 4142W        W 7661   1.160   1.480   0.601
 4143W        W 7662   6.240   1.961   2.671
 4144W        W 7663   8.859   2.939   9.121
 4145W        W 7664   2.826   4.665   0.049
 4146W        W 7665   6.020   4.758   9.962
 4147W        W 7666   1.414   0.376   3.239
 4148W        W 7667   6.032   6.637   1.793
 4149W        W 7668   5.434   6.472  10.345
 4150W        W 7669   8.275   1.367   9.516
 4151W        W 7670   5.731   5.479   1.030
 4152W        W 7671   5.216   6.528   8.149
 4153W        W 7672   7.650   7.336   9.528
 4154W        W 7673   1.681   8.906   0.280
 4155W        W 7674   7.397   6.355  10.801
 4156W        W 7675   8.044   8.436  11.940
 4157W        W 7676   0.781   0.791   2.229
 4158W        W 7677   5.968   6.812   2.285
 4159W        W 7678   8.540   8.929   1.694
 4160W        W 7679   2.204   0.370   2.764
 4161W        W 7680   1.277   7.903   3.542
 4162W        W 7681   5.553   6.606   8.521
 4163W        W 7682   9.362   7.401  10.379
 4164W        W 7683   0.176   6.001  10.915
 4165W        W 7684   2.729   1.487   3.253
 4166W        W 7685   2.912   4.748   2.479
 4167W        W 7686   4.863   5.137   3.802
 4168W        W 7687   4.820   6.011   9.876
 4169W        W 7688   3.111   0.826  10.403
 4170W        W 7689   0.394   3.329   0.216
 4171W        W 7690   9.883   6.987  10.885
 4172W        W 7691   5.361   4.907   2.271
 4173W        W 7692   4.665   1.844  11.341
 4174W        W 7693   5.889   1.328   9.457
 4175W        W 7694   6.402   0.246  10.769
 4176W        W 7695   2.819   1.923   2.975
 4177W        W 7696   7.024   0.987   2.619
 4178W        W 7697   3.813   3.718  10.790
 4179W        W 7698   2.168   8.109   8.682
 4180W        W 7699   5.925   8.326   2.250
 4181W        W 7700   6.934   9.302   8.426
 4182W        W 7701   3.200   6.677   2.234
 4183W        W 7702   9.847   5.600  10.843
 4184W        W 7703   2.841   3.780  11.567
 4185W        W 7704   8.770   1.700  10.360
 4186W        W 7705   9.296   2.596   9.976
 4187W        W 7706   3.711   4.525   9.825
 4188W        W 7707   2.643   5.084   0.251
 4189W        W 7708   6.378   9.633   9.499
 4190W        W 7709   4.552   8.712  11.499
 4191W        W 7710   8.530   8.457   0.854
 4192W        W 7711   5.990   0.403  11.699
 4193W        W 7712   9.724   3.687  10.059
 4194W        W 7713   6.077   1.640   0.819
 4195W        W 7714   8.986   7.994   8.751
 4196W        W 7715   2.287   9.458  11.388
 4197W        W 7716   0.384   4.604   2.647
 4198W        W 7717   0.739   1.955   1.658
 4199W        W 7718   5.927   6.970  11.019
 4200W        W 7719   7.026   2.038  10.043
 4201W        W 7720   8.347   1.510   1.523
 4202W        W 7721   2.117   6.682   9.536
 4203W        W 7722   1.253   0.806   8.996
 4204W        W 7723   2.206   1.790   9.256
 4205W        W 7724   2.563   7.356   2.930
 4206W        W 7725   2.284   6.707   0.308
 4207W        W 7726   0.177   0.457   9.554
 4208W        W 7727   3.625   1.476   2.930
 4209W        W 7728   8.898   9.725   1.165
 4210W        W 7729   4.432   5.965  11.850
 4211W        W 7730   8.794   5.440   2.584
 4212W        W 7731   1.453   2.669   9.861
 4213W        W 7732   9.657   0.567   1.654
 4214W        W 7733   7.817   3.532   3.866
 4215W        W 7734   6.620   8.019   2.013
 4216W        W 7735   0.479   0.216   2.899
 4217W        W 7736   5.586   2.207   9.239
 4218W        W 7737   1.501   3.729   2.391
 4219W        W 7738   5.251   2.401   8.833
 4220W        W 7739   6.449   7.898  10.524
 4221W        W 7740   7.365   7.520  11.219
 4222W        W 7741   3.424   6.954   8.509
 4223W        W 7742   6.766   0.755  11.928
 4224W        W 7743   5.278   5.668  11.717
 4225W        W 7744   3.398   4.141   0.779
 4226W        W 7745   4.237   8.445  10.306
 4227W        W 7746   8.917   0.272  10.461
 4228W        W 7747   4.269   5.449   3.847
 4229W        W 7748   5.997   6.246   9.359
 4230W        W 7749   7.615   5.902   9.855
 4231W        W 7750   1.683   4.722   3.741
 4232W        W 7751   8.192   9.860   1.930
 4233W        W 7752   7.163   4.351   1.417
 4234W        W 7753   5.693   3.530   4.123
 4235W        W 7754   9.898   5.650   2.448
 4236W        W 7755   5.526   3.027  10.495
 4237W        W 7756   6.408   7.725  11.523
 4238W        W 7757   1.013   3.794   2.541
 4239W        W 7758   8.199   8.348  10.200
 4240W        W 7759   0.773   3.351   2.408
 4241W        W 7760   3.843   9.212   8.543
 4242W        W 7761   0.246   2.582   1.435
 4243W        W 7762   8.640   9.280   9.358
 4244W        W 7763   3.117   4.074   1.250
 4245W        W 7764   1.168   1.190   2.952
 4246W        W 7765   9.056   0.957  11.849
 4247W        W 7766   3.255   1.737   3.185
 4248W        W 7767   5.712   0.978   0.392
 4249W        W 7768   8.016   3.555  10.949
 4250W        W 7769   0.781   6.134   8.861
 4251W        W 7770   2.849   7.086   1.657
 4252W        W 7771   4.369   4.721   2.294
 4253W        W 7772   5.937   0.350   0.208
 4254W        W 7773   2.843   5.147   9.758
 4255W        W 7774   0.788   2.416   2.006
 4256W        W 7775   6.170   3.162   9.608
 4257W        W 7776   1.229   1.337  10.880
 4258W        W 7777   3.115   9.519   9.514
 4259W        W 7778   8.873   4.406   3.560
 4260W        W 7779   4.727   7.163  11.373
 4261W        W 7780   8.970   7.734   0.978
 4262W        W 7781   1.258   2.312   9.557
 4263W        W 7782   3.173   3.218   9.958
 4264W        W 7783   1.145   5.797  11.946
 4265W        W 7784   4.145   8.413   0.247
 4266W        W 7785   0.020   9.075   9.110
 4267W        W 7786   6.118   1.764   9.277
 4268W        W 7787   4.640   1.723   3.291
 4269W        W 7788   7.658   0.315  11.043
 4270W        W 7789   0.925   4.303  11.221
 4271W        W 7790   4.989   3.742   1.199
 4272W        W 7791   6.662   5.961   8.413
 4273W        W 7792   4.698   3.091   2.835
 4274W        W 7793   7.852   1.493   2.298
 4275W        W 7794   6.561   4.196   1.192
 4276W        W 7795   2.333   6.655  10.450
 4277W        W 7796   2.122   8.298   0.867
 4278W        W 7797   8.085   8.370   2.263
 4279W        W 7798   1.601   3.214   3.210
 4280W        W 7799   0.904   8.411   0.349
 4281W        W 7800   5.381   1.740   1.490
 4282W        W 7801   8.973   6.093  10.075
 4283W        W 7802   3.010   6.196  11.821
 4284W        W 7803   2.874   9.743  11.826
 4285W        W 7804   4.189   6.738   9.148
 4286W        W 7805   0.889   2.110   9.272
 4287W        W 7806   9.345   0.972   2.425
 4288W        W 7807   8.057   9.987   1.432
 4289W        W 7808   8.359   2.741  11.968
 4290W        W 7809   6.036   8.062   2.662
 4291W        W 7810   4.659   6.618   8.952
 4292W        W 7811   6.038   0.822   9.371
 4293W        W 7812   7.371   9.348  10.277
 4294W        W 7813   1.060   4.206   2.217
 4295W        W 7814   7.398   4.424   2.582
 4296W        W 7815   9.218   9.329   2.994
 4297W        W 7816   1.706   5.595   3.109
 4298W        W 7817   6.950   9.960  11.435
 4299W        W 7818   2.775   9.102  10.115
 4300W        W 7819   5.032   5.956   2.932
 4301W        W 7820   3.791   3.753   3.523
 4302W        W 7821   1.867   0.233   2.189
 4303W        W 7822   5.608   3.093   2.123
 4304W        W 7823   7.872   0.284   9.497
 4305W        W 7824   9.294   1.696   8.830
 4306W        W 7825   1.794   5.209  10.339
 4307W        W 7826   5.198   7.431   8.866
 4308W        W 7827   9.775   7.505   1.579
 4309W        W 7828   3.959   7.391   2.896
 4310W        W 7829   5.517   4.690   9.937
 4311W        W 7830   3.965   0.825   2.204
 4312W        W 7831   7.090   3.953   8.446
 4313W        W 7832   9.988   5.936   9.980
 4314W        W 7833   5.061   9.322   8.576
 4315W        W 7834   3.243   1.716   9.488
 4316W        W 7835   6.758   2.385   0.437
 4317W        W 7836   9.635   9.600   3.112
 4318W        W 7837   5.624   0.918   1.275
 4319W        W 7838   3.517   6.587   1.244
 4320W        W 7839   4.671   0.406   0.796
 4321W        W 7840   1.880   0.495   1.752
 4322W        W 7841   0.714   5.432   8.455
 4323W        W 7842   5.930   7.624  11.611
 4324W        W 7843   1.920   6.907   1.852
 4325W        W 7844   3.642   9.991   3.290
 4326W        W 7845   8.488   6.056  10.267
 4327W        W 7846   9.049   0.251   9.952
 4328W        W 7847   1.719   2.791   0.617
 4329W        W 7848   7.024   7.437   0.296
 4330W        W 7849   4.955   3.999   8.137
 4331W        W 7850   1.393   7.944   2.286
 4332W        W 7851   5.161   6.468   1.667
 4333W        W 7852   9.222   1.753   1.570
 4334W        W 7853   8.454   5.760   9.364
 4335W        W 7854   8.493   4.113  11.322
 4336W        W 7855   2.622   5.541  10.004
 4337W        W 7856   6.532   0.722  11.030
 4338W        W 7857   2.222   9.854   9.073
 4339W        W 7858   6.649   4.163  10.654
 4340W        W 7859   4.669   3.886   2.426
 4341W        W 7860   2.493   1.487   0.122
 4342W        W 7861   0.047   9.414   2.238
 4343W        W 7862   0.526   5.454   0.798
 4344W        W 7863   2.788   0.473   3.524
 4345W        W 7864   8.423   1.563   0.078
 4346W        W 7865   0.331   3.259  10.730
 4347W        W 7866   2.073   4.351   3.722
 4348W        W 7867   9.369   8.796  11.664
 4349W        W 7868   5.460   2.470  10.402
 4350W        W 7869   7.951   0.390   0.323
 4351W        W 7870   2.407   9.540   3.223
 4352W        W 7871   3.743   2.994   9.361
 4353W        W 7872   8.142   9.602  10.751
 4354W        W 7873   9.930   5.755  11.325
 4355W        W 7874   6.918   5.775  11.881
 4356W        W 7875   7.804   4.690  10.296
 4357W        W 7876   1.044   0.169   3.556
 4358W        W 7877   6.613   3.550  11.904
 4359W        W 7878   6.972   5.461  10.370
 4360W        W 7879   8.064   4.788   8.702
 4361W        W 7880   9.922   8.963  11.815
 4362W        W 7881   4.378   1.013   1.927
 4363W        W 7882   3.301   9.718   1.743
 4364W        W 7883   3.332   8.807  10.194
 4365W        W 7884   6.054   3.271   1.894
 4366W        W 7885   7.628   7.190   8.835
 4367W        W 7886   4.281   2.594   0.980
 4368W        W 7887   9.561   3.245   3.441
 4369W        W 7888   7.723   9.582   9.097
 4370W        W 7889   2.109   4.023   3.288
 4371W        W 7890   4.132   4.731   1.282
 4372W        W 7891   5.989   5.644   8.564
 4373W        W 7892   0.703   4.851   3.427
 4374W        W 7893   7.028   4.463   8.314
 4375W        W 7894   0.429   1.110   1.525
 4376W        W 7895   9.722   3.754  10.569
 4377W        W 7896   7.411   7.067   1.276
 4378W        W 7897   3.345   4.687  11.137
 4379W        W 7898   5.511   0.416   1.185
 4380W        W 7899   2.439   4.710  10.722
 4381W        W 7900   4.660   6.688   0.212
 4382W        W 7901   9.451   6.361   2.235
 4383W        W 7902   8.097   0.343  11.363
 4384W        W 7903   7.858   7.969  11.861
 4385W        W 7904   6.613   2.570  11.804
 4386W        W 7905   9.275   7.908   3.324
 4387W        W 7906   9.331   4.697   9.500
 4388W        W 7907   4.704   4.796   0.374
 4389W        W 7908   2.978   5.063   4.171
 4390W        W 7909   2.393   3.091   3.181
 4391W        W 7910   4.430   6.554   1.021
 4392W        W 7911   4.172   1.485   3.448
 4393W        W 7912   7.142   3.742   2.263
 4394W        W 7913   0.016   5.064  10.218
 4395W        W 7914   8.493   7.581   9.383
 4396W        W 7915   5.120   0.788   9.511
 4397W        W 7916   3.630   4.237  11.766
 4398W        W 7917   9.346   4.251   3.339
 4399W        W 7918   2.788   7.247  11.752
 4400W        W 7919   3.277   3.803   8.826
 4401W        W 7920   2.864   3.903   2.254
 4402W        W 7921   1.727   1.245  10.917
 4403W        W 7922   3.112   0.604   0.854
 4404W        W 7923   8.474   1.842  10.758
 4405W        W 7924   0.336   4.531  11.939
 4406W        W 7925   3.074   6.390   1.408
 4407W        W 7926   6.680   0.869   9.111
 4408W        W 7927   8.469   6.188   9.771
 4409W        W 7928   6.106   7.120  10.074
 4410W        W 7929   5.598   5.865   2.357
 4411W        W 7930   5.316   3.029   1.012
 4412W        W 7931   7.851   8.962  11.363
 4413W        W 7932   0.355   8.436   2.109
 4414W        W 7933   0.935   5.520   0.404
 4415W        W 7934   7.597   0.746   9.407
 4416W        W 7935   8.210   3.195   3.221
 4417W        W 7936   0.883   7.065   2.366
 4418W        W 7937   0.333   8.156  11.300
 4419W        W 7938   7.422   4.026   3.241
 4420W        W 7939   8.086   6.831  10.361
 4421W        W 7940   9.774   0.742   1.036
 4422W        W 7941   8.535   6.605   1.894
 4423W        W 7942   8.615   9.710  10.616
 4424W        W 7943   0.361   9.237  11.835
 4425W        W 7944   6.542   6.060   2.774
 4426W        W 7945   3.290   3.308   8.990
 4427W        W 7946   9.079   4.467   2.508
 4428W        W 7947   3.984   4.179   1.765
 4429W        W 7948   2.680   7.331   8.403
 4430W        W 7949   6.434   2.528  10.080
 4431W        W 7950   9.350   0.547   2.095
 4432W        W 7951   4.660   0.725  11.756
 4433W        W 7952   0.857   6.193  11.372
 4434W        W 7953   1.393   3.573  10.077
 4435W        W 7954   6.376   1.384   9.736
 4436W        W 7955   6.532   5.257  10.892
 4437W        W 7956   3.033   7.965   8.606
 4438W        W 7957   7.632   9.418  11.264
 4439W        W 7958   9.435   6.543  11.898
 4440W        W 7959   8.178   6.376   2.170
 4441W        W 7960   6.988   8.351   3.117
 4442W        W 7961   8.239   9.430   3.231
 4443W        W 7962   8.061   7.005   9.390
 4444W        W 7963   4.624   9.908   1.606
 4445W        W 7964   9.817   0.305  10.969
 4446W        W 7965   5.829   6.874   3.617
 4447W        W 7966   5.322   0.401   3.390
 4448W        W 7967   4.621   7.176   0.263
 4449W        W 7968   7.800   1.187   9.617
 4450W        W 7969   4.863   1.286   1.884
 4451W        W 7970   5.448   1.491   8.754
 4452W        W 7971   4.045   5.187   1.027
 4453W        W 7972   9.251   8.796   2.820
 4454W        W 7973   8.075   9.693   0.114
 4455W        W 7974   6.753   7.586  10.787
 4456W        W 7975   2.415   9.523   1.255
 4457W        W 7976   7.437   0.359   0.595
 4458W        W 7977   6.007   2.794   3.190
 4459W        W 7978   8.594   6.559   2.402
 4460W        W 7979   3.990   6.815  11.530
 4461W        W 7980   6.619   0.869   0.400
 4462W        W 7981   3.093   5.123  10.367
 4463W        W 7982   7.340   9.130   3.370
 4464W        W 7983   4.541   5.802  10.981
 4465W        W 7984   4.231   8.119   2.324
 4466W        W 7985   3.100   9.752   3.582
 4467W        W 7986   4.091   7.128  11.963
 4468W        W 7987   0.793   0.641   9.520
 4469W        W 7988   2.559   9.109   2.934
 4470W        W 7989   4.518   7.373  11.819
 4471W        W 7990   7.418   2.839  10.095
 4472W        W 7991   5.208   2.783   2.200
 4473W        W 7992   2.800   9.956   9.986
 4474W        W 7993   8.511   9.790   1.542
 4475W        W 7994   0.952   9.771   3.245
 4476W        W 7995   2.374   9.644  11.870
 4477W        W 7996   1.777   9.709   9.739
 4478W        W 7997   4.543   9.327   1.840
 4479W        W 7998   5.659   4.891  10.829
 4480W        W 7999   2.364   1.203  11.688
 4481W        W 8000   4.733   2.857   2.366
 4482W        W 8001   8.666   6.089   1.979
 4483W        W 8002   0.896   5.174   0.035
 4484W        W 8003   9.053   8.521   9.030
 4485W        W 8004   4.475   2.413   2.353
 4486W        W 8005   2.403   6.952   8.731
 4487W        W 8006   3.958   7.163   8.966
 4488W        W 8007   1.776   0.366   0.360
 4489W        W 8008   3.593   9.759   9.392
 4490W        W 8009   5.139   3.658   2.221
 4491W        W 8010   9.345   4.704   1.419
 4492W        W 8011   6.962   7.797   9.808
 4493W        W 8012   3.706   6.939   2.968
 4494W        W 8013   5.706   3.672   0.730
 4495W        W 8014   4.173   6.339   8.209
 4496W        W 8015   6.094   8.626  11.896
 4497W        W 8016   0.199   9.677   1.248
 4498W        W 8017   7.203   7.404   8.624
 4499W        W 8018   0.491   8.392   0.040
 4500W        W 8019   8.972   3.069   2.182
 4501W        W 8020   2.167   7.862   9.693
 4502W        W 8021   9.163   1.787   2.100
 4503W        W 8022   9.305   4.940   2.346
 4504W        W 8023   9.874   5.594  10.329
 4505W        W 8024   2.416   0.732   3.045
 4506W        W 8025   5.536   6.642  10.802
 4507W        W 8026   7.935   7.558   8.651
 4508W        W 8027   1.824   2.744  11.185
 4509W        W 8028   6.235   3.660   2.160
 4510W        W 8029   1.636   7.961   0.571
 4511W        W 8030   6.059   4.752   2.647
 4512W        W 8031   5.980   2.371   1.337
 4513W        W 8032   2.157   1.985   0.845
 4514W        W 8033   6.164   5.172   8.794
 4515W        W 8034   6.844   6.068   9.702
 4516W        W 8035   4.673   2.708  10.860
 4517W        W 8036   8.312   2.848   0.893
 4518W        W 8037   3.045   7.997   9.124
 4519W        W 8038   9.381   7.196   9.768
 4520W        W 8039   8.582   4.555  10.603
 4521W        W 8040   5.964   6.518  10.519
 4522W        W 8041   1.694   7.977   9.985
 4523W        W 8042   4.684   4.114   1.063
 4524W        W 8043   5.913   1.524   9.924
 4525W        W 8044   8.985   2.280   0.026
 4526W        W 8045   9.352   4.866   9.992
 4527W        W 8046   2.563   6.619   0.856
 4528W        W 8047   3.094   0.120   1.507
 4529W        W 8048   4.201   0.541   1.834
 4530W        W 8049   9.156   9.789   0.246
 4531W        W 8050   2.304   4.017   9.488
 4532W        W 8051   6.644   2.189   9.748
 4533W        W 8052   8.470   2.345   0.911
 4534W        W 8053   0.244   2.352  10.983
 4535W        W 8054   0.505   8.837   1.396
 4536W        W 8055   6.766   8.495   2.680
 4537W        W 8056   8.506   3.358   9.475
 4538W        W 8057   6.688   2.873  11.409
 4539W        W 8058   2.868   7.575   9.338
 4540W        W 8059   9.731   9.050   2.490
 4541W        W 8060   4.399   7.210   9.289
 4542W        W 8061   8.087   9.792   9.403
 4543W        W 8062   3.788   7.290   9.437
 4544W        W 8063   6.459   5.384   1.121
 4545W        W 8064   5.914   3.962   0.328
 4546W        W 8065   9.495   0.884   0.123
 4547W        W 8066   8.418   8.815   2.163
 4548W        W 8067   4.170   9.277   1.504
 4549W        W 8068   9.706   8.162   0.351
 4550W        W 8069   2.123   0.874   2.632
 4551W        W 8070   9.960   6.858   1.058
 4552W        W 8071   6.085   0.470   1.971
 4553W        W 8072   6.379   9.364   8.580
 4554W        W 8073   0.016   4.178   9.303
 4555W        W 8074   0.425   6.210   0.241
 4556W        W 8075   6.167   7.435   3.109
 4557W        W 8076   0.519   1.298   8.710
 4558W        W 8077   3.131   5.616  10.246
 4559W        W 8078   5.517   2.151   3.147
 4560W        W 8079   2.139   9.097   1.211
 4561W        W 8080   0.317   8.258  10.785
 4562W        W 8081   3.383   8.022   1.915
 4563W        W 8082   0.806   0.556   2.680
 4564W        W 8083   4.289   6.524   0.532
 4565W        W 8084   0.687   1.285   3.161
 4566W        W 8085   0.560   0.661   1.708
 4567W        W 8086   7.397   2.759   3.053
 4568W        W 8087   3.361   1.707   3.674
 4569W        W 8088   7.922   2.871  11.711
 4570W        W 8089   7.337   4.406  11.382
 4571W        W 8090   4.278   0.436  11.467
 4572W        W 8091   0.070   2.801   2.680
 4573W        W 8092   3.401   9.909   0.710
 4574W        W 8093   0.043   7.543   0.058
 4575W        W 8094   5.324   6.163   2.051
 4576W        W 8095   3.112   7.266   3.501
 4577W        W 8096   7.110   5.708   1.129
 4578W        W 8097   3.332   6.000  11.041
 4579W        W 8098   4.658   0.290   1.972
 4580W        W 8099   7.601   6.565   0.121
 4581W        W 8100   6.822   0.669   1.789
 4582W        W 8101   2.755   4.932   2.012
 4583W        W 8102   8.317   4.176   9.282
 4584W        W 8103   3.752   0.552   9.855
 4585W        W 8104   3.387   5.092   2.852
 4586W        W 8105   7.033   4.337   8.812
 4587W        W 8106   5.747   6.937   9.300
 4588W        W 8107   5.056   0.423   9.149
 4589W        W 8108   9.920   5.428   1.466
 4590W        W 8109   4.715   8.024   2.322
 4591W        W 8110   6.451   8.928   0.713
 4592W        W 8111   1.823   9.471   8.381
 4593W        W 8112   9.941   0.516   8.580
 4594W        W 8113   3.190   2.879  10.679
 4595W        W 8114   4.473   3.068   1.288
 4596W        W 8115   2.730   4.594   8.974
 4597W        W 8116   2.773   4.209  11.320
 4598W        W 8117   8.835   0.518   0.012
 4599W        W 8118   8.079   4.786   1.194
 4600W        W 8119   1.926   8.896  10.405
 4601W        W 8120   9.767   9.802   1.501
 4602W        W 8121   0.404   6.171   2.174
 4603W        W 8122   0.509   2.138  10.582
 4604W        W 8123   4.569   4.365   3.250
 4605W        W 8124   8.371   7.058   1.502
 4606W        W 8125   4.108   2.218   1.326
 4607W        W 8126   7.660   0.199   3.359
 4608W        W 8127   6.021   2.125   0.013
 4609W        W 8128   3.394   8.768   2.998
 4610W        W 8129   3.705   9.845  10.928
 4611W        W 8130   3.581   6.938  10.730
 4612W        W 8131   7.089   6.524  11.453
 4613W        W 8132   9.037   5.186   0.710
 4614W        W 8133   5.199   7.636  11.192
 4615W        W 8134   1.394   4.496  11.274
 4616W        W 8135   3.661   6.432  11.478
 4617W        W 8136   3.852   5.808   3.757
 4618W        W 8137   6.222   0.868   3.665
 4619W        W 8138   5.682   2.742   0.779
 4620W        W 8139   1.949   1.277  11.394
 4621W        W 8140   3.307   8.534   0.032
 4622W        W 8141   9.506   4.211   9.398
 4623W        W 8142   0.021   5.687   1.915
 4624W        W 8143   2.523   3.371  11.127
 4625W        W 8144   6.946   5.060  10.686
 4626W        W 8145   2.351   7.153   1.591
 4627W        W 8146   4.611   9.191   8.992
 4628W        W 8147   0.472   7.597   9.674
 4629W        W 8148   9.512   6.374  10.191
 4630W        W 8149   6.902   0.238   9.050
 4631W        W 8150   1.751   4.714   3.225
 4632W        W 8151   0.223   6.674   3.532
 4633W        W 8152   5.902   2.512   0.308
 4634W        W 8153   9.549   7.974   1.499
 4635W        W 8154   3.693   2.844  10.770
 4636W        W 8155   4.205   6.226  10.562
 4637W        W 8156   6.859   3.867   8.892
 4638W        W 8157   0.951   7.982   2.575
 4639W        W 8158   1.863   4.114   2.452
 4640W        W 8159   5.977   1.163  11.801
 4641W        W 8160   6.486   3.492  10.011
 4642W        W 8161   3.349   6.405   3.633
 4643W        W 8162   7.500   4.119   1.121
 4644W        W 8163   0.804   6.632   2.678
 4645W        W 8164   8.566   8.386   2.423
 4646W        W 8165   5.747   7.470  11.157
 4647W        W 8166   5.613   9.541   0.651
 4648W        W 8167   0.009   4.922   0.192
 4649W        W 8168   7.894   6.883   0.361
 4650W        W 8169   1.041   1.296   8.677
 4651W        W 8170   3.229   1.685  11.597
 4652W        W 8171   6.555   8.831  10.974
 4653W        W 8172   8.539   4.481   0.943
 4654W        W 8173   3.210   3.384   8.489
 4655W        W 8174   2.111   6.601   2.230
 4656W        W 8175   8.105   2.394  11.553
 4657W        W 8176   5.574   6.742   1.543
 4658W        W 8177   3.183   2.284  10.045
 4659W        W 8178   0.120   0.659   1.973
 4660W        W 8179   5.183   8.144  11.056
 4661W        W 8180   1.750   6.093   9.849
 4662W        W 8181   7.849   9.911  10.401
 4663W        W 8182   6.508   4.876   9.905
 4664W        W 8183   0.891   6.500   0.493
 4665W        W 8184   2.052   7.637   1.472
 4666W        W 8185   4.290   6.284   3.460
 4667W        W 8186   6.308   6.715   3.674
 4668W        W 8187   9.710   6.676  11.269
 4669W        W 8188   6.543   3.097   9.275
 4670W        W 8189   1.980   3.653   2.233
 4671W        W 8190   7.046   0.286   2.290
 4672W        W 8191   4.753   9.920  11.542
 4673W        W 8192   4.492   6.870  11.743
 4674W        W 8193   4.821   7.425  10.893
 4675W        W 8194   0.390   1.947   2.412
 4676W        W 8195   7.477   4.203   2.148
 4677W        W 8196   0.459   6.358  10.622
 4678W        W 8197   9.001   8.124  11.288
 4679W        W 8198   3.877   8.971  11.005
 4680W        W 8199   1.842   4.094   9.259
 4681W        W 8200   0.840   4.051   0.664
 4682W        W 8201   9.235   8.876  10.680
 4683W        W 8202   0.244   7.592   2.431
 4684W        W 8203   0.733   2.974   2.758
 4685W        W 8204   7.664   9.507   3.562
 4686W        W 8205   4.787   2.746   1.843
 4687W        W 8206   8.207   4.893  10.552
 4688W        W 8207   0.348   2.200   1.855
 4689W        W 8208   3.134   6.154   9.004
 4690W        W 8209   4.010   3.783   0.379
 4691W        W 8210   4.051   6.968   8.453
 4692W        W 8211   5.095   9.422   9.598
 4693W        W 8212   0.661   2.590  11.847
 4694W        W 8213   6.062   7.797   0.135
 4695W        W 8214   4.222   4.006   8.786
 4696W        W 8215   0.447   1.998   3.404
 4697W        W 8216   3.371   9.797  11.788
 4698W        W 8217   2.899   5.174   2.764
 4699W        W 8218   3.069   1.265   9.355
 4700W        W 8219   8.951   7.138  10.966
 4701W        W 8220   8.401   0.280   1.751
 4702W        W 8221   4.606   2.440   9.529
 4703W        W 8222   9.417   9.135   2.033
 4704W        W 8223   5.528   2.790  10.014
 4705W        W 8224   9.591   8.269   2.495
 4706W        W 8225   8.962   9.346   1.887
 4707W        W 8226   8.808   1.239   1.432
 4708W        W 8227   9.069   3.153   3.404
 4709W        W 8228   7.568   6.397   2.889
 4710W        W 8229   4.493   9.568  11.276
 4711W        W 8230   9.727   0.430   0.024
 4712W        W 8231   4.737   4.382   2.342
 4713W        W 8232   6.863   3.640   0.380
 4714W        W 8233   4.202   4.740   3.155
 4715W        W 8234   4.667   5.656   1.151
 4716W        W 8235   7.596   7.970   0.935
 4717W        W 8236   7.076   8.870   2.921
 4718W        W 8237   5.876   0.366  10.800
 4719W        W 8238   1.853   0.140   0.825
 4720W        W 8239   3.382   1.547   0.648
 4721W        W 8240   4.070   7.621  11.814
 4722W        W 8241   3.973   8.931   9.341
 4723W        W 8242   2.590   1.653  10.140
 4724W        W 8243   6.247   8.604   9.553
 4725W        W 8244   0.984   3.728  11.050
 4726W        W 8245   1.874   7.454  10.768
 4727W        W 8246   7.902   8.251   3.164
 4728W        W 8247   8.011   1.008   8.774
 4729W        W 8248   8.471   5.947   8.846
 4730W        W 8249   3.405   1.199  11.761
 4731W        W 8250   6.996   1.127   3.568
 4732W        W 8251   6.698   0.675   2.344
 4733W        W 8252   0.978   2.209   3.395
 4734W        W 8253   4.062   4.778  10.580
 4735W        W 8254   8.071   4.841   1.724
 4736W        W 8255   5.558   0.590   9.276
 4737W        W 8256   7.910   0.292   2.025
 4738W        W 8257   2.114   5.092   8.560
 4739W        W 8258   0.751   8.928  11.966
 4740W        W 8259   1.004   5.002  11.092
 4741W        W 8260   4.021   9.314   0.646
 4742W        W 8261   7.103   6.010   0.277
 4743W        W 8262   4.799   9.849   0.063
 4744W        W 8263   3.242   9.863  11.303
 4745W        W 8264   3.328   4.573  11.991
 4746W        W 8265   5.050   2.371   3.078
 4747W        W 8266   6.145   1.880   2.162
 4748W        W 8267   9.871   4.115   3.177
 4749W        W 8268   1.424   7.407   3.446
 4750W        W 8269   9.893   1.999   0.472
 4751W        W 8270   8.077   8.192   0.905
 4752W        W 8271   9.934   3.153  11.428
 4753W        W 8272   4.958   3.252   8.508
 4754W        W 8273   8.430   0.243   3.535
 4755W        W 8274   5.557   3.906   8.767
 4756W        W 8275   0.842   1.709   0.269
 4757W        W 8276   9.448   0.887   0.636
 4758W        W 8277   3.769   6.542   0.398
 4759W        W 8278   4.922   5.595  10.177
 4760W        W 8279   8.460   5.984  11.281
 4761W        W 8280   4.984   4.736  10.167
 4762W        W 8281   0.033   0.218   9.972
 4763W        W 8282   1.294   5.517   1.329
 4764W        W 8283   8.793   7.261   1.262
 4765W        W 8284   1.883   9.390   0.168
 4766W        W 8285   4.809   0.003   2.758
 4767W        W 8286   6.394   2.692   0.240
 4768W        W 8287   0.829   9.095   1.668
 4769W        W 8288   6.286   2.228   0.454
 4770W        W 8289   2.077   9.938   1.292
 4771W        W 8290   9.934   2.159  11.983
 4772W        W 8291   6.648   0.225   2.629
 4773W        W 8292   7.676   5.094   1.532
 4774W        W 8293   1.660   1.166   0.744
 4775W        W 8294   0.999   9.343  11.717
 4776W        W 8295   9.487   5.857  10.122
 4777W        W 8296   1.751   0.658   0.841
 4778W        W 8297   7.043   8.165   3.682
 4779W        W 8298   0.734   3.724   9.326
 4780W        W 8299   5.108   3.392   9.982
 4781W        W 8300   8.425   7.554   3.331
 4782W        W 8301   8.727   0.217   1.376
 4783W        W 8302   5.974   2.300   1.842
 4784W        W 8303   7.181   9.409   2.302
 4785W        W 8304   4.088   6.720   2.302
 4786W        W 8305   0.266   0.932   2.452
 4787W        W 8306   3.150   2.355   0.317
 4788W        W 8307   0.666   3.748   9.833
 4789W        W 8308   6.043   4.624   0.855
 4790W        W 8309   6.822   9.462   1.397
 4791W        W 8310   3.499   7.359   3.170
 4792W        W 8311   8.513   4.860  11.871
 4793W        W 8312   4.071   6.569   9.965
 4794W        W 8313   1.984   2.906   3.499
 4795W        W 8314   0.845   0.473  10.335
 4796W        W 8315   2.278   1.942   2.123
 4797W        W 8316   7.591   3.332  10.083
 4798W        W 8317   8.480   4.095  10.798
 4799W        W 8318   9.914   7.210   2.448
 4800W        W 8319   8.483   8.962   0.711
 4801W        W 8320   7.630   8.969  10.016
 4802W        W 8321   8.504   0.746   2.224
 4803W        W 8322   1.219   1.938   2.541
 4804W        W 8323   9.004   3.617  11.417
 4805W        W 8324   9.868   4.554   1.731
 4806W        W 8325   2.019   4.657   4.146
 4807W        W 8326   0.477   1.643   1.968
 4808W        W 8327   9.065   2.565   1.502
 4809W        W 8328   8.797   1.875   0.797
 4810W        W 8329   6.542   6.284   8.010
 4811W        W 8330   4.729   0.889   0.229
 4812W        W 8331   5.995   0.875  10.933
 4813W        W 8332   3.923   7.971   1.097
 4814W        W 8333   1.651   1.662   0.617
 4815W        W 8334   5.943   7.968   8.857
 4816W        W 8335   0.700   1.059   2.698
 4817W        W 8336   8.975   0.640   0.737
 4818W        W 8337   0.350   9.476   3.614
 4819W        W 8338   6.334   1.254   9.236
 4820W        W 8339   2.566   6.377   2.150
 4821W        W 8340   8.520   4.255   9.765
 4822W        W 8341   2.730   2.363   2.684
 4823W        W 8342   5.242   9.157   3.435
 4824W        W 8343   1.651   6.624   9.202
 4825W        W 8344   5.171   1.582   0.887
 4826W        W 8345   8.479   6.252   9.271
 4827W        W 8346   0.288   3.183   9.072
 4828W        W 8347   7.387   9.898   2.220
 4829W        W 8348   4.903   0.178  10.947
 4830W        W 8349   4.017   7.630   0.716
 4831W        W 8350   5.664   1.985   8.783
 4832W        W 8351   3.584   2.171   1.279
 4833W        W 8352   8.046   6.702   0.828
 4834W        W 8353   5.760   1.917   9.647
 4835W        W 8354   3.651   1.007   9.664
 4836W        W 8355   4.787   8.881  11.933
 4837W        W 8356   3.201   3.356   0.504
 4838W        W 8357   4.693   4.477   1.811
 4839W        W 8358   2.863   4.715   9.997
 4840W        W 8359   5.675   8.848  10.560
 4841W        W 8360   4.970   4.860   1.637
 4842W        W 8361   9.596   1.373   9.108
 4843W        W 8362   2.281   9.444   2.637
 4844W        W 8363   9.372   2.760   9.009
 4845W        W 8364   6.435   3.860  11.498
 4846W        W 8365   9.272   7.662   1.846
 4847W        W 8366   7.469   8.616   3.220
 4848W        W 8367   8.867   2.311   0.534
 4849W        W 8368   6.114   6.215  11.481
 4850W        W 8369   0.742   7.791   1.047
 4851W        W 8370   0.337   7.128   0.254
 4852W        W 8371   6.487   1.982  11.510
 4853W        W 8372   1.251   1.001   0.999
 4854W        W 8373   8.958   0.352   1.828
 4855W        W 8374   5.281   2.993   8.187
 4856W        W 8375   9.344   6.028   8.727
 4857W        W 8376   9.530   8.960   1.562
 4858W        W 8377   1.380   8.824   8.957
 4859W        W 8378   8.025   3.676  11.441
 4860W        W 8379   3.393   5.968  11.568
 4861W        W 8380   3.603   5.512   2.244
 4862W        W 8381   1.014   7.462  11.191
 4863W        W 8382   4.475   9.062   0.592
 4864W        W 8383   0.723   9.970  11.214
 4865W        W 8384   1.686   6.750  11.447
 4866W        W 8385   1.801   0.353   1.269
 4867W        W 8386   4.009   6.771  10.995
 4868W        W 8387   2.290   9.183   9.889
 4869W        W 8388   7.039   7.174  10.961
 4870W        W 8389   1.377   5.802   0.388
 4871W        W 8390   8.155   6.519   2.755
 4872W        W 8391   7.028   2.375  10.421
 4873W        W 8392   1.237   1.703   3.021
 4874W        W 8393   4.024   2.856   1.453
 4875W        W 8394   2.796   2.063  10.351
 4876W        W 8395   2.687   7.313   2.413
 4877W        W 8396   2.770   9.946   3.226
 4878W        W 8397   3.449   1.212   2.153
 4879W        W 8398   5.093   5.296  11.419
 4880W        W 8399   5.017   6.540   1.137
 4881W        W 8400   8.539   9.738   3.576
 4882W        W 8401   0.437   8.933   3.432
 4883W        W 8402   1.664   8.452  10.243
 4884W        W 8403   8.072   1.153  11.917
 4885W        W 8404   0.151   5.287   2.191
 4886W        W 8405   3.676   2.291   9.933
 4887W        W 8406   7.619   4.388  10.953
 4888W        W 8407   6.561   0.513   0.779
 4889W        W 8408   4.037   9.458  11.060
 4890W        W 8409   8.425   2.129   0.237
 4891W        W 8410   4.697   0.949  11.300
 4892W        W 8411   7.734   1.825   9.000
 4893W        W 8412   5.521   6.035   2.830
 4894W        W 8413   5.820   4.275  10.065
 4895W        W 8414   4.414   6.666  11.294
 4896W        W 8415   9.941   7.329   0.579
 4897W        W 8416   6.444   0.357   0.289
 4898W        W 8417   8.951   9.416   9.744
 4899W        W 8418   5.610   1.500  11.631
 4900W        W 8419   9.746   4.309   3.630
 4901W        W 8420   6.967   5.571   3.652
 4902W        W 8421   5.124   2.602  11.722
 4903W        W 8422   1.396   5.521   1.840
 4904W        W 8423   6.952   6.128  11.018
 4905W        W 8424   2.254   4.850   0.515
 4906W        W 8425   5.189   3.774   9.631
 4907W        W 8426   9.756   8.963  10.349
 4908W        W 8427   6.571   6.518  11.479
 4909W        W 8428   2.871   0.276   8.841
 4910W        W 8429   1.840   4.206   0.043
 4911W        W 8430   0.976   0.595  11.202
 4912W        W 8431   2.999   2.690   9.655
 4913W        W 8432   6.869   3.394   1.305
 4914W        W 8433   7.219   8.547  10.331
 4915W        W 8434   8.408   1.943   9.742
 4916W        W 8435   7.372   7.577   9.086
 4917W        W 8436   1.242   8.069   9.713
 4918W        W 8437   1.411   5.066   9.996
 4919W        W 8438   2.165   1.268   8.989
 4920W        W 8439   0.237   2.750   0.943
 4921W        W 8440   0.227   8.037   3.311
 4922W        W 8441   1.966   5.573   3.529
 4923W        W 8442   3.421   9.034  11.239
 4924W        W 8443   9.084   5.596   9.945
 4925W        W 8444   0.877   9.380   2.904
 4926W        W 8445   5.138   6.490   9.107
 4927W        W 8446   9.959   8.590   2.388
 4928W        W 8447   4.365   7.256   3.655
 4929W        W 8448   2.786   8.203   0.701
 4930W        W 8449   5.638   7.624   3.280
 4931W        W 8450   0.722   8.387   3.242
 4932W        W 8451   4.768   1.356   2.438
 4933W        W 8452   3.747   5.079   2.474
 4934W        W 8453   8.994   8.838   0.628
 4935W        W 8454   2.873   5.506   0.403
 4936W        W 8455   8.464   9.435   1.908
 4937W        W 8456   3.770   7.205   0.843
 4938W        W 8457   7.644   8.435   0.702
 4939W        W 8458   4.235   8.093  11.855
 4940W        W 8459   0.456   2.205   8.984
 4941W        W 8460   5.138   6.099   9.495
 4942W        W 8461   1.179   7.501   1.991
 4943W        W 8462   4.095   9.862   9.205
 4944W        W 8463   0.455   6.596   3.066
 4945W        W 8464   7.996   6.127  11.401
 4946W        W 8465   3.528   5.136  11.333
 4947W        W 8466   3.864   0.949   1.733
 4948W        W 8467   8.458   2.572   2.902
 4949W        W 8468   6.342   8.387   2.945
 4950W        W 8469   4.006   8.483   2.556
 4951W        W 8470   2.207   8.589   1.271
 4952W        W 8471   5.649   5.104   2.649
 4953W        W 8472   7.080   7.355   2.016
 4954W        W 8473   1.457   3.296   0.599
 4955W        W 8474   8.457   1.101  11.195
 4956W        W 8475   9.038   3.529   2.435
 4957W        W 8476   9.556   9.526   0.445
 4958W        W 8477   6.578   2.698   2.333
 4959W        W 8478   9.866   8.450   1.885
 4960W        W 8479   4.574   9.742   3.509
 4961W        W 8480   4.659   1.919   2.257
 4962W        W 8481   6.135   7.863   2.151
 4963W        W 8482   3.030   4.257  10.028
 4964W        W 8483   4.708   6.263   8.591
 4965W        W 8484   1.319   5.345  10.502
 4966W        W 8485   1.292   9.759   9.037
 4967W        W 8486   7.142   2.142   9.555
 4968W        W 8487   1.916   5.629  10.030
 4969W        W 8488   4.107   5.563  10.894
 4970W        W 8489   5.381   3.460   1.309
 4971W        W 8490   3.672   8.541   0.393
 4972W        W 8491   7.841   2.165   1.763
 4973W        W 8492   2.365   3.302  10.638
 4974W        W 8493   4.109   3.340   3.548
 4975W        W 8494   2.718   3.793   1.383
 4976W        W 8495   4.993   8.229   2.940
 4977W        W 8496   8.937   2.712  11.685
 4978W        W 8497   6.113   8.997   2.213
 4979W        W 8498   3.270   5.138  10.892
 4980W        W 8499   8.833   4.930   2.658
 4981W        W 8500   5.840   5.388  11.509
 4982W        W 8501   0.749   3.802   2.120
 4983W        W 8502   9.714   1.935  10.295
 4984W        W 8503   6.585   6.533   9.586
 4985W        W 8504   6.353   0.255  10.237
 4986W        W 8505   1.702   7.963   9.474
 4987W        W 8506   1.619   0.262  11.889
 4988W        W 8507   8.948   6.906   9.936
 4989W        W 8508   9.049   8.343  11.926
 4990W        W 8509   3.780   1.105   2.576
 4991W        W 8510   7.423   6.099   4.225
 4992W        W 8511   5.220   4.192   0.811
 4993W        W 8512   0.468   9.649   3.108
 4994W        W 8513   8.701   9.919  10.099
 4995W        W 8514   6.433   7.116   1.248
 4996W        W 8515   1.775   7.499   0.225
 4997W        W 8516   6.247   1.889   9.753
 4998W        W 8517   7.118   2.321   0.090
 4999W        W 8518   0.884   3.424  11.455
 5000W        W 8519   1.428   9.818   3.444
 5001W        W 8520   1.721   5.938   1.766
 5002W        W 8521   1.720   1.769   0.076
 5003W        W 8522   7.596   6.810   1.667
 5004W        W 8523   7.065   0.788  10.245
 5005W        W 8524   8.107   5.807   2.093
 5006W        W 8525   9.819   7.169  10.372
 5007W        W 8526   9.713   6.167   1.118
 5008W        W 8527   6.074   5.148   2.952
 5009W        W 8528   3.805   6.677   1.699
 5010W        W 8529   8.366   3.150  10.422
 5011W        W 8530   5.802   4.543  11.174
 5012W        W 8531   8.058   1.861   9.386
 5013W        W 8532   1.397   7.573  10.478
 5014W        W 8533   1.210   8.753   1.579
 5015W        W 8534   1.458   5.479   0.752
 5016W        W 8535   7.330   8.066  10.477
 5017W        W 8536   3.611   9.495  11.331
 5018W        W 8537   8.779   2.130  10.043
 5019W        W 8538   9.487   5.988   2.586
 5020W        W 8539   0.293   8.422   1.611
 5021W        W 8540   0.762   5.364   1.289
 5022W        W 8541   6.659   1.397   0.420
 5023W        W 8542   5.285   0.242   2.714
 5024W        W 8543   4.677   8.864  11.016
 5025W        W 8544   0.290   2.450   2.366
 5026W        W 8545   2.114   3.535   9.382
 5027W        W 8546   9.391   5.021   1.027
 5028W        W 8547   5.944   6.091   0.008
 5029W        W 8548   0.452   3.690   1.730
 5030W        W 8549   1.877   7.158   1.420
 5031W        W 8550   0.178   7.215   1.395
 5032W        W 8551   1.084   0.216  11.984
 5033W        W 8552   4.171   0.795   2.794
 5034W        W 8553   7.946   7.173   1.760
 5035W        W 8554   6.893   6.051   4.193
 5036W        W 8555   2.508   5.043   3.249
 5037W        W 8556   3.105   4.411   8.112
 5038W        W 8557   9.226   2.294   3.239
 5039W        W 8558   5.168   2.593   0.760
 5040W        W 8559   6.815   6.924   3.796
 5041W        W 8560   0.616   5.161  10.796
 5042W        W 8561   5.123   1.058   2.837
 5043W        W 8562   4.866   6.630   4.103
 5044W        W 8563   0.181   3.459   0.723
 5045W        W 8564   8.022   4.214  10.172
 5046W        W 8565   5.274   7.052   9.450
 5047W        W 8566   8.079   3.406   2.391
 5048W        W 8567   6.490   9.699  11.448
 5049W        W 8568   5.922   9.964   8.964
 5050W        W 8569   9.349   6.865   2.128
 5051W        W 8570   9.283   7.881   2.496
 5052W        W 8571   2.198   6.911   3.553
 5053W        W 8572   4.291   6.517   1.855
 5054W        W 8573   5.380   2.269   2.644
 5055W        W 8574   6.065   5.515   1.421
 5056W        W 8575   7.167   7.528  11.684
 5057W        W 8576   0.986  -0.000   1.827
 5058W        W 8577   7.246   6.032   9.039
 5059W        W 8578   8.757   9.438   3.207
 5060W        W 8579   3.865   9.002  11.509
 5061W        W 8580   9.593   7.576   0.294
 5062W        W 8581   1.941   6.435  10.765
 5063W        W 8582   1.285   9.854  10.573
 5064W        W 8583   7.937   9.282   9.485
 5065W        W 8584   8.368   6.341   0.919
 5066W        W 8585   3.196   8.068   2.400
 5067W        W 8586   5.927   1.012  10.435
 5068W        W 8587   1.620   2.701   1.231
 5069W        W 8588   2.720   9.340   9.237
 5070W        W 8589   3.236   4.650   9.663
 5071W        W 8590   5.160   7.878   2.583
 5072W        W 8591   2.310   5.968   3.475
 5073W        W 8592   6.567   9.253  10.377
 5074W        W 8593   6.436   2.435   2.777
 5075W        W 8594   1.319   8.439   2.401
 5076W        W 8595   6.499   5.056   2.609
 5077W        W 8596   0.805   4.415   3.202
 5078W        W 8597   5.854   4.946   2.211
 5079W        W 8598   7.861   2.649   9.851
 5080W        W 8599   6.073   9.468  10.371
 5081W        W 8600   7.936   3.434  10.440
 5082W        W 8601   2.479   2.657   3.425
 5083W        W 8602   9.514   6.749   0.338
 5084W        W 8603   7.727   5.644   2.490
 5085W        W 8604   3.537   0.891   3.587
 5086W        W 8605   9.435   4.306   0.082
 5087W        W 8606   5.683   8.526   3.088
 5088W        W 8607   8.421   7.083   2.012
 5089W        W 8608   8.673   9.249   2.339
 5090W        W 8609   3.563   8.307   2.796
 5091W        W 8610   8.689   2.911   9.614
 5092W        W 8611   3.196   2.984   0.879
 5093W        W 8612   4.797   0.360   9.712
 5094W        W 8613   3.832   7.258  11.086
 5095W        W 8614   4.422   5.507  10.061
 5096W        W 8615   3.550   8.244   1.314
 5097W        W 8616   3.728   5.447   9.414
 5098W        W 8617   1.190   1.941   0.819
 5099W        W 8618   4.216   2.288   9.212
 5100W        W 8619   1.964   1.004   3.104
 5101W        W 8620   9.655   3.596  11.478
 5102W        W 8621   4.593   5.671   0.254
 5103W        W 8622   3.936   8.178  11.458
 5104W        W 8623   8.793   7.092   0.305
 5105W        W 8624   1.254   3.495   3.446
 5106W        W 8625   0.778   0.826   8.572
 5107W        W 8626   9.456   9.395   9.660
 5108W        W 8627   4.029   0.936   3.359
 5109W        W 8628   7.993   8.749   3.055
 5110W        W 8629   7.602   4.347   9.937
 5111W        W 8630   0.519   3.070   0.634
 5112W        W 8631   8.113   6.213   3.702
 5113W        W 8632   0.408   3.333   9.551
 5114W        W 8633   0.907   2.187   8.741
 5115W        W 8634   5.577   8.300   8.739
 5116W        W 8635   1.585   7.347   2.738
 5117W        W 8636   5.894   8.915   9.712
 5118W        W 8637   3.178   4.738   9.174
 5119W        W 8638   8.386   5.717   1.634
 5120W        W 8639   3.985   4.653   2.676
 5121W        W 8640   2.226   6.208   0.414
 5122W        W 8641   6.796   0.576  11.437
 5123W        W 8642   2.952   8.952   0.086
 5124W        W 8643   1.351   0.652   0.069
 5125W        W 8644   9.826   4.871   2.173
 5126W        W 8645   6.279   5.617   2.875
 5127W        W 8646   3.454   0.624   0.355
 5128W        W 8647   2.188   9.244   1.699
 5129W        W 8648   8.636   2.264   1.441
 5130W        W 8649   9.523   5.369  11.445
 5131W        W 8650   4.223   0.833   1.409
 5132W        W 8651   8.438   3.549   0.649
 5133W        W 8652   7.312   0.631   1.521
 5134W        W 8653   9.008   5.870   2.330
 5135W        W 8654   8.556   9.675   0.281
 5136W        W 8655   5.843   3.066   8.753
 5137W        W 8656   0.006   5.430   9.862
 5138W        W 8657   1.054   0.350   9.849
 5139W        W 8658   3.096   6.696   8.134
 5140W        W 8659   8.326   0.711   3.233
 5141W        W 8660   4.504   3.251   0.641
 5142W        W 8661   2.729   5.516  10.998
 5143W        W 8662   1.707   3.221  11.355
 5144W        W 8663   2.118   0.412  11.972
 5145W        W 8664   7.877   2.999   2.154
 5146W        W 8665   5.681   9.786   2.400
 5147W        W 8666   3.512   2.692   1.473
 5148W        W 8667   9.633   9.985   0.253
 5149W        W 8668   8.345   5.149   9.944
 5150W        W 8669   6.176   9.015  10.655
 5151W        W 8670   5.966   6.436  11.025
 5152W        W 8671   0.450   1.570  11.990
 5153W        W 8672   6.177   4.681  11.996
 5154W        W 8673   6.314   4.203   0.726
 5155W        W 8674   9.330   9.309   8.721
 5156W        W 8675   9.441   7.092  11.198
 5157W        W 8676   5.644   1.455   0.579
 5158W        W 8677   4.239   5.052   9.865
 5159W        W 8678   7.596   4.749   8.974
 5160W        W 8679   1.285   7.162   0.177
 5161W        W 8680   2.407   5.242   2.780
 5162W        W 8681   5.418   4.859  10.397
 5163W        W 8682   9.446   5.518   0.698
 5164W        W 8683   2.344   7.860   1.826
 5165W        W 8684   6.763   1.461   8.507
 5166W        W 8685   4.228   6.415   2.731
 5167W        W 8686   6.866   8.771  10.055
 5168W        W 8687   4.230   8.922   2.435
 5169W        W 8688   0.772   6.137  11.862
 5170W        W 8689   9.821   4.624  10.025
 5171W        W 8690   7.627   0.964   2.356
 5172W        W 8691   6.062   2.832   2.154
 5173W        W 8692   7.949   9.406  11.688
 5174W        W 8693   3.713   1.962   2.813
 5175W        W 8694   2.883   5.098  11.270
 5176W        W 8695   3.811   4.200   3.799
 5177W        W 8696   9.024   9.874   1.624
 5178W        W 8697   8.931   8.040  10.783
 5179W        W 8698   8.421   5.170   2.380
 5180W        W 8699   4.519   4.218   9.633
 5181W        W 8700   8.826   3.664   2.007
 5182W        W 8701   5.956   6.913  11.924
 5183W        W 8702   0.994   5.037   0.561
 5184W        W 8703   1.888   7.672  11.243
 5185W        W 8704   3.787   2.948   2.423
 5186W        W 8705   2.943   8.866   3.246
 5187W        W 8706   5.565   6.945   4.051
 5188W        W 8707   5.562   2.625   2.998
 5189W        W 8708   1.779   0.083   2.659
 5190W        W 8709   0.542   3.609   8.861
 5191W        W 8710   7.973   1.180   2.673
 5192W        W 8711   7.687   9.789  10.920
 5193W        W 8712   5.147   3.553   4.086
 5194W        W 8713   3.878   9.943   0.484
 5195W        W 8714   7.022   8.959   9.191
 5196W        W 8715   2.173   3.817   2.785
 5197W        W 8716   7.398   3.637   0.452
 5198W        W 8717   9.978   5.942   1.470
 5199W        W 8718   9.630   1.455   1.716
 5200W        W 8719   6.913   9.768   3.215
 5201W        W 8720   7.882   7.671   1.749
 5202W        W 8721   6.439   7.234  10.930
 5203W        W 8722   1.730   5.412   8.651
 5204W        W 8723   1.816   5.493   1.515
 5205W        W 8724   9.765   8.038   9.157
 5206W        W 8725   1.551   0.178   9.750
 5207W        W 8726   0.675   7.301   1.234
 5208W        W 8727   2.353   4.763   9.893
 5209W        W 8728   2.020   4.093   0.516
 5210W        W 8729   7.017   5.570   8.905
 5211W        W 8730   9.761   0.807  10.877
 5212W        W 8731   8.022   6.130  10.062
 5213W        W 8732   2.135   4.271  10.560
 5214W        W 8733   3.887   5.489  11.410
 5215W        W 8734   1.390   8.429   0.590
 5216W        W 8735   5.490   1.787  10.079
 5217W        W 8736   8.324   2.375  10.035
 5218W        W 8737   9.490   1.410   2.194
 5219W        W 8738   3.792   2.257   0.731
 5220W        W 8739   1.748   1.560   9.114
 5221W        W 8740   3.590   6.145   8.737
 5222W        W 8741   2.960   1.760   8.629
 5223W        W 8742   9.332   6.389  11.441
 5224W        W 8743   0.128   0.664   0.227
 5225W        W 8744   4.562   2.156   3.024
 5226W        W 8745   9.813   9.374   1.772
 5227W        W 8746   8.967   5.131  11.747
 5228W        W 8747   2.144   3.755   0.876
 5229W        W 8748   3.502   1.814   9.996
 5230W        W 8749   4.536   9.515   9.442
 5231W        W 8750   6.269   3.807   1.662
 5232W        W 8751   2.263   8.329   3.184
 5233W        W 8752   7.935   2.311   2.657
 5234W        W 8753   5.350   4.995   1.295
 5235W        W 8754   4.235   5.474   9.575
 5236W        W 8755   4.211   4.592  10.116
 5237W        W 8756   9.364   9.941   1.214
 5238W        W 8757   5.513   2.331   1.059
 5239W        W 8758   2.688   0.460  10.297
 5240W        W 8759   8.517   5.492  11.305
 5241W        W 8760   4.944   7.038  11.900
 5242W        W 8761   6.072   1.765   3.250
 5243W        W 8762   3.914   0.412   0.297
 5244W        W 8763   9.008   5.369   1.186
 5245W        W 8764   1.736   6.241  11.210
 5246W        W 8765   0.419   3.049  11.724
 5247W        W 8766   9.112   9.485   9.267
 5248W        W 8767   3.086   0.358   2.509
 5249W        W 8768   4.865   6.327   3.301
 5250W        W 8769   6.508   3.664   9.238
 5251W        W 8770   1.429   2.972   3.641
 5252W        W 8771   1.669   8.062  10.998
 5253W        W 8772   3.156   5.614  10.741
 5254W        W 8773   8.573   3.311   2.341
 5255W        W 8774   1.385   6.983   1.162
 5256W        W 8775   9.202   4.225   1.993
 5257W        W 8776   1.278   3.096   1.698
 5258W        W 8777   4.154   9.405   8.984
 5259W        W 8778   8.306   7.509   1.267
 5260W        W 8779   3.445   8.192   9.341
 5261W        W 8780   3.216   5.901   8.349
 5262W        W 8781   5.588   6.413   3.778
 5263W        W 8782   6.767   4.065  11.824
 5264W        W 8783   0.888   7.109   1.861
 5265W        W 8784   7.686   5.598   0.462
 5266W        W 8785   2.163   0.911   0.041
 5267W        W 8786   0.057   2.850  10.873
 5268W        W 8787   8.768   9.473   8.879
 5269W        W 8788   5.958   4.071   2.112
 5270W        W 8789   7.609   6.512   0.637
 5271W        W 8790   2.746   7.752   2.663
 5272W        W 8791   5.718   9.358   2.128
 5273W        W 8792   1.264   6.079  10.016
 5274W        W 8793   1.165   6.718  11.852
 5275W        W 8794   3.287   6.657   8.939
 5276W        W 8795   2.706   5.676   2.715
 5277W        W 8796   3.471   8.123   8.830
 5278W        W 8797   8.106   5.666  10.985
 5279W        W 8798   9.371   6.181   9.227
 5280W        W 8799   4.926   1.876   0.253
 5281W        W 8800   7.739   7.416   2.825
 5282W        W 8801   2.683   4.221  11.832
 5283W        W 8802   8.845   4.012   2.720
 5284W        W 8803   4.959   9.286  11.016
 5285W        W 8804   0.255   8.524   3.107
 5286W        W 8805   6.472   4.148   2.142
 5287W        W 8806   4.055   4.344  11.487
 5288W        W 8807   1.409   9.730   1.821
 5289W        W 8808   8.375   3.105   2.757
 5290W        W 8809   3.329   1.860   1.665
 5291W        W 8810   8.437   3.106   8.445
 5292W        W 8811   8.454   4.381   1.865
 5293W        W 8812   7.524   6.342   8.699
 5294W        W 8813   0.738   4.516   1.404
 5295W        W 8814   1.216   8.051  10.226
 5296W        W 8815   2.290   2.920  10.971
 5297W        W 8816   4.308   3.620  11.101
 5298W        W 8817   3.500   0.127   0.162
 5299W        W 8818   5.242   4.082  11.023
 5300W        W 8819   4.506   1.380  11.596
 5301W        W 8820   9.127   2.227   9.629
 5302W        W 8821   1.728   6.202   8.831
 5303W        W 8822   5.562   3.236   9.782
 5304W        W 8823   6.666   2.646  10.960
 5305W        W 8824   6.109   4.956   0.426
 5306W        W 8825   3.193   1.234   3.122
 5307W        W 8826   4.953   8.561   9.580
 5308W        W 8827   0.698   1.686  10.351
 5309W        W 8828   8.854   3.229   0.399
 5310W        W 8829   8.042   9.678   2.750
 5311W        W 8830   9.865   3.346  10.924
 5312W        W 8831   0.011   8.854   1.503
 5313W        W 8832   1.186   8.001  10.732
 5314W        W 8833   0.901   8.476  11.210
 5315W        W 8834   3.692   9.970   2.005
 5316W        W 8835   3.223   1.998  10.915
 5317W        W 8836   4.125   0.885   9.038
 5318W        W 8837   0.060   1.019  10.511
 5319W        W 8838   4.089   5.777  10.357
 5320W        W 8839   9.716   6.987   1.482
 5321W        W 8840   4.274   1.236   0.465
 5322W        W 8841   1.638   7.222  11.239
 5323W        W 8842   8.364   0.225   2.255
 5324W        W 8843   6.122   6.425   0.373
 5325W        W 8844   9.009   2.148   1.787
 5326W        W 8845   8.184   1.939  11.802
 5327W        W 8846   4.992   4.325  11.472
 5328W        W 8847   0.303   2.332   0.322
 5329W        W 8848   2.004   2.141   3.750
 5330W        W 8849   4.780   5.556   9.652
 5331W        W 8850   3.737   9.556   1.517
 5332W        W 8851   9.185   1.845  11.859
 5333W        W 8852   3.950   6.273   4.346
 5334W        W 8853   2.687   7.517   0.198
 5335W        W 8854   1.394   0.850  11.373
 5336W        W 8855   2.765   2.926  11.204
 5337W        W 8856   2.599   8.034   9.403
 5338W        W 8857   2.187   3.468  11.918
 5339W        W 8858   9.133   7.478   0.019
 5340W        W 8859   4.590   3.168  11.625
 5341W        W 8860   3.658   7.462   0.071
 5342W        W 8861   8.098   7.674  10.696
 5343W        W 8862   8.584   6.568  10.100
 5344W        W 8863   3.892   5.556   4.204
 5345W        W 8864   0.965   9.344   8.973
 5346W        W 8865   0.833   2.601  11.147
 5347W        W 8866   4.152   6.320  11.605
 5348W        W 8867   5.114   8.841   2.267
 5349W        W 8868   6.224   4.542   8.638
 5350W        W 8869   1.730   6.631  10.339
 5351W        W 8870   6.719   8.492   0.866
 5352W        W 8871   4.664   8.375  11.860
 5353W        W 8872   8.933   4.582   1.775
 5354W        W 8873   2.352   0.759   1.768
 5355W        W 8874   4.647   5.518   9.155
 5356W        W 8875   8.456   5.867   0.774
 5357W        W 8876   2.435   0.310  11.297
 5358W        W 8877   5.740   6.841   8.107
 5359W        W 8878   7.958   9.066   3.473
 5360W        W 8879   8.993   6.649  10.836
 5361W        W 8880   5.655   2.665  10.839
 5362W        W 8881   6.477   6.500  10.570
 5363W        W 8882   3.292   7.560  10.719
 5364W        W 8883   3.208   4.244   2.380
 5365W        W 8884   7.418   9.765   3.182
 5366W        W 8885   8.557   2.318  11.770
 5367W        W 8886   8.951   1.746   9.765
 5368W        W 8887   3.510   5.059   8.579
 5369W        W 8888   2.245   2.639   9.979
 5370W        W 8889   0.913   7.538   3.499
 5371W        W 8890   8.391   0.930   2.744
 5372W        W 8891   2.963   9.977   1.002
 5373W        W 8892   1.922   0.485   9.997
 5374W        W 8893   1.290   4.618   2.420
 5375W        W 8894   5.973   3.243  11.805
 5376W        W 8895   5.275   6.258   4.203
 5377W        W 8896   5.975   2.222   0.856
 5378W        W 8897   7.537   3.563   3.002
 5379W        W 8898   2.633   2.910   1.029
 5380W        W 8899   1.437   0.777   1.827
 5381W        W 8900   2.521   1.044   0.374
 5382W        W 8901   3.267   1.470   8.924
 5383W        W 8902   1.822   4.742   9.925
 5384W        W 8903   0.036   1.711  11.746
 5385W        W 8904   6.126   5.998  10.768
 5386W        W 8905   8.252   8.547  11.477
 5387W        W 8906   1.458   0.832  10.848
 5388W        W 8907   6.843   8.968   0.373
 5389W        W 8908   0.060   4.764  11.419
 5390W        W 8909   0.418   5.954  11.358
 5391W        W 8910   2.587   1.311   1.892
 5392W        W 8911   6.702   6.381  10.090
 5393W        W 8912   6.722   3.897   0.808
 5394W        W 8913   6.625   5.180   3.636
 5395W        W 8914   6.724   9.839  10.970
 5396W        W 8915   4.555   5.771   8.715
 5397W        W 8916   2.262   5.616   2.429
 5398W        W 8917   6.993   0.727   9.523
 5399W        W 8918   0.319   3.302   2.721
 5400W        W 8919   6.514   2.237   8.706
 5401W        W 8920   6.914   6.197   1.009
 5402W        W 8921   6.186   1.842  10.244
 5403W        W 8922   9.385   9.243   0.040
 5404W        W 8923   6.739   5.865  10.153
 5405W        W 8924   2.129   4.311  10.038
 5406W        W 8925   6.672   5.761   0.859
 5407W        W 8926   8.940   6.004  11.487
 5408W        W 8927   6.573   7.962   3.048
 5409W        W 8928   6.473   0.694   1.285
 5410W        W 8929   2.979   3.300  10.907
 5411W        W 8930   2.358   9.343  10.891
 5412W        W 8931   1.310   6.249   0.595
 5413W        W 8932   7.734   2.683   3.461
 5414W        W 8933   1.649   3.191   2.446
 5415W        W 8934   1.757   1.236   2.245
 5416W        W 8935   5.621   4.504   1.147
 5417W        W 8936   2.059   6.412  11.940
 5418W        W 8937   0.904   8.871   9.160
 5419W        W 8938   8.045   5.631   9.973
 5420W        W 8939   6.800   8.254   8.529
 5421W        W 8940   5.360   1.062  11.538
 5422W        W 8941   5.001   1.697   9.891
 5423W        W 8942   9.417   1.422   2.689
 5424W        W 8943   5.941   0.516  10.314
 5425W        W 8944   8.445   9.737   2.418
 5426W        W 8945   1.231   2.643   3.265
 5427W        W 8946   9.489   6.500  10.787
 5428W        W 8947   6.029   7.966  11.235
 5429W        W 8948   2.282   7.913   2.795
 5430W        W 8949   1.222   1.341   9.155
 5431W        W 8950   5.273   1.941   9.543
 5432W        W 8951   5.644   8.016   9.435
 5433W        W 8952   6.490   2.072   3.136
 5434W        W 8953   1.215   8.943   2.537
 5435W        W 8954   3.560   5.057   3.335
 5436W        W 8955   2.682   6.357   2.666
 5437W        W 8956   9.020   4.221   9.579
 5438W        W 8957   3.350   4.722  10.156
 5439W        W 8958   2.700   9.217   2.437
 5440W        W 8959   2.233   2.178   9.593
 5441W        W 8960   2.674   7.428   0.698
 5442W        W 8961   0.251   1.722   8.902
 5443W        W 8962   5.435   1.459   2.765
 5444W        W 8963   9.231   1.806   1.057
 5445W        W 8964   5.413   1.830   0.316
 5446W        W 8965   6.179   2.326  10.540
 5447W        W 8966   1.522   8.386   9.229
 5448W        W 8967   9.187   6.610   0.735
 5449W        W 8968   9.892   4.822   8.764
 5450W        W 8969   1.859   4.614   9.061
 5451W        W 8970   9.469   2.224   0.271
 5452W        W 8971   0.552   4.611  11.387
 5453W        W 8972   7.768   9.257   1.248
 5454W        W 8973   6.577   1.230  11.041
 5455W        W 8974   0.127   2.877   9.579
 5456W        W 8975   4.705   6.415   8.091
 5457W        W 8976   2.804   6.833  10.251
 5458W        W 8977   3.208   8.757   0.485
 5459W        W 8978   3.661   7.051   2.015
 5460W        W 8979   7.993   4.153   9.670
 5461W        W 8980   2.137   8.308   1.720
 5462W        W 8981   9.382   4.707   3.602
 5463W        W 8982   0.005   3.242   9.903
 5464W        W 8983   2.682   7.165   1.140
 5465W        W 8984   9.984   4.230   0.184
 5466W        W 8985   4.303   5.482  11.808
 5467W        W 8986   8.923   4.634  11.562
 5468W        W 8987   9.680   6.627   3.278
 5469W        W 8988   4.703   3.380   2.417
 5470W        W 8989   2.301   2.782   1.824
 5471W        W 8990   1.877   9.195   0.659
 5472W        W 8991   9.085   1.735  11.365
 5473W        W 8992   5.476   5.944   0.874
 5474W        W 8993   9.929   2.460   0.662
 5475W        W 8994   9.800   5.804   8.615
 5476W        W 8995   0.013   1.154   1.843
 5477W        W 8996   0.331   1.417  10.576
 5478W        W 8997   7.683   7.542  11.628
 5479W        W 8998   2.653   8.461   1.495
 5480W        W 8999   3.951   1.327   2.098
 5481W        W 9000   6.051   8.068  10.225
 5482W        W 9001   1.217   5.125   2.177
 5483W        W 9002   7.082   1.598   9.727
 5484W        W 9003   9.925   4.242   0.768
 5485W        W 9004   1.217   4.050   9.992
 5486W        W 9005   9.885   2.222   2.659
 5487W        W 9006   5.166   5.191   9.580
 5488W        W 9007   6.061   7.938   1.572
 5489W        W 9008   8.113   5.900   0.359
 5490W        W 9009   8.977   0.898   2.075
 5491W        W 9010   4.209   8.583   9.817
 5492W        W 9011   9.493   8.316   3.626
 5493W        W 9012   9.813   1.295  11.993
 5494W        W 9013   2.071   6.564   0.823
 5495W        W 9014   5.544   4.406   8.888
 5496W        W 9015   5.113   0.148  10.065
 5497W        W 9016   9.472   3.589   2.141
 5498W        W 9017   0.873   5.631   1.744
 5499W        W 9018   8.923   7.506   3.222
 5500W        W 9019   5.687   1.851  11.254
 5501W        W 9020   0.798   2.420   1.497
 5502W        W 9021   6.112   5.748   9.553
 5503W        W 9022   5.928   1.412   8.940
 5504W        W 9023   9.841   0.860   2.872
 5505W        W 9024   6.431   3.628   8.733
 5506W        W 9025   9.324   4.340   3.960
 5507W        W 9026   8.833   7.964   9.261
 5508W        W 9027   7.118   0.924   0.293
 5509W        W 9028   3.772   9.488   3.210
 5510W        W 9029   9.931   8.099   8.644
 5511W        W 9030   1.155   7.498   2.497
 5512W        W 9031   5.146   1.901   3.388
 5513W        W 9032   8.470   7.098   3.562
 5514W        W 9033   3.187   4.391  11.532
 5515W        W 9034   4.517   3.819   0.208
 5516W        W 9035   7.497   1.320   1.974
 5517W        W 9036   0.328   5.167   8.786
 5518W        W 9037   7.401   5.703   0.015
 5519W        W 9038   9.021   0.404  11.008
 5520W        W 9039   8.998   5.788   1.496
 5521W        W 9040   3.499   1.970   0.348
 5522W        W 9041   8.347   7.034   0.527
 5523W        W 9042   4.179   7.941  10.511
 5524W        W 9043   0.007   2.214   9.984
 5525W        W 9044   8.098   0.610  10.940
 5526W        W 9045   5.201   8.747   0.810
 5527W        W 9046   7.063   1.659   0.802
 5528W        W 9047   7.931   1.167   1.703
 5529W        W 9048   6.425   4.603  10.355
 5530W        W 9049   6.928   6.347   9.280
 5531W        W 9050   0.222   7.312  10.637
 5532W        W 9051   4.187   7.326   1.455
 5533W        W 9052   9.696   2.876  10.539
 5534W        W 9053   9.747   5.025   3.802
 5535W        W 9054   9.509   5.196  10.954
 5536W        W 9055   5.279   4.418  11.893
 5537W        W 9056   8.362   9.805  11.689
 5538W        W 9057   5.166   9.756   0.828
 5539W        W 9058   0.395   9.896   8.984
 5540W        W 9059   3.775   9.727   8.423
 5541W        W 9060   6.628   4.200   8.522
 5542W        W 9061   1.463   9.359   8.759
 5543W        W 9062   6.133   5.168  11.857
 5544W        W 9063   7.706   1.704  11.150
 5545W        W 9064   7.603   5.387   9.773
 5546W        W 9065   3.495   2.521  11.396
 5547W        W 9066   7.868   8.415   1.328
 5548W        W 9067   6.119   4.241   2.590
 5549W        W 9068   4.159   7.019   1.888
 5550W        W 9069   9.314   3.871   9.787
 5551W        W 9070   5.381   0.286  10.876
 5552W        W 9071   6.651   4.654   2.251
 5553W        W 9072   5.972   8.576   2.674
 5554W        W 9073   2.409   5.738   0.499
 5555W        W 9074   5.796   4.295  11.927
 5556W        W 9075   4.101   0.865  10.064
 5557W        W 9076   3.608   4.635   3.025
 5558W        W 9077   7.523   0.918   8.938
 5559W        W 9078   5.353   8.888   9.533
 5560W        W 9079   1.382   9.891   2.957
 5561W        W 9080   0.110   4.582   9.608
 5562W        W 9081   3.680   6.540   8.342
 5563W        W 9082   2.227   5.234  10.075
 5564W        W 9083   4.378   6.082   1.233
 5565W        W 9084   3.243   7.875   1.427
 5566W        W 9085   6.422   6.337   1.902
 5567W        W 9086   2.417   4.869   1.000
 5568W        W 9087   8.760   5.367   1.667
 5569W        W 9088   7.118   9.720   1.075
 5570W        W 9089   2.382   2.295  10.568
 5571W        W 9090   7.435   8.634   9.095
 5572W        W 9091   2.898   3.211   0.049
 5573W        W 9092   4.387   4.879   0.792
 5574W        W 9093   6.483   0.360  11.764
 5575W        W 9094   3.915   8.522   1.089
 5576W        W 9095   2.443   5.444   3.577
 5577W        W 9096   6.582   8.920   2.017
 5578W        W 9097   1.155   1.294   3.449
 5579W        W 9098   8.737   2.772  10.570
 5580W        W 9099   3.641   4.908   1.254
 5581W        W 9100   7.369   5.183  10.912
 5582W        W 9101   7.428   3.542  11.460
 5583W        W 9102   2.183   3.276   1.829
 5584W        W 9103   3.203   3.679   1.604
 5585W        W 9104   4.342   1.097  11.984
 5586W        W 9105   7.080   7.288  10.438
 5587W        W 9106   0.920   3.455  10.169
 5588W        W 9107   7.971   7.285   3.324
 5589W        W 9108   0.858   2.021   2.925
 5590W        W 9109   4.057   9.388   0.137
 5591W        W 9110   7.608   6.419   9.910
 5592W        W 9111   8.220   5.155  11.026
 5593W        W 9112   4.463   5.398   0.752
 5594W        W 9113   7.910   2.115   9.905
 5595W        W 9114   3.242   5.414   1.900
 5596W        W 9115   4.164   0.443   3.204
 5597W        W 9116   7.661   2.191   3.600
 5598W        W 9117   8.126   0.259   3.117
 5599W        W 9118   7.368   0.343   9.658
 5600W        W 9119   8.824   3.511   1.512
 5601W        W 9120   8.438   1.229   9.045
 5602W        W 9121   4.920   5.630   0.710
 5603W        W 9122   5.770   3.676   1.694
 5604W        W 9123   9.412   3.323  10.588
 5605W        W 9124   6.501   2.633   9.035
 5606W        W 9125   1.438   7.625  10.976
 5607W        W 9126   4.791   4.835  11.063
 5608W        W 9127   4.297   9.053  11.821
 5609W        W 9128   9.446   2.902   2.015
 5610W        W 9129   5.522   5.424   1.513
 5611W        W 9130   2.785   5.683   0.875
 5612W        W 9131   1.145   2.837   9.478
 5613W        W 9132   4.667   5.017  11.516
 5614W        W 9133   5.546   9.318   2.608
 5615W        W 9134   8.997   8.627   9.957
 5616W        W 9135   3.702   1.756  11.854
 5617W        W 9136   6.993   3.887   1.293
 5618W        W 9137   4.638   8.539   3.147
 5619W        W 9138   6.607   1.177   1.304
 5620W        W 9139   5.297   8.334   9.194
 5621W        W 9140   6.081   2.787   9.259
 5622W        W 9141   9.309   6.757   9.253
 5623W        W 9142   3.081   8.487   2.135
 5624W        W 9143   7.065   1.786   2.322
 5625W        W 9144   5.741   7.093  11.501
 5626W        W 9145   5.849   8.660   1.893
 5627W        W 9146   7.591   8.905   0.904
 5628W        W 9147   6.106   8.504   3.400
 5629W        W 9148   5.908   8.444   9.908
 5630W        W 9149   1.732   3.596   9.053
 5631W        W 9150   9.028   1.843   3.106
 5632W        W 9151   1.045   1.954   3.848
 5633W        W 9152   9.032   0.823  11.346
 5634W        W 9153   0.960   3.788  11.803
 5635W        W 9154   7.313   0.398  10.576
 5636W        W 9155   2.335   8.768   1.746
 5637W        W 9156   5.750   6.080   8.706
 5638W        W 9157   1.156   9.797   2.296
 5639W        W 9158   7.297   8.122   9.024
 5640W        W 9159   4.236   7.501   8.666
 5641W        W 9160   9.037   8.975   1.477
 5642W        W 9161   0.269   5.181   1.191
 5643W        W 9162   0.456   9.866  10.065
 5644W        W 9163   5.232   3.531  11.085
 5645W        W 9164   0.862   4.374   2.669
 5646W        W 9165   1.895   2.181  10.438
 5647W        W 9166   7.143   5.149   9.764
 5648W        W 9167   1.363   6.997   3.141
 5649W        W 9168   2.965   4.622   3.877
 5650W        W 9169   5.989   3.694  10.414
 5651W        W 9170   7.441   4.750  10.630
 5652W        W 9171   7.992   3.057  10.792
 5653W        W 9172   1.286   0.901   8.484
 5654W        W 9173   6.740   8.776   9.571
 5655W        W 9174   6.748   7.697  11.892
 5656W        W 9175   3.768   2.349   3.186
 5657W        W 9176   4.045   0.370  10.235
 5658W        W 9177   2.138   2.311   1.808
 5659W        W 9178   1.737   2.244   9.399
 5660W        W 9179   4.666   5.493   3.488
 5661W        W 9180   3.037   0.859   2.320
 5662W        W 9181   7.001   9.082  10.998
 5663W        W 9182   4.939   2.821   1.314
 5664W        W 9183   1.912   6.749   3.933
 5665W        W 9184   3.341   2.716   9.237
 5666W        W 9185   5.044   9.527   0.402
 5667W        W 9186   1.343   1.690   9.799
 5668W        W 9187   4.504   5.028   8.964
 5669W        W 9188   1.604   9.970  11.451
 5670W        W 9189   0.531   4.219   0.298
 5671W        W 9190   7.261   9.239   1.295
 5672W        W 9191   9.802   2.625   9.280
 5673W        W 9192   0.816   5.878   1.303
 5674W        W 9193   1.437   9.443   0.475
 5675W        W 9194   0.143   6.427   0.849
 5676W        W 9195   9.391   8.280   2.974
 5677W        W 9196   3.794   2.877   2.966
 5678W        W 9197   1.126   6.511   1.003
 5679W        W 9198   9.442   8.247   8.815
 5680W        W 9199   3.763   2.787   1.910
 5681W        W 9200   5.447   4.152   0.310
 5682W        W 9201   7.884   8.392   8.986
 5683W        W 9202   9.423   6.680   9.742
 5684W        W 9203   1.704   1.695  10.610
 5685W        W 9204   2.892   4.767   1.152
 5686W        W 9205   0.784   7.603   1.683
 5687W        W 9206   9.559   4.457   2.368
 5688W        W 9207   3.823   4.627   3.488
 5689W        W 9208   7.999   3.732   0.428
 5690W        W 9209   5.194   7.787   0.547
 5691W        W 9210   5.087   7.756   4.424
 5692W        W 9211   5.219   3.751  10.627
 5693W        W 9212   6.213   7.250   2.188
 5694W        W 9213   7.778   0.396   1.538
 5695W        W 9214   0.863   6.184   2.407
 5696W        W 9215   6.821   4.432   0.824
 5697W        W 9216   3.289   4.531   1.401
 5698W        W 9217   9.455   0.124   1.760
 5699W        W 9218   2.694   5.981   9.744
 5700W        W 9219   2.759   4.611   3.391
 5701W        W 9220   9.698   8.886  10.848
 5702W        W 9221   0.867   5.800   9.811
 5703W        W 9222   5.074   5.649  10.666
 5704W        W 9223   5.255   5.679   9.785
 5705W        W 9224   6.660   5.734   0.355
 5706W        W 9225   1.446   4.835  10.460
 5707W        W 9226   6.933   2.596   1.909
 5708W        W 9227   1.102   9.612   1.423
 5709W        W 9228   7.550   0.415   2.391
 5710W        W 9229   1.800   8.591  11.277
 5711W        W 9230   1.410   9.495  11.433
 5712W        W 9231   7.900   0.557   9.028
 5713W        W 9232   1.878   9.628   0.928
 5714W        W 9233   6.086   5.317   2.476
 5715W        W 9234   1.950   1.002   8.452
 5716W        W 9235   1.727   1.755  11.560
 5717W        W 9236   4.316   9.401   3.227
 5718W        W 9237   2.481   1.278  10.448
 5719W        W 9238   3.204   5.173   1.219
 5720W        W 9239   5.969   9.061   2.714
 5721W        W 9240   6.613   6.231   1.431
 5722W        W 9241   1.924   3.083  10.469
 5723W        W 9242   2.263   8.972   9.323
 5724W        W 9243   5.047   9.461   9.082
 5725W        W 9244   6.193   9.827  10.026
 5726W        W 9245   7.098   6.074   2.846
 5727W        W 9246   2.855   4.569   1.665
 5728W        W 9247   6.028   5.067  11.116
 5729W        W 9248   3.235   2.841   1.885
 5730W        W 9249   0.410   6.954   8.712
 5731W        W 9250   7.134   4.003   0.167
 5732W        W 9251   5.168   6.162  11.538
 5733W        W 9252   7.093   8.412   9.417
 5734W        W 9253   9.804   9.793   9.782
 5735W        W 9254   7.548   6.333  11.307
 5736W        W 9255   1.897   0.573   3.367
 5737W        W 9256   8.872   7.517  10.654
 5738W        W 9257   3.263   6.301   0.289
 5739W        W 9258   1.278   6.027   9.085
 5740W        W 9259   5.524   9.421  11.195
 5741W        W 9260   1.561   1.306   9.529
 5742W        W 9261   0.422   6.469   8.508
 5743W        W 9262   9.530   4.020   1.056
 5744W        W 9263   3.327   6.876   1.664
 5745W        W 9264   5.171   3.209   2.974
 5746W        W 9265   5.037   0.438  10.500
 5747W        W 9266   8.320   2.653   3.394
 5748W        W 9267   3.165   6.384  11.351
 5749W        W 9268   3.195   6.034   3.234
 5750W        W 9269   4.983   3.252   9.003
 5751W        W 9270   3.704   3.993   9.529
 5752W        W 9271   7.919   1.059  11.085
 5753W        W 9272   7.006   9.405   8.936
 5754W        W 9273   6.499   0.912   9.612
 5755W        W 9274   8.895   0.837   9.879
 5756W        W 9275   6.140   7.209   9.550
 5757W        W 9276   6.186   1.522   1.314
 5758W        W 9277   8.453   3.980   0.279
 5759W        W 9278   3.480   8.034  10.808
 5760W        W 9279   3.188   6.951   3.096
 5761W        W 9280   1.131   4.056   3.382
 5762W        W 9281   1.740   4.077   2.949
 5763W        W 9282   2.692   5.504  10.497
 5764W        W 9283   1.370   7.919   1.777
 5765W        W 9284   4.632   2.277   0.099
 5766W        W 9285   7.496   1.416   0.987
 5767W        W 9286   3.599   8.354   2.268
 5768W        W 9287   5.486   0.220   2.238
 5769W        W 9288   2.704   8.235   2.527
 5770W        W 9289   7.697   6.797   8.506
 5771W        W 9290   6.841   2.245   3.459
 5772W        W 9291   1.351   8.483  11.500
 5773W        W 9292   2.576   7.581   1.433
 5774W        W 9293   2.725   8.852  10.953
 5775W        W 9294   9.597   5.888   2.111
 5776W        W 9295   6.004   1.389   2.877
 5777W        W 9296   5.911   8.430   1.451
 5778W        W 9297   0.418   6.765   1.304
 5779W        W 9298   3.853   0.160   9.553
 5780W        W 9299   4.319   6.197   2.246
 5781W        W 9300   9.959   6.425   0.248
 5782W        W 9301   4.645   8.390  10.000
 5783W        W 9302   9.026   9.381  11.115
 5784W        W 9303   2.347   3.627   9.822
 5785W        W 9304   3.248   5.485   3.392
 5786W        W 9305   4.623   8.170   9.540
 5787W        W 9306   6.830   5.152   1.351
 5788W        W 9307   4.301   6.015   9.930
 5789W        W 9308   8.336   5.336  11.790
 5790W        W 9309   5.726   8.869  11.571
 5791W        W 9310   2.722   0.930  10.090
 5792W        W 9311   9.185   6.509   8.819
 5793W        W 9312   6.670   6.257   0.365
 5794W        W 9313   6.525   1.631   3.476
 5795W        W 9314   4.208   4.778   0.326
 5796W        W 9315   6.966   8.760   3.396
 5797W        W 9316   6.480   6.072   9.329
 5798W        W 9317   4.875   2.676   3.766
 5799W        W 9318   6.602   7.981   1.502
 5800W        W 9319   0.179   4.631  10.958
 5801W        W 9320   0.321   4.130  10.052
 5802W        W 9321   4.597   1.413  11.066
 5803W        W 9322   3.603   8.576  11.509
 5804W        W 9323   5.605   2.467  11.900
 5805W        W 9324   5.646   6.501   9.001
 5806W        W 9325   5.482   3.938   1.152
 5807W        W 9326   4.855   4.163   2.833
 5808W        W 9327   0.931   0.209   0.503
 5809W        W 9328   4.472   5.956   2.677
 5810W        W 9329   4.475   3.655   1.238
 5811W        W 9330   0.809   9.479  10.170
 5812W        W 9331   9.295   9.791   2.716
 5813W        W 9332   1.447   0.669   9.878
 5814W        W 9333   3.235   9.932  10.282
 5815W        W 9334   9.469   8.421  11.299
 5816W        W 9335   7.050   3.297  10.765
 5817W        W 9336   9.855   6.140   3.344
 5818W        W 9337   8.530   1.826   2.216
 5819W        W 9338   4.193   1.566   0.070
 5820W        W 9339   3.681   7.602   8.931
 5821W        W 9340   1.242   1.688  10.311
 5822W        W 9341   9.259   3.985   2.415
 5823W        W 9342   7.308   5.243   1.206
 5824W        W 9343   5.383   2.739   3.846
 5825W        W 9344   7.145   6.719  11.934
 5826W        W 9345   2.687   9.940   9.470
 5827W        W 9346   4.653   2.596   2.807
 5828W        W 9347   6.932   3.154  11.764
 5829W        W 9348   1.799   3.750   1.265
 5830W        W 9349   0.861   6.231   2.992
 5831W        W 9350   4.123   9.063   1.970
 5832W        W 9351   6.406   0.011   9.136
 5833W        W 9352   9.747   3.763   9.499
 5834W        W 9353   2.591   8.360   2.003
 5835W        W 9354   4.072   8.922  10.185
 5836W        W 9355   4.196   6.922   2.752
 5837W        W 9356   3.169   4.206  10.970
 5838W        W 9357   0.397   3.133   1.638
 5839W        W 9358   1.775   8.141   3.908
 5840W        W 9359   1.025   2.943  10.034
 5841W        W 9360   7.045   3.222  11.258
 5842W        W 9361   0.899   6.018   0.342
 5843W        W 9362   3.155   3.850   0.403
 5844W        W 9363   0.960   1.118  11.264
 5845W        W 9364   0.853   7.063  10.895
 5846W        W 9365   6.701   6.987  11.315
 5847W        W 9366   6.516   3.353  11.429
 5848W        W 9367   3.448   2.572   2.254
 5849W        W 9368   9.010   4.451   3.022
 5850W        W 9369   8.469   7.394  10.966
 5851W        W 9370   8.276   8.848  11.030
 5852W        W 9371   0.190   8.922  10.831
 5853W        W 9372   4.769   3.490  11.283
 5854W        W 9373   3.774   7.074   9.938
 5855W        W 9374   3.796   5.988  11.269
 5856W        W 9375   5.685   5.940  11.595
 5857W        W 9376   1.227   8.870  11.814
 5858W        W 9377   1.260   1.904  11.486
 5859W        W 9378   2.822   7.080   9.771
 5860W        W 9379   4.678   4.165   3.711
 5861W        W 9380   6.076   9.491   2.486
 5862W        W 9381   8.941   4.119  11.560
 5863W        W 9382   3.474   2.755   9.790
 5864W        W 9383   7.921   3.602   3.343
 5865W        W 9384   0.975   7.649   9.562
 5866W        W 9385   4.750   1.929  10.310
 5867W        W 9386   8.668   6.726   2.861
 5868W        W 9387   3.100   0.654   1.404
 5869W        W 9388   4.578   2.847   9.848
 5870W        W 9389   5.035   0.674  10.028
 5871W        W 9390   7.375   6.776  11.101
 5872W        W 9391   4.453   8.249   1.861
 5873W        W 9392   9.917   6.652  11.754
 5874W        W 9393   1.344   1.708   8.812
 5875W        W 9394   4.227   6.519   8.682
 5876W        W 9395   9.096   3.967   3.677
 5877W        W 9396   2.784   2.647   1.794
 5878W        W 9397   0.834   2.527   2.972
 5879W        W 9398   6.016   3.246   2.944
 5880W        W 9399   6.909   6.852   8.960
 5881W        W 9400   9.820   5.959   9.472
 5882W        W 9401   7.417   8.031   9.989
 5883W        W 9402   9.970   1.949   3.674
 5884W        W 9403   0.306   7.439  10.145
 5885W        W 9404   4.671   6.199  11.313
 5886W        W 9405   4.126   3.578   0.849
 5887W        W 9406   3.109   0.378  10.639
 5888W        W 9407   6.816   1.273   9.407
 5889W        W 9408   5.266   2.351   3.555
 5890W        W 9409   5.588   4.725   0.163
 5891W        W 9410   1.851   0.023  10.165
 5892W        W 9411   5.122   4.605   2.597
 5893W        W 9412   7.348   2.666   9.078
 5894W        W 9413   2.869   0.440   3.021
 5895W        W 9414   0.324   8.935   2.354
 5896W        W 9415   7.923   6.909   1.286
 5897W        W 9416   0.871   1.402   2.205
 5898W        W 9417   0.921   8.473  11.791
 5899W        W 9418   7.297   1.194  11.528
 5900W        W 9419   9.051   6.554  10.320
 5901W        W 9420   2.666   9.740   2.344
 5902W        W 9421   2.652   3.120   1.979
 5903W        W 9422   7.165   5.654   9.918
 5904W        W 9423   3.888   4.740   0.806
 5905W        W 9424   2.375   0.656   9.806
 5906W        W 9425   0.387   0.890   9.319
 5907W        W 9426   0.868   1.236   1.297
 5908W        W 9427   4.011   9.438   9.502
 5909W        W 9428   7.549   8.112   0.306
 5910W        W 9429   2.390   5.131  11.107
 5911W        W 9430   0.304   0.642   8.195
 5912W        W 9431   9.854   2.723  10.047
 5913W        W 9432   6.444   5.522   1.864
 5914W        W 9433   5.022   1.525   9.333
 5915W        W 9434   1.341   0.499   0.566
 5916W        W 9435   0.001   1.609   9.351
 5917W        W 9436   0.513   6.526   9.011
 5918W        W 9437   5.138   4.813  11.570
 5919W        W 9438   7.207   4.854   1.516
 5920W        W 9439   6.431   8.628   8.605
 5921W        W 9440   8.147   2.369   9.535
 5922W        W 9441   1.635   7.122  10.394
 5923W        W 9442   6.250   9.460   2.007
 5924W        W 9443   3.127   8.960   8.729
 5925W        W 9444   5.578   8.066   1.332
 5926W        W 9445   5.801   4.153   0.794
 5927W        W 9446   2.743   9.583   2.833
 5928W        W 9447   1.247   5.985   1.551
 5929W        W 9448   1.848   3.325   0.935
 5930W        W 9449   8.562   6.256   2.927
 5931W        W 9450   3.410   5.254   9.978
 5932W        W 9451   8.906   6.143   9.022
 5933W        W 9452   8.099   4.638   9.199
 5934W        W 9453   8.837   2.746   0.193
 5935W        W 9454   6.266   2.127   3.590
 5936W        W 9455   0.518   5.181  10.195
 5937W        W 9456   3.653   8.715   8.586
 5938W        W 9457   5.551   5.383   2.200
 5939W        W 9458   1.640   4.263   3.442
 5940W        W 9459   9.537   6.994   0.804
 5941W        W 9460   1.382   9.485   1.009
 5942W        W 9461   7.586   5.618   0.958
 5943W        W 9462   0.867   3.287   1.401
 5944W        W 9463   9.215   9.633   3.417
 5945W        W 9464   1.279   6.955   2.652
 5946W        W 9465   3.065   4.200   3.287
 5947W        W 9466   3.579   3.001   8.703
 5948W        W 9467   5.251   1.255   1.462
 5949W        W 9468   4.418   0.263   0.365
 5950W        W 9469   2.249   5.641   3.061
 5951W        W 9470   9.024   8.384   3.309
 5952W        W 9471   6.197   9.118  11.682
 5953W        W 9472   7.114   8.747   1.984
 5954W        W 9473   1.402   4.705   1.929
 5955W        W 9474   3.299   7.101  11.898
 5956W        W 9475   5.989   2.263  10.025
 5957W        W 9476   3.082   7.410   1.358
 5958W        W 9477   1.809   6.514   0.390
 5959W        W 9478   4.210   2.126   3.393
 5960W        W 9479   1.074   0.749   1.415
 5961W        W 9480   8.287   0.640  11.974
 5962W        W 9481   4.021   5.058  11.864
 5963W        W 9482   2.690   5.552   9.436
 5964W        W 9483   4.742   4.484   0.746
 5965W        W 9484   5.688   6.265   1.658
 5966W        W 9485   7.505   0.978   2.855
 5967W        W 9486   1.617   7.462   8.801
 5968W        W 9487   1.889   9.133  11.299
 5969W        W 9488   8.463   8.034   0.542
 5970W        W 9489   3.710   6.119   3.385
 5971W        W 9490   6.656   2.864   0.652
 5972W        W 9491   5.653   2.647   2.409
 5973W        W 9492   4.375   2.753   8.998
 5974W        W 9493   6.588   8.314   3.438
 5975W        W 9494   4.175   6.622   0.039
 5976W        W 9495   3.277   5.692   8.797
 5977W        W 9496   2.599   1.777   9.610
 5978W        W 9497   0.369   2.237   2.872
 5979W        W 9498   5.141   1.925   9.023
 5980W        W 9499   1.860   7.563  10.264
 5981W        W 9500   9.987   1.594   2.159
 5982W        W 9501   3.289   9.891   8.745
 5983W        W 9502   5.875   4.142   9.576
 5984W        W 9503   2.059   6.416   3.552
 5985W        W 9504   5.316   1.514   1.937
 5986W        W 9505   4.596   1.815  11.856
 5987W        W 9506   8.608   0.865   9.377
 5988W        W 9507   0.644   9.115  10.986
 5989W        W 9508   2.742   2.160  10.933
 5990W        W 9509   9.169   4.823  10.748
 5991W        W 9510   5.023   7.863  10.638
 5992W        W 9511   9.425   5.524  10.541
 5993W        W 9512   0.727   3.085  10.454
 5994W        W 9513   5.587   1.693   9.214
 5995W        W 9514   3.221   8.592  11.122
 5996W        W 9515   1.489   5.048  10.921
 5997W        W 9516   9.765   6.140  11.838
 5998W        W 9517   4.916   7.200   3.654
 5999W        W 9518   7.997   0.501   3.596
 6000W        W 9519   3.318   4.294  10.443
 6001W        W 9520   4.499   3.054   8.593
 6002W        W 9521   6.399   9.496  11.973
 6003W        W 9522   2.735   2.245   9.789
 6004W        W 9523   3.113   7.568   2.382
 6005W        W 9524   5.155   8.495  11.833
 6006W        W 9525   9.815   8.866  11.334
 6007W        W 9526   7.641   4.002  11.343
 6008W        W 9527   4.482   4.130  10.186
 6009W        W 9528   6.976   8.294   9.921
 6010W        W 9529   9.782   3.438   1.092
 6011W        W 9530   3.703   9.806   2.819
 6012W        W 9531   8.857   3.816  10.447
 6013W        W 9532   0.045   5.055   3.405
 6014W        W 9533   4.809   9.020   3.132
 6015W        W 9534   8.974   0.349  11.529
 6016W        W 9535   2.676   2.951   9.934
 6017W        W 9536   9.069   3.038  10.888
 6018W        W 9537   9.360   2.291   2.733
 6019W        W 9538   1.416   1.011   3.773
 6020W        W 9539   0.373   8.874   1.869
 6021W        W 9540   9.384   2.254   2.218
 6022W        W 9541   3.682   0.759   8.794
 6023W        W 9542   0.310   2.671   8.629
 6024W        W 9543   8.792   0.705   1.227
 6025W        W 9544   6.212   7.107   1.703
 6026W        W 9545   6.474   2.846   1.847
 6027W        W 9546   8.296   0.539   9.623
 6028W        W 9547   7.174   9.941   0.474
 6029W        W 9548   4.945   2.281  11.311
 6030W        W 9549   4.074   5.283  10.458
 6031W        W 9550   5.305   8.219   3.721
 6032W        W 9551   7.958   6.092   2.529
 6033W        W 9552   9.723   6.643   1.867
 6034W        W 9553   7.858   8.616  10.771
 6035W        W 9554   5.675   6.171   0.438
 6036W        W 9555   5.061   1.706  10.910
 6037W        W 9556   7.079   2.816   2.414
 6038W        W 9557   9.765   4.327  11.239
 6039W        W 9558   7.943   5.811   3.450
 6040W        W 9559   6.762   6.423   2.288
 6041W        W 9560   2.591   8.166   9.894
 6042W        W 9561   4.269   5.493   1.417
 6043W        W 9562   4.387   6.428   3.963
 6044W        W 9563   3.792   1.600  10.457
 6045W        W 9564   3.146   7.154   2.078
 6046W        W 9565   2.593   7.868   8.912
 6047W        W 9566   4.739   8.486   0.888
 6048W        W 9567   2.951   1.623   0.923
 6049W        W 9568   4.067   3.244   0.383
 6050W        W 9569   3.532   2.306   1.818
 6051W        W 9570   0.267   8.594   1.020
 6052W        W 9571   1.229   8.024   0.286
 6053W        W 9572   4.540   4.520  11.415
 6054W        W 9573   2.097   2.880   0.957
 6055W        W 9574   9.963   5.912   2.880
 6056W        W 9575   0.852   4.514  10.390
 6057W        W 9576   4.995   4.212   9.434
 6058W        W 9577   3.291   8.841   1.810
 6059W        W 9578   0.426   8.153   1.224
 6060W        W 9579   2.177   5.905   1.460
 6061W        W 9580   0.915   1.617   9.458
 6062W        W 9581   1.400   2.149   8.551
 6063W        W 9582   4.445   8.684   9.370
 6064W        W 9583   5.589   3.183   3.761
 6065W        W 9584   0.801   8.781   9.645
 6066W        W 9585   0.790   8.309   9.787
 6067W        W 9586   8.689   8.930  11.810
 6068W        W 9587   0.380   3.676   3.085
 6069W        W 9588   4.718   3.849   4.117
 6070W        W 9589   5.656   2.644   8.482
 6071W        W 9590   0.529   9.866   0.437
 6072W        W 9591   2.405   1.738   1.635
 6073W        W 9592   6.489   5.593   8.728
 6074W        W 9593   0.050   4.406   2.210
 6075W        W 9594   0.347   8.080   9.813
 6076W        W 9595   6.922   3.091   1.974
 6077W        W 9596   3.060   7.987   9.663
 6078W        W 9597   8.082   0.894   0.359
 6079W        W 9598   7.093   0.291  10.103
 6080W        W 9599   5.599   3.536   2.726
 6081W        W 9600   7.817   2.837   0.742
 6082W        W 9601   2.234   6.186   9.599
 6083W        W 9602   6.677   3.041   9.786
 6084W        W 9603   5.692   3.163   1.561
 6085W        W 9604   0.575   4.357   2.223
 6086W        W 9605   6.548   7.357  10.375
 6087W        W 9606   0.321   5.052   9.730
 6088W        W 9607   9.838   2.610   0.187
 6089W        W 9608   3.759   5.004   9.664
 6090W        W 9609   7.783   2.670   1.702
 6091W        W 9610   3.279   7.782   3.370
 6092W        W 9611   9.140   1.315   1.823
 6093W        W 9612   8.034   7.414   2.226
 6094W        W 9613   9.379   1.079   9.807
 6095W        W 9614   7.929   1.844  10.711
 6096W        W 9615   5.244   2.845   9.206
 6097W        W 9616   3.154   0.472   1.967
 6098W        W 9617   1.477   0.894   3.268
 6099W        W 9618   1.335   9.386   3.194
 6100W        W 9619   5.100   3.694   2.722
 6101W        W 9620   5.708   9.899   0.062
 6102W        W 9621   1.376   1.736   2.081
 6103W        W 9622   6.696   5.466   9.773
 6104W        W 9623   3.755   1.846   3.327
 6105W        W 9624   9.801   5.318   8.775
 6106W        W 9625   2.381   2.196   3.005
 6107W        W 9626   6.608   7.556   2.245
 6108W        W 9627   2.127   8.184  11.177
 6109W        W 9628   5.993   5.801  11.223
 6110W        W 9629   8.103   8.941  11.907
 6111W        W 9630   2.780   9.876   1.846
 6112W        W 9631   0.114   7.395   9.362
 6113W        W 9632   1.893   8.506   8.891
 6114W        W 9633   3.603   1.387   1.671
 6115W        W 9634   0.216   3.803   0.329
 6116W        W 9635   2.579   4.169   3.132
 6117W        W 9636   4.824   4.511   8.310
 6118W        W 9637   1.799   6.679   1.292
 6119W        W 9638   1.515   1.333   0.262
 6120W        W 9639   8.130   2.327   1.347
 6121W        W 9640   6.170   9.036   8.914
 6122W        W 9641   6.721   3.737   1.928
 6123W        W 9642   3.786   5.482   0.676
 6124W        W 9643   5.163   9.620  10.100
 6125W        W 9644   1.489   6.227  10.601
 6126W        W 9645   4.481   8.055   3.195
 6127W        W 9646   0.437   5.074  11.249
 6128W        W 9647   7.988   9.973   3.698
 6129W        W 9648   6.916   3.647  11.511
 6130W        W 9649   6.294   4.182   0.001
 6131W        W 9650   7.982   4.304   1.062
 6132W        W 9651   5.933   1.272  11.284
 6133W        W 9652   4.733   6.375   2.827
 6134W        W 9653   5.624   8.919   1.437
 6135W        W 9654   0.422   6.664   0.464
 6136W        W 9655   1.157   6.585   2.312
 6137W        W 9656   9.603   1.847   2.413
 6138W        W 9657   7.348   6.095   0.768
 6139W        W 9658   3.963   1.077  10.516
 6140W        W 9659   0.860   5.594   9.318
 6141W        W 9660   9.991   1.983   3.150
 6142W        W 9661   0.534   5.071   9.256
 6143W        W 9662   1.729   3.278  11.878
 6144W        W 9663   5.179   5.616   9.282
 6145W        W 9664   5.958   3.683   3.685
 6146W        W 9665   8.822   5.335   3.108
 6147W        W 9666   1.846   4.555   0.412
 6148W        W 9667   2.579   8.762  11.815
 6149W        W 9668   6.679   0.257   3.129
 6150W        W 9669   7.426   3.576  10.503
 6151W        W 9670   9.400   2.769   3.260
 6152W        W 9671   8.888   3.502  10.917
 6153W        W 9672   1.697   8.069  11.504
 6154W        W 9673   7.555   0.354   2.893
 6155W        W 9674   6.504   8.681   9.124
 6156W        W 9675   1.092   9.083   1.204
 6157W        W 9676   9.937   4.317   8.822
 6158W        W 9677   8.008   6.664  11.402
 6159W        W 9678   0.460   4.989  11.765
 6160W        W 9679   1.882   4.613   2.249
 6161W        W 9680   9.886   2.897   8.848
 6162W        W 9681   0.568   0.886  10.462
 6163W        W 9682   4.596   9.763   2.077
 6164W        W 9683   6.283   1.340  10.253
 6165W        W 9684   9.327   2.634   0.017
 6166W        W 9685   1.069   9.871  11.576
 6167W        W 9686   6.456   0.314   1.631
 6168W        W 9687   6.513   5.131  10.369
 6169W        W 9688   9.489   3.635   2.697
 6170W        W 9689   6.446   2.945   3.015
 6171W        W 9690   6.968   1.164   0.763
 6172W        W 9691   6.661   6.032  10.627
 6173W        W 9692   3.090   4.622   2.950
 6174W        W 9693   2.633   9.947   0.232
 6175W        W 9694   1.942   7.827   0.989
 6176W        W 9695   1.241   9.921  11.082
 6177W        W 9696   9.386   7.487   0.800
 6178W        W 9697   3.286   0.724   2.781
 6179W        W 9698   1.895   1.004   1.753
 6180W        W 9699   7.120   3.236  10.256
 6181W        W 9700   8.887   2.642  11.173
 6182W        W 9701   4.486   0.354   1.444
 6183W        W 9702   7.077   4.161  10.321
 6184W        W 9703   5.039   8.377   2.455
 6185W        W 9704   3.509   7.370   1.640
 6186W        W 9705   0.391   6.845  10.811
 6187W        W 9706   4.991   7.380   1.875
 6188W        W 9707   1.770   6.153   9.346
 6189W        W 9708   3.292   6.257   7.995
 6190W        W 9709   0.451   0.952  10.954
 6191W        W 9710   1.915   1.674  11.085
 6192W        W 9711   9.551   9.523   2.366
 6193W        W 9712   9.603   9.352   9.178
 6194W        W 9713   9.314   3.137  11.491
 6195W        W 9714   7.311   5.162   1.903
 6196W        W 9715   3.551   3.579  10.245
 6197W        W 9716   0.805   2.198   1.048
 6198W        W 9717   8.875   5.162   2.179
 6199W        W 9718   7.536   7.229  10.813
 6200W        W 9719   3.398   5.497   4.065
 6201W        W 9720   8.583   5.430   8.993
 6202W        W 9721   4.718   6.383  11.808
 6203W        W 9722   2.036   5.011   1.361
 6204W        W 9723   4.597   9.733   8.981
 6205W        W 9724   7.081   3.657   2.784
 6206W        W 9725   4.595   0.634   9.320
 6207W        W 9726   1.353   1.112  11.822
 6208W        W 9727   7.341   0.624   8.557
 6209W        W 9728   1.803   1.350   9.980
 6210W        W 9729   8.549   9.319  10.960
 6211W        W 9730   2.182   1.751  10.417
 6212W        W 9731   8.531   7.105   9.155
 6213W        W 9732   8.448   3.592  10.673
 6214W        W 9733   2.304   9.313   8.941
 6215W        W 9734   2.668   2.483   1.293
 6216W        W 9735   1.665   3.763   3.328
 6217W        W 9736   4.699   7.811   2.801
 6218W        W 9737   5.173   7.936   1.590
 6219W        W 9738   3.316   3.067  11.787
 6220W        W 9739   5.664   1.026   2.591
 6221W        W 9740   3.700   7.829   3.008
 6222W        W 9741   1.796   6.192   2.230
 6223W        W 9742   7.809   2.220  11.193
 6224W        W 9743   4.536   0.067   9.390
 6225W        W 9744   3.581   3.329  11.359
 6226W        W 9745   8.258   8.026   3.526
 6227W        W 9746   1.591   7.736   3.091
 6228W        W 9747   3.445   7.132   9.063
 6229W        W 9748   0.875   0.281   1.416
 6230W        W 9749   5.688   5.065   9.673
 6231W        W 9750   8.015   8.890   9.016
 6232W        W 9751   5.249   4.238   8.471
 6233W        W 9752   6.153   7.253   9.032
 6234W        W 9753   3.113   2.322   1.503
 6235W        W 9754   7.165   1.444   0.353
 6236W        W 9755   2.891   6.614   1.838
 6237W        W 9756   7.947   0.684   2.880
 6238W        W 9757   4.926   5.675   3.932
 6239W        W 9758   2.310   3.038   1.394
 6240W        W 9759   5.464   4.033   2.034
 6241W        W 9760   8.469   7.550  10.369
 6242W        W 9761   7.522   7.612   3.250
 6243W        W 9762   2.698   6.038   3.088
 6244W        W 9763   4.568   0.820   9.827
 6245W        W 9764   5.254   9.797  11.830
 6246W        W 9765   0.371   6.968   9.243
 6247W        W 9766   6.467   3.681   1.208
 6248W        W 9767   6.155   4.983   3.417
 6249W        W 9768   6.602   4.044  10.166
 6250W        W 9769   5.648   8.853   2.374
 6251W        W 9770   0.698   1.722   0.826
 6252W        W 9771   2.535   0.357  10.792
 6253W        W 9772   4.862   3.259   1.022
 6254W        W 9773   0.849   4.845   9.991
 6255W        W 9774   3.153   8.383   1.636
 6256W        W 9775   0.807   3.203   9.163
 6257W        W 9776   6.164   4.551   2.180
 6258W        W 9777   5.675   0.921   8.443
 6259W        W 9778   9.406   4.362   9.891
 6260W        W 9779   1.913   0.963   3.688
 6261W        W 9780   4.712   8.729   3.596
 6262W        W 9781   9.987   8.463   0.058
 6263W        W 9782   7.600   5.841  11.564
 6264W        W 9783   2.549   1.738   0.611
 6265W        W 9784   6.940   2.804   9.391
 6266W        W 9785   9.454   8.696   3.279
 6267W        W 9786   9.907   4.412   2.747
 6268W        W 9787   0.989   8.316   3.671
 6269W        W 9788   0.430   5.651  10.011
 6270W        W 9789   4.815   7.211   9.604
 6271W        W 9790   9.329   1.453   3.198
 6272W        W 9791   2.514   4.233  10.896
 6273W        W 9792   9.433   6.055   3.082
 6274W        W 9793   4.147   2.268   9.728
 6275W        W 9794   3.527   5.038  11.960
 6276W        W 9795   3.161   6.573   2.735
 6277W        W 9796   3.571   6.003   4.134
 6278W        W 9797   0.356   8.598   9.847
 6279W        W 9798   3.149   9.394  11.518
 6280W        W 9799   4.560   3.838   3.323
 6281W        W 9800   9.258   9.438   1.426
 6282W        W 9801   8.252   1.014  10.685
 6283W        W 9802   0.381   8.731  11.675
 6284W        W 9803   3.216   6.106  10.551
 6285W        W 9804   4.086   5.087   2.103
 6286W        W 9805   7.400   5.913  11.073
 6287W        W 9806   7.926   2.824   0.241
 6288W        W 9807   7.265   9.218   1.812
 6289W        W 9808   1.866   6.940  10.830
 6290W        W 9809   4.236   1.886  10.446
 6291W        W 9810   6.503   3.232   0.319
 6292W        W 9811   8.171   9.914   0.576
 6293W        W 9812   1.728   0.870   0.325
 6294W        W 9813   9.545   0.982   1.942
 6295W        W 9814   5.516   9.540   9.301
 6296W        W 9815   4.548   7.596  10.482
 6297W        W 9816   0.458   7.967   1.879
 6298W        W 9817   5.942   6.192   2.093
 6299W        W 9818   6.621   0.716   2.871
 6300W        W 9819   2.256   9.864  10.485
 6301W        W 9820   3.179   5.528  11.279
 6302W        W 9821   7.647   2.196   9.469
 6303W        W 9822   9.678   4.109   1.940
 6304W        W 9823   3.206   8.472   8.516
 6305W        W 9824   7.301   3.537   8.751
 6306W        W 9825   8.357   5.147   1.435
 6307W        W 9826   8.346   9.833   8.824
 6308W        W 9827   1.390   3.156   1.143
 6309W        W 9828   5.574   7.401   9.208
 6310W        W 9829   7.768   3.288   0.348
 6311W        W 9830   3.153   4.087  11.957
 6312W        W 9831   6.350   5.062   2.100
 6313W        W 9832   8.284   9.373   1.241
 6314W        W 9833   8.301   8.894   9.434
 6315W        W 9834   9.867   1.248   2.522
 6316W        W 9835   7.174   3.098   9.756
 6317W        W 9836   7.928   1.094   3.195
 6318W        W 9837   1.856   9.519  11.675
 6319W        W 9838   2.087   8.321   9.896
 6320W        W 9839   5.081   4.175   8.934
 6321W        W 9840   4.232   1.609   0.789
 6322W        W 9841   2.653   5.098  11.747
 6323W        W 9842   1.695   2.152   0.509
 6324W        W 9843   0.865   4.687   1.902
 6325W        W 9844   7.405   9.500   8.633
 6326W        W 9845   9.299   1.645  10.421
 6327W        W 9846   8.286   0.475   1.285
 6328W        W 9847   1.197   2.623  11.846
 6329W        W 9848   9.093   1.876   9.269
 6330W        W 9849   1.624   2.481   3.559
 6331W        W 9850   2.736   3.443  10.096
 6332W        W 9851   3.443   5.888   1.900
 6333W        W 9852   8.907   7.836  10.284
 6334W        W 9853   6.015   2.202   8.454
 6335W        W 9854   7.190   1.775  11.101
 6336W        W 9855   6.849   9.541   2.684
 6337W        W 9856   5.579   8.395  10.787
 6338W        W 9857   2.901   1.388   0.452
 6339W        W 9858   5.214   9.751  10.950
 6340W        W 9859   0.276   8.486   8.574
 6341W        W 9860   4.364   9.716   2.782
 6342W        W 9861   3.518   9.660   2.363
 6343W        W 9862   0.133   3.794  11.418
 6344W        W 9863   8.869   6.988   2.221
 6345W        W 9864   4.164   1.297   9.750
 6346W        W 9865   7.471   6.649   3.357
 6347W        W 9866   1.292   1.917   0.320
 6348W        W 9867   6.580   9.491   9.933
 6349W        W 9868   4.976   2.230   9.852
 6350W        W 9869   4.906   6.008   9.018
 6351W        W 9870   7.524   0.432   1.087
 6352W        W 9871   8.786   0.884   3.078
 6353W        W 9872   8.069   6.666   1.725
 6354W        W 9873   1.403   9.266   9.273
 6355W        W 9874   1.651   5.721  10.431
 6356W        W 9875   6.853   6.104   3.287
 6357W        W 9876   3.009   5.284   8.536
 6358W        W 9877   6.537   3.151  10.953
 6359W        W 9878   5.523   0.198  10.378
 6360W        W 9879   1.247   3.357   2.689
 6361W        W 9880   5.124   2.067   0.686
 6362W        W 9881   3.245   6.795   0.299
 6363W        W 9882   1.735   3.795   1.793
 6364W        W 9883   0.354   5.685   1.232
 6365W        W 9884   4.530   1.015  10.302
 6366W        W 9885   7.370   5.204   0.692
 6367W        W 9886   1.130   3.614   1.046
 6368W        W 9887   3.427   8.483   0.874
 6369W        W 9888   4.366   2.597   3.605
 6370W        W 9889   2.250   0.839  10.267
 6371W        W 9890   3.074   7.995  10.519
 6372W        W 9891   9.855   8.660   0.523
 6373W        W 9892   2.859   6.773  11.933
 6374W        W 9893   6.159   0.545   9.827
 6375W        W 9894   8.755   0.872  10.843
 6376W        W 9895   8.083   2.494   2.075
 6377W        W 9896   2.524   0.161  11.781
 6378W        W 9897   9.725   2.579   1.250
 6379W        W 9898   2.934   6.964   0.731
 6380W        W 9899   2.298   1.689   3.071
 6381W        W 9900   8.984   3.460   9.621
 6382W        W 9901   0.664   6.346   3.474
 6383W        W 9902   6.044   9.239   0.764
 6384W        W 9903   6.478   9.365  10.877
 6385W        W 9904   5.204   4.084   3.814
 6386W        W 9905   9.967   2.346   8.880
 6387W        W 9906   4.052   8.293   3.017
 6388W        W 9907   0.281   6.716   2.593
 6389W        W 9908   2.180   5.347   0.248
 6390W        W 9909   4.892   6.678  11.443
 6391W        W 9910   0.030   1.390   1.376
 6392W        W 9911   8.014   3.310   0.814
 6393W        W 9912   5.549   1.186  10.127
 6394W        W 9913   8.412   6.002  10.766
 6395W        W 9914   8.596   5.009  11.387
 6396W        W 9915   6.988   6.406  10.508
 6397W        W 9916   8.098   7.699   0.808
 6398W        W 9917   4.795   4.592  11.892
 6399W        W 9918   4.073   1.351   9.254
 6400W        W 9919   7.368   2.362   1.773
 6401W        W 9920   2.426   7.862   0.833
 6402W        W 9921   5.096   2.377   9.339
 6403W        W 9922   8.102   0.910   9.327
 6404W        W 9923   7.142   0.854  11.177
 6405W        W 9924   1.750   0.559   2.875
 6406W        W 9925   0.859   1.709   3.386
 6407W        W 9926   6.614   8.594  11.911
 6408W        W 9927   9.341   8.940   9.436
 6409W        W 9928   3.011   0.224  11.975
 6410W        W 9929   1.537   6.582   1.956
 6411W        W 9930   7.583   1.637   9.457
 6412W        W 9931   1.169   5.034   2.698
 6413W        W 9932   8.695   6.671   0.620
 6414W        W 9933   2.333   2.800  10.448
 6415W        W 9934   9.201   2.878  10.395
 6416W        W 9935   0.935   6.875   1.395
 6417W        W 9936   5.799   0.800  11.440
 6418W        W 9937   4.046   0.741   0.923
 6419W        W 9938   7.423   8.964   2.335
 6420W        W 9939   3.184   9.379   0.017
 6421W        W 9940   1.637   6.250  11.713
 6422W        W 9941   3.119   3.694   9.301
 6423W        W 9942   6.890   6.629  10.981
 6424W        W 9943   2.327   2.493   0.006
 6425W        W 9944   9.769   4.634   9.234
 6426W        W 9945   2.422   8.708  10.051
 6427W        W 9946   4.501   4.344   0.265
 6428W        W 9947   1.276   3.759   2.992
 6429W        W 9948   9.412   2.140  11.181
 6430W        W 9949   5.984   2.988   0.253
 6431W        W 9950   5.650   5.754  10.806
 6432W        W 9951   0.745   3.155  11.005
 6433W        W 9952   2.731   9.669   0.650
 6434W        W 9953   8.402   4.418   8.822
 6435W        W 9954   7.619   6.093  10.394
 6436W        W 9955   0.732   8.601  10.206
 6437W        W 9956   3.160   2.671   2.770
 6438W        W 9957   9.404   0.178  11.307
 6439W        W 9958   2.700   9.412   0.210
 6440W        W 9959   8.253   1.704   8.931
 6441W        W 9960   6.006   3.203  11.005
 6442W        W 9961   9.515   5.744   0.241
 6443W        W 9962   0.009   0.491   3.221
 6444W        W 9963   7.587   1.886   2.472
 6445W        W 9964   8.162   3.216  11.981
 6446W        W 9965   1.616   8.433   9.722
 6447W        W 9966   7.978   1.624   9.829
 6448W        W 9967   1.155   5.835  10.452
 6449W        W 9968   8.422   5.539  10.299
 6450W        W 9969   8.317   5.861  11.851
 6451W        W 9970   9.580   2.420  10.355
 6452W        W 9971   4.666   0.170   3.233
 6453W        W 9972   8.602   5.607   2.132
 6454W        W 9973   8.911   0.446   2.337
 6455W        W 9974   2.889   1.853   1.396
 6456W        W 9975   1.930   3.219   0.381
 6457W        W 9976   3.159   7.454   9.746
 6458W        W 9977   2.110   2.945  11.964
 6459W        W 9978   4.006   4.380   8.096
 6460W        W 9979   5.765   2.036   3.568
 6461W        W 9980   9.552   3.134  10.126
 6462W        W 9981   8.783   1.300  11.568
 6463W        W 9982   0.380   6.203   1.249
 6464W        W 9983   1.213   7.570   0.502
 6465W        W 9984   0.977   6.292  10.590
 6466W        W 9985   8.055   4.381   1.543
 6467W        W 9986   2.409   1.218   2.918
 6468W        W 9987   0.892   1.634  11.249
 6469W        W 9988   0.023   8.192   2.758
 6470W        W 9989   1.499   4.984   0.668
 6471W        W 9990   3.513   9.336   2.768
 6472W        W 9991   7.414   2.317   2.738
 6473W        W 9992   1.554   4.223   2.051
 6474W        W 9993   3.572   7.565   1.143
 6475W        W 9994   9.110   5.017   0.240
 6476W        W 9995   6.928   0.902  10.731
 6477W        W 9996   4.239   9.840   9.743
 6478W        W 9997   3.704   1.818  10.905
 6479W        W 9998   0.763   6.652   9.433
 6480W        W 9999   6.512   9.415   9.062
 6481W        W10000   2.601   4.994  10.302
 6482W        W10001   5.679   5.787   1.834
 6483W        W10002   2.840   8.381   8.857
 6484W        W10003   4.236   7.082   0.995
 6485W        W10004   6.474   2.336   1.886
 6486W        W10005   8.297   8.004   9.136
 6487W        W10006   5.969   2.166  11.522
 6488W        W10007   8.320   4.069   2.781
 6489W        W10008   5.223   7.450   1.403
 6490W        W10009   3.123   5.677   2.343
 6491W        W10010   1.836   7.170   3.287
 6492W        W10011   9.372   9.629   1.889
 6493W        W10012   5.227   6.932   1.931
 6494W        W10013   0.246   5.366   0.048
 6495W        W10014   8.561   0.686   0.418
 6496W        W10015   0.108   5.014   1.749
 6497W        W10016   7.824   1.480   8.645
 6498W        W10017   7.161   8.159   0.707
 6499W        W10018   9.191   6.200   1.238
 6500W        W10019   0.404   8.437   3.656
 6501W        W10020   8.124   7.838  10.080
 6502W        W10021   2.356   7.507   9.373
 6503W        W10022   3.230   5.201   8.975
 6504W        W10023   5.998   7.665   9.317
 6505W        W10024   2.934   8.898  11.437
 6506W        W10025   2.985   5.142   0.756
 6507W        W10026   5.093   0.696   0.880
 6508W        W10027   2.269   3.968  11.950
 6509W        W10028   5.639   4.969   0.872
 6510W        W10029   0.899   9.489  10.689
 6511W        W10030   7.508   1.241   3.499
 6512W        W10031   2.308   4.329   9.092
 6513W        W10032   5.010   9.913  10.498
 6514W        W10033   9.849   7.672  10.306
 6515W        W10034   5.808   1.549   0.111
 6516W        W10035   4.950   2.421  10.329
 6517W        W10036   5.950   3.817   9.106
 6518W        W10037   6.793   1.062  11.500
 6519W        W10038   7.625   3.649   0.945
 6520W        W10039   6.226   0.381   2.943
 6521W        W10040   4.238   8.087   0.677
 6522W        W10041   9.966   3.018   1.315
 6523W        W10042   2.695   0.807   9.059
 6524W        W10043   2.658   5.902   2.272
 6525W        W10044   5.666   7.676   0.433
 6526W        W10045   2.563   5.541  11.985
 6527W        W10046   6.215   9.798  10.927
 6528W        W10047   7.500   8.095   3.446
 6529W        W10048   9.315   4.635   8.987
 6530W        W10049   5.500   6.992   2.382
 6531W        W10050   1.692   7.978   8.939
 6532W        W10051   7.626   5.830   8.776
 6533W        W10052   5.473   9.329  11.680
 6534W        W10053   9.373   7.890  10.521
 6535W        W10054   8.964   4.064   0.086
 6536W        W10055   1.686   8.230   8.477
 6537W        W10056   8.090   8.900   1.388
 6538W        W10057   1.414   3.932  11.958
 6539W        W10058   4.743   4.585   8.820
 6540W        W10059   2.949   8.451   9.392
 6541W        W10060   2.769   4.193   9.342
 6542W        W10061   1.478   2.557  10.808
 6543W        W10062   2.255   5.643   9.672
 6544W        W10063   1.774   4.676  11.855
 6545W        W10064   8.016   2.762  11.218
 6546W        W10065   3.864   0.959   0.241
 6547W        W10066   3.699   3.293   3.249
 6548W        W10067   9.649   7.583   9.460
 6549W        W10068   5.817   5.964   3.560
 6550W        W10069   8.502   6.755   9.580
 6551W        W10070   7.736   6.077   8.327
 6552W        W10071   2.240   0.448   0.944
 6553W        W10072   3.181   9.433  11.008
 6554W        W10073   9.797   0.767   2.359
 6555W        W10074   4.522   0.243  11.871
 6556W        W10075   3.647   9.331  11.833
 6557W        W10076   7.377   3.276   1.264
 6558W        W10077   8.583   3.920   3.650
 6559W        W10078   0.061   9.014   9.919
 6560W        W10079   4.519   5.941   8.226
 6561W        W10080   1.844   9.483   9.129
 6562W        W10081   2.851   2.618   9.154
 6563W        W10082   3.663   7.069   0.375
 6564W        W10083   5.292   5.581   2.692
 6565W        W10084   7.769   5.334  11.176
 6566W        W10085   7.505   7.055   2.105
 6567W        W10086   4.927   6.116   2.437
 6568W        W10087   7.174   3.762  11.080
 6569W        W10088   9.932   3.665   1.906
 6570W        W10089   4.585   0.521  10.233
 6571W        W10090   5.611   3.037   2.708
 6572W        W10091   2.701   2.533  10.224
 6573W        W10092   9.604   9.281  11.558
 6574W        W10093   5.257   5.435   3.616
 6575W        W10094   9.645   7.545  11.273
 6576W        W10095   6.806   5.075   1.841
 6577W        W10096   7.642   2.757   2.565
 6578W        W10097   8.785   0.424   9.560
 6579W        W10098   7.475   7.978   1.447
 6580W        W10099   2.397   8.444  10.835
 6581W        W10100   4.776   3.798  10.875
 6582W        W10101   6.470   1.172  11.976
 6583W        W10102   7.194   9.864  11.942
 6584W        W10103   3.578   5.545   8.398
 6585W        W10104   5.204   0.879   0.409
 6586W        W10105   5.167   8.080   8.527
 6587W        W10106   0.729   0.337  11.578
 6588W        W10107   4.800   6.164  10.772
 6589W        W10108   9.790   5.610   3.338
 6590W        W10109   6.043   0.656   1.013
 6591W        W10110   0.383   7.106   2.268
 6592W        W10111   4.603   3.263   0.133
 6593W        W10112   5.044   5.261   2.401
 6594W        W10113   6.315   9.451   3.308
 6595W        W10114   2.471   5.607   1.905
 6596W        W10115   1.278   2.600   1.641
 6597W        W10116   4.199   3.030  11.923
 6598W        W10117   4.744   5.696  11.487
 6599W        W10118   7.458   4.912   3.315
 6600W        W10119   6.831   2.916   1.485
 6601W        W10120   7.417   4.883   2.770
 6602W        W10121   5.500   8.155   0.338
 6603W        W10122   4.059   4.156   9.879
 6604W        W10123   4.532   9.629  10.389
 6605W        W10124   1.816   9.319  10.086
 6606W        W10125   9.562   6.238   1.599
 6607W        W10126   8.900   7.479   9.061
 6608W        W10127   2.563   4.143   1.749
 6609W        W10128   2.771   4.274   2.659
 6610W        W10129   3.345   3.804   2.083
 6611W        W10130   3.943   0.254   3.637
 6612W        W10131   5.470   5.595  11.242
 6613W        W10132   9.211   2.689   2.438
 6614W        W10133   5.625   3.813  11.253
 6615W        W10134   4.855   0.415   2.457
 6616W        W10135   5.739   1.370   1.596
 6617W        W10136   2.782   5.073  10.770
 6618W        W10137   0.331   8.466   0.521
 6619W        W10138   1.832   1.909   1.840
 6620W        W10139   7.306   2.184  11.370
 6621W        W10140   7.022   4.478   0.355
 6622W        W10141   0.770   6.684  11.504
 6623W        W10142   4.468   5.904   9.456
 6624W        W10143   1.455   9.773  11.904
 6625W        W10144   4.948   1.158   1.065
 6626W        W10145   1.683   5.719  11.816
 6627W        W10146   0.485   2.354   9.518
 6628W        W10147   8.595   0.175  10.856
 6629W        W10148   5.568   9.765   3.364
 6630W        W10149   0.805   7.362   9.981
 6631W        W10150   0.737   1.360  10.845
 6632W        W10151   4.161   2.053   0.008
 6633W        W10152   8.351   5.548   3.297
 6634W        W10153   7.390   1.393   2.525
 6635W        W10154   7.264   4.759   2.233
 6636W        W10155   4.593   4.555  10.486
 6637W        W10156   3.949   7.234   2.395
 6638W        W10157   5.403   8.478   1.632
 6639W        W10158   7.858   8.078  10.465
 6640W        W10159   4.239   3.489   8.673
 6641W        W10160   0.923   6.883   9.885
 6642W        W10161   7.887   6.088   0.788
 6643W        W10162   1.696   9.029   3.362
 6644W        W10163   3.796   7.631  10.707
 6645W        W10164   5.053   6.623   9.605
 6646W        W10165   5.049   1.188  10.920
 6647W        W10166   7.034   7.806   2.266
 6648W        W10167   9.985   8.513   9.054
 6649W        W10168   1.681   3.428   3.704
 6650W        W10169   3.909   7.444   3.427
 6651W        W10170   6.964   8.544   8.911
 6652W        W10171   6.038   8.098  11.752
 6653W        W10172   5.884   4.034   3.001
 6654W        W10173   4.848   5.066   0.880
 6655W        W10174   0.206   3.702   9.257
 6656W        W10175   5.150   8.556   0.335
 6657W        W10176   0.545   7.666  11.346
 6658W        W10177   4.564   9.436   0.279
 6659W        W10178   1.354   7.147  10.822
 6660W        W10179   2.261   9.674   8.580
 6661W        W10180   4.712   1.878   0.921
 6662W        W10181   5.944   3.470   0.308
 6663W        W10182   4.458   4.113   8.145
 6664W        W10183   5.586   0.961   9.649
 6665W        W10184   8.282   6.206   1.672
 6666W        W10185   8.400   3.637   1.263
 6667W        W10186   1.637   6.636   2.444
 6668W        W10187   0.352   2.192   0.815
 6669W        W10188   4.788   5.365  11.018
 6670W        W10189   1.262   0.683   2.836
 6671W        W10190   9.179   9.195   2.486
 6672W        W10191   6.697   2.183   1.465
 6673W        W10192   1.716   8.002   0.050
 6674W        W10193   5.939   3.735   1.210
 6675W        W10194   2.104   8.000  10.712
 6676W        W10195   1.794   1.238   1.252
 6677W        W10196   8.071   8.365   0.437
 6678W        W10197   0.759   5.341   3.453
 6679W        W10198   2.292   5.585   1.009
 6680W        W10199   6.343   4.142  11.070
 6681W        W10200   5.899   7.176   2.702
 6682W        W10201   0.416   0.458   2.367
 6683W        W10202   1.077   9.014  10.003
 6684W        W10203   3.376   9.761   1.225
 6685W        W10204   6.648   0.745   3.400
 6686W        W10205   4.113   9.873  10.247
 6687W        W10206   4.576   5.942  10.357
 6688W        W10207   0.645   7.969   3.558
 6689W        W10208   2.545   4.455  10.297
 6690W        W10209   6.043   5.687   2.155
 6691W        W10210   6.154   2.670   8.650
 6692W        W10211   3.530   4.758  10.641
 6693W        W10212   0.949   7.920   3.116
 6694W        W10213   7.953   5.503   2.960
 6695W        W10214   3.711   6.799  11.950
 6696W        W10215   2.805   1.343   9.799
 6697W        W10216   7.174   4.791   0.986
 6698W        W10217   6.655   1.747   9.492
 6699W        W10218   7.040   3.183   0.485
 6700W        W10219   6.490   6.931   9.262
 6701W        W10220   7.007   0.311  11.812
 6702W        W10221   7.600   5.875   2.942
 6703W        W10222   0.202   0.617  10.233
 6704W        W10223   3.523   4.071  10.014
 6705ION    NA+10224   4.493   0.507  11.003
 6706ION    NA+10225   7.915   4.262   8.796
 6707ION    NA+10226   6.216   8.426   0.756
 6708ION    NA+10227   3.378   1.642   1.207
 6709ION    NA+10228   3.863   6.189   1.817
 6710ION    NA+10229   2.184   5.677  10.466
 6711ION    NA+10230   4.450   6.601  10.315
 6712ION    NA+10231   6.676   5.064  11.674
 6713ION    NA+10232   9.468   3.090   8.546
 6714ION    NA+10233   4.742   8.889   9.941
 6715ION    NA+10234   6.114   3.669   9.578
 6716ION    NA+10235   4.725   7.879   0.744
 6717ION    NA+10236   7.895   5.613  11.985
 6718ION    NA+10237   0.856   3.212  11.945
 6719ION    NA+10238   0.046   9.979   3.068
 6720ION    NA+10239   7.608   8.909  11.817
 6721ION    NA+10240   1.765   7.052   9.472
 6722ION    NA+10241   4.060   2.337  10.263
 6723ION    NA+10242   3.763   0.157   8.806
 6724ION    NA+10243   3.783   8.482   9.567
 6725ION    NA+10244   6.965   1.241   8.911
 6726ION    NA+10245   3.599   5.553  10.981
 6727ION    NA+10246   7.491   4.042   9.561
 6728ION    NA+10247   5.501   9.257  10.253
 6729ION    NA+10248   6.949   9.492  10.691
 6730ION    NA+10249   3.182   0.963   8.916
 6731ION    NA+10250   0.294   5.477  11.542
 6732ION    NA+10251   9.324   3.435   1.325
 6733ION    NA+10252   8.092   1.672   3.208
 6734ION    NA+10253   2.566   5.074   8.777
 6735ION    NA+10254   6.354   0.874   1.774
 6736ION    NA+10255   8.625   1.360  10.746
 6737ION    NA+10256   5.293   8.749   2.725
 6738ION    NA+10257   1.885   4.698   1.742
 6739ION    NA+10258   7.278   9.360   2.882
 6740ION    NA+10259   1.773   9.818   0.454
 6741ION    NA+10260   7.848   7.905   2.214
 6742ION    NA+10261   2.718   6.801   2.371
 6743ION    NA+10262   1.572   6.636   0.821
 6744ION    NA+10263   1.372   8.656   1.104
 6745ION    NA+10264   2.182   5.892  11.995
 6746ION    NA+10265   8.245   4.755   2.184
 6747ION    NA+10266   8.942   8.991  10.296
 6748ION    NA+10267   8.395   7.948  11.990
 6749ION    NA+10268   8.383   7.991   1.565
 6750ION    NA+10269   5.985   6.624   4.065
 6751ION    NA+10270   4.177   9.547   1.070
 6752ION    NA+10271   0.907   3.285   9.662
 6753ION    NA+10272   1.367   0.516   3.742
 6754ION    NA+10273   4.108   5.528   2.393
 6755ION    NA+10274   8.714   2.739   1.204
 6756ION    NA+10275   6.453   8.464   2.265
 6757ION    NA+10276   7.800   4.862  10.977
 6758ION    NA+10277   4.232   5.285   0.315
 6759ION    NA+10278   0.564   4.869   0.289
 6760ION    NA+10279   1.838   0.109   3.156
 6761ION    NA+10280   3.810   4.948  10.169
 6762ION    NA+10281   9.675   7.860   3.012
 6763ION    NA+10282   5.032   5.862   3.442
 6764ION    NA+10283   3.567   9.600   0.279
 6765ION    NA+10284   0.429   0.363   8.600
 6766ION    NA+10285   8.790   7.942   2.435
 6767ION    NA+10286   3.863   6.324   9.136
 6768ION    NA+10287   4.279   0.376   9.766
 6769ION    NA+10288   7.978   7.865   9.533
 6770ION    NA+10289   2.730   1.877   2.456
 6771ION    NA+10290   3.049   2.695  11.559
 6772ION    NA+10291   7.501   2.540  10.486
 6773ION    NA+10292   2.117   5.820   8.784
 6774ION    NA+10293   5.375   4.576   1.586
 6775ION    NA+10294   6.533   6.969   9.839
 6776ION    CL-10295   8.679   4.662   2.243
 6777ION    CL-10296   0.246   1.221   2.896
 6778ION    CL-10297   5.110   8.796   1.348
 6779ION    CL-10298   6.140   0.481  11.218
 6780ION    CL-10299   5.007   4.598   3.089
 6781ION    CL-10300   6.155   3.890   9.962
 6782ION    CL-10301   1.135   3.666   9.647
 6783ION    CL-10302   2.289   5.413   8.937
 6784ION    CL-10303   3.961   5.849   2.100
 6785ION    CL-10304   1.842   1.840   3.317
 6786ION    CL-10305   6.437   8.544   0.385
 6787ION    CL-10306   4.144   8.263   9.403
 6788ION    CL-10307   4.512   1.545   9.464
 6789ION    CL-10308   2.710   5.356   2.298
 6790ION    CL-10309   0.864   4.659   0.033
 6791ION    CL-10310   7.039   1.040   8.480
 6792ION    CL-10311   7.789   4.120   9.214
 6793ION    CL-10312   4.743   7.672   0.345
 6794ION    CL-10313   2.219   8.502  11.564
 6795ION    CL-10314   4.042   6.695  10.479
 6796ION    CL-10315   2.273   9.070   2.170
 6797ION    CL-10316   7.728   9.218   0.116
 6798ION    CL-10317   9.152   2.716   9.490
 6799ION    CL-10318   5.132   4.290   1.327
 6800ION    CL-10319   1.401   0.030   0.332
 6801ION    CL-10320   9.001   3.091   1.264
 6802ION    CL-10321   3.287   3.706   3.591
 6803ION    CL-10322   5.761   7.438   2.295
 6804ION    CL-10323   3.209   4.901   0.375
 6805ION    CL-10324   0.220   0.530   0.936
 6806ION    CL-10325   6.174   2.371   2.317
 6807ION    CL-10326   4.865   5.098   8.594
 6808ION    CL-10327   9.024   1.245  10.586
 6809ION    CL-10328   7.506   4.320   0.260
 6810ION    CL-10329   7.803   5.167  10.653
 6811ION    CL-10330   5.591   6.635   0.238
 6812ION    CL-10331   1.033   8.702   0.806
 6813ION    CL-10332   0.825   8.418   2.293
 6814ION    CL-10333   6.659   1.570   9.011
 6815ION    CL-10334   1.284   4.569  10.049
 6816ION    CL-10335   0.093   7.719   2.927
 6817ION    CL-10336   4.348   4.577  10.956
 6818ION    CL-10337   4.440   0.081  11.131
 6819ION    CL-10338   3.364   8.598   9.694
 6820ION    CL-10339   3.148   7.288   0.366
 6821ION    CL-10340   2.072   6.012  11.577
 6822ION    CL-10341   2.451   1.537   2.373
 6823ION    CL-10342   5.523   4.958   1.787
 6824ION    CL-10343   8.259   7.941   2.009
 6825ION    CL-10344   7.116   4.114   9.805
 6826ION    CL-10345   9.766   0.935   8.781
 6827ION    CL-10346   5.171   8.665   3.151
 6828ION    CL-10347   5.766   3.272   1.038
 6829ION    CL-10348   6.711   3.382   3.145
 6830ION    CL-10349   7.535   9.933   0.859
 6831ION    CL-10350   8.952   9.305  10.615
 6832ION    CL-10351   8.500   9.204   3.582
 6833ION    CL-10352   3.700   6.703   9.314
 6834ION    CL-10353   9.985   3.777   2.808
 6835ION    CL-10354   6.379   7.744   8.962
 6836ION    CL-10355   4.644   3.326   9.640
 6837ION    CL-10356   5.133   9.109  10.021
 6838ION    CL-10357   5.751   0.299   3.118
 6839ION    CL-10358   5.734   3.582   3.220
 6840ION    CL-10359   5.070   7.553   9.329
 6841ION    CL-10360   9.560   5.703   9.056
 6842ION    CL-10361   9.848   2.510   3.089
 6843ION    CL-10362   2.718   4.653  11.540
 6844ION    CL-10363   7.821   2.568  10.791
 6845ION    CL-10364   1.707   8.597   1.411
 6846ION    CL-10365   9.640   3.737   1.471
  10.00000  10.00000  12.00000
